/*--------------------------------*- C++ -*----------------------------------*\
| =========                 |                                                 |
| \\      /  F ield         | OpenFOAM: The Open Source CFD Toolbox           |
|  \\    /   O peration     | Version:  v1612+                                |
|   \\  /    A nd           | Web:      www.OpenFOAM.com                      |
|    \\/     M anipulation  |                                                 |
\*---------------------------------------------------------------------------*/
FoamFile
{
    version     2.0;
    format      ascii;
    class       surfaceScalarField;
    location    "150";
    object      phi;
}
// * * * * * * * * * * * * * * * * * * * * * * * * * * * * * * * * * * * * * //

dimensions      [0 3 -1 0 0 0 0];

internalField   nonuniform List<scalar> 
41566
(
3.69334e-09
2.49642e-09
-3.25643e-09
-2.93331e-09
-2.43389e-09
3.41599e-09
-2.76202e-09
1.77992e-09
-8.33138e-09
1.8243e-09
7.70799e-09
-1.20085e-09
-4.04581e-09
3.72213e-09
6.76118e-09
-6.4375e-09
5.92966e-09
8.75035e-09
-1.87258e-08
-7.30909e-09
6.35055e-09
-6.59049e-09
7.54902e-09
-4.42415e-09
-1.82634e-09
-1.0586e-09
-2.77151e-09
7.49236e-09
-9.98722e-10
-7.33287e-09
1.0491e-08
1.10361e-09
5.19515e-09
-7.32823e-09
1.02945e-09
8.77515e-09
3.83507e-09
-1.15066e-08
3.79947e-09
7.74621e-09
-7.69044e-09
2.0265e-08
1.3831e-08
5.74589e-09
-1.08266e-08
1.4889e-08
-1.67504e-09
6.16992e-10
9.04449e-09
-6.70746e-09
1.29973e-09
1.15425e-09
-1.66221e-09
6.57682e-09
4.68785e-10
1.37754e-08
3.46748e-08
-1.46306e-08
-2.27431e-08
2.69884e-09
-1.5913e-09
2.09646e-08
1.53016e-08
-2.79253e-08
-5.45925e-09
1.37797e-08
1.96049e-08
-1.31987e-08
-4.16132e-09
-1.05653e-08
-1.70627e-08
-1.07666e-08
1.30495e-08
-2.44645e-09
-2.76657e-08
1.1745e-08
-2.14386e-08
-2.54677e-08
8.08041e-09
1.1928e-08
-1.53988e-08
-1.42302e-08
3.83752e-08
-2.27969e-08
-3.83327e-09
2.19756e-08
1.48082e-08
1.01551e-08
-2.80003e-08
2.82747e-08
-3.1445e-08
1.33254e-08
1.52147e-08
6.23686e-09
6.82309e-09
4.4451e-09
3.02992e-08
1.46764e-08
3.07219e-08
-2.34226e-08
1.03623e-08
1.29329e-08
2.94838e-08
7.97973e-09
-1.60081e-09
-9.51848e-10
-5.42707e-09
1.86367e-10
-2.44394e-09
1.02373e-08
-1.29663e-09
6.14283e-09
-4.65983e-09
1.12547e-08
-9.2828e-09
-3.57273e-09
-2.18156e-09
1.09924e-08
2.3754e-10
-7.90489e-10
-5.27359e-09
5.82654e-09
-4.56285e-10
-4.74275e-09
5.43658e-09
-2.32299e-09
-5.74152e-09
6.76789e-09
-8.79335e-09
-9.86803e-10
7.45718e-09
1.97613e-09
-9.45046e-09
-1.31898e-09
-4.44872e-09
6.83341e-10
1.00996e-08
-4.55127e-10
9.55091e-10
-1.05995e-08
1.77001e-09
-1.12089e-09
-8.79774e-10
-9.19351e-09
-1.21985e-08
9.03009e-09
-1.18936e-08
1.46512e-09
-1.32285e-08
-3.94991e-09
6.17379e-09
-8.69521e-10
-1.67741e-09
-3.62681e-09
5.25782e-09
3.78567e-09
-2.86967e-09
2.38048e-09
-6.29503e-09
-3.12945e-09
7.04403e-09
2.06079e-10
7.43223e-09
5.93954e-09
-3.52473e-09
-5.04234e-09
2.62756e-09
1.54416e-09
6.91469e-09
-2.51929e-09
-5.55153e-09
-1.613e-09
-3.61984e-09
5.30351e-09
-1.47758e-09
2.51745e-10
2.50055e-09
-6.27701e-09
2.65706e-09
1.28412e-09
-4.02646e-09
8.53045e-11
-1.11897e-09
1.5621e-10
-6.75019e-09
3.8725e-09
-8.26784e-09
-4.03387e-09
-2.67641e-09
-4.81866e-09
4.62056e-09
2.87462e-09
6.54236e-10
-3.19492e-09
-1.35591e-10
2.92693e-09
-2.28515e-09
1.24934e-11
-2.64565e-09
-1.01616e-10
-2.07136e-09
-2.44269e-09
-3.39787e-09
-1.29583e-09
-4.0654e-10
4.62933e-09
-2.1022e-09
5.42695e-09
7.09096e-10
5.16919e-09
-5.81851e-09
-5.96968e-11
-9.65118e-09
1.47206e-09
8.88824e-09
8.5433e-09
-3.4757e-09
5.36134e-09
1.07978e-09
3.93123e-09
-1.64341e-09
-8.10628e-09
-1.16658e-09
-4.55336e-09
-4.22926e-09
5.97652e-09
-2.15379e-09
-5.26123e-09
1.57823e-10
8.74192e-10
3.53443e-09
-1.78408e-09
-4.19296e-09
1.18243e-09
6.68986e-11
3.16471e-09
-6.59213e-09
5.75318e-09
-3.75503e-09
1.6744e-09
-9.13324e-09
-1.0757e-08
6.47403e-09
1.34163e-08
-9.75053e-09
2.34267e-10
3.83025e-10
-1.80816e-08
-8.22044e-09
1.55449e-08
-1.89586e-08
-8.87346e-09
1.93932e-08
1.85785e-08
-1.73117e-08
-2.066e-08
-5.51778e-09
5.95237e-09
1.0034e-08
-1.00552e-08
2.55533e-10
-5.49577e-09
-9.23771e-10
1.28936e-08
-2.9492e-09
7.48743e-09
1.75181e-09
8.60627e-09
8.47754e-09
4.77772e-10
-2.6267e-08
5.71095e-09
-2.7512e-09
8.08283e-10
-5.15257e-09
-5.65623e-09
-8.2714e-09
1.30039e-08
-1.48123e-08
6.20687e-09
1.77937e-08
1.6455e-08
-1.56616e-08
-1.8587e-08
1.09262e-08
8.61928e-09
1.12325e-08
-5.14559e-09
-5.27866e-09
-1.43589e-08
1.07792e-08
-1.70308e-08
1.96856e-08
1.61783e-10
-7.37545e-10
7.56029e-09
-2.27441e-08
1.36391e-08
-1.12244e-08
-5.58038e-10
2.12757e-09
5.94823e-09
-4.59969e-09
-3.4761e-09
3.11561e-09
-1.11735e-09
1.29309e-10
-3.27126e-09
1.68193e-09
4.70495e-09
-4.12446e-10
3.08944e-09
4.5468e-09
-9.26042e-09
4.30119e-09
-1.02771e-08
4.05612e-09
1.07678e-08
4.38089e-09
-2.60279e-10
-8.72029e-09
-3.4469e-09
-2.2151e-09
-4.61514e-09
-8.32643e-09
9.00541e-09
-3.26735e-09
3.26266e-09
3.061e-09
-6.58392e-09
2.20465e-09
-5.93244e-11
-4.75109e-09
5.597e-09
3.24302e-09
4.89858e-09
-5.16076e-09
-2.98082e-09
2.85244e-09
5.24476e-10
-1.33906e-10
-7.33227e-10
4.6e-10
-4.17724e-09
4.45051e-09
2.97256e-09
-3.26477e-09
-4.40984e-10
5.10863e-09
-5.14349e-10
3.04312e-10
3.34722e-09
4.61386e-09
3.56313e-09
-6.60813e-11
1.78487e-09
4.31859e-09
-6.0135e-09
-8.99428e-11
-3.18487e-10
-8.18866e-09
7.09101e-09
1.41619e-09
7.80073e-09
-1.23158e-09
-3.22191e-09
-2.88914e-08
6.44017e-09
6.47698e-10
2.18035e-08
1.68843e-09
-1.5526e-08
-1.50539e-08
-2.12247e-08
7.12814e-09
2.05367e-08
-9.5706e-09
-9.96568e-09
7.89741e-09
-1.31058e-08
-4.73462e-09
9.94297e-09
-1.5592e-08
2.12111e-09
2.13683e-08
1.11538e-08
-1.84668e-08
-5.79287e-09
-1.03081e-08
5.86998e-09
-1.81046e-08
1.40177e-08
-1.20015e-08
-2.16291e-08
3.3385e-09
-1.3012e-08
1.68017e-08
2.10263e-08
1.11254e-09
-7.54839e-09
-1.45904e-08
5.56396e-09
5.15417e-09
-1.05545e-08
1.60141e-08
-5.58296e-09
-1.17713e-08
1.16145e-08
-1.02254e-08
-1.09597e-08
-1.72295e-09
3.25383e-10
-1.24047e-08
7.41415e-09
-1.56645e-08
-1.92e-09
1.42956e-08
-1.66039e-08
-5.24011e-09
1.67973e-10
7.69584e-09
4.12571e-09
-1.04851e-08
-1.33649e-09
9.71623e-09
-8.16853e-09
6.14812e-09
1.58762e-08
-8.80683e-09
-3.60785e-09
-3.46147e-09
-2.513e-09
1.15031e-08
6.88609e-09
1.05238e-08
-9.62789e-09
-9.70269e-09
5.43264e-09
2.57812e-09
8.89686e-09
6.61474e-10
5.71365e-09
1.28994e-08
7.44219e-09
-4.89558e-09
8.95641e-09
-5.19379e-09
1.83496e-08
5.81609e-09
-6.89069e-09
-9.41046e-09
-1.88364e-09
1.16057e-08
-2.27711e-08
6.2698e-09
2.01873e-08
-2.29603e-08
-1.4858e-09
-1.64586e-08
-5.99335e-11
-1.08551e-08
-1.57131e-08
1.75044e-08
1.56269e-08
-9.99657e-09
8.05973e-09
1.32095e-08
-3.76499e-09
1.9409e-08
-1.04811e-08
1.64193e-08
9.42208e-09
-6.03429e-09
1.60212e-08
-6.80161e-09
2.2873e-08
-8.01174e-09
-1.13851e-08
2.4986e-08
-2.04027e-08
2.10442e-08
-3.46868e-09
-1.94863e-09
1.82756e-08
1.59781e-08
1.49254e-09
5.34891e-09
1.42441e-08
-2.10856e-08
-1.14027e-08
1.99575e-08
8.67285e-10
2.12133e-08
-7.62998e-09
1.79751e-08
2.61111e-08
4.60702e-09
1.51611e-08
2.5645e-09
2.27419e-08
2.51466e-08
6.38333e-09
-8.63958e-10
-1.80246e-09
-3.71688e-09
2.15838e-09
-1.09114e-09
5.3161e-09
-4.7668e-09
1.04442e-09
5.88073e-09
-3.43756e-09
1.4951e-09
-2.82434e-09
6.02506e-09
-2.40639e-09
-4.48261e-09
1.14356e-09
3.79037e-09
-1.12269e-09
-4.11734e-09
2.43547e-09
-9.3062e-10
-9.75059e-12
-4.61545e-10
3.94143e-09
-3.47876e-09
1.31001e-09
3.31233e-09
3.48833e-09
-1.3055e-09
-4.58919e-09
-5.65109e-10
5.7468e-10
-1.45301e-09
2.30149e-09
2.77634e-09
-5.20451e-09
2.29883e-09
-8.7582e-11
-8.47997e-11
-1.48036e-08
-1.96217e-09
-4.86337e-09
-1.07013e-08
-1.97669e-08
3.39994e-08
-2.5873e-08
-6.96806e-10
-7.42962e-09
1.84703e-08
2.00523e-08
-4.52325e-09
1.38014e-08
-6.90953e-09
-3.07552e-09
-3.81634e-09
9.70944e-09
2.25622e-08
-9.53726e-09
1.27939e-08
-5.21888e-09
3.46606e-09
-2.37046e-08
-1.51685e-08
-1.7614e-08
1.33072e-08
-3.58882e-09
7.49583e-09
1.98291e-08
2.71483e-08
-1.27367e-08
-2.25409e-08
2.01091e-08
-2.10419e-08
2.34877e-08
9.10861e-09
-1.12708e-08
-2.13255e-08
2.33791e-08
7.38214e-10
-6.29614e-10
-2.20961e-08
2.86069e-08
1.68684e-08
4.51466e-10
-1.3439e-08
-3.10553e-08
-8.51646e-09
1.00847e-08
2.9487e-08
4.05971e-09
-2.79122e-08
-7.20286e-09
-1.24056e-08
1.31116e-08
3.22023e-11
4.36539e-09
1.5725e-08
1.61584e-08
-1.261e-08
5.11307e-10
1.78372e-10
2.60648e-08
-8.23861e-09
-1.3893e-08
2.23099e-08
-3.02487e-09
-6.63515e-09
1.42139e-09
1.12472e-08
-1.19411e-08
-2.33093e-09
-1.31019e-08
1.04561e-08
1.47864e-08
-1.67904e-08
-9.26677e-09
-2.86876e-10
2.66775e-09
-1.06923e-08
-1.67684e-08
1.08418e-08
-1.97652e-08
-4.61951e-09
1.12828e-08
4.50575e-09
-1.40567e-08
-2.39018e-09
-1.53348e-08
7.54136e-11
-1.74751e-08
1.43321e-08
-1.21919e-08
9.07774e-09
-2.6453e-08
-9.98913e-11
3.00295e-09
-1.73465e-08
1.03451e-08
-1.19597e-08
2.65016e-08
-1.82436e-09
9.27213e-09
-1.1736e-09
-3.30983e-09
4.63732e-09
-1.5389e-10
-5.62399e-09
6.68564e-09
-2.23528e-09
-1.08326e-09
1.67276e-09
-3.89934e-09
-8.36947e-09
-4.7182e-09
1.90204e-09
2.38073e-09
4.354e-10
-4.10404e-09
4.17991e-09
-1.45877e-09
-5.18828e-09
2.46709e-09
-3.68489e-09
-1.5656e-11
7.88043e-09
-4.52802e-09
-6.15655e-10
2.01133e-09
6.87907e-09
3.05067e-09
2.52681e-09
1.46096e-08
-1.1958e-08
-2.8681e-09
8.62395e-09
6.20218e-09
1.48406e-09
-3.34005e-09
-1.0102e-08
-1.15755e-08
5.40763e-09
3.2998e-09
-1.76479e-09
-8.32666e-09
3.65851e-09
-6.40173e-09
-8.44901e-09
1.11922e-08
-6.56167e-10
-6.85343e-10
5.00003e-09
-2.54897e-10
-9.48687e-09
3.65527e-09
1.76283e-09
-5.67298e-09
1.88966e-09
-7.67882e-10
7.50217e-09
-4.91095e-09
4.03775e-09
6.28084e-09
3.76009e-09
-7.6098e-10
-2.7355e-09
-6.8285e-09
7.1781e-09
2.38588e-09
-7.0444e-09
6.28126e-10
3.68076e-09
-6.36411e-09
3.01046e-09
-1.5573e-09
-6.36606e-09
2.9569e-09
-7.67319e-09
-2.11221e-09
-5.75601e-09
1.66851e-09
3.93317e-09
-5.88178e-09
2.57675e-09
-2.43319e-09
-2.22952e-09
-4.4291e-09
-6.93372e-09
-1.8277e-09
7.51007e-09
1.25134e-09
4.30507e-09
-1.119e-08
2.44836e-09
4.4365e-09
6.5081e-09
-9.02434e-09
6.82132e-09
-4.10258e-09
1.20659e-08
-1.45527e-09
-2.07602e-09
-1.19895e-09
-7.91501e-09
-6.44569e-09
-2.56404e-09
1.02375e-08
-2.45084e-09
-3.02178e-09
-4.76481e-09
-1.3842e-09
5.26898e-09
6.3527e-09
4.29323e-09
-1.0328e-08
-4.10902e-10
-6.12258e-12
2.03157e-09
-1.10498e-08
4.85214e-09
1.18163e-09
-6.03989e-09
7.77538e-09
-5.42719e-09
-4.79902e-09
4.19979e-09
2.19141e-09
-7.79359e-09
8.95998e-09
-5.96324e-09
-7.27643e-09
6.14247e-09
2.11209e-08
-1.51854e-09
-3.98885e-09
-1.56135e-08
2.60635e-08
1.53375e-09
-6.47641e-09
1.27066e-09
5.88824e-09
-1.18775e-08
4.71858e-09
5.17102e-09
-8.90183e-09
5.00147e-09
2.95667e-09
-4.52932e-09
6.74366e-09
-8.49636e-10
9.69453e-09
5.63223e-09
1.39173e-09
1.90396e-08
-1.26369e-08
1.67931e-08
-2.62247e-09
-3.45523e-09
-1.07002e-08
-9.67406e-09
-3.5863e-09
1.38287e-09
-8.53414e-09
-1.00417e-08
-4.36679e-09
-7.20093e-09
1.07181e-08
1.5058e-08
-3.56896e-09
-1.54779e-08
1.63235e-08
1.36555e-08
-6.0595e-09
-4.15895e-10
6.61455e-09
-1.39157e-10
3.11819e-10
2.61017e-09
-8.98147e-09
6.80365e-09
2.96398e-09
-9.45578e-09
7.01726e-09
-6.29496e-10
-8.29845e-09
-2.48879e-09
-2.30692e-09
6.23037e-10
-3.26572e-09
3.70056e-09
-4.19179e-09
2.18369e-09
2.51841e-09
-6.76804e-09
-2.31465e-10
4.48108e-09
-5.89259e-09
1.34999e-09
7.061e-09
-2.94053e-09
-5.91745e-09
2.08996e-09
4.64479e-09
-7.24292e-09
-3.42421e-10
-3.04415e-09
1.79633e-09
2.85271e-09
5.08197e-09
-8.16613e-09
-5.39677e-09
9.59946e-09
7.39838e-09
-6.31282e-09
6.64742e-09
-7.733e-09
-8.76303e-09
-1.02472e-09
3.8703e-09
-9.05778e-09
1.12637e-08
-7.60275e-09
3.88484e-10
-2.0479e-09
1.7838e-10
2.44276e-09
-5.6654e-09
-3.49484e-09
7.94881e-10
-6.06307e-09
-9.12497e-09
-1.61279e-09
-4.76999e-09
-3.00977e-09
8.57463e-09
1.39558e-08
-1.87169e-09
-9.24412e-09
-2.83995e-09
1.42448e-09
9.49944e-09
3.03197e-09
-9.13118e-09
2.49573e-09
8.05996e-09
-6.61646e-09
-4.38641e-09
7.222e-09
-4.56786e-09
-1.18983e-08
-1.30054e-09
-7.58726e-10
9.28127e-09
3.48836e-09
5.06668e-09
-1.31229e-08
4.95316e-09
6.43107e-09
-7.89589e-09
1.9528e-09
-3.50258e-09
7.67219e-09
-7.6623e-10
9.65891e-10
-7.16935e-09
8.69924e-09
6.68945e-09
-1.55893e-09
-7.16168e-09
1.0032e-08
-1.9044e-09
1.38107e-09
-8.78212e-10
9.0884e-10
-1.34624e-09
2.51184e-09
-7.19571e-09
6.03007e-09
6.25524e-09
-8.89636e-09
1.29487e-09
2.32077e-10
5.72324e-09
-9.07715e-10
-5.04761e-09
7.72712e-09
-6.52943e-09
-9.65636e-10
8.51184e-09
-6.10173e-09
1.01724e-10
5.47612e-09
9.81984e-10
-2.02884e-10
-6.82053e-09
5.5969e-09
8.95074e-09
-9.07725e-10
-1.89588e-10
4.1043e-09
-2.12189e-09
2.58294e-09
-9.98234e-09
-6.65419e-10
8.06473e-09
-1.74342e-09
9.92324e-09
-9.36346e-09
-1.52663e-09
1.25871e-08
-1.29549e-08
4.47219e-09
-3.83914e-09
1.46828e-08
-1.64204e-08
1.19158e-08
-1.18845e-08
4.66802e-09
-9.2039e-09
5.02291e-09
-4.98849e-09
-1.19189e-08
1.13556e-09
-1.04241e-09
-3.58491e-09
-5.07535e-09
-7.77209e-09
-9.72895e-09
3.11891e-08
-2.66618e-08
-7.5569e-09
3.02957e-09
-5.03289e-09
2.53669e-08
-1.43532e-08
1.9263e-08
-8.37126e-09
-1.13371e-08
-8.0681e-10
-2.20922e-09
3.26787e-08
-1.19822e-08
-3.10959e-09
-1.75869e-08
2.29663e-08
4.67953e-09
-9.92911e-09
-1.78243e-08
1.99814e-08
-1.35803e-08
-2.50635e-08
-8.74277e-09
-6.17927e-09
-1.10232e-08
-1.51428e-08
2.30564e-08
2.1054e-09
-2.56148e-08
-1.76606e-08
-1.52129e-09
1.22746e-09
-4.03801e-09
4.33183e-09
-3.77717e-10
-4.25906e-09
3.11548e-09
-1.10957e-09
-1.92963e-09
5.72564e-11
-4.34504e-10
-5.18129e-09
-1.93469e-09
-4.26391e-09
2.22117e-09
-2.99462e-09
-4.96301e-11
1.1786e-09
2.75164e-09
-4.30795e-09
5.61455e-09
-4.87045e-09
3.24856e-09
-3.49154e-09
-1.15684e-10
-8.99659e-10
-1.79243e-09
-4.86723e-09
-4.68713e-09
1.47359e-10
9.40696e-09
-2.35053e-09
-5.67951e-09
3.16278e-09
-3.5195e-09
-5.9251e-09
4.75742e-09
-7.23136e-09
1.36129e-09
-3.68875e-09
-3.68625e-09
7.52234e-09
-2.23047e-09
-5.18353e-09
1.82603e-10
6.22292e-09
-6.639e-09
-1.8144e-09
-5.31978e-09
5.26825e-09
4.3474e-10
-3.83228e-10
1.79514e-09
-4.35565e-09
-2.62304e-09
5.84053e-09
-5.26066e-09
9.19213e-09
-9.77202e-09
1.92256e-10
-4.09133e-09
2.10294e-10
7.35664e-10
-2.20389e-09
9.83954e-09
8.42401e-10
-1.04587e-08
2.31181e-09
-1.35696e-10
3.36844e-09
-5.5446e-09
6.68635e-09
-6.57844e-09
1.71237e-09
2.20205e-09
-5.52979e-09
3.5559e-09
-6.48371e-09
3.72496e-09
-1.85668e-09
3.01321e-09
1.68394e-09
-1.72214e-10
-2.3542e-09
-5.3192e-11
-2.74398e-09
-3.74928e-09
4.28244e-09
2.21087e-09
9.58377e-10
-3.56988e-09
-1.32471e-10
3.49036e-09
-2.47017e-09
-6.17992e-11
2.56553e-09
3.11092e-09
3.3485e-11
-5.70993e-09
9.49394e-10
5.69402e-09
-5.48515e-09
-1.15823e-09
-2.70509e-09
8.46094e-11
-2.51801e-09
4.46277e-09
-5.76981e-09
-2.02486e-09
2.92176e-09
4.87291e-09
-7.41348e-09
-5.95036e-09
7.59403e-09
-5.61298e-09
4.61542e-10
-3.33709e-10
-7.11682e-09
2.57395e-09
-4.79684e-09
1.39193e-09
-2.23167e-09
5.63658e-09
2.8919e-09
-3.62223e-09
-4.06651e-09
-7.72522e-10
3.57701e-09
8.74024e-11
3.46445e-09
1.70314e-09
-8.91277e-10
-4.27628e-09
-1.31526e-11
-4.72253e-09
8.12674e-10
3.02876e-10
-6.95817e-09
-5.02079e-09
-1.00077e-09
1.51353e-09
-6.02701e-09
-5.06978e-09
1.56252e-09
-2.11253e-09
2.52664e-09
1.3287e-09
-2.04125e-08
1.42957e-08
4.78817e-09
-1.47231e-08
1.10852e-08
4.96668e-09
-1.00438e-08
4.58829e-09
-3.26693e-09
8.72251e-09
9.45197e-11
1.18762e-10
-1.02571e-08
8.57489e-09
-8.60437e-09
1.24033e-10
1.27676e-09
1.18864e-08
-7.67028e-09
-1.34934e-09
-5.70351e-09
-6.91686e-09
-2.11659e-08
-4.56715e-09
1.69291e-08
-5.5732e-09
1.53017e-08
-1.65325e-08
2.31273e-09
1.09529e-08
-1.43407e-09
-6.72474e-09
-8.37369e-09
4.95582e-09
8.66124e-10
-1.45957e-08
8.77374e-09
5.69344e-09
-5.64315e-09
4.90556e-09
-4.26024e-09
-1.7386e-08
1.41256e-08
-1.00383e-08
-8.78175e-09
-1.60891e-08
1.96605e-08
-1.76814e-08
-4.08892e-09
2.10985e-09
1.37763e-08
8.37379e-09
-2.48953e-09
6.97629e-09
1.6276e-08
-9.476e-09
-1.62959e-08
-1.98336e-08
1.84481e-08
-1.08607e-08
-4.92414e-09
2.27611e-08
1.87597e-08
-1.41653e-08
-1.5455e-08
-9.7468e-09
-1.37316e-08
1.85543e-08
-2.47603e-08
1.65077e-08
-1.49427e-09
-2.08989e-08
1.01067e-08
-2.93953e-09
-3.29319e-08
2.66418e-09
5.50729e-09
-3.75294e-09
-2.07843e-08
-8.39481e-09
-1.51218e-08
-9.48052e-09
2.08494e-08
-2.48451e-08
6.6104e-09
-2.66331e-09
-4.71051e-09
-1.40535e-08
2.14273e-08
-3.73357e-09
-1.52256e-08
-2.06427e-09
7.54874e-09
-2.62688e-08
-2.09197e-08
-2.20069e-08
1.09102e-09
5.10147e-09
1.17108e-09
-7.36355e-09
3.21955e-09
-4.51748e-09
3.24416e-09
-1.94623e-09
9.30358e-10
2.39915e-09
-1.09951e-10
5.65253e-09
-6.76038e-09
3.85066e-09
-2.74278e-09
1.38019e-09
4.29944e-09
-4.5886e-09
-2.17309e-10
-2.83142e-10
6.15299e-09
-1.67773e-09
2.3196e-09
7.38326e-10
-3.33797e-09
1.89248e-09
-2.32212e-10
-3.93917e-09
-4.22279e-10
4.14414e-09
2.54504e-09
-4.34146e-09
-2.14273e-09
1.37428e-10
-6.28398e-09
9.0337e-09
-2.56714e-09
-1.35883e-08
8.14669e-09
3.40846e-09
8.50274e-09
-2.87755e-09
1.58058e-08
-1.94308e-09
-1.04543e-08
-1.39584e-08
1.00741e-08
6.0863e-09
-3.57442e-09
-1.1919e-09
5.45037e-09
4.41364e-09
2.93923e-10
1.45376e-08
1.20437e-08
-1.78659e-08
2.1628e-08
1.7788e-08
-2.87404e-08
1.53042e-09
1.09746e-08
1.62353e-08
-1.04233e-08
-8.33277e-09
-9.98435e-09
-2.1447e-08
1.41417e-08
8.8357e-09
-1.18962e-08
-1.99741e-08
-9.03177e-09
1.67766e-08
3.2298e-09
1.4284e-08
-1.2222e-08
-1.03947e-08
-4.0316e-09
9.28379e-09
-4.12537e-09
1.41719e-08
8.20639e-09
-1.82529e-08
-1.44272e-09
-2.30019e-09
-8.15319e-09
-1.5178e-09
1.00235e-08
-9.94839e-09
1.49049e-09
1.0041e-08
-1.30493e-08
1.13094e-08
-1.21191e-08
5.89367e-09
-1.12487e-08
1.66645e-08
-6.60535e-09
-3.4154e-09
1.59144e-08
-1.437e-08
6.21303e-09
5.70058e-09
-7.89907e-09
8.84433e-09
-5.40864e-09
1.7491e-10
4.98548e-09
-1.10844e-08
6.64271e-09
-5.43767e-10
-1.82233e-09
4.22809e-09
2.57974e-09
1.97157e-09
1.57395e-09
3.25306e-09
-6.7985e-09
2.66565e-09
5.81176e-09
-6.50584e-09
-7.47987e-09
-3.95381e-09
4.18725e-10
1.10149e-08
-4.73503e-09
-3.12271e-09
3.77911e-10
1.37711e-09
4.84047e-09
-3.55195e-09
5.44915e-09
-5.62678e-09
-4.55739e-09
3.06933e-09
-3.22346e-09
5.01928e-09
-2.32395e-09
-4.02219e-09
-2.54045e-09
5.66507e-09
-1.396e-10
-2.98499e-09
3.87111e-09
-2.28498e-09
-4.12657e-09
8.75391e-10
5.69069e-09
-9.00994e-10
4.63571e-09
1.10794e-10
4.26406e-09
1.06379e-09
-7.6128e-09
3.84368e-09
5.11541e-09
-4.69502e-09
4.91676e-09
-1.17386e-09
1.00799e-10
3.73477e-09
5.06132e-09
-7.73228e-09
8.27845e-09
-4.68327e-09
-1.32024e-08
-1.25942e-09
1.35398e-09
1.31079e-08
1.4642e-09
-9.23497e-09
-5.43165e-09
1.41991e-08
-6.93599e-09
-5.34095e-09
-1.92213e-09
-4.57008e-11
1.29854e-08
-6.63439e-09
7.04643e-09
4.50475e-09
1.97868e-09
-3.49765e-09
-1.09106e-08
7.93465e-10
1.00714e-08
-4.401e-09
-4.53087e-09
9.65118e-09
-5.65737e-09
-2.52954e-09
7.84789e-11
1.09267e-08
3.49115e-09
-2.9283e-11
-7.89249e-09
-4.68064e-09
4.84183e-10
7.35573e-09
1.03431e-09
-1.00097e-09
-4.46889e-09
5.03157e-09
5.65678e-11
6.89969e-09
-1.17288e-08
7.27741e-09
7.97878e-10
1.57476e-08
-9.64581e-09
-8.92252e-09
1.65417e-08
-9.49004e-09
-3.43767e-09
-7.71726e-09
-2.61674e-09
-6.92192e-09
1.72559e-08
-9.43822e-09
2.60602e-08
-1.33522e-08
1.00404e-08
-5.61074e-09
-6.78958e-09
-5.31718e-09
2.07935e-09
1.03786e-08
1.35424e-08
2.22178e-09
4.8688e-09
3.41811e-09
-3.41044e-09
-4.87648e-09
4.58133e-09
-2.09387e-10
4.96862e-10
-1.72793e-09
4.03652e-09
2.27272e-09
1.75656e-09
-6.63726e-11
-2.79846e-09
4.47784e-09
-5.57872e-09
2.50279e-09
-8.71171e-09
3.86944e-09
3.7739e-09
-5.14054e-09
1.08058e-09
2.95727e-09
-1.68423e-10
1.64421e-10
2.85479e-09
-1.76541e-11
5.0906e-09
-1.4706e-09
4.11496e-09
3.93291e-09
-1.82393e-09
7.40184e-10
3.93851e-09
2.64799e-09
6.86647e-09
1.83379e-08
-1.61382e-08
3.88657e-09
9.67414e-10
1.58548e-08
1.51571e-09
-3.24183e-09
-7.03791e-09
-1.22982e-08
2.25778e-08
1.45491e-08
-6.01322e-09
-1.17777e-08
-5.16366e-09
7.61913e-09
-1.11779e-08
-2.45447e-09
1.20249e-08
-3.7343e-10
-4.03235e-09
8.0615e-09
-2.70411e-09
6.66752e-09
4.09624e-09
-2.94645e-09
9.88015e-09
-1.103e-08
1.05462e-08
1.61153e-09
1.26301e-08
-5.50703e-09
-1.4161e-08
-7.75216e-10
1.27055e-08
-1.08494e-08
-1.08095e-09
-5.71649e-10
-1.63115e-09
1.48329e-08
1.14852e-08
-1.71421e-09
9.62996e-09
5.42053e-09
-6.51787e-09
-8.53262e-09
1.20341e-08
7.83539e-10
-3.18769e-09
2.74424e-09
4.30629e-09
-1.62999e-09
1.39025e-08
8.75862e-10
-8.41841e-09
-3.30602e-09
-4.11153e-09
1.58362e-08
8.42332e-10
-1.00844e-08
8.23711e-10
-4.20157e-09
1.73808e-09
-5.9841e-09
8.13989e-09
-1.37225e-09
-1.00842e-10
-1.24011e-08
1.45026e-08
1.39642e-09
-7.27472e-09
-8.6243e-09
6.79304e-09
-1.27287e-09
8.98247e-09
-1.32619e-08
1.59434e-08
4.21577e-09
-7.25278e-09
-1.02248e-08
-1.12893e-08
3.9281e-09
6.08831e-09
-5.58655e-09
-5.93151e-09
1.05643e-08
9.26976e-09
-4.48684e-09
-1.38176e-09
-2.27846e-09
-1.46283e-08
1.02908e-08
3.63401e-09
-2.10476e-08
3.75591e-09
1.36577e-08
2.82131e-08
-1.08484e-09
-2.16767e-08
-5.45144e-09
2.27883e-08
1.32962e-08
-7.8715e-09
1.23106e-08
-1.81558e-08
9.17508e-09
-3.32989e-09
1.12504e-08
-7.52941e-09
8.58961e-09
2.89164e-09
-1.45894e-08
-6.45807e-09
1.77315e-08
-1.51822e-08
1.48407e-08
4.61891e-09
-2.82128e-09
-1.66383e-08
1.91377e-08
1.46606e-08
-1.89576e-08
-1.73213e-08
3.12706e-08
1.09915e-08
4.49233e-09
1.30544e-08
-2.29887e-08
-3.7653e-09
1.49037e-08
-1.15389e-08
-3.28931e-09
7.72816e-09
-1.10183e-08
8.99949e-10
1.0808e-08
4.12768e-10
-3.20123e-09
-8.01948e-09
-1.02469e-08
-4.3079e-09
2.5011e-08
2.48719e-09
1.04851e-08
1.93143e-09
8.84196e-09
4.45318e-09
1.15209e-08
1.08052e-08
-2.66428e-09
7.47743e-09
9.96837e-10
1.20115e-08
1.58528e-09
-1.98752e-08
-4.25103e-09
-2.12295e-09
-1.39058e-08
1.64705e-08
-5.66472e-09
-1.29288e-08
-1.16432e-08
1.4043e-08
1.40708e-08
-1.46713e-08
1.84987e-09
1.17822e-09
-3.33628e-09
-1.69998e-08
1.24251e-08
-1.6802e-08
1.04057e-09
1.07496e-08
-7.3425e-09
9.01801e-09
-2.80534e-11
3.47292e-09
8.60222e-09
-1.20471e-08
1.21338e-08
4.96438e-09
-1.71262e-08
-4.34621e-09
1.76924e-08
1.14819e-08
1.11762e-09
1.06086e-08
7.79771e-09
5.88919e-09
-1.10267e-08
-2.66018e-09
9.98375e-09
5.98344e-09
-8.16946e-09
-7.88362e-09
4.74839e-09
1.3119e-08
-3.75752e-09
1.76312e-09
-1.59303e-08
1.09141e-08
-6.01046e-09
-2.86496e-08
1.31655e-08
-3.90428e-09
1.93884e-08
6.86276e-09
-1.26511e-08
-2.28612e-08
-4.38705e-09
8.72638e-09
4.09045e-10
-1.08654e-08
3.21062e-09
3.26773e-09
1.90574e-08
-1.90391e-09
-1.02907e-08
2.26771e-08
9.54573e-09
1.37637e-08
-2.17623e-08
-4.65255e-09
6.10192e-09
-6.49063e-09
-8.95197e-10
-3.47948e-09
-7.76223e-09
-8.69923e-09
1.45576e-08
-9.13786e-09
-5.11499e-09
1.71172e-09
1.19244e-09
9.49221e-09
-1.23963e-08
1.39767e-08
1.9509e-09
-1.42159e-08
6.37892e-09
1.33047e-08
-5.70687e-09
-8.06248e-09
9.83539e-09
4.60603e-09
-2.03895e-09
1.91438e-08
-1.51539e-08
-2.79619e-09
1.45049e-08
-1.37477e-08
8.5412e-09
-1.01449e-08
1.72884e-09
-2.99099e-10
2.47904e-09
-4.86151e-09
1.56872e-08
-2.6047e-09
1.49191e-08
9.88683e-10
3.02586e-09
1.04904e-08
1.5271e-08
8.92851e-09
1.34153e-09
9.34967e-09
-4.79585e-10
-4.46414e-09
1.60498e-08
-1.76239e-09
-8.59835e-09
-5.68903e-09
1.30051e-08
1.05253e-08
-7.48056e-09
1.3096e-08
-8.65624e-09
1.34471e-08
1.53858e-09
-8.63152e-09
-2.40015e-09
1.16547e-08
-6.95429e-10
-8.07525e-09
1.50208e-10
9.58913e-09
-3.29912e-09
1.15693e-08
-1.06704e-08
1.02982e-08
-1.1331e-08
5.21259e-09
-1.77953e-09
7.89796e-09
3.5436e-09
-1.33677e-08
-1.50688e-09
-1.50765e-08
1.56079e-09
1.87283e-08
3.6154e-09
-1.51483e-08
3.01518e-09
-7.65654e-09
9.95318e-09
-3.12118e-09
-3.81683e-09
5.67259e-09
2.50106e-09
-1.00451e-08
1.42555e-08
-2.64968e-09
-9.68192e-09
-6.46264e-10
-1.03376e-09
6.49622e-09
-3.80263e-09
-3.04206e-09
3.72352e-09
-4.51822e-09
-5.7662e-09
6.02516e-10
2.5238e-09
-7.36018e-09
-8.75479e-09
-1.98134e-08
1.66515e-09
2.467e-09
1.56811e-08
-6.85831e-09
3.33675e-09
5.55618e-09
1.97967e-08
-1.36525e-08
1.23414e-08
3.77795e-09
-1.72221e-09
2.0954e-08
8.84754e-09
-3.11771e-09
8.87979e-09
7.86986e-09
-1.89885e-09
2.87655e-09
-1.26108e-09
-4.07716e-09
-1.27298e-08
-6.98016e-09
-8.51605e-09
1.59736e-08
8.63126e-09
5.87582e-09
-9.3956e-09
-5.29387e-09
-8.63526e-09
-3.20702e-09
2.04215e-09
9.80012e-09
-8.6629e-09
-8.57444e-10
8.85082e-10
8.45524e-09
-2.3353e-09
3.50713e-09
-9.6271e-09
-1.55509e-09
1.34739e-09
-9.24899e-10
7.35508e-09
-9.6372e-09
2.48075e-09
-1.46657e-08
9.84966e-09
-4.97292e-09
7.50481e-09
4.22418e-09
-6.75606e-09
-5.90624e-10
-3.0621e-09
-1.3202e-09
-5.74192e-09
8.65843e-09
7.54165e-09
3.49717e-09
2.50181e-10
-1.1289e-08
-1.23234e-08
7.84415e-09
5.72049e-09
-1.24125e-09
-1.47287e-08
4.88609e-09
-8.83103e-10
1.04669e-08
2.13466e-09
4.44525e-09
6.37782e-09
4.9635e-09
7.62937e-09
-4.23697e-09
2.95516e-09
-1.99414e-09
3.27596e-09
-3.19608e-09
-1.00881e-09
-3.20601e-11
-5.41584e-09
5.80583e-09
4.26027e-09
-4.65029e-09
3.21267e-10
-5.20598e-10
-5.21653e-09
-1.26937e-09
3.39862e-10
3.88467e-09
-9.30677e-09
3.15948e-09
4.15315e-09
7.63676e-09
-2.43871e-09
-4.59765e-09
-6.00384e-10
-4.86609e-09
-3.81919e-09
-1.14315e-09
3.69296e-09
-4.73735e-09
-9.06442e-11
5.29723e-09
-1.69371e-09
-6.04224e-09
4.94325e-10
6.55601e-11
1.95136e-09
-7.62614e-09
-2.80614e-10
5.95535e-09
-9.05027e-09
1.77667e-09
9.22491e-09
-6.56229e-09
-7.42592e-10
-7.36482e-09
-8.24776e-09
1.10722e-09
-8.15042e-09
5.34946e-09
4.38207e-09
-7.27375e-10
4.22674e-09
-7.96724e-09
3.56445e-09
-4.63272e-10
-6.10245e-09
-6.46244e-09
2.79664e-09
-9.05423e-09
7.66281e-09
-5.46654e-09
8.71209e-09
-8.28195e-10
-5.8752e-09
5.73774e-09
3.41343e-09
-4.50379e-09
2.62165e-10
3.39393e-09
-3.7233e-09
3.7428e-09
3.61942e-09
-5.52637e-11
-1.70239e-10
-2.58763e-09
-1.3981e-09
4.08761e-09
-1.0191e-10
2.34492e-09
-3.97144e-09
-2.87729e-09
-1.4249e-09
4.65183e-11
-4.37198e-09
5.68533e-10
4.36146e-09
-5.58034e-10
-2.51314e-10
-5.2083e-09
1.08762e-09
-3.8358e-09
-1.76741e-10
-6.74727e-10
-7.45717e-09
9.23354e-09
-1.10167e-09
7.86284e-10
-4.8734e-09
-3.85989e-09
-9.54841e-09
7.28474e-09
1.41151e-10
2.1225e-09
-2.30197e-09
-1.14813e-08
4.23485e-09
-5.00398e-09
8.41443e-09
3.87427e-09
1.50726e-08
-2.98518e-09
-1.70914e-08
5.08017e-09
-6.37601e-09
5.9771e-09
-4.6813e-09
4.02735e-09
1.19397e-09
1.30285e-09
-9.98083e-09
-2.49024e-09
8.13306e-09
-6.55148e-09
9.08644e-10
-5.8168e-09
-5.62627e-10
1.47939e-08
-5.22765e-09
1.44835e-08
-4.87354e-09
4.86503e-09
4.03585e-09
1.24483e-09
-1.41273e-10
6.4868e-09
-7.67421e-09
5.3425e-09
6.54051e-09
-5.3962e-09
6.52206e-09
6.52623e-11
-2.92456e-09
3.67198e-09
5.77464e-09
7.40938e-10
2.87499e-09
3.64636e-09
7.97438e-09
5.41123e-09
-4.25199e-10
-9.92844e-09
4.94245e-09
-7.19825e-09
8.8926e-09
-7.51301e-09
3.42209e-09
3.66573e-09
4.60071e-09
-7.02074e-09
-5.09299e-09
4.47422e-09
-5.74522e-09
-8.65746e-09
-8.25473e-10
-1.89858e-09
5.728e-09
-2.62722e-09
-7.00163e-09
3.90084e-09
2.63002e-09
3.2577e-09
-1.59709e-10
2.61294e-09
-4.12867e-09
4.25491e-09
-2.73918e-09
3.84538e-11
-6.56996e-09
5.50943e-09
-7.294e-10
-1.23985e-09
3.97031e-09
-5.19954e-10
-4.27583e-09
5.39356e-09
-5.54058e-09
-1.48408e-09
-1.12819e-08
-8.23997e-09
-1.06369e-09
2.1194e-09
-5.5466e-09
-5.00724e-09
8.43443e-09
-5.26202e-09
-5.59502e-09
1.29765e-08
-4.42148e-09
-1.20037e-08
1.11631e-08
-1.09484e-08
9.80307e-10
2.75434e-10
5.35263e-09
-1.20807e-08
6.45263e-09
-1.08445e-08
6.11266e-09
-8.79432e-09
8.55193e-09
1.89634e-09
9.77418e-09
3.01568e-09
-1.46862e-08
7.60815e-09
-8.34477e-09
2.63296e-09
1.89127e-08
-1.95434e-08
1.04048e-08
1.32495e-08
-7.71572e-09
2.07438e-09
7.7057e-09
5.33549e-09
2.08296e-10
-2.18789e-08
2.41351e-08
-1.32046e-08
-6.81977e-10
-2.28419e-09
-2.37381e-09
-1.50388e-08
5.40894e-09
-3.41906e-11
-3.10458e-09
-3.32555e-09
-8.78932e-09
2.27442e-09
-1.34425e-08
3.01479e-09
1.38858e-08
-1.38849e-08
1.5764e-08
-1.21208e-08
-6.28356e-10
-1.835e-09
1.50689e-08
1.12819e-08
-2.84264e-09
-2.35081e-08
1.06651e-08
1.79385e-08
-1.35347e-08
-1.13363e-09
8.82784e-09
2.97088e-09
1.08215e-08
9.20894e-10
-4.60482e-10
1.244e-08
1.632e-08
3.3225e-09
-1.07493e-08
4.58424e-09
6.27241e-09
-6.5467e-09
-4.40896e-09
1.44534e-09
-7.25961e-09
1.93457e-08
-6.99188e-10
1.44798e-08
-6.28676e-09
-2.60851e-08
1.7892e-08
1.06249e-08
-3.70505e-09
7.55994e-09
1.4401e-08
1.22641e-09
-1.16095e-09
-1.44664e-08
1.79671e-08
-2.04364e-08
1.68702e-08
2.12734e-08
-1.09964e-08
1.46363e-08
-2.49134e-08
3.24687e-09
2.35337e-08
1.05378e-08
-2.7821e-08
2.14577e-08
-1.90651e-08
-1.16613e-09
1.95442e-08
1.16237e-08
-9.7102e-09
8.0856e-10
-1.71119e-08
-3.12409e-11
1.63345e-08
1.21643e-09
1.75592e-08
-3.2401e-09
-1.18423e-08
-1.43357e-08
4.08144e-08
-2.03696e-08
2.812e-08
-2.19637e-08
-1.76077e-08
1.14513e-08
1.18467e-08
2.989e-08
-1.36167e-08
-1.23714e-08
1.24939e-08
-2.21344e-08
2.20119e-08
1.23608e-08
-1.75661e-08
-5.19833e-09
1.04036e-08
2.01397e-08
4.06785e-09
-4.09167e-10
-1.16683e-08
2.56064e-09
9.51684e-09
-1.59991e-08
2.47388e-09
1.31161e-08
1.79676e-08
-2.10839e-09
-2.82306e-08
-3.50541e-09
-4.90705e-10
2.413e-08
-2.10496e-09
-9.53118e-09
1.82273e-08
-5.76557e-09
-1.24114e-08
-1.53353e-08
1.17476e-08
1.00075e-08
-2.14386e-08
-1.46984e-08
1.50303e-08
-3.83738e-09
8.1842e-09
-2.4991e-08
7.47176e-09
-1.08806e-08
-6.5596e-09
3.30415e-09
-1.27256e-08
3.61213e-09
5.80936e-09
6.03498e-09
-7.67719e-09
4.94637e-09
-5.48866e-09
-1.0436e-09
8.76839e-09
-2.2361e-09
-1.0126e-09
1.55893e-09
3.16222e-09
-4.18051e-09
-1.17073e-08
-2.13783e-10
-3.12858e-09
5.3657e-09
-5.14166e-09
2.90455e-09
1.86157e-09
-4.76029e-09
-2.29842e-10
-4.57579e-09
-2.28784e-09
5.82004e-09
-2.22688e-10
-9.0334e-09
1.54193e-09
5.33698e-09
2.15451e-09
-2.29412e-09
-4.39112e-09
-2.34814e-09
-4.50249e-09
3.75658e-09
-2.57046e-09
-7.04511e-11
-8.3248e-09
-6.24879e-09
1.22795e-08
-2.266e-09
-2.10439e-09
-4.9219e-09
-4.60851e-09
-2.35307e-09
-1.46035e-10
-1.23593e-08
-6.85894e-09
2.55775e-09
3.22386e-09
1.22183e-08
1.17119e-08
2.05452e-08
3.2892e-09
8.25458e-09
-1.19649e-09
-1.03473e-08
8.89712e-09
-7.51853e-09
1.91061e-09
8.07383e-09
-4.34343e-10
6.15086e-10
7.72861e-09
9.24233e-09
5.93026e-09
1.16915e-09
-8.29592e-09
5.29943e-09
1.96479e-10
7.77925e-09
-8.51933e-09
1.90919e-09
3.61379e-09
2.15663e-09
1.95816e-09
-4.78043e-09
1.83031e-09
6.56391e-09
1.0679e-08
6.69898e-09
-9.59871e-09
7.32234e-11
6.04761e-09
4.55813e-09
5.03398e-10