/*--------------------------------*- C++ -*----------------------------------*\
| =========                 |                                                 |
| \\      /  F ield         | OpenFOAM: The Open Source CFD Toolbox           |
|  \\    /   O peration     | Version:  v1612+                                |
|   \\  /    A nd           | Web:      www.OpenFOAM.com                      |
|    \\/     M anipulation  |                                                 |
\*---------------------------------------------------------------------------*/
FoamFile
{
    version     2.0;
    format      ascii;
    class       volVectorField;
    location    "150";
    object      wallShearStress;
}
// * * * * * * * * * * * * * * * * * * * * * * * * * * * * * * * * * * * * * //

dimensions      [0 2 -2 0 0 0 0];

internalField   uniform (0 0 0);

boundaryField
{
    WALL
    {
        type            calculated;
        value           nonuniform List<vector> 
1662
(
(-0.00615763 -0.00874834 0.00247642)
(-0.00614169 -0.00872891 0.00237879)
(-0.00648601 -0.00952318 0.00313034)
(-0.00602995 -0.00910349 0.00289339)
(-0.00594616 -0.00827912 0.00233919)
(-0.00606728 -0.00897422 0.00284412)
(-0.00620355 -0.00901007 0.00251218)
(-0.00829556 -0.0121714 0.00375816)
(-0.00801059 -0.0113753 0.00344641)
(-0.00833242 -0.0120135 0.00354477)
(-0.00849084 -0.0118488 0.003112)
(-0.00586514 -0.0086465 0.00264354)
(-0.00552138 -0.00862905 0.0025157)
(-0.00649879 -0.00903401 0.00257554)
(-0.00579413 -0.00882442 0.00274131)
(-0.00733466 -0.0107826 0.00319695)
(-0.007387 -0.0107171 0.00320621)
(-0.00763383 -0.0110556 0.00339666)
(-0.00725422 -0.0114684 0.00379798)
(-0.00715795 -0.0105573 0.00331947)
(-0.00743958 -0.0111357 0.00356149)
(-0.00856359 -0.0122195 0.00363626)
(-0.00885146 -0.0121378 0.00313136)
(-0.00849663 -0.0120625 0.0030637)
(-0.00886121 -0.0126855 0.00349902)
(-0.0086737 -0.0119183 0.00297931)
(-0.00821126 -0.0121351 0.00381735)
(-0.00777742 -0.0130845 0.00352898)
(-0.00800814 -0.0115816 0.00334527)
(-0.00649478 -0.00976795 0.00284719)
(-0.00681004 -0.0102502 0.00272164)
(-0.00660203 -0.0112827 0.00222742)
(-0.00666772 -0.0108104 0.00275726)
(-0.00597207 -0.00865615 0.00272987)
(-0.00600637 -0.00859627 0.00267224)
(-0.00630584 -0.00910658 0.00276979)
(-0.00628868 -0.00878116 0.00261092)
(-0.00576059 -0.00848291 0.00246316)
(-0.00569809 -0.00808097 0.00242927)
(-0.00683916 -0.0112687 0.00285221)
(-0.00724461 -0.0114552 0.00283721)
(-0.00612432 -0.0102656 0.00236781)
(-0.00626389 -0.010565 0.00236188)
(-0.00636008 -0.00941932 0.00293483)
(-0.00580682 -0.00864357 0.0027077)
(-0.00900065 -0.0128298 0.00420904)
(-0.00849438 -0.0125468 0.00344613)
(-0.00558473 -0.00801621 0.00237299)
(-0.00536732 -0.00840934 0.00270791)
(-0.00671988 -0.0103934 0.0027704)
(-0.00688114 -0.0107043 0.00247119)
(-0.00757812 -0.0116034 0.00359346)
(-0.00724889 -0.0112005 0.00339011)
(-0.00862231 -0.0127736 0.00387796)
(-0.00879835 -0.013469 0.00372939)
(-0.00613407 -0.00897613 0.00274981)
(-0.00623491 -0.0091499 0.00283021)
(-0.00808251 -0.0118324 0.00360936)
(-0.00874273 -0.0126158 0.0039021)
(-0.00565551 -0.00837067 0.0024906)
(-0.00575442 -0.00848626 0.00258184)
(-0.00681958 -0.0114294 0.00284896)
(-0.00716075 -0.0112331 0.00320668)
(-0.00704825 -0.0110622 0.00298918)
(-0.00749174 -0.011483 0.00317335)
(-0.00713153 -0.0111719 0.00317854)
(-0.00712416 -0.0119586 0.00283662)
(-0.00629048 -0.00922044 0.00297414)
(-0.00641294 -0.00962019 0.0031385)
(-0.00676431 -0.00980058 0.00300904)
(-0.00626396 -0.00930088 0.00306917)
(-0.00668456 -0.0101271 0.00314314)
(-0.00638234 -0.00957507 0.00289763)
(-0.007079 -0.0106982 0.00290286)
(-0.0077506 -0.011711 0.00309994)
(-0.00770464 -0.0116709 0.00272644)
(-0.00751939 -0.0113473 0.00331945)
(-0.00740347 -0.0113151 0.00298075)
(-0.00741258 -0.0113148 0.00258309)
(-0.00777491 -0.0114518 0.00271135)
(-0.00796535 -0.0120483 0.00259946)
(-0.0075453 -0.0117762 0.00274567)
(-0.00790867 -0.0117869 0.00263931)
(-0.00760299 -0.0115529 0.00271025)
(-0.00800871 -0.0115211 0.00340341)
(-0.00773518 -0.0111278 0.00350665)
(-0.00825278 -0.0119113 0.00310946)
(-0.00856182 -0.0121383 0.00316324)
(-0.00849463 -0.0119968 0.00354626)
(-0.00808294 -0.011501 0.00317084)
(-0.00695889 -0.0112549 0.00354966)
(-0.00751218 -0.0118923 0.00389602)
(-0.00730955 -0.0107537 0.00342139)
(-0.00832015 -0.0117186 0.00355307)
(-0.00763986 -0.0115752 0.0038434)
(-0.00725052 -0.0108419 0.00339547)
(-0.0068907 -0.010351 0.00241816)
(-0.00718407 -0.0105809 0.00236051)
(-0.00660689 -0.00968754 0.00256817)
(-0.00684414 -0.00999178 0.00238177)
(-0.00662849 -0.0101102 0.00252247)
(-0.00688488 -0.0101782 0.00260509)
(-0.00618521 -0.0090583 0.00286161)
(-0.00612469 -0.0088075 0.00279314)
(-0.00624218 -0.0089086 0.00288535)
(-0.00557263 -0.00816899 0.00247605)
(-0.0054248 -0.00875845 0.00261005)
(-0.00588596 -0.00882394 0.00258248)
(-0.00569795 -0.00825565 0.00255244)
(-0.00603177 -0.00899909 0.00265005)
(-0.00720663 -0.0113808 0.00231379)
(-0.0068298 -0.0109476 0.00258791)
(-0.00616049 -0.0104233 0.00200155)
(-0.0063156 -0.0100863 0.00230439)
(-0.00690228 -0.0110488 0.00249545)
(-0.00715802 -0.0114445 0.00256119)
(-0.00595677 -0.00890526 0.00282475)
(-0.00592215 -0.00877507 0.00278363)
(-0.00604233 -0.00935455 0.00306206)
(-0.00639093 -0.0095925 0.00323429)
(-0.00610661 -0.00925415 0.00306202)
(-0.0063017 -0.00949316 0.00271662)
(-0.00659428 -0.00995468 0.00277874)
(-0.00676108 -0.0102427 0.00318139)
(-0.00625127 -0.0101769 0.00262072)
(-0.00647125 -0.0100197 0.00254687)
(-0.00613971 -0.00943358 0.00285386)
(-0.00645236 -0.00964938 0.00256804)
(-0.00639486 -0.00940021 0.00271838)
(-0.00636375 -0.00978471 0.00267121)
(-0.00606331 -0.00925566 0.00253947)
(-0.00683024 -0.0100614 0.00282782)
(-0.0062994 -0.0093679 0.00279006)
(-0.00600273 -0.00899695 0.00233496)
(-0.00696889 -0.0120398 0.00330882)
(-0.00710463 -0.0119072 0.00341646)
(-0.00818321 -0.0127402 0.00395409)
(-0.0072815 -0.0117489 0.00333297)
(-0.00759054 -0.0128905 0.00345479)
(-0.00801967 -0.0121815 0.00368155)
(-0.00687781 -0.011052 0.00272578)
(-0.00687885 -0.0112075 0.00296947)
(-0.00704854 -0.0111427 0.00299237)
(-0.00717662 -0.0119891 0.00295077)
(-0.00662962 -0.0106705 0.00268535)
(-0.00707079 -0.0117548 0.00282811)
(-0.00698305 -0.011162 0.0020957)
(-0.00666788 -0.0106269 0.00255268)
(-0.0068805 -0.0106176 0.00256117)
(-0.0069429 -0.0105782 0.00225491)
(-0.00665509 -0.0102155 0.00256025)
(-0.00653972 -0.0102208 0.00257477)
(-0.00703276 -0.0109373 0.00281305)
(-0.00703676 -0.0113871 0.00264048)
(-0.00733538 -0.0111663 0.00287463)
(-0.00750033 -0.0112606 0.00297255)
(-0.0065328 -0.0100201 0.00243184)
(-0.00731139 -0.011215 0.00255587)
(-0.0075441 -0.0117911 0.00342012)
(-0.00727522 -0.0117335 0.00329814)
(-0.00716648 -0.0117885 0.0031453)
(-0.00743584 -0.0119226 0.00312782)
(-0.00733762 -0.0121298 0.00334882)
(-0.0074826 -0.0121746 0.00327161)
(-0.00742194 -0.0116259 0.00364998)
(-0.00758638 -0.0120207 0.00380478)
(-0.00747963 -0.0119849 0.00371082)
(-0.00721135 -0.0115151 0.00345358)
(-0.00756881 -0.0117179 0.00377761)
(-0.00712892 -0.011368 0.00351233)
(-0.0070611 -0.0116946 0.00320479)
(-0.00723688 -0.0116094 0.00355125)
(-0.00715574 -0.0111667 0.00337702)
(-0.00715607 -0.011012 0.00336093)
(-0.0071059 -0.0116826 0.00334819)
(-0.00755238 -0.0118406 0.00386007)
(-0.00699691 -0.0110808 0.00342827)
(-0.00735286 -0.0104605 0.00331665)
(-0.00761117 -0.0112078 0.00335365)
(-0.00798424 -0.0115565 0.00365948)
(-0.00700378 -0.0106345 0.0024036)
(-0.00731242 -0.0106293 0.00274933)
(-0.00716347 -0.0107606 0.0023802)
(-0.00696527 -0.0105652 0.00213985)
(-0.00707416 -0.0106401 0.00215617)
(-0.00657887 -0.0100159 0.00245646)
(-0.00736176 -0.0110053 0.00351875)
(-0.00725943 -0.0115833 0.00340353)
(-0.00736733 -0.011569 0.0035019)
(-0.00702474 -0.0109522 0.0035361)
(-0.0071365 -0.0106108 0.00333872)
(-0.00622743 -0.00908279 0.00263493)
(-0.00627361 -0.00898214 0.00273177)
(-0.00638732 -0.00929219 0.0027681)
(-0.00623975 -0.0091178 0.00275133)
(-0.00628287 -0.00918063 0.00298457)
(-0.00631743 -0.00923647 0.0027016)
(-0.00636538 -0.00949669 0.00287289)
(-0.0066017 -0.0101233 0.00276561)
(-0.00701121 -0.0102868 0.00250531)
(-0.00669075 -0.0100973 0.00284403)
(-0.00655146 -0.00969206 0.00288885)
(-0.00650674 -0.0100634 0.00236874)
(-0.00599247 -0.010281 0.00253291)
(-0.00669751 -0.0111806 0.00298134)
(-0.00663754 -0.0108058 0.00271215)
(-0.00602619 -0.0101738 0.00245909)
(-0.00638002 -0.011205 0.00229218)
(-0.00643416 -0.00917204 0.0028995)
(-0.00580581 -0.00971482 0.00250762)
(-0.00636631 -0.00992886 0.00257802)
(-0.00648783 -0.00929605 0.0031643)
(-0.00589745 -0.00965306 0.00271919)
(-0.00654037 -0.0100239 0.00303881)
(-0.00703989 -0.0105397 0.00317906)
(-0.00703044 -0.0106847 0.0031715)
(-0.00723677 -0.0109439 0.00317896)
(-0.00743259 -0.0110011 0.00348265)
(-0.00771442 -0.0114226 0.00356754)
(-0.00775948 -0.010946 0.00366758)
(-0.00753244 -0.011412 0.00325627)
(-0.00714415 -0.0106401 0.00325179)
(-0.00800379 -0.0111074 0.00371618)
(-0.00751926 -0.0108359 0.0034507)
(-0.00762946 -0.0106215 0.00359717)
(-0.00731875 -0.0112154 0.0029851)
(-0.00718222 -0.0110069 0.00275097)
(-0.00641526 -0.0101901 0.00225377)
(-0.00720102 -0.0110973 0.00240006)
(-0.00720923 -0.0118296 0.00277244)
(-0.00650914 -0.0103015 0.00269593)
(-0.00744505 -0.0120388 0.00274456)
(-0.0065673 -0.0101423 0.00270482)
(-0.00710359 -0.0108257 0.00288246)
(-0.00694172 -0.0108961 0.00264632)
(-0.00657601 -0.0101755 0.00266548)
(-0.00644842 -0.0102941 0.00272622)
(-0.00688616 -0.0103571 0.00284829)
(-0.00613417 -0.00898525 0.00250089)
(-0.00574243 -0.00872377 0.00281826)
(-0.00600038 -0.00882003 0.00264904)
(-0.00626183 -0.00913941 0.00292682)
(-0.00616011 -0.00886333 0.00278151)
(-0.00614488 -0.00895525 0.00265713)
(-0.00675464 -0.0102016 0.00239206)
(-0.00649907 -0.00985167 0.00228205)
(-0.00635138 -0.00942187 0.00242871)
(-0.00655334 -0.00959665 0.002511)
(-0.00675607 -0.0100562 0.00236145)
(-0.00652475 -0.00957185 0.00239981)
(-0.00648817 -0.00936132 0.00244893)
(-0.00715306 -0.00999716 0.0021584)
(-0.00710296 -0.0104195 0.0025183)
(-0.0065286 -0.00932802 0.00238287)
(-0.0066934 -0.0093216 0.00226792)
(-0.00656541 -0.00935088 0.00230182)
(-0.00580781 -0.00852955 0.00235012)
(-0.00598732 -0.00899546 0.00245066)
(-0.00606517 -0.00909118 0.00257162)
(-0.0061423 -0.00901186 0.00221732)
(-0.0066803 -0.00957935 0.002261)
(-0.00710431 -0.0116875 0.00315291)
(-0.00710054 -0.0121694 0.00323467)
(-0.00747277 -0.0124361 0.00327663)
(-0.00698153 -0.0120855 0.00325033)
(-0.00747371 -0.0119918 0.003554)
(-0.00688157 -0.0112816 0.0030383)
(-0.00717121 -0.0119286 0.00243151)
(-0.00627933 -0.0109925 0.00217025)
(-0.00740137 -0.0115322 0.00299842)
(-0.00696026 -0.0110571 0.00292016)
(-0.00665317 -0.0111327 0.00267168)
(-0.00704909 -0.0110612 0.0028553)
(-0.00747325 -0.0123746 0.00330163)
(-0.00722128 -0.0122073 0.003089)
(-0.00771892 -0.012579 0.00326846)
(-0.00713701 -0.0116565 0.00318647)
(-0.00708549 -0.0123957 0.00317331)
(-0.00676729 -0.0120896 0.00268469)
(-0.00726604 -0.0126603 0.0034928)
(-0.00742028 -0.0128141 0.00350898)
(-0.00765612 -0.0122654 0.00338605)
(-0.00704808 -0.012809 0.00312885)
(-0.00749558 -0.0118761 0.00357338)
(-0.00713797 -0.0111559 0.00332128)
(-0.00697463 -0.0121143 0.00315352)
(-0.00769992 -0.0126098 0.00295134)
(-0.00657106 -0.0113796 0.00279343)
(-0.00633856 -0.0111314 0.00234304)
(-0.00675077 -0.0109753 0.00287649)
(-0.00637392 -0.00921568 0.00249497)
(-0.00603796 -0.00876626 0.00251392)
(-0.00613846 -0.00870742 0.00250827)
(-0.00622948 -0.00885724 0.00252468)
(-0.00615207 -0.00880398 0.00243464)
(-0.00614407 -0.00879798 0.00218017)
(-0.00623259 -0.0089833 0.00237642)
(-0.00625394 -0.00904631 0.00217053)
(-0.00607083 -0.00858316 0.00251516)
(-0.00606164 -0.00899405 0.00303527)
(-0.00607246 -0.00876734 0.00268203)
(-0.0062659 -0.00893478 0.00272698)
(-0.00644025 -0.00884731 0.00272835)
(-0.00605047 -0.00894297 0.00277816)
(-0.00611072 -0.00899815 0.00289072)
(-0.00591247 -0.00872796 0.00283531)
(-0.00664065 -0.0100397 0.00330001)
(-0.00605733 -0.00945654 0.0029619)
(-0.00612707 -0.0086497 0.00264504)
(-0.00665785 -0.00991565 0.00299289)
(-0.00699256 -0.0102475 0.00301672)
(-0.00703288 -0.0102656 0.0032569)
(-0.00567855 -0.00902417 0.00259732)
(-0.00589419 -0.00955553 0.00280039)
(-0.00586759 -0.00936258 0.0025272)
(-0.0064082 -0.0098753 0.00297864)
(-0.0058718 -0.00912151 0.00286756)
(-0.00576209 -0.00917837 0.00268275)
(-0.00571802 -0.00900143 0.00274237)
(-0.00577467 -0.00888293 0.00271348)
(-0.00560371 -0.00884424 0.00259468)
(-0.00585245 -0.0093484 0.00267867)
(-0.00603651 -0.00903211 0.00277586)
(-0.00609627 -0.0094887 0.00274583)
(-0.00579526 -0.0090968 0.00262513)
(-0.0060781 -0.00920529 0.00271457)
(-0.00629166 -0.00960197 0.00281793)
(-0.00595837 -0.00919577 0.00275397)
(-0.00612466 -0.00865342 0.00267658)
(-0.00631211 -0.00956974 0.00320993)
(-0.00596846 -0.00916834 0.00291648)
(-0.00598751 -0.009173 0.00306333)
(-0.00623092 -0.00921961 0.00300723)
(-0.00597809 -0.00934675 0.0032058)
(-0.00671787 -0.0101846 0.00291584)
(-0.00676274 -0.0102633 0.00258406)
(-0.00619277 -0.00990373 0.00258041)
(-0.00602196 -0.00968001 0.00238948)
(-0.00608058 -0.00980763 0.00268611)
(-0.00654438 -0.0105865 0.00244404)
(-0.00720772 -0.010834 0.00251843)
(-0.00691707 -0.0104164 0.00244486)
(-0.00764531 -0.0110131 0.00249776)
(-0.00758242 -0.0113764 0.00263806)
(-0.00783921 -0.0113616 0.00224641)
(-0.00783043 -0.011572 0.00238127)
(-0.00793783 -0.0112869 0.00244984)
(-0.00822199 -0.0117588 0.00290631)
(-0.00817004 -0.011624 0.00247291)
(-0.00793977 -0.0112879 0.0022842)
(-0.00828547 -0.0117173 0.00279035)
(-0.00847171 -0.0119381 0.0025831)
(-0.00724614 -0.0106949 0.00312159)
(-0.0076009 -0.0118439 0.00311515)
(-0.00693041 -0.0104547 0.00279818)
(-0.00665542 -0.00997429 0.00285721)
(-0.00663787 -0.0102793 0.00278159)
(-0.00711326 -0.0105485 0.00267101)
(-0.00630498 -0.00964626 0.00281632)
(-0.00693712 -0.0106822 0.00293332)
(-0.00687875 -0.010447 0.00256977)
(-0.00683312 -0.0103811 0.00316469)
(-0.0066945 -0.0101625 0.00283767)
(-0.00835836 -0.0114263 0.00379671)
(-0.00825983 -0.0121924 0.00392471)
(-0.00792805 -0.0132134 0.0038311)
(-0.00848346 -0.0122684 0.00363405)
(-0.00752798 -0.011127 0.00354891)
(-0.00719168 -0.0122776 0.00364741)
(-0.00784512 -0.0115614 0.00390686)
(-0.00718883 -0.0124164 0.00343132)
(-0.00712099 -0.0110478 0.00335618)
(-0.00871163 -0.0138378 0.00444839)
(-0.00806142 -0.0122507 0.00377682)
(-0.00744242 -0.0125617 0.00358873)
(-0.00742387 -0.0120069 0.0036702)
(-0.00747837 -0.0129454 0.00383843)
(-0.00809791 -0.0124433 0.00391519)
(-0.00704025 -0.0115511 0.0036089)
(-0.00761721 -0.0124524 0.00343877)
(-0.00807725 -0.0125123 0.00406057)
(-0.00719232 -0.0121109 0.00401055)
(-0.00869431 -0.0122058 0.00366359)
(-0.00795567 -0.0116914 0.00380785)
(-0.00774936 -0.0117906 0.003679)
(-0.0080301 -0.0125991 0.00397847)
(-0.00794314 -0.012275 0.00407284)
(-0.00860368 -0.012633 0.00391723)
(-0.00806563 -0.0118712 0.00367215)
(-0.00755287 -0.0116247 0.00384389)
(-0.00819907 -0.0119808 0.00374726)
(-0.00816149 -0.0126168 0.00404761)
(-0.00823263 -0.0121918 0.00367761)
(-0.00830149 -0.011772 0.00354029)
(-0.00808393 -0.0127949 0.00388579)
(-0.0080526 -0.0118706 0.0038001)
(-0.00886123 -0.012606 0.00359346)
(-0.00837711 -0.0119672 0.00371391)
(-0.00878291 -0.0128779 0.00404814)
(-0.0080352 -0.0120308 0.00389268)
(-0.00839948 -0.0125055 0.00400268)
(-0.00812439 -0.0123492 0.0039436)
(-0.00869205 -0.0121165 0.00380151)
(-0.00849163 -0.0119644 0.00317606)
(-0.00858998 -0.0120553 0.00320207)
(-0.00869461 -0.0123507 0.00303951)
(-0.00810839 -0.0115155 0.00302767)
(-0.00826479 -0.0113951 0.00280146)
(-0.00825912 -0.0113911 0.00294804)
(-0.00939587 -0.0132141 0.00372736)
(-0.00889724 -0.0122459 0.00360381)
(-0.00836232 -0.0120377 0.00345405)
(-0.00894711 -0.0123345 0.00348155)
(-0.00802563 -0.0111351 0.0032037)
(-0.00832697 -0.0118614 0.00345281)
(-0.00836269 -0.0112683 0.00327923)
(-0.00853991 -0.0115274 0.00353957)
(-0.0081555 -0.0124174 0.00391199)
(-0.00903933 -0.0128439 0.00371039)
(-0.00828832 -0.0117517 0.00352396)
(-0.0080059 -0.0114882 0.00364863)
(-0.00848367 -0.0115001 0.00314779)
(-0.00792052 -0.0113567 0.00273298)
(-0.0078324 -0.0111653 0.0025047)
(-0.0081595 -0.0116178 0.00267489)
(-0.00817234 -0.0119806 0.00256463)
(-0.00770833 -0.0112729 0.00274633)
(-0.00735076 -0.0108984 0.00269826)
(-0.00830812 -0.0118241 0.00315293)
(-0.00784545 -0.0114817 0.00343546)
(-0.00840459 -0.0121426 0.00315813)
(-0.00823463 -0.0118187 0.0029481)
(-0.0080346 -0.0117332 0.0029855)
(-0.00863126 -0.0122453 0.00320582)
(-0.00889663 -0.0127108 0.00332541)
(-0.00758483 -0.0111979 0.00350584)
(-0.00734519 -0.0109053 0.00341376)
(-0.00787913 -0.0113137 0.00341926)
(-0.0076648 -0.0112823 0.0034479)
(-0.00585245 -0.00809562 0.00224917)
(-0.00602934 -0.00860288 0.00239063)
(-0.00584712 -0.00874844 0.00273629)
(-0.00591951 -0.00847892 0.00258563)
(-0.00602825 -0.00873747 0.00245384)
(-0.00581943 -0.00850217 0.00244493)
(-0.00571565 -0.00837097 0.00251378)
(-0.00602906 -0.00850696 0.00252331)
(-0.00566343 -0.00878746 0.00278748)
(-0.00630952 -0.00819254 0.00238201)
(-0.00592922 -0.00837547 0.0026681)
(-0.00598428 -0.00884516 0.00291976)
(-0.00635528 -0.00895911 0.00248727)
(-0.0061512 -0.00853501 0.00235034)
(-0.00653937 -0.00924177 0.00293421)
(-0.00581536 -0.00864501 0.00287962)
(-0.00617735 -0.00825345 0.00254817)
(-0.00597156 -0.00914072 0.00286994)
(-0.00535278 -0.00838177 0.00274779)
(-0.00601627 -0.0089638 0.00278244)
(-0.0057827 -0.00844322 0.00243408)
(-0.00610299 -0.00911938 0.00312434)
(-0.00559811 -0.00834017 0.00253295)
(-0.00554232 -0.00795694 0.00231227)
(-0.00583614 -0.00902166 0.00303395)
(-0.00567035 -0.00842909 0.00258023)
(-0.00583049 -0.00876138 0.00290229)
(-0.00563512 -0.00864227 0.00267074)
(-0.00579855 -0.00884077 0.00289013)
(-0.00600984 -0.00921593 0.00281636)
(-0.00577336 -0.00866397 0.00273687)
(-0.00571676 -0.00876266 0.00297909)
(-0.00550645 -0.00900215 0.00279545)
(-0.00559674 -0.00882051 0.00272082)
(-0.00554771 -0.00846118 0.00264245)
(-0.00571111 -0.0089053 0.00286157)
(-0.00552295 -0.00851994 0.00266509)
(-0.00547917 -0.00828711 0.00259829)
(-0.00585873 -0.00915593 0.00300304)
(-0.00589419 -0.00913367 0.00280411)
(-0.00590433 -0.00850832 0.00255179)
(-0.00589939 -0.00825824 0.00255886)
(-0.00618655 -0.00850005 0.00256658)
(-0.00636952 -0.00895322 0.00235971)
(-0.00636328 -0.00886144 0.00244603)
(-0.00619462 -0.00888381 0.00252125)
(-0.00596473 -0.00862024 0.00262398)
(-0.005722 -0.00849054 0.00263176)
(-0.00566972 -0.00829602 0.00248604)
(-0.00599902 -0.00842511 0.00242222)
(-0.00597159 -0.00846092 0.00251114)
(-0.00590003 -0.00844873 0.00254398)
(-0.0067506 -0.00953683 0.00236912)
(-0.00691552 -0.0100456 0.00244529)
(-0.0068081 -0.00978429 0.00236015)
(-0.00688808 -0.00977666 0.00250088)
(-0.00664016 -0.00953068 0.0023761)
(-0.00685426 -0.0100063 0.00240905)
(-0.00597986 -0.00860965 0.00243458)
(-0.00581434 -0.00917874 0.00292943)
(-0.00647977 -0.00939149 0.00261639)
(-0.00664522 -0.0100365 0.00265005)
(-0.00691308 -0.0102999 0.00279183)
(-0.00692775 -0.0101872 0.00249017)
(-0.00569233 -0.00869487 0.00270044)
(-0.00606827 -0.00920737 0.00281814)
(-0.00575786 -0.00887349 0.00279565)
(-0.00573199 -0.00883024 0.00276841)
(-0.006002 -0.00927491 0.00290061)
(-0.00601054 -0.0102153 0.00336855)
(-0.00553148 -0.00930243 0.00287878)
(-0.00548793 -0.00938618 0.00266265)
(-0.00546523 -0.00919653 0.00264443)
(-0.00576799 -0.00994086 0.0031364)
(-0.00520878 -0.00861357 0.00265784)
(-0.00566537 -0.0108343 0.00268506)
(-0.00586215 -0.00936746 0.0028072)
(-0.00661299 -0.0104102 0.00319237)
(-0.00603101 -0.0102943 0.00281098)
(-0.0058099 -0.0107198 0.00279647)
(-0.00590427 -0.00982942 0.00284409)
(-0.0062397 -0.010268 0.00282892)
(-0.00636823 -0.0103607 0.00267125)
(-0.00616145 -0.0101556 0.00284093)
(-0.00599087 -0.0105836 0.00237967)
(-0.00605341 -0.0102902 0.00288409)
(-0.00631874 -0.0107733 0.00282506)
(-0.00675072 -0.0110894 0.00252361)
(-0.00713141 -0.0114721 0.00261626)
(-0.00662592 -0.010746 0.00235722)
(-0.0066568 -0.0110182 0.00255535)
(-0.00726998 -0.011832 0.00271098)
(-0.00716057 -0.0113335 0.00259752)
(-0.00709393 -0.0110988 0.00273016)
(-0.00736932 -0.0114513 0.00289754)
(-0.00723011 -0.0112727 0.00273663)
(-0.00692878 -0.010876 0.00276632)
(-0.00702815 -0.0105371 0.00281906)
(-0.00713898 -0.0114525 0.00287403)
(-0.00664368 -0.0103414 0.00256707)
(-0.00687599 -0.0107242 0.00258731)
(-0.0076551 -0.0115538 0.00291849)
(-0.0063033 -0.00841201 0.00255582)
(-0.00618574 -0.00898918 0.00292309)
(-0.00576935 -0.00807726 0.00250318)
(-0.00563042 -0.00861355 0.00281281)
(-0.00574772 -0.00863423 0.00287398)
(-0.00612097 -0.00906036 0.00292326)
(-0.00687696 -0.00949675 0.00276153)
(-0.00635832 -0.00924513 0.00303827)
(-0.00660322 -0.00912482 0.00248559)
(-0.00578175 -0.00807861 0.00221378)
(-0.00575029 -0.00863728 0.00249725)
(-0.00627814 -0.00895499 0.00272843)
(-0.0059983 -0.00847786 0.00210815)
(-0.00618504 -0.00882525 0.00209983)
(-0.00700748 -0.0092179 0.00225171)
(-0.00674947 -0.0110278 0.00252845)
(-0.00690594 -0.0114214 0.00288644)
(-0.00732486 -0.0121382 0.00256517)
(-0.00637735 -0.0104948 0.00242885)
(-0.00668479 -0.0113216 0.00270269)
(-0.00690967 -0.0111592 0.00288035)
(-0.00621434 -0.0105063 0.00254098)
(-0.00629906 -0.0108216 0.00213146)
(-0.007053 -0.0111521 0.00281758)
(-0.00624903 -0.0109284 0.00223152)
(-0.00669638 -0.0116748 0.00241902)
(-0.00851701 -0.0125495 0.00352813)
(-0.00851541 -0.0118427 0.00332048)
(-0.00771147 -0.011319 0.00315407)
(-0.00844843 -0.011499 0.00305458)
(-0.00811075 -0.0120933 0.00365846)
(-0.00797018 -0.0121789 0.00393774)
(-0.00822292 -0.0122754 0.00380881)
(-0.0079479 -0.0121797 0.00394655)
(-0.00818649 -0.0119286 0.00356248)
(-0.0082081 -0.0121653 0.00374482)
(-0.00778449 -0.0117245 0.00375614)
(-0.00754461 -0.0116074 0.00373494)
(-0.0080667 -0.0116983 0.00337329)
(-0.00716815 -0.0113297 0.0034991)
(-0.00798076 -0.0117597 0.00377667)
(-0.00790023 -0.0110908 0.00342602)
(-0.00752372 -0.0114159 0.00380337)
(-0.00752352 -0.0107585 0.00324479)
(-0.00784324 -0.0110375 0.00312249)
(-0.00811968 -0.0123436 0.00391768)
(-0.00775665 -0.0115343 0.00364373)
(-0.00815555 -0.0118334 0.00331394)
(-0.0083337 -0.0118915 0.00314741)
(-0.00823785 -0.011817 0.0032494)
(-0.0084489 -0.0120995 0.00300235)
(-0.00858835 -0.0124256 0.0035111)
(-0.0084575 -0.0120328 0.00340964)
(-0.00806317 -0.0114613 0.00308628)
(-0.00768658 -0.0111433 0.00289546)
(-0.00796092 -0.0115306 0.00303237)
(-0.00819143 -0.0119124 0.00317372)
(-0.0078807 -0.0113567 0.00288843)
(-0.00811645 -0.0119945 0.00275161)
(-0.00712042 -0.0111933 0.00232949)
(-0.00696841 -0.0110268 0.00232134)
(-0.00723511 -0.0110894 0.00227021)
(-0.00737566 -0.0119736 0.00233128)
(-0.00736035 -0.0113391 0.00242503)
(-0.00686566 -0.0109796 0.00214644)
(-0.0074655 -0.0109543 0.00261488)
(-0.00762954 -0.0115085 0.00273026)
(-0.00770049 -0.0112268 0.00289437)
(-0.0075387 -0.0110488 0.00283372)
(-0.0077 -0.0113754 0.0028426)
(-0.00750798 -0.0111093 0.00270991)
(-0.00760075 -0.0110337 0.00300666)
(-0.00784309 -0.0113811 0.0030105)
(-0.00752077 -0.0109416 0.00311248)
(-0.0070634 -0.0103653 0.00303807)
(-0.00776176 -0.0113602 0.00296363)
(-0.00774316 -0.0112069 0.00323102)
(-0.00637724 -0.0101022 0.00234284)
(-0.00687774 -0.0102676 0.00253729)
(-0.0061767 -0.00932126 0.00249055)
(-0.00668341 -0.0106059 0.00204457)
(-0.00629919 -0.0095745 0.00221931)
(-0.00685412 -0.0106716 0.0023063)
(-0.00676176 -0.0101568 0.00299909)
(-0.00672483 -0.00994163 0.00311855)
(-0.00715614 -0.0102869 0.00300448)
(-0.00660831 -0.00953401 0.00327744)
(-0.00666945 -0.00992002 0.00286519)
(-0.00668323 -0.00992816 0.00292616)
(-0.0066043 -0.00976897 0.00301893)
(-0.00655864 -0.00969293 0.00302679)
(-0.006281 -0.00927808 0.00267798)
(-0.00648978 -0.00940635 0.00274758)
(-0.00645062 -0.00954153 0.00307346)
(-0.00636567 -0.00937423 0.00276725)
(-0.00662682 -0.00949504 0.0026587)
(-0.00654453 -0.00953344 0.00296167)
(-0.00606819 -0.00899837 0.00285789)
(-0.00647661 -0.00934503 0.00283766)
(-0.00643443 -0.0094557 0.0029589)
(-0.00641858 -0.00924827 0.00281929)
(-0.00619768 -0.00908252 0.0029774)
(-0.00663927 -0.00960948 0.0030437)
(-0.00692814 -0.00979159 0.0030979)
(-0.00648253 -0.00936655 0.00297635)
(-0.0064348 -0.00957472 0.00298883)
(-0.00716817 -0.0110508 0.00312404)
(-0.00684167 -0.0106876 0.00283434)
(-0.0065255 -0.010854 0.00242599)
(-0.00672427 -0.0112983 0.00243735)
(-0.00681609 -0.0107534 0.00273434)
(-0.00746488 -0.0113126 0.00257862)
(-0.00699215 -0.0109425 0.00270932)
(-0.0077068 -0.0118783 0.00306987)
(-0.00713206 -0.0109474 0.00244896)
(-0.0071486 -0.0106642 0.0032033)
(-0.00715985 -0.0107952 0.00333518)
(-0.00728072 -0.0107938 0.00317272)
(-0.00739195 -0.0107583 0.00301565)
(-0.00738218 -0.0111659 0.00252478)
(-0.00735541 -0.0112644 0.00285402)
(-0.00751627 -0.011316 0.00283071)
(-0.00725166 -0.0112211 0.00275778)
(-0.00742533 -0.0112455 0.00279848)
(-0.00721072 -0.0114597 0.00252627)
(-0.00817345 -0.0116959 0.00280361)
(-0.00807995 -0.0116931 0.0029373)
(-0.00798597 -0.0117099 0.00376963)
(-0.00815032 -0.0118479 0.00374386)
(-0.00800482 -0.012085 0.00382987)
(-0.00777228 -0.0111785 0.00344083)
(-0.00805662 -0.0117635 0.00365277)
(-0.00845924 -0.0118983 0.00336444)
(-0.00789163 -0.0110959 0.0033648)
(-0.00785032 -0.0114296 0.00352812)
(-0.00755914 -0.0112592 0.0034606)
(-0.00794797 -0.0115059 0.00337569)
(-0.00780895 -0.0116572 0.0025038)
(-0.00755005 -0.0112068 0.00244113)
(-0.00780233 -0.012109 0.00238307)
(-0.00788627 -0.0116141 0.00238063)
(-0.0076853 -0.0112565 0.00241031)
(-0.00792626 -0.0119154 0.0025088)
(-0.00814592 -0.0120234 0.00272546)
(-0.00775069 -0.011731 0.0026396)
(-0.00797189 -0.0116136 0.00253065)
(-0.00780893 -0.01143 0.00264261)
(-0.00826921 -0.0117088 0.00268684)
(-0.00932351 -0.0131038 0.00361253)
(-0.00842428 -0.0118868 0.00310401)
(-0.00855145 -0.0123717 0.00366033)
(-0.00814029 -0.0118129 0.00355024)
(-0.00827067 -0.0118302 0.00344403)
(-0.00840902 -0.0120723 0.00351028)
(-0.00752909 -0.0110693 0.0036116)
(-0.00836728 -0.0121531 0.00368306)
(-0.00672236 -0.0108175 0.00231976)
(-0.00742976 -0.0118013 0.00235004)
(-0.00746191 -0.0118594 0.00284382)
(-0.00627476 -0.0105159 0.00232092)
(-0.00702191 -0.0111207 0.00254964)
(-0.00675157 -0.0111708 0.00244225)
(-0.00661234 -0.0106785 0.00230885)
(-0.00685998 -0.0112977 0.00235139)
(-0.00562709 -0.00985979 0.00245315)
(-0.00620055 -0.00989088 0.00289124)
(-0.00573226 -0.00937452 0.00270211)
(-0.00585575 -0.00944431 0.0027494)
(-0.00633909 -0.0102236 0.00280084)
(-0.00688725 -0.0100895 0.00226273)
(-0.00686005 -0.0101637 0.00244659)
(-0.00683929 -0.010361 0.00257396)
(-0.00643718 -0.00950483 0.00224286)
(-0.00627026 -0.00861745 0.00236207)
(-0.00662812 -0.00939702 0.0029627)
(-0.006053 -0.00907894 0.00288748)
(-0.005732 -0.00839347 0.00272925)
(-0.00713763 -0.0109861 0.00289333)
(-0.00736008 -0.0113561 0.00318067)
(-0.00717407 -0.0113184 0.00276446)
(-0.00746984 -0.0118957 0.00283538)
(-0.00680367 -0.0108917 0.00299699)
(-0.00648037 -0.0112067 0.00279429)
(-0.00584162 -0.0107091 0.00262076)
(-0.00660304 -0.0109546 0.00243734)
(-0.00611423 -0.0105519 0.00302017)
(-0.00656343 -0.0111428 0.00271111)
(-0.00656432 -0.0108497 0.00253395)
(-0.00663615 -0.0112257 0.00260983)
(-0.00673167 -0.0111401 0.00254846)
(-0.00660692 -0.0111566 0.00259822)
(-0.00691787 -0.011099 0.00299424)
(-0.00665057 -0.0114922 0.0026938)
(-0.00632522 -0.0111601 0.00250102)
(-0.00623463 -0.00951623 0.00292938)
(-0.00628564 -0.00975967 0.00298513)
(-0.00582412 -0.0102785 0.00282083)
(-0.00567809 -0.0102534 0.00284466)
(-0.0060399 -0.0104554 0.00284729)
(-0.00637672 -0.0104715 0.00329428)
(-0.00646012 -0.00982544 0.00324389)
(-0.00544791 -0.0101059 0.00281364)
(-0.00569312 -0.00962837 0.0027442)
(-0.00564716 -0.00869706 0.0026164)
(-0.00595783 -0.00981323 0.0028775)
(-0.00644869 -0.0103939 0.00296425)
(-0.00580847 -0.00993856 0.00267767)
(-0.00556327 -0.0103225 0.00267856)
(-0.00578422 -0.0103412 0.00264296)
(-0.00671953 -0.0116408 0.00273657)
(-0.00641366 -0.0109095 0.00272264)
(-0.00632742 -0.0106164 0.00275511)
(-0.0067707 -0.00931095 0.00241782)
(-0.0068824 -0.00947276 0.00232577)
(-0.00688693 -0.00954836 0.00240738)
(-0.00580875 -0.00881255 0.00278467)
(-0.00607691 -0.00873291 0.00263265)
(-0.00635673 -0.00907745 0.00286473)
(-0.00628287 -0.00866201 0.00236313)
(-0.00618969 -0.00872425 0.00254548)
(-0.00684402 -0.00990125 0.00236271)
(-0.00716073 -0.0100533 0.00274229)
(-0.00647294 -0.00911412 0.00254309)
(-0.00710185 -0.0100917 0.00273366)
(-0.00669364 -0.00945538 0.00199093)
(-0.00637662 -0.0089753 0.00201562)
(-0.00603703 -0.00896057 0.00255029)
(-0.00682589 -0.00962532 0.00263981)
(-0.00623968 -0.00898254 0.00265469)
(-0.00641972 -0.00904993 0.00234093)
(-0.00650495 -0.00938914 0.00249677)
(-0.00655561 -0.00905737 0.00249571)
(-0.00662513 -0.0092626 0.00251727)
(-0.00701704 -0.00937833 0.00228467)
(-0.00592301 -0.0083124 0.00225332)
(-0.00697326 -0.00951733 0.00239249)
(-0.00618533 -0.00836168 0.00217665)
(-0.00629738 -0.00855027 0.00221387)
(-0.00657534 -0.0089336 0.00227297)
(-0.00590833 -0.00849626 0.00253189)
(-0.00606555 -0.00989985 0.00307512)
(-0.00559705 -0.00872851 0.0029548)
(-0.00588767 -0.0084783 0.00269924)
(-0.00590909 -0.00883466 0.00282177)
(-0.00585831 -0.00880002 0.00269326)
(-0.00563292 -0.00897689 0.00273872)
(-0.00560671 -0.00914302 0.00296766)
(-0.00606261 -0.00880659 0.00290795)
(-0.0062827 -0.0085718 0.00246177)
(-0.0059447 -0.00828336 0.00248689)
(-0.00669306 -0.00923679 0.00279002)
(-0.00609107 -0.00873825 0.00270413)
(-0.0058888 -0.00829279 0.00251073)
(-0.00596777 -0.00889724 0.00288704)
(-0.0063749 -0.00897277 0.00238178)
(-0.00751766 -0.0112039 0.00296262)
(-0.00704281 -0.0106777 0.00301147)
(-0.00749823 -0.0113712 0.00322229)
(-0.00743537 -0.0109134 0.00306715)
(-0.00689756 -0.0103774 0.00310579)
(-0.00705846 -0.0104878 0.00326996)
(-0.00578239 -0.00865055 0.00269301)
(-0.00569703 -0.00834613 0.00257236)