/*--------------------------------*- C++ -*----------------------------------*\
| =========                 |                                                 |
| \\      /  F ield         | OpenFOAM: The Open Source CFD Toolbox           |
|  \\    /   O peration     | Version:  v1612+                                |
|   \\  /    A nd           | Web:      www.OpenFOAM.com                      |
|    \\/     M anipulation  |                                                 |
\*---------------------------------------------------------------------------*/
FoamFile
{
    version     2.0;
    format      ascii;
    class       volVectorField;
    location    "150";
    object      wallShearStress;
}
// * * * * * * * * * * * * * * * * * * * * * * * * * * * * * * * * * * * * * //

dimensions      [0 2 -2 0 0 0 0];

internalField   uniform (0 0 0);

boundaryField
{
    WALL
    {
        type            calculated;
        value           nonuniform List<vector> 
1508
(
(0.037783 -0.00686706 -0.0432111)
(0.0368821 -0.0109571 -0.0395547)
(0.0349633 -0.00828394 -0.0468286)
(0.0378821 -0.00625089 -0.0449112)
(0.0342479 -0.00116818 -0.0334528)
(0.0373071 -0.00302588 -0.0374366)
(0.00727545 -0.0107738 -0.0162162)
(0.0265425 -0.051686 -0.057016)
(0.0189038 -0.0438991 -0.0638551)
(0.0363847 0.00176098 -0.0245548)
(0.035032 0.0029344 -0.0195621)
(0.00264027 -0.0129739 -0.0167567)
(0.0040808 -0.0116374 -0.016173)
(-0.00456701 -0.0162972 -0.0182212)
(-0.00670873 -0.0161116 -0.0157229)
(0.00228799 0.000459425 -0.00445277)
(-0.00223314 0.00148134 0.00203613)
(0.0296113 -0.00274029 -0.0203337)
(0.0279054 0.000240208 -0.0158074)
(0.0254548 0.000849003 -0.0120275)
(0.0307214 -0.00884725 -0.0377649)
(0.0300798 -0.0134669 -0.0452899)
(0.0192945 -0.0233297 -0.0222191)
(0.018501 -0.02422 -0.0242054)
(0.00608782 -0.0384973 -0.050035)
(0.00659019 -0.0369687 -0.0342971)
(0.00444324 -0.00853481 -0.000648127)
(0.00315953 -0.00945957 -0.000172003)
(0.0244059 -0.0331172 -0.0323617)
(0.0205816 -0.0289118 -0.0315006)
(0.0231202 -0.0301204 -0.0284957)
(0.0237181 -0.0323965 -0.0337158)
(0.0237314 -0.0297718 -0.0298337)
(0.0206961 -0.0297188 -0.0333408)
(0.0339457 -0.0473873 -0.0324255)
(0.0359579 -0.0448417 -0.0288759)
(0.0301941 -0.0463608 -0.0327422)
(0.0379355 -0.0403865 -0.0247208)
(0.0370627 -0.0422095 -0.0267552)
(0.0428593 -0.0181137 -0.0471569)
(0.0405619 -0.0218051 -0.0554649)
(0.0363359 -0.022964 -0.054454)
(0.00732621 -0.0111981 -0.0170323)
(0.00582746 -0.011675 -0.0186507)
(0.00655358 -0.0124121 -0.0179092)
(0.00693669 -0.0118337 -0.0165982)
(0.00817358 -0.012384 -0.0190363)
(0.00883608 -0.0121374 -0.0178989)
(0.0302308 -0.00891359 -0.0391063)
(0.0324675 -0.0109941 -0.0384207)
(0.034559 -0.0143201 -0.0404454)
(0.0273017 -0.0111746 -0.040424)
(0.0289903 -0.00992362 -0.0395592)
(0.0303221 -0.0134625 -0.041446)
(0.0185833 -0.0177705 -0.0516496)
(0.0148461 -0.0181103 -0.050054)
(0.0147079 -0.0158828 -0.0468725)
(0.0205401 -0.0158606 -0.0513404)
(0.0208344 -0.0143266 -0.048745)
(0.0167669 -0.0139769 -0.0472241)
(0.0358673 -0.0344397 -0.0289285)
(0.0369191 -0.0346549 -0.0292809)
(0.0357229 -0.0331867 -0.0269333)
(0.0387226 -0.0368013 -0.0296156)
(0.0364048 -0.034046 -0.027391)
(0.0359335 -0.03377 -0.0280526)
(0.0369316 -0.0480114 -0.0410481)
(0.0339167 -0.0459147 -0.042337)
(0.032585 -0.0471528 -0.043344)
(0.0339565 -0.0471781 -0.0465621)
(0.0380803 -0.0459694 -0.0393376)
(0.0314479 -0.0486232 -0.0492278)
(0.0076779 -0.0114728 -0.0232632)
(0.00876031 -0.0115753 -0.0242661)
(0.00545457 -0.0114895 -0.0222995)
(0.00800799 -0.0119332 -0.0262461)
(0.00594277 -0.0116289 -0.0241766)
(0.00605491 -0.0113246 -0.0216462)
(0.0148566 -0.0121188 -0.0178403)
(0.0155092 -0.012369 -0.0199625)
(0.017144 -0.0135128 -0.0180797)
(0.0173896 -0.0135166 -0.0195572)
(0.0160829 -0.0122179 -0.0205714)
(0.0153567 -0.0118894 -0.0175756)
(0.0213121 -0.0124601 -0.0296356)
(0.0200669 -0.0120667 -0.0260177)
(0.0219623 -0.0127398 -0.0255649)
(0.02435 -0.0143889 -0.027001)
(0.0265142 -0.0145956 -0.031565)
(0.0224843 -0.0122076 -0.0308651)
(0.00694548 -0.0138429 -0.0346483)
(0.0101126 -0.011821 -0.0330604)
(0.0125569 -0.0120981 -0.0350162)
(0.00804063 -0.0131627 -0.0329392)
(0.00818949 -0.0132978 -0.0360359)
(0.0118669 -0.0128254 -0.0366296)
(0.023317 -0.025842 -0.0216407)
(0.0213586 -0.0256854 -0.0212986)
(0.0229305 -0.0244856 -0.0206297)
(0.0196538 -0.0244397 -0.0202322)
(0.0230341 -0.0275703 -0.0230722)
(0.0206971 -0.0267031 -0.0223082)
(0.017466 -0.0221293 -0.0207766)
(0.0170346 -0.0221315 -0.0231875)
(0.0170014 -0.0222319 -0.0235475)
(0.0158747 -0.0203935 -0.0201964)
(0.016683 -0.0216981 -0.0236926)
(0.0128794 -0.0201793 -0.0147549)
(0.0140091 -0.0212605 -0.0160167)
(0.0131417 -0.0198787 -0.0152931)
(0.0309743 -0.00667715 -0.0336556)
(0.0298648 -0.00478565 -0.0300458)
(0.030762 -0.00583964 -0.0345806)
(0.0324351 -0.0059625 -0.0308706)
(0.0320565 -0.00875518 -0.0384526)
(0.0208799 -0.0370636 -0.0538767)
(0.0212618 -0.0329903 -0.0587826)
(0.0165205 -0.0359606 -0.0519848)
(0.0192844 -0.0389732 -0.0525345)
(0.0153134 -0.0319345 -0.0571513)
(0.0211903 -0.0314219 -0.0584718)
(0.0116469 -0.0242761 -0.0520105)
(0.0131365 -0.0194921 -0.0533939)
(0.0132581 -0.02493 -0.0571713)
(0.0110702 -0.0140165 -0.0489682)
(0.0134286 -0.0221448 -0.0507892)
(0.0106672 -0.0150591 -0.0474985)
(0.0178633 -0.0357049 -0.0562303)
(0.0231432 -0.0399958 -0.0461993)
(0.0245502 -0.0446824 -0.0561521)
(0.0184558 -0.0341449 -0.049966)
(0.0210121 -0.0369222 -0.0468902)
(0.0228712 -0.0400069 -0.0543111)
(0.0306153 0.00165008 -0.0227939)
(0.0305071 -0.000450952 -0.0193744)
(0.0304307 0.000842437 -0.0205297)
(0.0302083 0.00038781 -0.0220238)
(0.0296393 0.000655476 -0.017108)
(0.0125835 -0.0147262 -0.0213466)
(0.0134995 -0.0141872 -0.0205112)
(0.0133732 -0.0157759 -0.0214728)
(0.0128574 -0.0137826 -0.0209679)
(0.0145714 -0.0166282 -0.0213105)
(0.0125427 -0.0128572 -0.0187569)
(0.0137795 -0.016077 -0.0191494)
(0.0138119 -0.0149747 -0.018379)
(0.0204344 -0.0182529 -0.0175395)
(0.0221919 -0.0201818 -0.0182804)
(0.0246159 -0.018481 -0.0215668)
(0.0208018 -0.0167921 -0.0184192)
(0.0243186 -0.0165672 -0.0216124)
(0.0240081 -0.0204057 -0.0197311)
(0.0220462 -0.0204044 -0.0181841)
(0.0246573 -0.0244688 -0.0208427)
(0.0252987 -0.0210563 -0.0192268)
(0.0240513 -0.0197396 -0.0194705)
(0.0219558 -0.0205554 -0.017376)
(0.0166618 -0.0179476 -0.0144697)
(0.021059 -0.0184068 -0.0181465)
(0.0207964 -0.0192899 -0.0178111)
(0.0175252 -0.0179555 -0.0150945)
(0.0188666 -0.0157464 -0.0166609)
(0.017135 -0.0157822 -0.0155006)
(0.0187678 -0.0221962 -0.0183991)
(0.017021 -0.0230946 -0.0189538)
(0.0186375 -0.0230424 -0.018459)
(0.0153755 -0.020008 -0.0159883)
(0.0173229 -0.0208194 -0.0162605)
(0.0167214 -0.0214798 -0.0183745)
(0.01923 -0.0242314 -0.0211496)
(0.0186272 -0.0230822 -0.0199822)
(0.0186435 -0.0235804 -0.0212171)
(0.0181633 -0.0235648 -0.0213223)
(0.0180362 -0.0243519 -0.0227413)
(0.0165184 -0.0232679 -0.0216557)
(0.0247268 -0.0279526 -0.0246484)
(0.0217561 -0.0263951 -0.0236886)
(0.0233501 -0.0291891 -0.0251116)
(0.0236491 -0.0293276 -0.0267117)
(0.0215573 -0.0281995 -0.0245111)
(0.0232094 -0.0289212 -0.026726)
(-0.00755187 -0.0113864 -0.00354755)
(-0.00789396 -0.0110476 -0.0023232)
(-0.0070041 -0.0123112 -0.00447701)
(-0.00734736 -0.0134194 -0.00582785)
(-0.00754405 -0.00982473 -0.00178462)
(-0.00770068 -0.00869684 -0.000414363)
(-0.00588719 -0.00974965 -0.00254494)
(-0.00458474 -0.011633 -0.00603391)
(-0.00525761 -0.00891556 -0.00180199)
(-0.00538488 -0.0125284 -0.00561908)
(-0.00432445 -0.0121895 -0.00419571)
(-0.00403385 -0.0111378 -0.00501163)
(0.0123878 -0.0120659 -0.0145788)
(0.0112161 -0.011606 -0.00953536)
(0.0122585 -0.0125855 -0.0113872)
(0.012086 -0.0115091 -0.0119758)
(0.0127663 -0.0124815 -0.0157687)
(0.0129458 -0.0134813 -0.0135093)
(0.00291139 -0.0129758 -0.00523319)
(0.00245748 -0.0134009 -0.00591157)
(0.00283726 -0.0156091 -0.00721465)
(0.000376492 -0.0128304 -0.0063114)
(-0.00253885 -0.0119603 -0.00501805)
(-0.000302713 -0.0129246 -0.00744218)
(-0.00126713 -0.0138005 -0.00804567)
(-0.00163921 -0.014169 -0.00765059)
(-0.000382664 -0.0108649 -0.00469275)
(0.011878 -0.0163805 -0.0323374)
(0.0118709 -0.0160692 -0.03511)
(0.0103262 -0.0102447 -0.0287489)
(0.0107761 -0.0113956 -0.0295055)
(0.0134115 -0.0164717 -0.0315807)
(0.00908952 -0.0104458 -0.0323643)
(0.0111894 -0.0120923 -0.0233672)
(0.0116092 -0.0121536 -0.0235054)
(0.0112682 -0.0142094 -0.0267013)
(0.0145617 -0.0174239 -0.0266459)
(0.0124052 -0.0131018 -0.0267167)
(0.012808 -0.0162403 -0.0269334)
(0.00569131 -0.00253218 -0.00890925)
(0.00481643 -0.000982452 -0.00915336)
(0.00299089 -0.00103891 -0.00410986)
(0.00113101 0.000164996 -0.00216107)
(0.000493775 0.00123123 -0.00204889)
(0.00643078 -0.00187651 -0.0118279)
(0.00960484 -0.0068787 -0.0220868)
(0.0100387 -0.00769459 -0.0234243)
(0.00962698 -0.00563513 -0.0176101)
(0.0116543 -0.00884563 -0.0206361)
(0.0083669 -0.00471672 -0.0152877)
(0.00907333 -0.00473926 -0.0185687)
(0.00902208 -0.0078324 -0.0112364)
(0.0105992 -0.00867749 -0.013967)
(0.0108892 -0.00869299 -0.0146063)
(0.0103267 -0.00921694 -0.0180642)
(0.0106301 -0.00953053 -0.0191296)
(0.0126305 -0.0115097 -0.0168794)
(-0.00211937 0.00504055 0.000742561)
(0.000146419 -0.000140842 -3.09151e-05)
(-0.000785136 -0.00301907 -0.00115918)
(-0.00565919 0.00608481 0.000168278)
(-0.00121396 0.00201759 0.000633897)
(0.000795328 0.00135053 0.000493853)
(0.0375596 -0.0115712 -0.0240683)
(0.0446179 -0.0141825 -0.0379591)
(0.0413979 -0.0124907 -0.0344891)
(0.0384473 -0.016379 -0.0443976)
(0.0290636 -0.0117243 -0.0404188)
(0.032046 -0.0156343 -0.0500602)
(0.0325895 -0.0121414 -0.0400146)
(0.0316017 -0.0151014 -0.0490992)
(0.0314945 -0.0180604 -0.0554843)
(-0.00696364 -0.0116176 -0.00397188)
(-0.0055133 -0.00777454 -0.00085862)
(-0.00463824 -0.00974793 -0.00264919)
(-0.00505249 -0.0127526 -0.00610045)
(-0.00451633 -0.0109185 -0.00445852)
(-0.00663325 -0.00818259 -0.0014014)
(-0.00141792 -0.00854189 -0.00361165)
(0.00119401 -0.0103505 -0.00484093)
(-1.38385e-05 -0.00785801 -0.00318845)
(-0.000626757 -0.0146302 -0.00847893)
(-0.00220083 -0.0120594 -0.00583407)
(0.000723177 -0.0127096 -0.00695388)
(0.0120276 -0.0189795 -0.039585)
(0.0111392 -0.0117844 -0.0377073)
(0.0128214 -0.0191565 -0.0451146)
(0.0108249 -0.0135652 -0.0412802)
(0.0109641 -0.0102458 -0.0379757)
(0.0109514 -0.0160253 -0.0376672)
(-0.00496199 0.00626598 0.00228829)
(-0.00330607 0.00486703 0.00246071)
(-0.00644215 0.00823172 0.00428425)
(-0.00620017 0.00733813 0.00380847)
(-0.00506379 0.00611173 0.00375744)
(-0.00401637 0.00524254 0.0018434)
(0.0049762 -0.000626147 -0.0100226)
(0.00179055 0.000483178 -0.00397491)
(2.75646e-05 0.00151054 -0.00151953)
(0.00386589 -1.99973e-05 -0.00722977)
(0.00417934 -0.000450797 -0.00824904)
(0.00207051 1.88464e-05 -0.00379267)
(0.00852442 -0.00528994 -0.0232767)
(0.00825334 -0.00347562 -0.0192773)
(0.00958907 -0.00625485 -0.0287311)
(0.00958096 -0.00495631 -0.0259837)
(0.00827148 -0.00277959 -0.0197345)
(0.00732426 -0.00245215 -0.016796)
(-0.01025 0.0096633 0.00711624)
(-0.00968545 0.00771162 0.00694877)
(-0.0103957 0.00860414 0.00727893)
(-0.010577 0.00907523 0.00755519)
(-0.00953263 0.00907899 0.00661047)
(-0.0105509 0.00779219 0.00755103)
(-0.00723102 0.00587373 0.005529)
(-0.00818752 0.00906153 0.00601386)
(-0.00739768 0.00791237 0.00571858)
(-0.00882288 0.00917568 0.00603203)
(-0.00907523 0.00851411 0.0064801)
(0.0192359 -0.011694 -0.0412652)
(0.0197107 -0.010107 -0.0362615)
(0.0239549 -0.0123388 -0.0426278)
(0.0175553 -0.011281 -0.0366219)
(0.0172415 -0.0121023 -0.0397309)
(0.0237554 -0.0118215 -0.0378868)
(0.011002 -0.0140859 -0.0426716)
(0.0125799 -0.0124545 -0.0399723)
(0.00995041 -0.013772 -0.0388411)
(0.00886944 -0.0148466 -0.0408622)
(0.014179 -0.0129326 -0.0431389)
(0.0150671 -0.012433 -0.0421413)
(0.00262778 -0.015024 -0.0335418)
(0.00520072 -0.0155609 -0.0362648)
(0.0011005 -0.0161802 -0.0314518)
(0.00436492 -0.016715 -0.0370441)
(0.000704735 -0.0182002 -0.0329677)
(0.00176289 -0.0180552 -0.0359327)
(0.000892878 -0.0143805 -0.0252763)
(0.0030496 -0.0140679 -0.0281622)
(-0.000533333 -0.0147465 -0.0285377)
(0.00270748 -0.0146384 -0.0309144)
(0.0041908 -0.0141382 -0.0298745)
(0.000192648 -0.0153577 -0.0261448)
(0.0157287 -0.0127134 -0.0343456)
(0.0156441 -0.0109758 -0.0351556)
(0.0174332 -0.010863 -0.0314053)
(0.0206287 -0.0127183 -0.032605)
(0.0158644 -0.0121986 -0.031138)
(0.019382 -0.012151 -0.0344821)
(0.0250547 -0.010521 -0.0318992)
(0.0253149 -0.0107932 -0.0359079)
(0.028116 -0.012283 -0.0351037)
(0.0286048 -0.012891 -0.0331588)
(0.0238482 -0.0119633 -0.0320149)
(0.0239913 -0.0121461 -0.0343615)
(0.0139744 -0.0122537 -0.0175452)
(0.0136786 -0.0128412 -0.0152756)
(0.0132707 -0.0125964 -0.0159983)
(0.0136822 -0.0123261 -0.017697)
(0.01509 -0.0134322 -0.016972)
(0.0147441 -0.0136853 -0.0156619)
(0.0197429 -0.0136842 -0.0230244)
(0.0191045 -0.0116558 -0.0228762)
(0.0185935 -0.0122663 -0.0239874)
(0.0178732 -0.0126334 -0.0230851)
(0.0171264 -0.0119266 -0.0234817)
(0.0196505 -0.0130644 -0.0228545)
(-0.00627655 -0.0138445 -0.00993427)
(-0.00558388 -0.0128936 -0.00799435)
(-0.00500009 -0.0149782 -0.0132672)
(-0.00449196 -0.0135665 -0.0125488)
(-0.00417761 -0.0136736 -0.0111848)
(-0.00521255 -0.0151545 -0.0104794)
(-0.00156034 -0.0157223 -0.0225196)
(-0.00226916 -0.0148713 -0.019944)
(-0.00500515 -0.0155073 -0.0180393)
(-0.00237328 -0.0160632 -0.0218809)
(-0.00459584 -0.0160693 -0.0197878)
(-0.00266875 -0.0150685 -0.0174616)
(-0.00487475 -0.0194201 -0.0231762)
(-0.00418694 -0.0161153 -0.0233691)
(-0.00318088 -0.0197874 -0.0253084)
(-0.00479307 -0.0162267 -0.0203619)
(-0.00117646 -0.017046 -0.0260978)
(-0.00189783 -0.0182589 -0.0265672)
(0.00800152 -0.0118114 -0.0208903)
(0.00663551 -0.0119972 -0.0195438)
(0.00717832 -0.0110175 -0.0197126)
(0.00609103 -0.0119841 -0.0212189)
(0.00882861 -0.0118299 -0.0203151)
(0.00607692 -0.012616 -0.0205471)
(0.00153489 -0.0124819 -0.0180179)
(0.00352956 -0.0119305 -0.0203924)
(0.00309709 -0.0122171 -0.0206379)
(0.00192651 -0.0128817 -0.0197072)
(0.00200176 -0.0121868 -0.0177781)
(0.00352511 -0.0122374 -0.0190026)
(0.00338666 -0.0127612 -0.0218985)
(0.00352426 -0.0120267 -0.0230945)
(0.00095155 -0.0134324 -0.0228666)
(0.00283452 -0.0125545 -0.0243109)
(-0.000301968 -0.0135718 -0.0216442)
(0.00105322 -0.0137978 -0.0220086)
(0.00802112 -0.0127296 -0.0294869)
(0.0078497 -0.0111868 -0.0262739)
(0.0104818 -0.0122791 -0.0309644)
(0.00599866 -0.0114401 -0.0262989)
(0.00649348 -0.0127204 -0.0284412)
(0.0100045 -0.0105387 -0.0263322)
(0.0108456 -0.011334 -0.0287148)
(-7.43796e-05 -0.0138793 -0.0115797)
(-0.000656183 -0.0146245 -0.0105999)
(-0.000105798 -0.0142261 -0.00984281)
(0.000752792 -0.014424 -0.0118118)
(0.000318875 -0.0142484 -0.0124022)
(0.000188338 -0.0146645 -0.0105828)
(0.00152422 -0.0145199 -0.0167427)
(4.52503e-05 -0.014107 -0.0141523)
(-0.000784329 -0.0146387 -0.0154568)
(3.70969e-05 -0.0133603 -0.0158188)
(0.000480627 -0.0137377 -0.0144316)
(0.0012232 -0.0143359 -0.0172733)
(-0.00250586 -0.0146782 -0.0130175)
(-0.00202492 -0.0122918 -0.00826312)
(-0.00122492 -0.0141494 -0.0120272)
(-0.00317909 -0.0154947 -0.0126772)
(-0.00107029 -0.0145424 -0.0104639)
(-0.00396087 -0.0128591 -0.00926854)
(-0.00218106 -0.0142528 -0.0147802)
(-0.00290798 -0.0138227 -0.0157711)
(-0.000383422 -0.0135862 -0.0181715)
(-0.00116911 -0.0146604 -0.0157591)
(-0.00127026 -0.0135376 -0.0176629)
(-0.000153064 -0.0137124 -0.0168968)
(0.0263016 0.0030961 -0.0106063)
(0.0256275 0.00353827 -0.00831389)
(0.0248822 0.00197353 -0.00925042)
(0.023913 0.00369213 -0.00785954)
(0.0248913 0.00287795 -0.0119711)
(0.0293225 0.00460795 -0.014295)
(0.0124083 -0.0315607 -0.061276)
(0.0222738 -0.0325579 -0.0629806)
(0.0250082 -0.0260535 -0.0575389)
(0.0321293 -0.0238538 -0.0624399)
(0.0301573 -0.0240161 -0.062329)
(0.0234265 -0.0289384 -0.0668802)
(0.0260333 -0.0179985 -0.0559771)
(0.024368 -0.0226546 -0.0650661)
(0.0219758 -0.0286233 -0.0705665)
(0.0540232 -0.023391 -0.0273891)
(0.0508197 -0.0164473 -0.0238317)
(0.0532788 -0.0179977 -0.0279044)
(0.0471449 -0.0116537 -0.0218535)
(0.0496007 -0.00854719 -0.0239886)
(0.04971 -0.0111893 -0.026283)
(0.0287005 0.00118386 -0.00491268)
(0.0335176 -0.00240261 -0.00771193)
(0.0313037 0.00457081 -0.00972135)
(0.0294522 -0.00356385 -0.00568248)
(0.030137 0.00529199 -0.00741572)
(0.0368846 -0.000310955 -0.0111689)
(0.0294837 -0.0386676 -0.0376722)
(0.0261417 -0.0371599 -0.038654)
(0.0305822 -0.0420126 -0.0399879)
(0.0270442 -0.040685 -0.040869)
(0.030109 -0.0389007 -0.0361656)
(0.0252197 -0.038651 -0.0421039)
(0.0408745 -0.0469256 -0.0367548)
(0.0454929 -0.0441668 -0.0321326)
(0.0404585 -0.0443412 -0.0353099)
(0.0475488 -0.0424676 -0.0319631)
(0.0426542 -0.0467329 -0.0350095)
(0.04269 -0.0433366 -0.0336395)
(0.0192406 -0.00704534 -0.00186213)
(0.0172059 -0.00642516 -0.000897043)
(0.0225953 -0.00556209 -0.00208389)
(0.021576 -0.000374758 -0.00123432)
(0.0187502 0.00101885 -0.000807878)
(0.0175165 -0.0018989 4.2339e-05)
(0.037884 -0.0105485 -0.0398219)
(0.0380483 -0.0154946 -0.0358712)
(0.0382376 -0.0145089 -0.0325412)
(0.0348224 -0.0131349 -0.0356717)
(0.0373675 -0.00991275 -0.0375834)
(0.0435104 -0.0144561 -0.0380909)
(0.0406896 -0.00747912 -0.0375355)
(0.0437763 -0.00618455 -0.0376539)
(0.046284 -0.0107093 -0.0400888)
(0.04562 -0.00925361 -0.0382221)
(0.043363 -0.0111945 -0.0410077)
(0.0404242 -0.00899516 -0.0402321)
(0.0385608 -0.0105063 -0.0447102)
(0.0402032 -0.00827087 -0.0413733)
(0.0469896 -0.0107555 -0.0285053)
(0.0464074 -0.012476 -0.0317638)
(0.0511995 -0.0147294 -0.0325174)
(0.0508358 -0.017352 -0.0308436)
(0.0480701 -0.00639877 -0.0322559)
(0.0490889 -0.00843625 -0.0351743)
(0.0532076 -0.0329512 -0.0315458)
(0.0487934 -0.0253416 -0.0258717)
(0.0514429 -0.0327086 -0.0319068)
(0.0509692 -0.0254283 -0.0304124)
(0.0534096 -0.0323815 -0.0316189)
(0.0499967 -0.0232507 -0.0283787)
(0.0299104 -0.0330655 -0.0273739)
(0.0243561 -0.0267101 -0.0213382)
(0.0286385 -0.0290906 -0.024061)
(0.0254135 -0.0306547 -0.0239837)
(0.0267946 -0.0316135 -0.0256168)
(0.0278182 -0.0313787 -0.0252727)
(0.0265984 -0.0326449 -0.0291321)
(0.027455 -0.0351506 -0.0317826)
(0.0307903 -0.034241 -0.0291863)
(0.0324181 -0.038435 -0.0329631)
(0.0316847 -0.0374622 -0.0330294)
(0.03023 -0.0339298 -0.0296412)
(0.0342232 -0.0397017 -0.0342052)
(0.0397393 -0.0443261 -0.0349531)
(0.0358279 -0.041312 -0.035747)
(0.0350063 -0.0375109 -0.0311196)
(0.038944 -0.0380673 -0.0301925)
(0.0391667 -0.0416986 -0.034059)
(0.0405295 -0.0327934 -0.0280071)
(0.0431083 -0.0299551 -0.0288753)
(0.0430957 -0.0312578 -0.0273068)
(0.0416789 -0.0320177 -0.0279876)
(0.043581 -0.0340895 -0.0296814)
(0.0433796 -0.027607 -0.027665)
(0.026609 -0.010378 -0.0515949)
(0.0310682 -0.0100991 -0.0477059)
(0.03027 -0.0105887 -0.0488799)
(0.0273874 -0.0095077 -0.0483519)
(0.0258438 -0.0136972 -0.0510163)
(0.026063 -0.0122614 -0.0488302)
(0.0195282 -0.015688 -0.0518403)
(0.0207204 -0.0138524 -0.0506624)
(0.0273201 -0.0186247 -0.054986)
(0.0190793 -0.0163317 -0.0520735)
(0.0231485 -0.0120388 -0.0520572)
(0.0228322 -0.0098103 -0.0430914)
(0.0230584 -0.0113156 -0.0469645)
(0.0197171 -0.011236 -0.046098)
(0.0259841 -0.0101468 -0.0429186)
(0.0261543 -0.010125 -0.046708)
(0.0201869 -0.0105427 -0.0448447)
(0.0332124 -0.00588489 -0.0407976)
(0.0354928 -0.00614995 -0.0410016)
(0.0361013 -0.00400373 -0.0387142)
(0.0338664 -0.00421042 -0.0385916)
(0.0344557 -0.00344338 -0.0360621)
(0.0364513 -0.000260981 -0.035207)
(0.00149475 -0.0140216 -0.0140545)
(0.00183925 -0.0141138 -0.0133268)
(0.00243025 -0.0145567 -0.0141057)
(0.00288924 -0.0139071 -0.0147252)
(0.00206549 -0.0131927 -0.0146316)
(0.00240445 -0.0137245 -0.0154642)
(0.0292282 -0.00207091 -0.025351)
(0.0312514 -0.00317443 -0.028426)
(0.0316171 -0.00576231 -0.0317688)
(0.0347054 -0.00541291 -0.0342877)
(0.0320496 -0.00170592 -0.0316909)
(0.0328992 -0.00178672 -0.0281236)
(0.00068884 -0.0260535 -0.033915)
(0.00326621 -0.0268802 -0.0443516)
(0.00369961 -0.0247899 -0.0431363)
(-0.000179266 -0.0255873 -0.0355407)
(0.00248036 -0.0259531 -0.0407869)
(0.0014918 -0.0270145 -0.039058)
(0.0104909 -0.0333024 -0.0481972)
(0.00880553 -0.0306473 -0.0504551)
(0.0132706 -0.0335099 -0.055523)
(0.0129255 -0.0299361 -0.0518989)
(0.00931498 -0.0357981 -0.0456518)
(0.00895431 -0.0348407 -0.0469513)
(-0.00146714 -0.0193209 -0.0296895)
(-0.00138197 -0.0193443 -0.0332577)
(-0.00378954 -0.0206152 -0.0263603)
(-0.00084733 -0.0219894 -0.0302353)
(-0.00358019 -0.0193552 -0.0263506)
(-0.000534962 -0.0220101 -0.0347711)
(0.00186552 -0.0156899 -0.01144)
(0.00243091 -0.0145914 -0.012252)
(0.00181759 -0.0150033 -0.0121823)
(0.00174832 -0.0155093 -0.0108518)
(0.0416666 -0.0491642 -0.0358355)
(0.0346901 -0.0496759 -0.0395884)
(0.0391393 -0.0504847 -0.0405118)
(0.0381388 -0.0517073 -0.0443749)
(0.0340994 -0.053247 -0.0476059)
(0.0442357 -0.0475601 -0.0350874)
(-0.00806467 0.00925723 0.00499093)
(-0.00859623 0.00944429 0.00536018)
(-0.00971251 0.00891403 0.00622058)
(-0.00909282 0.0091366 0.00558755)
(-0.00730975 0.00749438 0.0043763)
(0.00719914 -0.00202859 -0.0108489)
(0.00665675 -0.00183921 -0.0086814)
(0.00403466 -0.000382144 -0.00613591)
(0.00844689 -0.00261247 -0.0149221)
(0.00991827 -0.00326477 -0.01424)
(0.00383745 -0.000323526 -0.00640333)
(-0.00492067 0.00431359 0.00207991)
(-0.003329 0.00434376 0.00133674)
(-0.000910765 0.000932215 0.00052427)
(-0.00440331 0.00161148 0.00204549)
(-0.00607715 0.00431081 0.00124761)
(-0.00585093 0.00503911 0.00314598)
(0.00679437 -0.00246436 -0.00413629)
(0.00355416 -0.000982585 -0.00217395)
(0.00572189 -0.00522999 -0.00452781)
(0.00603432 -0.00416857 -0.00772914)
(0.00854155 -0.00718554 -0.00807932)
(0.00339425 -0.00378759 -0.00271294)
(0.00827312 -0.00543263 -0.010447)
(0.00429841 -0.00323258 -0.00434245)
(0.00462847 -0.011928 -0.00124322)
(0.00548691 -0.0119956 -0.00165659)
(0.00434922 -0.0100936 -0.00044644)
(0.00131126 -0.00800698 0.000297611)
(0.00371766 -0.0105869 -0.00145225)
(0.00581462 -0.0111134 -0.00154519)
(0.00965397 -0.00929071 -0.00828398)
(0.00800902 -0.00855109 -0.00607663)
(0.00787811 -0.0100154 -0.00421214)
(0.00956216 -0.010706 -0.00665634)
(0.0070264 -0.00840577 -0.00403723)
(0.00617114 -0.00904507 -0.00264392)
(0.0194531 -0.0187327 -0.0158977)
(0.0210471 -0.0219786 -0.018239)
(0.0197299 -0.0221367 -0.0171549)
(0.0205508 -0.0217477 -0.0175441)
(0.0190875 -0.0215584 -0.0159276)
(0.0201457 -0.0197845 -0.0173395)
(0.0168449 -0.0175933 -0.0147728)
(0.0172118 -0.017779 -0.0149219)
(0.0151008 -0.0201182 -0.0139262)
(0.0161196 -0.0200765 -0.0147397)
(0.0134487 -0.0181245 -0.0195487)
(0.0140774 -0.0179058 -0.0206564)
(0.0137597 -0.0171447 -0.020236)
(0.0139367 -0.0177679 -0.0201129)
(0.0137818 -0.0183763 -0.0202522)
(0.0144312 -0.0185474 -0.0191323)
(0.0136124 -0.0187862 -0.0190582)
(0.0144675 -0.0194732 -0.0193091)
(0.01462 -0.0191541 -0.0197955)
(0.0136684 -0.0189594 -0.0181637)
(0.0145029 -0.0205372 -0.0203893)
(0.0137084 -0.0193729 -0.018543)
(0.0201903 -0.0269654 -0.0272902)
(0.0207386 -0.0270396 -0.0285439)
(0.0187255 -0.0239521 -0.0242058)
(0.0168604 -0.0238532 -0.0261571)
(0.0176472 -0.0247805 -0.0276414)
(0.0190658 -0.0247397 -0.0241373)
(-0.00482391 -0.015625 -0.010918)
(0.0191191 -0.0242151 -0.0186103)
(0.0167586 -0.0176366 -0.0141393)
(0.0196827 -0.0205985 -0.0172275)
(0.0157366 -0.0198485 -0.0146734)
(0.0204086 -0.0215331 -0.0176449)
(0.0171099 -0.0213745 -0.0160471)
(0.0161824 -0.0181396 -0.0143548)
(0.0162123 -0.0197614 -0.0152799)
(0.0158558 -0.0203511 -0.0151685)
(0.0174529 -0.0234573 -0.0173287)
(0.00908558 -0.00805748 -0.00860524)
(-0.00314585 0.00136826 0.00311021)
(0.00209932 -0.00143846 -0.0020754)
(-0.000742664 -0.000191465 0.00129791)
(0.0112427 -0.00369027 -0.0148476)
(-0.0076065 0.00811774 0.00444008)
(-0.00962004 0.00843501 0.00640843)
(-0.00694626 0.00726247 0.00397957)
(-0.00182128 0.00324319 3.85896e-05)
(-0.00549454 0.00503111 0.00288859)
(0.00103356 0.00107824 -0.00238685)
(-0.00495761 0.00514318 0.00298113)
(0.0123759 -0.00410633 -0.0116912)
(0.00557267 -0.00130028 -0.00503238)
(0.00973781 -0.0026801 -0.0116742)
(0.00653433 -0.00130731 -0.00772682)
(0.0238981 -0.0179565 -0.00756986)
(0.0286041 -0.0131837 -0.00516384)
(0.024658 -0.0258865 -0.0117321)
(0.0154877 -0.0442219 -0.0401653)
(0.0199659 -0.0313173 -0.0195606)
(0.0206933 -0.0279399 -0.0132541)
(0.0157 -0.0378463 -0.026347)
(0.0230688 -0.0480906 -0.0421031)
(0.0177123 -0.050022 -0.0530149)
(0.0227379 -0.0492785 -0.0490867)
(0.0261042 -0.0526424 -0.0598314)
(0.0206255 -0.0484922 -0.0582327)
(0.0436587 -0.035931 -0.0234871)
(0.0313012 -0.0209897 -0.0101659)
(0.0386446 -0.0262645 -0.0152053)
(0.0425918 -0.0344926 -0.0208741)
(0.0360105 -0.0257688 -0.0135496)
(0.0320677 -0.0131555 -0.00741995)
(0.0358143 -0.0190277 -0.0104763)
(0.0318045 -0.0526005 -0.0521378)
(0.0277334 -0.0505807 -0.0508462)
(0.0467817 -0.0441199 -0.0291488)
(0.0469136 -0.0447562 -0.0309655)
(0.0432076 -0.0425345 -0.0308283)
(0.0313976 -0.0136492 -0.0519256)
(0.0283228 -0.0134004 -0.0523082)
(0.0346596 -0.00785307 -0.0442983)
(0.0354896 -0.00638827 -0.0452307)
(0.0305459 -0.00943215 -0.0483573)
(0.0317936 -0.00912645 -0.0473637)
(-0.00555082 -0.0193373 -0.0152782)
(-0.00450076 -0.0205851 -0.0177177)
(-0.00262209 -0.023081 -0.0238186)
(-0.00442851 -0.0194302 -0.0192877)
(-0.00473343 -0.0197885 -0.0224882)
(0.021266 -0.0386203 -0.0305632)
(0.0165979 -0.0365463 -0.0302595)
(0.014361 -0.0241344 -0.0521253)
(0.0135202 -0.0355076 -0.0357245)
(0.019728 -0.0270278 -0.0573415)
(0.0150286 -0.028034 -0.0573708)
(0.0101391 -0.0372338 -0.0393563)
(0.00895811 -0.0343973 -0.0346988)
(0.00452335 -0.0319681 -0.0417068)
(0.00602687 -0.0298333 -0.0331754)
(0.00310628 -0.0256621 -0.0269733)
(0.00874907 -0.0274537 -0.0473183)
(0.00882034 -0.0238135 -0.0492978)
(0.00262226 -0.0235788 -0.0391003)
(-0.000165034 -0.0254489 -0.0278236)
(-0.00025529 -0.0248832 -0.0320905)
(0.000306639 -0.024778 -0.0283208)
(-7.48652e-05 -0.0242659 -0.0245833)
(0.033279 -0.00788075 -0.0391095)
(0.0317258 -0.00452385 -0.0369921)
(0.0325612 -0.000654429 -0.0294856)
(0.00976347 -0.0108677 -0.0165608)
(0.00394836 -0.0136747 -0.0167638)
(0.00316296 -0.0129524 -0.0158496)
(0.00392845 -0.0135505 -0.0159546)
(0.00248622 -0.0143597 -0.0133689)
(0.00354356 -0.0137374 -0.0148544)
(0.0302003 -0.0164127 -0.0519516)
(0.0315207 -0.000665696 -0.0251527)
(0.0331861 -0.00032036 -0.026074)
(0.0328878 0.00185703 -0.0253907)
(0.0373105 0.00133213 -0.0271031)
(0.0315678 -0.00983564 -0.0423017)
(0.0282405 -0.00913547 -0.0420661)
(0.00362498 -0.021004 -0.0405734)
(0.0118289 -0.0212875 -0.0503024)
(0.00858467 -0.0222871 -0.0484404)
(0.00884508 -0.019549 -0.0462166)
(0.0131419 -0.0201368 -0.048593)
(0.00745978 -0.0241534 -0.0459678)
(0.00750946 -0.0212927 -0.0431924)
(0.0168019 -0.0174268 -0.0516361)
(0.0136954 -0.018949 -0.0514513)
(0.0145016 -0.0204723 -0.0523637)
(0.0242541 -0.020615 -0.0564739)
(0.028697 -0.0179647 -0.0553419)
(0.0258208 -0.0170552 -0.0537284)
(0.0216159 -0.0215043 -0.0533696)
(0.0219174 -0.0237596 -0.0588925)
(0.0316805 -0.00732166 -0.0448787)
(0.0343027 -0.00948988 -0.0454197)
(0.032243 -0.0100576 -0.0461624)
(0.0287591 -0.0100379 -0.0465898)
(0.0218767 -0.0118688 -0.0480085)
(0.0228326 -0.0141922 -0.0520947)
(0.0265911 -0.0127063 -0.0518383)
(0.0371285 -0.00443115 -0.038404)
(0.040388 -0.00270936 -0.0381847)
(0.0362168 0.00108836 -0.0293539)
(0.0408366 -0.00368284 -0.0318736)
(0.0406139 -0.00286561 -0.0295294)
(0.0415831 -0.00222303 -0.0367706)
(0.0378228 -0.00199925 -0.0316657)
(0.0330648 -0.00638203 -0.0437426)
(0.0334935 -0.00919099 -0.0477102)
(0.0309391 -0.012118 -0.0488991)
(0.0294234 -0.0124881 -0.0491914)
(0.0316109 -0.00942343 -0.0467659)
(0.0328546 -0.0123948 -0.0460909)
(0.0332631 -0.00823145 -0.0434016)
(0.0302224 -0.00811335 -0.0411931)
(0.0438064 -0.0370125 -0.0296087)
(0.0420654 -0.0437872 -0.0341361)
(0.0327515 -0.0389912 -0.0350181)
(0.0382553 -0.0267788 -0.0257879)
(0.036559 -0.0282562 -0.0265915)
(0.0281462 -0.029933 -0.0251819)
(0.0460534 -0.03338 -0.029071)
(0.0432521 -0.0328588 -0.0266178)
(0.0433824 -0.00371048 -0.0319303)
(0.0411333 -0.00324404 -0.0288652)
(0.0547261 -0.0193352 -0.0300582)
(0.0389591 -0.0291035 -0.0277007)
(0.0396214 -0.019772 -0.0293039)
(0.0433219 -0.0279079 -0.0302848)
(0.0416033 -0.0210885 -0.0294406)
(0.0419132 -0.0229795 -0.0277286)
(0.0355429 -0.00470202 -0.0407514)
(0.0402921 -0.00733426 -0.0427357)
(0.0416375 -0.00699679 -0.0393308)
(0.0407925 -0.00334821 -0.0371832)
(0.0432695 -0.00481608 -0.0354985)
(0.0456977 -0.00863423 -0.035048)
(0.0338374 -0.0101283 -0.0396745)
(0.0331402 -0.00905079 -0.0396102)
(0.0142724 -0.00237522 0.000162946)
(0.0168197 -0.0245223 -0.0117996)
(0.0273604 -0.0473968 -0.0496131)
(0.0387318 -0.0110909 -0.0109149)
(0.0279889 -0.00568301 -0.00385838)
(0.0261778 -0.00772497 -0.0036637)
(0.0416561 -0.0207912 -0.0151953)
(0.0425164 -0.0145639 -0.0134214)
(0.0432852 -0.00843652 -0.0148356)
(0.0484709 -0.0338816 -0.0244676)
(0.0459141 -0.0260406 -0.0191309)
(0.0447477 -0.0117165 -0.0170368)
(0.0485829 -0.0178618 -0.0199548)
(0.051369 -0.0252715 -0.0238537)
(0.0465016 -0.00634044 -0.0261556)
(0.0248515 -0.0490186 -0.059384)
(0.0221817 -0.0499605 -0.0675407)
(0.0169948 -0.0480995 -0.0586141)
(0.00819541 -0.0180102 -0.00822947)
(0.0128579 -0.0439861 -0.0580318)
(0.0110061 -0.0442403 -0.0490442)
(0.0134909 -0.0294539 -0.0159698)
(0.00791542 -0.033169 -0.0255509)
(0.00639876 -0.0236075 -0.0145074)
(0.0145897 -0.0421339 -0.0634586)
(0.0162432 -0.0388213 -0.0698903)
(0.0199394 -0.0316507 -0.0662442)
(0.01199 -0.0383557 -0.0604124)
(0.046055 -0.010159 -0.0203794)
(0.0243178 0.00319246 -0.00318329)
(0.0249386 0.00519685 -0.00751086)
(0.0407729 -0.00453866 -0.0182535)
(0.0378585 -0.00282464 -0.0131763)
(0.0396728 0.00206349 -0.0154721)
(0.0335794 0.00134773 -0.0226463)
(0.0312614 0.00472002 -0.0124195)
(0.0304001 0.00378808 -0.0169404)
(0.0344665 0.00240867 -0.0166153)
(0.0347314 0.000977625 -0.0170019)
(0.0315236 0.00398353 -0.0174371)
(0.0341106 0.00375237 -0.021094)
(0.0494294 -0.00483861 -0.0284071)
(0.0435806 -0.00256354 -0.0253066)
(0.0455573 -0.00310694 -0.0249813)