/*--------------------------------*- C++ -*----------------------------------*\
| =========                 |                                                 |
| \\      /  F ield         | OpenFOAM: The Open Source CFD Toolbox           |
|  \\    /   O peration     | Version:  v1612+                                |
|   \\  /    A nd           | Web:      www.OpenFOAM.com                      |
|    \\/     M anipulation  |                                                 |
\*---------------------------------------------------------------------------*/
FoamFile
{
    version     2.0;
    format      ascii;
    class       volVectorField;
    location    "50";
    object      wallShearStress;
}
// * * * * * * * * * * * * * * * * * * * * * * * * * * * * * * * * * * * * * //

dimensions      [0 2 -2 0 0 0 0];

internalField   uniform (0 0 0);

boundaryField
{
    WALL
    {
        type            calculated;
        value           nonuniform List<vector> 
1662
(
(-0.00649567 -0.00941638 0.00279602)
(-0.00641547 -0.00933349 0.00274253)
(-0.00744599 -0.0105593 0.00325656)
(-0.006803 -0.0100258 0.00299978)
(-0.00662423 -0.00923492 0.00260278)
(-0.00657425 -0.00992322 0.00323078)
(-0.00600623 -0.00931546 0.00318331)
(-0.0066784 -0.0097565 0.00293228)
(-0.00647777 -0.00899183 0.00256049)
(-0.00656635 -0.00964678 0.00293522)
(-0.00665189 -0.00949764 0.00266266)
(-0.00686147 -0.00925129 0.0028509)
(-0.00651957 -0.00922446 0.00273703)
(-0.00667383 -0.00991443 0.00318727)
(-0.00603719 -0.00985612 0.0033091)
(-0.00680998 -0.010071 0.00327199)
(-0.00660987 -0.00983132 0.00321359)
(-0.0059061 -0.0086596 0.00259002)
(-0.00590127 -0.00934723 0.00308488)
(-0.00603658 -0.00935468 0.00316814)
(-0.0066385 -0.0103493 0.00359153)
(-0.0064221 -0.009618 0.00312907)
(-0.00663662 -0.00960975 0.00279018)
(-0.00659486 -0.00983654 0.00292681)
(-0.0067043 -0.0100809 0.00306479)
(-0.00662379 -0.00941457 0.00258044)
(-0.00635902 -0.00960335 0.0031588)
(-0.00693547 -0.0106265 0.00304959)
(-0.0069333 -0.009286 0.00277104)
(-0.00642487 -0.00954177 0.00291433)
(-0.00663385 -0.00980718 0.00278987)
(-0.00650304 -0.010546 0.00252887)
(-0.00671911 -0.0102846 0.00304482)
(-0.00662952 -0.0091848 0.00285668)
(-0.0066937 -0.00914227 0.00274813)
(-0.00674216 -0.00974053 0.00300662)
(-0.0069708 -0.00962029 0.00277074)
(-0.00645384 -0.00935762 0.00259497)
(-0.00643319 -0.00890331 0.00253991)
(-0.00650919 -0.0098671 0.00301384)
(-0.00693189 -0.0103621 0.00307564)
(-0.00624852 -0.00953069 0.00282961)
(-0.00650234 -0.00967826 0.00287739)
(-0.00688238 -0.0100427 0.00299194)
(-0.00633228 -0.00916275 0.00275233)
(-0.00689062 -0.0101662 0.0035155)
(-0.00697485 -0.0104247 0.00306613)
(-0.00633717 -0.00899107 0.00259863)
(-0.00616617 -0.00942177 0.00295678)
(-0.00645901 -0.0093674 0.00319688)
(-0.00653274 -0.00967343 0.00288777)
(-0.00684708 -0.0096187 0.00309514)
(-0.00631232 -0.00933077 0.0028501)
(-0.00770954 -0.0104177 0.00325603)
(-0.00801966 -0.0110524 0.00328005)
(-0.00669248 -0.00980269 0.00290996)
(-0.00684669 -0.00999343 0.00293764)
(-0.00615084 -0.00932 0.0029644)
(-0.00662405 -0.00990913 0.00319103)
(-0.00620509 -0.00913638 0.00266825)
(-0.00642555 -0.00931822 0.002768)
(-0.00650968 -0.00979122 0.00304984)
(-0.0068422 -0.00950856 0.00329809)
(-0.00665348 -0.00931945 0.00297929)
(-0.0071594 -0.00980306 0.00339888)
(-0.0067483 -0.00937095 0.00318207)
(-0.00673056 -0.0101488 0.00292765)
(-0.00649313 -0.00959348 0.00309056)
(-0.00661373 -0.00998309 0.00316236)
(-0.00706169 -0.0102828 0.00308983)
(-0.00652981 -0.00973872 0.00314971)
(-0.00678306 -0.0103778 0.00317377)
(-0.00649659 -0.00984437 0.00298685)
(-0.0054937 -0.00830948 0.00274794)
(-0.00638596 -0.00960109 0.00292128)
(-0.00610829 -0.00918873 0.00257319)
(-0.00617974 -0.00919749 0.00317094)
(-0.00592373 -0.00907228 0.00283857)
(-0.00607022 -0.00898862 0.00285494)
(-0.00610689 -0.00901111 0.00284045)
(-0.00651653 -0.00974756 0.0028558)
(-0.0062217 -0.00940709 0.00301009)
(-0.00626473 -0.00929785 0.00280564)
(-0.00605381 -0.00901714 0.00291295)
(-0.00606401 -0.00893421 0.00279331)
(-0.00585275 -0.0086688 0.00286682)
(-0.00623573 -0.00925503 0.00254037)
(-0.00664072 -0.00947937 0.00241225)
(-0.00655051 -0.00940548 0.00278702)
(-0.00627034 -0.00907318 0.00245813)
(-0.00571234 -0.00902149 0.00276356)
(-0.00617864 -0.00962738 0.00310451)
(-0.00614147 -0.00850597 0.00256642)
(-0.0070864 -0.00934338 0.00269295)
(-0.00639321 -0.00932186 0.00302033)
(-0.00598064 -0.008549 0.00254523)
(-0.00651852 -0.00974116 0.00308077)
(-0.00680875 -0.0100155 0.00303684)
(-0.00632019 -0.00942613 0.003251)
(-0.00653154 -0.00968757 0.00306295)
(-0.00626646 -0.00950952 0.00312717)
(-0.00649453 -0.00969247 0.00325185)
(-0.00690582 -0.0100364 0.00310894)
(-0.00672885 -0.00982113 0.0030746)
(-0.00680633 -0.00998437 0.00324059)
(-0.00658589 -0.00898073 0.0026747)
(-0.00649392 -0.00947104 0.00288198)
(-0.00691944 -0.0095097 0.00282187)
(-0.00671079 -0.00896751 0.00274694)
(-0.00707671 -0.00984484 0.00288123)
(-0.00676261 -0.0101956 0.00274164)
(-0.00679529 -0.0102582 0.00293144)
(-0.00622423 -0.0100165 0.0022694)
(-0.0061503 -0.00931924 0.00266199)
(-0.00670004 -0.0100482 0.00294348)
(-0.00675074 -0.0103217 0.00291827)
(-0.00652136 -0.00944194 0.00292026)
(-0.00649782 -0.00927907 0.00287981)
(-0.00652568 -0.00990961 0.00319872)
(-0.00688746 -0.0101104 0.00334894)
(-0.00665215 -0.00981995 0.00321397)
(-0.00639654 -0.00958433 0.00278527)
(-0.00674695 -0.010161 0.00287474)
(-0.00680132 -0.0102395 0.00323808)
(-0.00644021 -0.0104182 0.00274666)
(-0.00652992 -0.00997721 0.00264549)
(-0.0062629 -0.00956622 0.00294121)
(-0.00651153 -0.00973125 0.00279199)
(-0.00655533 -0.00964368 0.00293441)
(-0.00635113 -0.00966778 0.00291507)
(-0.00606359 -0.0091727 0.0027594)
(-0.00676975 -0.00990877 0.00309714)
(-0.00645526 -0.00961818 0.00298229)
(-0.00608239 -0.00912618 0.00258763)
(-0.00659216 -0.00991835 0.00305296)
(-0.00667683 -0.00982177 0.00304153)
(-0.0075902 -0.0104888 0.0034819)
(-0.0068584 -0.00968941 0.00310674)
(-0.00706521 -0.0105568 0.00300935)
(-0.00744738 -0.0100623 0.00335266)
(-0.006632 -0.0095545 0.00307327)
(-0.00664316 -0.00959265 0.00321868)
(-0.00681964 -0.0097361 0.00340623)
(-0.00687153 -0.0103815 0.00325193)
(-0.00644011 -0.00935478 0.00311195)
(-0.006776 -0.0100278 0.0030791)
(-0.00664641 -0.0101479 0.00261587)
(-0.00643377 -0.00981896 0.00307683)
(-0.00650181 -0.00968611 0.002937)
(-0.0065914 -0.00979065 0.0026842)
(-0.00635267 -0.00950879 0.00305928)
(-0.00629955 -0.00951568 0.00305898)
(-0.00686425 -0.0100287 0.00344347)
(-0.00686003 -0.0103196 0.00320463)
(-0.00714855 -0.010389 0.00348399)
(-0.00727668 -0.0101705 0.00351362)
(-0.00634103 -0.00912374 0.0030384)
(-0.00709307 -0.010379 0.00316212)
(-0.00712837 -0.00984365 0.00331378)
(-0.00685467 -0.00977055 0.00311282)
(-0.00683279 -0.00990665 0.00315307)
(-0.00705232 -0.0100034 0.00315651)
(-0.00691115 -0.0100455 0.00316443)
(-0.007037 -0.0101442 0.00317071)
(-0.00692143 -0.00954366 0.003157)
(-0.00684651 -0.00973045 0.00310585)
(-0.00685963 -0.00975675 0.00313673)
(-0.00674853 -0.00938408 0.00291914)
(-0.00678329 -0.00943449 0.00304236)
(-0.00657466 -0.00919662 0.00288047)
(-0.00658728 -0.00971374 0.00300491)
(-0.00651367 -0.00965368 0.0031125)
(-0.00654056 -0.00933665 0.00305695)
(-0.00661478 -0.00921693 0.00310462)
(-0.0066059 -0.00968447 0.00305245)
(-0.00661699 -0.00954736 0.00308071)
(-0.00617039 -0.00909602 0.00283194)
(-0.00634413 -0.00841749 0.0026081)
(-0.00654718 -0.00912809 0.00270281)
(-0.00713895 -0.0093986 0.00301443)
(-0.00679362 -0.0100803 0.00305338)
(-0.0070841 -0.0103182 0.00335344)
(-0.00691553 -0.0101482 0.0029976)
(-0.00676976 -0.0103019 0.00271231)
(-0.00685042 -0.0101867 0.00279137)
(-0.00632832 -0.009516 0.00302384)
(-0.00649021 -0.00938627 0.00304756)
(-0.00644091 -0.00972182 0.0029343)
(-0.00635146 -0.00982611 0.00298351)
(-0.00596943 -0.00947084 0.00302922)
(-0.00618847 -0.009198 0.00286207)
(-0.00667622 -0.00974738 0.00276913)
(-0.00678951 -0.00970607 0.00289193)
(-0.00675056 -0.00985231 0.0029376)
(-0.0067849 -0.0098855 0.00287807)
(-0.00700031 -0.0101334 0.00313133)
(-0.00671064 -0.00984669 0.00287219)
(-0.00638406 -0.00943035 0.00314495)
(-0.0065675 -0.00992233 0.00306686)
(-0.00690608 -0.00995982 0.00280104)
(-0.00657463 -0.00965063 0.00314743)
(-0.00657605 -0.00964972 0.0031561)
(-0.00639389 -0.00960951 0.00269138)
(-0.00642624 -0.00944233 0.00307182)
(-0.00681109 -0.00989763 0.00345983)
(-0.00657998 -0.00946247 0.00323844)
(-0.00645506 -0.00948856 0.00293675)
(-0.00636496 -0.00991412 0.00282574)
(-0.00671964 -0.0094917 0.00306153)
(-0.00616422 -0.0101447 0.00268569)
(-0.00658479 -0.0101616 0.00269127)
(-0.0068607 -0.00970138 0.00337143)
(-0.00622689 -0.00997561 0.00288768)
(-0.00677932 -0.0102372 0.00319432)
(-0.00660441 -0.00938045 0.00319807)
(-0.00668641 -0.00981765 0.00329671)
(-0.00686574 -0.00989731 0.00328554)
(-0.00686975 -0.00978417 0.00340196)
(-0.0071244 -0.0102542 0.0035001)
(-0.00729131 -0.00998374 0.00367528)
(-0.00687741 -0.00990636 0.00311904)
(-0.00659541 -0.00910088 0.00310969)
(-0.00722166 -0.00950088 0.00345842)
(-0.0069511 -0.00939914 0.00334157)
(-0.00688245 -0.00898822 0.00330758)
(-0.00689086 -0.0101522 0.00313183)
(-0.00676437 -0.00970561 0.0029078)
(-0.00608815 -0.00913116 0.00246326)
(-0.00678206 -0.0100174 0.00260517)
(-0.00669887 -0.0103958 0.00287272)
(-0.00610736 -0.00917561 0.00282554)
(-0.00697974 -0.0105231 0.00291931)
(-0.00629827 -0.00937775 0.00293821)
(-0.00687834 -0.0101021 0.00314098)
(-0.00665527 -0.00996618 0.00289509)
(-0.00638982 -0.00960363 0.00292699)
(-0.00618869 -0.00940908 0.00293346)
(-0.00669769 -0.00978645 0.00312898)
(-0.00676517 -0.00982592 0.00264307)
(-0.00658846 -0.0096933 0.00295988)
(-0.00682991 -0.00982263 0.00277452)
(-0.00710651 -0.0101931 0.00309895)
(-0.00688468 -0.00981365 0.00294847)
(-0.00676742 -0.0097893 0.00283051)
(-0.00640481 -0.0096339 0.00279427)
(-0.00620212 -0.00938314 0.00274316)
(-0.00616338 -0.00929904 0.00285584)
(-0.00632524 -0.00932566 0.00298558)
(-0.00641355 -0.00958415 0.00271854)
(-0.00627131 -0.00931063 0.00277215)
(-0.00655255 -0.00970169 0.00290357)
(-0.00705824 -0.0100504 0.00266874)
(-0.00705604 -0.0105317 0.00301963)
(-0.00664039 -0.00975379 0.00278825)
(-0.00676728 -0.00965563 0.00265673)
(-0.00652367 -0.00949662 0.00271182)
(-0.00571095 -0.00849074 0.00261005)
(-0.00570012 -0.00858918 0.00269888)
(-0.00589436 -0.00893984 0.00274805)
(-0.00584556 -0.00863069 0.00249483)
(-0.00645779 -0.00935685 0.00256678)
(-0.00663569 -0.00969506 0.0031013)
(-0.00642945 -0.00989035 0.00292606)
(-0.0069235 -0.0103258 0.00314653)
(-0.00642363 -0.00992304 0.00303024)
(-0.00683334 -0.00980415 0.00325211)
(-0.00645109 -0.00948147 0.00300868)
(-0.00677333 -0.0104241 0.00262424)
(-0.00597743 -0.0097669 0.00240011)
(-0.00706115 -0.0100378 0.00319102)
(-0.00662714 -0.00980954 0.00312046)
(-0.00631899 -0.00957637 0.00281075)
(-0.00670041 -0.00952343 0.00298329)
(-0.0068648 -0.0102749 0.00309655)
(-0.00670799 -0.0102209 0.00300399)
(-0.0071463 -0.0105488 0.00318892)
(-0.00663595 -0.00988537 0.00314411)
(-0.00655134 -0.0103299 0.00300953)
(-0.00628488 -0.0101776 0.0027032)
(-0.00667065 -0.0104346 0.00319542)
(-0.00672547 -0.010501 0.00315212)
(-0.00697238 -0.0100472 0.00308434)
(-0.00650413 -0.0105931 0.00294882)
(-0.00693534 -0.00985953 0.00334849)
(-0.00670383 -0.00960838 0.00335912)
(-0.00652462 -0.0104002 0.00314195)
(-0.00710554 -0.0107648 0.00296505)
(-0.00612805 -0.00957425 0.00277539)
(-0.00596771 -0.00958791 0.00248175)
(-0.00633575 -0.00927994 0.00288179)
(-0.00632639 -0.00930551 0.00280083)
(-0.0064085 -0.00952089 0.00287871)
(-0.00631804 -0.00917 0.00283838)
(-0.00638563 -0.00922205 0.00280662)
(-0.00619176 -0.00902572 0.00271596)
(-0.0062877 -0.00924826 0.00252521)
(-0.00634394 -0.00936845 0.00272711)
(-0.00623448 -0.0092194 0.00249761)
(-0.00676916 -0.00918405 0.00254372)
(-0.00687081 -0.00981399 0.00311699)
(-0.00673826 -0.00938645 0.00275403)
(-0.00697319 -0.00961324 0.00277535)
(-0.00729946 -0.00961479 0.00278565)
(-0.00685433 -0.00990247 0.00287006)
(-0.00685323 -0.00984555 0.00296433)
(-0.00666749 -0.00949453 0.00290322)
(-0.00727162 -0.0109359 0.0035805)
(-0.00662869 -0.0102202 0.00317158)
(-0.00663774 -0.0092705 0.00280529)
(-0.00634778 -0.00931581 0.00287508)
(-0.00666728 -0.00954569 0.00288266)
(-0.00656877 -0.00943967 0.00304272)
(-0.00582222 -0.00915914 0.00269732)
(-0.00614289 -0.00984637 0.0029631)
(-0.00605677 -0.00964558 0.00262535)
(-0.00674036 -0.0101868 0.00314563)
(-0.00629842 -0.00962178 0.0030827)
(-0.00615575 -0.00965193 0.00288809)
(-0.00618051 -0.00956842 0.00297292)
(-0.00621415 -0.00937034 0.00292335)
(-0.00601439 -0.00936747 0.00279496)
(-0.00624971 -0.00984918 0.00287538)
(-0.00634195 -0.0093856 0.00295505)
(-0.00640394 -0.00990708 0.00292139)
(-0.00620871 -0.00964073 0.00283043)
(-0.00656172 -0.00978299 0.00295308)
(-0.00672063 -0.0101314 0.00304011)
(-0.00629487 -0.00961674 0.00294181)
(-0.00669299 -0.00924529 0.0028488)
(-0.00687738 -0.0102721 0.00342562)
(-0.00658422 -0.00986385 0.00315154)
(-0.00648612 -0.00977938 0.00325278)
(-0.00677038 -0.00981867 0.00319278)
(-0.00652009 -0.0101065 0.00346616)
(-0.00673115 -0.00985667 0.00309518)
(-0.00666613 -0.00979285 0.00278834)
(-0.00617567 -0.00973024 0.00264942)
(-0.00598773 -0.00941202 0.00250332)
(-0.00618151 -0.00964835 0.00283669)
(-0.00641027 -0.0101243 0.0025832)
(-0.00659171 -0.00977595 0.00266489)
(-0.0063756 -0.00942534 0.00269656)
(-0.00668851 -0.00962911 0.00275907)
(-0.00675342 -0.0100279 0.00288976)
(-0.00685024 -0.00991914 0.00256158)
(-0.00704758 -0.0103116 0.00263489)
(-0.00643722 -0.00940762 0.00265275)
(-0.00659566 -0.00973685 0.00297574)
(-0.00676173 -0.00980934 0.00269694)
(-0.00659942 -0.00955232 0.00258358)
(-0.00659067 -0.00964339 0.00283182)
(-0.0068964 -0.00998474 0.00273692)
(-0.006862 -0.00995607 0.0032473)
(-0.00710543 -0.0109326 0.00325394)
(-0.00640481 -0.00953761 0.0029803)
(-0.00640985 -0.0094517 0.00293829)
(-0.00640974 -0.00975385 0.00292755)
(-0.00651051 -0.00957348 0.00284299)
(-0.00602835 -0.00906059 0.00276703)
(-0.00659845 -0.0100164 0.00291779)
(-0.00661296 -0.0098566 0.00263529)
(-0.00662925 -0.00991743 0.00312748)
(-0.00659222 -0.00980824 0.00286241)
(-0.00692167 -0.00912116 0.00301328)
(-0.00687162 -0.00977833 0.00312877)
(-0.00678701 -0.0105052 0.0031142)
(-0.00708544 -0.00971423 0.0028729)
(-0.00646009 -0.00899419 0.00289543)
(-0.00645008 -0.0099678 0.00317414)
(-0.00672539 -0.00929852 0.00321263)
(-0.00646608 -0.0100472 0.00294248)
(-0.00632347 -0.00895331 0.00280059)
(-0.00749495 -0.0111012 0.00365529)
(-0.00709002 -0.00986311 0.00321564)
(-0.00660502 -0.0101192 0.0030835)
(-0.00670053 -0.00981002 0.00324772)
(-0.00657621 -0.010352 0.00320822)
(-0.00699103 -0.00991981 0.00322154)
(-0.00617061 -0.00926406 0.00300253)
(-0.0068412 -0.0101367 0.00304783)
(-0.0066188 -0.00997075 0.00322114)
(-0.00607345 -0.00969661 0.0032042)
(-0.00729583 -0.00977929 0.00291732)
(-0.00656778 -0.00932602 0.00300575)
(-0.00659344 -0.00945585 0.00294846)
(-0.00652084 -0.0100023 0.00316343)
(-0.00623485 -0.0096847 0.00320603)
(-0.00682178 -0.00991497 0.00304571)
(-0.00649615 -0.00940021 0.00289797)
(-0.00604187 -0.00920091 0.003017)
(-0.00640913 -0.00944918 0.00293722)
(-0.00651379 -0.00996777 0.00316763)
(-0.00681199 -0.00972139 0.00288172)
(-0.00664203 -0.00929764 0.00275213)
(-0.00672997 -0.0102071 0.00304808)
(-0.00657887 -0.00947719 0.0029976)
(-0.00720771 -0.00998066 0.0027877)
(-0.00658002 -0.00941159 0.00293588)
(-0.00675873 -0.0100875 0.00320975)
(-0.00639557 -0.00951911 0.00307488)
(-0.00656961 -0.00984037 0.00314995)
(-0.00644468 -0.00972913 0.00309388)
(-0.00670181 -0.00949044 0.00301182)
(-0.00646975 -0.00961372 0.00297744)
(-0.00657274 -0.00971515 0.00301724)
(-0.00676524 -0.0100478 0.00299181)
(-0.00647964 -0.00957524 0.00302962)
(-0.00654977 -0.00940062 0.00282826)
(-0.00642167 -0.00931189 0.0028788)
(-0.00708242 -0.0103709 0.00314881)
(-0.0066991 -0.00960969 0.00301479)
(-0.00630893 -0.00956359 0.00304745)
(-0.00678837 -0.00966756 0.00285432)
(-0.00609793 -0.00887652 0.00270446)
(-0.00635781 -0.00934032 0.00276206)
(-0.00637047 -0.00891033 0.00275375)
(-0.00650593 -0.00910353 0.00289834)
(-0.00619308 -0.00972683 0.00312219)
(-0.00678621 -0.0100086 0.00300348)
(-0.00650995 -0.00959978 0.00320516)
(-0.00614582 -0.00924439 0.00323054)
(-0.00652697 -0.00928246 0.00284756)
(-0.00651336 -0.00953719 0.00278707)
(-0.0065002 -0.00946434 0.00272873)
(-0.00683623 -0.00988671 0.00282452)
(-0.0069393 -0.0102641 0.002786)
(-0.00667013 -0.00979825 0.00294537)
(-0.00640677 -0.00953668 0.00291219)
(-0.0065339 -0.00967895 0.00303757)
(-0.00629317 -0.00957886 0.00324232)
(-0.0067116 -0.0100121 0.00305148)
(-0.00671334 -0.0099556 0.00293747)
(-0.00656877 -0.00988006 0.00297974)
(-0.00701494 -0.0101508 0.00293808)
(-0.00699874 -0.0103287 0.00300566)
(-0.00645294 -0.00984044 0.00331187)
(-0.0063827 -0.00962406 0.0033095)
(-0.00658927 -0.00967445 0.00316255)
(-0.0064943 -0.00970675 0.00319336)
(-0.00657676 -0.00886726 0.00234133)
(-0.00677477 -0.00945089 0.00254107)
(-0.00646377 -0.00951684 0.00290022)
(-0.00656965 -0.00934721 0.00282384)
(-0.00652636 -0.00943337 0.00264616)
(-0.00616348 -0.00904796 0.00266587)
(-0.0060441 -0.00894257 0.00276397)
(-0.00648527 -0.0091925 0.00276671)
(-0.00644344 -0.0098908 0.00308375)
(-0.00719071 -0.00916955 0.0025687)
(-0.00664253 -0.00934414 0.00291748)
(-0.00686786 -0.00996877 0.00318782)
(-0.00713812 -0.0100462 0.0027549)
(-0.00672001 -0.00947842 0.00265061)
(-0.00733111 -0.0103734 0.00326021)
(-0.00636301 -0.00959467 0.00321641)
(-0.00701467 -0.00893207 0.00264252)
(-0.00674898 -0.0101059 0.00308954)
(-0.00607601 -0.00910788 0.00290116)
(-0.00683147 -0.00977858 0.00292672)
(-0.00652411 -0.00924361 0.00256688)
(-0.00697346 -0.0100145 0.00328402)
(-0.00653326 -0.00923036 0.00272564)
(-0.0064308 -0.00881924 0.00245287)
(-0.00680331 -0.00993005 0.00326949)
(-0.0065635 -0.00938069 0.00277404)
(-0.0067285 -0.00969747 0.00311356)
(-0.00657882 -0.00951952 0.00286998)
(-0.00647007 -0.00937397 0.00309857)
(-0.00660866 -0.00961048 0.00302635)
(-0.00655298 -0.00911192 0.0029357)
(-0.00622769 -0.0091567 0.00322021)
(-0.00611507 -0.00949371 0.00297109)
(-0.00619395 -0.00921268 0.00291106)
(-0.00626693 -0.00900287 0.00275052)
(-0.00640192 -0.0094032 0.00299067)
(-0.00618765 -0.00900988 0.0028039)
(-0.00616107 -0.00877261 0.00270508)
(-0.00650108 -0.00961888 0.00317528)
(-0.00649178 -0.00957956 0.00294508)
(-0.0061386 -0.00935429 0.00307595)
(-0.00611174 -0.00916148 0.00311298)
(-0.0065438 -0.00948896 0.00305283)
(-0.00653703 -0.00968529 0.00289484)
(-0.00645088 -0.00947265 0.00302016)
(-0.00626723 -0.00957771 0.00315795)
(-0.00657492 -0.00962209 0.00293147)
(-0.00628379 -0.00948661 0.00293301)
(-0.00615012 -0.00925096 0.00283033)
(-0.00641949 -0.00942111 0.00282547)
(-0.0064179 -0.00941993 0.0029088)
(-0.00641617 -0.00947725 0.00290401)
(-0.00637916 -0.00944199 0.00304723)
(-0.00651949 -0.00973043 0.00314012)
(-0.00647966 -0.00966577 0.00307586)
(-0.00660445 -0.00986736 0.00322927)
(-0.00636044 -0.00963387 0.00306597)
(-0.00644699 -0.0096946 0.00309316)
(-0.00607343 -0.00941322 0.00298807)
(-0.00613484 -0.0102212 0.00341279)
(-0.00673253 -0.0103674 0.00314341)
(-0.00622144 -0.00930607 0.00316988)
(-0.00645494 -0.00947974 0.00322468)
(-0.00646278 -0.00953642 0.00306525)
(-0.00638721 -0.00961014 0.00291942)
(-0.00704223 -0.00996109 0.00301654)
(-0.0065008 -0.00982197 0.00305613)
(-0.0065923 -0.00968991 0.00298728)
(-0.00682419 -0.0101933 0.00312421)
(-0.00694428 -0.0111189 0.00363495)
(-0.00643465 -0.00973047 0.003112)
(-0.00640041 -0.00990527 0.00283099)
(-0.00640001 -0.00950814 0.00288909)
(-0.00670389 -0.0106748 0.0034098)
(-0.00610455 -0.00930848 0.00288107)
(-0.00633586 -0.0101713 0.00296657)
(-0.00677689 -0.00948336 0.00305296)
(-0.00752645 -0.0104396 0.0034854)
(-0.00674877 -0.00986327 0.00309072)
(-0.00649062 -0.0102124 0.00304357)
(-0.00680722 -0.00968715 0.00312101)
(-0.0067433 -0.00939188 0.00327948)
(-0.00668333 -0.00915153 0.00312571)
(-0.00676823 -0.00942938 0.00321206)
(-0.00624006 -0.00926097 0.00280579)
(-0.00667437 -0.00962755 0.00322865)
(-0.00671677 -0.00965328 0.00321586)
(-0.00602315 -0.00891708 0.0028058)
(-0.00600685 -0.00901553 0.00276134)
(-0.00568491 -0.0084419 0.00260925)
(-0.00602967 -0.00899453 0.00281569)
(-0.00650087 -0.00976389 0.00291536)
(-0.00616247 -0.00909503 0.00273067)
(-0.00665956 -0.0101132 0.00275102)
(-0.00687989 -0.0105108 0.00280594)
(-0.00665221 -0.0101004 0.00269652)
(-0.00619663 -0.00917627 0.00284664)
(-0.00612613 -0.00877721 0.00283781)
(-0.00656062 -0.0100852 0.0029242)
(-0.00594972 -0.00885596 0.00259464)
(-0.0062953 -0.00924166 0.00268942)
(-0.00668878 -0.00957352 0.00295059)
(-0.00699797 -0.00938763 0.00286696)
(-0.00694023 -0.0100476 0.0032454)
(-0.00648705 -0.0090236 0.00277286)
(-0.00640969 -0.00957526 0.00306891)
(-0.00655878 -0.00964695 0.00316615)
(-0.00677322 -0.0100979 0.00327112)
(-0.00740773 -0.0100542 0.00276133)
(-0.00673576 -0.00970566 0.00303989)
(-0.00703349 -0.00956729 0.00247122)
(-0.0061253 -0.00885986 0.00262945)
(-0.00612703 -0.00943319 0.00291077)
(-0.00641652 -0.00946245 0.00324716)
(-0.00613624 -0.00893192 0.00254628)
(-0.0064611 -0.00947397 0.00248492)
(-0.00730245 -0.00991613 0.00273832)
(-0.00629495 -0.00945009 0.00264908)
(-0.00643498 -0.00998846 0.00299069)
(-0.00677417 -0.0104906 0.00268913)
(-0.00594655 -0.00915873 0.00257368)
(-0.00620145 -0.00973128 0.00276474)
(-0.00637487 -0.00906225 0.00323772)
(-0.00599447 -0.00870665 0.00300718)
(-0.00591676 -0.00899914 0.00266696)
(-0.00625107 -0.00889118 0.00314964)
(-0.00609235 -0.00914897 0.00279312)
(-0.00594295 -0.00934976 0.00282794)
(-0.00659354 -0.00999811 0.00305125)
(-0.00656502 -0.00948655 0.00297387)
(-0.00596243 -0.00909544 0.00286207)
(-0.00647668 -0.00907123 0.00254505)
(-0.00628051 -0.009653 0.00309602)
(-0.00666821 -0.00963698 0.00297096)
(-0.00675374 -0.00973767 0.0028778)
(-0.00650221 -0.00963794 0.00301105)
(-0.00657521 -0.00943182 0.00275135)
(-0.00663219 -0.00967019 0.00290297)
(-0.00651364 -0.00928232 0.00281071)
(-0.00666244 -0.00933249 0.00293569)
(-0.00703816 -0.0093265 0.00255571)
(-0.00641041 -0.00908495 0.00272653)
(-0.00688916 -0.00940863 0.0029011)
(-0.00682884 -0.00885723 0.00258088)
(-0.00614169 -0.00902447 0.00287723)
(-0.00617062 -0.00861069 0.00246985)
(-0.00632182 -0.00883369 0.00238815)
(-0.00647735 -0.00970886 0.00293447)
(-0.00631186 -0.009104 0.00270247)
(-0.00626956 -0.00937765 0.00280037)
(-0.00648626 -0.00953571 0.00283153)
(-0.00646178 -0.00951859 0.002814)
(-0.00661575 -0.00971176 0.00270489)
(-0.00674445 -0.00994747 0.00293063)
(-0.00664432 -0.00961274 0.00276333)
(-0.00603583 -0.00884824 0.00269813)
(-0.00567772 -0.008471 0.00263791)
(-0.00607034 -0.00907058 0.00273983)
(-0.00616449 -0.0092354 0.00279611)
(-0.00591554 -0.00874746 0.00275082)
(-0.00617868 -0.0093399 0.00268129)
(-0.00614962 -0.00939112 0.00275973)
(-0.0064701 -0.00966152 0.00278543)
(-0.0065564 -0.00965783 0.00271542)
(-0.00642948 -0.0099619 0.00276551)
(-0.00644955 -0.00963002 0.00278982)
(-0.0062706 -0.00946943 0.00266139)
(-0.00568879 -0.00838942 0.00257631)
(-0.00587714 -0.00881448 0.00275957)
(-0.00589306 -0.00862512 0.00277861)
(-0.00582099 -0.00848508 0.00272736)
(-0.00580818 -0.00865128 0.00274581)
(-0.00581404 -0.00850503 0.00268369)
(-0.00572756 -0.00847148 0.00275133)
(-0.0058936 -0.00882941 0.00257427)
(-0.00558161 -0.00839734 0.00268157)
(-0.00536748 -0.00804744 0.00276803)
(-0.00576895 -0.00866346 0.0026792)
(-0.00590726 -0.00876104 0.00286238)
(-0.00596089 -0.0092238 0.00267002)
(-0.00646017 -0.00950916 0.00284436)
(-0.00579228 -0.00867158 0.002755)
(-0.00620023 -0.00958488 0.00231005)
(-0.00590007 -0.00889038 0.0024204)
(-0.0064039 -0.00982859 0.00253617)
(-0.00677158 -0.0101394 0.00323036)
(-0.00679288 -0.010037 0.00331377)
(-0.00712377 -0.0102116 0.00318448)
(-0.00671734 -0.009718 0.00345618)
(-0.00668178 -0.00998329 0.00298858)
(-0.0067697 -0.0100924 0.00306918)
(-0.00682348 -0.0101623 0.00319036)
(-0.00686223 -0.0101775 0.00316559)
(-0.00644934 -0.00956819 0.00292052)
(-0.00674392 -0.00981429 0.00292594)
(-0.00660553 -0.00979139 0.00327203)
(-0.00667641 -0.00988274 0.00292192)
(-0.00712379 -0.0101988 0.00269512)
(-0.00699503 -0.010208 0.00306405)
(-0.00662159 -0.00975418 0.00292808)
(-0.00706041 -0.0101348 0.00291766)
(-0.00693388 -0.01019 0.00307879)
(-0.00699402 -0.00996923 0.00284661)
(-0.00661252 -0.00964647 0.00301434)
(-0.00723172 -0.0103624 0.00310045)
(-0.00746754 -0.010494 0.00315586)
(-0.00691221 -0.0100118 0.00312967)
(-0.00651547 -0.00970703 0.00322097)
(-0.00679177 -0.00952429 0.00336363)
(-0.00658369 -0.00978789 0.00294942)
(-0.00625547 -0.00954712 0.00263531)
(-0.00637927 -0.0100452 0.00260554)
(-0.00658563 -0.00975375 0.00288015)
(-0.00632084 -0.00928387 0.00251113)
(-0.00575029 -0.00864321 0.00275607)
(-0.00639299 -0.00958563 0.0029909)
(-0.00614824 -0.00924285 0.00236204)
(-0.00631096 -0.00918298 0.00307783)
(-0.00649963 -0.00963342 0.00317475)
(-0.00659117 -0.0095673 0.00306028)
(-0.00545261 -0.00814519 0.0027845)
(-0.0058729 -0.00862545 0.0025312)
(-0.00596845 -0.00879823 0.00289297)
(-0.00589321 -0.00864172 0.00281673)
(-0.00572754 -0.00858637 0.00284582)
(-0.00607382 -0.00869838 0.00290728)
(-0.00581657 -0.00877576 0.00268868)
(-0.00639991 -0.00939521 0.00273574)
(-0.00624008 -0.00927626 0.00274034)
(-0.00676139 -0.00927117 0.00282591)
(-0.00695288 -0.00946073 0.002857)
(-0.00643974 -0.00957355 0.00290566)
(-0.00618175 -0.00883704 0.00260414)
(-0.00662908 -0.00931267 0.00269364)
(-0.00721826 -0.00937916 0.00246857)
(-0.00669072 -0.00877627 0.00246121)
(-0.00649808 -0.00896134 0.00257415)
(-0.00627473 -0.00887468 0.0025295)
(-0.00644526 -0.00904422 0.00247131)
(-0.00674566 -0.00991192 0.00283595)
(-0.00640218 -0.00939792 0.00279967)
(-0.00678387 -0.0103204 0.00274326)
(-0.00657735 -0.00969539 0.00266803)
(-0.00623823 -0.00921222 0.00261334)
(-0.00677886 -0.0101049 0.00287459)
(-0.00679254 -0.0100194 0.00300966)
(-0.00666376 -0.00998618 0.00296718)
(-0.00666002 -0.00975122 0.00287963)
(-0.00656848 -0.00966881 0.00295191)
(-0.00672114 -0.00974782 0.00289715)
(-0.00716369 -0.010491 0.00329091)
(-0.00659632 -0.00967127 0.00304437)
(-0.00682313 -0.00990766 0.00290562)
(-0.00645149 -0.00949536 0.00288415)
(-0.00657949 -0.00946561 0.00273106)
(-0.00676484 -0.00960018 0.00272378)
(-0.00599132 -0.00881244 0.00285012)
(-0.00661203 -0.00969171 0.00298307)
(-0.00593618 -0.00876397 0.0028072)
(-0.00615315 -0.00920487 0.00256817)
(-0.00622361 -0.00927646 0.00301991)
(-0.00544022 -0.00837105 0.00271408)
(-0.00599459 -0.00869411 0.00283986)
(-0.00623472 -0.00952352 0.00296106)
(-0.00646315 -0.00959336 0.00282759)
(-0.006407 -0.00972544 0.00289667)
(-0.00632634 -0.00952822 0.00286056)
(-0.0069294 -0.00975323 0.0033093)
(-0.00655237 -0.0094691 0.0030902)
(-0.00655776 -0.00965155 0.00309216)
(-0.00697364 -0.0103371 0.00315706)
(-0.0066921 -0.00980942 0.00290404)
(-0.0066603 -0.00987672 0.00303985)
(-0.00665318 -0.00997734 0.00321341)
(-0.00628508 -0.00934622 0.00284299)
(-0.00675331 -0.00949952 0.00273408)
(-0.00715947 -0.0100108 0.00300567)
(-0.00644817 -0.00949213 0.00292953)
(-0.00631287 -0.00935123 0.00308193)
(-0.00669011 -0.00985846 0.00294949)
(-0.00665677 -0.0099737 0.00312991)
(-0.00648867 -0.00949136 0.00292335)
(-0.00638563 -0.00961726 0.0029506)
(-0.00657169 -0.00936886 0.00328339)
(-0.00646184 -0.00951236 0.00322726)
(-0.00635668 -0.0099564 0.00306532)
(-0.00670014 -0.00953395 0.00296029)
(-0.00694426 -0.00993146 0.00337866)
(-0.00650527 -0.00951667 0.00308377)
(-0.00633147 -0.00916277 0.00285194)
(-0.00627288 -0.00945474 0.00292509)
(-0.00619526 -0.00911327 0.00288194)
(-0.00631451 -0.00929377 0.00297579)
(-0.00695159 -0.00969043 0.00332539)
(-0.00663337 -0.0102403 0.00299489)
(-0.00640672 -0.00994189 0.00278153)
(-0.00718745 -0.0102487 0.00317856)
(-0.00720921 -0.0104379 0.00325477)
(-0.00670756 -0.0108277 0.00306997)
(-0.00647426 -0.0106687 0.00313691)
(-0.00673228 -0.010649 0.00310768)
(-0.00732262 -0.0109214 0.00359585)
(-0.00747183 -0.0107387 0.00353585)
(-0.0064641 -0.00995926 0.00310269)
(-0.00671346 -0.00982194 0.00305385)
(-0.0066891 -0.00904201 0.00287167)
(-0.00674518 -0.00989746 0.00312515)
(-0.00719823 -0.0104563 0.00325465)
(-0.00666584 -0.010054 0.00291238)
(-0.00629019 -0.0102553 0.0029443)
(-0.00631612 -0.009929 0.00287049)
(-0.00708231 -0.0107094 0.00301102)
(-0.00667621 -0.00997625 0.00301481)
(-0.0069364 -0.010032 0.00305397)
(-0.00666771 -0.00979694 0.00313132)
(-0.00666726 -0.00973604 0.00305518)
(-0.00668172 -0.00973628 0.00308236)
(-0.00632906 -0.00981608 0.00315832)
(-0.00679952 -0.00972837 0.00290437)
(-0.00693738 -0.0100669 0.0032541)
(-0.00678369 -0.00960687 0.00273663)
(-0.00665813 -0.00966529 0.00295339)
(-0.00667763 -0.0100227 0.0029972)
(-0.00700221 -0.0101787 0.0033767)
(-0.00639196 -0.00936403 0.00314772)
(-0.00717468 -0.0105067 0.00326086)
(-0.00674101 -0.00983677 0.00247757)
(-0.00630626 -0.00917793 0.00253655)
(-0.00615817 -0.00950656 0.00306653)
(-0.00712093 -0.0103732 0.00314406)
(-0.00660145 -0.00982929 0.00313736)
(-0.00629212 -0.00940259 0.00302845)
(-0.00640597 -0.00973267 0.00315368)
(-0.00649171 -0.00964678 0.00319462)
(-0.00657776 -0.00980195 0.00321608)
(-0.00700495 -0.00977643 0.00284924)
(-0.0060024 -0.00882862 0.00277708)
(-0.00697263 -0.0100188 0.00301683)
(-0.00655754 -0.00919638 0.00257702)
(-0.00661479 -0.00937506 0.00268213)
(-0.00678206 -0.00963564 0.00279745)
(-0.00624508 -0.00941792 0.00298694)
(-0.0069548 -0.0107744 0.00331688)
(-0.00641164 -0.00968817 0.00320087)
(-0.00653013 -0.00951306 0.00299962)
(-0.00660754 -0.00984201 0.00311271)
(-0.0065164 -0.00977213 0.00294603)
(-0.00652226 -0.00983145 0.00295052)
(-0.00638773 -0.0100607 0.00321578)
(-0.00616266 -0.00966564 0.00358091)
(-0.00635764 -0.00933158 0.00307273)
(-0.00618201 -0.00929221 0.00301082)
(-0.00693754 -0.0102374 0.00338618)
(-0.00658277 -0.00983993 0.0031321)
(-0.00637434 -0.00933088 0.00286545)
(-0.00633713 -0.0100047 0.00339698)