/*--------------------------------*- C++ -*----------------------------------*\
| =========                 |                                                 |
| \\      /  F ield         | OpenFOAM: The Open Source CFD Toolbox           |
|  \\    /   O peration     | Version:  v1612+                                |
|   \\  /    A nd           | Web:      www.OpenFOAM.com                      |
|    \\/     M anipulation  |                                                 |
\*---------------------------------------------------------------------------*/
FoamFile
{
    version     2.0;
    format      ascii;
    class       volScalarField;
    location    "200";
    object      p;
}
// * * * * * * * * * * * * * * * * * * * * * * * * * * * * * * * * * * * * * //

dimensions      [0 2 -2 0 0 0 0];

internalField   nonuniform List<scalar> 
16902
(
3.43157
3.42969
3.50216
3.48673
3.46138
3.40761
3.40483
3.40648
3.40774
3.40468
3.41469
3.40226
3.40918
3.40814
3.40357
3.40998
3.4098
3.41033
3.40662
3.41081
3.41459
3.41128
3.41019
3.41403
3.41176
3.40938
3.40427
3.42108
3.41852
3.414
3.41769
3.42105
3.42322
3.4251
3.42131
3.41313
3.40896
3.41566
3.42044
3.41655
3.42314
3.41618
3.41759
3.45482
3.44695
3.45304
3.45063
3.45975
3.44844
3.4408
3.45215
3.44561
3.49457
3.4556
3.49146
3.45435
3.4544
3.42569
3.4251
3.4261
3.4259
3.42417
3.42299
3.41756
3.42355
3.42543
3.42535
3.42148
3.42346
3.42307
3.42094
3.42524
3.43117
3.43527
3.43158
3.43267
3.43307
3.43239
3.42962
3.42532
3.42998
3.4331
3.42835
3.42905
3.42914
3.39082
3.38562
3.38564
3.37027
3.71172
3.71543
3.70039
3.69559
3.68951
3.67676
3.70275
3.69165
3.68626
3.69582
3.43495
3.43521
3.43489
3.43413
3.43879
3.43676
3.43748
3.43717
3.43514
3.43326
3.43383
3.43013
3.43417
3.43698
3.43244
3.43421
3.69354
3.6766
3.69338
3.68347
3.6928
3.67791
3.68598
3.69123
3.69578
3.70345
3.70908
3.69803
3.68069
3.66909
3.44331
3.45078
3.45944
3.47711
3.43185
3.42747
3.43874
3.44726
3.45942
3.45994
3.45544
3.47013
3.46469
3.44388
3.4569
3.44091
3.43189
3.43563
3.43353
3.43507
3.42816
3.43822
3.43784
3.43855
3.43452
3.43749
3.43679
3.43562
3.43714
3.43707
3.42931
3.4288
3.45294
3.44058
3.43422
3.4308
3.42795
3.4469
3.46016
3.44101
3.44359
3.44273
3.43462
3.44237
3.44922
3.44848
3.44367
3.4318
3.44013
3.44546
3.43599
3.45367
3.44738
3.48984
3.50001
3.50181
3.51105
3.49027
3.46907
3.48153
3.47229
3.47087
3.52258
3.51138
3.49635
3.48023
3.48884
3.48457
3.51188
3.6091
3.6281
3.61694
3.60368
3.61938
3.60633
3.63468
3.59904
3.60733
3.64751
3.63926
3.5967
3.63652
3.64091
3.5968
3.42659
3.42247
3.41904
3.42674
3.42431
3.42523
3.42629
3.41814
3.42469
3.43146
3.43145
3.4222
3.66196
3.67724
3.5043
3.51549
3.49496
3.48376
3.47344
3.46271
3.48042
3.47034
3.48634
3.48438
3.45844
3.44002
3.45025
3.44334
3.43603
3.46614
3.44855
3.45571
3.45123
3.44513
3.441
3.43795
3.4193
3.42638
3.43617
3.43382
3.42664
3.41701
3.42162
3.42986
3.41795
3.42774
3.42278
3.42896
3.42837
3.42763
3.44048
3.43031
3.42972
3.41266
3.41299
3.40781
3.41245
3.40853
3.41516
3.41863
3.4179
3.41574
3.41601
3.41706
3.40988
3.39559
3.39671
3.4249
3.42085
3.44505
3.44301
3.44122
3.43561
3.40637
3.4084
3.40469
3.4177
3.41886
3.41012
3.40651
3.41526
3.42704
3.43017
3.43613
3.43729
3.43451
3.43692
3.43689
3.43835
3.43767
3.44286
3.42906
3.42985
3.43107
3.43663
3.43269
3.43444
3.42661
3.42897
3.45179
3.43887
3.44885
3.43456
3.4466
3.44386
3.44721
3.44177
3.45714
3.45072
3.45042
3.45596
3.45917
3.45307
3.45559
3.44498
3.45297
3.44746
3.45833
3.45767
3.45212
3.45424
3.4004
3.40297
3.40243
3.39468
3.39242
3.39985
3.40823
3.4051
3.39832
3.40805
3.39386
3.35951
3.367
3.35773
3.35431
3.38006
3.38139
3.38481
3.38558
3.35771
3.35702
3.32591
3.34564
3.35702
3.37506
3.36948
3.37503
3.34496
3.34186
3.37162
3.37913
3.35826
3.35488
3.36003
3.36466
3.42548
3.42515
3.43188
3.43218
3.4347
3.43584
3.42022
3.42454
3.42595
3.42599
3.42398
3.42853
3.43108
3.43498
3.43341
3.43642
3.42313
3.42894
3.42758
3.42887
3.43379
3.43568
3.43
3.431
3.43895
3.43597
3.43291
3.4327
3.43665
3.43637
3.43193
3.43016
3.43618
3.4367
3.43561
3.43676
3.4639
3.45633
3.45625
3.44282
3.45473
3.45419
3.45371
3.44376
3.45451
3.44731
3.43634
3.43615
3.43991
3.44707
3.44868
3.43784
3.43295
3.43304
3.43106
3.4375
3.40608
3.40436
3.40024
3.40059
3.40884
3.41161
3.40728
3.39227
3.41153
3.39824
3.40048
3.44533
3.45431
3.4527
3.4438
3.46313
3.45997
3.4408
3.45212
3.45075
3.45928
3.43886
3.43689
3.44158
3.44046
3.43722
3.43858
3.43429
3.4432
3.44445
3.44282
3.43785
3.43994
3.43871
3.45146
3.45618
3.46372
3.45891
3.43692
3.43246
3.4307
3.45525
3.44836
3.44425
3.43592
3.45
3.44839
3.41398
3.40643
3.41364
3.41627
3.41322
3.41159
3.41398
3.41109
3.40536
3.40584
3.41604
3.40811
3.41478
3.41903
3.41017
3.41488
3.41653
3.40381
3.4114
3.42119
3.44117
3.43391
3.43302
3.43507
3.4249
3.44048
3.43064
3.43715
3.44541
3.43973
3.43702
3.44413
3.39497
3.39303
3.39744
3.39754
3.38159
3.39308
3.39451
3.38231
3.38522
3.39408
3.39669
3.39427
3.38407
3.37558
3.39166
3.3883
3.39411
3.38491
3.3762
3.36107
3.37574
3.40219
3.40863
3.40343
3.39163
3.3971
3.41259
3.42197
3.40231
3.40773
3.38609
3.38708
3.39559
3.4018
3.40415
3.41754
3.41697
3.4202
3.42312
3.423
3.42565
3.42304
3.4214
3.42424
3.42066
3.42007
3.42271
3.42225
3.42045
3.42661
3.41461
3.41484
3.41254
3.41262
3.41422
3.41401
3.64813
3.64043
3.63883
3.60677
3.6052
3.66024
3.59777
3.63111
3.65174
3.4376
3.43355
3.43682
3.43991
3.43433
3.44371
3.44349
3.44205
3.43361
3.44076
3.44417
3.438
3.43984
3.43602
3.43981
3.44151
3.4303
3.43691
3.67181
3.68175
3.6731
3.67383
3.68395
3.6982
3.70547
3.70677
3.69616
3.69306
3.70658
3.68577
3.70502
3.71386
3.45179
3.45343
3.44618
3.4546
3.43314
3.42906
3.45096
3.45
3.43657
3.44061
3.45705
3.46514
3.45152
3.46358
3.46295
3.48191
3.46094
3.46375
3.47332
3.4728
3.46318
3.46216
3.47764
3.4524
3.43992
3.43418
3.45227
3.46339
3.4582
3.45073
3.44957
3.45129
3.44812
3.40789
3.40719
3.4137
3.42404
3.4053
3.40255
3.42421
3.41247
3.42509
3.40399
3.40756
3.40036
3.40567
3.41412
3.65524
3.66852
3.63301
3.63789
3.6607
3.66354
3.66641
3.66241
3.64898
3.63435
3.64289
3.64768
3.65971
3.65245
3.67296
3.66686
3.67995
3.67441
3.63961
3.67693
3.68252
3.67789
3.45341
3.47832
3.48692
3.49205
3.46783
3.44809
3.45826
3.48057
3.45865
3.47427
3.46645
3.59776
3.60069
3.55668
3.59566
3.58775
3.58776
3.57329
3.58143
3.59613
3.62195
3.59925
3.59863
3.60495
3.61682
3.44595
3.44661
3.4368
3.4517
3.43854
3.44144
3.42807
3.42758
3.42886
3.43496
3.43189
3.42719
3.4409
3.44176
3.44151
3.44023
3.43685
3.4374
3.43899
3.43934
3.43787
3.43831
3.4373
3.43549
3.43958
3.43639
3.42522
3.42455
3.42983
3.42342
3.42303
3.42224
3.42745
3.4318
3.43049
3.42978
3.43133
3.42449
3.42523
3.4264
3.42953
3.43115
3.42684
3.43154
3.39251
3.39424
3.3997
3.40552
3.40098
3.40878
3.3921
3.41246
3.40189
3.38985
3.38568
3.40491
3.39131
3.39528
3.37935
3.3922
3.42345
3.42351
3.42801
3.42464
3.42477
3.42275
3.41802
3.42
3.42241
3.42379
3.42282
3.42141
3.42039
3.42826
3.42211
3.41894
3.4267
3.42109
3.42484
3.41641
3.42406
3.42767
3.42312
3.42218
3.5084
3.49596
3.49789
3.48901
3.49693
3.50889
3.50966
3.50338
3.50108
3.48069
3.49995
3.48686
3.50286
3.48223
3.49989
3.50695
3.41209
3.41002
3.41389
3.41194
3.42711
3.42123
3.41963
3.42366
3.40684
3.40676
3.41618
3.42559
3.42969
3.41005
3.41855
3.41219
3.41361
3.4193
3.41737
3.41503
3.42712
3.41968
3.41812
3.42167
3.42101
3.42381
3.4262
3.34349
3.34493
3.35369
3.35036
3.42351
3.42975
3.44319
3.43898
3.44897
3.45536
3.41513
3.42416
3.44567
3.44586
3.45634
3.43275
3.43948
3.44686
3.43365
3.48936
3.48731
3.46992
3.46119
3.48212
3.46437
3.4213
3.4166
3.43307
3.42802
3.43066
3.43499
3.4179
3.41058
3.41323
3.42317
3.41664
3.42573
3.43569
3.43043
3.42558
3.43591
3.42503
3.42884
3.43771
3.61936
3.60251
3.62484
3.6115
3.63881
3.65074
3.64629
3.62143
3.6045
3.60159
3.59711
3.59236
3.64158
3.62384
3.64101
3.64075
3.60576
3.63301
3.60447
3.6208
3.6316
3.26957
3.26215
3.26392
3.31909
3.32784
3.31458
3.42911
3.31329
3.32145
3.31118
3.41471
3.41553
3.41403
3.4091
3.45407
3.45397
3.46024
3.41982
3.40748
3.41545
3.40605
3.42108
3.42191
3.43826
3.43651
3.3226
3.31878
3.32885
3.36389
3.36682
3.46239
3.46254
3.41375
3.42129
3.41832
3.41622
3.41568
3.34886
3.36314
3.36106
3.43355
3.4334
3.43359
3.40375
3.4011
3.396
3.46304
3.46099
3.46587
3.43302
3.43116
3.43067
3.40347
3.4071
3.4144
3.47183
3.46481
3.37835
3.3721
3.44464
3.44205
3.44252
3.47124
3.46866
3.38342
3.38602
3.37431
3.38677
3.42254
3.4228
3.42071
3.49415
3.49651
3.43827
3.43872
3.43674
3.45163
3.45109
3.37105
3.37101
3.4714
3.46567
3.4718
3.47183
3.40983
3.40515
3.43672
3.43476
3.43483
3.53346
3.53273
3.44133
3.4421
3.44237
3.43687
3.42693
3.41547
3.42018
3.57438
3.57906
3.4721
3.48516
3.4769
3.54328
3.528
3.53596
3.43067
3.43181
3.43971
3.43836
3.43976
3.42767
3.4312
3.45174
3.45965
3.45568
3.52796
3.54699
3.54238
3.43473
3.4326
3.43156
3.43236
3.61251
3.61453
3.60526
3.61224
3.42496
3.42426
3.42055
3.62852
3.61548
3.6216
3.43719
3.43698
3.43627
3.43868
3.47746
3.49583
3.49677
3.48821
3.47622
3.44532
3.44236
3.43704
3.4382
3.42939
3.42794
3.4313
3.43067
3.43017
3.61887
3.60042
3.59459
3.43857
3.43897
3.42389
3.42117
3.42651
3.42678
3.69658
3.69013
3.69962
3.69253
3.69451
3.52788
3.53255
3.46859
3.46404
3.46276
3.72126
3.72017
3.71323
3.66359
3.67681
3.66548
3.65423
3.52472
3.53293
3.54485
3.54763
3.68065
3.66667
3.68017
3.71813
3.71867
3.70264
3.69683
3.68119
3.71835
3.71786
3.71759
3.71342
3.66711
3.68554
3.66581
3.67236
3.61611
3.62675
3.65067
3.64947
3.6472
3.62981
3.45523
3.60194
3.58988
3.58379
3.5776
3.53789
3.51444
3.53285
3.52618
3.53409
3.48531
3.5023
3.50123
3.51287
3.69053
3.6909
3.68161
3.70344
3.67629
3.69285
3.69493
3.6822
3.68339
3.66573
3.63743
3.63322
3.65209
3.65993
3.66801
3.66781
3.66805
3.65952
3.66634
3.63624
3.63043
3.63966
3.64143
3.42948
3.44252
3.44006
3.43662
3.44254
3.58835
3.59654
3.59982
3.69209
3.70167
3.69761
3.69407
3.68395
3.65401
3.67035
3.67394
3.67875
3.67104
3.68115
3.68467
3.71152
3.70242
3.70652
3.70396
3.68992
3.70361
3.67761
3.71051
3.69909
3.69854
3.7096
3.68999
3.7244
3.72055
3.70697
3.71919
3.70087
3.72089
3.70977
3.44834
3.45486
3.45876
3.47594
3.45491
3.45508
3.42433
3.42541
3.43102
3.43341
3.43097
3.43368
3.43335
3.43072
3.42631
3.42511
3.43766
3.45096
3.46101
3.45622
3.46036
3.45504
3.45085
3.48748
3.48995
3.47636
3.45734
3.46485
3.47861
3.46909
3.45156
3.4547
3.44497
3.44316
3.45306
3.44879
3.45075
3.45194
3.45992
3.45513
3.45834
3.45413
3.45052
3.50105
3.5068
3.48506
3.49341
3.45287
3.50505
3.49067
3.46421
3.49395
3.50405
3.48415
3.47184
3.52774
3.51844
3.54304
3.54423
3.53756
3.55899
3.58337
3.66311
3.66078
3.66976
3.67611
3.66832
3.67455
3.62506
3.61403
3.66061
3.66637
3.66221
3.65865
3.66135
3.66425
3.43457
3.42935
3.43188
3.43019
3.42611
3.4312
3.43343
3.42869
3.42712
3.42727
3.42432
3.43124
3.43161
3.43221
3.42049
3.42679
3.43004
3.4294
3.43186
3.4458
3.44772
3.45728
3.43981
3.44378
3.51212
3.53191
3.53838
3.52856
3.59049
3.59327
3.58981
3.57251
3.59786
3.63852
3.62728
3.59601
3.59553
3.62408
3.60307
3.61307
3.59886
3.42964
3.43034
3.43575
3.43434
3.43496
3.43373
3.43708
3.4292
3.42626
3.42649
3.42573
3.43591
3.43325
3.43407
3.43449
3.43619
3.43343
3.43435
3.43442
3.4409
3.44306
3.44124
3.44081
3.44391
3.43575
3.44014
3.44563
3.44068
3.44478
3.44662
3.44625
3.44332
3.43825
3.43845
3.43309
3.43854
3.43606
3.43988
3.4377
3.43165
3.43431
3.43552
3.43825
3.46727
3.54446
3.54886
3.53617
3.50457
3.52168
3.52364
3.50628
3.52778
3.53178
3.53051
3.53455
3.5076
3.51415
3.48638
3.4916
3.48786
3.47064
3.50573
3.52632
3.52637
3.51979
3.48508
3.49139
3.51692
3.52379
3.50489
3.5049
3.49648
3.43839
3.43623
3.43839
3.43791
3.43864
3.53712
3.56636
3.57115
3.5428
3.57216
3.58295
3.41915
3.42771
3.42491
3.42909
3.4263
3.42079
3.42161
3.40587
3.41764
3.42063
3.4169
3.41908
3.41619
3.42009
3.42467
3.42728
3.42724
3.42403
3.42891
3.42723
3.42311
3.42669
3.42548
3.41922
3.42573
3.42935
3.42817
3.44193
3.43542
3.44513
3.56212
3.53919
3.58256
3.5845
3.59065
3.58923
3.58858
3.57604
3.62654
3.64069
3.63421
3.63325
3.61722
3.43067
3.43325
3.4318
3.43328
3.50878
3.50126
3.50345
3.52393
3.50884
3.51239
3.5086
3.48847
3.50727
3.50261
3.50338
3.49371
3.51528
3.51566
3.49234
3.5057
3.45804
3.4551
3.46178
3.45428
3.44747
3.44809
3.44056
3.44787
3.44821
3.46573
3.47216
3.47768
3.46683
3.46188
3.45521
3.45731
3.46217
3.48246
3.48958
3.39515
3.41754
3.42142
3.41706
3.41748
3.41006
3.43803
3.43956
3.43947
3.44009
3.43891
3.44087
3.44067
3.43884
3.43927
3.43603
3.4448
3.4419
3.4431
3.44112
3.43167
3.42911
3.42885
3.43076
3.43031
3.43258
3.43268
3.43194
3.4284
3.4291
3.42359
3.42878
3.42857
3.43146
3.42525
3.4245
3.42443
3.43106
3.43461
3.43435
3.43304
3.43438
3.57841
3.56828
3.48356
3.48366
3.49298
3.49759
3.63178
3.63439
3.61517
3.60156
3.59074
3.5903
3.59028
3.58483
3.5612
3.59618
3.577
3.49327
3.49824
3.51397
3.49167
3.45723
3.46322
3.46109
3.46932
3.46576
3.46065
3.45545
3.45574
3.44723
3.46489
3.46102
3.45677
3.48244
3.49129
3.49732
3.5007
3.47105
3.47668
3.47104
3.54183
3.54855
3.53569
3.54206
3.53572
3.56888
3.58143
3.56455
3.55246
3.57587
3.57109
3.57714
3.56929
3.52287
3.51689
3.536
3.55256
3.55438
3.54713
3.54657
3.54292
3.55709
3.55676
3.57218
3.60113
3.57698
3.60623
3.59705
3.60555
3.58046
3.60893
3.40138
3.41046
3.38576
3.38791
3.39008
3.39432
3.3894
3.40495
3.39689
3.39972
3.4023
3.39361
3.43803
3.4402
3.45075
3.42051
3.4146
3.45145
3.46066
3.39942
3.40019
3.38832
3.38963
3.43939
3.43854
3.44007
3.44715
3.45033
3.44721
3.4429
3.44505
3.4432
3.4489
3.43996
3.44138
3.44461
3.44055
3.44242
3.44294
3.44591
3.44353
3.44094
3.4434
3.44009
3.44014
3.52487
3.52146
3.53292
3.52226
3.52398
3.53109
3.51919
3.52169
3.5184
3.51538
3.4996
3.4941
3.5254
3.51178
3.42749
3.42307
3.42815
3.43281
3.43254
3.43565
3.43235
3.43373
3.4318
3.43286
3.40029
3.41243
3.41209
3.39655
3.4046
3.39823
3.38686
3.40682
3.4069
3.40107
3.42409
3.41933
3.42131
3.42356
3.42264
3.41668
3.41481
3.4587
3.4705
3.45973
3.45166
3.43176
3.45143
3.44199
3.44934
3.43298
3.4439
3.50706
3.47887
3.51975
3.50414
3.47904
3.48959
3.51194
3.50299
3.49773
3.50085
3.50095
3.47545
3.49188
3.46387
3.49811
3.48111
3.46806
3.47245
3.389
3.39404
3.39813
3.40267
3.38948
3.38762
3.35376
3.35319
3.36417
3.39008
3.3943
3.40276
3.39235
3.39619
3.38356
3.38703
3.40178
3.40628
3.40068
3.40546
3.3679
3.37781
3.39229
3.37343
3.36626
3.37897
3.37687
3.38788
3.37589
3.44609
3.44877
3.44793
3.45124
3.45628
3.46601
3.47139
3.46083
3.44688
3.44314
3.45207
3.45209
3.45758
3.46197
3.4533
3.453
3.45038
3.44993
3.4506
3.44769
3.45406
3.44658
3.44028
3.44701
3.43877
3.43752
3.43814
3.4402
3.4404
3.44041
3.43684
3.443
3.44179
3.43683
3.43658
3.43854
3.43762
3.4447
3.43689
3.43642
3.43663
3.46759
3.46702
3.48622
3.49301
3.49063
3.49117
3.48072
3.48705
3.48889
3.41402
3.41969
3.42144
3.42014
3.41931
3.4182
3.42702
3.42977
3.43115
3.42616
3.43012
3.42776
3.42204
3.4222
3.42369
3.42387
3.42583
3.42549
3.4265
3.42724
3.42658
3.43039
3.43001
3.35463
3.36515
3.36002
3.36909
3.34775
3.34168
3.37147
3.35147
3.36738
3.34854
3.35619
3.40551
3.41537
3.40026
3.39428
3.38919
3.42073
3.42516
3.47098
3.48107
3.47117
3.4685
3.4599
3.45936
3.46345
3.47192
3.48064
3.46623
3.47446
3.46962
3.47072
3.46552
3.44872
3.45243
3.46057
3.46196
3.44572
3.45955
3.45419
3.46257
3.46205
3.45135
3.45173
3.46177
3.45697
3.45755
3.45174
3.4584
3.46616
3.45228
3.44596
3.44635
3.44625
3.43981
3.43488
3.44288
3.43819
3.4403
3.43834
3.44791
3.44503
3.44244
3.44088
3.44214
3.442
3.44821
3.45027
3.43718
3.44005
3.44349
3.44209
3.33293
3.3457
3.33963
3.35382
3.42781
3.44157
3.45207
3.44785
3.46312
3.46371
3.46342
3.44932
3.40536
3.4088
3.40913
3.41125
3.41619
3.41424
3.41344
3.41643
3.4203
3.41861
3.41019
3.41369
3.41141
3.40985
3.41295
3.40305
3.40355
3.39375
3.40676
3.41126
3.42499
3.42488
3.42889
3.43128
3.43124
3.43029
3.43399
3.43448
3.43302
3.43513
3.43069
3.43199
3.4337
3.43418
3.4338
3.43562
3.4278
3.43187
3.43
3.43405
3.43348
3.43088
3.43092
3.4506
3.46564
3.4725
3.47123
3.46404
3.45243
3.45245
3.45886
3.45755
3.46511
3.45738
3.4648
3.46002
3.45716
3.45914
3.46369
3.45395
3.46383
3.46017
3.39316
3.36802
3.38383
3.38804
3.3668
3.38061
3.42552
3.40879
3.44681
3.45395
3.45285
3.42965
3.4318
3.42789
3.43099
3.42736
3.43771
3.43363
3.4397
3.43719
3.43145
3.42871
3.43263
3.4324
3.43433
3.4399
3.44196
3.43204
3.43844
3.30081
3.30879
3.32119
3.31642
3.33645
3.3476
3.33184
3.38328
3.38714
3.37364
3.3702
3.37276
3.36876
3.36541
3.35245
3.37023
3.36573
3.3709
3.37699
3.36682
3.36188
3.33652
3.34645
3.34142
3.33038
3.33333
3.32099
3.32241
3.34286
3.33924
3.35143
3.32155
3.33489
3.41031
3.41557
3.41521
3.41515
3.41797
3.42266
3.41824
3.41988
3.41925
3.42082
3.41688
3.42172
3.42109
3.4221
3.42414
3.36589
3.37924
3.38812
3.3974
3.38927
3.40039
3.38875
3.38366
3.40895
3.40723
3.40506
3.41593
3.39625
3.4062
3.39357
3.38884
3.43256
3.44873
3.43205
3.42001
3.42189
3.42633
3.44452
3.44703
3.45104
3.45326
3.43035
3.4256
3.44426
3.44992
3.44795
3.45845
3.44147
3.45714
3.45416
3.45885
3.45276
3.46003
3.44558
3.45323
3.45064
3.45268
3.3884
3.38926
3.38148
3.35265
3.35374
3.36174
3.35376
3.33752
3.33825
3.389
3.38919
3.38864
3.37802
3.37904
3.29047
3.28887
3.31395
3.31603
3.32431
3.30794
3.32467
3.33096
3.43217
3.43308
3.426
3.42989
3.43279
3.43329
3.42957
3.43938
3.43482
3.4355
3.43473
3.43877
3.42186
3.43213
3.43133
3.41645
3.421
3.42193
3.4209
3.42031
3.42072
3.42141
3.41934
3.42047
3.4145
3.42023
3.41966
3.42672
3.42382
3.42527
3.41822
3.41659
3.42129
3.41998
3.37499
3.37168
3.39757
3.3932
3.39818
3.3878
3.37905
3.44976
3.44135
3.43731
3.42583
3.45679
3.43395
3.43937
3.4373
3.44268
3.43819
3.43085
3.42288
3.43675
3.42115
3.44484
3.43656
3.43571
3.43788
3.4404
3.42802
3.43114
3.44611
3.4487
3.45269
3.45674
3.45442
3.44782
3.43328
3.44232
3.40811
3.40923
3.4138
3.41238
3.41034
3.40841
3.41068
3.40902
3.40614
3.40964
3.41142
3.40676
3.39811
3.40363
3.40491
3.28453
3.29602
3.29637
3.2948
3.30315
3.29787
3.31837
3.43446
3.42325
3.42907
3.43185
3.43342
3.42612
3.41959
3.42574
3.42545
3.28486
3.32451
3.29904
3.28698
3.30008
3.28298
3.2918
3.3138
3.28326
3.31551
3.29752
3.29363
3.30294
3.39661
3.39261
3.38026
3.38591
3.38127
3.35822
3.36494
3.36154
3.35037
3.34546
3.26498
3.26262
3.2737
3.26411
3.27372
3.27971
3.27291
3.26436
3.27262
3.27612
3.28185
3.28563
3.27305
3.27837
3.27732
3.27886
3.28866
3.38273
3.41162
3.42346
3.33206
3.32632
3.341
3.36327
3.35796
3.31175
3.32014
3.30978
3.30685
3.31753
3.32345
3.31129
3.28365
3.28932
3.41625
3.40874
3.4084
3.42645
3.4304
3.4189
3.40647
3.41646
3.40143
3.42729
3.42389
3.41543
3.36623
3.36392
3.37525
3.37437
3.37548
3.36813
3.37258
3.38298
3.38652
3.38098
3.38488
3.38928
3.44332
3.42599
3.44476
3.43001
3.43952
3.301
3.28836
3.27998
3.2946
3.27165
3.27056
3.27687
3.28393
3.2687
3.27909
3.27371
3.27914
3.26921
3.28355
3.27206
3.27814
3.29016
3.27941
3.2874
3.28298
3.29133
3.42225
3.43985
3.4358
3.43156
3.43318
3.43193
3.42508
3.42306
3.42785
3.42914
3.42479
3.4259
3.4246
3.31179
3.30475
3.4479
3.45186
3.44188
3.45465
3.45734
3.44993
3.45894
3.44884
3.45243
3.44669
3.4398
3.44623
3.44262
3.44252
3.44039
3.43594
3.45391
3.44562
3.45377
3.44922
3.45162
3.44297
3.4569
3.45456
3.45004
3.44732
3.46502
3.45517
3.44224
3.43943
3.44369
3.45225
3.46196
3.45648
3.47375
3.45839
3.46106
3.45114
3.45871
3.45119
3.43971
3.44665
3.43566
3.45225
3.43209
3.43937
3.45318
3.44419
3.43615
3.43393
3.44532
3.44876
3.43196
3.43224
3.42203
3.44369
3.43653
3.43427
3.42618
3.42653
3.43487
3.445
3.43717
3.44694
3.44054
3.41153
3.41177
3.41401
3.41406
3.41465
3.41143
3.41276
3.41607
3.41734
3.41473
3.41527
3.40835
3.40393
3.40791
3.41164
3.40759
3.39336
3.39893
3.40224
3.40404
3.40806
3.34164
3.31899
3.32115
3.32542
3.30809
3.30989
3.31064
3.31832
3.31234
3.32161
3.31017
3.32517
3.33559
3.33937
3.33449
3.32727
3.32525
3.30144
3.30591
3.30938
3.29606
3.28525
3.32193
3.31901
3.29748
3.29916
3.29313
3.2855
3.29215
3.30842
3.29798
3.31681
3.29848
3.29259
3.30424
3.29609
3.31271
3.44455
3.43261
3.43898
3.43304
3.43764
3.43452
3.42545
3.42795
3.43096
3.42082
3.42559
3.42329
3.4242
3.42108
3.42455
3.42502
3.42123
3.34334
3.36334
3.33115
3.34053
3.34884
3.35452
3.34786
3.34313
3.36002
3.37751
3.34845
3.3639
3.34307
3.36339
3.34898
3.35408
3.37579
3.3845
3.44897
3.45976
3.45731
3.44942
3.45291
3.46869
3.45879
3.46837
3.45686
3.44426
3.46489
3.46916
3.45193
3.45553
3.45182
3.4588
3.45211
3.46003
3.45446
3.44806
3.44674
3.45209
3.43822
3.44178
3.45991
3.46192
3.44801
3.45626
3.44696
3.46698
3.45879
3.42762
3.42857
3.42673
3.42783
3.42738
3.43011
3.42618
3.42697
3.42844
3.42912
3.42623
3.42208
3.41441
3.41584
3.41445
3.41379
3.41088
3.407
3.40718
3.40093
3.4091
3.4102
3.4064
3.40328
3.40675
3.38823
3.40214
3.40149
3.40382
3.38848
3.38635
3.39938
3.40434
3.41494
3.40507
3.41148
3.40814
3.41157
3.40715
3.4096
3.40834
3.44871
3.46328
3.46116
3.47418
3.47209
3.4598
3.44934
3.44393
3.44888
3.42066
3.42853
3.44764
3.43039
3.43153
3.41887
3.45383
3.44181
3.41552
3.43549
3.4178
3.42007
3.43216
3.42959
3.43743
3.45343
3.43201
3.43711
3.45724
3.44534
3.45142
3.45062
3.36584
3.35979
3.36337
3.35476
3.35321
3.35947
3.3532
3.34872
3.34442
3.36074
3.3696
3.4483
3.45219
3.44795
3.45015
3.44683
3.4399
3.44411
3.45115
3.44364
3.44488
3.43223
3.4484
3.44436
3.43871
3.44161
3.44159
3.44264
3.43768
3.43554
3.43729
3.43934
3.44735
3.4381
3.44834
3.44348
3.44069
3.4455
3.45068
3.44052
3.43449
3.44892
3.44119
3.44628
3.43946
3.4374
3.43472
3.4467
3.43711
3.43735
3.44125
3.43762
3.44775
3.44184
3.43926
3.43234
3.44352
3.45309
3.44119
3.44221
3.44573
3.45079
3.44816
3.46461
3.46282
3.47425
3.47796
3.45736
3.47306
3.47609
3.46035
3.46037
3.47013
3.46608
3.47351
3.47951
3.46626
3.45711
3.45298
3.45153
3.47208
3.46496
3.4732
3.4836
3.49495
3.46816
3.48209
3.47766
3.48568
3.47975
3.46709
3.46738
3.46884
3.46373
3.48987
3.46254
3.48743
3.46754
3.50176
3.50181
3.48029
3.47733
3.46269
3.46147
3.43817
3.43707
3.43899
3.43731
3.44737
3.44175
3.43584
3.44424
3.44259
3.44341
3.44358
3.44096
3.44479
3.44927
3.44694
3.4491
3.44328
3.44921
3.44408
3.44074
3.43934
3.44983
3.34604
3.34284
3.34444
3.32989
3.34783
3.34557
3.34728
3.35823
3.35013
3.37322
3.38838
3.43239
3.43709
3.40027
3.41621
3.40993
3.41909
3.40748
3.43143
3.51186
3.50578
3.5168
3.51616
3.51116
3.50865
3.50443
3.48591
3.43848
3.44248
3.44528
3.44538
3.44728
3.44145
3.43739
3.44181
3.4404
3.44181
3.44224
3.43883
3.43784
3.44008
3.40576
3.41937
3.45048
3.42329
3.41211
3.41559
3.42501
3.43259
3.43329
3.43978
3.38613
3.38539
3.3872
3.37688
3.36616
3.38031
3.399
3.38987
3.39454
3.40974
3.39734
3.38156
3.38112
3.41552
3.41427
3.41333
3.40664
3.40885
3.40925
3.40885
3.56739
3.57763
3.57363
3.56323
3.58255
3.59562
3.56448
3.55431
3.59205
3.59884
3.60631
3.59663
3.54422
3.55372
3.54581
3.54536
3.51313
3.55108
3.54434
3.55389
3.54481
3.54685
3.44207
3.45163
3.45378
3.4577
3.4672
3.4585
3.46289
3.46492
3.45463
3.44625
3.46346
3.46933
3.48501
3.47897
3.49926
3.4983
3.49664
3.49677
3.48965
3.48655
3.50528
3.49699
3.4869
3.46205
3.47078
3.49351
3.48927
3.48584
3.45931
3.49157
3.47651
3.46361
3.57707
3.57463
3.58153
3.59587
3.60076
3.60348
3.61485
3.6118
3.59136
3.43386
3.4349
3.43607
3.43693
3.43551
3.43442
3.43699
3.43347
3.43083
3.43492
3.43084
3.42822
3.43071
3.42588
3.43074
3.43108
3.43404
3.43325
3.4324
3.42944
3.42778
3.43949
3.44008
3.43903
3.43934
3.4413
3.43748
3.43702
3.44132
3.43859
3.43782
3.43941
3.43855
3.43622
3.43807
3.44163
3.44301
3.44089
3.44192
3.44044
3.43779
3.44311
3.43892
3.43764
3.43743
3.44328
3.43888
3.44299
3.4415
3.44127
3.43984
3.44103
3.43929
3.44221
3.44072
3.44101
3.44124
3.43829
3.43993
3.43904
3.44088
3.43887
3.43969
3.43957
3.43705
3.43985
3.43649
3.43568
3.4362
3.4396
3.43662
3.43777
3.43827
3.43928
3.43745
3.43606
3.43705
3.43745
3.43386
3.43632
3.43832
3.43763
3.43837
3.43817
3.47551
3.50356
3.50537
3.51789
3.48012
3.46586
3.48215
3.45923
3.4498
3.47311
3.46584
3.47793
3.47144
3.46751
3.46422
3.46687
3.46198
3.46072
3.47062
3.44935
3.46362
3.45176
3.46941
3.4702
3.45437
3.45246
3.44993
3.44897
3.45256
3.45235
3.4478
3.4563
3.45562
3.44941
3.44617
3.46407
3.46638
3.45015
3.46017
3.44596
3.43962
3.44038
3.62457
3.62988
3.61444
3.44813
3.44751
3.44957
3.45148
3.44113
3.44954
3.44666
3.44406
3.43811
3.43633
3.43808
3.43708
3.4351
3.4353
3.43769
3.4387
3.43717
3.43472
3.43453
3.43521
3.4369
3.58228
3.57229
3.57602
3.57938
3.52572
3.56838
3.57403
3.56378
3.56954
3.54192
3.43717
3.42522
3.4328
3.42811
3.42861
3.43027
3.43227
3.677
3.67267
3.6721
3.66672
3.64061
3.68446
3.68865
3.66123
3.64552
3.63778
3.63221
3.63835
3.61099
3.6069
3.64497
3.63788
3.64812
3.62951
3.61757
3.61572
3.6414
3.633
3.4382
3.43738
3.43641
3.43885
3.43451
3.43993
3.43499
3.43401
3.44163
3.43943
3.44109
3.44147
3.44075
3.43815
3.71929
3.71326
3.7077
3.71381
3.59733
3.58098
3.54884
3.60002
3.59638
3.58178
3.57055
3.55509
3.55637
3.62779
3.60378
3.59075
3.6177
3.62547
3.6344
3.63659
3.61309
3.61457
3.63089
3.62339
3.59694
3.59145
3.63551
3.63504
3.6961
3.70171
3.70196
3.71587
3.70955
3.69117
3.69187
3.71669
3.71111
3.7046
3.70249
3.71207
3.69645
3.46096
3.45646
3.46852
3.48646
3.45886
3.46174
3.4608
3.45806
3.45498
3.55624
3.55073
3.58269
3.58053
3.59326
3.58766
3.60123
3.61042
3.56147
3.57941
3.57193
3.57197
3.56769
3.43181
3.43176
3.42937
3.72224
3.71208
3.70837
3.71877
3.70754
3.71094
3.72688
3.71623
3.72454
3.71345
3.71866
3.71097
3.70623
3.6456
3.63557
3.64321
3.62338
3.62901
3.63567
3.63796
3.63361
3.63112
3.45845
3.45374
3.44941
3.44848
3.44885
3.4536
3.45054
3.52574
3.5132
3.52285
3.52589
3.49519
3.46884
3.51151
3.4964
3.43782
3.44488
3.44275
3.43957
3.4351
3.44546
3.44216
3.44132
3.44004
3.44023
3.32565
3.34478
3.31858
3.31693
3.31275
3.33996
3.32376
3.3282
3.32616
3.3415
3.33748
3.32084
3.31649
3.33304
3.33036
3.43371
3.43542
3.43514
3.4341
3.43328
3.43539
3.43577
3.43402
3.43354
3.43732
3.49682
3.48292
3.50557
3.51353
3.50504
3.53423
3.51064
3.48968
3.51452
3.51771
3.52444
3.52251
3.52444
3.52329
3.32719
3.32463
3.34712
3.35884
3.36
3.3413
3.32041
3.31499
3.32847
3.33917
3.33999
3.33236
3.43655
3.44168
3.45055
3.44255
3.44811
3.44482
3.43029
3.45298
3.43683
3.443
3.43767
3.62064
3.63952
3.62524
3.64808
3.48997
3.49786
3.51402
3.49664
3.50519
3.48152
3.48447
3.5052
3.51777
3.51165
3.51437
3.4881
3.48185
3.47692
3.47036
3.47667
3.48
3.57886
3.60954
3.58765
3.6166
3.63054
3.64406
3.62693
3.69802
3.69678
3.68048
3.6866
3.6989
3.70443
3.70627
3.68328
3.67606
3.70924
3.70246
3.68044
3.69856
3.69381
3.44828
3.4483
3.44759
3.44591
3.4382
3.43415
3.43471
3.43577
3.44113
3.43761
3.44389
3.43439
3.43625
3.43637
3.44455
3.4455
3.44731
3.44303
3.51893
3.51674
3.52592
3.55408
3.4364
3.43007
3.42152
3.42659
3.44438
3.42531
3.42187
3.4297
3.42899
3.43028
3.4335
3.42969
3.42742
3.43245
3.43501
3.42921
3.42771
3.43397
3.43057
3.43955
3.4328
3.4359
3.42999
3.43062
3.43547
3.43226
3.43811
3.53002
3.55424
3.54917
3.55541
3.55316
3.56991
3.56843
3.55054
3.57365
3.57318
3.54642
3.43642
3.43731
3.43533
3.43202
3.43969
3.43725
3.43776
3.43816
3.43898
3.41692
3.42733
3.57287
3.4657
3.45223
3.46243
3.46197
3.46696
3.46116
3.45359
3.47005
3.45676
3.45739
3.45348
3.44093
3.42985
3.4165
3.42407
3.41909
3.414
3.41712
3.41439
3.42202
3.42131
3.42147
3.42369
3.41456
3.41613
3.4343
3.43165
3.43328
3.43576
3.43488
3.43271
3.43669
3.43599
3.43399
3.43088
3.43396
3.43414
3.46312
3.48801
3.47641
3.48287
3.46678
3.47446
3.47118
3.47767
3.47932
3.46711
3.47826
3.48421
3.47488
3.54084
3.53803
3.55859
3.52856
3.52782
3.57069
3.53794
3.54196
3.53166
3.53299
3.5157
3.52184
3.53537
3.55084
3.53511
3.53311
3.41285
3.40955
3.39724
3.41558
3.41483
3.39693
3.40287
3.39925
3.41431
3.4156
3.4144
3.41116
3.42732
3.4141
3.47192
3.48928
3.47417
3.53574
3.50836
3.48348
3.50735
3.51543
3.43621
3.43878
3.52809
3.51665
3.43351
3.42828
3.42705
3.43109
3.43226
3.42937
3.42914
3.43171
3.42785
3.42756
3.41922
3.41407
3.41973
3.4103
3.41148
3.42312
3.42825
3.41153
3.41519
3.42095
3.42097
3.39327
3.40058
3.38601
3.39184
3.39376
3.39985
3.38433
3.39008
3.39114
3.39055
3.38614
3.38881
3.43643
3.43398
3.49143
3.48693
3.49794
3.49048
3.50093
3.49982
3.50256
3.48886
3.48638
3.49145
3.47724
3.47853
3.4884
3.48399
3.48179
3.4804
3.4939
3.47575
3.47338
3.42312
3.43209
3.4241
3.44901
3.45742
3.44964
3.4356
3.44628
3.4466
3.44089
3.44141
3.45457
3.43962
3.4504
3.44683
3.45371
3.45305
3.43656
3.43036
3.43678
3.44295
3.43715
3.43904
3.4348
3.44223
3.44811
3.44318
3.43867
3.43806
3.44075
3.44637
3.443
3.44218
3.44908
3.45287
3.46466
3.44669
3.45202
3.46861
3.4576
3.47426
3.46038
3.42694
3.42786
3.42939
3.42996
3.42866
3.42878
3.42512
3.42613
3.43112
3.43034
3.43507
3.43395
3.43602
3.43387
3.43641
3.43373
3.43587
3.43076
3.4325
3.43234
3.43455
3.43486
3.43486
3.43443
3.43192
3.43343
3.42719
3.43218
3.43363
3.42961
3.40546
3.42173
3.4246
3.41637
3.39382
3.42262
3.42589
3.41052
3.41722
3.416
3.4084
3.43342
3.43541
3.43623
3.43103
3.43683
3.43834
3.43594
3.43602
3.43601
3.43802
3.43746
3.39184
3.39112
3.38073
3.38012
3.39682
3.39101
3.39906
3.39359
3.40874
3.37743
3.38143
3.39503
3.3962
3.40196
3.40646
3.38721
3.39655
3.40176
3.4055
3.3777
3.38171
3.39604
3.37875
3.37908
3.39277
3.40246
3.39133
3.39078
3.34607
3.33108
3.40722
3.41565
3.45328
3.43784
3.44319
3.43424
3.44665
3.45196
3.44007
3.44882
3.43566
3.4532
3.44233
3.31567
3.30232
3.30652
3.29325
3.29253
3.30014
3.29676
3.31406
3.31025
3.32311
3.41859
3.41781
3.41271
3.41266
3.41976
3.41841
3.41565
3.41817
3.41803
3.43225
3.42485
3.42696
3.42496
3.42814
3.42848
3.42821
3.42636
3.42244
3.41703
3.43397
3.44374
3.43166
3.43355
3.44425
3.43496
3.38648
3.40175
3.40043
3.3903
3.39977
3.40596
3.40339
3.4073
3.37023
3.35758
3.35504
3.33757
3.34667
3.3952
3.37483
3.41058
3.40001
3.39696
3.38633
3.3903
3.37714
3.37949
3.38231
3.39683
3.40164
3.41905
3.42541
3.42791
3.29572
3.29582
3.42255
3.42171
3.42655
3.42877
3.42152
3.42237
3.42315
3.42827
3.42847
3.42446
3.42214
3.42404
3.42151
3.41823
3.42224
3.29899
3.30928
3.31221
3.32979
3.30316
3.32308
3.30323
3.31362
3.31307
3.32657
3.32531
3.32121
3.33874
3.34227
3.33198
3.42316
3.4249
3.4295
3.43878
3.44415
3.44542
3.4519
3.44433
3.43912
3.4519
3.45244
3.45886
3.4483
3.43988
3.42979
3.42662