/*--------------------------------*- C++ -*----------------------------------*\
| =========                 |                                                 |
| \\      /  F ield         | OpenFOAM: The Open Source CFD Toolbox           |
|  \\    /   O peration     | Version:  v1612+                                |
|   \\  /    A nd           | Web:      www.OpenFOAM.com                      |
|    \\/     M anipulation  |                                                 |
\*---------------------------------------------------------------------------*/
FoamFile
{
    version     2.0;
    format      ascii;
    class       volVectorField;
    location    "200";
    object      U;
}
// * * * * * * * * * * * * * * * * * * * * * * * * * * * * * * * * * * * * * //

dimensions      [0 1 -1 0 0 0 0];

internalField   nonuniform List<vector> 
16902
(
(0.00751633 0.0803129 -0.531732)
(0.0773285 0.0450885 -0.410347)
(0.175361 0.341718 -0.986753)
(0.287425 0.0635845 -0.66579)
(0.281649 0.245934 -0.882725)
(-0.0366233 0.214039 -0.523649)
(-0.0395105 0.219996 -0.564214)
(-0.0332339 0.203041 -0.498021)
(-0.0219624 0.220486 -0.561029)
(-0.0269754 0.226882 -0.571418)
(-0.0382168 0.194534 -0.463229)
(-0.0274105 0.217789 -0.53661)
(-0.0249774 0.199058 -0.530166)
(0.0190888 0.224061 -0.453426)
(-0.0194673 0.215537 -0.519724)
(-0.0261859 0.21505 -0.504412)
(-0.0282917 0.234056 -0.571865)
(-0.029412 0.204043 -0.516841)
(-0.015038 0.20397 -0.494342)
(0.0178543 0.218992 -0.522698)
(-0.0182594 0.197197 -0.408503)
(-0.00432347 0.206637 -0.446341)
(0.0124715 0.222841 -0.476727)
(-0.0097307 0.215139 -0.439608)
(-0.00999153 0.203319 -0.476975)
(-0.0192682 0.235718 -0.57216)
(0.0187515 0.226609 -0.512034)
(0.240519 0.0703984 -0.764914)
(0.231863 0.0802215 -0.771573)
(0.202986 0.153014 -0.838914)
(0.252979 0.0392188 -0.730746)
(0.276179 0.0670104 -0.735551)
(0.276612 0.0420176 -0.702034)
(0.198381 0.189801 -0.869557)
(0.220906 0.198088 -0.872236)
(0.24148 0.0868358 -0.769252)
(0.302274 0.124498 -0.788436)
(0.318677 0.0877054 -0.751991)
(0.308555 0.12164 -0.791217)
(0.305716 0.141145 -0.812688)
(0.280428 0.125799 -0.788825)
(0.296176 0.0766204 -0.730903)
(0.29849 0.0321539 -0.681771)
(0.163034 0.337817 -1.01092)
(0.229894 0.299943 -0.964311)
(0.212284 0.320944 -0.964565)
(0.227537 0.280944 -0.955368)
(0.182871 0.333954 -1.01003)
(0.329388 0.224557 -0.875894)
(0.283427 0.27227 -0.931626)
(0.330102 0.250981 -0.891767)
(0.338146 0.297005 -0.917962)
(0.280277 0.321099 -0.8943)
(0.346096 0.270732 -0.876667)
(0.297468 0.28994 -0.895425)
(0.303574 0.298139 -0.925482)
(0.355779 0.237371 -0.831479)
(0.0273251 0.140982 -0.192716)
(0.0225467 0.137553 -0.180074)
(0.0197528 0.132273 -0.151812)
(0.0322951 0.140169 -0.251698)
(0.0324469 0.142021 -0.261325)
(0.0269899 0.140068 -0.218995)
(0.0243227 0.139781 -0.240564)
(0.026256 0.147094 -0.252357)
(0.0275582 0.146625 -0.250661)
(0.0245524 0.143586 -0.205175)
(0.0195971 0.141214 -0.204748)
(0.0244818 0.145524 -0.170636)
(0.0203932 0.147105 -0.181875)
(0.0164036 0.138647 -0.150949)
(0.0135138 0.134981 -0.154293)
(0.0503569 0.0612555 -0.324642)
(0.0376441 0.0746882 -0.307343)
(0.055112 0.0660134 -0.300871)
(0.0390518 0.0798 -0.41624)
(0.040293 0.0875343 -0.46368)
(0.0369546 0.074606 -0.285337)
(0.052309 0.0829467 -0.478163)
(0.0559679 0.0684592 -0.350183)
(0.067676 0.0570877 -0.333815)
(0.0380594 0.0859272 -0.377001)
(0.0571362 0.0864047 -0.450223)
(0.0421584 0.0775172 -0.301738)
(0.0513229 0.0899173 -0.385069)
(0.0857921 0.277744 -0.686174)
(0.111302 0.275086 -0.697111)
(0.100125 0.333627 -0.826416)
(0.12458 0.332445 -0.839018)
(-0.0505292 0.144939 -0.679715)
(-0.0369594 0.116077 -0.632501)
(-0.0436941 0.178583 -0.772421)
(-0.032271 0.144068 -0.715981)
(-0.0700618 0.233907 -0.857404)
(-0.0408071 0.187722 -0.843133)
(-0.0166412 0.0826272 -0.629357)
(-0.0254996 0.161654 -0.792616)
(-0.00625146 0.107333 -0.727907)
(0.000958939 0.0648299 -0.634845)
(0.151503 0.211643 -0.339244)
(0.161116 0.218235 -0.316955)
(0.175108 0.229315 -0.360769)
(0.166861 0.23476 -0.399002)
(0.117343 0.196122 -0.266725)
(0.140224 0.206844 -0.277128)
(0.117193 0.195904 -0.301367)
(0.146008 0.230013 -0.376956)
(0.103198 0.220858 -0.460185)
(0.100944 0.226213 -0.423983)
(0.130206 0.217551 -0.314405)
(0.0558782 0.1912 -0.398078)
(0.063439 0.196367 -0.391431)
(0.0923505 0.191258 -0.274696)
(0.089656 0.190797 -0.303085)
(0.0940546 0.202047 -0.317719)
(0.0165178 0.283819 -0.673304)
(0.0423195 0.282902 -0.648437)
(0.0199727 0.2545 -0.576231)
(0.0363939 0.277351 -0.618762)
(0.0397202 0.250127 -0.545064)
(-0.0434403 0.321633 -0.780791)
(-0.0584721 0.31895 -0.768378)
(-0.0661168 0.301148 -0.748848)
(-0.0165985 0.241448 -0.58889)
(0.00792746 0.248558 -0.534227)
(-0.015818 0.248344 -0.565651)
(0.0289546 0.237531 -0.526366)
(0.0210441 0.274399 -0.58974)
(0.00810319 0.28666 -0.665525)
(0.14042 0.288456 -0.96718)
(0.0819084 0.326078 -0.99393)
(0.0678088 0.342608 -1.02026)
(0.0667213 0.368822 -1.03645)
(0.212912 0.252106 -0.927872)
(0.188365 0.242815 -0.913232)
(0.155362 0.295415 -0.952938)
(0.0661459 0.324835 -0.986809)
(0.0618824 0.360865 -1.04185)
(0.139171 0.327146 -0.983735)
(0.119886 0.333041 -0.98337)
(0.129703 0.329232 -1.00073)
(0.172173 0.300068 -0.988064)
(0.166324 0.272438 -0.948606)
(0.187299 0.304995 -0.991717)
(0.213749 0.271566 -0.952965)
(0.04485 0.208925 -0.504573)
(-0.00750939 0.231497 -0.650074)
(-0.00543294 0.226823 -0.618495)
(-0.00757537 0.165413 -0.473405)
(-0.00572575 0.203765 -0.542436)
(0.0507345 0.229565 -0.54019)
(-0.00651372 0.232332 -0.637701)
(-0.00561746 0.23662 -0.649487)
(0.0304915 0.219983 -0.556489)
(0.0446162 0.220492 -0.541011)
(0.0122185 0.225654 -0.528898)
(0.00023235 0.167737 -0.419751)
(0.0167189 0.181328 -0.453368)
(0.0070203 0.182372 -0.484543)
(0.0228949 0.356729 -0.958531)
(0.0180779 0.355885 -1.01327)
(0.0302683 0.338137 -1.0688)
(0.0344013 0.297777 -0.999657)
(-0.00770175 0.328664 -0.955456)
(-0.0117052 0.331359 -0.93537)
(-0.0031203 0.334196 -0.914386)
(0.0512956 0.305437 -1.03882)
(0.0419682 0.344136 -1.05146)
(0.0293301 0.303351 -0.925542)
(0.0488713 0.288864 -0.990891)
(0.028246 0.314912 -0.981929)
(0.0490788 0.306278 -0.973205)
(0.0568396 0.306408 -1.02543)
(0.0657884 0.337884 -1.07314)
(0.0631608 0.342834 -1.0866)
(0.00687699 0.359421 -1.04503)
(0.0125183 0.341835 -0.960966)
(0.0235974 0.365696 -1.06462)
(0.042167 0.380373 -1.10606)
(0.055643 0.332703 -1.02482)
(0.0657266 0.326539 -1.08837)
(0.0558112 0.356717 -1.10188)
(-0.111173 0.387306 -1.07462)
(-0.132746 0.414802 -1.11729)
(-0.138354 0.415669 -1.09268)
(-0.136577 0.440639 -1.16435)
(-0.130981 0.387079 -1.05297)
(-0.124381 0.385429 -1.03593)
(-0.159639 0.433569 -1.10673)
(-0.150681 0.411743 -1.0621)
(-0.145177 0.399227 -1.05997)
(-0.150005 0.412009 -1.11377)
(-0.124367 0.393103 -1.08462)
(-0.135283 0.413762 -1.09435)
(-0.166519 0.413417 -1.08388)
(-0.180241 0.435806 -1.1406)
(-0.159444 0.398002 -1.04364)
(-0.147358 0.437449 -1.11866)
(-0.0416072 0.187725 -0.906729)
(-0.0128114 0.168654 -0.895467)
(-0.0850534 0.295296 -1.01188)
(-0.087449 0.284051 -1.00479)
(-0.105191 0.29537 -0.995009)
(-0.111072 0.317294 -1.02822)
(-0.0874248 0.257917 -0.956703)
(-0.0196634 0.19486 -0.944652)
(-0.014937 0.178602 -0.924879)
(-0.0536416 0.211847 -0.906914)
(-0.0307266 0.198583 -0.894445)
(-0.0895622 0.275855 -1.02264)
(-0.0570223 0.278416 -0.997706)
(-0.0606848 0.267302 -0.977081)
(-0.0746056 0.303618 -1.04592)
(-0.00985141 0.178839 -0.477239)
(-0.00663609 0.186093 -0.477386)
(-0.00135881 0.180649 -0.411522)
(-0.00374873 0.151971 -0.376574)
(0.00469536 0.154738 -0.444683)
(0.00487104 0.141276 -0.362023)
(-0.0157425 0.185829 -0.538991)
(-0.0104271 0.204224 -0.514373)
(0.00116517 0.171807 -0.455149)
(-0.000829266 0.141607 -0.416384)
(0.00510876 0.169004 -0.534677)
(0.00722734 0.180437 -0.55802)
(0.0298558 0.269843 -0.602718)
(0.0513593 0.236034 -0.520577)
(0.119138 0.384759 -1.12775)
(0.114928 0.386799 -1.12239)
(0.0924387 0.40356 -1.10814)
(0.166455 0.407855 -1.11429)
(0.179399 0.403961 -1.09224)
(0.141101 0.404503 -1.09659)
(0.0932831 0.39917 -1.14697)
(0.0461969 0.412286 -1.11875)
(0.135032 0.39178 -1.14888)
(0.15945 0.400093 -1.13863)
(0.127111 0.404675 -1.1083)
(0.159382 0.416376 -1.11939)
(0.19949 0.408941 -1.10154)
(0.150912 0.422504 -1.1137)
(0.162122 0.436761 -1.12734)
(0.0613331 0.399884 -1.15278)
(0.126901 0.415864 -1.16714)
(0.163552 0.424328 -1.16869)
(0.114989 0.416272 -1.12529)
(0.188409 0.408055 -1.11797)
(0.0921485 0.414941 -1.11385)
(0.125899 0.41597 -1.13811)
(0.166178 0.258597 -0.631639)
(0.1352 0.245006 -0.565124)
(0.252348 0.249287 -0.682727)
(0.295046 0.231936 -0.665331)
(0.164975 0.254693 -0.571732)
(0.127696 0.239762 -0.551664)
(0.15028 0.258793 -0.588435)
(0.292246 0.284114 -0.538482)
(0.30076 0.286458 -0.54588)
(0.350736 0.274505 -0.522819)
(0.202341 0.251145 -0.633941)
(0.274635 0.242321 -0.644117)
(0.28484 0.261388 -0.516323)
(0.223849 0.273236 -0.526298)
(0.275353 0.260845 -0.502356)
(0.339026 0.263121 -0.47727)
(0.292852 0.267882 -0.560693)
(0.0686009 0.275192 -0.446585)
(0.0717116 0.28273 -0.418407)
(0.0489212 0.253911 -0.483436)
(0.105486 0.300092 -0.471243)
(0.0646747 0.25945 -0.451062)
(0.00482875 0.208436 -0.354315)
(0.0234943 0.224512 -0.346282)
(0.0420215 0.257991 -0.382598)
(0.0608994 0.259139 -0.415081)
(-0.000353448 0.188756 -0.377829)
(0.0157616 0.195103 -0.354551)
(0.0125156 0.218545 -0.420399)
(0.227533 0.440997 -1.17752)
(0.21855 0.456489 -1.16539)
(0.128015 0.415043 -1.16498)
(0.0954271 0.433812 -1.15907)
(0.144545 0.401789 -1.17504)
(0.163927 0.391166 -1.1873)
(0.11199 0.414114 -1.12948)
(0.133202 0.405183 -1.15238)
(0.172143 0.434154 -1.19295)
(0.14696 0.449633 -1.17267)
(0.0908393 0.455182 -1.14381)
(0.117893 0.44291 -1.17223)
(0.171344 0.453999 -1.1543)
(0.195342 0.462687 -1.16195)
(0.161954 0.463235 -1.16209)
(0.213015 0.423818 -1.17)
(0.146547 0.412532 -1.19819)
(0.171515 0.401915 -1.19957)
(0.14237 0.436225 -1.17555)
(0.195718 0.29908 -0.301378)
(0.195822 0.308254 -0.292195)
(0.188677 0.292987 -0.267045)
(0.133674 0.260738 -0.216207)
(0.159701 0.254926 -0.200216)
(0.180884 0.268331 -0.244525)
(0.177105 0.264517 -0.223426)
(0.157207 0.293038 -0.372659)
(0.161293 0.298486 -0.367158)
(0.164408 0.304922 -0.356026)
(0.168891 0.273596 -0.230907)
(0.140211 0.275079 -0.24051)
(0.140277 0.264665 -0.236528)
(0.154286 0.288653 -0.317471)
(0.132931 0.274736 -0.301725)
(0.178367 0.215634 -0.692093)
(0.230071 0.195663 -0.6176)
(0.147367 0.230857 -0.713329)
(0.204821 0.212124 -0.594962)
(0.195232 0.220788 -0.68773)
(0.217614 0.206255 -0.713906)
(0.296477 0.171717 -0.48573)
(0.290524 0.188916 -0.51187)
(0.28707 0.166012 -0.583191)
(0.268898 0.18922 -0.596873)
(0.268529 0.175001 -0.525749)
(0.3053 0.14197 -0.456957)
(0.305284 0.144883 -0.543782)
(0.316134 0.123921 -0.476712)
(0.182832 0.207 -0.688092)
(0.190041 0.208862 -0.693211)
(0.230707 0.192381 -0.66486)
(0.306834 0.181626 -0.524469)
(0.314607 0.135961 -0.594553)
(0.316438 0.132417 -0.542864)
(0.213315 0.200112 -0.702172)
(0.318349 0.139672 -0.560638)
(0.30916 0.265167 -0.915825)
(0.329798 0.244443 -0.897666)
(0.250454 0.328305 -0.990254)
(0.352995 0.173907 -0.832916)
(0.348856 0.216043 -0.883231)
(0.229048 0.294195 -0.959078)
(0.346232 0.254833 -0.911675)
(0.342483 0.289868 -0.930747)
(0.316031 0.30395 -0.960899)
(0.367542 0.24694 -0.895306)
(0.34144 0.243558 -0.913168)
(0.171136 0.428485 -1.14609)
(0.124036 0.466771 -1.19288)
(0.182074 0.424033 -1.09963)
(0.157482 0.444969 -1.16548)
(0.166464 0.417331 -1.16138)
(0.1605 0.414856 -1.14989)
(0.181677 0.382973 -1.16374)
(0.18214 0.397083 -1.13554)
(0.129586 0.476984 -1.21335)
(0.126383 0.479607 -1.20252)
(0.124644 0.480739 -1.11874)
(0.165838 0.439537 -1.11078)
(0.113619 0.456339 -1.17135)
(0.137143 0.437637 -1.16235)
(0.10589 0.43593 -1.14655)
(0.180746 0.412454 -1.163)
(0.114064 0.475546 -1.21903)
(0.136585 0.477888 -1.22237)
(0.189586 0.390877 -1.15609)
(0.181315 0.414764 -1.11208)
(0.123795 0.460288 -1.21681)
(0.154253 0.439138 -1.198)
(0.177283 0.419687 -1.14154)
(0.184119 0.425514 -1.14574)
(0.118255 0.292516 -0.324863)
(0.115754 0.297244 -0.301439)
(0.120548 0.293511 -0.234966)
(0.11913 0.281986 -0.240931)
(0.149087 0.270522 -0.191576)
(0.115834 0.264862 -0.202228)
(0.0562777 0.263413 -0.277435)
(0.0731777 0.282007 -0.2904)
(0.10577 0.282494 -0.289313)
(0.0719317 0.250476 -0.255742)
(0.0621705 0.246753 -0.250692)
(0.108266 0.285693 -0.198057)
(0.0926851 0.256684 -0.17525)
(0.122562 0.289092 -0.220096)
(0.104634 0.26061 -0.192593)
(0.106671 0.261037 -0.184915)
(0.0766687 0.276652 -0.212114)
(0.0647554 0.251899 -0.193606)
(0.0800169 0.250234 -0.192209)
(0.0647106 0.246454 -0.202583)
(0.229353 0.232341 -0.591883)
(0.227481 0.221224 -0.502942)
(0.0765302 0.245359 -0.65867)
(0.0627316 0.243388 -0.684168)
(0.161517 0.233 -0.546378)
(0.110327 0.241767 -0.685081)
(0.0805996 0.236851 -0.613977)
(0.0794393 0.23655 -0.636376)
(0.1487 0.234349 -0.687175)
(0.12405 0.237339 -0.69054)
(0.156788 0.233764 -0.651256)
(0.223836 0.229991 -0.595037)
(0.214548 0.22357 -0.525333)
(0.177873 0.224842 -0.528009)
(0.201278 0.227421 -0.622022)
(0.12923 0.241566 -0.616348)
(0.42434 0.235128 -0.558103)
(0.420075 0.223087 -0.592427)
(0.424957 0.225895 -0.560874)
(0.437191 0.21108 -0.654239)
(0.435393 0.217752 -0.596446)
(0.414745 0.238425 -0.603534)
(0.428793 0.239796 -0.575413)
(0.434573 0.24664 -0.561809)
(0.429147 0.224827 -0.676457)
(0.420739 0.237475 -0.745913)
(0.346639 0.250444 -0.708746)
(0.355927 0.250153 -0.694784)
(0.435018 0.260164 -0.583074)
(0.412684 0.262385 -0.630105)
(0.417698 0.246473 -0.679935)
(0.360174 0.287571 -0.698987)
(0.327509 0.275704 -0.664407)
(0.379626 0.284266 -0.604754)
(0.342272 0.271315 -0.645999)
(0.352298 0.27723 -0.658273)
(0.018629 0.27518 -0.748331)
(0.0138409 0.268853 -0.738694)
(-0.0349 0.270043 -0.628517)
(0.0588253 0.266395 -0.703891)
(0.0357294 0.274377 -0.73359)
(-0.0119474 0.259515 -0.641573)
(-0.0196537 0.24502 -0.62494)
(-0.00263574 0.236619 -0.60602)
(0.0472169 0.261471 -0.659629)
(0.026874 0.233102 -0.581782)
(0.0360901 0.257198 -0.65884)
(-0.00796841 0.31866 -0.939432)
(-0.0128652 0.3606 -1.01706)
(-0.0412424 0.359604 -1.02217)
(-0.0451294 0.310635 -0.911119)
(-0.0197757 0.36251 -1.08983)
(-0.0124454 0.363171 -1.05947)
(-0.0295911 0.311621 -0.909461)
(-0.0214343 0.369293 -1.03454)
(-0.0492089 0.322218 -0.931206)
(-0.0171486 0.37388 -1.0635)
(-0.0219044 0.335696 -0.954202)
(-0.0317558 0.305107 -0.886176)
(-0.0245037 0.342392 -0.969866)
(-0.0239871 0.309597 -0.887269)
(-0.0341948 0.288708 -0.826436)
(-0.0289373 0.325261 -0.917907)
(0.0133336 0.281464 -0.757193)
(0.0093878 0.283647 -0.791077)
(-0.0116929 0.296004 -0.862402)
(-0.0228835 0.298403 -0.8253)
(0.0528135 0.259881 -0.734659)
(0.0811432 0.265458 -0.69928)
(0.0338145 0.262262 -0.705152)
(-0.00757704 0.297383 -0.916546)
(0.0215522 0.271635 -0.894455)
(-0.0273607 0.297717 -0.929349)
(0.0337289 0.267967 -0.845454)
(0.0750077 0.25745 -0.69812)
(0.0145792 0.258519 -0.699585)
(0.0660892 0.254213 -0.77628)
(-0.0177228 0.302252 -0.90068)
(0.034448 0.271701 -0.860975)
(-0.00622467 0.29866 -0.813551)
(0.0863338 0.262043 -0.706462)
(-0.00809545 0.311108 -0.834799)
(0.0430558 0.275148 -0.775865)
(0.152196 0.278401 -0.618756)
(0.0708626 0.244817 -0.626267)
(0.108538 0.273211 -0.582452)
(0.238369 0.278771 -0.742937)
(0.230258 0.287501 -0.773923)
(0.0798341 0.262054 -0.756519)
(0.14669 0.262348 -0.792044)
(0.182316 0.279487 -0.667738)
(0.0571484 0.254032 -0.626355)
(0.191624 0.290999 -0.764416)
(0.189481 0.282763 -0.729045)
(0.11351 0.271495 -0.798765)
(0.153081 0.270895 -0.81267)
(0.22692 0.273282 -0.79091)
(0.119216 0.265916 -0.623388)
(0.170693 0.284016 -0.633064)
(0.206388 0.256091 -0.772685)
(0.0733192 0.274457 -0.730864)
(0.221709 0.290551 -0.653635)
(0.192134 0.27094 -0.734651)
(0.279706 0.225986 -0.587592)
(0.255652 0.232362 -0.604884)
(0.127726 0.246133 -0.771106)
(0.172676 0.234707 -0.769659)
(0.14472 0.246746 -0.669661)
(0.263066 0.213012 -0.614727)
(0.246817 0.211501 -0.703555)
(0.10478 0.250254 -0.804217)
(0.178523 0.222324 -0.770575)
(0.270511 0.199201 -0.697922)
(0.144959 0.239061 -0.756939)
(0.232161 0.217049 -0.696755)
(0.0156423 0.327747 -0.745568)
(-0.0284065 0.285998 -0.656785)
(-0.0291558 0.259124 -0.632486)
(-0.00261687 0.281942 -0.69176)
(-0.00998747 0.357921 -0.782441)
(-0.045458 0.23412 -0.562364)
(-0.0205334 0.284652 -0.695376)
(-0.0518072 0.2301 -0.60308)
(-0.00767318 0.363186 -0.798165)
(-0.0369601 0.315828 -0.73434)
(-0.0408181 0.282425 -0.654954)
(-0.0611158 0.271883 -0.616763)
(0.00711429 0.370694 -0.806114)
(0.0383664 0.370882 -0.835141)
(-0.049031 0.263244 -0.622995)
(-0.00910213 0.316224 -0.713702)
(-0.0133127 0.396073 -0.830752)
(-0.0326527 0.317743 -0.72863)
(-0.0180098 0.388854 -0.834949)
(-0.0227195 0.400265 -0.808567)
(0.00159431 0.415284 -0.855562)
(0.196382 0.38914 -1.08619)
(0.235466 0.376109 -1.02151)
(0.150443 0.380677 -1.0965)
(0.157764 0.380237 -1.05979)
(0.169782 0.379227 -1.08975)
(0.213959 0.333102 -0.975905)
(0.218687 0.346799 -1.00888)
(0.204625 0.344557 -1.04125)
(0.228999 0.354285 -1.05001)
(0.105498 0.379474 -1.00904)
(0.145778 0.369952 -1.0426)
(0.131343 0.349676 -0.96132)
(0.139482 0.342804 -0.926118)
(0.144542 0.338462 -0.998704)
(0.179481 0.337538 -0.987669)
(0.218376 0.313304 -1.00908)
(0.0201955 0.159892 -0.43819)
(0.0240445 0.150762 -0.434029)
(0.0143655 0.145364 -0.29583)
(0.034156 0.135728 -0.29049)
(0.0147158 0.15232 -0.365721)
(0.0164167 0.152697 -0.387675)
(0.0125699 0.147205 -0.268081)
(0.0429549 0.153946 -0.378595)
(0.0373016 0.154719 -0.405416)
(0.0423166 0.140443 -0.385123)
(0.0160713 0.153417 -0.325572)
(0.0303 0.155086 -0.342644)
(0.0394612 0.141858 -0.309391)
(-0.010974 0.21081 -0.184523)
(-0.00660405 0.217833 -0.161906)
(-0.0084185 0.236427 -0.241706)
(-0.0148411 0.208769 -0.228633)
(-0.0130317 0.211795 -0.169104)
(-0.00972087 0.210419 -0.152176)
(-0.137821 0.334487 -0.987209)
(-0.134387 0.343016 -1.00172)
(-0.133353 0.309115 -0.954527)
(-0.17777 0.401128 -1.06232)
(-0.179768 0.384201 -1.05474)
(-0.146171 0.339372 -0.934385)
(-0.163072 0.384215 -1.04487)
(-0.164185 0.385291 -1.04501)
(-0.163501 0.376928 -1.01418)
(-0.0309295 0.221347 -0.635301)
(-0.016942 0.207876 -0.56359)
(-0.024767 0.187435 -0.548234)
(-0.0211148 0.17585 -0.52328)
(-0.0215213 0.147179 -0.502682)
(-0.0369007 0.259779 -0.707494)
(-0.0489424 0.278559 -0.768028)
(-0.057565 0.286907 -0.770249)
(-0.0189844 0.156899 -0.526335)
(-0.0566271 0.247558 -0.699133)
(-0.0803026 0.305637 -0.849959)
(-0.0310732 0.198322 -0.596302)
(-0.0326239 0.18267 -0.630211)
(-0.0322011 0.196955 -0.632595)
(-0.0716186 0.265158 -0.756413)
(-0.06284 0.281881 -0.812169)
(-0.038989 0.199826 -0.639945)
(-0.0591593 0.24421 -0.751996)
(-0.0934366 0.217989 -0.81693)
(-0.0950643 0.235 -0.83324)
(-0.0642165 0.114251 -0.665528)
(-0.0922674 0.210536 -0.810927)
(-0.0744088 0.11404 -0.635676)
(-0.0412972 0.0926838 -0.644128)
(-0.0416943 0.0832926 -0.600697)
(-0.0966229 0.231382 -0.772645)
(-0.089817 0.24186 -0.805274)
(-0.0788103 0.145551 -0.643609)
(-0.0302043 0.10618 -0.583831)
(-0.059872 0.211054 -0.81997)
(-0.0586408 0.13345 -0.604886)
(-0.0781613 0.182298 -0.678534)
(0.424431 0.251315 -0.583555)
(0.426135 0.247755 -0.532428)
(0.402114 0.280097 -0.489029)
(0.403455 0.257886 -0.44317)
(0.362844 0.296587 -0.643776)
(0.352298 0.283635 -0.635288)
(0.410718 0.247311 -0.471639)
(0.403446 0.271954 -0.596223)
(0.384752 0.297203 -0.525443)
(0.408632 0.268067 -0.500084)
(0.36025 0.0759464 -0.820483)
(0.405394 0.0666594 -0.728425)
(0.394167 0.0785298 -0.769436)
(0.384662 0.104176 -0.716056)
(0.375516 0.0590796 -0.784996)
(0.317916 0.0700473 -0.835082)
(0.375771 0.0941495 -0.716419)
(0.377606 0.0878617 -0.724471)
(0.252741 0.141927 -0.883387)
(0.269588 0.129788 -0.904946)
(0.274306 0.129803 -0.93523)
(0.215939 0.169935 -0.980097)
(0.323702 0.0778985 -0.863267)
(0.321755 0.161182 -0.779763)
(0.179247 0.206139 -0.929771)
(0.231195 0.200285 -0.817072)
(0.281971 0.147492 -0.863863)
(0.228136 0.184904 -0.938968)
(0.203223 0.215357 -0.938517)
(0.270075 0.176516 -0.831985)
(0.254357 0.165007 -0.879509)
(0.18107 0.188698 -0.949513)
(0.192717 0.197252 -0.877251)
(0.266702 0.368717 -0.648687)
(0.238059 0.372262 -0.652004)
(0.288882 0.372783 -0.63733)
(0.322826 0.368228 -0.644076)
(0.190173 0.325241 -0.657255)
(0.162305 0.324805 -0.644138)
(0.300811 0.375523 -0.669284)
(0.264892 0.36128 -0.635858)
(0.297287 0.350567 -0.6687)
(0.164514 0.308202 -0.661079)
(0.188036 0.312945 -0.725187)
(0.159093 0.316952 -0.715794)
(0.167967 0.309249 -0.715014)
(0.197536 0.327897 -0.714737)
(0.00192918 0.0783185 -0.724225)
(0.00230971 0.0509273 -0.650043)
(0.0191542 0.0680526 -0.730069)
(0.0327501 0.0497135 -0.696916)
(0.0181117 0.0279621 -0.630552)
(-0.0188317 0.106508 -0.717769)
(-0.00686107 0.0411069 -0.612607)
(-0.0540485 0.174847 -0.801841)
(-0.0626886 0.167472 -0.787027)
(0.0088705 0.104508 -0.777024)
(0.0192024 0.0694288 -0.738795)
(-0.0754005 0.212097 -0.835849)
(-0.0670245 0.183087 -0.806064)
(0.00808448 0.0378939 -0.673251)
(-0.0477918 0.139958 -0.767669)
(0.0116834 0.0251117 -0.610471)
(-0.016655 0.0476645 -0.619217)
(-0.0537215 0.179867 -0.835109)
(-0.0437052 0.170047 -0.854069)
(-0.00231489 0.0557082 -0.691942)
(-0.0419683 0.0959264 -0.737849)
(-0.052885 0.132321 -0.718425)
(0.194335 0.184892 -0.884049)
(0.241594 0.127876 -0.845304)
(0.202107 0.135062 -0.918417)
(0.241153 0.110384 -0.869743)
(0.1125 0.214034 -0.918655)
(0.142979 0.206829 -0.905406)
(0.255087 0.145723 -0.830781)
(0.223806 0.146096 -0.894728)
(0.13467 0.197278 -0.918896)
(0.129317 0.197347 -0.911505)
(0.203887 0.164558 -0.889958)
(0.0325831 0.306309 -1.05946)
(0.0578396 0.305237 -1.06369)
(0.0459996 0.320152 -1.17086)
(0.0454066 0.312949 -1.10019)
(0.0243096 0.221461 -1.04221)
(0.0636598 0.207146 -1.04741)
(-0.00216829 0.321279 -1.12042)
(0.0518725 0.241469 -1.07647)
(0.0678241 0.26013 -1.0614)
(0.063973 0.233416 -1.06453)
(0.0232387 0.232142 -1.03838)
(0.0608466 0.269565 -1.04031)
(-0.0233954 0.294169 -1.10552)
(0.0272007 0.249012 -1.05058)
(0.189738 0.248447 -0.935402)
(0.173181 0.237265 -0.914807)
(0.162778 0.237369 -0.91969)
(0.281171 0.206616 -0.847442)
(0.277486 0.169076 -0.828612)
(0.30608 0.186887 -0.850189)
(0.333502 0.158582 -0.805421)
(0.292291 0.131681 -0.792697)
(0.328682 0.114973 -0.770234)
(0.29842 0.214959 -0.882489)
(0.321817 0.192848 -0.850937)
(0.296033 0.202268 -0.862004)
(0.0973851 0.14923 -0.187968)
(0.100348 0.15105 -0.168796)
(0.113949 0.165372 -0.196435)
(0.107913 0.170667 -0.223543)
(0.113463 0.189443 -0.290135)
(0.0802108 0.180442 -0.304568)
(0.0738931 0.139229 -0.162857)
(0.0880408 0.138552 -0.149732)
(0.0752425 0.14314 -0.18111)
(0.116204 0.177045 -0.211917)
(0.0711798 0.163914 -0.233649)
(0.0545868 0.153765 -0.242685)
(0.0964674 0.159665 -0.17343)
(0.0799592 0.152301 -0.172649)
(0.0224796 0.195127 -0.236738)
(0.0354066 0.215815 -0.264996)
(0.0595403 0.227694 -0.179482)
(0.0309281 0.209841 -0.275576)
(0.0182622 0.173905 -0.249356)
(0.0165229 0.187917 -0.274389)
(0.0410549 0.21351 -0.179631)
(0.0676446 0.226205 -0.183212)
(0.059394 0.206816 -0.158785)
(0.0388467 0.190593 -0.158633)
(0.0499925 0.192418 -0.146487)
(0.0558356 0.230063 -0.262884)
(0.0225482 0.17084 -0.223611)
(0.0312614 0.182636 -0.253864)
(0.0315103 0.185844 -0.168919)
(0.0478085 0.194582 -0.162818)
(0.0530653 0.21746 -0.225172)
(0.0524363 0.217917 -0.196754)
(0.129463 0.168466 -0.592467)
(0.181252 0.194382 -0.686755)
(0.117721 0.174723 -0.675606)
(0.0906238 0.175133 -0.613052)
(0.108019 0.15633 -0.593623)
(0.122077 0.172057 -0.619902)
(0.151237 0.180358 -0.643534)
(0.0916698 0.179987 -0.666415)
(0.115924 0.215216 -0.758141)
(0.141738 0.220968 -0.779288)
(0.129105 0.253256 -0.753661)
(0.109198 0.204623 -0.7386)
(0.131539 0.266057 -0.823854)
(0.0798001 0.217845 -0.731646)
(0.16905 0.248959 -0.796286)
(0.168704 0.283197 -0.861274)
(0.0333148 0.126682 -0.246498)
(0.030483 0.130464 -0.234417)
(0.0592206 0.127479 -0.35212)
(0.0545524 0.118002 -0.298562)
(0.0388152 0.116793 -0.248812)
(0.0383216 0.120403 -0.22553)
(0.0554914 0.123171 -0.31603)
(0.0496894 0.122768 -0.245916)
(0.0277375 0.140051 -0.253398)
(0.0464694 0.116174 -0.299361)
(0.0476407 0.117655 -0.359383)
(0.041628 0.128538 -0.458473)
(0.0595376 0.132105 -0.468836)
(0.0439973 0.128642 -0.467828)
(0.0424922 0.127761 -0.439265)
(0.0553921 0.143448 -0.408485)
(0.0417447 0.14347 -0.400917)
(0.036566 0.143296 -0.299695)
(0.0375736 0.136002 -0.313458)
(0.0457275 0.130202 -0.311079)
(0.0405792 0.117054 -0.279235)
(0.0412383 0.127058 -0.358664)
(0.0405493 0.12321 -0.352707)
(0.0668789 0.131758 -0.451017)
(0.239778 0.122202 -1.06736)
(0.224919 0.153302 -1.09435)
(0.191455 0.200381 -1.09304)
(0.181665 0.215898 -1.1066)
(0.244352 0.133142 -1.07372)
(0.249534 0.126091 -1.03973)
(0.220014 0.149497 -1.07813)
(0.17835 0.258742 -1.13559)
(0.196249 0.211715 -1.10327)
(0.19041 0.23222 -1.14232)
(0.204801 0.198534 -1.10157)
(0.207174 0.19348 -1.0984)
(0.228002 0.142173 -1.06522)
(0.228147 0.195424 -1.09949)
(0.248769 0.161921 -1.04984)
(0.237274 0.145723 -1.04524)
(0.0844921 0.302416 -0.425703)
(0.0990484 0.323903 -0.440143)
(0.129858 0.34638 -0.406006)
(0.119825 0.336485 -0.382654)
(0.123326 0.326442 -0.261357)
(0.143 0.354547 -0.287204)
(0.122562 0.355112 -0.278796)
(0.114447 0.342381 -0.267807)
(0.0690793 0.302239 -0.426072)
(0.0474832 0.275141 -0.397078)
(0.147235 0.38549 -0.368086)
(0.103016 0.31464 -0.257906)
(0.156197 0.333115 -0.232499)
(0.0860529 0.338111 -0.323532)
(0.0667595 0.319303 -0.311367)
(0.112799 0.347026 -0.386637)
(0.0595395 0.29605 -0.322963)
(0.0687486 0.324285 -0.217442)
(0.0424341 0.31494 -0.265931)
(0.0650061 0.341916 -0.282174)
(0.0793144 0.325511 -0.19553)
(0.0359969 0.294942 -0.192879)
(0.0357208 0.297095 -0.218888)
(0.0514434 0.304305 -0.221168)
(0.054514 0.294782 -0.186675)
(0.0535995 0.290309 -0.157597)
(0.0709496 0.304463 -0.17481)
(0.171801 0.494748 -1.02028)
(0.186778 0.438752 -0.978001)
(0.135316 0.412738 -0.936042)
(0.168704 0.465362 -1.00881)
(0.321058 0.31251 -0.767593)
(0.315532 0.32158 -0.741672)
(0.420093 0.334757 -0.687131)
(0.39349 0.33434 -0.709024)
(0.430404 0.308849 -0.708386)
(0.425799 0.320386 -0.680133)
(0.329172 0.347405 -0.667393)
(0.302358 0.347777 -0.678062)
(0.410244 0.318802 -0.717603)
(0.418544 0.315703 -0.647081)
(0.434563 0.320954 -0.62901)
(0.363076 0.32785 -0.717864)
(0.373286 0.341226 -0.618375)
(0.412025 0.331483 -0.625291)
(0.352512 0.3424 -0.69389)
(0.06817 0.261289 -0.766439)
(0.0438798 0.25566 -0.813801)
(0.202426 0.166568 -0.555986)
(0.0689804 0.243337 -0.720137)
(0.170335 0.160149 -0.639929)
(0.150768 0.213913 -0.615149)
(0.176923 0.393091 -0.398268)
(0.1949 0.391132 -0.413524)
(0.202755 0.353911 -0.281929)
(0.199739 0.386688 -0.321989)
(0.210061 0.384497 -0.303329)
(0.209513 0.366841 -0.279856)
(0.238043 0.42173 -0.463816)
(0.216231 0.415682 -0.471804)
(0.181476 0.387577 -0.459309)
(0.195632 0.401775 -0.314043)
(0.179532 0.405504 -0.374143)
(0.228333 0.394624 -0.344828)
(0.296147 0.419511 -0.40955)
(0.281501 0.419458 -0.426676)
(0.243621 0.40398 -0.333804)
(0.260488 0.39035 -0.33326)
(0.271796 0.434297 -0.396764)
(0.278682 0.394735 -0.372602)
(0.271287 0.397708 -0.355755)
(0.0366675 0.321237 -0.877857)
(0.05426 0.328154 -0.898944)
(0.00604074 0.345799 -0.926545)
(-0.00763362 0.351748 -0.997665)
(0.0830221 0.297105 -0.796227)
(0.0934535 0.324836 -0.844034)
(0.109324 0.286966 -0.744626)
(0.131156 0.290226 -0.742597)
(0.110876 0.293194 -0.794896)
(0.0685314 0.336818 -0.960778)
(0.131197 0.340708 -0.85156)
(0.0497855 0.342489 -0.936129)
(0.048498 0.333495 -0.919293)
(0.0351804 0.334691 -0.943121)
(0.114073 0.304121 -0.779981)
(0.150041 0.273797 -0.717701)
(0.162216 0.286652 -0.77023)
(0.180089 0.272924 -0.726357)
(0.0476797 0.335123 -0.954888)
(0.0600193 0.342877 -0.945862)
(0.130087 0.328345 -0.852595)
(0.178953 0.563518 -1.10201)
(0.166897 0.543081 -1.02244)
(0.161738 0.550157 -1.05847)
(0.153815 0.494254 -1.17212)
(0.146919 0.480718 -1.17856)
(0.140234 0.518393 -1.18735)
(0.128235 0.357281 -0.228661)
(0.1831 0.371536 -0.776125)
(0.188071 0.37379 -0.808169)
(0.219323 0.41151 -0.87836)
(-0.00349546 0.184247 -0.195236)
(-0.000630898 0.177108 -0.175087)
(0.00268931 0.184838 -0.172559)
(-0.00932664 0.190806 -0.190176)
(0.403725 0.356036 -0.727124)
(0.395726 0.339003 -0.805087)
(0.391351 0.338047 -0.759129)
(0.256313 0.32455 -1.05598)
(0.238932 0.345458 -1.08431)
(0.252258 0.324524 -1.07005)
(0.236121 0.347116 -1.11848)
(0.0110608 0.192047 -0.140747)
(0.013301 0.202852 -0.149905)
(0.182977 0.335391 -0.266176)
(0.168687 0.331511 -0.239036)
(0.198609 0.481092 -1.18739)
(0.193595 0.504104 -1.16438)
(0.188635 0.477533 -1.18402)
(0.140601 0.247774 -0.61828)
(0.11402 0.224382 -0.569567)
(0.430275 0.281037 -0.697599)
(0.428038 0.262361 -0.759044)
(0.229906 0.31501 -1.13539)
(0.237427 0.294421 -1.1109)
(0.0266548 0.145879 -0.233915)
(0.026719 0.151131 -0.248684)
(0.0303595 0.146654 -0.30334)
(0.251716 0.294972 -0.803159)
(0.257825 0.279241 -0.822729)
(0.222009 0.265712 -0.738593)
(0.135158 0.271006 -0.221048)
(0.0974462 0.231624 -0.175435)
(0.0839056 0.22765 -0.1602)
(0.215071 0.357594 -1.16755)
(0.210161 0.363422 -1.17324)
(0.20231 0.398228 -1.17582)
(0.411948 0.195647 -0.82176)
(0.427117 0.188322 -0.749298)
(0.41272 0.188462 -0.816629)
(0.0358191 0.132886 -0.140897)
(0.028972 0.117474 -0.128656)
(0.0334587 0.123657 -0.125002)
(0.120383 0.127847 -0.485015)
(0.0973295 0.13422 -0.419844)
(0.102963 0.115912 -0.452725)
(0.311462 0.157522 -1.03529)
(0.287362 0.184091 -1.04816)
(0.272911 0.210451 -0.749075)
(0.279762 0.23068 -0.787858)
(0.218213 0.252907 -0.263947)
(0.204147 0.23787 -0.235454)
(0.180445 0.234209 -0.216553)
(0.410837 0.130019 -0.800934)
(0.431395 0.13676 -0.740092)
(0.282489 0.445447 -1.10912)
(0.261891 0.455813 -1.1502)
(0.27594 0.445634 -1.11379)
(0.251806 0.446927 -1.14376)
(0.106188 0.0654704 -0.458052)
(0.0816941 0.0792721 -0.346298)
(0.0977974 0.0805026 -0.387469)
(0.257105 0.136501 -1.06624)
(0.286238 0.110166 -1.01978)
(0.0609503 0.138273 -0.131552)
(0.0855117 0.162818 -0.157497)
(0.0753062 0.149938 -0.136288)