/*--------------------------------*- C++ -*----------------------------------*\
| =========                 |                                                 |
| \\      /  F ield         | OpenFOAM: The Open Source CFD Toolbox           |
|  \\    /   O peration     | Version:  v1612+                                |
|   \\  /    A nd           | Web:      www.OpenFOAM.com                      |
|    \\/     M anipulation  |                                                 |
\*---------------------------------------------------------------------------*/
FoamFile
{
    version     2.0;
    format      ascii;
    class       volVectorField;
    location    "100";
    object      U;
}
// * * * * * * * * * * * * * * * * * * * * * * * * * * * * * * * * * * * * * //

dimensions      [0 1 -1 0 0 0 0];

internalField   nonuniform List<vector> 
21213
(
(0.167953 0.62237 -0.186913)
(0.125141 0.645424 -0.193592)
(0.116715 0.65521 -0.195382)
(0.152143 0.741624 -0.200625)
(0.208333 0.751126 -0.176661)
(0.150735 0.687928 -0.186675)
(0.162723 0.759471 -0.192042)
(0.166047 0.786156 -0.242924)
(0.160749 0.777839 -0.232233)
(0.214894 0.72282 -0.18436)
(0.149633 0.653173 -0.170725)
(0.216337 0.655619 -0.179555)
(0.134041 0.660466 -0.225036)
(0.154039 0.80954 -0.206561)
(0.157191 0.786145 -0.206618)
(0.166265 0.779005 -0.18905)
(0.19208 0.790558 -0.21301)
(0.143992 0.634888 -0.165861)
(0.0923357 0.71023 -0.181741)
(0.102204 0.699313 -0.194704)
(0.163257 0.744591 -0.206742)
(0.172805 0.71628 -0.193046)
(0.190144 0.790364 -0.204929)
(0.194191 0.798163 -0.205914)
(0.147221 0.733674 -0.194556)
(0.131619 0.714366 -0.200498)
(0.143625 0.688843 -0.192365)
(0.182636 0.75758 -0.199872)
(0.194805 0.824458 -0.220389)
(0.168459 0.727973 -0.226431)
(0.152827 0.751805 -0.224477)
(0.153944 0.730469 -0.21438)
(0.171207 0.799343 -0.229228)
(0.152656 0.732611 -0.207488)
(0.178985 0.783036 -0.238293)
(0.149204 0.759046 -0.203464)
(0.155291 0.712208 -0.177571)
(0.173766 0.812377 -0.194055)
(0.176919 0.801973 -0.194636)
(0.152296 0.723032 -0.212406)
(0.167153 0.81901 -0.216689)
(0.150374 0.652368 -0.168611)
(0.130656 0.651224 -0.171914)
(0.156734 0.751896 -0.201639)
(0.18714 0.779737 -0.231057)
(0.190858 0.772257 -0.21437)
(0.181612 0.788235 -0.204715)
(0.156963 0.795401 -0.220806)
(0.124428 0.762917 -0.21733)
(0.12558 0.769607 -0.221512)
(0.138747 0.662124 -0.140179)
(0.134054 0.666314 -0.243265)
(0.160563 0.690211 -0.177521)
(0.178338 0.771741 -0.196375)
(0.14532 0.632845 -0.180287)
(0.160031 0.670868 -0.183316)
(0.162074 0.733012 -0.185893)
(0.176138 0.741938 -0.191891)
(0.151264 0.734184 -0.192571)
(0.211623 0.737633 -0.209883)
(0.199801 0.784744 -0.216523)
(0.188296 0.755588 -0.200412)
(0.160549 0.744448 -0.218343)
(0.177388 0.757532 -0.212267)
(0.182859 0.77615 -0.22023)
(0.175228 0.658803 -0.148346)
(0.143926 0.793356 -0.204446)
(0.170346 0.647614 -0.229285)
(0.173803 0.697733 -0.245872)
(0.150508 0.7926 -0.218963)
(0.14238 0.782069 -0.206758)
(0.162819 0.725358 -0.214592)
(0.173538 0.726939 -0.206752)
(0.152595 0.709371 -0.204129)
(0.110304 0.722215 -0.226293)
(0.174233 0.741999 -0.208146)
(0.165101 0.749113 -0.191585)
(0.158621 0.723079 -0.206027)
(0.162518 0.761932 -0.2175)
(0.145418 0.699081 -0.185592)
(0.197196 0.753994 -0.196546)
(0.156165 0.709182 -0.180337)
(0.147925 0.744173 -0.213109)
(0.193499 0.770244 -0.182624)
(0.175685 0.630581 -0.17895)
(0.183561 0.765329 -0.204609)
(0.14931 0.622172 -0.168288)
(0.160584 0.630385 -0.16526)
(0.197721 0.759946 -0.20675)
(0.188923 0.752308 -0.204729)
(0.182951 0.736154 -0.193364)
(0.195388 0.777311 -0.215342)
(0.168432 0.717424 -0.202455)
(0.183483 0.778878 -0.222898)
(0.140573 0.792056 -0.227094)
(0.146158 0.787417 -0.194092)
(0.154713 0.702709 -0.205331)
(0.153703 0.694753 -0.20193)
(0.182204 0.798386 -0.202329)
(0.181535 0.823618 -0.235282)
(0.200455 0.755217 -0.182848)
(0.132419 0.657321 -0.183721)
(0.167464 0.774815 -0.223611)
(0.167927 0.724812 -0.177855)
(0.195695 0.749909 -0.207789)
(0.190484 0.722896 -0.208755)
(0.173256 0.719987 -0.196456)
(0.141104 0.664279 -0.172)
(0.173494 0.717428 -0.196839)
(0.155914 0.790339 -0.187762)
(0.148019 0.798465 -0.184306)
(0.156275 0.762186 -0.223598)
(0.187537 0.708103 -0.21857)
(0.146255 0.775599 -0.199525)
(0.150652 0.783893 -0.172822)
(0.186959 0.756327 -0.224024)
(0.146766 0.6908 -0.19829)
(0.155415 0.673098 -0.179198)
(0.159846 0.678589 -0.176411)
(0.15346 0.710803 -0.181356)
(0.151764 0.690157 -0.176998)
(0.16655 0.775435 -0.20115)
(0.1059 0.700257 -0.234068)
(0.172448 0.716507 -0.187529)
(0.15389 0.680203 -0.184193)
(0.125319 0.766174 -0.226617)
(0.162392 0.742384 -0.225698)
(0.152832 0.694479 -0.21113)
(0.161779 0.781899 -0.240414)
(0.134477 0.753673 -0.210142)
(0.161313 0.763677 -0.224333)
(0.162059 0.756798 -0.225153)
(0.189442 0.781374 -0.22212)
(0.180913 0.755915 -0.209664)
(0.157947 0.740642 -0.128862)
(0.155233 0.729415 -0.129824)
(0.167877 0.775719 -0.224432)
(0.19055 0.769384 -0.221236)
(0.172026 0.767215 -0.231831)
(0.181637 0.790394 -0.232985)
(0.141964 0.627833 -0.181347)
(0.127241 0.700294 -0.23984)
(0.166436 0.758708 -0.164085)
(0.160898 0.761611 -0.161955)
(0.16487 0.775701 -0.172411)
(0.154483 0.773101 -0.171137)
(0.124788 0.705917 -0.127074)
(0.130823 0.720752 -0.127345)
(0.170752 0.752361 -0.187731)
(0.154363 0.735351 -0.177565)
(0.115746 0.642838 -0.174029)
(0.177096 0.732741 -0.192366)
(0.183995 0.750234 -0.207725)
(0.157583 0.62793 -0.196887)
(0.14707 0.627349 -0.198758)
(0.1668 0.75944 -0.183923)
(0.208452 0.728008 -0.197573)
(0.203861 0.71314 -0.200893)
(0.168612 0.734837 -0.199001)
(0.169671 0.70358 -0.180918)
(0.196306 0.700809 -0.209501)
(0.20218 0.744376 -0.23266)
(0.20152 0.728083 -0.229647)
(0.154865 0.752221 -0.187585)
(0.181448 0.661563 -0.224261)
(0.176899 0.738581 -0.209656)
(0.15061 0.661831 -0.181541)
(0.164349 0.768235 -0.155319)
(0.150852 0.749369 -0.213256)
(0.134713 0.693645 -0.200535)
(0.107371 0.674933 -0.180136)
(0.112789 0.657593 -0.181074)
(0.133807 0.636285 -0.186807)
(0.183987 0.711657 -0.192999)
(0.19628 0.790517 -0.222137)
(0.188381 0.733645 -0.200132)
(0.128077 0.74491 -0.154293)
(0.120705 0.721823 -0.152492)
(0.167868 0.725046 -0.197104)
(0.108501 0.713362 -0.190169)
(0.10216 0.759128 -0.208835)
(0.159088 0.752539 -0.249172)
(0.17368 0.737389 -0.254357)
(0.209105 0.722776 -0.211296)
(0.206212 0.760028 -0.213409)
(0.219415 0.701751 -0.219026)
(0.130002 0.643071 -0.175969)
(0.179742 0.740731 -0.217252)
(0.154057 0.674066 -0.177643)
(0.151622 0.694422 -0.176474)
(0.190446 0.751204 -0.197851)
(0.174381 0.728942 -0.18383)
(0.191397 0.771561 -0.191532)
(0.177336 0.757768 -0.194195)
(0.160652 0.635217 -0.191573)
(0.16551 0.628206 -0.209616)
(0.177101 0.658918 -0.254741)
(0.169297 0.663116 -0.237648)
(0.186476 0.768772 -0.16292)
(0.188381 0.768019 -0.165627)
(0.160758 0.703076 -0.17951)
(0.166754 0.735381 -0.192301)
(0.157177 0.688507 -0.174909)
(0.144379 0.62497 -0.165894)
(0.167326 0.766898 -0.192444)
(0.138429 0.732743 -0.200677)
(0.148661 0.635834 -0.150777)
(0.159943 0.770108 -0.188009)
(0.13414 0.711485 -0.203306)
(0.137183 0.771742 -0.221252)
(0.143036 0.765903 -0.227014)
(0.150739 0.780847 -0.230762)
(0.150147 0.755806 -0.200894)
(0.152628 0.682139 -0.176357)
(0.145037 0.68366 -0.173636)
(0.14529 0.783553 -0.179)
(0.142238 0.788213 -0.197112)
(0.147759 0.648232 -0.188872)
(0.135049 0.788553 -0.201982)
(0.209635 0.675446 -0.219244)
(0.163386 0.627372 -0.176161)
(0.184967 0.638016 -0.188776)
(0.203694 0.626974 -0.202715)
(0.219975 0.640523 -0.198318)
(0.147175 0.714936 -0.194747)
(0.161234 0.755835 -0.199864)
(0.153722 0.778146 -0.220727)
(0.164292 0.817364 -0.234326)
(0.137983 0.6872 -0.200296)
(0.162595 0.740489 -0.256146)
(0.157839 0.745856 -0.25458)
(0.195058 0.761369 -0.15728)
(0.117839 0.658259 -0.151895)
(0.182374 0.751027 -0.199042)
(0.175112 0.694425 -0.186898)
(0.154391 0.785097 -0.204075)
(0.157208 0.656854 -0.186739)
(0.168806 0.740663 -0.191668)
(0.148563 0.70166 -0.178976)
(0.16581 0.782251 -0.196816)
(0.158182 0.708144 -0.204351)
(0.155566 0.719527 -0.20629)
(0.166123 0.698988 -0.178165)
(0.171889 0.707383 -0.190888)
(0.17722 0.752666 -0.20627)
(0.175505 0.756731 -0.241729)
(0.178019 0.782771 -0.244183)
(0.158775 0.723324 -0.228093)
(0.134425 0.670689 -0.184801)
(0.139292 0.679644 -0.184006)
(0.169914 0.720683 -0.211503)
(0.178722 0.733297 -0.215472)
(0.177789 0.739966 -0.226268)
(0.194024 0.773863 -0.182993)
(0.194047 0.762642 -0.1767)
(0.17806 0.776628 -0.221625)
(0.136697 0.651272 -0.172479)
(0.160856 0.785596 -0.200649)
(0.168945 0.631849 -0.15853)
(0.158884 0.744893 -0.207701)
(0.152029 0.703001 -0.200373)
(0.167871 0.676395 -0.171346)
(0.143215 0.693676 -0.130601)
(0.138177 0.643313 -0.185096)
(0.154271 0.739597 -0.213551)
(0.169012 0.75897 -0.183798)
(0.179861 0.764805 -0.190064)
(0.182071 0.789484 -0.191027)
(0.16653 0.716626 -0.181498)
(0.181373 0.782437 -0.183574)
(0.166678 0.673742 -0.123004)
(0.153178 0.634979 -0.157722)
(0.154254 0.777117 -0.208953)
(0.203778 0.744005 -0.194333)
(0.21921 0.721036 -0.194309)
(0.122372 0.772405 -0.213065)
(0.118099 0.761721 -0.228815)
(0.120186 0.756128 -0.214933)
(0.151511 0.727942 -0.198914)
(0.165927 0.770008 -0.206899)
(0.155717 0.660876 -0.181648)
(0.146334 0.645124 -0.182036)
(0.153769 0.657087 -0.178341)
(0.168187 0.706264 -0.193875)
(0.158881 0.671048 -0.187894)
(0.158529 0.669868 -0.183446)
(0.14987 0.642322 -0.168117)
(0.18014 0.788653 -0.220226)
(0.178313 0.724297 -0.208965)
(0.154666 0.668404 -0.191329)
(0.171921 0.768302 -0.225885)
(0.13112 0.770979 -0.200273)
(0.132873 0.75992 -0.195373)
(0.151097 0.730316 -0.198718)
(0.182443 0.766824 -0.194181)
(0.185783 0.779438 -0.176559)
(0.197075 0.749373 -0.157921)
(0.172571 0.71668 -0.179767)
(0.19691 0.758872 -0.174544)
(0.191213 0.744712 -0.182985)
(0.195882 0.761776 -0.176361)
(0.195446 0.750597 -0.172878)
(0.198274 0.745989 -0.177199)
(0.208339 0.668213 -0.195963)
(0.176065 0.635541 -0.191399)
(0.149894 0.628417 -0.172924)
(0.185468 0.752919 -0.171012)
(0.188483 0.743994 -0.179219)
(0.192844 0.749193 -0.179431)
(0.161147 0.773632 -0.19953)
(0.176908 0.738986 -0.25351)
(0.0954304 0.704366 -0.21121)
(0.169851 0.776079 -0.182635)
(0.170373 0.778419 -0.183788)
(0.171701 0.764701 -0.184705)
(0.177998 0.744491 -0.217542)
(0.17486 0.740402 -0.217249)
(0.115277 0.680877 -0.114972)
(0.127655 0.679121 -0.139799)
(0.137362 0.70497 -0.137979)
(0.177411 0.70481 -0.198363)
(0.152671 0.648276 -0.173801)
(0.173664 0.734779 -0.204528)
(0.154254 0.672333 -0.183799)
(0.140671 0.787554 -0.231247)
(0.142362 0.799732 -0.225437)
(0.132524 0.642385 -0.178906)
(0.149182 0.713972 -0.19528)
(0.112307 0.753951 -0.203231)
(0.135639 0.702131 -0.194541)
(0.142408 0.734163 -0.198781)
(0.150699 0.732831 -0.191503)
(0.157248 0.764535 -0.210464)
(0.159428 0.795956 -0.21734)
(0.156889 0.742835 -0.20039)
(0.15173 0.746909 -0.202539)
(0.171283 0.723971 -0.192578)
(0.177878 0.754237 -0.221516)
(0.159588 0.653672 -0.187414)
(0.11775 0.741889 -0.250803)
(0.158504 0.782588 -0.183594)
(0.178706 0.75372 -0.21604)
(0.159972 0.772741 -0.197628)
(0.142133 0.670844 -0.174012)
(0.145537 0.684054 -0.181312)
(0.151167 0.699921 -0.184049)
(0.164212 0.687208 -0.188369)
(0.161639 0.679758 -0.241056)
(0.155171 0.662539 -0.240721)
(0.173355 0.713885 -0.248275)
(0.17183 0.655275 -0.234496)
(0.193434 0.749377 -0.190038)
(0.195682 0.769803 -0.191723)
(0.143049 0.673867 -0.182995)
(0.169184 0.756449 -0.200063)
(0.158498 0.722537 -0.190577)
(0.147746 0.677164 -0.176799)
(0.1728 0.746886 -0.222817)
(0.157842 0.672735 -0.202453)
(0.170985 0.757061 -0.230347)
(0.164482 0.70919 -0.211995)
(0.17482 0.651149 -0.126386)
(0.182391 0.757917 -0.156569)
(0.187452 0.762376 -0.152921)
(0.198794 0.754386 -0.155197)
(0.188984 0.7523 -0.147183)
(0.195521 0.732015 -0.21296)
(0.195513 0.746279 -0.20459)
(0.173445 0.707924 -0.212838)
(0.179257 0.723638 -0.215639)
(0.153121 0.796997 -0.211884)
(0.125834 0.741521 -0.243008)
(0.140799 0.757301 -0.241962)
(0.133019 0.757997 -0.250108)
(0.186999 0.721112 -0.17123)
(0.193948 0.763037 -0.179226)
(0.202573 0.740609 -0.168896)
(0.189656 0.756781 -0.224982)
(0.188763 0.744566 -0.21879)
(0.145948 0.681458 -0.180595)
(0.140677 0.698063 -0.200198)
(0.150665 0.692673 -0.204335)
(0.174496 0.707674 -0.1913)
(0.141832 0.705698 -0.188508)
(0.159184 0.736903 -0.189362)
(0.186485 0.761061 -0.202567)
(0.150538 0.712398 -0.190115)
(0.111343 0.722794 -0.165862)
(0.150419 0.729838 -0.212633)
(0.147487 0.762484 -0.201955)
(0.171926 0.766491 -0.171002)
(0.162722 0.731292 -0.182582)
(0.145003 0.658968 -0.186972)
(0.157859 0.771089 -0.238741)
(0.147146 0.639384 -0.177056)
(0.177843 0.748803 -0.203784)
(0.182746 0.760848 -0.173354)
(0.162872 0.769051 -0.198662)
(0.158731 0.784416 -0.215199)
(0.141351 0.737146 -0.195671)
(0.14604 0.767508 -0.207338)
(0.178654 0.769039 -0.197046)
(0.150577 0.704445 -0.180394)
(0.165729 0.701663 -0.13212)
(0.152288 0.726209 -0.196919)
(0.155417 0.74115 -0.203677)
(0.213003 0.722691 -0.216505)
(0.212099 0.746208 -0.227292)
(0.21236 0.714462 -0.210954)
(0.188868 0.784753 -0.221755)
(0.173399 0.634761 -0.192376)
(0.178913 0.75893 -0.200008)
(0.181827 0.742143 -0.143264)
(0.16862 0.764006 -0.183729)
(0.15249 0.783171 -0.201733)
(0.126462 0.771848 -0.190909)
(0.115405 0.763618 -0.188942)
(0.147835 0.692836 -0.201268)
(0.17329 0.733479 -0.13018)
(0.179345 0.749492 -0.178619)
(0.148368 0.6612 -0.163965)
(0.153487 0.757245 -0.227325)
(0.16171 0.75658 -0.141605)
(0.184653 0.715056 -0.201383)
(0.138567 0.682883 -0.19541)
(0.133892 0.644555 -0.239924)
(0.196444 0.680798 -0.157988)
(0.195006 0.709262 -0.158655)
(0.140834 0.696035 -0.193428)
(0.149641 0.781728 -0.204542)
(0.131258 0.643617 -0.16698)
(0.13969 0.635015 -0.175945)
(0.111336 0.63985 -0.170544)
(0.1461 0.632777 -0.169905)
(0.145236 0.769631 -0.162159)
(0.168007 0.791024 -0.187294)
(0.148528 0.731085 -0.193038)
(0.155142 0.677395 -0.174723)
(0.170404 0.788625 -0.239129)
(0.146357 0.632207 -0.178115)
(0.160708 0.754947 -0.200676)
(0.217041 0.702537 -0.178579)
(0.163351 0.766329 -0.189107)
(0.151629 0.714864 -0.179328)
(0.12851 0.788273 -0.212847)
(0.147408 0.627323 -0.183707)
(0.172409 0.789226 -0.224789)
(0.152741 0.686263 -0.198926)
(0.15365 0.677732 -0.179945)
(0.155224 0.669066 -0.175801)
(0.172493 0.718857 -0.199827)
(0.151154 0.635931 -0.173384)
(0.187282 0.779617 -0.233732)
(0.151327 0.733393 -0.191538)
(0.143231 0.623564 -0.189042)
(0.143903 0.754924 -0.222447)
(0.182379 0.715052 -0.229719)
(0.176998 0.662443 -0.122271)
(0.134345 0.693751 -0.253806)
(0.186476 0.766938 -0.24166)
(0.167469 0.762956 -0.232847)
(0.141694 0.725437 -0.206554)
(0.177041 0.767154 -0.239058)
(0.143164 0.781433 -0.173977)
(0.129036 0.783868 -0.218886)
(0.124209 0.77664 -0.187331)
(0.118806 0.742913 -0.166994)
(0.134073 0.776786 -0.178469)
(0.179775 0.734487 -0.206103)
(0.145797 0.749406 -0.228951)
(0.152982 0.741678 -0.218048)
(0.15527 0.748348 -0.189768)
(0.157638 0.764366 -0.193304)
(0.154301 0.73996 -0.137711)
(0.183062 0.727772 -0.146258)
(0.193846 0.725409 -0.13502)
(0.101393 0.757264 -0.197859)
(0.139514 0.662086 -0.19299)
(0.150551 0.751308 -0.199217)
(0.216645 0.727892 -0.214057)
(0.207179 0.734513 -0.212162)
(0.117943 0.739301 -0.150864)
(0.124179 0.704467 -0.160304)
(0.159249 0.761661 -0.186282)
(0.147466 0.781139 -0.183224)
(0.165846 0.69966 -0.203547)
(0.162564 0.68912 -0.198342)
(0.166365 0.710388 -0.212884)
(0.155361 0.672607 -0.187193)
(0.15659 0.687321 -0.197139)
(0.188551 0.732052 -0.220789)
(0.17836 0.727239 -0.227052)
(0.18328 0.759234 -0.242688)
(0.165007 0.681682 -0.189758)
(0.148281 0.688621 -0.181529)
(0.180705 0.643918 -0.148162)
(0.17546 0.632472 -0.156332)
(0.155887 0.634795 -0.159553)
(0.189138 0.795502 -0.216903)
(0.151016 0.728409 -0.213983)
(0.219138 0.699686 -0.218908)
(0.160359 0.669473 -0.178711)
(0.139452 0.694122 -0.188397)
(0.154141 0.762882 -0.206664)
(0.150136 0.78638 -0.225209)
(0.152735 0.754955 -0.157344)
(0.162901 0.695057 -0.187912)
(0.121417 0.691757 -0.152437)
(0.16203 0.707823 -0.184555)
(0.174112 0.755159 -0.233217)
(0.163264 0.778269 -0.183752)
(0.129864 0.630174 -0.178949)
(0.146057 0.616771 -0.165446)
(0.166658 0.754948 -0.192016)
(0.213858 0.723476 -0.213323)
(0.123973 0.656232 -0.182253)
(0.129414 0.745925 -0.200234)
(0.218421 0.698263 -0.200762)
(0.112987 0.766778 -0.204859)
(0.124918 0.593091 -0.172103)
(0.17887 0.719903 -0.209165)
(0.133169 0.665419 -0.200697)
(0.10829 0.739272 -0.192843)
(0.110959 0.754294 -0.185085)
(0.183226 0.777623 -0.202218)
(0.102895 0.746815 -0.204426)
(0.160108 0.758239 -0.229841)
(0.171611 0.787442 -0.200792)
(0.153428 0.625468 -0.156521)
(0.140781 0.74891 -0.188137)
(0.142585 0.668339 -0.185747)
(0.162741 0.76928 -0.194622)
(0.136084 0.680536 -0.1996)
(0.145928 0.692576 -0.199215)
(0.192649 0.768785 -0.227299)
(0.18722 0.770824 -0.222573)
(0.17141 0.79632 -0.230361)
(0.157092 0.67715 -0.184251)
(0.16962 0.713699 -0.194705)
(0.150749 0.783313 -0.190692)
(0.157859 0.671608 -0.262892)
(0.173948 0.75546 -0.22318)
(0.167191 0.717405 -0.208913)
(0.207519 0.637607 -0.16864)
(0.173571 0.74105 -0.186764)
(0.158467 0.661807 -0.169096)
(0.153784 0.780918 -0.204628)
(0.183656 0.764766 -0.186087)
(0.140178 0.674621 -0.186805)
(0.134482 0.609599 -0.170953)
(0.176815 0.75148 -0.204295)
(0.154672 0.748888 -0.192887)
(0.154599 0.772932 -0.216182)
(0.137543 0.718156 -0.201532)
(0.183545 0.716936 -0.213756)
(0.155414 0.762985 -0.19854)
(0.169483 0.708445 -0.180718)
(0.16629 0.689586 -0.182908)
(0.174417 0.715232 -0.184508)
(0.190919 0.769322 -0.189185)
(0.192994 0.767428 -0.187818)
(0.14647 0.775201 -0.199271)
(0.148226 0.771522 -0.19508)
(0.180246 0.767214 -0.225243)
(0.16584 0.696754 -0.20317)
(0.157596 0.673102 -0.203226)
(0.163946 0.698237 -0.210712)
(0.171189 0.681105 -0.219082)
(0.186945 0.667707 -0.168132)
(0.18382 0.805668 -0.237309)
(0.163282 0.828093 -0.230668)
(0.181948 0.850808 -0.247026)
(0.170459 0.841535 -0.22447)
(0.145401 0.686031 -0.188168)
(0.187831 0.820771 -0.227442)
(0.171701 0.813554 -0.208516)
(0.11662 0.67552 -0.174987)
(0.130228 0.775542 -0.209735)
(0.184025 0.873015 -0.237997)
(0.169193 0.72398 -0.191238)
(0.158479 0.790808 -0.185146)
(0.180513 0.697655 -0.201134)
(0.19215 0.777528 -0.197266)
(0.162095 0.72344 -0.20986)
(0.208428 0.75797 -0.223044)
(0.194896 0.662627 -0.114105)
(0.181252 0.738972 -0.169)
(0.124191 0.687781 -0.196744)
(0.13679 0.637973 -0.183104)
(0.131865 0.688244 -0.211599)
(0.144564 0.635199 -0.177752)
(0.150853 0.654368 -0.194335)
(0.138685 0.703123 -0.237081)
(0.142457 0.643909 -0.171331)
(0.173175 0.680304 -0.217873)
(0.144498 0.630933 -0.17574)
(0.173052 0.652155 -0.192975)
(0.1552 0.666275 -0.174179)
(0.173278 0.672066 -0.174346)
(0.150665 0.632929 -0.176946)
(0.137926 0.637128 -0.164177)
(0.139542 0.632146 -0.169901)
(0.181806 0.778321 -0.242547)
(0.159587 0.696475 -0.203362)
(0.176526 0.810764 -0.240041)
(0.141553 0.799618 -0.21933)
(0.154693 0.809454 -0.221154)
(0.143893 0.773869 -0.209949)
(0.156439 0.823991 -0.214982)
(0.129498 0.767747 -0.221852)
(0.139685 0.714255 -0.232936)
(0.144682 0.779539 -0.240184)
(0.17427 0.803146 -0.239508)
(0.162032 0.749721 -0.229005)
(0.16569 0.794041 -0.243371)
(0.153409 0.721906 -0.215779)
(0.134542 0.755526 -0.213491)
(0.15805 0.813171 -0.231243)
(0.147471 0.79468 -0.241283)
(0.153942 0.742128 -0.2059)
(0.14357 0.774721 -0.213729)
(0.159563 0.805494 -0.240211)
(0.148874 0.68903 -0.19961)
(0.168821 0.730765 -0.20793)
(0.183445 0.854649 -0.245421)
(0.156056 0.710864 -0.204427)
(0.152714 0.682606 -0.195334)
(0.192266 0.849547 -0.245174)
(0.149695 0.75296 -0.202521)
(0.15326 0.723429 -0.190645)
(0.146419 0.740989 -0.204558)
(0.181715 0.859089 -0.246415)
(0.183995 0.85939 -0.240166)
(0.18702 0.869415 -0.247034)
(0.141062 0.682277 -0.191404)
(0.168124 0.843398 -0.230238)
(0.146909 0.707805 -0.199035)
(0.162146 0.809006 -0.223749)
(0.194786 0.823821 -0.220804)
(0.189669 0.801482 -0.232408)
(0.198078 0.826422 -0.229313)
(0.192866 0.814541 -0.225882)
(0.195106 0.827989 -0.23623)
(0.1816 0.798033 -0.198162)
(0.180453 0.835569 -0.210867)
(0.148371 0.680656 -0.167859)
(0.163424 0.76951 -0.191986)
(0.156242 0.75647 -0.197683)
(0.162897 0.671268 -0.179804)
(0.190609 0.819194 -0.220614)
(0.196391 0.800824 -0.214713)
(0.185178 0.765131 -0.212627)
(0.193057 0.817393 -0.211236)
(0.182462 0.818107 -0.210356)
(0.167405 0.751767 -0.19206)
(0.182748 0.789254 -0.204222)
(0.170857 0.680249 -0.220088)
(0.15968 0.661815 -0.220998)
(0.14943 0.631852 -0.180928)
(0.106891 0.690987 -0.221136)
(0.12651 0.647536 -0.189558)
(0.0988982 0.728543 -0.201809)
(0.121303 0.775632 -0.213669)
(0.173098 0.811165 -0.234058)
(0.159314 0.734987 -0.211895)
(0.150211 0.758411 -0.214967)
(0.163799 0.801489 -0.234316)
(0.163656 0.795248 -0.223352)
(0.150938 0.675397 -0.194634)
(0.186006 0.826632 -0.227137)
(0.200734 0.862079 -0.235388)
(0.192998 0.855945 -0.241059)
(0.195452 0.840791 -0.234108)
(0.192396 0.835593 -0.234956)
(0.196529 0.852153 -0.245307)
(0.177992 0.854856 -0.224176)
(0.147872 0.662803 -0.177474)
(0.159927 0.746793 -0.192582)
(0.187627 0.836891 -0.217112)
(0.167479 0.757676 -0.195203)
(0.198604 0.86518 -0.233507)
(0.179053 0.844382 -0.232206)
(0.187468 0.866172 -0.230796)
(0.191828 0.849346 -0.236554)
(0.186161 0.854987 -0.237079)
(0.1848 0.859836 -0.227195)
(0.166867 0.786166 -0.209298)
(0.186063 0.834638 -0.217787)
(0.182998 0.819963 -0.212836)
(0.18998 0.856349 -0.224733)
(0.183491 0.777904 -0.218035)
(0.184082 0.789863 -0.227933)
(0.190911 0.781011 -0.231658)
(0.182515 0.763133 -0.21805)
(0.169499 0.784378 -0.20548)
(0.178748 0.793591 -0.191728)
(0.155102 0.776212 -0.193407)
(0.171026 0.818848 -0.206004)
(0.161052 0.767035 -0.185451)
(0.155877 0.810148 -0.207966)
(0.196842 0.768224 -0.187155)
(0.206259 0.732591 -0.190097)
(0.15136 0.686231 -0.182271)
(0.186326 0.724396 -0.195397)
(0.188447 0.725019 -0.169661)
(0.178141 0.685671 -0.174143)
(0.172739 0.719198 -0.193265)
(0.198119 0.764508 -0.219371)
(0.183513 0.791305 -0.208464)
(0.198634 0.794839 -0.210435)
(0.20039 0.802225 -0.223988)
(0.189621 0.765349 -0.209564)
(0.183159 0.764963 -0.202366)
(0.202075 0.739111 -0.210382)
(0.187021 0.744303 -0.199122)
(0.200631 0.771289 -0.194699)
(0.198801 0.788578 -0.208832)
(0.175733 0.761926 -0.183705)
(0.151118 0.710226 -0.185808)
(0.165741 0.763977 -0.215302)
(0.170992 0.725867 -0.200543)
(0.158468 0.758715 -0.193629)
(0.153409 0.740269 -0.196751)
(0.175267 0.749169 -0.205971)
(0.149262 0.629301 -0.170937)
(0.173694 0.679732 -0.219834)
(0.183128 0.658656 -0.224862)
(0.147144 0.630672 -0.180802)
(0.170179 0.692211 -0.201628)
(0.122706 0.630852 -0.149866)
(0.146262 0.683764 -0.147446)
(0.148055 0.628362 -0.162443)
(0.168099 0.659966 -0.148296)
(0.155005 0.640573 -0.165069)
(0.162126 0.770627 -0.171441)
(0.168199 0.75589 -0.183566)
(0.165913 0.689281 -0.135877)
(0.160883 0.725985 -0.166679)
(0.201663 0.759467 -0.165414)
(0.172044 0.686771 -0.142437)
(0.194265 0.732364 -0.161542)
(0.176126 0.724004 -0.226746)
(0.161173 0.720701 -0.23985)
(0.164707 0.703056 -0.214536)
(0.157151 0.693046 -0.221347)
(0.16862 0.701601 -0.226844)
(0.170209 0.704761 -0.231434)
(0.157539 0.696092 -0.220713)
(0.176288 0.643256 -0.177661)
(0.215138 0.739232 -0.195787)
(0.179712 0.656848 -0.172163)
(0.206925 0.690805 -0.168151)
(0.186179 0.666053 -0.160757)
(0.193503 0.665348 -0.177671)
(0.186787 0.824739 -0.239747)
(0.179492 0.824161 -0.24654)
(0.179301 0.812113 -0.233554)
(0.176496 0.817194 -0.239078)
(0.183245 0.815674 -0.239699)
(0.18507 0.815881 -0.242259)
(0.176567 0.818817 -0.238624)
(0.167732 0.827565 -0.222263)
(0.162191 0.789307 -0.215248)
(0.168412 0.814809 -0.222062)
(0.162623 0.798426 -0.221405)
(0.162382 0.831588 -0.226144)
(0.161438 0.828614 -0.224566)
(0.162638 0.804366 -0.220133)
(0.178416 0.772532 -0.234157)
(0.170247 0.779762 -0.245423)
(0.182512 0.7712 -0.239094)
(0.176175 0.773726 -0.243332)
(0.16961 0.78279 -0.24364)
(0.17817 0.788285 -0.244905)
(0.179103 0.777796 -0.244096)
(0.174786 0.753515 -0.2437)
(0.17182 0.773432 -0.248578)
(0.167425 0.759953 -0.248211)
(0.163806 0.743636 -0.236264)
(0.167777 0.736822 -0.236074)
(0.135453 0.714682 -0.208882)
(0.1843 0.829122 -0.239179)
(0.181095 0.836375 -0.236741)
(0.177747 0.816443 -0.23253)
(0.178421 0.834762 -0.237831)
(0.185484 0.840292 -0.244338)
(0.184328 0.844938 -0.244352)
(0.177859 0.829941 -0.236631)
(0.168143 0.83616 -0.223191)
(0.160823 0.816247 -0.224429)
(0.168792 0.828745 -0.224847)
(0.170603 0.845127 -0.231007)
(0.16803 0.827477 -0.222588)
(0.165221 0.825063 -0.222193)
(0.171867 0.843554 -0.232647)
(0.135488 0.641086 -0.167299)
(0.154886 0.751262 -0.211859)
(0.163155 0.799115 -0.21544)
(0.139713 0.690911 -0.186093)
(0.149127 0.730752 -0.195335)
(0.184169 0.819125 -0.235874)
(0.186358 0.803654 -0.223902)
(0.178041 0.808797 -0.229747)
(0.184689 0.805167 -0.224029)
(0.188055 0.817548 -0.229832)
(0.189312 0.820503 -0.2294)
(0.183719 0.803712 -0.224281)
(0.168999 0.831699 -0.219067)
(0.17636 0.834922 -0.215445)
(0.168562 0.818523 -0.21924)
(0.175791 0.820231 -0.213776)
(0.172173 0.821757 -0.212654)
(0.173459 0.821861 -0.21232)
(0.173546 0.819159 -0.215646)
(0.176394 0.741457 -0.188436)
(0.197392 0.839626 -0.222572)
(0.185005 0.784442 -0.210185)
(0.181351 0.770734 -0.210785)
(0.166777 0.723416 -0.19953)
(0.154535 0.679871 -0.1813)
(0.182675 0.798452 -0.199672)
(0.171134 0.697009 -0.176926)
(0.170382 0.769023 -0.18708)
(0.181573 0.751785 -0.194393)
(0.139271 0.701417 -0.256494)
(0.156119 0.712454 -0.261999)
(0.128808 0.655596 -0.170744)
(0.116468 0.696005 -0.196978)
(0.122387 0.681769 -0.172908)
(0.116971 0.69863 -0.190865)
(0.121354 0.65752 -0.174232)
(0.109107 0.665544 -0.176245)
(0.117944 0.690449 -0.188964)
(0.132643 0.74277 -0.18739)
(0.135632 0.785403 -0.192831)
(0.130361 0.743683 -0.19455)
(0.165156 0.762582 -0.215522)
(0.152459 0.696128 -0.191941)
(0.194994 0.848854 -0.219181)
(0.160011 0.677659 -0.181182)
(0.179355 0.788154 -0.207199)
(0.127603 0.574533 -0.155594)
(0.174614 0.745156 -0.198462)
(0.177827 0.849612 -0.229463)
(0.18606 0.867604 -0.230048)
(0.168344 0.823857 -0.222461)
(0.182937 0.865425 -0.228924)
(0.181233 0.870597 -0.23381)
(0.184142 0.868855 -0.23484)
(0.178677 0.861497 -0.227459)
(0.183255 0.861905 -0.226451)
(0.182743 0.849803 -0.226359)
(0.182161 0.849828 -0.229614)
(0.195704 0.845049 -0.220644)
(0.192066 0.849637 -0.220289)
(0.187866 0.80719 -0.213536)
(0.193222 0.836501 -0.215556)
(0.192028 0.840714 -0.216237)
(0.191547 0.840151 -0.215808)
(0.191311 0.829286 -0.214703)
(0.156653 0.747669 -0.196386)
(0.184775 0.745017 -0.205635)
(0.168381 0.702948 -0.198043)
(0.181388 0.729984 -0.201035)
(0.135007 0.77984 -0.193515)
(0.146985 0.760351 -0.196708)
(0.136531 0.771203 -0.186715)
(0.148277 0.755903 -0.189108)
(0.149467 0.797325 -0.190727)
(0.152382 0.795924 -0.187988)
(0.142165 0.767957 -0.189584)
(0.164812 0.705928 -0.209934)
(0.182 0.731531 -0.208532)
(0.175579 0.722474 -0.222349)
(0.184531 0.728561 -0.211787)
(0.175348 0.700274 -0.202598)
(0.177072 0.702193 -0.202005)
(0.183494 0.725641 -0.212514)
(0.190031 0.81113 -0.197594)
(0.193421 0.788464 -0.196004)
(0.176658 0.760477 -0.184565)
(0.192355 0.794355 -0.195749)
(0.193618 0.801672 -0.20443)
(0.196701 0.801214 -0.211299)
(0.192999 0.795873 -0.197585)
(0.168489 0.688386 -0.177039)
(0.197805 0.780034 -0.195493)
(0.186838 0.773133 -0.188171)
(0.193731 0.755895 -0.19604)
(0.186942 0.742728 -0.186112)
(0.175991 0.756747 -0.226309)
(0.180042 0.733815 -0.208829)
(0.180677 0.755753 -0.230772)
(0.178105 0.727758 -0.20983)
(0.168112 0.737795 -0.215691)
(0.167562 0.731427 -0.209924)
(0.180161 0.738328 -0.219743)
(0.189223 0.732898 -0.211097)
(0.194272 0.777773 -0.238838)
(0.200825 0.740123 -0.223486)
(0.206388 0.743956 -0.225986)
(0.198475 0.744859 -0.233308)
(0.190846 0.710047 -0.220887)
(0.205046 0.741906 -0.23107)
(0.131644 0.75787 -0.185788)
(0.139134 0.785385 -0.188047)
(0.144394 0.652546 -0.13596)
(0.214903 0.641949 -0.150357)
(0.182692 0.668388 -0.16005)
(0.182137 0.643637 -0.153125)
(0.196774 0.6774 -0.161654)
(0.175112 0.639214 -0.155188)
(0.195477 0.680809 -0.155343)
(0.18776 0.772361 -0.17668)
(0.176607 0.744699 -0.164363)
(0.192083 0.778862 -0.173468)
(0.144408 0.630106 -0.17365)
(0.143312 0.632732 -0.18736)
(0.134682 0.695268 -0.183046)
(0.139225 0.651192 -0.179184)
(0.141034 0.689674 -0.189135)
(0.13544 0.662471 -0.18841)
(0.125448 0.684559 -0.186132)
(0.123877 0.679615 -0.184531)
(0.135489 0.670373 -0.186038)
(0.133746 0.655444 -0.21233)
(0.151212 0.660772 -0.202216)
(0.139863 0.687923 -0.206931)
(0.142413 0.720762 -0.245339)
(0.143602 0.6706 -0.21276)
(0.151065 0.688705 -0.221668)
(0.150103 0.691338 -0.2208)
(0.1419 0.667845 -0.212413)
(0.128425 0.650845 -0.187611)
(0.142543 0.632306 -0.172888)
(0.145373 0.628194 -0.174553)
(0.141656 0.638549 -0.188845)
(0.133069 0.63686 -0.184378)
(0.140744 0.632543 -0.177904)
(0.139403 0.638697 -0.194282)
(0.130094 0.678216 -0.203015)
(0.149115 0.668501 -0.195775)
(0.142849 0.635916 -0.177499)
(0.14471 0.649237 -0.195151)
(0.136832 0.657945 -0.18623)
(0.140478 0.660869 -0.185692)
(0.138556 0.649065 -0.191538)
(0.155962 0.664464 -0.223154)
(0.14225 0.719011 -0.250136)
(0.134633 0.646729 -0.214023)
(0.137562 0.663552 -0.211807)
(0.144864 0.662575 -0.225628)
(0.146525 0.692848 -0.255829)
(0.139128 0.651303 -0.205852)
(0.143679 0.64174 -0.169744)
(0.164998 0.727848 -0.191461)
(0.157145 0.67994 -0.179863)
(0.14385 0.663723 -0.169428)
(0.150213 0.64842 -0.169647)
(0.151479 0.677363 -0.184732)
(0.149328 0.652728 -0.169153)
(0.130158 0.675953 -0.173424)
(0.139436 0.659419 -0.175671)
(0.14378 0.680227 -0.169152)
(0.147253 0.670331 -0.169412)
(0.138307 0.664587 -0.177678)
(0.193096 0.736471 -0.23)
(0.167502 0.688051 -0.20245)
(0.198685 0.723612 -0.221996)
(0.169568 0.681516 -0.20115)
(0.179688 0.700334 -0.217548)
(0.170216 0.687385 -0.21518)
(0.179274 0.689602 -0.204438)
(0.147754 0.632104 -0.179932)
(0.146242 0.63029 -0.170963)
(0.176381 0.667002 -0.175619)
(0.187574 0.671902 -0.195892)
(0.157637 0.630656 -0.173729)
(0.163163 0.64461 -0.183264)
(0.173018 0.649932 -0.175648)
(0.174599 0.653429 -0.180585)