/*--------------------------------*- C++ -*----------------------------------*\
| =========                 |                                                 |
| \\      /  F ield         | OpenFOAM: The Open Source CFD Toolbox           |
|  \\    /   O peration     | Version:  v1612+                                |
|   \\  /    A nd           | Web:      www.OpenFOAM.com                      |
|    \\/     M anipulation  |                                                 |
\*---------------------------------------------------------------------------*/
FoamFile
{
    version     2.0;
    format      ascii;
    class       surfaceScalarField;
    location    "200";
    object      phi;
}
// * * * * * * * * * * * * * * * * * * * * * * * * * * * * * * * * * * * * * //

dimensions      [0 3 -1 0 0 0 0];

internalField   nonuniform List<scalar> 
41632
(
3.76021e-09
-1.08733e-08
1.14994e-08
-4.38636e-09
-1.35263e-08
1.17612e-08
-5.65154e-09
7.41665e-09
-1.08492e-08
2.65354e-09
-5.3307e-09
-1.25429e-08
-6.21107e-10
-5.04613e-09
1.82101e-08
-2.41219e-09
-1.22722e-08
2.14151e-09
4.99856e-09
-1.02911e-08
8.88273e-09
-3.59022e-09
1.61387e-08
-1.64911e-08
5.48513e-10
-1.16669e-08
1.12862e-08
-4.66535e-09
-1.32661e-08
-8.13066e-10
5.71829e-09
-1.08036e-08
-5.76384e-09
-1.40954e-08
3.32262e-09
-7.18003e-09
-2.43864e-09
-4.60983e-09
8.35449e-09
-1.78401e-08
4.86692e-09
-2.02804e-08
1.46238e-10
-6.79812e-09
1.50064e-08
-7.41338e-09
-5.70644e-09
-9.7265e-09
-1.0811e-08
1.5735e-09
2.48616e-09
6.75137e-09
3.49243e-09
-3.82611e-09
-1.04773e-08
-1.18627e-08
4.73746e-09
8.69878e-09
-4.08976e-11
-8.32942e-09
-3.3028e-09
1.05273e-09
4.73624e-09
-4.70142e-09
-1.31576e-09
2.71437e-09
8.44213e-09
-2.40998e-09
-6.07305e-09
3.91468e-09
9.26491e-09
-2.48316e-09
7.45057e-09
4.09169e-09
-1.55437e-09
-5.02047e-09
-1.26786e-09
-7.25966e-09
-5.10559e-10
1.54553e-09
2.03203e-09
-3.067e-09
1.85659e-09
-3.63502e-09
3.40529e-09
-3.16777e-12
-4.50086e-09
8.03281e-09
3.91862e-09
-7.68272e-10
3.59097e-10
5.35153e-10
-5.39842e-09
-5.13047e-09
3.36086e-09
4.7036e-09
-2.93399e-09
-4.67856e-09
-3.93841e-10
-5.80693e-11
-5.32691e-10
-6.40265e-09
3.63207e-10
6.57213e-09
-5.17792e-09
-3.33238e-11
7.29277e-09
-6.86451e-09
-4.0078e-09
3.57954e-09
3.3326e-09
6.34877e-09
-2.3886e-09
-2.9611e-09
-7.37343e-10
7.05931e-09
-4.3702e-09
-4.06749e-09
5.47658e-09
-4.63855e-09
-1.25486e-10
1.33219e-09
-9.16888e-10
-5.59323e-09
7.4431e-10
-5.81476e-09
-2.92653e-09
5.52179e-09
-3.21915e-09
-1.56956e-09
7.21214e-10
-4.00193e-09
-3.85576e-09
-9.88721e-10
-5.13148e-09
-4.76138e-09
-4.95137e-09
4.36372e-09
5.34904e-09
-1.53198e-09
-4.21812e-09
-3.82917e-10
-6.10044e-09
-1.32378e-10
-5.30174e-09
2.75777e-09
3.47162e-09
-1.19965e-09
-5.02974e-09
3.69566e-09
6.00198e-10
-1.53809e-09
-3.12554e-09
2.54138e-09
4.27982e-09
4.19744e-10
-7.36669e-11
-3.48793e-09
3.39427e-09
-4.68742e-09
4.78108e-09
-3.12419e-09
5.60077e-11
3.04308e-09
-3.28945e-09
6.97508e-09
-6.72871e-09
5.61579e-09
-1.97252e-09
3.61362e-09
-8.10272e-09
-2.81911e-09
8.75476e-09
7.15661e-09
-6.66718e-09
2.80452e-09
-3.35321e-10
7.48776e-09
2.29184e-09
1.02844e-08
-3.40041e-09
3.85092e-09
-1.53483e-09
1.08432e-09
2.59579e-09
-4.1128e-09
-1.8834e-09
7.50604e-09
-7.51806e-09
3.832e-09
-3.81998e-09
-2.22077e-09
3.09619e-09
2.9755e-09
3.30439e-10
4.45836e-11
-4.42691e-09
2.64206e-09
8.58186e-09
-6.79701e-09
-9.93636e-11
3.17849e-09
-1.12044e-09
6.85869e-09
-3.7931e-10
4.88364e-09
4.90267e-10
-4.99461e-09
2.43211e-09
-2.79257e-09
-1.88538e-11
-2.62853e-09
-2.81057e-09
4.31866e-09
1.34018e-10
1.97371e-09
-1.18033e-09
5.52938e-09
2.01777e-09
-6.36682e-09
1.96679e-09
-3.28583e-09
1.38722e-10
-2.441e-09
3.61192e-10
-3.2383e-09
5.31812e-09
4.80311e-09
-1.71473e-09
-2.4895e-09
-3.89136e-09
6.74205e-09
-1.66655e-09
2.20687e-09
-3.94027e-09
3.39995e-09
3.89962e-09
-1.10738e-08
5.50766e-09
-3.8624e-09
4.07975e-09
-2.70685e-09
-1.56779e-09
2.96278e-10
-4.65395e-09
-3.20038e-09
3.96297e-09
2.09773e-09
7.39123e-09
-5.58934e-09
4.62569e-09
-3.21094e-10
-1.12511e-09
-1.42472e-10
-1.38882e-09
-8.30899e-09
8.78086e-09
9.16957e-10
4.04128e-09
-9.06464e-10
-4.52364e-09
3.99414e-09
9.45698e-11
-4.74244e-11
-9.64672e-11
3.06316e-09
6.08857e-09
-9.05527e-09
-6.01171e-09
-4.34175e-09
6.01766e-09
4.3358e-09
-1.58031e-10
-5.40109e-09
-4.52586e-10
3.58365e-09
6.80431e-09
-1.04844e-08
-2.1909e-09
9.03486e-09
-8.00681e-09
1.16285e-09
7.44136e-09
-9.34892e-10
-8.69736e-09
1.92084e-09
8.07377e-09
-9.59748e-10
8.44757e-09
9.14638e-10
8.97443e-09
-6.84895e-10
1.13882e-09
-4.98709e-09
1.28227e-08
4.23933e-09
-5.47788e-09
-4.16255e-09
-6.44462e-11
-3.79697e-11
-2.61267e-09
9.76915e-09
-3.97067e-09
4.42116e-09
-4.09767e-11
-7.31923e-09
6.67033e-09
9.58334e-09
2.08557e-08
-2.36192e-08
-6.81984e-09
6.65855e-09
2.52191e-08
-2.22944e-08
-6.50831e-09
1.82229e-08
9.14105e-09
-1.88503e-08
-7.3656e-09
1.9851e-09
-4.37383e-09
-1.60931e-08
1.61658e-09
1.17003e-08
-2.97027e-09
-2.14535e-08
1.27234e-08
5.29591e-09
-1.72148e-08
1.8492e-08
-3.31403e-09
-9.88204e-09
-1.51535e-09
1.3499e-08
2.16168e-08
-2.30983e-08
-2.89234e-09
-5.50078e-09
-2.22052e-08
-1.14325e-08
-1.40868e-08
-1.19796e-08
-7.88714e-09
3.77366e-09
-7.2122e-09
-2.73185e-08
-2.21621e-08
4.9093e-09
-8.95175e-09
1.07287e-08
-6.68623e-09
-4.75467e-09
-1.40999e-09
1.1074e-08
-2.27853e-08
1.18665e-09
6.04043e-09
1.55582e-08
8.50593e-09
-2.31531e-08
-8.13817e-09
-1.1317e-08
8.4327e-09
-1.8704e-09
3.04304e-09
2.77499e-09
-1.47698e-08
5.84995e-09
-1.41239e-08
2.61708e-08
7.48904e-13
-6.61345e-09
-1.95581e-08
1.91379e-08
8.21948e-09
-2.91225e-09
-1.70853e-09
1.53495e-08
2.1058e-09
-5.73283e-09
9.98837e-09
-6.36134e-09
1.57309e-08
-4.38539e-09
-9.23976e-09
-1.51993e-08
1.55069e-08
1.73937e-09
-1.73024e-08
1.51678e-08
-1.90063e-08
8.22692e-09
-1.42907e-08
-7.18873e-09
1.32525e-08
-3.5444e-09
-8.0378e-09
1.98091e-08
-5.46205e-09
-1.41196e-09
-6.36578e-09
-8.74313e-09
1.15645e-08
2.58417e-09
-3.57642e-09
1.0907e-08
-1.53684e-08
-7.21973e-09
7.35933e-09
4.55056e-09
-1.53467e-08
-1.8245e-09
6.64012e-09
2.76912e-09
-7.58474e-09
8.58777e-10
5.85662e-09
-8.53989e-09
-2.03548e-09
6.93952e-10
-3.6848e-09
5.02633e-09
4.47013e-09
-5.64684e-09
5.70921e-11
8.14845e-09
-1.56543e-09
7.22743e-09
-1.31372e-09
1.76731e-09
7.95561e-09
-2.49549e-09
-2.86183e-09
4.71022e-09
-8.10828e-11
7.30262e-09
-3.83955e-09
1.93122e-09
-3.22922e-10
-2.64177e-09
1.04064e-09
6.31135e-09
-1.6097e-09
6.92355e-09
8.56239e-09
-3.20543e-10
-8.21479e-09
-2.70634e-11
-3.41097e-09
2.00362e-09
9.96974e-09
5.3684e-09
-5.0973e-11
-5.63797e-09
4.95778e-09
4.97029e-09
-4.55967e-09
7.61198e-09
-8.52414e-09
-1.15406e-09
5.35507e-09
5.38469e-09
8.00204e-09
-1.46717e-08
-6.65768e-13
1.11999e-08
3.47248e-09
8.15575e-09
-2.3998e-09
-1.37628e-08
6.96978e-09
2.26222e-10
4.38315e-09
-8.84908e-09
-1.02058e-08
-2.65803e-09
1.4011e-08
-8.1894e-09
6.22787e-09
1.96087e-09
5.68785e-09
-1.33337e-08
5.24603e-09
1.02201e-08
-2.4227e-09
-3.23102e-09
-4.56635e-09
8.83499e-09
-5.58392e-09
4.32326e-09
-9.70773e-09
-5.37343e-09
1.07579e-08
-4.71438e-09
8.51057e-09
5.27079e-10
7.25575e-09
9.82397e-10
-8.03259e-10
-7.43489e-09
2.80429e-09
-2.6292e-10
-3.33163e-10
-8.39217e-09
6.10451e-10
-1.88235e-09
9.78247e-09
8.06045e-09
-6.27279e-09
1.01663e-09
-9.9917e-10
9.67007e-09
8.16928e-09
4.14454e-10
-9.387e-09
6.05346e-09
-4.15697e-09
1.21818e-09
1.06794e-08
-1.14831e-08
9.44804e-09
-8.56302e-09
-1.6263e-09
-1.72332e-08
1.78603e-08
-1.51508e-08
1.27236e-08
8.00871e-10
3.91262e-09
1.45116e-08
-7.74488e-09
-1.79012e-09
3.33195e-09
-3.4769e-09
-2.53201e-10
-4.47435e-09
8.20444e-09
-7.91619e-09
3.60546e-09
8.3383e-10
-1.16265e-08
6.6839e-09
-7.51498e-09
1.24576e-08
1.89208e-09
-1.32923e-08
1.11141e-08
-4.68342e-09
-7.8951e-09
1.03489e-09
8.75229e-09
1.9796e-08
-5.29189e-09
-9.38753e-09
-5.11655e-09
-1.70613e-09
1.39871e-08
1.07485e-08
-5.91039e-09
-6.35634e-09
1.51822e-09
-1.47503e-08
2.10245e-08
-1.12327e-08
-9.42802e-09
-2.30516e-09
-3.90254e-09
-1.70849e-09
-1.15868e-08
-6.99744e-09
-6.47418e-09
-3.72608e-09
2.04795e-08
-1.3295e-08
-1.6572e-08
1.2417e-08
-6.85934e-09
-8.27585e-09
-3.15576e-09
-1.49052e-08
-2.33101e-08
-4.76584e-09
-5.4336e-09
2.52085e-09
7.67861e-09
-2.85208e-09
-1.1687e-09
-7.45059e-10
-7.64602e-09
-3.93899e-09
6.15142e-09
-5.85084e-09
-4.64726e-09
6.00565e-09
-5.72618e-09
-1.44816e-09
-2.59162e-09
1.11181e-08
-3.43625e-09
9.00458e-09
-8.03841e-09
2.47008e-09
-6.93471e-09
-2.35238e-09
1.77737e-09
3.28822e-09
-4.39889e-09
-6.58294e-09
8.39022e-09
5.70247e-09
8.2898e-09
-3.02231e-09
-1.097e-08
4.60916e-09
2.2959e-09
-1.20258e-09
7.17279e-09
2.48311e-09
-2.41395e-09
-8.10757e-09
-1.07884e-09
-3.37275e-09
-6.59846e-09
3.97694e-09
-2.75283e-09
-1.53421e-09
-5.26482e-10
-3.57468e-09
4.97067e-09
-7.9111e-09
-4.38062e-09
9.75123e-10
3.9048e-09
-4.27607e-09
-6.0386e-10
3.48575e-09
-2.22181e-11
-2.48841e-09
-8.57394e-10
4.22705e-09
1.16086e-10
-1.11814e-09
4.16554e-09
3.30265e-09
2.25485e-09
3.45621e-10
-5.90312e-09
2.28132e-09
1.55885e-09
-5.37516e-10
-2.42466e-09
3.23794e-09
-8.35499e-10
-3.04591e-09
6.49788e-10
-9.22885e-11
-5.1425e-09
3.14775e-09
2.32292e-09
-5.21057e-09
1.43857e-09
1.42767e-09
-2.52061e-09
-4.8494e-11
-4.90085e-09
-2.39599e-10
2.82592e-09
2.31453e-09
1.04436e-09
-2.67388e-09
-3.27133e-09
-2.43951e-09
6.64633e-10
-5.95074e-09
4.08508e-09
1.26179e-09
-2.58346e-09
4.64822e-09
-5.89443e-09
1.96911e-09
-4.67814e-09
9.22963e-12
-4.04979e-09
8.71869e-09
4.52066e-10
5.1337e-09
-1.02639e-08
2.61678e-09
-5.00686e-09
5.28033e-09
-2.89026e-09
-3.21431e-09
5.84032e-09
4.11875e-09
-6.88099e-09
-3.1712e-10
-4.82879e-09
1.39055e-10
-6.64934e-09
-2.32768e-10
6.56499e-09
3.62815e-09
-1.23202e-09
-6.44592e-09
-3.66459e-09
-8.69608e-10
-2.94583e-10
-3.30167e-09
-7.01226e-09
1.41358e-09
-9.13846e-09
4.42321e-09
-1.02602e-08
6.05358e-09
5.62019e-09
-5.44916e-09
-5.15775e-09
5.36745e-09
5.23946e-09
1.31949e-09
-8.2285e-09
1.45985e-09
1.07614e-08
-1.23608e-08
2.91887e-09
6.21824e-10
1.44147e-08
-4.27512e-09
1.44388e-09
7.81702e-09
-1.23379e-09
-8.02711e-09
7.63998e-09
-6.18021e-10
-5.57807e-09
3.4205e-09
-4.00902e-09
-1.90946e-09
1.72207e-10
-9.3761e-09
4.8323e-09
-1.71612e-09
7.7054e-09
-1.4905e-09
5.13483e-09
-4.26236e-09
-1.10399e-08
1.54826e-10
8.11338e-09
2.77167e-09
-8.3155e-09
-7.1578e-09
4.43343e-09
-1.04054e-09
7.273e-09
-7.72295e-09
7.5851e-09
-9.85943e-09
2.21511e-09
-8.39753e-09
6.33724e-09
-5.02009e-09
5.51909e-09
3.13241e-09
9.29646e-11
6.76624e-10
-1.40702e-09
8.13397e-09
-1.84347e-10
1.99783e-09
-2.26139e-09
1.10145e-10
4.58409e-09
4.91173e-09
-5.19349e-09
-4.30234e-09
5.96285e-11
4.56745e-09
-4.29872e-11
4.37955e-09
-4.70254e-09
4.83963e-09
-4.51664e-09
4.50529e-09
-6.61086e-11
-2.62008e-10
4.7627e-09
6.67569e-11
-1.98092e-10
4.84782e-09
7.56377e-10
-1.06524e-08
3.96237e-09
9.50904e-10
-7.36431e-11
4.71522e-09
3.75243e-09
1.15278e-09
4.15734e-09
-5.47417e-10
1.05815e-08
-8.64724e-09
-2.36735e-09
4.33074e-10
2.26452e-09
9.15457e-09
-8.37575e-10
9.21713e-10
-8.22057e-09
9.56338e-09
-6.31876e-10
-5.70607e-09
7.25966e-09
5.23612e-09
4.10255e-09
-1.49029e-08
2.57978e-09
-6.40716e-09
4.80364e-09
-4.74332e-09
-7.12944e-10
-7.25785e-09
9.92657e-09
-7.41204e-09
8.2778e-09
-1.47793e-08
-5.96121e-09
9.84891e-10
-6.33066e-09
2.09943e-08
4.97773e-09
-9.02932e-09
-1.69427e-08
1.00888e-08
6.77782e-09
4.12766e-09
1.44701e-08
-1.31213e-09
-8.18026e-09
1.46769e-08
-9.91023e-09
1.18094e-08
4.87868e-09
6.543e-09
1.6807e-08
-8.6731e-09
9.25192e-09
-3.08884e-09
-1.51924e-08
3.7046e-09
-4.36292e-09
-3.02055e-09
1.03549e-08
-3.62971e-09
9.44104e-09
-7.03707e-09
-5.42452e-09
-8.47874e-09
-1.08975e-08
1.80641e-08
4.98836e-09
-7.46126e-10
7.56715e-09
-5.37657e-10
1.2069e-08
6.64184e-09
5.7347e-09
-1.54654e-08
5.38811e-09
1.89508e-09
2.15785e-09
9.16753e-09
6.57545e-09
7.47665e-09
-7.87187e-09
3.44157e-09
4.97984e-09
-5.33097e-09
8.23489e-09
6.22083e-09
-1.352e-08
7.08319e-09
2.15938e-10
-9.50701e-09
1.03969e-08
1.0707e-08
-3.54875e-10
-2.87543e-09
3.09503e-09
9.86267e-09
-1.26067e-08
-4.01216e-09
9.63602e-09
1.26962e-09
-1.14203e-08
5.14678e-10
3.64844e-09
-3.77758e-09
9.76516e-09
-5.96819e-09
-9.03247e-11
9.70695e-09
-6.30038e-09
1.60181e-09
-2.12118e-09
-4.67039e-09
2.31106e-09
4.48052e-09
9.75913e-10
-7.35166e-09
4.25457e-09
-7.17734e-09
4.37568e-09
-1.03087e-08
-8.28895e-09
1.71816e-09
-6.56007e-09
-2.50976e-09
-2.83165e-09
-1.20578e-10
-3.8403e-09
3.94458e-09
-4.51793e-09
4.41365e-09
-7.88018e-09
8.89469e-10
3.15041e-09
6.16532e-09
4.6358e-09
1.16345e-09
-9.70338e-10
-4.82891e-09
1.79392e-09
1.02277e-11
2.88565e-09
-7.75031e-09
-3.01552e-09
1.61639e-10
6.79483e-11
-5.46457e-09
-1.06824e-08
5.27154e-09
7.82516e-10
-9.50316e-09
-1.83719e-09
-8.40358e-09
-1.17371e-08
3.69975e-10
2.02768e-09
8.80614e-09
3.10003e-09
1.20306e-08
-1.15505e-08
3.48042e-09
1.11701e-08
9.19912e-09
-5.32973e-09
-1.97825e-08
1.94117e-10
2.30688e-08
4.15255e-10
-1.09987e-08
5.50986e-09
3.89384e-09
4.88873e-09
-1.99183e-09
1.46512e-08
-1.24652e-08
9.19937e-09
6.93524e-09
9.23521e-09
2.01134e-09
-4.20979e-09
-3.37847e-09
5.57693e-09
3.17031e-09
-1.17577e-09
1.67976e-11
-6.50365e-10
8.81896e-09
3.06517e-09
-1.12338e-08
-2.90127e-09
2.29156e-09
-7.06316e-09
7.67287e-09
1.00657e-10
5.26445e-09
-2.1948e-09
-5.08546e-10
-6.60252e-09
-1.25846e-08
2.87651e-09
9.05775e-09
-7.55694e-09
-2.73612e-09
-1.91213e-09
-3.0368e-09
5.04959e-09
-6.81361e-09
7.77799e-09
-2.88503e-09
1.8542e-09
-1.44941e-10
-5.24869e-09
1.85511e-09
1.14901e-09
-2.18716e-09
-5.77546e-09
-3.35892e-11
-1.08806e-08
5.16181e-09
-2.76981e-09
8.48858e-09
-2.89564e-09
-7.48145e-09
-5.03474e-10
7.80842e-09
-7.74924e-09
-2.95483e-09
1.86324e-09
1.1107e-08
-3.30537e-09
-5.95242e-09
1.1121e-08
-2.65091e-09
-5.71423e-09
5.05978e-09
-9.16305e-09
3.74232e-09
-5.02431e-09
-7.20501e-09
3.06628e-09
-2.88355e-09
-9.62219e-09
-2.10068e-10
3.94603e-09
-9.68838e-09
-9.23797e-09
3.31368e-09
7.5259e-09
1.23362e-09
1.38886e-09
-1.01484e-08
1.54703e-09
-3.94763e-09
9.9265e-09
6.09067e-10
3.51754e-10
-8.16583e-09
-1.20623e-08
2.46836e-09
3.40031e-09
6.19364e-09
3.83094e-09
-1.46596e-08
-9.46431e-09
8.3541e-10
5.8628e-09
-6.90944e-09
2.4355e-09
-2.05448e-09
-1.14081e-08
6.12727e-09
-9.14061e-09
1.5634e-09
-1.46654e-08
5.53334e-09
-1.96725e-08
2.88046e-08
-9.57013e-09
-1.94503e-08
1.43551e-08
-2.25753e-08
2.63136e-08
1.106e-08
-1.47983e-08
2.37228e-08
1.0235e-08
-1.367e-08
-2.02878e-08
1.17235e-08
-5.64616e-10
1.25639e-08
-6.26284e-09
-1.07791e-08
-1.45067e-08
8.2467e-09
1.79835e-08
-4.85959e-09
5.87967e-10
1.22667e-08
1.34823e-08
-3.78066e-09
8.34913e-09
8.68665e-09
-1.32551e-08
8.81877e-09
-2.21696e-08
-1.09158e-08
2.10592e-08
-4.21125e-09
-5.93216e-09
1.43551e-08
-1.64522e-08
8.72916e-09
1.77454e-08
-5.4153e-09
1.7033e-08
6.0513e-09
8.63515e-09
-6.54887e-09
1.25894e-08
-8.11402e-09
9.53414e-09
2.63923e-09
2.34638e-08
-8.36234e-09
-6.46628e-09
1.36228e-08
1.34686e-08
-3.62768e-09
-6.59939e-09
-7.01891e-09
2.1865e-08
1.92901e-08
-1.74659e-08
1.54553e-08
1.15447e-08
-7.70229e-09
7.98176e-09
-1.12667e-08
1.54938e-08
2.14199e-08
-1.29834e-08
-1.95761e-09
-2.20023e-08
1.68213e-08
7.13861e-09
-2.54781e-08
6.45047e-09
1.707e-08
8.68782e-09
-1.89634e-08
-1.52025e-08
-9.72427e-09
-3.59018e-09
-1.56531e-08
-6.5732e-09
1.2502e-08
4.89378e-09
1.22834e-08
1.20858e-08
-2.9263e-08
1.09599e-08
1.07873e-08
-1.68534e-08
4.1361e-09
-1.19329e-10
-1.96698e-08
-1.65628e-08
1.73554e-09
-1.64649e-08
-9.61788e-09
2.6693e-08
-6.10166e-10
-2.34128e-08
1.92313e-08
3.53788e-09
-1.72544e-08
1.35972e-08
5.99056e-09
-1.55289e-08
1.30763e-08
1.56986e-08
-1.8866e-08
-1.99679e-08
2.54569e-09
9.5238e-09
2.99633e-09
-1.07333e-08
-1.78679e-09
1.37916e-08
-1.48463e-08
1.05784e-08
-7.9197e-09
-7.25825e-09
1.85893e-08
-3.41137e-09
-4.32319e-09
-7.66227e-09
4.06576e-09
-1.0134e-08
1.66673e-08
-6.43406e-09
-7.03556e-10
2.00959e-08
-1.15879e-08
-1.92414e-08
9.26473e-10
7.45347e-09
-4.00764e-09
1.28945e-08
-1.63403e-08
1.53402e-08
-1.14597e-08
3.57302e-09
-1.60392e-08
-1.36611e-08
2.0894e-08
8.80631e-09
9.8918e-09
-2.21387e-09
8.6951e-10
5.06887e-10
-1.28361e-08
1.21992e-08
-1.58348e-08
4.5772e-09
-9.41577e-10
-1.33558e-08
1.50719e-09
5.41451e-09
-5.47692e-09
3.47092e-09
-1.40332e-08
-5.93507e-09
-1.28976e-08
1.48081e-09
-1.85441e-08
2.2915e-08
-2.2539e-08
1.81681e-08
-9.14937e-09
5.16631e-09
-1.4561e-08
-2.20516e-09
-1.72839e-08
1.16019e-08
1.24614e-08
8.24838e-09
-2.00837e-08
-4.20126e-11
-2.41327e-09
-4.43826e-09
-2.47948e-08
9.50244e-11
-1.22126e-08
1.57277e-08
1.06434e-09
-2.12303e-08
1.76154e-08
-1.92968e-09
-4.62733e-09
1.03339e-09
2.12093e-08
-2.04657e-08
-5.61513e-09
-4.16622e-09
1.43718e-08
-1.01106e-08
2.2885e-08
-6.52961e-09
-2.05216e-08
1.50948e-08
-1.68061e-08
-2.11265e-08
1.74669e-08
-7.5546e-09
-1.57811e-08
-2.76167e-08
3.91677e-10
-2.07537e-08
7.04618e-09
1.33158e-08
-1.87917e-08
6.64817e-09
1.25352e-08
-2.6536e-09
8.59288e-09
1.05114e-08
2.53356e-09
9.77718e-09
-9.35159e-09
-1.92172e-08
-1.36002e-08
-1.57876e-08
2.44559e-08
4.93191e-09
1.40376e-08
-1.08166e-08
-1.35373e-08
6.41093e-09
1.37745e-08
8.38741e-09
-7.10501e-09
-4.03336e-09
2.73269e-10
-9.34349e-09
1.61251e-08
1.76743e-08
6.60799e-10
4.47234e-09
-1.79439e-08
2.05177e-08
2.70084e-08
9.54952e-10
1.31913e-08
1.08178e-08
-1.33801e-08
-1.0629e-08
1.07341e-08
-1.20716e-09
3.66434e-09
1.05201e-08
4.87055e-09
-4.57281e-09
1.19403e-08
9.31391e-09
1.16536e-08
-4.64222e-09
-2.14087e-09
4.94316e-09
5.24486e-09
1.75225e-09
7.83959e-09
8.75721e-09
1.20292e-08
3.59058e-09
-1.68269e-08
9.74748e-09
-1.04586e-08
-2.78009e-09
3.49117e-09
-4.881e-09
9.98625e-09
-2.2253e-09
1.75693e-08
-7.5044e-09
-6.91581e-09
9.93537e-09
-6.07648e-09
1.11898e-08
1.67642e-09
-1.54635e-08
7.71056e-09
1.16855e-09
1.11157e-08
-1.27851e-08
5.00827e-10
-1.4484e-08
1.37889e-08
1.86365e-09
-1.07524e-08
-8.22057e-10
-8.58436e-09
9.94939e-09
1.79831e-08
1.10535e-08
-1.29599e-08
-1.60767e-08
3.3036e-09
-4.31678e-09
1.89963e-08
-1.25776e-09
-1.47566e-09
1.38492e-08
-3.01723e-08
-4.61447e-10
2.6317e-08
-6.41256e-09
-1.27063e-08
1.01748e-08
8.45908e-10
-4.08208e-10
-2.4275e-09
-2.02142e-08
2.50917e-09
1.72436e-08
-1.42417e-08
-1.23851e-08
7.05805e-09
-9.87987e-09
7.90835e-09
-5.08653e-09
1.6877e-08
1.34072e-09
-1.11596e-08
-1.35708e-08
1.46043e-08
1.22358e-08
-9.35348e-09
1.26596e-08
-1.85334e-09
-5.37173e-09
8.22566e-09
-1.10985e-08
8.24459e-09
1.87964e-09
-1.15237e-08
4.27229e-09
1.20604e-08
-1.71138e-08
6.93303e-09
-8.62383e-10
-1.02996e-08
2.32224e-08
6.41203e-10
-8.81787e-09
-3.347e-09
1.53478e-08
-7.98456e-09
-1.31992e-08
-1.05412e-09
3.15477e-09
-9.37816e-09
-3.1798e-09
-1.47908e-08
3.03763e-09
4.07368e-09
7.67953e-09
7.37759e-10
-1.16794e-08
-3.8492e-09
-8.98473e-10
-1.16836e-08
-4.53172e-09
2.65374e-08
-1.8927e-08
-8.5089e-09
-9.34398e-09
2.55818e-08
-1.40878e-08
1.85804e-09
-6.69724e-09
-1.25554e-09
-1.70681e-08
4.23584e-09
9.89447e-09
-1.62008e-08
-1.31945e-08
9.64093e-09
7.6272e-09
-2.46542e-09
-9.99128e-09
-1.23348e-08
-8.16663e-09
-3.02576e-09
-8.81782e-09
-1.66161e-08
-5.77528e-10
3.28416e-09
-1.37077e-08
3.03861e-09
-1.42338e-08
1.06177e-08
-2.81491e-09
-1.09931e-09
-7.84945e-09
-9.9592e-09
1.01829e-08
-8.84701e-09
-5.66148e-10
-1.35651e-08
-1.0254e-10
-1.34993e-08
-7.74553e-10
-8.93466e-09
-7.61909e-09
8.7043e-09
5.5995e-09
-2.04969e-08
5.96274e-09
-1.3216e-08
8.85631e-09
-2.99829e-09
-1.07941e-08
4.94532e-09
-3.20073e-09
-1.11869e-08
8.88377e-10
-1.34019e-08
2.78451e-09
-5.37464e-09
8.68397e-10
-8.89564e-09
5.37389e-09
3.11898e-10
-1.10604e-08
-5.90144e-09
8.89881e-10
-1.16822e-08
-2.31257e-09
-4.16658e-09
-6.64723e-09
4.53553e-09
4.4667e-09
-8.20855e-09
-9.35508e-10
-1.6513e-09
-6.92691e-09
9.51372e-09
-1.36908e-09
-4.08438e-09
4.51796e-09
6.51323e-09
2.61542e-09
-6.28764e-09
-2.84101e-09
1.55711e-09
-1.69498e-10
5.12562e-09
-4.08235e-09
4.27037e-09
-1.58241e-09
1.15475e-10
-2.24789e-09
-8.2477e-09
8.84429e-09
1.54388e-09
-5.44134e-09
-3.02945e-09
-2.44544e-09
-9.50542e-11
-9.69566e-09
7.27827e-09
-2.42386e-09
-9.96957e-10
-4.82688e-09
-4.40433e-09
-9.66516e-09
1.16456e-08
-8.9007e-10
-4.7311e-09
-4.07449e-09
-3.65183e-09
-3.52588e-09
-3.89459e-09
-1.3326e-10
-3.41284e-09
-3.02546e-09
-2.87182e-09
-6.68616e-09
4.43022e-10
-6.96667e-09
-6.86441e-09
-1.35631e-08
4.13202e-09
1.10459e-08
-1.61481e-09
3.87825e-09
-4.01211e-09
-1.34293e-08
-9.24236e-09
2.88468e-09
3.76342e-09
2.59426e-09
-8.13591e-09
8.17202e-12
-1.11462e-09
-1.47141e-08
1.71752e-08
1.67092e-09
-3.70923e-09
1.19748e-08
2.78037e-09
2.55098e-09
-2.38196e-09
-1.24686e-08
7.70464e-09
-9.95018e-09
1.61323e-09
-1.80939e-08
-7.98268e-09
7.7865e-09
3.07996e-09
-2.88377e-09
3.56721e-09
-9.93666e-09
7.70489e-09
-2.11275e-09
1.15831e-08
7.0567e-09
4.6842e-09
2.33896e-10
2.43527e-09
1.23263e-08
2.47006e-09
-7.03877e-09
8.89019e-09
-1.09552e-09
1.33221e-08
-2.53753e-09
4.16594e-09
7.04342e-09
-3.44881e-09
8.82921e-09
-2.94513e-09
-7.77918e-09
8.61865e-10
8.37334e-09
-1.45603e-09
2.52041e-10
-4.35782e-09
6.57584e-09
6.30207e-09
5.4728e-09
7.0192e-09
-4.97616e-09
-1.33017e-08
1.46575e-09
9.08194e-09
2.75399e-09
-7.13502e-10
-9.30835e-10
-1.16573e-08
1.17311e-08
-1.55987e-09
-1.08848e-08
9.81809e-09
1.40687e-09
5.06169e-10
1.39469e-08
4.08281e-09
1.13299e-08
1.0019e-08
8.88099e-09
1.0844e-08
-1.19031e-08
5.56978e-10
1.4773e-08
-8.25489e-09
2.55385e-10
-8.05128e-10
8.80463e-09
-3.21687e-10
-9.61428e-09
1.68108e-09
-8.38245e-09
9.19481e-09
-1.01384e-08
1.43431e-09
8.88038e-09
-8.1748e-09
6.72967e-10
9.7208e-09
-1.73865e-08
-1.3202e-08
2.25367e-08
8.05175e-09
-2.79359e-09
4.23407e-09
-1.58174e-08
1.43769e-08
-9.98725e-09
-6.71956e-10
-6.5215e-09
1.71807e-08
1.19237e-09
-2.13725e-08
2.52203e-08
2.35547e-09
-2.33417e-08
1.6e-08
1.33421e-08
-4.12177e-09
-1.55394e-08
1.28993e-08
-7.34709e-09
8.51148e-09
-2.82862e-08
3.99364e-09
2.99153e-09
-1.73386e-08
2.29516e-08
-1.02746e-09
-1.95687e-08
6.4089e-09
-1.8419e-08
-1.13516e-08
1.9367e-08
-1.60655e-09
-9.10328e-09
1.37517e-08
7.61252e-09
6.23581e-09
-1.4088e-08
-1.29888e-09
1.99599e-08
-1.79958e-08
-1.76414e-08
6.83492e-09
-1.17696e-08
3.27896e-09
4.77052e-09
-1.47401e-09
4.48322e-09
-3.83075e-10
-8.21187e-10
-6.41845e-09
5.65852e-09
3.33191e-09
4.43104e-09
4.14542e-09
-1.00505e-08
-1.43771e-09
-3.6979e-09
-1.99533e-09
-8.44467e-09
1.16658e-09
7.72592e-09
-3.5284e-09
-5.3641e-09
1.14349e-08
-6.16575e-09
4.30838e-09
-9.57752e-09
9.71552e-09
1.71649e-09
2.87978e-12
5.64191e-09
-1.06135e-08
-1.1942e-09
1.08131e-08
-4.00464e-09
-1.04226e-08
1.63558e-08
1.7928e-09
1.31107e-08
-9.38884e-09
-1.41445e-08
1.90583e-09
4.9655e-10
7.31314e-09
1.0559e-08
1.97065e-09
-8.81305e-09
4.27173e-09
9.03624e-09
-4.49491e-09
-7.98462e-09
5.69393e-10
-1.39783e-09
-9.86891e-09
-2.70797e-09
1.68486e-08
-7.45557e-09
-7.37525e-09
4.96191e-09
3.92282e-09
4.97737e-09
-1.60318e-08
1.02616e-08
9.69299e-09
-2.00405e-09
-9.17009e-10
8.65675e-10
1.07434e-08
-4.61204e-09
-6.99707e-09
-8.317e-09
8.09997e-09
2.12287e-09
-3.14295e-09
-4.80091e-09
-6.27805e-09
1.38317e-08
1.09178e-08
-2.17842e-09
-1.08712e-09
5.72687e-09
3.62774e-09
3.38511e-09
1.39868e-08
2.65237e-10
-4.46123e-09
-9.79085e-09
-6.50344e-09
1.37046e-08
6.78569e-09
1.73339e-08
-5.22677e-09
-1.18419e-08
9.3424e-09
2.38343e-10
7.75312e-09
1.17789e-08
-3.879e-09
-1.23611e-08
5.44714e-09
-1.7171e-10
7.99389e-09
1.50531e-08
-6.84129e-09
-1.4789e-09
1.37673e-08
-8.364e-09
9.81923e-09
-8.29651e-09
-1.68228e-08
7.67231e-09
1.81561e-08
-5.39946e-09
3.76885e-09
-2.4355e-09
9.49466e-11
-1.23379e-08
1.71645e-08
-7.37776e-09
3.58611e-09
2.70472e-09
-1.16874e-08
2.24416e-09
1.3212e-08
-1.69919e-08
1.22226e-08
7.3769e-09
-1.26689e-10
-1.94728e-08
7.33652e-09
-1.62297e-09
6.509e-09
-6.19966e-09
4.97316e-09
5.25614e-09
-4.0789e-09
-8.1822e-09
7.36184e-09
-4.07249e-09
4.89285e-09
5.10831e-09
-1.34172e-08
-1.51776e-09
-4.70921e-09
-5.60211e-11
-1.70313e-11
9.38894e-09
-5.79839e-09
-5.40756e-11
3.33072e-09
4.66606e-09
-4.00567e-09
-3.99111e-09
-5.84012e-10
3.82019e-09
9.45484e-11
-2.93253e-09
4.29067e-09
-4.8127e-09
3.45456e-09
-3.5162e-09
-3.39414e-13
5.77001e-09
8.81404e-11
-1.19209e-09
3.67245e-09
2.44519e-09
-3.08424e-09
4.92972e-09
-4.63341e-09
1.90952e-09
-1.39214e-09
-4.03357e-09
4.24116e-10
-3.32729e-09
-2.60138e-09
4.96282e-09
-6.99486e-09
-6.66764e-09
9.82029e-10
1.1139e-09
-6.51169e-09
-2.19041e-09
-4.0531e-09
-7.83087e-09
6.75435e-09
8.98735e-10
9.20957e-10
6.4249e-09
2.98965e-09
1.32569e-08
-4.09929e-10
-1.27412e-09
7.6756e-09
-5.99156e-09
-1.40247e-09
-4.99465e-09
5.98719e-09
2.27156e-09
6.16294e-09
-7.51355e-09
6.37276e-09
-5.50367e-09
1.20462e-08
-1.03307e-08
-3.14811e-09
-2.04314e-09
1.9659e-10
-5.26238e-09
2.06358e-09
5.06895e-11
-1.96811e-09
-3.72556e-09
3.62613e-10
5.33105e-09
-1.87473e-09
-5.21894e-09
5.12557e-09
1.47537e-09
-9.77752e-09
7.24802e-09
-5.66174e-09
2.05799e-08
-1.27223e-08
3.33222e-09
3.86035e-10
1.04928e-08
9.70103e-09
1.59843e-08
-1.25536e-08
4.98842e-09
-8.41908e-09
7.99979e-09
8.3705e-09
-6.72913e-09
-1.85468e-08
-1.48117e-08
-1.06139e-08
2.87578e-08
2.00992e-08
-9.59424e-09
-5.5166e-09
6.17576e-09
8.84087e-09
-2.17458e-08
-8.20271e-09
8.44544e-09
7.75706e-09
1.16129e-08
2.83624e-10
1.03341e-08
1.09995e-08
-6.94501e-09
-1.43886e-08
-2.05373e-09
2.01134e-08
-7.72563e-09
-2.36099e-08
1.4974e-08
-1.13695e-08
1.06161e-08
1.12323e-08
1.04948e-08
-1.01142e-08
1.7624e-08
-4.09063e-09
-1.96086e-09
2.76623e-09
3.28526e-09
-3.55849e-09
-5.98603e-10
6.64673e-11
2.14284e-09
-2.24737e-09
-3.45397e-09
1.98552e-10
-1.65657e-11
3.50212e-10
-5.93114e-09
3.33356e-09
3.22425e-09
2.21028e-09
-5.08431e-09
-3.76681e-10
3.04576e-09
5.55166e-10
1.90406e-09
-7.04551e-11
-5.06064e-09
4.20787e-10
7.40608e-09
-1.76653e-09
7.02121e-10
-3.99623e-09
-5.58385e-09
3.77485e-09
7.11949e-09
-5.31049e-09
-5.84244e-09
3.30436e-09
2.04164e-09
6.09692e-11
6.23728e-09
1.76532e-08
-2.60594e-09
-7.67432e-09
-7.37291e-09
1.31417e-08
1.9759e-09
2.53554e-09
-7.61681e-10
1.88724e-09
1.20162e-08
-1.00166e-08
9.22268e-10
8.33267e-09
-1.18971e-08
3.85638e-09
1.84535e-09
-1.19362e-08
-1.80624e-09
-4.82369e-11
1.54263e-08
-1.34909e-08
-3.33768e-09
2.7094e-09
1.09412e-08
-1.0313e-08
6.87633e-09
-1.12378e-08
1.0238e-09
-1.00282e-08
1.49056e-09
9.45992e-09
2.42825e-11
-8.20715e-09
-6.24941e-09
-8.29274e-09
9.57277e-09
-6.20775e-09
-6.55618e-10
-9.27508e-09
1.20953e-08
-1.04945e-08
-1.09143e-08
1.23566e-08
9.42901e-09
7.94401e-09
-6.43177e-09
-7.53064e-10
8.18753e-10
9.36332e-09
-1.2615e-10
-4.29879e-09
2.95726e-09
1.09657e-09
2.54866e-09
7.68062e-09
9.20964e-09
-1.25907e-08
-4.2995e-09
3.15026e-09
7.92689e-09
-3.39653e-09
5.00494e-09
-9.45015e-09
-1.20894e-08
-2.54253e-09
-3.4788e-10
-1.87759e-09
-2.55421e-09
1.42882e-08
-1.14479e-08
1.94035e-08
-2.22438e-08
-1.25883e-08
-8.17642e-09
3.50529e-08
-1.41638e-08
1.40882e-08
-1.25127e-08
3.85279e-10
-2.5997e-08
1.62614e-08
-2.91312e-08
1.35896e-08
-5.44228e-09
8.66825e-09
4.18635e-09
4.07699e-10
1.10193e-08
2.6612e-09
2.7306e-09
1.87075e-08
-1.41545e-08
1.6712e-09
5.1238e-09
-9.67878e-09
-2.91939e-09
9.77391e-09
-1.96708e-09
-4.88744e-09
2.0594e-08
-7.55729e-09
-1.59561e-08
1.91344e-08
1.12336e-08
1.26008e-08
-1.69742e-08
-3.18382e-09
5.26965e-09
9.00232e-09
-6.99037e-09
5.27954e-09
6.83463e-09
-1.05352e-09
-3.64278e-10
-5.57257e-09
7.25526e-09
4.87554e-09
-8.52454e-09
-3.60626e-09
6.73738e-09
-5.3564e-10
4.60982e-09
-1.70136e-09
6.61164e-09
4.73556e-09
1.13939e-08
4.97311e-10
-1.14469e-08
2.59639e-09
9.65882e-11
8.75398e-09
4.16015e-09
-1.17667e-08
-3.84039e-09
-7.19073e-09
2.50576e-09
7.28136e-09
-3.62986e-09
5.99276e-10
-1.8554e-08
4.46613e-09
1.41844e-08
-5.00364e-09
-8.64642e-09
-4.90389e-09
-7.87119e-09
-8.89916e-09
-8.65738e-10
-3.99519e-09
7.36669e-09
-7.92957e-09
1.153e-08
4.28709e-09
-7.89266e-09
-2.42819e-11
5.09554e-09
7.71776e-09
7.18227e-09
-1.32562e-09
-1.35744e-08
-3.74484e-10
2.21049e-10
7.11679e-09
-3.0901e-10
-1.91668e-08
1.3817e-08
-1.48882e-09
4.80578e-09
-1.3177e-08
-2.75237e-10
-2.21898e-08
7.82875e-09
7.82958e-09
-1.65672e-08
1.31198e-08
-1.84671e-08
-8.08514e-09
9.3536e-09
-8.76328e-09
-5.97365e-11
-5.30588e-10
7.49989e-09
-1.07411e-08
1.25949e-08
-2.84366e-10
-6.468e-09
2.49659e-09
4.25577e-09
2.85558e-09
4.35994e-09
8.34288e-09
9.91207e-10
-4.17838e-09
-5.15571e-09
-6.21329e-10
2.49621e-09
-4.00938e-09
-5.74056e-09
-3.32912e-09
-9.44353e-09
-6.35204e-09
4.29365e-09
1.43705e-09
-6.33616e-09
4.53459e-09
-4.55047e-09
-7.98097e-10
-5.3099e-09
8.96357e-09
-4.86168e-09
6.56018e-09
-5.21525e-10
-9.99301e-09
-5.16342e-09
-4.87767e-09
4.73119e-09
-4.90562e-09
-3.17534e-10
-4.64421e-09
4.07618e-09
-4.45235e-11
-6.50935e-11
4.96958e-09
-8.82022e-09
4.84619e-09
-4.78223e-09
-7.60074e-11
1.60254e-09
2.684e-08
-9.21118e-09
1.75143e-08
-1.09386e-08
1.08413e-08
-7.28152e-09
2.32802e-08
2.65655e-08
1.82722e-08
-2.16855e-08
-5.79797e-09
1.92755e-09
9.06317e-09
-1.57157e-08
9.89837e-09
-9.30925e-09
-1.11157e-08
2.37255e-09
1.66358e-10
-9.88885e-09
7.34994e-09
6.35666e-09
2.10787e-09
-6.09198e-09
3.04031e-09
1.03034e-08
-1.31774e-08
3.62834e-10
9.20519e-09
-6.52772e-09
2.0708e-09
4.63265e-09
-3.46788e-10
-5.32444e-09
7.79514e-09
-6.19381e-09
1.07286e-08
4.67039e-09
1.07176e-08
-6.60793e-09
1.2283e-09
8.12031e-10
4.88488e-09
-6.92521e-09
-6.06637e-09
1.87704e-09
5.41762e-09
7.12822e-09
-2.20418e-10
8.36392e-10
-7.7442e-09
-2.22257e-09
-4.96188e-10
-9.22021e-09
1.1939e-08
-9.6617e-09
8.25115e-09
5.70894e-10
4.88887e-10
-7.68861e-09
6.62883e-09
-2.41275e-09
-3.77593e-09
1.22312e-10
-7.23311e-09
8.61397e-09
-4.08512e-09
3.98022e-09
-6.40865e-09
-8.92111e-11
9.63567e-09
8.72521e-10
-1.46502e-09
-1.00141e-08
1.81746e-09
-1.04956e-09
1.27431e-09
-8.87454e-10
3.56206e-09
2.7982e-09
1.97887e-09
-5.56276e-09
2.69643e-09
3.89629e-09
7.36271e-09
-9.28013e-09
-2.85527e-09
1.17911e-08
-5.03957e-09
7.72599e-09
4.9472e-09
1.0548e-09
1.19403e-09
-7.19604e-09
-3.46771e-10
5.79484e-09
-8.51404e-13
-5.44722e-09
5.05006e-09
-4.49625e-10
4.54842e-09
1.38402e-08
-6.59749e-09
-7.11247e-09
2.13651e-09
9.52438e-09
1.68457e-09
-1.43433e-09
6.64721e-09
2.13358e-09
7.20713e-09
2.72268e-10
3.28952e-09
8.96766e-09
2.83966e-09
4.74156e-09
6.25898e-09
-4.04748e-09
1.08088e-08
-3.47179e-09
5.43938e-09
-3.88744e-09
4.156e-09
3.49486e-09
-3.93312e-10
-3.50788e-09
1.37529e-11
-3.75447e-09
-3.81347e-09