/*--------------------------------*- C++ -*----------------------------------*\
| =========                 |                                                 |
| \\      /  F ield         | OpenFOAM: The Open Source CFD Toolbox           |
|  \\    /   O peration     | Version:  v1612+                                |
|   \\  /    A nd           | Web:      www.OpenFOAM.com                      |
|    \\/     M anipulation  |                                                 |
\*---------------------------------------------------------------------------*/
FoamFile
{
    version     2.0;
    format      ascii;
    class       volVectorField;
    location    "100";
    object      U;
}
// * * * * * * * * * * * * * * * * * * * * * * * * * * * * * * * * * * * * * //

dimensions      [0 1 -1 0 0 0 0];

internalField   nonuniform List<vector> 
17128
(
(-0.149962 0.63194 -0.367345)
(-0.24152 0.795938 -0.527076)
(-0.191713 0.938805 -0.483448)
(-0.248189 0.985053 -0.58597)
(-0.257529 1.05491 -0.599432)
(-0.249651 0.92839 -0.585708)
(-0.249358 1.04871 -0.608923)
(-0.25227 1.07333 -0.595781)
(-0.243862 1.04639 -0.595653)
(-0.259119 1.03892 -0.607639)
(-0.258973 1.01463 -0.601148)
(-0.248269 1.09988 -0.614435)
(-0.261233 1.06539 -0.620147)
(-0.25953 1.05092 -0.629422)
(-0.253382 1.02115 -0.612982)
(-0.261614 1.02656 -0.621226)
(-0.267398 1.0315 -0.628303)
(-0.262165 0.99398 -0.622241)
(-0.267165 0.994726 -0.607851)
(-0.246925 1.07181 -0.621422)
(-0.261001 1.01905 -0.607723)
(-0.263671 1.02208 -0.630811)
(-0.253325 1.04216 -0.604406)
(-0.286388 1.08908 -0.656023)
(-0.186596 0.803402 -0.370026)
(-0.174454 0.743614 -0.354256)
(-0.181374 0.773524 -0.365481)
(-0.174403 0.734663 -0.341751)
(-0.191963 0.837629 -0.373625)
(-0.15233 0.615517 -0.296536)
(-0.16475 0.646901 -0.301271)
(-0.187098 0.811519 -0.377622)
(-0.185775 0.854382 -0.386945)
(-0.187739 0.799615 -0.365259)
(-0.186348 0.843615 -0.390002)
(-0.149396 0.590216 -0.280661)
(-0.157868 0.635954 -0.29865)
(-0.186827 0.873277 -0.391104)
(-0.170289 0.749534 -0.344795)
(-0.170724 0.772588 -0.353304)
(-0.163877 0.6817 -0.446871)
(-0.154215 0.673268 -0.447084)
(-0.188889 0.739394 -0.456814)
(-0.17274 0.755068 -0.451178)
(-0.134596 0.534309 -0.393608)
(-0.190334 0.697209 -0.44051)
(-0.144984 0.492507 -0.383264)
(-0.171136 0.559956 -0.415085)
(-0.138239 0.596938 -0.404848)
(-0.130389 0.506751 -0.372232)
(-0.188697 0.721752 -0.442516)
(-0.157597 0.69706 -0.433127)
(-0.117349 0.454223 -0.344694)
(-0.150261 0.527154 -0.387158)
(-0.16634 0.843548 -0.407046)
(-0.164554 0.840622 -0.411331)
(-0.185396 0.935304 -0.438281)
(-0.192294 0.961409 -0.448939)
(-0.177352 0.89803 -0.432652)
(-0.185381 0.864986 -0.429873)
(-0.168044 0.84532 -0.421938)
(-0.218209 1.09414 -0.498432)
(-0.219417 1.09454 -0.501414)
(-0.197842 0.984199 -0.457261)
(-0.209104 1.03182 -0.477202)
(-0.206786 0.974821 -0.470047)
(-0.184431 0.909576 -0.451076)
(-0.196395 0.971283 -0.455358)
(-0.213969 1.03401 -0.484221)
(-0.202966 0.982613 -0.474843)
(-0.203159 0.974611 -0.465178)
(-0.290305 1.00179 -0.663489)
(-0.295428 0.987114 -0.671437)
(-0.290834 0.998218 -0.680125)
(-0.293969 0.98437 -0.677872)
(-0.298162 0.928791 -0.669839)
(-0.281468 0.979712 -0.649833)
(-0.289582 0.968193 -0.665811)
(-0.292033 0.926731 -0.666497)
(-0.267632 0.923584 -0.631363)
(-0.286922 0.91878 -0.648695)
(-0.272315 1.02166 -0.647606)
(-0.283647 0.981964 -0.653136)
(-0.265338 0.91419 -0.613579)
(-0.273299 0.874122 -0.624861)
(-0.2854 1.00726 -0.668057)
(-0.146341 0.754989 -0.402492)
(-0.157004 0.782439 -0.419688)
(-0.148026 0.719914 -0.394947)
(-0.12748 0.643186 -0.365785)
(-0.135452 0.72398 -0.394713)
(-0.181691 0.891245 -0.449516)
(-0.16935 0.844651 -0.441735)
(-0.160977 0.831253 -0.443494)
(-0.178876 0.887557 -0.457965)
(-0.133735 0.687065 -0.383495)
(-0.114371 0.621181 -0.373252)
(-0.160177 0.808366 -0.429831)
(-0.171098 0.839671 -0.443293)
(-0.126368 0.681152 -0.396336)
(-0.125973 0.678005 -0.389366)
(-0.145214 0.742771 -0.408515)
(-0.137142 0.741232 -0.396858)
(-0.144549 0.739772 -0.417089)
(-0.129825 0.679232 -0.376791)
(-0.134813 0.692783 -0.391635)
(-0.172205 0.715433 -0.502648)
(-0.152815 0.582287 -0.484896)
(-0.124338 0.547178 -0.467103)
(-0.108307 0.501151 -0.450997)
(-0.130911 0.624193 -0.482492)
(-0.131837 0.586201 -0.487161)
(-0.165094 0.739679 -0.525466)
(-0.160874 0.679854 -0.499639)
(-0.164352 0.646128 -0.52617)
(-0.143341 0.601809 -0.489345)
(-0.142848 0.648945 -0.480969)
(-0.118639 0.580983 -0.45325)
(-0.12712 0.55743 -0.464857)
(-0.128146 0.600659 -0.454709)
(-0.156547 0.688202 -0.496212)
(-0.124197 0.603726 -0.454068)
(-0.142185 0.66217 -0.491453)
(-0.12303 0.592942 -0.454421)
(-0.11803 0.56137 -0.457515)
(-0.149818 0.736226 -0.41537)
(-0.126936 0.649224 -0.373022)
(-0.133638 0.676715 -0.395655)
(-0.121327 0.624139 -0.362358)
(-0.152055 0.756834 -0.397458)
(-0.132847 0.669326 -0.382445)
(-0.121947 0.609691 -0.352174)
(-0.141629 0.680093 -0.395053)
(-0.152818 0.791383 -0.414203)
(-0.153506 0.741841 -0.38878)
(-0.138638 0.698006 -0.367505)
(-0.146061 0.714932 -0.38552)
(-0.127563 0.652766 -0.365652)
(-0.150732 0.771004 -0.420001)
(-0.148566 0.723257 -0.380171)
(-0.13932 0.687167 -0.372208)
(-0.125337 0.642308 -0.366426)
(-0.171465 0.636272 -0.305993)
(-0.159635 0.617924 -0.302486)
(-0.16532 0.583858 -0.299237)
(-0.161126 0.608568 -0.296493)
(-0.173915 0.716417 -0.335969)
(-0.169448 0.693784 -0.329424)
(-0.164975 0.601784 -0.29071)
(-0.161226 0.644126 -0.304823)
(-0.173956 0.756366 -0.367602)
(-0.18664 0.833523 -0.399953)
(-0.171247 0.798805 -0.375268)
(-0.196667 0.845319 -0.401858)
(-0.185911 0.815195 -0.391125)
(-0.169288 0.727556 -0.339549)
(-0.165719 0.686622 -0.337612)
(-0.19043 0.830406 -0.385734)
(-0.200585 0.903221 -0.423829)
(-0.201581 0.915424 -0.439437)
(-0.197179 0.910533 -0.433784)
(-0.173124 0.726904 -0.351163)
(-0.194868 0.875158 -0.414942)
(-0.189492 0.789981 -0.387371)
(-0.166545 0.870014 -0.398731)
(-0.204174 0.980348 -0.461095)
(-0.181137 0.904833 -0.430065)
(-0.153369 0.771382 -0.374909)
(-0.160946 0.798728 -0.392757)
(-0.165822 0.781802 -0.3831)
(-0.153723 0.725156 -0.366643)
(-0.166565 0.805255 -0.388131)
(-0.159013 0.73613 -0.375551)
(-0.143966 0.703142 -0.357237)
(-0.186707 0.922262 -0.433644)
(-0.165345 0.824277 -0.405836)
(-0.156038 0.764816 -0.379331)
(-0.185896 0.912878 -0.43062)
(-0.162919 0.748052 -0.377292)
(-0.191346 0.923999 -0.440764)
(-0.20278 0.976146 -0.448864)
(-0.188508 0.917255 -0.432924)
(-0.169587 0.50926 -0.420835)
(-0.17796 0.607461 -0.438505)
(-0.160585 0.460187 -0.403528)
(-0.188397 0.525623 -0.430778)
(-0.17769 0.495558 -0.417522)
(-0.198619 0.761025 -0.494371)
(-0.202703 0.811444 -0.508395)
(-0.198592 0.70127 -0.464961)
(-0.202864 0.714046 -0.467584)
(-0.180739 0.537097 -0.429165)
(-0.173068 0.468917 -0.410241)
(-0.163072 0.448046 -0.405394)
(-0.195013 0.740935 -0.499061)
(-0.16124 0.593079 -0.464507)
(-0.14912 0.523954 -0.433459)
(-0.204947 0.657563 -0.459737)
(-0.2138 0.71012 -0.472643)
(-0.208766 0.729409 -0.511681)
(-0.212622 0.735141 -0.508985)
(-0.160977 0.53339 -0.446053)
(-0.184103 0.73883 -0.381463)
(-0.181722 0.711579 -0.371573)
(-0.190025 0.860773 -0.429092)
(-0.185887 0.814399 -0.407899)
(-0.170181 0.719093 -0.367511)
(-0.187652 0.732815 -0.38832)
(-0.180346 0.64734 -0.345348)
(-0.197511 0.849442 -0.424086)
(-0.196269 0.864075 -0.425159)
(-0.188728 0.847698 -0.413273)
(-0.173024 0.762284 -0.380971)
(-0.174337 0.703258 -0.355405)
(-0.170531 0.696353 -0.354218)
(-0.169334 0.626898 -0.323048)
(-0.18067 0.754786 -0.391475)
(-0.19174 0.782104 -0.396947)
(-0.180944 0.687234 -0.351488)
(-0.186801 0.731369 -0.380523)
(-0.129567 0.532274 -0.356662)
(-0.130914 0.557508 -0.361962)
(-0.15519 0.584943 -0.374121)
(-0.140417 0.561393 -0.369504)
(-0.103728 0.456129 -0.298948)
(-0.110923 0.485311 -0.322034)
(-0.141974 0.535678 -0.354346)
(-0.148269 0.549336 -0.358222)
(-0.115525 0.428299 -0.306939)
(-0.115443 0.468707 -0.330765)
(-0.129754 0.473703 -0.298384)
(-0.139966 0.494875 -0.317573)
(-0.138556 0.476227 -0.328209)
(-0.100966 0.444849 -0.30901)
(-0.0998526 0.368483 -0.257951)
(-0.14499 0.472783 -0.305887)
(-0.140967 0.439375 -0.283325)
(-0.118983 0.433125 -0.284505)
(-0.13811 0.424861 -0.284683)
(-0.119731 0.363443 -0.249377)
(-0.111826 0.380571 -0.254244)
(-0.189793 0.660349 -0.410379)
(-0.152282 0.464059 -0.350405)
(-0.156059 0.444275 -0.347407)
(-0.181824 0.544268 -0.37071)
(-0.17853 0.507606 -0.366113)
(-0.18666 0.53107 -0.382194)
(-0.134151 0.605841 -0.28595)
(-0.138655 0.58465 -0.286001)
(-0.134255 0.565518 -0.27645)
(-0.119917 0.593539 -0.299421)
(-0.122579 0.55807 -0.284081)
(-0.138044 0.642069 -0.309979)
(-0.136478 0.634009 -0.29918)
(-0.166809 0.710972 -0.339475)
(-0.176436 0.748221 -0.353752)
(-0.108599 0.540232 -0.265379)
(-0.16961 0.784014 -0.368075)
(-0.150093 0.690035 -0.336104)
(-0.162233 0.718523 -0.336633)
(-0.15149 0.673925 -0.324395)
(-0.152292 0.719097 -0.344469)
(-0.162055 0.771336 -0.369106)
(-0.159769 0.750169 -0.355027)
(-0.169962 0.779165 -0.369526)
(-0.173446 0.823107 -0.392331)
(-0.220796 0.96297 -0.527254)
(-0.219648 0.912681 -0.513308)
(-0.228666 0.950968 -0.540131)
(-0.218877 0.892926 -0.508512)
(-0.228388 0.917644 -0.544091)
(-0.226346 0.994949 -0.547557)
(-0.223034 1.00613 -0.541725)
(-0.224008 0.914469 -0.526127)
(-0.222323 0.895679 -0.526348)
(-0.231234 1.03232 -0.571364)
(-0.236106 1.06029 -0.593514)
(-0.221115 0.943501 -0.562048)
(-0.216151 0.941734 -0.552602)
(-0.231264 1.0347 -0.571615)
(-0.227605 1.01267 -0.562315)
(-0.236766 1.0312 -0.57743)
(-0.233329 1.0469 -0.574833)
(-0.227246 0.934363 -0.533243)
(-0.227735 0.887689 -0.542415)
(-0.231038 1.01116 -0.583464)
(-0.233157 0.944591 -0.557207)
(-0.234838 1.02161 -0.594663)
(-0.241741 0.923998 -0.595365)
(-0.263046 0.942801 -0.603799)
(-0.271461 0.971822 -0.651026)
(-0.219163 0.866219 -0.544494)
(-0.232526 0.931852 -0.604274)
(-0.230781 0.849024 -0.551464)
(-0.225494 0.895598 -0.561021)
(-0.223608 0.841602 -0.536767)
(-0.219311 0.836025 -0.540498)
(-0.207032 0.763128 -0.491598)
(-0.238024 0.878846 -0.577287)
(-0.223276 0.919764 -0.576295)
(-0.240885 0.956687 -0.60616)
(-0.220694 0.849146 -0.536257)
(-0.211137 0.915197 -0.548417)
(-0.208757 0.865055 -0.540838)
(-0.228684 0.85537 -0.538233)
(-0.207585 1.0097 -0.448231)
(-0.202242 1.00729 -0.446564)
(-0.212231 1.06193 -0.46148)
(-0.205941 1.05893 -0.463708)
(-0.206903 1.01616 -0.453564)
(-0.228397 1.10982 -0.501382)
(-0.221284 1.11477 -0.484051)
(-0.199254 1.02486 -0.453482)
(-0.225127 1.16322 -0.49836)
(-0.20955 1.07243 -0.471815)
(-0.206594 1.07644 -0.478376)
(-0.192764 0.957351 -0.425964)
(-0.216822 1.06811 -0.474172)
(-0.222605 1.15606 -0.502115)
(-0.231342 1.1544 -0.514976)
(-0.174499 0.920377 -0.411361)
(-0.158581 0.856055 -0.392197)
(-0.144088 0.78933 -0.379225)
(-0.157767 0.802025 -0.380823)
(-0.162452 0.880383 -0.400127)
(-0.156993 0.734349 -0.380276)
(-0.171349 0.818281 -0.424942)
(-0.191215 0.884579 -0.44993)
(-0.203582 0.965484 -0.489582)
(-0.203447 0.982447 -0.493653)
(-0.178334 0.892731 -0.435147)
(-0.180087 0.913781 -0.454038)
(-0.207116 1.0007 -0.491943)
(-0.181686 0.902425 -0.437163)
(-0.199524 0.986372 -0.487424)
(-0.186304 0.922004 -0.462324)
(-0.181755 0.886915 -0.452676)
(-0.173228 0.83411 -0.4293)
(-0.189833 0.925709 -0.451612)
(-0.18873 0.94341 -0.46275)
(-0.186047 0.884711 -0.444088)
(-0.140846 0.535293 -0.288213)
(-0.136515 0.551724 -0.291123)
(-0.171289 0.714307 -0.347796)
(-0.129561 0.488843 -0.268258)
(-0.169856 0.720477 -0.356499)
(-0.126802 0.502698 -0.270473)
(-0.123552 0.553324 -0.294886)
(-0.13833 0.645017 -0.312509)
(-0.128012 0.531647 -0.291561)
(-0.128245 0.492146 -0.269807)
(-0.180405 0.780875 -0.393122)
(-0.210009 0.918354 -0.446047)
(-0.166261 0.725345 -0.369642)
(-0.180059 0.798218 -0.395207)
(-0.197546 0.88684 -0.44248)
(-0.206878 0.922408 -0.452025)
(-0.200873 0.77187 -0.403541)
(-0.186884 0.805878 -0.415572)
(-0.153223 0.647349 -0.323705)
(-0.155404 0.645569 -0.31853)
(-0.159336 0.730719 -0.368431)
(-0.194639 0.838246 -0.422014)
(-0.167497 0.641391 -0.335094)
(-0.165031 0.635126 -0.335625)
(-0.143305 0.561231 -0.292314)
(-0.162523 0.634678 -0.318392)
(-0.181271 0.831603 -0.41266)
(-0.158589 0.678942 -0.354658)
(-0.160065 0.604033 -0.318559)
(-0.165813 0.692394 -0.353905)
(-0.203913 0.967059 -0.537826)
(-0.207912 0.957326 -0.543449)
(-0.200749 0.958923 -0.540151)
(-0.195355 0.89143 -0.507909)
(-0.22877 1.06471 -0.547769)
(-0.218673 1.04451 -0.543156)
(-0.222068 1.04434 -0.550227)
(-0.219257 1.04447 -0.540018)
(-0.222106 1.04302 -0.53614)
(-0.198789 0.900298 -0.499535)
(-0.201316 0.943098 -0.533819)
(-0.198386 0.970265 -0.533623)
(-0.189157 0.897236 -0.505786)
(-0.226812 1.03961 -0.551885)
(-0.207573 0.981287 -0.523735)
(-0.206519 0.999624 -0.538815)
(-0.193202 0.948722 -0.517774)
(-0.309935 0.948389 -0.701177)
(-0.328269 0.902182 -0.689615)
(-0.322746 0.902097 -0.690089)
(-0.174758 0.708987 -0.334558)
(-0.171468 0.71696 -0.33542)
(-0.15866 0.691194 -0.330246)
(-0.181262 0.845385 -0.387546)
(-0.18134 0.815358 -0.36986)
(-0.163874 0.735973 -0.34565)
(-0.164069 0.752095 -0.351615)
(-0.192521 0.895361 -0.419802)
(-0.19393 0.902551 -0.415162)
(-0.188523 0.873401 -0.403159)
(-0.192516 0.923838 -0.417055)
(-0.186335 0.778052 -0.374303)
(-0.194695 0.831147 -0.393405)
(-0.1863 0.844401 -0.385582)
(-0.176069 0.796788 -0.371476)
(-0.19575 0.876866 -0.401627)
(-0.188499 0.797637 -0.379383)
(-0.133388 0.648941 -0.433562)
(-0.134547 0.618314 -0.458554)
(-0.149355 0.662921 -0.471742)
(-0.150722 0.678377 -0.45326)
(-0.125236 0.619724 -0.435842)
(-0.116503 0.562161 -0.462938)
(-0.155887 0.652616 -0.464455)
(-0.105693 0.488342 -0.432112)
(-0.15602 0.75758 -0.494427)
(-0.189282 0.827786 -0.52165)
(-0.16119 0.71774 -0.46993)
(-0.157107 0.649626 -0.48494)
(-0.177216 0.769525 -0.512582)
(-0.186493 0.757369 -0.512502)
(-0.180183 0.751168 -0.512999)
(-0.291508 0.620316 -0.567796)
(-0.278094 0.653485 -0.58227)
(-0.283363 0.726023 -0.601157)
(-0.286976 0.724586 -0.614372)
(-0.305742 0.832255 -0.64363)
(-0.30806 0.806876 -0.651989)
(-0.303937 0.662463 -0.583887)
(-0.285651 0.708373 -0.583718)
(-0.277996 0.78163 -0.598277)
(-0.297347 0.834075 -0.629953)
(-0.292345 0.863155 -0.638277)
(-0.284446 0.721709 -0.63442)
(-0.296131 0.683339 -0.608879)
(-0.301157 0.830335 -0.644255)
(-0.318179 0.753627 -0.624031)
(-0.316531 0.717408 -0.613019)
(-0.311497 0.667826 -0.585694)
(-0.30126 0.818891 -0.624459)
(-0.286934 0.810737 -0.604879)
(-0.309104 0.704175 -0.592432)
(-0.165027 0.763343 -0.375674)
(-0.14907 0.715287 -0.358045)
(-0.187883 0.888449 -0.432489)
(-0.182579 0.874778 -0.421573)
(-0.16742 0.776322 -0.381451)
(-0.154641 0.780905 -0.381916)
(-0.184612 0.911761 -0.440045)
(-0.185636 0.891611 -0.441703)
(-0.164377 0.784212 -0.399471)
(-0.190685 0.916435 -0.451416)
(-0.175807 0.885849 -0.442568)
(-0.150855 0.745032 -0.368373)
(-0.181384 0.847377 -0.413436)
(-0.137011 0.70402 -0.384909)
(-0.152119 0.784904 -0.406694)
(-0.152542 0.776341 -0.399843)
(-0.155775 0.79899 -0.396039)
(-0.149697 0.775358 -0.396751)
(-0.137514 0.665165 -0.36433)
(-0.110125 0.60504 -0.324546)
(-0.272376 0.792031 -0.591179)
(-0.276942 0.804738 -0.583601)
(-0.281122 0.773512 -0.594373)
(-0.289032 0.817428 -0.610012)
(-0.26246 0.753665 -0.587635)
(-0.281176 0.686175 -0.551714)
(-0.283866 0.740219 -0.585881)
(-0.272406 0.54421 -0.535485)
(-0.271693 0.525505 -0.514051)
(-0.286614 0.631116 -0.556592)
(-0.272924 0.711334 -0.599695)
(-0.273249 0.524935 -0.504114)
(-0.275613 0.541438 -0.535814)
(-0.248493 0.628886 -0.573388)
(-0.255395 0.629675 -0.574538)
(-0.270828 0.696922 -0.564181)
(-0.272288 0.574662 -0.526836)
(-0.266263 0.534796 -0.536095)
(-0.170888 0.625864 -0.406847)
(-0.161257 0.571617 -0.381068)
(-0.160204 0.542182 -0.384882)
(-0.189949 0.8012 -0.433041)
(-0.195871 0.785363 -0.435396)
(-0.195978 0.78453 -0.43513)
(-0.19375 0.853749 -0.468154)
(-0.180063 0.705498 -0.425697)
(-0.181465 0.752847 -0.434043)
(-0.169223 0.529498 -0.360504)
(-0.15203 0.481703 -0.359077)
(-0.186619 0.743694 -0.430245)
(-0.188642 0.739901 -0.427606)
(-0.190953 0.777447 -0.435202)
(-0.187182 0.67747 -0.394488)
(-0.178641 0.715949 -0.422075)
(-0.157139 0.573069 -0.391359)
(-0.14564 0.523942 -0.373831)
(-0.156052 0.616279 -0.381517)
(-0.149819 0.565347 -0.362115)
(-0.164304 0.58147 -0.37422)
(-0.311654 0.852261 -0.673441)
(-0.316769 0.890546 -0.674676)
(-0.332297 0.765133 -0.671117)
(-0.314826 0.759575 -0.64384)
(-0.298017 0.69714 -0.619862)
(-0.304568 0.915269 -0.67752)
(-0.300842 0.844918 -0.663552)
(-0.293144 0.867973 -0.662717)
(-0.308569 0.905172 -0.686773)
(-0.29791 0.895347 -0.671083)
(-0.285639 0.861523 -0.648508)
(-0.286394 0.617111 -0.62259)
(-0.300196 0.661828 -0.63324)
(-0.297388 0.46239 -0.572344)
(-0.29525 0.464855 -0.583151)
(-0.293226 0.602049 -0.618288)
(-0.281975 0.572791 -0.601127)
(-0.30193 0.642169 -0.617586)
(-0.289612 0.489769 -0.570201)
(-0.301677 0.452348 -0.565912)
(-0.30493 0.439932 -0.556635)
(-0.329507 0.680626 -0.634389)
(-0.328332 0.671198 -0.6368)
(-0.316031 0.621667 -0.60208)
(-0.318819 0.691714 -0.628744)
(-0.30295 0.48921 -0.547002)
(-0.301511 0.457455 -0.541183)
(-0.322081 0.514932 -0.566357)
(-0.314168 0.51188 -0.548024)
(-0.300998 0.446195 -0.52144)
(-0.299986 0.617616 -0.606402)
(-0.325471 0.556951 -0.561794)
(-0.308938 0.510689 -0.541695)
(-0.299751 0.541484 -0.570337)
(-0.217594 0.709249 -0.573933)
(-0.219737 0.700863 -0.580476)
(-0.204345 0.684125 -0.563361)
(-0.187964 0.658 -0.536645)
(-0.24852 0.840828 -0.616359)
(-0.254577 0.826895 -0.613471)
(-0.254942 0.867966 -0.596814)
(-0.257592 0.926118 -0.599517)
(-0.236026 0.724406 -0.56667)
(-0.192775 0.702096 -0.553626)
(-0.240026 0.867409 -0.590179)
(-0.199739 0.738643 -0.556988)
(-0.218647 0.732606 -0.567855)
(-0.238734 0.945926 -0.591192)
(-0.217993 0.862334 -0.555453)
(-0.203097 0.760046 -0.55997)
(-0.190853 0.759232 -0.568073)
(-0.195386 0.80867 -0.556563)
(-0.235444 0.82339 -0.568642)
(-0.237503 0.856864 -0.579442)
(-0.202285 0.807733 -0.549838)
(-0.23694 1.09618 -0.58477)
(-0.234949 1.06161 -0.574611)
(-0.256342 1.08617 -0.588514)
(-0.243567 1.07651 -0.591105)
(-0.243731 1.0917 -0.574698)
(-0.227416 1.04109 -0.542599)
(-0.224328 1.02738 -0.543008)
(-0.235958 1.07364 -0.579253)
(-0.246111 1.09545 -0.582267)
(-0.224013 1.01812 -0.544741)
(-0.239506 1.07601 -0.57597)
(-0.197136 0.971312 -0.471244)
(-0.183868 0.914056 -0.45674)
(-0.169236 0.8599 -0.425749)
(-0.182302 0.929856 -0.448636)
(-0.173543 0.875515 -0.438624)
(-0.178559 0.920359 -0.457304)
(-0.139998 0.764431 -0.392564)
(-0.156517 0.797149 -0.386954)
(-0.134516 0.711104 -0.355448)
(-0.137979 0.754264 -0.386933)
(-0.168658 0.871598 -0.421657)
(-0.161057 0.795485 -0.394206)
(-0.153027 0.780363 -0.387002)
(-0.16734 0.850796 -0.412505)
(-0.158495 0.781424 -0.384235)
(-0.254356 1.01542 -0.616583)
(-0.255252 1.01608 -0.618181)
(-0.253905 1.023 -0.615389)
(-0.219738 0.950488 -0.568803)
(-0.230717 0.984101 -0.588691)
(-0.240393 0.974059 -0.58459)
(-0.223573 0.94812 -0.544583)
(-0.225035 0.968229 -0.559031)
(-0.231627 0.997519 -0.578835)
(-0.229054 0.98827 -0.56433)
(-0.246866 0.998232 -0.596385)
(-0.24257 1.0512 -0.609955)
(-0.236418 1.01038 -0.578715)
(-0.253587 1.05014 -0.630569)
(-0.244374 1.05254 -0.616266)
(-0.247879 1.01597 -0.612762)
(-0.239131 1.03046 -0.619945)
(-0.15066 0.748875 -0.471219)
(-0.159361 0.754369 -0.456204)
(-0.184148 0.79137 -0.483322)
(-0.156505 0.746759 -0.447982)
(-0.198046 0.819105 -0.485605)
(-0.185016 0.78328 -0.456135)
(-0.199426 0.922564 -0.49443)
(-0.199756 0.901066 -0.486774)
(-0.206217 0.992211 -0.520557)
(-0.200647 0.916647 -0.514331)
(-0.172886 0.839924 -0.472478)
(-0.165553 0.82109 -0.47603)
(-0.184926 0.822572 -0.490124)
(-0.196834 0.902641 -0.485265)
(-0.199528 0.899066 -0.495282)
(-0.110072 0.531672 -0.226903)
(-0.114608 0.554806 -0.234283)
(-0.116089 0.579601 -0.244935)
(-0.108239 0.488065 -0.20677)
(-0.127949 0.603837 -0.266275)
(-0.11936 0.558615 -0.244906)
(-0.145779 0.644424 -0.28203)
(-0.156274 0.713575 -0.29641)
(-0.156034 0.752638 -0.313978)
(-0.0918019 0.51645 -0.319867)
(-0.118435 0.586074 -0.342254)
(-0.0955808 0.523347 -0.324526)
(-0.0821203 0.546087 -0.333198)
(-0.115284 0.630225 -0.361842)
(-0.146941 0.756699 -0.388735)
(-0.136322 0.702845 -0.368657)
(-0.145575 0.725264 -0.37904)
(-0.139615 0.710046 -0.385663)
(-0.153849 0.754982 -0.395713)
(-0.107824 0.558249 -0.344346)
(-0.087499 0.499754 -0.317103)
(-0.117365 0.564835 -0.350701)
(-0.0910028 0.489223 -0.316513)
(-0.100624 0.524394 -0.326973)
(-0.0945064 0.526387 -0.323949)
(-0.131495 0.617861 -0.361951)
(-0.163177 0.73949 -0.394821)
(-0.20607 0.855946 -0.502279)
(-0.215882 0.86324 -0.521096)
(-0.201363 0.759392 -0.496361)
(-0.181342 0.713753 -0.473787)
(-0.200498 0.865293 -0.507049)
(-0.211018 0.882157 -0.520303)
(-0.177132 0.777373 -0.492223)
(-0.156998 0.647843 -0.451096)
(-0.181965 0.485237 -0.395723)
(-0.179888 0.450719 -0.376379)
(-0.180825 0.50446 -0.372751)
(-0.18374 0.508271 -0.390745)
(-0.188395 0.539046 -0.399747)
(-0.18768 0.468664 -0.35384)
(-0.181322 0.42259 -0.332023)
(-0.183355 0.464536 -0.35586)
(-0.195537 0.5407 -0.373797)
(-0.198351 0.705112 -0.449832)
(-0.198168 0.724922 -0.455515)
(-0.189859 0.652025 -0.408418)
(-0.199041 0.646579 -0.420028)
(-0.196849 0.566596 -0.39624)
(-0.202095 0.730462 -0.458096)
(-0.191066 0.49935 -0.381028)
(-0.177461 0.386299 -0.3414)
(-0.23228 0.713313 -0.521136)
(-0.228239 0.673584 -0.49626)
(-0.240348 0.706725 -0.520486)
(-0.221206 0.670166 -0.49705)
(-0.234953 0.774808 -0.55302)
(-0.227767 0.731151 -0.523587)
(-0.240194 0.846811 -0.567853)
(-0.222407 0.799697 -0.551041)
(-0.237486 0.683174 -0.525851)
(-0.222218 0.638546 -0.503963)
(-0.230466 0.702876 -0.519797)
(-0.231594 0.833886 -0.571678)
(-0.229655 0.801902 -0.555275)
(-0.204204 0.684559 -0.507979)
(-0.208815 0.669034 -0.517328)
(-0.226072 0.668638 -0.530878)
(-0.230184 0.731798 -0.561474)
(-0.239022 0.724155 -0.569904)
(-0.203763 0.668182 -0.529647)
(-0.21802 0.677431 -0.56115)
(-0.17745 0.875337 -0.436997)
(-0.153555 0.772988 -0.371142)
(-0.172985 0.862672 -0.402997)
(-0.161421 0.813703 -0.405435)
(-0.156167 0.804576 -0.399973)
(-0.172623 0.827396 -0.415506)
(-0.143953 0.743113 -0.356341)
(-0.160743 0.779309 -0.379853)
(-0.145454 0.730445 -0.351244)
(-0.160591 0.844077 -0.395506)
(-0.163432 0.827268 -0.410781)
(-0.183816 0.857707 -0.41177)
(-0.136949 0.694245 -0.363562)
(-0.127126 0.657119 -0.348031)
(-0.137902 0.714082 -0.367963)
(-0.13811 0.716337 -0.3578)
(-0.123343 0.664971 -0.342715)
(-0.123258 0.62061 -0.340302)
(-0.125037 0.674631 -0.344622)
(-0.194904 0.908058 -0.565563)
(-0.167125 0.802696 -0.540068)
(-0.177122 0.859763 -0.539587)
(-0.209133 0.948964 -0.559622)
(-0.208369 0.952298 -0.56618)
(-0.165602 0.759408 -0.500284)
(-0.156211 0.707157 -0.484072)
(-0.170537 0.757819 -0.511847)
(-0.148563 0.695086 -0.481584)
(-0.202183 0.894019 -0.576107)
(-0.17237 0.806345 -0.536618)
(-0.197313 0.953725 -0.563249)
(-0.202993 0.970813 -0.555392)
(-0.205115 0.935883 -0.548725)
(-0.210699 0.949361 -0.567136)
(-0.186938 0.821447 -0.52667)
(-0.186697 0.840002 -0.526048)
(-0.173093 0.793841 -0.514295)
(-0.187578 0.928055 -0.543408)
(-0.207034 0.919426 -0.566891)
(-0.170032 0.78038 -0.49292)
(-0.173332 0.806454 -0.462254)
(-0.212738 0.906459 -0.463006)
(-0.207274 0.957217 -0.493268)
(-0.178032 0.794565 -0.452558)
(-0.211908 0.944878 -0.496299)
(-0.181028 0.840152 -0.469822)
(-0.197615 0.942126 -0.493034)
(-0.242313 0.638067 -0.475469)
(-0.232361 0.619715 -0.449064)
(-0.237325 0.584094 -0.468161)
(-0.237253 0.567975 -0.464772)
(-0.23289 0.663009 -0.480166)
(-0.240955 0.603395 -0.479548)
(-0.241497 0.596242 -0.495842)
(-0.239781 0.772703 -0.536618)
(-0.244814 0.792628 -0.561887)
(-0.236424 0.86512 -0.580612)
(-0.242681 0.868279 -0.59153)
(-0.239894 0.722217 -0.493572)
(-0.23651 0.779383 -0.506088)
(-0.24803 0.645372 -0.515853)
(-0.237975 0.757684 -0.550068)
(-0.231496 0.802419 -0.531963)
(-0.227823 0.741965 -0.507823)
(-0.231057 0.683095 -0.519096)
(-0.236798 0.680348 -0.513301)
(-0.241494 0.630483 -0.494216)
(-0.234485 0.612681 -0.478888)
(-0.246315 0.680603 -0.544358)
(-0.251155 0.816479 -0.532758)
(-0.237864 0.664126 -0.517505)
(-0.222621 1.09455 -0.504769)
(-0.211673 1.02563 -0.482875)
(-0.227396 1.1387 -0.52338)
(-0.213026 1.05847 -0.485775)
(-0.196931 0.984298 -0.473918)
(-0.217393 1.10684 -0.507993)
(-0.212761 1.05857 -0.485505)
(-0.221779 1.10013 -0.512963)
(-0.222726 1.08359 -0.502448)
(-0.225642 1.10118 -0.517408)
(-0.209777 1.02389 -0.488449)
(-0.190633 0.957233 -0.470174)
(-0.192409 0.955559 -0.462922)
(-0.119216 0.532495 -0.360893)
(-0.14011 0.566716 -0.377493)
(-0.120016 0.541061 -0.358755)
(-0.112765 0.4855 -0.34012)
(-0.1306 0.528152 -0.363771)
(-0.115715 0.487469 -0.34993)
(-0.152991 0.694852 -0.406122)
(-0.158028 0.725466 -0.41727)
(-0.170655 0.731208 -0.422521)
(-0.165311 0.755648 -0.426165)
(-0.130297 0.600723 -0.387407)
(-0.125594 0.606561 -0.391635)
(-0.117774 0.548612 -0.372773)
(-0.131785 0.602048 -0.408603)
(-0.139001 0.584808 -0.392922)
(-0.17798 0.736707 -0.428101)
(-0.161297 0.694673 -0.423246)
(-0.15805 0.728611 -0.419282)
(-0.139223 0.598665 -0.284573)
(-0.134214 0.559467 -0.266929)
(-0.140015 0.568964 -0.263858)
(-0.135604 0.513201 -0.240795)
(-0.149707 0.656502 -0.306075)
(-0.161372 0.690933 -0.325214)
(-0.118244 0.47923 -0.226675)
(-0.16508 0.765243 -0.351106)
(-0.162982 0.766089 -0.342418)
(-0.153861 0.603026 -0.281614)
(-0.144726 0.554585 -0.256807)
(-0.159532 0.710891 -0.319872)
(-0.166555 0.713724 -0.327139)
(-0.164467 0.738342 -0.348242)
(-0.141169 0.623914 -0.288508)
(-0.123409 0.559144 -0.256838)
(-0.120942 0.520439 -0.242224)
(-0.138772 0.652555 -0.305616)
(-0.119832 0.534935 -0.244648)
(-0.132836 0.620871 -0.290269)
(-0.21008 0.9582 -0.443193)
(-0.219357 0.983033 -0.45949)
(-0.192608 0.81633 -0.397006)
(-0.186514 0.780233 -0.382221)
(-0.201764 0.914478 -0.428401)
(-0.200702 0.918005 -0.430173)
(-0.210587 0.958915 -0.449053)
(-0.207975 0.916367 -0.435265)
(-0.202781 0.926608 -0.441433)
(-0.188202 0.788865 -0.371244)
(-0.195323 0.906268 -0.433283)
(-0.187173 0.766624 -0.372936)
(-0.18347 0.721546 -0.361078)
(-0.186005 0.770918 -0.375411)
(-0.194338 0.832095 -0.394085)
(-0.180037 0.79462 -0.376084)
(-0.110524 0.557064 -0.304456)
(-0.101708 0.502904 -0.291457)
(-0.112106 0.56563 -0.318689)
(-0.0988557 0.504939 -0.299202)
(-0.11693 0.550688 -0.320902)
(-0.127076 0.597461 -0.330816)
(-0.12137 0.61539 -0.339772)
(-0.126493 0.615104 -0.351987)
(-0.120592 0.633904 -0.32904)
(-0.113382 0.604417 -0.330628)
(-0.108829 0.56519 -0.315399)
(-0.147741 0.732016 -0.377022)
(-0.1388 0.726577 -0.371478)
(-0.145256 0.720587 -0.374325)
(-0.160824 0.780808 -0.393341)
(-0.14026 0.701831 -0.352438)
(-0.139822 0.72682 -0.358416)
(-0.147655 0.746997 -0.3737)
(-0.179165 0.61676 -0.377841)
(-0.156119 0.486413 -0.312176)
(-0.171098 0.488068 -0.319251)
(-0.177861 0.57802 -0.363264)
(-0.186122 0.643808 -0.384535)
(-0.157205 0.497705 -0.310853)
(-0.163748 0.443823 -0.282025)
(-0.163676 0.412963 -0.271445)
(-0.189557 0.477931 -0.327666)
(-0.192541 0.492444 -0.329553)
(-0.164082 0.472605 -0.303109)
(-0.171021 0.44467 -0.2907)
(-0.181343 0.442163 -0.297835)
(-0.183442 0.463859 -0.321712)
(-0.17102 0.427711 -0.299923)
(-0.18896 0.518013 -0.33905)
(-0.183385 0.616042 -0.371503)
(-0.178334 0.508481 -0.317925)
(-0.264391 0.521158 -0.573263)
(-0.249063 0.547407 -0.593163)
(-0.263772 0.54136 -0.575364)
(-0.248057 0.623756 -0.613702)
(-0.262752 0.650934 -0.609823)
(-0.254826 0.514663 -0.589699)
(-0.252286 0.544309 -0.599245)
(-0.258765 0.504583 -0.577204)
(-0.282969 0.633167 -0.601777)
(-0.28072 0.698498 -0.628965)
(-0.26593 0.58477 -0.615212)
(-0.270934 0.660785 -0.635324)
(-0.244557 0.621918 -0.625024)
(-0.269268 0.731866 -0.631533)
(-0.25592 0.675494 -0.625476)
(-0.232726 0.444115 -0.574913)
(-0.22431 0.399314 -0.55754)
(-0.247938 0.453975 -0.571138)
(-0.219907 0.413823 -0.54939)
(-0.213323 0.354644 -0.529865)
(-0.255599 0.412378 -0.555868)
(-0.252709 0.461901 -0.553807)
(-0.251334 0.419062 -0.535021)
(-0.245374 0.349667 -0.522099)
(-0.23913 0.452668 -0.563656)
(-0.257838 0.467136 -0.572974)
(-0.25568 0.420677 -0.544393)
(-0.250528 0.406167 -0.536461)
(-0.176103 0.560971 -0.3281)
(-0.179255 0.536164 -0.315584)
(-0.188909 0.667431 -0.369939)
(-0.182335 0.66864 -0.362186)
(-0.18621 0.57493 -0.329986)
(-0.180689 0.548397 -0.324356)
(-0.172503 0.487234 -0.29445)
(-0.178111 0.508215 -0.323398)
(-0.172023 0.482062 -0.313376)
(-0.198099 0.774728 -0.425551)
(-0.201586 0.736133 -0.416795)
(-0.201832 0.782616 -0.427942)
(-0.178706 0.524394 -0.335977)
(-0.184083 0.52898 -0.333184)
(-0.185369 0.548597 -0.344391)
(-0.184537 0.541681 -0.322355)
(-0.18246 0.718814 -0.381973)
(-0.201108 0.760779 -0.432217)
(-0.192898 0.686528 -0.403985)
(-0.189376 0.714055 -0.394565)
(-0.0747768 0.40718 -0.425437)
(-0.0716761 0.385262 -0.409985)
(-0.086795 0.385082 -0.443897)
(-0.131198 0.505461 -0.242138)
(-0.132824 0.520371 -0.23763)
(-0.14957 0.574274 -0.265518)
(-0.135081 0.526134 -0.329667)
(-0.158532 0.523979 -0.318284)
(-0.076963 0.414743 -0.396465)
(-0.0787625 0.386966 -0.396044)
(-0.0923898 0.421505 -0.421708)
(-0.106398 0.421993 -0.415847)
(-0.177643 0.430483 -0.297318)
(-0.174481 0.448508 -0.290379)
(-0.183469 0.475933 -0.315134)
(-0.164833 0.471299 -0.320183)
(-0.154526 0.466794 -0.334556)
(-0.163934 0.471979 -0.327303)
(-0.157462 0.512571 -0.347199)
(-0.151857 0.475536 -0.33206)
(-0.117018 0.510885 -0.3117)
(-0.101564 0.489509 -0.295793)
(-0.214314 0.352831 -0.313634)
(-0.189169 0.334452 -0.288478)
(-0.200229 0.313943 -0.295333)
(-0.0886911 0.518645 -0.265342)
(-0.0856632 0.502274 -0.266302)
(-0.0883219 0.451588 -0.361441)
(-0.0967231 0.491882 -0.365186)
(-0.0844154 0.48827 -0.36501)
(-0.0902311 0.518276 -0.259917)
(-0.0931373 0.536062 -0.260516)
(-0.113074 0.566077 -0.285583)
(-0.147788 0.462757 -0.42139)
(-0.132756 0.489512 -0.431086)
(-0.132428 0.476235 -0.341635)
(-0.117421 0.464566 -0.347542)
(-0.155272 0.42686 -0.476029)
(-0.168007 0.427592 -0.470296)
(-0.163443 0.488693 -0.27494)
(-0.15962 0.520264 -0.280385)
(-0.249887 0.559145 -0.431458)
(-0.258964 0.52353 -0.415201)