/*--------------------------------*- C++ -*----------------------------------*\
| =========                 |                                                 |
| \\      /  F ield         | OpenFOAM: The Open Source CFD Toolbox           |
|  \\    /   O peration     | Version:  v1612+                                |
|   \\  /    A nd           | Web:      www.OpenFOAM.com                      |
|    \\/     M anipulation  |                                                 |
\*---------------------------------------------------------------------------*/
FoamFile
{
    version     2.0;
    format      ascii;
    class       volVectorField;
    location    "100";
    object      wallShearStress;
}
// * * * * * * * * * * * * * * * * * * * * * * * * * * * * * * * * * * * * * //

dimensions      [0 2 -2 0 0 0 0];

internalField   uniform (0 0 0);

boundaryField
{
    WALL
    {
        type            calculated;
        value           nonuniform List<vector> 
1535
(
(0.0125814 -0.00534864 0.0131018)
(0.0110803 -0.00628543 0.0106231)
(0.0021015 -0.0115756 0.00720411)
(0.0031293 -0.0117601 0.00685415)
(0.00115297 -0.0120776 0.00767141)
(0.000543079 -0.0112071 0.00796312)
(0.00717039 -0.00811888 0.00751702)
(0.00895481 -0.00709919 0.00881986)
(0.000718648 -0.00895673 0.0114656)
(0.00262741 -0.00939549 0.0102621)
(0.006887 -0.0070858 0.00806063)
(0.00698337 -0.00681525 0.00856512)
(3.7953e-05 -0.00777343 0.00641846)
(0.000430685 -0.00851846 0.00603179)
(0.00114593 -0.00849511 0.00588683)
(0.000801999 -0.00870565 0.00598061)
(-0.0011918 -0.00749714 0.00891348)
(-0.00128297 -0.00660119 0.00972025)
(0.00634937 -0.00813625 0.0108101)
(0.00661314 -0.00765892 0.0105368)
(0.000868796 -0.00852882 0.0117367)
(0.000755335 -0.0090981 0.0106518)
(0.0008855 -0.00891517 0.0104977)
(0.000633658 -0.00934618 0.0102078)
(0.00147807 -0.00918973 0.00841099)
(0.00241498 -0.00912423 0.0081632)
(0.000801822 -0.00916107 0.00906548)
(0.00242304 -0.00963621 0.00823028)
(0.0105604 -0.00282869 0.0172221)
(0.0120406 -0.00285913 0.0169443)
(-0.000269215 -0.00879556 0.0106911)
(-0.000898928 -0.00829562 0.0122286)
(-0.000947536 -0.00604272 0.0141134)
(-0.000535009 -0.00543843 0.016969)
(0.0108797 -0.0065214 0.011874)
(0.00963916 -0.00737932 0.00968209)
(-0.000426922 -0.00820071 0.00831122)
(-0.000562181 -0.00842999 0.0101035)
(0.00290788 -0.00901363 0.00849461)
(0.00344726 -0.00957654 0.00849443)
(0.000649927 -0.0105663 0.00950544)
(0.000596601 -0.0109726 0.00921371)
(0.00101772 -0.0108251 0.00894489)
(0.000579681 -0.0103189 0.00939384)
(0.0012476 -0.010134 0.00816753)
(0.00122367 -0.00982601 0.0089957)
(0.00128928 -0.0113966 0.00633862)
(0.00217971 -0.0121561 0.00635665)
(0.000684227 -0.00985424 0.00946837)
(0.000541268 -0.0094814 0.00873805)
(0.00750129 -0.00545579 0.00813524)
(0.00792386 -0.00459602 0.00919873)
(-0.00102308 -0.00640965 0.0104009)
(-0.00106101 -0.00723955 0.00963725)
(0.00283357 -0.00955243 0.00833958)
(0.00344219 -0.00932855 0.00865178)
(0.00113578 -0.00782921 0.0107276)
(0.00122 -0.00785556 0.011571)
(0.00516307 -0.00747243 0.00635697)
(0.00575022 -0.0073365 0.00724393)
(0.00551247 -0.00711378 0.00732399)
(0.00516858 -0.00731027 0.00653533)
(0.00524556 -0.00732191 0.00719722)
(0.00556646 -0.00731229 0.00656099)
(0.00648257 -0.00667043 0.0100394)
(0.00588685 -0.00581948 0.0104762)
(0.00619403 -0.00637006 0.0103798)
(0.00639259 -0.00645264 0.0106387)
(0.00660708 -0.00640023 0.00999478)
(0.0060915 -0.00620053 0.0107958)
(0.00178686 -0.00696009 0.0155693)
(0.00361138 -0.005284 0.0168065)
(0.00284279 -0.00518872 0.0160765)
(0.00216832 -0.00556808 0.0160475)
(0.00175076 -0.00641472 0.0148977)
(0.00217821 -0.00528085 0.0145146)
(0.00287966 -0.0053276 0.0159813)
(0.00563682 -0.0097301 0.00857412)
(0.0030383 -0.00978956 0.00933638)
(0.00461364 -0.00975041 0.00856936)
(0.00310889 -0.0098968 0.00936879)
(0.00475443 -0.00950892 0.00852404)
(0.00388687 -0.00923312 0.00862056)
(0.00938357 -0.00211927 0.0176469)
(0.0105813 -0.0022787 0.0183273)
(0.0111643 -0.00174423 0.0184751)
(0.00810139 -0.00310157 0.0182628)
(0.00946176 -0.00258833 0.0207161)
(0.0106598 -0.00200294 0.019607)
(0.00708723 -0.00840593 0.00763807)
(0.00744877 -0.00844376 0.00764946)
(0.00876161 -0.0079794 0.00898583)
(0.00843611 -0.00812223 0.00902993)
(0.00761024 -0.00799709 0.00789806)
(0.00832716 -0.00801557 0.00830918)
(0.013059 -0.00570868 0.0132902)
(0.0118274 -0.00643132 0.0118285)
(0.012184 -0.00625632 0.0120745)
(0.0111841 -0.00650943 0.0107858)
(0.013788 -0.00456301 0.0141025)
(0.0135828 -0.00453501 0.0143325)
(0.0130234 -0.00551123 0.0130441)
(0.0121584 -0.00612631 0.0118564)
(0.00709092 -0.00622638 0.0111064)
(0.00726884 -0.00650683 0.0106969)
(0.00718494 -0.00584354 0.0107983)
(0.00748773 -0.00521663 0.0118057)
(0.0067127 -0.00553373 0.0112816)
(0.00736404 -0.0052674 0.0123271)
(0.00483949 -0.00870324 0.00613068)
(0.00320598 -0.00873522 0.00591332)
(0.0047512 -0.00874443 0.00609847)
(0.00417057 -0.00880201 0.00613867)
(0.00408216 -0.00881702 0.00595213)
(0.00310662 -0.00858034 0.00574322)
(0.00416255 -0.00772458 0.0103302)
(0.00347708 -0.00807309 0.00966659)
(0.0030437 -0.00696861 0.00997303)
(0.00306507 -0.00873546 0.0105431)
(0.00281164 -0.00916785 0.0107317)
(0.00368828 -0.00705077 0.0100098)
(0.00309303 -0.00723085 0.00940778)
(0.00113503 -0.00901156 0.0106479)
(0.000966481 -0.00934312 0.0102674)
(0.000625171 -0.0101892 0.011037)
(0.000459288 -0.0096345 0.00992372)
(0.000691452 -0.00960656 0.00989435)
(0.00414648 -0.0120692 0.00640154)
(0.00430567 -0.0115139 0.00640084)
(0.00517101 -0.0109755 0.00669062)
(0.00502096 -0.0115672 0.00667886)
(0.00460498 -0.0117611 0.00646359)
(0.00490666 -0.0114361 0.00665165)
(0.00141527 -0.00936823 0.00490682)
(0.00172127 -0.00971617 0.00465202)
(0.00192719 -0.00950124 0.00455068)
(0.00149489 -0.00947035 0.00492135)
(0.00172137 -0.00950422 0.00463403)
(0.00143735 -0.00954122 0.00483614)
(0.0022172 -0.0075659 0.0107553)
(0.00125479 -0.0074625 0.010391)
(0.00164502 -0.00841356 0.0104633)
(0.00162644 -0.00722825 0.0109418)
(0.00218087 -0.00771716 0.0112063)
(0.00396771 -0.00872574 0.00501068)
(0.00392913 -0.00882673 0.00480105)
(0.00425436 -0.00909173 0.00532317)
(0.00396465 -0.00937197 0.00500036)
(0.00432998 -0.00920629 0.00535901)
(0.00386448 -0.00924279 0.00470937)
(-0.00119034 -0.0049194 0.0142586)
(-0.00109071 -0.00552493 0.0132191)
(-0.00120156 -0.00590494 0.0129543)
(-0.000399556 -0.00485705 0.0142827)
(-1.91751e-05 -0.00546967 0.0136535)
(-0.00137406 -0.00563175 0.0126662)
(0.0057285 -0.00228287 0.0153318)
(0.00423052 -0.00236982 0.0159619)
(0.00399571 -0.001893 0.0169309)
(0.00576352 -0.00264025 0.0163339)
(0.00549986 -0.00122303 0.0163943)
(0.00470909 -0.00134909 0.0168531)
(0.00169445 -0.00485345 0.0154969)
(0.00142726 -0.00517776 0.0150795)
(0.00143892 -0.00361278 0.0143659)
(0.000986322 -0.00306131 0.0177297)
(0.00232184 -0.00111855 0.0170571)
(0.00135436 -0.00255064 0.0172626)
(0.00267366 -0.00243352 0.0176789)
(0.00158879 -0.00174283 0.0175165)
(0.00307696 -0.00199803 0.0178022)
(0.00669125 -0.00609483 0.00741501)
(0.00678549 -0.00562381 0.00757323)
(0.00419708 -0.00755978 0.00683349)
(0.00448473 -0.00720396 0.00678333)
(0.00563566 -0.0068686 0.00701248)
(0.00547457 -0.00742783 0.00711719)
(0.0052124 -0.00716358 0.00708215)
(0.00478409 -0.00737434 0.00671235)
(0.00578005 -0.0104341 0.00849135)
(0.00543777 -0.00977866 0.00856829)
(0.00571175 -0.00915687 0.00936418)
(0.00531496 -0.00950684 0.00884941)
(0.00602717 -0.00957266 0.00935215)
(0.00590219 -0.00989174 0.00873667)
(0.00380201 -0.00872093 0.00716886)
(0.00407937 -0.00920249 0.00806406)
(0.00393605 -0.00921766 0.00739635)
(0.00405277 -0.00863792 0.00717976)
(0.00375991 -0.00827823 0.00751999)
(0.00414387 -0.00905644 0.00652405)
(0.00471755 -0.00900322 0.00637106)
(0.00441477 -0.00856236 0.00640564)
(6.20342e-05 -0.00580162 0.0112395)
(0.000174144 -0.00649965 0.0108503)
(0.000983056 -0.00638998 0.0121341)
(0.00111787 -0.00576769 0.0125555)
(0.000864929 -0.00619008 0.0122025)
(0.000502515 -0.00657104 0.0110521)
(0.00356847 -0.00762264 0.0104447)
(0.00431864 -0.00794193 0.0106548)
(0.00411088 -0.0072044 0.0109337)
(0.00320782 -0.00777995 0.010626)
(0.00354516 -0.00685498 0.0111575)
(0.00302201 -0.0071399 0.010915)
(0.00205336 -0.0092665 0.00424046)
(0.00219957 -0.00959613 0.00449161)
(0.00267527 -0.0095495 0.00429248)
(0.00263415 -0.00950455 0.00434923)
(0.00257357 -0.00903566 0.00434398)
(0.00312461 -0.00939958 0.00462446)
(0.00236435 -0.0095923 0.00462514)
(0.00229424 -0.00948401 0.00442524)
(0.00309697 -0.00969505 0.00463468)
(0.00190371 -0.0082068 0.00447793)
(0.00121633 -0.00815207 0.00492688)
(0.00240564 -0.00849702 0.00463008)
(0.00156025 -0.0086901 0.0050625)
(0.00128191 -0.00824274 0.00485449)
(0.0022509 -0.00876191 0.00483116)
(0.00354105 -0.00806433 0.00451953)
(0.00246347 -0.00815363 0.00433931)
(0.00347328 -0.00839778 0.00457143)
(0.0029431 -0.00862065 0.00444135)
(0.00310704 -0.00804035 0.00435493)
(-9.50012e-05 -0.00806538 0.00645247)
(0.000230849 -0.00831025 0.00613599)
(0.000458428 -0.00809476 0.00553785)
(0.00103169 -0.008175 0.00528374)
(0.000670908 -0.00839014 0.00551853)
(8.40152e-05 -0.00797487 0.00619964)
(-0.000207718 -0.00707167 0.00983084)
(2.94977e-05 -0.0070546 0.0100687)
(-0.000394267 -0.00760967 0.00924817)
(-0.000359477 -0.00697928 0.00902209)
(-6.90015e-05 -0.00723062 0.00989803)
(-0.000558494 -0.00729512 0.00952588)
(0.00221772 -0.00885747 0.00450125)
(0.00182572 -0.00856323 0.00463769)
(0.00152612 -0.00884873 0.00484559)
(0.00180392 -0.00883304 0.00485857)
(0.00467293 -0.00865807 0.0100639)
(0.00487965 -0.00847152 0.00951663)
(0.00476293 -0.00904323 0.00908837)
(0.00415724 -0.00885167 0.00986286)
(0.00379462 -0.00801597 0.00965616)
(0.00427017 -0.0086228 0.00913732)
(0.000374307 -0.0101191 0.00930323)
(0.000469904 -0.0100196 0.0083515)
(0.000552359 -0.0109369 0.00844703)
(0.000304562 -0.0106377 0.00909566)
(0.000745902 -0.0112 0.00852799)
(0.00291242 -0.0118858 0.00716162)
(0.00224264 -0.0117215 0.00683384)
(0.0017037 -0.011562 0.00739411)
(0.00208343 -0.0119324 0.00728148)
(0.00148184 -0.0116945 0.00746959)
(0.00169122 -0.0116756 0.00707619)
(0.0027755 -0.0118451 0.006745)
(0.00246855 -0.0115118 0.00657044)
(0.00280142 -0.012107 0.00635923)
(0.00319491 -0.0119838 0.00654391)
(0.00251441 -0.0120371 0.00661207)
(0.00359323 -0.0118946 0.00631684)
(0.00341593 -0.0125666 0.00644347)
(0.0026101 -0.0116629 0.00650806)
(0.00467986 -0.0116878 0.00617085)
(0.00415553 -0.0122371 0.00587678)
(0.00430953 -0.0127263 0.00623501)
(0.00316747 -0.0122034 0.00573221)
(0.00380845 -0.013219 0.00622286)
(0.00386439 -0.0125841 0.00586729)
(0.0029463 -0.0125622 0.00586864)
(0.00210556 -0.0121616 0.00669242)
(0.00138619 -0.0120393 0.00723367)
(0.00172674 -0.0119742 0.00657653)
(0.00174135 -0.0117236 0.00624136)
(0.0010093 -0.0121374 0.0072358)
(0.00227182 -0.01177 0.00607995)
(0.00094581 -0.0105775 0.00866592)
(0.000962239 -0.0103774 0.00943759)
(0.00076127 -0.0118956 0.00876452)
(0.000948862 -0.0112125 0.00844029)
(0.000832199 -0.0101165 0.00797961)
(0.000571523 -0.0102784 0.0080469)
(0.00111844 -0.0113926 0.00707401)
(0.00102862 -0.0110823 0.0072518)
(0.00130186 -0.0118273 0.00702743)
(0.00136882 -0.0120177 0.00694728)
(0.000734637 -0.0115527 0.00795532)
(0.000921903 -0.0112139 0.00720339)
(0.000929878 -0.0111723 0.00685255)
(0.00103455 -0.0110778 0.00753873)
(0.00415514 -0.0115914 0.00656781)
(0.00470997 -0.0114278 0.00670414)
(0.00385296 -0.01131 0.00650641)
(0.00449799 -0.0111644 0.00668837)
(0.00355758 -0.0116417 0.00660658)
(0.00445693 -0.0109723 0.00664888)
(0.00499459 -0.00799878 0.00539759)
(0.00445924 -0.00800417 0.00517856)
(0.00372921 -0.00813296 0.00485929)
(0.00381461 -0.00836208 0.00488485)
(0.00488866 -0.00803979 0.00539033)
(0.00376019 -0.00866331 0.00501597)
(0.00429156 -0.00824942 0.00488805)
(0.00592634 -0.00892101 0.00883968)
(0.0059493 -0.00959101 0.00817911)
(0.00636192 -0.00904042 0.00892014)
(0.00612085 -0.00843573 0.00904372)
(0.00594987 -0.00891565 0.00811803)
(0.0059513 -0.00927694 0.00847193)
(0.00269678 -0.00872647 0.00764089)
(0.00273463 -0.00832971 0.00746338)
(0.00296184 -0.00882954 0.00742788)
(0.00350163 -0.00849879 0.00739089)
(0.00339539 -0.00820057 0.00685484)
(0.00148471 -0.0098142 0.00962687)
(0.00214725 -0.0092962 0.00787968)
(0.00136201 -0.00944861 0.00881369)
(0.00167386 -0.0101747 0.00882563)
(0.00245834 -0.00982655 0.00796394)
(0.00188667 -0.00970249 0.00858531)
(0.00558037 -0.00940471 0.00762175)
(0.00610205 -0.00849472 0.00767817)
(0.00570576 -0.00868629 0.00729659)
(0.00585709 -0.00844952 0.00764582)
(0.00542029 -0.00877416 0.00742273)
(0.00642544 -0.00792221 0.00781736)
(0.00667045 -0.00824481 0.00819415)
(0.00656728 -0.00884868 0.00835999)
(0.00658305 -0.00903911 0.00831033)
(0.00600869 -0.00930632 0.00793122)
(0.00618683 -0.00908463 0.00776556)
(0.00569574 -0.0097554 0.00762482)
(0.00638092 -0.00879425 0.00888589)
(0.00644931 -0.00941014 0.00834171)
(0.00620155 -0.00983793 0.00797137)
(0.00671853 -0.00936578 0.00899722)
(0.00644504 -0.00929926 0.00855645)
(0.00630095 -0.00925419 0.00794771)
(0.00506622 -0.00664575 0.00953103)
(0.00473215 -0.0065565 0.0108072)
(0.00540339 -0.00627445 0.00998546)
(0.00484952 -0.00661015 0.00996839)
(0.00435731 -0.00661063 0.0102321)
(0.00528885 -0.00692729 0.0109835)
(0.00216802 -0.00738356 0.00932964)
(0.00196357 -0.00902124 0.00944)
(0.00269277 -0.00885253 0.00896501)
(0.00230805 -0.00878704 0.00888748)
(0.00199927 -0.00842619 0.00967618)
(0.00294178 -0.00800388 0.00885413)
(0.00112881 -0.00292032 0.0186457)
(0.00145627 -0.00186084 0.0182019)
(0.00272306 -0.00070495 0.0190704)
(0.00533595 -0.00744686 0.0111614)
(0.00462902 -0.00657806 0.0110089)
(0.00415785 -0.00608824 0.0119035)
(0.00530136 -0.00667339 0.0116435)
(0.00520628 -0.00681531 0.0128491)
(0.00433386 -0.00669017 0.0117487)
(0.00266021 -0.00377449 0.0139098)
(0.00229172 -0.00485637 0.0134919)
(0.00380012 -0.00551119 0.013032)
(0.00335154 -0.00397468 0.0132491)
(0.00330685 -0.00638036 0.0132864)
(0.0017554 -0.00532948 0.0140268)
(0.00200102 -0.00557232 0.0131762)
(-0.00141538 -0.00726513 0.0118947)
(-0.00140233 -0.00696324 0.0118784)
(-0.00143206 -0.00735703 0.0113361)
(-0.000932697 -0.00849774 0.0107757)
(-0.00135133 -0.0072888 0.0100109)
(0.00245762 -0.00907439 0.00691603)
(0.00222909 -0.00884497 0.00625492)
(0.00313237 -0.00868472 0.00613448)
(0.00162665 -0.00835715 0.00651457)
(0.00341074 -0.00897163 0.00638511)
(0.00186302 -0.00858379 0.00634485)
(0.00653808 -0.00826185 0.00666083)
(0.00699002 -0.00819568 0.00703238)
(0.00751628 -0.00756649 0.00748936)
(0.00646083 -0.00818218 0.0066325)
(0.00735537 -0.00804992 0.00753656)
(0.00818017 -0.00791679 0.00839927)
(0.00868185 -0.0071009 0.00871414)
(0.00808045 -0.00753383 0.00782608)
(0.00815568 -0.00505941 0.0113788)
(0.00759738 -0.00526081 0.0112676)
(0.00748958 -0.00534263 0.0102874)
(0.00812573 -0.00566016 0.0106912)
(0.00782105 -0.00473392 0.0117507)
(0.00780917 -0.00611405 0.0101022)
(0.00706826 -0.00412409 0.0141337)
(0.00734634 -0.00391195 0.0129143)
(0.00605186 -0.00432727 0.0135297)
(0.00741359 -0.00467712 0.0129366)
(0.00668576 -0.00456865 0.0132866)
(0.00594612 -0.00344614 0.0135389)
(0.0107754 -0.00671653 0.0105921)
(0.00999997 -0.00719007 0.00974493)
(0.0108428 -0.00704903 0.0106505)
(0.00943616 -0.00809101 0.0094282)
(0.00922101 -0.00755578 0.00905578)
(0.00622453 -0.00895054 0.00734209)
(0.00592502 -0.00878052 0.00675728)
(0.00515516 -0.00872238 0.00653237)
(0.00711494 -0.0081989 0.00724625)
(0.00507552 -0.00866178 0.0065766)
(0.0066795 -0.00817891 0.00714282)
(0.00460434 -0.00920391 0.00736258)
(0.00545946 -0.00874248 0.00691799)
(0.00357852 -0.00913916 0.00708601)
(0.00354382 -0.00894207 0.00695565)
(0.00539687 -0.00888938 0.0070036)
(0.00443871 -0.00924801 0.00699093)
(0.00710944 -0.00465613 0.0156051)
(0.00832684 -0.00430806 0.0157701)
(0.00888853 -0.00510485 0.0153743)
(0.00697369 -0.00414411 0.0147757)
(0.00791074 -0.00513672 0.014297)
(0.00753974 -0.00445472 0.0153168)
(0.00966797 -0.00430928 0.0132294)
(0.0101705 -0.0053139 0.0114965)
(0.0105013 -0.00557076 0.0133434)
(0.00884703 -0.00503666 0.0125761)
(0.00949818 -0.00567604 0.0120643)
(0.0101086 -0.00539738 0.0114187)
(0.00907085 -0.00372704 0.0147925)
(0.00985036 -0.00468345 0.0146519)
(0.00949534 -0.00319349 0.0151035)
(0.010199 -0.0039665 0.0149683)
(0.0108285 -0.00430287 0.0138412)
(0.0107184 -0.00465382 0.0142744)
(-0.000909998 -0.00668335 0.0139277)
(-0.00051238 -0.0078645 0.0126884)
(-0.00085301 -0.0076196 0.0135368)
(-0.000666444 -0.00765565 0.0134336)
(-0.000676079 -0.00722381 0.0150615)
(-0.00138835 -0.00685362 0.0135171)
(-0.00117133 -0.00530404 0.0140434)
(-0.00103022 -0.00679061 0.0148337)
(-0.00114839 -0.00615409 0.0140007)
(-0.00101906 -0.0073191 0.0129323)
(-0.000880149 -0.00743962 0.0133389)
(-0.000416468 -0.00566916 0.01529)
(9.25429e-05 -0.00338018 0.0176865)
(-0.000100762 -0.00391863 0.0175945)
(0.000106892 -0.00397162 0.0170216)
(-0.000579452 -0.00459604 0.0159473)
(-0.000566602 -0.00444668 0.0163882)
(-0.000298979 -0.00465173 0.0157573)
(8.83953e-07 -0.00470984 0.017108)
(-0.000734137 -0.00461624 0.0157686)
(-0.000613982 -0.00535799 0.0153376)
(5.47257e-06 -0.0035839 0.0165841)
(0.0126384 -0.00274388 0.0173031)
(0.0123194 -0.00331997 0.0157901)
(0.0132531 -0.00407557 0.0150141)
(0.012895 -0.00407641 0.0152377)
(0.0129615 -0.00338827 0.0163827)
(0.00166077 -0.00925788 0.0110671)
(0.00156972 -0.00927024 0.0103118)
(0.000962812 -0.00914072 0.0113181)
(0.00233321 -0.00959702 0.00986952)
(0.00126586 -0.00891062 0.00999068)
(7.11238e-05 -0.0090784 0.0121851)
(0.000504924 -0.0088989 0.0115429)
(0.00254178 -0.00944389 0.0102336)
(0.00685172 -0.008686 0.008033)
(0.00574298 -0.0096237 0.00811408)
(0.00787751 -0.00861259 0.00822936)
(0.00668211 -0.00896125 0.00756473)
(0.00576204 -0.00939455 0.00785256)
(0.00792052 -0.00867529 0.00829694)
(0.00162821 -0.00957716 0.00894018)
(0.00328057 -0.00994325 0.00841241)
(0.00262791 -0.0094558 0.00789081)
(0.00244498 -0.00942314 0.00885166)
(0.00170446 -0.00937833 0.00906292)
(0.00361462 -0.00959124 0.00812781)
(0.0109154 -0.0072912 0.010214)
(0.0117952 -0.00656729 0.0108607)
(0.0105214 -0.00831816 0.0100708)
(0.00579954 -0.00924236 0.00868578)
(0.00684494 -0.00928751 0.0091622)
(0.0049894 -0.00968539 0.00921966)
(0.00301418 -0.00787703 0.0077395)
(0.00243856 -0.00828524 0.00813893)
(0.0033591 -0.00799822 0.00727372)
(0.00351211 -0.00782761 0.00751939)
(0.00361055 -0.00749262 0.00702676)
(0.00276496 -0.00795395 0.00745782)
(0.00651619 -0.00687123 0.00865945)
(0.00740118 -0.00698896 0.00801958)
(0.00717485 -0.00666697 0.00905232)
(0.00637101 -0.00661012 0.00755854)
(0.00665172 -0.00657316 0.00745296)
(0.00766384 -0.00700436 0.00905083)
(0.00895907 -0.00583566 0.0108016)
(0.00895868 -0.00707073 0.0092933)
(0.00857203 -0.00606062 0.0105454)
(0.00847993 -0.00614926 0.00936279)
(0.0083854 -0.00677973 0.0089221)
(0.00920959 -0.00643264 0.0103571)
(0.00314198 -0.00611593 0.0139626)
(0.0036846 -0.00577164 0.0132456)
(0.00273943 -0.00686304 0.0127212)
(0.00330326 -0.00628643 0.0124052)
(0.00215474 -0.00722314 0.0131644)
(0.00241402 -0.00674095 0.0136818)
(0.00136658 -0.00676073 0.0134295)
(0.000762382 -0.00758917 0.012852)
(0.000776544 -0.00819144 0.0119765)
(0.000665149 -0.00835881 0.0125878)
(0.00115459 -0.00772866 0.0126263)
(0.00123398 -0.00777211 0.0138188)
(0.0036902 -0.00937058 0.00465393)
(0.00354281 -0.0091153 0.00444441)
(0.00324292 -0.00958392 0.004421)
(0.00568923 -0.00483965 0.0132427)
(0.00596178 -0.00449915 0.0141791)
(0.00518822 -0.00592127 0.0138708)
(0.00422828 -0.00552912 0.0141564)
(0.00496025 -0.0062599 0.0153328)
(0.00574922 -0.00566748 0.0150023)
(0.00070538 -0.00834836 0.0116742)
(0.000661382 -0.00820468 0.0108284)
(0.00109775 -0.00810765 0.0102651)
(0.000646168 -0.00776918 0.0123552)
(0.00084145 -0.00737885 0.0114918)
(0.000865704 -0.00726415 0.0123488)
(0.00125939 -0.00669029 0.0162846)
(0.000886983 -0.00665054 0.0142153)
(0.0005103 -0.00699004 0.0139577)
(0.00177274 -0.00717654 0.0156038)
(0.00133195 -0.00692825 0.0133043)
(0.000966627 -0.00739122 0.0131735)
(0.00541221 -0.00802165 0.0103219)
(0.00566163 -0.00850521 0.00977366)
(0.00512679 -0.00834348 0.0105264)
(0.00490735 -0.00783486 0.010396)
(0.00540016 -0.0087192 0.0100668)
(0.00561324 -0.00792763 0.00980978)
(0.0061577 -0.00692456 0.00750385)
(0.00718157 -0.00595385 0.00817695)
(0.00650419 -0.00631333 0.00757759)
(0.0067309 -0.00702195 0.00812056)
(0.00705762 -0.00519442 0.00784217)
(0.00709759 -0.00601471 0.00810334)
(0.00678727 -0.00664409 0.00784468)
(0.00703336 -0.0062769 0.00897473)
(0.00690755 -0.0071599 0.0084373)
(0.00757678 -0.00683822 0.0093123)
(0.00726174 -0.00667838 0.00911893)
(0.00673996 -0.00727401 0.00863578)
(0.00665545 -0.00770168 0.00825991)
(0.00755621 -0.00605361 0.00920383)
(-0.000799977 -0.00773685 0.00821202)
(-0.000500502 -0.00819288 0.00776314)
(-0.000656464 -0.00774782 0.00752686)
(-0.000740164 -0.00786842 0.00846789)
(-0.000271881 -0.00846408 0.00761741)
(0.00148732 -0.0101288 0.00956476)
(0.00145489 -0.00946341 0.00958649)
(0.00115385 -0.00995911 0.00971986)
(0.000503227 -0.0101124 0.00927132)
(0.00023997 -0.0100871 0.0100129)
(0.000493751 -0.0102924 0.0100442)
(0.00102037 -0.0108419 0.00848163)
(0.000720877 -0.0107151 0.00893027)
(0.00129399 -0.0107037 0.00815889)
(0.000226269 -0.00940496 0.010078)
(0.000324282 -0.00911434 0.0109296)
(0.000380375 -0.00888228 0.0112354)
(0.000372999 -0.00941214 0.0109519)
(0.000249911 -0.00993649 0.0112548)
(0.000459688 -0.00972586 0.0102514)
(0.000790942 -0.0089338 0.00569739)
(0.000954041 -0.00929099 0.00603833)
(0.000746792 -0.00921843 0.00603681)
(0.00119969 -0.00948078 0.00524763)
(0.000954173 -0.00920247 0.0054758)
(0.000828836 -0.00833099 0.00515792)
(0.000143786 -0.00827845 0.00723343)
(0.000351701 -0.00905675 0.00719715)
(0.000164778 -0.00862436 0.0078865)
(0.000456628 -0.00912579 0.00780042)
(-0.000106049 -0.00799259 0.00624739)
(0.000161452 -0.00853223 0.00695715)
(0.000381189 -0.00903034 0.00685616)
(0.000541882 -0.00851761 0.00599473)
(0.000981125 -0.00854091 0.00913696)
(0.000706402 -0.00879079 0.00862037)
(0.000963634 -0.00835516 0.0096583)
(0.000558738 -0.00858964 0.00870262)
(0.00112894 -0.00885617 0.00901862)
(0.000586583 -0.00900563 0.00861499)
(0.000860555 -0.00952982 0.00662003)
(0.000871302 -0.00937849 0.00657588)
(0.000724979 -0.00919488 0.00638518)
(0.000934007 -0.00934284 0.00755467)
(0.00126565 -0.0100807 0.00698726)
(0.000819075 -0.00939964 0.00746813)
(0.00493017 -0.00788915 0.00562463)
(0.00494291 -0.0076861 0.00554276)
(0.00442454 -0.00827092 0.00505693)
(0.00469443 -0.00817476 0.00527888)
(0.00477887 -0.00795528 0.00544255)
(0.00456795 -0.00800986 0.00492478)
(0.00633521 -0.00682008 0.00700318)
(0.00620716 -0.00759359 0.00693166)
(0.00558789 -0.00720523 0.00574345)
(0.00544292 -0.00732625 0.00667363)
(0.00562947 -0.00792158 0.00638096)
(0.00574459 -0.00719311 0.00581796)
(0.00525061 -0.00802345 0.00602076)
(0.0047441 -0.00821436 0.00532447)
(0.00484606 -0.00840832 0.00566477)
(0.00473775 -0.00823575 0.00533321)
(0.0047912 -0.0084594 0.00610973)
(0.00512611 -0.00766934 0.0060971)
(0.00596636 -0.00720639 0.00799343)
(0.00605048 -0.00713522 0.00856625)
(0.00611548 -0.00666576 0.0086406)
(0.00588027 -0.00639248 0.00874371)
(0.00624509 -0.00713813 0.00805479)
(0.0059205 -0.00668921 0.00895657)
(0.00549695 -0.0074405 0.00817861)
(0.00505574 -0.00735279 0.0073338)
(0.00513653 -0.00692255 0.00732924)
(0.00532942 -0.00725927 0.00846506)
(0.00508245 -0.00730616 0.00821336)
(0.0054014 -0.00797574 0.00719566)
(0.00521721 -0.00758926 0.00659377)
(0.00573463 -0.00728456 0.00718609)
(0.00543237 -0.00816042 0.00655554)
(0.00552505 -0.00782181 0.00556693)
(0.00520474 -0.00799642 0.005921)
(0.000740376 -0.00888345 0.0080495)
(0.000826688 -0.00875024 0.008252)
(0.000868309 -0.00914245 0.00833143)
(0.000673252 -0.00916195 0.0077298)
(0.000565292 -0.00909162 0.00661149)
(0.00043362 -0.00924979 0.00820321)
(0.000511646 -0.00927402 0.00645337)
(0.00124642 -0.008447 0.00563475)
(0.00675217 -0.00773549 0.00814471)
(0.00617656 -0.00860226 0.00975058)
(0.00671189 -0.00874471 0.00992865)
(0.000513277 -0.00739379 0.0130625)
(0.00126461 -0.00822512 0.00970374)
(0.00215701 -0.00780446 0.00879843)
(0.00188929 -0.00853606 0.00924179)
(0.00153453 -0.00809188 0.00935944)
(0.00194528 -0.00731318 0.00872903)
(0.00726249 -0.00479036 0.0126752)
(0.00834484 -0.00509783 0.0131328)
(0.00862014 -0.00528324 0.0123201)
(0.00812977 -0.00534154 0.0118347)
(0.00760933 -0.00523836 0.0121669)
(0.00696099 -0.00608397 0.0129579)
(0.00721407 -0.00496919 0.0128703)
(0.00716482 -0.00559661 0.0118113)
(0.00540912 -0.00474819 0.0164409)
(0.00452328 -0.00489019 0.0163843)
(0.00509064 -0.00548466 0.0152215)
(0.00654734 -0.00480915 0.0137211)
(0.00593354 -0.00478652 0.014595)
(0.00458092 -0.00493652 0.0156456)
(0.00639987 -0.00474708 0.0125958)
(0.00636132 -0.005717 0.0126971)
(0.00479115 -0.00657752 0.0131306)
(0.00571397 -0.00568741 0.0120996)
(0.000664473 -0.00972136 0.0109972)
(0.000568685 -0.00867338 0.0108131)
(0.000736743 -0.00880886 0.0118632)
(0.000910659 -0.00803565 0.0119179)
(0.000736488 -0.00928993 0.0119376)
(0.000539279 -0.00875024 0.011771)
(0.00606213 -0.00657874 0.0117461)
(0.00125912 -0.00820911 0.0130343)
(0.00153328 -0.0071589 0.0129053)
(0.00359007 -0.00566226 0.0145099)
(0.0018742 -0.00659729 0.0134243)
(0.000558682 -0.0075232 0.0128928)
(0.000876238 -0.00811294 0.0129921)
(0.000502847 -0.00915358 0.0121593)
(0.000286875 -0.00872973 0.011017)
(0.000382096 -0.00852236 0.012041)
(0.000478235 -0.0089222 0.0112337)
(0.000394555 -0.00814976 0.0127423)
(0.000626231 -0.00838392 0.0122681)
(0.00228068 -0.00629584 0.014451)
(0.00284574 -0.00598202 0.0142795)
(0.00372351 -0.00599978 0.0156403)
(0.00110535 -0.00819409 0.0145425)
(0.00130377 -0.00655785 0.0141585)
(0.00114688 -0.00776951 0.0135596)
(0.00180373 -0.00683015 0.0146816)
(0.00123524 -0.00682287 0.0137911)
(0.00894719 -0.00604944 0.0120268)
(0.00507044 -0.00427085 0.0178524)
(0.00362917 -0.00478038 0.0162124)
(0.00329915 -0.00572559 0.0156123)
(0.00221883 -0.00665624 0.0150027)
(0.00231542 -0.00629982 0.0150736)
(0.00598849 -0.00592878 0.0129694)
(0.00528622 -0.00665062 0.0113793)
(0.00599968 -0.00604889 0.0132382)
(0.00421812 -0.00491188 0.0128232)
(0.00504693 -0.00620671 0.0124348)
(0.00461516 -0.00678922 0.0127457)
(0.00739297 -0.00533074 0.0106375)
(0.00777628 -0.00584454 0.0104229)
(0.00801026 -0.0061461 0.0098553)
(0.00829274 -0.00561139 0.010781)
(0.00626524 -0.00602811 0.0102275)
(0.0070831 -0.0058269 0.0104165)
(0.00740655 -0.00614991 0.00991557)
(0.00743809 -0.00687481 0.00876574)
(0.00762161 -0.00618406 0.00957068)
(0.00708289 -0.00648045 0.00971639)
(0.00634193 -0.00625267 0.00887744)
(0.00635238 -0.00686622 0.00770591)
(0.00807741 -0.00670144 0.00854216)
(0.00827751 -0.00667457 0.00948363)
(0.0028047 -0.00756316 0.00795013)
(0.00169329 -0.0057607 0.015875)
(0.000139223 -0.00814082 0.0122265)
(0.000373309 -0.00861089 0.0121799)
(0.00198364 -0.00819072 0.00828721)
(0.00244921 -0.00827315 0.00768709)
(0.00204001 -0.00806137 0.0077768)
(0.00144739 -0.00797513 0.00875904)
(0.00177952 -0.00829116 0.00848679)
(0.000825204 -0.00828373 0.00998783)
(0.000436851 -0.00835015 0.0110077)
(0.00112509 -0.00828774 0.00929561)
(0.00101844 -0.0061991 0.0140476)
(0.00102614 -0.00663833 0.0145875)
(0.000702319 -0.00712068 0.0142567)
(0.000653664 -0.00789966 0.0131994)
(0.00024792 -0.00775535 0.0121943)
(0.000721316 -0.00711932 0.0136208)
(0.000248449 -0.00775056 0.0125544)
(0.000504478 -0.00742727 0.0128569)
(0.00442874 -0.00927518 0.00749206)
(0.00917954 -0.00870861 0.00937878)
(0.00930423 -0.00754253 0.00870671)
(0.00895383 -0.00801196 0.00876472)
(0.00914225 -0.00819011 0.00890773)
(0.00798607 -0.0086514 0.00854036)
(0.00871397 -0.00810792 0.00845872)
(0.00983509 -0.0035878 0.0170729)
(0.0109192 -0.00342131 0.0165818)
(0.00890588 -0.00279148 0.0171154)
(0.00462083 -0.00475245 0.0174639)
(0.00502362 -0.00397316 0.0170354)
(0.00427576 -0.00357573 0.0170857)
(0.00344529 -0.00448393 0.0168296)
(0.00606594 -0.00304069 0.0167667)
(0.00610401 -0.00317808 0.0182525)
(0.00812594 -0.00358788 0.0175082)
(0.00702958 -0.00271946 0.0171029)
(0.0042745 -0.00236798 0.0179988)
(0.00479727 -0.00270634 0.0171956)
(0.0117059 -0.00361237 0.0156195)
(0.000527212 -0.00929882 0.0105234)
(0.000418757 -0.0091568 0.0101194)
(0.000739883 -0.00947305 0.0102459)
(0.000935499 -0.00925087 0.00886978)
(-0.000329554 -0.00858734 0.0104217)
(0.00084548 -0.00327261 0.0167108)
(-0.00109154 -0.00517398 0.0146037)
(-0.000592319 -0.00457178 0.0152701)
(3.60902e-05 -0.00483964 0.0178032)
(0.00026164 -0.00336218 0.0173218)
(0.000102787 -0.00372617 0.0176428)
(0.000148256 -0.00873088 0.0112493)
(-0.00061503 -0.00529874 0.0152926)
(-0.000566029 -0.00803902 0.0113316)
(-0.000601304 -0.00802441 0.0115765)
(-0.000786967 -0.00622137 0.0144785)
(-0.00108282 -0.00606425 0.0146606)
(-0.000375591 -0.00826323 0.011781)
(-0.000350135 -0.00836416 0.0133605)
(-0.000883395 -0.00654979 0.0148056)
(0.000688618 -0.00903554 0.013407)
(-0.000269957 -0.00585283 0.01626)
(0.00275868 -0.00380732 0.0166357)
(0.00209437 -0.00480502 0.0173434)
(0.00412481 -0.00544636 0.0199784)
(0.00233163 -0.00550238 0.0166405)
(0.00167572 -0.00544512 0.0140706)
(0.00153719 -0.00682193 0.0149732)
(0.0112361 -0.00386628 0.0156813)
(0.00891538 -0.00392848 0.0164324)
(0.00824015 -0.00474048 0.0126969)
(0.00944977 -0.00501211 0.0146966)
(0.00854255 -0.0040081 0.0154678)
(0.00627826 -0.00468715 0.0157113)
(0.00770114 -0.003278 0.0156857)
(0.00779255 -0.00393281 0.0177936)
(0.0082019 -0.0030969 0.0165604)
(0.0067349 -0.00434633 0.0160001)
(0.00580115 -0.00404689 0.016764)
(0.00676291 -0.00400554 0.0184828)
(0.0109631 -0.00580292 0.0137224)
(0.0108874 -0.00565495 0.0125367)
(0.0114619 -0.00499039 0.0135593)
(0.0112809 -0.00568539 0.0125877)
(0.00997315 -0.00648975 0.0107837)
(0.0098806 -0.00675533 0.011246)
(0.0106655 -0.0067636 0.011622)
(0.00953096 -0.00703643 0.00991519)
(0.00969563 -0.00698756 0.0100666)
(0.0113081 -0.00641786 0.0117829)