/*--------------------------------*- C++ -*----------------------------------*\
| =========                 |                                                 |
| \\      /  F ield         | OpenFOAM: The Open Source CFD Toolbox           |
|  \\    /   O peration     | Version:  v1612+                                |
|   \\  /    A nd           | Web:      www.OpenFOAM.com                      |
|    \\/     M anipulation  |                                                 |
\*---------------------------------------------------------------------------*/
FoamFile
{
    version     2.0;
    format      ascii;
    class       surfaceScalarField;
    location    "50";
    object      phi;
}
// * * * * * * * * * * * * * * * * * * * * * * * * * * * * * * * * * * * * * //

dimensions      [0 3 -1 0 0 0 0];

internalField   nonuniform List<scalar> 
37684
(
-6.87446e-09
-3.61119e-09
3.5657e-09
6.91992e-09
-8.59566e-09
9.99972e-09
6.33271e-09
-7.73686e-09
1.13547e-08
-2.75734e-08
1.61516e-08
6.68984e-11
5.11268e-09
1.97642e-08
-6.91183e-10
-2.41856e-08
1.6026e-08
-2.16345e-08
-1.22323e-08
1.78409e-08
2.03483e-08
7.90383e-10
-1.47612e-08
2.20555e-08
-1.23154e-08
5.02122e-09
-1.05056e-08
2.56089e-08
-2.98645e-08
1.74184e-08
-2.57077e-08
-2.21638e-09
2.20589e-08
1.51238e-08
2.08189e-08
1.43691e-08
-1.48396e-08
1.42018e-08
1.81665e-08
-6.7593e-09
2.97092e-08
6.54811e-09
-1.71678e-08
1.44126e-08
-1.30104e-08
1.57657e-08
1.43098e-08
-6.64146e-09
-2.48361e-08
-1.99081e-08
-1.71524e-09
3.60359e-08
-1.5399e-08
9.8007e-09
-6.34651e-09
-1.17507e-08
1.33883e-08
4.70886e-09
-9.26758e-10
4.71109e-09
1.19878e-08
1.40326e-08
-3.72444e-09
-1.10218e-08
2.26949e-08
2.27356e-08
9.46345e-09
1.6425e-08
-7.79064e-10
-1.82718e-08
1.12037e-08
7.84711e-09
7.36556e-09
-6.64029e-09
2.32895e-09
-3.05428e-09
-8.89884e-09
5.72059e-09
5.01203e-09
-1.83388e-09
5.33005e-09
3.93359e-09
8.41152e-09
-5.99988e-09
6.42203e-09
5.03185e-09
-6.12386e-09
-9.3979e-10
6.47446e-09
8.87329e-10
3.46988e-09
-9.95005e-09
-2.41871e-09
1.2917e-08
-1.39932e-08
4.54604e-09
3.13886e-10
-1.03868e-09
9.46696e-09
4.48872e-09
7.71243e-09
-1.00884e-09
-1.6718e-09
8.66983e-09
5.517e-09
-1.10202e-09
-5.0441e-09
-6.90164e-09
8.5886e-09
-2.69584e-09
-4.07009e-09
-6.77725e-09
-6.12484e-09
-1.75586e-09
1.46581e-08
-5.86421e-09
3.51385e-09
-4.42676e-09
-7.23845e-09
-6.91911e-09
8.03278e-09
-9.65734e-09
-3.44528e-09
-6.00047e-09
9.12693e-09
-4.88218e-09
2.77981e-10
-1.35699e-08
6.37281e-09
-5.94004e-09
-6.1536e-09
6.09338e-09
-1.03092e-08
4.64715e-09
2.33723e-09
-1.40719e-10
-1.2163e-08
9.96684e-09
1.41944e-09
-5.69758e-09
6.61565e-09
-2.75069e-09
1.90268e-09
-1.27218e-08
-1.25488e-08
4.4374e-10
-5.17786e-09
-7.96275e-09
1.65992e-08
-8.26407e-09
1.98191e-09
-1.03171e-08
3.27405e-09
9.31192e-09
4.01324e-09
1.02463e-08
-3.97031e-09
-1.45401e-08
1.53751e-08
-9.80783e-09
4.67906e-09
1.35501e-08
5.09894e-09
1.53066e-08
-7.63541e-09
-5.68939e-09
1.10221e-08
1.35964e-08
-3.04434e-08
1.4982e-08
2.10443e-08
-5.58307e-09
-1.13614e-08
-2.71511e-08
8.06897e-09
5.41602e-09
-1.57325e-08
6.34604e-09
-1.12848e-08
5.33929e-09
-3.46225e-09
-1.03235e-08
-3.05714e-09
1.68428e-08
-2.62433e-09
1.01842e-08
1.26513e-08
-9.42474e-09
-3.71242e-09
1.56372e-08
-1.53678e-08
9.03087e-09
8.07765e-09
-2.05507e-08
-2.89487e-09
2.53753e-08
1.30354e-08
-1.91675e-08
-1.92432e-08
1.68989e-08
-1.76986e-09
1.02465e-08
1.2089e-08
-1.01702e-08
1.11167e-08
-1.88007e-09
3.0868e-08
1.17868e-08
-1.82414e-08
4.68488e-09
-6.96461e-09
-1.41826e-08
1.97967e-09
1.25905e-08
-9.84489e-09
-9.71012e-09
1.89426e-08
-9.0359e-09
-2.29002e-08
4.44402e-09
1.17887e-08
6.66725e-09
-8.36236e-10
-4.8147e-09
-1.11336e-08
1.8566e-08
-2.16149e-08
1.17595e-08
-3.2738e-08
1.51717e-08
-2.63123e-08
-6.69066e-09
2.10261e-08
1.28399e-08
-1.3749e-08
3.69287e-09
9.30378e-09
7.5223e-10
-6.1772e-09
-2.93676e-09
-4.63513e-09
-4.03655e-09
6.10788e-09
1.62149e-09
-6.431e-09
4.26593e-09
-1.87168e-09
-3.68213e-09
-8.92616e-09
-9.66972e-09
1.57101e-08
-8.97733e-09
1.29425e-08
-4.42167e-09
-1.81907e-08
-2.95957e-09
4.35443e-09
7.90876e-09
3.45357e-09
9.29686e-09
-6.25235e-09
4.35894e-09
8.00123e-09
-2.62783e-09
6.41309e-10
1.87939e-08
-1.2081e-09
-4.64342e-09
6.69561e-09
1.55518e-08
9.63342e-09
-7.61116e-09
-3.2306e-09
7.04289e-09
-3.81818e-09
6.40859e-09
-1.65848e-09
1.03718e-08
5.86271e-09
-1.39666e-08
1.208e-08
8.40904e-09
-1.01577e-08
1.96299e-09
7.43653e-09
-4.79831e-09
4.35921e-09
-6.99721e-09
-8.44143e-09
1.48045e-08
1.07359e-09
4.87121e-10
6.72987e-09
-8.34987e-09
1.13338e-09
-4.0742e-09
3.08187e-09
8.36363e-09
-7.37107e-09
6.68165e-09
-1.35904e-09
-1.01208e-08
3.56838e-09
-5.32807e-09
8.21268e-09
-2.28039e-10
-3.62528e-09
7.77726e-09
1.524e-08
5.71056e-09
2.55399e-09
-2.59803e-09
-3.78694e-09
1.20958e-08
-4.96145e-09
-8.51428e-09
1.08778e-08
1.13126e-09
-8.68726e-09
2.59484e-09
2.30782e-10
-6.58609e-09
-2.33177e-09
-6.15736e-09
-2.12604e-09
3.60008e-09
3.28741e-09
-8.24639e-09
-2.78524e-09
3.76716e-09
-7.06573e-09
-1.01433e-09
-4.15276e-09
1.13044e-08
3.22019e-09
6.14045e-09
-2.292e-09
-5.27474e-09
6.77394e-09
9.80521e-09
9.05874e-10
-4.01676e-11
9.64781e-09
4.51731e-09
-1.3413e-08
-5.91831e-09
-2.28169e-10
-1.00691e-09
7.1534e-09
-5.39255e-09
3.80076e-10
-1.05628e-09
7.60205e-09
-8.74886e-09
8.4976e-09
8.16003e-09
-3.51188e-10
1.2501e-09
3.88434e-09
8.4641e-09
-7.83118e-09
-6.27539e-10
-7.22797e-09
6.8486e-09
7.2098e-09
-1.70403e-09
6.81385e-09
7.25558e-09
8.57274e-10
-2.31159e-09
2.33914e-09
-4.94373e-10
2.35927e-09
6.71841e-09
-2.50659e-09
-6.57129e-09
-1.25102e-09
-3.4138e-09
7.02405e-09
-1.52485e-09
4.65707e-09
4.5853e-09
-7.7177e-09
5.98966e-09
-3.4845e-09
4.21314e-09
2.4134e-09
3.57585e-09
-8.49598e-09
5.91249e-09
-4.75014e-09
2.23348e-09
2.23116e-09
6.07317e-09
-6.26876e-09
1.04327e-09
-8.47755e-10
-5.18538e-09
2.75821e-09
8.50027e-09
-1.62526e-08
1.19142e-08
-8.46999e-10
-5.80892e-09
-3.46028e-09
-6.98337e-09
-1.48039e-08
-1.03454e-08
7.81734e-09
1.73319e-08
-2.34666e-08
1.22386e-08
-6.16523e-09
-1.31361e-09
7.55524e-09
-3.48347e-09
1.83421e-09
-1.51544e-08
2.97465e-09
-1.07381e-08
-6.32679e-09
-6.40177e-09
2.09065e-08
-1.21282e-08
1.7514e-08
1.85565e-08
-1.96696e-08
-1.64011e-08
8.09531e-09
1.95543e-09
1.42015e-08
2.40368e-08
1.35704e-08
-6.78872e-09
3.25109e-09
7.64679e-09
2.29013e-10
5.26481e-09
4.46001e-09
-6.47369e-09
9.74352e-09
3.16808e-09
7.92228e-09
-9.08145e-09
5.96152e-09
-4.8023e-09
-2.23624e-09
7.48323e-09
2.67526e-09
-3.39754e-09
1.27694e-08
-4.71796e-10
-8.90008e-09
-3.58039e-09
9.68826e-09
-9.5054e-09
-1.24328e-08
1.76646e-09
-3.80756e-10
1.13837e-08
1.02754e-08
1.17934e-09
7.62734e-09
-1.20072e-10
-4.43195e-09
-5.72317e-10
1.24875e-08
-4.42585e-09
5.95541e-09
1.37076e-08
-9.71934e-09
9.65856e-09
-3.80904e-09
-1.18022e-08
4.76072e-09
1.13965e-08
-4.35505e-09
-8.42781e-09
1.03332e-08
1.18157e-08
-4.92925e-09
4.31213e-09
5.11428e-09
-4.4973e-09
2.06316e-09
-1.26711e-08
5.6786e-09
5.21509e-09
-7.16043e-10
-1.8707e-10
-6.63168e-09
5.05778e-10
8.83808e-10
5.24206e-09
-6.63145e-09
8.40414e-10
-8.4057e-10
-1.23189e-08
-4.02086e-09
2.12811e-09
1.42116e-08
-9.29992e-09
8.79255e-09
-1.18116e-08
6.9324e-09
-1.41691e-08
4.92552e-09
-2.01393e-09
5.088e-10
-2.02592e-09
-6.06146e-09
1.28378e-09
5.28345e-09
-5.99232e-12
-1.4901e-09
-1.09147e-09
1.13743e-08
6.83933e-09
-1.33283e-09
-6.99662e-09
6.94606e-09
6.28462e-09
-6.39138e-09
-7.94916e-09
2.49493e-09
6.33807e-09
-2.51481e-09
2.49975e-09
7.81426e-09
-7.81913e-09
-3.48665e-10
1.21538e-08
-9.30532e-09
7.88125e-09
-1.81797e-09
-4.85923e-09
-7.36869e-09
1.40457e-08
-4.63968e-09
-5.50715e-09
8.32861e-09
-7.74122e-09
-1.25192e-08
1.5401e-08
8.16751e-10
-1.28591e-08
4.30097e-09
-7.25032e-09
3.42729e-09
-2.11006e-09
-8.49892e-09
3.2401e-09
-7.6609e-09
4.34731e-11
-1.21756e-08
-1.01776e-10
-2.41991e-10
3.95051e-09
-4.32824e-09
-1.17979e-08
-2.47207e-09
-6.43665e-09
-4.4847e-09
6.84783e-09
-4.83536e-09
5.80438e-09
-1.41082e-09
-8.87842e-09
-4.64086e-09
4.23829e-09
2.68704e-09
-1.52366e-09
-8.10382e-09
-4.97025e-10
5.595e-09
-1.13342e-08
-4.55297e-09
-4.21011e-10
-7.06181e-09
-8.53326e-09
4.91486e-09
1.24466e-09
2.37381e-09
-2.9621e-09
-6.1767e-09
6.05604e-10
1.91872e-09
6.98211e-09
-8.89328e-10
-8.01139e-09
5.54202e-09
1.29153e-09
4.74319e-09
-1.81399e-09
-5.89129e-09
3.67224e-09
2.31558e-09
1.75405e-09
1.34676e-10
3.65329e-09
1.69819e-09
7.03791e-09
-1.84651e-09
4.99287e-10
-2.38952e-09
3.73666e-09
-4.62883e-09
2.91699e-09
3.50436e-09
2.95506e-09
-3.28393e-10
-6.13096e-09
9.60408e-10
1.13775e-10
2.43039e-09
-2.57996e-09
4.77737e-09
1.66757e-10
-1.12336e-09
-1.88968e-09
-3.33075e-10
-5.38053e-09
4.42392e-09
1.91699e-09
1.74109e-09
-4.16659e-09
1.67642e-09
-3.81879e-09
-2.54546e-09
4.38942e-09
-2.90396e-10
-5.13964e-10
-5.03637e-10
6.84202e-10
-7.54145e-09
9.53978e-09
-2.68236e-09
3.98829e-09
7.92423e-10
-3.89761e-09
-8.83036e-10
5.48178e-10
3.49589e-09
-5.56897e-11
6.16469e-09
-4.68801e-09
5.87136e-09
8.41534e-10
3.55873e-09
1.61926e-09
6.93447e-10
-6.81992e-09
1.09823e-09
4.0508e-09
1.67081e-09
-2.58654e-09
-1.0574e-09
-3.17622e-09
-4.07083e-09
-3.80367e-09
5.28779e-09
1.72466e-09
6.53713e-10
3.10374e-09
-5.4821e-09
1.55555e-09
-2.66111e-09
3.93175e-09
-2.82618e-09
-5.39385e-09
5.12943e-10
-2.56039e-09
7.44124e-09
-1.77027e-09
-7.69443e-09
-8.54969e-09
3.92616e-09
5.72168e-09
-4.86426e-09
-4.74305e-09
5.73484e-09
-5.63477e-09
-1.79971e-10
7.99599e-11
4.21094e-09
-4.08176e-09
-7.27336e-09
7.14417e-09
6.76302e-09
-2.03914e-09
3.59185e-09
-9.44393e-09
-2.94318e-09
-2.13986e-09
6.63851e-09
-6.94729e-09
5.72876e-09
5.10844e-09
-5.29272e-09
5.37273e-09
-6.64523e-09
-8.0238e-09
9.81011e-09
3.64024e-11
-2.6875e-09
-3.66748e-09
-1.55076e-08
-1.13949e-08
3.05701e-08
-1.56891e-08
2.33608e-08
-1.13391e-08
1.09844e-08
-4.33201e-09
-2.23414e-08
1.44929e-08
-1.3874e-08
1.03656e-08
2.34552e-09
7.94811e-09
4.19935e-09
1.55691e-08
1.00169e-08
-2.99179e-08
2.12602e-08
-2.11987e-08
1.89834e-08
6.72295e-09
2.02803e-08
1.44697e-08
-2.68018e-08
1.13162e-08
1.40927e-08
-1.59216e-08
-9.48713e-09
-2.49875e-08
3.17002e-08
4.60363e-09
-3.77964e-08
6.80517e-09
8.78254e-09
2.22089e-08
-2.26826e-08
-1.02105e-09
2.57798e-08
-1.38107e-09
-3.13842e-09
1.47038e-08
1.65729e-08
-5.49686e-09
-2.27834e-08
-3.58515e-09
-2.86882e-08
1.00177e-08
1.98449e-08
-1.08791e-08
8.1641e-09
1.89214e-08
1.19774e-08
2.85053e-08
-2.19644e-09
2.03782e-08
2.44848e-08
-2.45636e-08
1.35382e-08
-3.34961e-09
1.43751e-08
-2.27751e-08
-1.50651e-08
1.32767e-08
3.50739e-09
3.10196e-08
-2.09887e-08
3.85369e-08
6.05e-09
-2.43081e-08
-2.02788e-08
1.72359e-08
4.4617e-09
1.68393e-08
-1.85243e-08
6.2498e-09
8.92495e-09
-8.94195e-10
-7.05925e-09
-1.48217e-08
-6.28106e-09
-1.31374e-08
-1.97472e-08
1.2008e-08
2.49752e-08
-9.38611e-09
-4.31105e-09
-1.00869e-08
2.56023e-08
-1.00384e-08
-3.6401e-08
2.21313e-08
1.69231e-08
1.99596e-08
-3.24211e-08
-1.41877e-08
1.03507e-08
3.56826e-09
-2.0666e-08
1.63133e-08
-1.9026e-08
-7.26048e-09
-1.60166e-08
2.74836e-08
-1.51082e-09
-9.95588e-09
-1.65302e-08
1.47531e-08
-2.29817e-08
-6.71612e-09
2.20007e-08
7.6971e-09
2.06406e-08
1.59161e-08
3.04559e-08
-1.88884e-08
3.32289e-08
2.8467e-09
-2.01595e-08
-1.0171e-08
2.71925e-08
4.8817e-09
2.32269e-09
7.34653e-09
4.1578e-09
2.16137e-08
-1.81499e-08
9.59296e-09
3.05576e-08
7.37243e-09
2.25594e-08
-5.3415e-09
1.3238e-08
2.78727e-08
2.79156e-08
1.62221e-08
1.39764e-08
-2.94493e-08
-7.49293e-10
2.86617e-08
-6.73986e-09
6.0263e-09
1.48684e-08
-6.28482e-10
2.9786e-09
-4.10645e-09
4.97586e-09
9.22687e-09
2.85273e-09
1.50509e-08
-7.3652e-09
-1.0683e-08
-1.28282e-08
-1.76175e-09
2.27499e-08
-1.2754e-08
1.17573e-09
-1.82875e-08
-1.28057e-08
2.93312e-08
-1.9118e-08
-1.04735e-09
1.87751e-09
3.52613e-09
7.88055e-09
7.09703e-09
-1.85039e-08
5.72384e-09
-1.11752e-08
-6.45945e-09
1.93409e-08
-7.15778e-09
1.61639e-08
-1.47429e-08
1.10699e-08
-1.61379e-08
-1.40502e-08
7.56109e-09
-1.37086e-08
-9.29262e-11
7.98905e-09
-8.25728e-09
9.43069e-09
9.13059e-09
-2.39758e-09
1.26336e-08
3.41098e-09
-4.4351e-09
-1.25549e-09
5.66849e-09
2.20913e-11
-1.77355e-09
2.33011e-09
-1.67356e-09
9.0493e-09
9.45738e-10
-2.73628e-09
1.69375e-11
-4.06387e-10
6.91968e-09
2.29672e-09
9.64564e-10
-9.14882e-11
-6.32266e-10
-5.24735e-09
5.175e-09
7.04606e-10
5.32655e-09
-8.60386e-11
2.23279e-09
-2.21169e-11
5.3363e-10
4.87217e-09
-1.0998e-08
5.59236e-09
1.83545e-08
1.7993e-09
-9.07005e-09
-1.10837e-08
5.4598e-09
4.57342e-09
-9.49951e-09
1.01008e-08
-4.62885e-09
-1.20651e-11
1.26045e-09
4.82656e-09
1.1378e-08
-1.7465e-08
6.6166e-09
1.29983e-08
-6.74778e-09
1.26816e-08
-4.13459e-09
2.74462e-09
-4.62028e-09
-8.34939e-09
1.53052e-09
4.96071e-09
1.85826e-09
-8.51278e-09
4.73679e-09
8.39281e-09
3.23849e-09
4.27386e-09
1.50243e-08
8.01144e-09
-3.27966e-09
-1.98716e-09
8.34013e-11
3.51941e-09
4.40866e-09
2.98338e-09
3.75166e-09
-6.65162e-09
4.85415e-09
4.1342e-10
-3.06878e-10
3.18842e-09
1.00309e-08
6.93937e-10
7.09933e-09
3.30201e-09
4.5355e-09
7.18437e-09
6.31706e-09
-6.6321e-09
-1.32274e-08
1.35425e-08
-7.52652e-09
2.0785e-08
-6.94146e-09
-2.5538e-09
-1.47344e-08
9.76168e-09
-1.53065e-08
6.12054e-09
3.58921e-09
-2.66283e-08
2.39689e-08
-9.29721e-10
1.89939e-08
-1.94208e-08
4.01605e-09
3.2065e-09
1.20078e-09
1.45866e-08
-2.20966e-09
4.21626e-10
-1.76327e-08
-2.81786e-08
-6.59315e-10
5.63338e-09
8.11579e-09
-3.52009e-09
-1.02291e-08
-1.2481e-08
3.37995e-09
-1.29878e-08
2.96687e-09
-4.46196e-09
-2.72881e-09
-4.94647e-09
1.01353e-08
1.87802e-08
1.0985e-08
-9.87486e-09
-6.88527e-10
2.1679e-09
-1.95953e-08
-6.4647e-09
-1.03226e-08
-1.95547e-09
-9.61901e-10
3.78368e-09
-1.76443e-09
-1.19193e-08
3.53258e-09
-8.22841e-09
1.10335e-09
-4.0706e-09
-1.77617e-09
-4.49364e-09
-1.70648e-10
5.76757e-09
-1.84562e-09
-6.71868e-09
-6.67904e-09
3.60307e-09
8.38411e-09
-5.30819e-09
3.18551e-09
2.16875e-09
-1.20333e-08
3.75074e-09
-4.26077e-09
3.69549e-09
7.4937e-09
-1.39927e-10
1.52963e-08
-1.15445e-08
1.81294e-09
-5.56473e-09
3.01127e-09
-2.15442e-09
1.44394e-08
1.15467e-09
-8.1303e-09
-4.56891e-09
1.29384e-08
-3.39968e-09
1.07824e-08
-7.29799e-09
-1.67151e-09
1.3623e-08
4.54527e-09
-1.05068e-08
-9.27714e-10
9.8563e-09
-3.9602e-09
1.20745e-09
6.51561e-09
-6.06518e-09
1.17635e-09
-1.62656e-09
-1.14985e-08
9.76773e-09
-6.7438e-09
7.61983e-09
6.36918e-09
-7.24526e-09
4.26855e-09
4.60009e-09
-1.56124e-08
8.70281e-09
-6.36431e-09
-8.40367e-09
4.08037e-10
-3.20367e-09
-1.03857e-08
8.28987e-09
1.94848e-09
-6.44668e-09
3.80271e-09
6.95869e-10
-6.50797e-09
9.52479e-09
-1.84036e-09
4.39353e-09
-6.30146e-09
1.03988e-08
1.61463e-09
2.03056e-09
-5.78207e-09
-7.88023e-11
6.81855e-09
1.13206e-08
-7.91891e-09
7.61658e-09
9.21353e-09
-8.23974e-10
-3.87822e-09
-4.51137e-09
-1.41238e-09
7.80391e-09
2.822e-09
1.12067e-08
-4.68572e-09
-7.34496e-09
8.84667e-09
9.47624e-10
7.20589e-09
-1.44558e-08
7.30067e-10
6.5197e-09
-9.10559e-09
2.18344e-09
1.4128e-08
8.83349e-09
-4.31061e-09
3.281e-09
-2.29614e-09
4.39314e-09
-5.97522e-09
3.2149e-09
-1.01968e-08
-6.52447e-09
-1.22486e-08
4.3173e-09
1.15476e-08
-1.33872e-08
4.30643e-09
2.37703e-09
2.1632e-09
2.96178e-09
1.01781e-08
4.81907e-09
-5.56255e-09
1.07077e-08
-8.86617e-09
4.03368e-09
3.19311e-09
-3.11055e-09
-7.43468e-09
1.59098e-09
-6.40495e-09
-1.7607e-08
-4.08208e-09
4.09092e-09
-7.45217e-09
9.09004e-09
5.12854e-10
3.78076e-09
-2.02718e-10
1.76079e-08
-1.03775e-08
-4.48468e-09
-2.74587e-09
2.2504e-09
9.67742e-09
5.68025e-09
5.95659e-09
5.24705e-09
-8.95318e-09
-1.87012e-09
-4.73654e-10
1.11305e-08
-1.04362e-08
-1.10718e-08
2.55428e-09
-2.97142e-09
1.00945e-08
-2.11441e-10
8.7223e-09
1.72222e-08
-3.81489e-09
-2.2769e-09
1.1369e-09
1.31139e-08
-6.81955e-10
-7.49536e-09
6.30713e-09
-2.42327e-09
-8.48664e-09
-1.2973e-08
1.03916e-08
6.16928e-09
-3.58798e-09
-1.19276e-08
-4.86033e-09
1.96569e-09
9.56275e-09
8.9303e-09
-1.20356e-08
-5.42044e-09
2.42312e-09
-4.75582e-09
6.51004e-09
5.32068e-09
-6.09241e-09
-3.9842e-09
-1.87911e-08
1.30101e-08
-1.77812e-09
7.55903e-09
1.28954e-09
-5.71739e-09
-1.43633e-08
-2.08208e-09
4.89545e-09
-1.54952e-08
1.04989e-08
2.9142e-09
-1.04503e-08
-3.75546e-09
1.22562e-08
-2.51139e-09
-1.54623e-08
7.63076e-09
2.84738e-09
-3.25589e-09
-7.78518e-09
6.52966e-09
1.7813e-09
-6.86401e-09
1.82675e-09
3.43682e-09
-8.15127e-09
1.13051e-08
6.90426e-09
-1.00772e-08
-3.69118e-09
-5.75587e-09
4.87487e-09
-3.47604e-09
6.95338e-09
-1.16287e-08
1.55057e-09
4.73133e-10
-5.49997e-09
5.33169e-09
-9.82439e-09
1.98122e-09
2.70106e-09
-7.44665e-09
-1.50427e-09
2.85087e-09
9.4742e-10
7.34333e-09
-1.11417e-08
-2.96584e-09
-7.064e-09
5.32691e-10
9.4971e-09
-6.22294e-09
6.10795e-09
-1.35654e-08
6.08374e-09
5.97768e-09
1.50375e-09
8.58275e-09
-5.45467e-09
-1.66935e-08
6.00987e-09
9.04185e-09
-6.46906e-09
1.11724e-08
9.21174e-10
-1.16206e-08
2.50382e-09
1.00642e-08
-7.67243e-09
1.76801e-09
-5.71629e-09
1.62985e-09
-7.11078e-09
-1.58313e-09
-4.5308e-09
-6.22988e-11
7.93306e-09
1.30706e-09
-1.46948e-08
6.23828e-09
-1.21841e-08
9.18516e-09
1.41713e-08
4.85919e-10
-3.62822e-09
1.22216e-08
-2.04502e-09
-6.14786e-09
1.65135e-09
6.54149e-09
-6.40596e-09
-1.69881e-10
6.12493e-09
-1.09658e-08
5.2192e-09
-5.50024e-09
-1.40566e-09
-2.09945e-08
-1.25553e-09
6.01235e-09
-2.74155e-09
-1.1509e-08
-6.74401e-09
-1.45778e-08
2.48957e-09
1.08327e-08
4.37364e-09
-8.08444e-09
-1.0867e-08
-5.4413e-09
1.33323e-08
-3.51738e-09
-1.54071e-08
-1.25737e-08
-5.46544e-09
-2.992e-09
-1.61593e-08
2.71702e-10
-1.41315e-08
-4.26763e-09
5.64636e-09
-2.52433e-08
-1.91004e-08
8.58742e-09
-4.50442e-09
8.07792e-09
-5.4828e-09
1.90928e-09
-8.52976e-09
-1.41597e-09
5.63253e-09
-5.9348e-09
5.4705e-10
-2.44856e-10
6.73811e-10
3.0313e-10
4.65553e-09
6.47468e-09
2.27708e-09
-4.61257e-09
7.83244e-10
-1.65354e-09
-6.13651e-09
-7.0058e-09
-3.87348e-09
-1.27809e-09
-4.92919e-09
9.78968e-10
4.25331e-09
-4.58237e-09
2.00212e-10
8.20999e-09
-7.26112e-09
1.54077e-09
-4.52379e-10
1.02448e-08
-1.58234e-09
-5.45498e-09
2.22182e-10
-2.02835e-09
-5.6142e-09
5.04775e-09
-5.06507e-09
-3.85614e-09
3.17409e-10
1.48015e-10
-5.81542e-09
6.34207e-09
-5.20339e-09
-5.06056e-09
4.44852e-09
-5.07099e-09
1.85063e-10
9.45618e-10
-1.26963e-08
-2.86001e-09
-1.97834e-09
-3.7285e-09
-4.20254e-09
-7.84796e-09
-1.88987e-08
2.49964e-09
-8.41489e-10
1.72403e-08
-3.46679e-09
-1.71192e-08
1.68742e-09
-2.06805e-08
1.4935e-09
2.16867e-08
-2.21507e-08
-1.99656e-09
1.83376e-08
-1.51343e-09
-2.75657e-09
-1.40676e-08
7.44938e-10
1.67513e-08
-2.66969e-08
1.12974e-09
9.42551e-09
-1.85303e-08
-1.75919e-08
-1.49958e-08
-3.63665e-09
-2.14644e-08
8.37823e-09
-9.06452e-09
1.9199e-10
1.93734e-08
-1.84356e-08
-6.51971e-09
-8.57431e-09
-6.3703e-09
-8.92987e-09
-1.25857e-08
-3.12538e-09
-5.60722e-09
-2.0611e-08
2.9344e-08
-6.73787e-09
-1.90393e-08
2.26521e-08
-1.74642e-08
1.91496e-08
-9.78549e-09
6.99638e-10
-2.05057e-09
7.82082e-09
-1.43445e-08
5.54074e-09
-1.6521e-08
-2.01836e-08
2.01173e-08
-8.70238e-09
5.55222e-09
2.05294e-08
-2.4983e-08
-1.09846e-09
2.79175e-08
4.0644e-09
-2.64295e-08
9.83001e-11
2.3023e-09
1.81289e-08
2.44306e-08
5.30017e-10
-2.76157e-08
2.1029e-09
3.42368e-08
-2.73683e-09
2.08181e-09
-3.35818e-08
1.28193e-08
2.1881e-10
-2.65838e-08
2.61953e-08
1.3208e-08
-2.87906e-08
-2.67337e-08
-1.10231e-09
2.53591e-08
8.55892e-09
-1.6668e-08
8.51028e-09
-4.01362e-10
-1.17394e-08
1.22477e-08
8.0505e-09
-4.39651e-09
2.88911e-10
-7.63194e-09
-4.06693e-09
-1.69976e-08
-1.67028e-09
-3.77427e-09
1.76922e-08
-4.33519e-09
-3.55183e-09
1.11147e-08
-7.27405e-09
4.6159e-09
-1.45797e-09
6.59848e-09
-9.75665e-09
1.02158e-08
-9.15185e-09
-3.50778e-09
1.08481e-08
-1.47305e-08
9.20559e-09
1.09797e-08
-3.06671e-09
-1.31459e-09
1.24585e-08
8.73694e-09
-2.9466e-09
1.17534e-08
-1.31421e-08
6.00407e-09
4.1209e-09
-1.51525e-08
-5.45228e-09
1.64841e-08
-7.94746e-09
-1.33964e-08
2.54649e-08
-2.64501e-08
2.77226e-08
-8.54695e-09
-8.43969e-09
-5.78221e-09
-2.57985e-08
2.36333e-08
-2.5854e-08
1.46196e-08
9.78974e-09
-1.72557e-08
1.40336e-08
-6.56727e-09
-1.80859e-08
2.02176e-09
-1.74653e-08
-9.16744e-09
-1.14212e-08
-2.32998e-08
-1.44157e-08
2.65087e-09
-1.31979e-08
4.46323e-08
-2.48862e-08
-1.026e-08
2.1547e-08
-2.78906e-08
2.64822e-08
-2.84405e-08
1.7393e-09
1.50025e-08
8.87066e-09
-1.19116e-08
5.29621e-09
1.02205e-08
-3.60513e-09
-1.01256e-09
1.26321e-09
-1.21623e-08
1.10836e-08
-4.81907e-10
1.35218e-09
-1.19539e-08
8.90571e-11
-6.94898e-09
1.05446e-08
-3.68469e-09
-1.23863e-08
1.43575e-08
9.11234e-09
7.68026e-09
-6.80318e-09
-1.32637e-08
7.78426e-09
9.5681e-09
-1.50299e-08
-2.32256e-09
4.14564e-09
-6.52676e-09
1.01654e-08
1.72605e-09
2.10068e-08
-1.31648e-08
-2.78721e-09
-1.41886e-08
2.03559e-08
1.20821e-08
-7.84747e-09
8.64922e-09
-8.72512e-11
1.68664e-08
1.94132e-08
-1.0007e-08
7.39246e-09
3.41877e-09
3.60851e-10
-1.34189e-10
-5.31561e-09
5.78839e-09
2.94604e-09
-1.21667e-09
1.7016e-09
3.3123e-09
-1.05192e-10
2.32784e-09
7.71797e-09
-4.25739e-09
-5.46947e-10
6.18715e-09
-3.66867e-09
7.7606e-09
1.32199e-09
4.24552e-09
3.2192e-09
6.10036e-09
2.52094e-09
3.16008e-09
-5.46781e-09
-2.13287e-10
1.2663e-09
6.78538e-09
-5.65009e-09
-2.40159e-09
-1.60489e-09
3.23602e-09
4.09781e-09
-5.72904e-09
1.66131e-09
2.21502e-09
-5.48144e-09
-3.5659e-09
3.74344e-09
1.48372e-09
-7.96424e-09
6.73418e-09
-2.33584e-09
3.59781e-09
-1.01717e-08
-1.39028e-09
1.04264e-08
-5.56233e-09
-5.49299e-09
5.06714e-10
8.72973e-09
-6.66023e-09
7.9014e-09
-3.98555e-09
-5.867e-09
1.03592e-08
-2.86549e-09
2.1159e-09
-4.34899e-09
-7.39309e-09
5.87496e-09
-6.86235e-09
-3.52231e-10
4.37199e-09
6.99543e-09
-4.58216e-09
3.05676e-11
-2.84701e-09
2.44929e-09
9.19253e-10
1.37419e-08
-8.79333e-11
4.35255e-09
-1.80063e-08
4.23282e-09
1.39974e-08
-4.48819e-09
-7.16021e-09
3.78062e-10
1.10151e-08
-9.8271e-09
2.57904e-09
1.66174e-08
1.16021e-09
-1.34249e-08
2.11346e-08
9.48015e-09
-7.66207e-09
-2.21458e-09
1.1037e-08
2.02374e-09
3.00116e-09
-1.18506e-08
6.82608e-09
-1.81165e-09
-5.20748e-09
2.00134e-09
5.01756e-09
-3.65249e-09
2.13075e-09
-2.90057e-10
4.63756e-10
8.48037e-10
-4.96434e-09
6.11344e-09
1.84643e-09
-7.49623e-09
2.18133e-10
6.8777e-10
-2.56627e-09
-4.92836e-09
4.93968e-09
2.55473e-09
-3.22224e-09
9.62788e-10
-3.07031e-10
1.94557e-09
-4.31984e-09
1.42266e-09
-4.40546e-09
-1.34691e-08
1.08563e-08
2.8309e-09
6.34394e-10
-1.22571e-08
1.04529e-08
-8.39589e-09
2.94117e-09
1.52445e-09
5.98723e-09
1.95986e-09
5.92092e-09
8.68278e-09
3.69796e-09
-3.25886e-09
6.03874e-09
-8.2015e-10
-1.65373e-10
-7.75601e-09
1.26257e-08
-3.51397e-09
-1.35549e-09
1.06232e-08
-8.05654e-09
-1.03226e-08
-2.05822e-09
1.12391e-08
3.44496e-09
8.24644e-09
3.18684e-10
-6.85146e-09
8.27758e-09
-4.93998e-09
2.61557e-09
-1.75236e-08
5.3432e-09
1.81417e-08
-1.52071e-08
1.98213e-08
-4.86042e-09
-9.61764e-09
-1.00137e-08
4.58161e-09
1.66712e-08
-3.7725e-09
2.00515e-09
8.53028e-09
8.39178e-09
-1.43065e-08
2.3339e-09
3.34188e-09
1.2466e-08
5.63432e-09
-1.06734e-08
1.35424e-08
-7.72939e-09
8.29256e-09
-1.04356e-08
3.79232e-09
8.2704e-10
5.71567e-10
-1.08756e-08
1.59384e-08
8.49509e-09
-9.83147e-09
1.24983e-08
2.25345e-09
9.65634e-09
-1.16142e-08
-5.61253e-09
7.57033e-09
-1.23054e-09
9.7924e-09
-7.20033e-09
-1.36162e-09
-8.21507e-09
1.04993e-08
-3.51477e-09
1.08078e-08
-7.39213e-09
6.24056e-09
5.10799e-09
-5.06108e-11
5.75042e-09
2.47912e-10
1.10159e-08
-6.15588e-09
1.15767e-08
4.59415e-09
-6.37847e-09
-2.08487e-09
5.52192e-09
8.13961e-09
-2.27674e-09
3.42808e-09
-8.35173e-09
3.05009e-09
-1.35419e-08
4.63526e-09
-1.31994e-08
4.95132e-09
3.46304e-09
6.45136e-10
-3.40207e-09
2.48441e-09
-5.21858e-09
2.68347e-09
-2.80626e-09
5.53853e-09
-7.19676e-09
9.91239e-09
-2.55503e-09
-4.76015e-11
-2.42472e-09
-2.14877e-09
-1.55169e-09
-1.43864e-10
-1.6222e-08
2.96643e-09
1.33996e-08
2.374e-09
8.09733e-09
-1.0615e-08
-3.46166e-09
-8.06853e-09
-2.76364e-09
1.42939e-08
9.61654e-09
-1.24994e-08
-5.78773e-10
-2.25157e-08
1.59103e-08
9.75295e-09
-8.16981e-09
-9.65155e-09
1.56758e-09
5.52387e-10
7.63311e-09
-7.85196e-09
7.51418e-09
7.67941e-09
-7.34147e-09
1.06638e-10
-6.39099e-09
-3.0805e-10
-1.20101e-08
1.52847e-08
9.58017e-09
-2.84576e-08
-2.39604e-09
8.338e-09
-1.73683e-08
-2.35887e-08
2.44673e-08
-2.2591e-09
-2.11841e-09
-2.00897e-08
1.74102e-08
4.66119e-09
-1.54685e-08
6.33268e-09
4.52002e-09
4.6161e-09
-3.66269e-09
-1.40649e-08
-1.77665e-09
-1.1475e-08
9.58909e-09
-1.58228e-09
-1.79044e-08
1.17329e-08
-1.15287e-08
-1.10587e-08
1.52301e-09
2.7321e-09
1.63516e-08
-1.29778e-08
6.09849e-09
-9.47253e-09
1.19729e-08
1.70574e-08
-1.26789e-08
1.77826e-08
-1.87773e-08
3.48883e-09
-1.71019e-09
-2.18874e-09
1.59296e-08
-1.20308e-08
-2.80506e-09
-1.39351e-08
-1.8117e-08
2.06896e-09
3.8576e-09
1.21906e-08
4.70717e-09
-1.62567e-08
-6.56732e-09
-1.12652e-08
4.20944e-09
9.12476e-09
-5.33346e-09
-1.22453e-09
-2.08086e-09
-4.88659e-09
-9.28911e-09
-7.72256e-09
4.45486e-09
7.47725e-09
-1.05897e-08
-2.46625e-09
8.64584e-09
-7.08074e-09
-6.46559e-09
4.90081e-09
-1.40425e-08
-1.69605e-09
2.43846e-08
2.42779e-08
-8.53195e-09
-2.28266e-08
-1.34877e-08
2.37232e-08
-1.66002e-08
1.39924e-08
-6.14642e-09
-1.25344e-08
-8.19523e-09
1.09542e-08
-1.43389e-09
4.48345e-09
-1.6537e-08
1.27173e-08
2.8863e-10
5.47285e-09
-1.84784e-08
-7.11796e-10
1.21301e-09
1.22163e-08
-1.19042e-08
1.17677e-08
-5.75165e-10
5.88295e-09
-1.74984e-08
-9.10829e-09
-1.92376e-09
4.42415e-10
-8.11189e-09
-1.12347e-08
1.60569e-09
-1.06713e-08
9.99776e-09
-1.39072e-09
1.61883e-08
-2.39135e-08
-6.55455e-09
1.42797e-08
-1.92164e-08
7.30289e-09
2.81017e-08
1.6236e-08
1.49582e-08
-1.01501e-08
1.10041e-08
-1.63374e-08
-1.85803e-08
-4.7089e-09
-3.50352e-09
-1.04687e-08
2.71195e-08
-4.14778e-10
-1.65526e-08
-1.02536e-08
1.27817e-08
7.78309e-09
1.98435e-08
1.07517e-08
6.62587e-09
2.59991e-08
-1.38806e-08
2.78092e-08
-8.5891e-09
1.15512e-08
-6.46735e-10
2.33434e-09
4.93475e-09
-2.82248e-09
-4.4467e-09
5.45664e-09
-5.6035e-10
-2.56205e-09
3.61875e-09
-4.73944e-09
3.62994e-09
-2.50929e-09
-9.59211e-10
4.57052e-09
7.26391e-12
-4.02187e-09
5.49824e-09
3.98011e-09
-4.63576e-11
7.27065e-09
9.51632e-10
-1.06033e-08
2.38102e-09
7.00316e-09
4.25615e-09
-3.98869e-09
8.08184e-09
-4.63288e-09
-4.00938e-09
7.33763e-09
1.05527e-08
-9.80864e-09
-6.6103e-09
4.46008e-09
-8.81516e-10
5.12767e-11
4.9927e-09
4.03784e-09
-1.91072e-09
-4.9273e-10
7.39591e-09
-4.96656e-10
4.08397e-09
3.24171e-09
3.59898e-09
-5.91325e-09
8.66216e-09
2.08383e-10
-1.47114e-09
-3.59082e-09
-1.16994e-09
6.23182e-09
-2.07501e-09
-4.2015e-09
4.80514e-09
-2.49951e-09
-4.50689e-09
3.41551e-09
7.89973e-10
-3.31602e-09
2.64342e-11
1.31401e-09
-5.12436e-09
1.73482e-09
-4.11671e-09
-3.51752e-09
1.05992e-10
-7.47435e-09
6.0803e-09
3.44529e-09
-2.05131e-09
-2.91128e-10
-7.63408e-09
4.50841e-10
-5.66873e-09
-1.85361e-09
3.01541e-09
-5.57453e-09
-3.41023e-09
7.44072e-09
-3.28985e-11
-7.69898e-09
3.30683e-09
2.28025e-09
5.27042e-09
2.16922e-10
-5.82435e-09
-6.88847e-10
6.265e-09
-6.59388e-09
1.01768e-09
-4.33519e-09
1.28762e-10
5.28387e-09
-4.14327e-09
1.30804e-10
-4.24911e-09
-6.33613e-09
-1.26971e-10
1.26309e-08
-3.42684e-09
-1.47686e-08
-1.03891e-09
1.57543e-08
-2.08444e-09
-1.14483e-08
-2.83047e-09
-1.20011e-09
1.54789e-08
-2.52307e-09
-5.67004e-09
-3.25509e-09
8.56925e-09
1.69894e-09
-1.3695e-08
9.91385e-09
-2.38346e-09
4.66951e-09
-1.69948e-09
1.27843e-08
1.4427e-08
-7.03622e-09
1.62661e-08
1.34171e-08
6.9015e-09
-6.69549e-09
2.29355e-09
1.04464e-08
5.4016e-09
-7.56146e-09
-3.51013e-09
8.25818e-09
1.01838e-09
-3.87496e-09
-3.09963e-09
1.01577e-08
1.26111e-08
-9.86044e-09
3.99791e-09
4.89901e-09
3.8999e-09
-4.25615e-09
-4.54277e-09
-4.35374e-11
5.046e-09
-1.03506e-10
6.16939e-09
-3.37578e-09
1.83231e-09
-4.62599e-09
6.23998e-09
-1.14159e-10
-4.69252e-09
5.47063e-09
4.26788e-09
2.64879e-10
-1.0575e-09
2.1241e-09
-7.51026e-09
-8.30725e-10
6.21685e-09
-4.0603e-10
8.00068e-09
-8.73311e-10
-6.75861e-09
6.72463e-09
-1.44527e-09
-3.44709e-09
5.45435e-09
-3.28579e-09
-7.49227e-09
1.0372e-08
-1.05529e-08
6.43643e-09
7.66488e-09
-1.44462e-09
1.26601e-08
-3.65322e-09
7.88079e-09
-5.67282e-09
-9.32883e-09
3.11845e-12
-1.62808e-09
6.31553e-09
-8.72809e-09
4.04061e-09
3.65685e-09
-6.542e-09
1.257e-09
9.33575e-10
-3.18749e-09
5.91066e-09
1.0932e-08
-3.68318e-09
7.55458e-10
-4.40341e-09
-5.08019e-09
-2.90578e-09
-2.88086e-09
1.1085e-09
-2.73345e-09
-1.28101e-09
-2.77159e-09
4.0809e-09
-2.00892e-10
6.69577e-09
2.93165e-09
-6.36528e-09
-3.26226e-09
1.76479e-09
3.23883e-09
1.69202e-09
3.73169e-09
-2.6951e-09
-3.7701e-09
1.29852e-09
-3.3851e-10
-2.72734e-09
3.62059e-09
-4.4122e-09
3.44962e-09
-1.82076e-10
-3.44003e-09
-3.37902e-09
4.53688e-10
-6.29437e-10
-9.45168e-09
5.6777e-09
-6.76457e-09
1.47193e-09
-4.25998e-09
4.61218e-09
-1.82413e-09
-2.82683e-09
4.94972e-09
-6.50994e-10
-2.05059e-09
1.13455e-09
-3.34394e-09
-4.51656e-09
7.63806e-09
-5.94839e-09
2.71354e-09
-9.28071e-09
-3.03039e-09
-2.8373e-09
4.03859e-09
1.82905e-09
1.56147e-09
3.57774e-10
1.21304e-10
-3.41427e-09
-2.45698e-09
7.61349e-09
-8.31424e-09
-1.53852e-09
7.48639e-09
-8.49959e-09
1.0107e-08
-3.14591e-09
-9.962e-09
3.02384e-09
5.54205e-10
-3.03933e-09
1.00985e-08
-1.76979e-09
3.13303e-09
-5.11443e-09
2.33908e-09
1.5007e-09
-2.93567e-09
4.56793e-09
-2.00044e-09
5.33016e-09
2.41121e-09
-3.11188e-09
-4.41378e-09
-5.18661e-10
-5.82783e-12
-2.03913e-09
-2.64602e-09
2.68469e-09
-1.96374e-10
3.88675e-09
-5.51447e-09
1.17059e-09
2.7506e-09
-4.11757e-09
-2.56222e-09
4.41118e-12
-2.59229e-09
-3.80771e-09
1.28297e-09
-1.3611e-10
2.15153e-10
5.22615e-11
-4.1045e-09
-7.64852e-10
6.54972e-09
-1.6804e-09
-4.99963e-09
5.55484e-09
-4.65968e-09
-5.45073e-09
7.92587e-09
3.33996e-10
-9.19896e-09
3.41415e-09
2.63327e-09
-7.29889e-09
-3.86911e-09
7.2856e-09
3.13317e-09
2.01075e-09
-3.25059e-10
-5.61755e-09
-3.69898e-10
1.36114e-09
4.62623e-09
-3.54071e-09
-6.61173e-11
1.74413e-08
-1.42894e-09
-3.78896e-09
-1.22236e-08
-7.35718e-10
9.11146e-09
1.90214e-09
-1.0278e-08
1.42632e-08
2.44226e-09
5.191e-09
-5.85589e-09
-2.87585e-09
8.27922e-10
3.99308e-09
-3.37319e-09
1.50536e-10
1.33294e-09
7.31382e-09
1.00228e-08
-3.52588e-09
-2.15493e-09
6.07109e-11
1.63574e-08
7.78442e-09
1.14164e-08
2.1212e-09
2.78991e-09
-4.62601e-09
-2.8506e-10
4.71825e-09
-2.55e-09
-4.70401e-11
5.16188e-09
-2.31803e-09
-5.38999e-11
-1.96926e-09
-3.50655e-09
5.50115e-09
-2.53335e-11