/*--------------------------------*- C++ -*----------------------------------*\
| =========                 |                                                 |
| \\      /  F ield         | OpenFOAM: The Open Source CFD Toolbox           |
|  \\    /   O peration     | Version:  v1612+                                |
|   \\  /    A nd           | Web:      www.OpenFOAM.com                      |
|    \\/     M anipulation  |                                                 |
\*---------------------------------------------------------------------------*/
FoamFile
{
    version     2.0;
    format      ascii;
    class       volVectorField;
    location    "150";
    object      U;
}
// * * * * * * * * * * * * * * * * * * * * * * * * * * * * * * * * * * * * * //

dimensions      [0 1 -1 0 0 0 0];

internalField   nonuniform List<vector> 
17032
(
(-0.861699 0.290159 -0.322231)
(-1.04476 -0.0187788 -0.395834)
(-1.06531 -0.0312996 -0.402945)
(-0.960684 -0.0134345 -0.328874)
(-0.975497 -0.0243723 -0.337149)
(-1.02871 -0.0335691 -0.396651)
(-1.04361 -0.0339283 -0.404645)
(-0.969077 -0.016 -0.34625)
(-0.978986 -0.00617625 -0.33765)
(-1.05492 -0.0107268 -0.385553)
(-1.03972 -0.00868997 -0.366395)
(-1.06247 -0.0412243 -0.432198)
(-1.06937 -0.0410401 -0.425212)
(-1.072 -0.0210182 -0.413082)
(-1.05213 -0.0154208 -0.392265)
(-1.06029 -0.0217709 -0.421156)
(-1.04475 -0.0127097 -0.39136)
(-1.08888 -0.0295323 -0.442381)
(-1.06506 -0.0389887 -0.440644)
(-0.931884 0.110095 -0.416326)
(-0.880975 0.116599 -0.400473)
(-0.869027 0.120444 -0.386915)
(-0.83088 0.118643 -0.367506)
(-1.01754 0.0837413 -0.450623)
(-0.875903 0.087168 -0.384817)
(-0.836188 0.102099 -0.365439)
(-0.926998 0.0972097 -0.417707)
(-0.941963 0.0962853 -0.417353)
(-1.0295 0.0775729 -0.455469)
(-0.922813 0.0801045 -0.40481)
(-0.871262 0.0936593 -0.384829)
(-1.01959 0.0784593 -0.454654)
(-1.03649 0.059663 -0.457431)
(-0.90305 0.0953907 -0.402289)
(-0.747121 0.243749 -0.141611)
(-0.773405 0.249115 -0.17116)
(-0.889288 0.187634 -0.265384)
(-0.921402 0.188635 -0.256877)
(-0.796615 0.226968 -0.16945)
(-0.835571 0.207615 -0.218773)
(-0.78545 0.216001 -0.156679)
(-0.744024 0.232254 -0.151824)
(-0.930547 0.197282 -0.231216)
(-0.939348 0.179212 -0.25096)
(-0.799088 0.209419 -0.142834)
(-0.846626 0.208514 -0.173924)
(-0.713529 0.223135 -0.117893)
(-0.812267 0.207032 -0.154523)
(-0.754962 0.213142 -0.131055)
(-0.826539 0.206196 -0.160818)
(-1.05481 -0.0867212 -0.49369)
(-1.08076 -0.081899 -0.489536)
(-1.04823 -0.0900304 -0.493747)
(-1.00003 -0.0844418 -0.467301)
(-1.00401 -0.100475 -0.486928)
(-0.963582 -0.0911449 -0.457806)
(-1.07842 0.193764 -0.310996)
(-1.0588 0.183475 -0.320725)
(-1.0755 0.176765 -0.347619)
(-1.05017 0.165322 -0.338844)
(-1.07242 0.194917 -0.326025)
(-1.08757 0.205721 -0.324216)
(-1.05943 0.181257 -0.359954)
(-1.04052 0.160495 -0.368655)
(-1.10141 0.159431 -0.379342)
(-1.1082 0.171844 -0.371145)
(-1.11844 0.181733 -0.358594)
(-1.12508 0.186268 -0.368046)
(-1.08074 0.184928 -0.366689)
(-1.06421 0.177803 -0.382912)
(-1.07831 0.167755 -0.37507)
(-1.06703 0.158377 -0.39223)
(-1.07272 0.164346 -0.379959)
(-1.11113 0.209924 -0.362245)
(-1.09359 0.176135 -0.384707)
(-0.910531 -0.0721252 -0.427426)
(-0.944551 -0.0669947 -0.446832)
(-1.0092 -0.074485 -0.463039)
(-0.94821 -0.0643066 -0.432061)
(-0.850371 -0.072973 -0.403925)
(-0.890803 -0.0890843 -0.428457)
(-0.989495 -0.0965325 -0.478726)
(-1.00789 -0.0854471 -0.480781)
(-0.9822 -0.0753625 -0.458007)
(-0.887773 -0.076368 -0.422646)
(-0.977378 -0.0821194 -0.453488)
(-0.878266 -0.0864001 -0.422356)
(-0.863946 0.223482 -0.276291)
(-0.868187 0.258342 -0.250779)
(-0.845709 0.275304 -0.223086)
(-0.866522 0.255091 -0.245143)
(-0.880184 0.195005 -0.293933)
(-0.91025 0.228282 -0.274322)
(-0.897619 0.254965 -0.233172)
(-0.888667 0.237904 -0.257281)
(-0.862265 0.250135 -0.219788)
(-0.902644 0.207968 -0.304604)
(-0.917845 0.187934 -0.302914)
(-0.90842 0.227495 -0.257481)
(-1.06637 -0.0224587 -0.505713)
(-1.05867 -0.0199662 -0.489902)
(-1.0668 -0.00937806 -0.497173)
(-1.06567 -0.00918535 -0.502715)
(-1.04512 0.0108196 -0.488049)
(-1.00809 0.0191974 -0.464666)
(-1.06941 -0.0236007 -0.505915)
(-0.994228 0.0398709 -0.470283)
(-0.93234 0.0416313 -0.44956)
(-0.990255 0.0183104 -0.470655)
(-0.987137 0.0475264 -0.443186)
(-0.983905 0.0539117 -0.441733)
(-1.00974 0.0316464 -0.468571)
(-0.918188 0.0583859 -0.443113)
(-0.645845 0.250921 -0.241495)
(-0.603171 0.272 -0.224613)
(-0.66368 0.172039 -0.282845)
(-0.661835 0.188065 -0.278916)
(-0.729105 0.237584 -0.253778)
(-0.706318 0.241279 -0.250686)
(-0.610245 0.258636 -0.229703)
(-0.712616 0.189024 -0.278877)
(-0.639607 0.212344 -0.261133)
(-0.595528 0.18723 -0.246898)
(-0.6611 0.203636 -0.262769)
(-0.607745 0.202255 -0.254517)
(-0.711075 0.17162 -0.273761)
(-0.532801 0.227561 -0.220926)
(-0.7004 0.211915 -0.262854)
(-0.576989 0.257154 -0.204868)
(-0.625223 0.0718791 -0.276767)
(-0.635493 0.0593863 -0.28264)
(-0.583829 0.0882876 -0.274308)
(-0.655048 0.0218043 -0.306542)
(-0.603623 0.0149339 -0.274365)
(-0.640724 0.0212509 -0.295824)
(-0.567193 0.0609098 -0.262226)
(-0.518617 0.0723411 -0.245855)
(-0.569662 0.0415369 -0.262786)
(-0.54939 0.0346427 -0.24993)
(-0.493055 0.0771419 -0.234425)
(-0.525058 0.0476635 -0.235886)
(-1.12492 0.253173 -0.421064)
(-1.02702 0.162214 -0.379186)
(-1.09477 0.211797 -0.396791)
(-1.0902 0.19521 -0.401823)
(-0.947683 0.120755 -0.350077)
(-1.03645 0.183965 -0.387104)
(-1.07029 0.185995 -0.393294)
(-1.06195 0.234345 -0.34478)
(-0.987277 0.187241 -0.345843)
(-1.06899 0.20675 -0.35503)
(-1.02966 0.21938 -0.355685)
(-1.07529 0.239028 -0.376113)
(-1.06566 0.217613 -0.391797)
(-1.08709 0.226625 -0.391964)
(-1.0767 0.234872 -0.39456)
(-1.07724 0.221198 -0.400637)
(-1.07023 0.198739 -0.371128)
(-1.07528 0.221583 -0.360693)
(-1.08562 0.232978 -0.389863)
(-0.587844 -0.00286823 -0.214077)
(-0.599028 -0.000499665 -0.22052)
(-0.597823 -0.00387703 -0.230595)
(-0.671026 -0.0187374 -0.260232)
(-0.659144 -0.0245017 -0.272621)
(-0.640818 -0.0149416 -0.23367)
(-0.665964 -0.0127683 -0.241701)
(-0.717216 -0.0220866 -0.288369)
(-0.711462 -0.0209099 -0.295405)
(-0.659924 -0.0207789 -0.269966)
(-0.68542 -0.0102123 -0.296762)
(-0.6463 -0.0128772 -0.283873)
(-0.730776 -0.013686 -0.297318)
(-0.642947 -0.00600174 -0.259255)
(-0.680677 -0.0102177 -0.266907)
(-0.613273 0.0829797 -0.235257)
(-0.654157 0.0760418 -0.221887)
(-0.658543 0.0856582 -0.222642)
(-0.598485 0.0853182 -0.185411)
(-0.511446 0.0961764 -0.201103)
(-0.526562 0.0840815 -0.199541)
(-0.508959 0.0854007 -0.146289)
(-0.488793 0.0904282 -0.144989)
(-0.599462 0.0853413 -0.176352)
(-0.63354 0.0970057 -0.194536)
(-0.484293 0.0927846 -0.181561)
(-0.531181 0.0877414 -0.199699)
(-0.528449 0.0774398 -0.177305)
(-0.55048 0.0794202 -0.198415)
(-0.506603 0.090544 -0.186313)
(-0.474213 0.0855985 -0.158098)
(-0.490355 0.0878783 -0.153937)
(-0.589538 0.0919265 -0.178882)
(-0.477877 0.0826056 -0.15455)
(-0.61993 0.0898744 -0.225058)
(-0.560855 0.0939354 -0.191258)
(-1.09041 0.109668 -0.35088)
(-1.0241 0.14705 -0.284122)
(-1.0125 0.150312 -0.290188)
(-0.997686 0.127683 -0.330388)
(-1.04812 0.113664 -0.348637)
(-1.06787 0.0853527 -0.354385)
(-1.06802 0.112719 -0.334247)
(-1.00034 0.10895 -0.309655)
(-1.02109 0.109157 -0.332966)
(-0.978993 0.160664 -0.262744)
(-0.998678 0.133987 -0.295667)
(-0.936216 0.151274 -0.240264)
(-0.935669 0.160188 -0.212996)
(-0.913953 0.156216 -0.203962)
(-1.02408 0.110658 -0.307412)
(-1.0069 0.137332 -0.292473)
(-1.019 0.147377 -0.302403)
(-0.989881 0.139042 -0.278481)
(-0.994381 0.133389 -0.289529)
(-0.891508 0.154232 -0.207257)
(-0.933497 0.146808 -0.216959)
(-1.01074 0.139079 -0.280577)
(-0.929762 0.178451 -0.310326)
(-0.96799 0.194797 -0.319282)
(-1.02254 0.20362 -0.343979)
(-0.933122 0.176173 -0.316017)
(-0.884747 0.170557 -0.329438)
(-1.03127 0.178465 -0.350825)
(-0.996241 0.145098 -0.370447)
(-0.993972 0.156286 -0.362969)
(-1.0297 0.148049 -0.361548)
(-0.957377 0.122356 -0.370044)
(-0.925289 0.138712 -0.356533)
(-0.871786 0.145975 -0.33724)
(-0.919098 0.126685 -0.344723)
(-0.936466 0.135421 -0.36415)
(-0.812133 0.124966 -0.322431)
(-0.835689 0.177302 -0.298248)
(-0.798259 0.188902 -0.29286)
(-0.811761 0.165307 -0.304051)
(-0.767577 0.175088 -0.292367)
(-0.772012 0.246948 -0.259623)
(-0.826496 0.235902 -0.270035)
(-0.750097 0.263806 -0.237252)
(-0.800916 0.171131 -0.300866)
(-0.770881 0.137302 -0.312605)
(-0.718208 0.168339 -0.281635)
(-0.798544 0.225651 -0.263888)
(-0.80083 0.147043 -0.308383)
(-0.808973 0.201753 -0.281665)
(-0.76528 0.147412 -0.295019)
(-0.981534 0.0525901 -0.372074)
(-0.953231 0.049285 -0.378585)
(-0.98197 0.0716283 -0.369812)
(-0.890967 0.10266 -0.322146)
(-0.89585 0.112477 -0.316715)
(-0.828073 0.102907 -0.298133)
(-0.86993 0.111563 -0.313807)
(-0.876293 0.0163782 -0.373194)
(-0.898019 0.026823 -0.375355)
(-0.894085 0.0681233 -0.350966)
(-0.838582 0.101736 -0.333622)
(-0.871714 0.0758577 -0.347356)
(-0.814868 0.0607982 -0.334047)
(-0.80061 0.0735615 -0.326519)
(-0.893273 0.0609593 -0.359836)
(-0.840002 0.0407794 -0.359643)
(-0.8929 0.236419 -0.202423)
(-0.851298 0.233274 -0.219911)
(-0.811327 0.268105 -0.156772)
(-0.848436 0.265917 -0.15349)
(-0.838635 0.257549 -0.187437)
(-0.822252 0.267704 -0.174279)
(-0.832775 0.238751 -0.17884)
(-0.75659 0.269645 -0.13784)
(-0.866135 0.248377 -0.166868)
(-0.807244 0.249066 -0.134655)
(-0.682805 0.262333 -0.0924129)
(-0.737647 0.246013 -0.107377)
(-0.913125 0.0769589 -0.233013)
(-0.875367 0.0751205 -0.220801)
(-0.990462 0.044994 -0.304799)
(-0.889253 0.06284 -0.243091)
(-0.859677 0.0699432 -0.213997)
(-0.886903 0.0582996 -0.235659)
(-0.816938 0.0691294 -0.189139)
(-0.997327 0.0343822 -0.320908)
(-0.97421 0.039145 -0.316448)
(-0.878233 0.0592352 -0.233397)
(-0.805126 0.0693156 -0.190898)
(-0.873907 0.0474815 -0.238036)
(-0.887114 0.045071 -0.240402)
(-0.855468 0.0413907 -0.235257)
(-0.933367 0.0453352 -0.260475)
(-0.9169 0.0507533 -0.267357)
(-0.841729 0.0490469 -0.210132)
(-0.531004 0.108297 -0.239775)
(-0.539394 0.133745 -0.245348)
(-0.510422 0.140528 -0.235343)
(-0.490731 0.114997 -0.225162)
(-0.404999 0.131084 -0.192256)
(-0.424466 0.131565 -0.203507)
(-0.522771 0.124064 -0.237112)
(-0.475899 0.11726 -0.22006)
(-0.438399 0.130772 -0.208619)
(-0.387172 0.14053 -0.188423)
(-0.348196 0.152842 -0.16629)
(-0.476027 0.176791 -0.212636)
(-0.405458 0.162313 -0.184236)
(-0.386307 0.142209 -0.179132)
(-0.434012 0.156435 -0.201064)
(-0.42803 0.177046 -0.19008)
(-0.366095 0.1611 -0.168774)
(-0.361909 0.152253 -0.170151)
(-0.595827 0.102847 -0.251708)
(-0.64381 0.0981005 -0.270894)
(-0.526706 0.106893 -0.229657)
(-0.583709 0.101316 -0.247311)
(-0.46529 0.139901 -0.216399)
(-0.508704 0.126887 -0.226765)
(-0.458558 0.156434 -0.218018)
(-0.481413 0.155399 -0.226754)
(-0.658184 0.1176 -0.280968)
(-0.657818 0.121419 -0.275839)
(-0.653368 0.125747 -0.278204)
(-0.487899 0.13028 -0.224753)
(-0.579202 0.118225 -0.251075)
(-0.492293 0.148081 -0.230376)
(-0.52451 0.151891 -0.242658)
(-0.473092 0.161597 -0.226732)
(-0.515755 0.175547 -0.240648)
(-0.495007 0.145447 -0.227881)
(-0.560043 0.152609 -0.257389)
(-0.600114 0.133017 -0.260816)
(-0.510887 0.171682 -0.246537)
(-0.621966 0.119603 -0.269208)
(-0.626582 0.14596 -0.271509)
(-0.535385 0.161482 -0.245214)
(-0.600374 0.147488 -0.265918)
(-0.935279 0.316581 -0.189256)
(-0.910105 0.299949 -0.183286)
(-1.01277 0.321698 -0.235095)
(-1.01391 0.313705 -0.246385)
(-0.893041 0.307105 -0.179665)
(-0.871227 0.296455 -0.172461)
(-0.92723 0.289154 -0.235194)
(-0.883608 0.285542 -0.197715)
(-0.916808 0.286732 -0.205541)
(-0.948757 0.289461 -0.24408)
(-0.936681 0.305125 -0.202743)
(-1.04161 0.316883 -0.269571)
(-1.04123 0.30813 -0.280091)
(-0.944972 0.302987 -0.22593)
(-0.744958 0.200588 -0.209528)
(-0.717531 0.192203 -0.200811)
(-0.813168 0.158716 -0.244252)
(-0.805842 0.174855 -0.238563)
(-0.924104 0.119811 -0.337944)
(-0.762463 0.183682 -0.220985)
(-0.819767 0.177743 -0.296496)
(-0.914976 0.144501 -0.318196)
(-0.915644 0.122397 -0.320854)
(-0.81269 0.196041 -0.284114)
(-0.756534 0.191335 -0.237711)
(-0.939847 0.135287 -0.354265)
(-0.914954 0.160837 -0.325269)
(-0.959357 0.133647 -0.367923)
(-0.80147 0.209451 -0.272319)
(-0.559753 0.199498 -0.227502)
(-0.50834 0.219947 -0.203084)
(-0.439017 0.206404 -0.187152)
(-0.484227 0.226038 -0.186537)
(-0.423583 0.221094 -0.16902)
(-0.501661 0.174897 -0.224081)
(-0.439102 0.181619 -0.196102)
(-0.502064 0.223902 -0.208008)
(-0.463109 0.226961 -0.191061)
(-0.555 0.2036 -0.235464)
(-0.388976 0.213549 -0.170059)
(-0.456272 0.209981 -0.201001)
(-0.415868 0.203326 -0.188098)
(-0.952172 0.322415 -0.323125)
(-0.971238 0.307065 -0.333183)
(-1.01258 0.293254 -0.368843)
(-0.972156 0.296402 -0.333128)
(-0.9603 0.306837 -0.321538)
(-0.990694 0.277472 -0.346233)
(-0.883644 0.357099 -0.280548)
(-0.885607 0.360366 -0.302597)
(-0.995364 0.297032 -0.363203)
(-0.99771 0.284113 -0.375221)
(-0.890454 0.326612 -0.288537)
(-0.884014 0.335298 -0.280482)
(-0.935364 0.322421 -0.343448)
(-0.869218 0.362569 -0.306936)
(-0.893928 0.359695 -0.321079)
(-0.872245 0.340992 -0.319596)
(-0.883361 0.355735 -0.310093)
(-0.924867 0.329942 -0.334974)
(-0.858005 0.350795 -0.272171)
(-0.832818 0.371377 -0.290527)
(-0.590562 0.0930104 -0.106803)
(-0.595851 0.0767222 -0.113289)
(-0.58419 0.0768667 -0.110933)
(-0.596098 0.0937567 -0.122077)
(-0.60632 0.0820355 -0.123755)
(-0.579788 0.0671616 -0.108499)
(-0.575289 0.0606002 -0.122746)
(-0.611481 0.079134 -0.112311)
(-0.71128 0.0986469 -0.185536)
(-0.685626 0.088687 -0.17213)
(-0.609397 0.0517907 -0.14792)
(-0.700422 0.0636078 -0.188946)
(-0.679281 0.068421 -0.183222)
(-0.67512 0.0469739 -0.193827)
(-0.728215 0.0640206 -0.208647)
(-0.743567 0.0798337 -0.209921)
(-0.687513 0.0774157 -0.300204)
(-0.703344 0.0723897 -0.29852)
(-0.741673 0.0470579 -0.323327)
(-0.718349 0.0268166 -0.318523)
(-0.629048 0.0819871 -0.283563)
(-0.702956 0.0419328 -0.312204)
(-0.709978 0.0899794 -0.307724)
(-0.663733 0.0888698 -0.29442)
(-0.635126 0.094603 -0.28)
(-0.638952 0.0779864 -0.287571)
(-0.615603 0.0662642 -0.274845)
(-0.742547 0.0345334 -0.321992)
(-0.69338 0.0681528 -0.304364)
(-0.663225 0.0531794 -0.291997)
(-0.790367 0.0356213 -0.34527)
(-0.794825 0.037509 -0.344605)
(-0.799358 0.082359 -0.329146)
(-0.760508 0.0512724 -0.333544)
(-0.80532 0.0386309 -0.344883)
(-0.860454 0.037502 -0.370406)
(-0.860962 0.0530317 -0.360589)
(-0.892763 0.0541818 -0.375007)
(-0.813493 0.0979383 -0.334678)
(-0.768701 0.0999085 -0.319224)
(-0.857776 0.068655 -0.348623)
(-0.900765 0.0700299 -0.363629)
(-0.894725 0.0599087 -0.375386)
(-0.890542 0.0850045 -0.357996)
(-0.759967 0.0628306 -0.320603)
(-0.851932 0.0623123 -0.356006)
(-1.06684 0.152695 -0.34132)
(-1.0469 0.168368 -0.331276)
(-1.06013 0.134683 -0.399104)
(-1.05027 0.137933 -0.358814)
(-1.06356 0.148898 -0.35152)
(-1.11164 0.143345 -0.401719)
(-1.08973 0.156248 -0.381046)
(-1.02815 0.134987 -0.379926)
(-1.06289 0.167614 -0.336348)
(-1.05538 0.140008 -0.379558)
(-1.06694 0.121355 -0.383187)
(-1.00763 0.136178 -0.355828)
(-1.01397 0.114643 -0.384243)
(-0.618331 0.163366 -0.214802)
(-0.688465 0.161817 -0.252345)
(-0.650094 0.159977 -0.242894)
(-0.608688 0.163583 -0.223173)
(-0.869065 0.180148 -0.290216)
(-0.936293 0.220425 -0.324971)
(-0.926012 0.234807 -0.322476)
(-0.924061 0.248452 -0.301656)
(-0.876139 0.160558 -0.308288)
(-0.861329 0.187441 -0.287341)
(-0.917266 0.212141 -0.299245)
(-0.881672 0.212379 -0.274595)
(-0.927636 0.23616 -0.306811)
(-0.906112 0.196905 -0.341215)
(-0.929462 0.195006 -0.344176)
(-0.836041 0.192229 -0.286023)
(-0.796417 0.160528 -0.259106)
(-0.81896 0.170674 -0.264691)
(-0.829628 0.190169 -0.245626)
(-0.832663 0.176026 -0.29759)
(-0.836771 0.151396 -0.302062)
(-0.85269 0.168046 -0.30278)
(-0.985823 0.13022 -0.407048)
(-0.99612 0.117971 -0.410858)
(-1.03197 0.136916 -0.412995)
(-1.00887 0.140627 -0.40915)
(-1.04192 0.194708 -0.402677)
(-1.07883 0.154093 -0.43618)
(-1.07119 0.147819 -0.432028)
(-1.01791 0.21182 -0.378991)
(-1.04057 0.232255 -0.39248)
(-1.06716 0.148003 -0.426381)
(-1.03551 0.190708 -0.400529)
(-0.988718 0.193454 -0.362009)
(-0.60601 0.0115758 -0.268889)
(-0.628364 0.00483915 -0.283919)
(-0.650033 0.00871735 -0.300379)
(-0.555428 0.00606196 -0.24333)
(-0.535278 0.011147 -0.236307)
(-0.565376 0.0232216 -0.278223)
(-0.566343 0.0404891 -0.272146)
(-0.568281 0.0555941 -0.271817)
(-0.465912 0.0692861 -0.223739)
(-0.456937 0.0654944 -0.219641)
(-0.583682 0.0131129 -0.278946)
(-0.547338 0.0296205 -0.255931)
(-0.534923 0.0103205 -0.243283)
(-0.510613 0.0273722 -0.228199)
(-0.46678 0.0410834 -0.217706)
(-0.534574 0.0239434 -0.248126)
(-0.57722 0.0205294 -0.236428)
(-0.548415 0.0277144 -0.222886)
(-0.590958 0.0245842 -0.220778)
(-0.69458 0.019459 -0.301791)
(-0.651568 0.0278904 -0.283545)
(-0.711399 0.0158633 -0.298032)
(-0.677505 0.0131523 -0.272351)
(-0.659119 0.0261505 -0.25445)
(-0.621564 0.0203959 -0.264171)
(-0.657958 0.0110355 -0.275283)
(-0.633322 0.037949 -0.263913)
(-0.632122 0.0462453 -0.277713)
(-0.542367 0.0429326 -0.21321)
(-0.578983 0.0338434 -0.220926)
(-0.52891 0.0434742 -0.217387)
(-0.690872 0.0239813 -0.290278)
(-0.620871 0.0232955 -0.267772)
(-0.578893 0.0431736 -0.239198)
(-0.54644 0.0443422 -0.240711)
(-0.553654 0.0392781 -0.23369)
(-0.547871 0.0441227 -0.233203)
(-0.574896 -0.0365507 -0.209745)
(-0.597659 -0.0477481 -0.239431)
(-0.628069 -0.0452221 -0.254578)
(-0.595843 -0.0342959 -0.218961)
(-0.590772 -0.0407117 -0.217728)
(-0.625537 -0.0358347 -0.223494)
(-0.613866 -0.034725 -0.211406)
(-0.614543 -0.0444872 -0.234136)
(-0.635173 -0.0591858 -0.264657)
(-0.721386 -0.0580941 -0.29873)
(-0.685461 -0.0588278 -0.291176)
(-0.672036 -0.0413494 -0.238748)
(-0.6524 -0.0400594 -0.224356)
(-0.660099 -0.0517696 -0.241886)
(-0.71847 0.158697 -0.225198)
(-0.701022 0.152672 -0.222826)
(-0.740933 0.173249 -0.220011)
(-0.688704 0.166509 -0.213827)
(-0.669487 0.144617 -0.216025)
(-0.707496 0.149231 -0.227569)
(-0.732239 0.174289 -0.236209)
(-0.747348 0.173312 -0.241851)
(-0.656234 0.140637 -0.248669)
(-0.605607 0.138699 -0.228375)
(-0.685908 0.150545 -0.259915)
(-0.723078 0.15234 -0.263986)
(-0.688991 0.160626 -0.23924)
(-0.610873 0.144316 -0.204077)
(-0.642442 0.141128 -0.239152)
(-0.621697 0.145715 -0.234864)
(-0.61965 0.148096 -0.209524)
(-0.415522 0.102466 -0.187117)
(-0.391804 0.117753 -0.181751)
(-0.374093 0.115761 -0.176333)
(-0.348984 0.122354 -0.168904)
(-0.505252 0.102419 -0.221104)
(-0.478195 0.107109 -0.203888)
(-0.397422 0.116196 -0.187324)
(-0.394624 0.134829 -0.191086)
(-0.378587 0.131031 -0.183333)
(-0.507949 0.0967754 -0.207515)
(-0.475291 0.107866 -0.199067)
(-0.391964 0.133064 -0.190617)
(-0.450691 0.12878 -0.210849)
(-0.501334 0.111232 -0.211349)
(-0.476812 0.129264 -0.21568)
(-0.837776 0.307476 -0.29007)
(-0.891663 0.262775 -0.334244)
(-0.815922 0.284505 -0.306431)
(-0.876677 0.277754 -0.326721)
(-0.855346 0.281971 -0.305377)
(-0.994223 0.224917 -0.378611)
(-0.981318 0.244275 -0.373223)
(-0.867625 0.276511 -0.312549)
(-0.835976 0.286228 -0.280223)
(-0.977631 0.23235 -0.334692)
(-0.952658 0.236727 -0.31991)
(-0.882419 0.269276 -0.273954)
(-0.828056 0.28251 -0.25354)
(-0.83245 0.271646 -0.282996)
(-0.805614 0.286531 -0.253184)
(-0.829557 0.266164 -0.262249)
(-0.772781 0.291646 -0.235827)
(-0.896754 0.266818 -0.328451)
(-0.865863 0.275092 -0.279305)
(-0.981638 0.202093 -0.355463)
(-0.975738 0.235745 -0.337066)
(-0.957829 0.235957 -0.329359)
(-0.879358 0.259711 -0.294248)
(-0.965153 0.235105 -0.352419)
(-0.972606 0.213484 -0.352267)
(-0.966624 0.229283 -0.332734)
(-0.45458 0.150359 -0.212518)
(-0.500654 0.134803 -0.224422)
(-0.503786 0.14615 -0.233347)
(-0.481506 0.151591 -0.222314)
(-0.418049 0.143921 -0.199199)
(-0.476659 0.134914 -0.211918)
(-0.390068 0.13669 -0.178332)
(-0.386287 0.140426 -0.187182)
(-0.385249 0.138428 -0.193874)
(-0.387928 0.14298 -0.196894)
(-0.514244 0.13689 -0.228973)
(-0.512708 0.12031 -0.213707)
(-0.397758 0.126554 -0.18058)
(-0.381297 0.143343 -0.188227)
(-0.439973 0.137003 -0.193715)
(-0.476155 0.120484 -0.197331)
(-0.504461 0.126217 -0.207708)
(-1.01793 0.1352 -0.393649)
(-0.930485 0.146969 -0.352531)
(-1.07011 0.1515 -0.417354)
(-0.999794 0.151513 -0.401645)
(-0.932891 0.149336 -0.371922)
(-0.894525 0.152004 -0.360139)
(-0.896825 0.137133 -0.342409)
(-0.94328 0.135952 -0.378611)
(-0.984344 0.142598 -0.395258)
(-1.06224 0.133713 -0.424278)
(-1.06337 0.124318 -0.417856)
(-1.0826 0.130121 -0.432914)
(-1.11362 0.121978 -0.440924)
(-1.02832 0.125344 -0.391142)
(-0.944847 0.129005 -0.358527)
(-1.00699 0.118806 -0.39492)
(-0.640311 0.24387 -0.107952)
(-0.622948 0.247164 -0.108826)
(-0.617621 0.22814 -0.113009)
(-0.587134 0.229854 -0.10776)
(-0.692148 0.274555 -0.121678)
(-0.63123 0.238268 -0.114105)
(-0.694842 0.27526 -0.129122)
(-0.766824 0.275601 -0.176101)
(-0.651982 0.232033 -0.118067)
(-0.663487 0.229594 -0.125003)
(-0.821661 0.274093 -0.215267)
(-0.787654 0.258634 -0.191138)
(-0.679006 0.208444 -0.163474)
(-0.623136 0.20596 -0.121143)
(-0.699089 0.235007 -0.15517)
(-0.775193 0.252101 -0.193194)
(-0.780361 0.219897 -0.200544)
(-0.704517 0.210559 -0.172729)
(-0.663251 0.195485 -0.149718)
(-0.805892 0.236164 -0.224755)
(-0.711946 0.213543 -0.155482)
(-0.736753 0.0645806 -0.234487)
(-0.837114 0.0505006 -0.32522)
(-0.826827 0.0417309 -0.325762)
(-0.733084 0.0369529 -0.262059)
(-0.773979 0.0293526 -0.288311)
(-0.807065 0.0496899 -0.293811)
(-0.806373 0.0797903 -0.266531)
(-0.795223 0.0693387 -0.2672)
(-0.784325 0.0422686 -0.311666)
(-0.713302 0.0371226 -0.268401)
(-0.719184 0.0476978 -0.252386)
(-0.843645 0.06786 -0.32199)
(-0.812682 0.0864573 -0.276836)
(-0.683514 0.0572211 -0.196055)
(-0.589148 0.0434368 -0.175184)
(-0.597589 0.0418785 -0.185545)
(-0.646132 0.0288575 -0.204342)
(-0.536205 0.0472558 -0.139767)
(-0.537505 0.0476827 -0.128527)
(-0.664614 0.0313972 -0.199681)
(-0.620449 0.0381599 -0.191732)
(-0.537254 0.040887 -0.136414)
(-0.732347 0.13397 -0.18347)
(-0.799241 0.148678 -0.21336)
(-0.758259 0.13069 -0.221092)
(-0.706288 0.112723 -0.214151)
(-0.680009 0.109017 -0.179361)
(-0.679703 0.107639 -0.190756)
(-0.678009 0.110866 -0.183539)
(-0.700781 0.126684 -0.195241)
(-0.681407 0.117931 -0.180733)
(-0.78357 0.148054 -0.205798)
(-0.741184 0.173527 -0.160164)
(-0.842574 0.157552 -0.243146)
(-0.794015 0.168837 -0.198148)
(-0.732029 0.111282 -0.223236)
(-0.82769 0.147181 -0.246498)
(-0.729044 0.115664 -0.204788)
(-0.679783 0.144812 -0.139803)
(-0.690001 0.163737 -0.132262)
(-0.62484 0.138359 -0.115501)
(-0.598044 0.146085 -0.104909)
(-0.597554 0.129214 -0.11825)
(-0.844099 0.172324 -0.243855)
(-0.801195 0.170188 -0.216057)
(-0.621133 0.148304 -0.114665)
(-0.68356 0.150037 -0.147627)
(-0.685144 0.162895 -0.125599)
(-0.752413 0.17595 -0.17637)
(-0.495917 0.212321 -0.233671)
(-0.505768 0.213103 -0.233526)
(-0.415587 0.228364 -0.214567)
(-0.42225 0.215775 -0.211248)
(-0.372126 0.183594 -0.198295)
(-0.36826 0.193471 -0.190094)
(-0.449169 0.152974 -0.218455)
(-0.504821 0.162309 -0.239156)
(-0.511841 0.181733 -0.244986)
(-0.40719 0.205982 -0.207045)
(-0.369056 0.202692 -0.184497)
(-0.364586 0.178874 -0.188861)
(-0.346631 0.194438 -0.178315)
(-0.432249 0.202496 -0.214424)
(-0.395914 0.193423 -0.193596)
(-0.388176 0.171989 -0.196334)
(-0.49669 0.0824308 -0.132471)
(-0.469748 0.0831858 -0.122737)
(-0.441984 0.081577 -0.130459)
(-0.616553 0.079238 -0.189572)
(-0.600213 0.08664 -0.174575)
(-0.445131 0.0815588 -0.145675)
(-0.41959 0.0737489 -0.134694)
(-0.465592 0.0750863 -0.153996)
(-0.459565 0.0700836 -0.136831)
(-0.534913 0.0701585 -0.170755)
(-0.500135 0.0704892 -0.168788)
(-0.496195 0.0762439 -0.13698)
(-0.495685 0.0653289 -0.144457)
(-0.997799 0.321214 -0.346566)
(-1.0021 0.339723 -0.352969)
(-0.957899 0.392826 -0.330568)
(-0.916477 0.359504 -0.31771)
(-0.872328 0.366226 -0.303402)
(-1.04141 0.305965 -0.389695)
(-0.989496 0.356663 -0.35219)
(-1.018 0.285374 -0.378463)
(-0.986491 0.268417 -0.359983)
(-1.00368 0.306804 -0.372785)
(-0.986028 0.288679 -0.370767)
(-0.908821 0.382245 -0.328553)
(-0.93161 0.372004 -0.342816)
(-1.02855 0.296932 -0.379634)
(-0.995209 0.347359 -0.342416)
(-0.958086 0.365007 -0.3258)
(-0.973418 0.335674 -0.363416)
(-0.919704 0.396057 -0.319123)
(-0.903925 0.398066 -0.311238)
(-1.03779 0.336528 -0.382941)
(-1.02858 0.360271 -0.38372)
(-1.0446 0.310692 -0.395918)
(-0.616687 0.106001 -0.277233)
(-0.606453 0.11248 -0.271181)
(-0.559386 0.129241 -0.256605)
(-0.534941 0.137443 -0.251505)
(-0.625565 0.106923 -0.282455)
(-0.684447 0.130879 -0.294489)
(-0.708565 0.119771 -0.293988)
(-0.590617 0.180628 -0.245849)
(-0.621033 0.166178 -0.256577)
(-0.601704 0.173436 -0.24577)
(-0.608617 0.132428 -0.266614)
(-0.672365 0.162049 -0.27761)
(-0.839524 0.289478 -0.304123)
(-0.940417 0.290224 -0.359321)
(-0.886811 0.289444 -0.338201)
(-0.925622 0.291501 -0.339626)
(-0.865508 0.298038 -0.323797)
(-0.81451 0.29794 -0.302268)
(-0.932181 0.296924 -0.347974)
(-0.887933 0.310345 -0.317719)
(-1.01053 0.265791 -0.39495)
(-0.982863 0.283925 -0.37276)
(-1.01061 0.262184 -0.403463)
(-0.828712 0.316881 -0.294262)
(-0.936889 0.308131 -0.339033)
(-0.928052 0.320586 -0.339362)
(-0.950408 0.300301 -0.361735)
(-0.760658 0.310997 -0.275975)
(-0.905599 0.333825 -0.321478)
(-0.863675 0.319246 -0.32352)
(-0.900398 0.320659 -0.330751)
(-0.469396 0.115479 -0.188301)
(-0.473222 0.113335 -0.186894)
(-0.411846 0.112919 -0.16993)
(-0.402915 0.113289 -0.174589)
(-0.421431 0.100427 -0.152107)
(-0.455786 0.0924259 -0.161291)
(-0.419135 0.0877332 -0.167344)
(-0.454532 0.0856519 -0.152594)
(-0.440006 0.0952383 -0.146991)
(-0.384562 0.10127 -0.146733)
(-0.498771 0.100607 -0.186638)
(-0.493275 0.110583 -0.195821)
(-0.39232 0.102281 -0.150945)
(-0.477757 0.0928728 -0.178397)
(-0.405165 0.0933022 -0.158212)
(-0.375181 0.11158 -0.167537)
(-0.351485 0.102007 -0.152916)
(-0.379807 0.0951733 -0.152576)
(-0.399578 0.108218 -0.172845)
(-0.473408 0.104823 -0.193972)
(-0.840275 0.0990773 -0.340271)
(-0.860508 0.0954197 -0.349405)
(-0.763291 0.095178 -0.315052)
(-0.75304 0.0925609 -0.309522)
(-0.731657 0.0834271 -0.299015)
(-0.908221 0.0953318 -0.368383)
(-0.89925 0.104519 -0.367185)
(-0.868459 0.0901151 -0.355048)
(-0.859745 0.0789868 -0.362943)
(-0.799738 0.0984882 -0.322875)
(-0.767488 0.0948159 -0.313284)
(-0.803581 0.0841607 -0.321353)
(-0.801928 0.0710239 -0.322575)
(-0.877035 0.103044 -0.359016)
(-0.827015 0.110859 -0.334039)
(-0.816104 0.0911407 -0.324778)
(-0.85491 0.102404 -0.343587)
(-0.758371 0.329823 -0.174391)
(-0.715355 0.330303 -0.161084)
(-0.76224 0.324516 -0.181704)
(-0.796309 0.315243 -0.190424)
(-0.874123 0.293007 -0.245217)
(-0.904537 0.307237 -0.271127)
(-0.902509 0.29198 -0.278738)
(-0.894063 0.304468 -0.275355)
(-0.81551 0.32879 -0.214817)
(-0.898274 0.302405 -0.285633)
(-0.830298 0.337004 -0.237466)
(-0.820165 0.326731 -0.22188)
(-0.759891 0.354621 -0.19423)
(-0.830634 0.35724 -0.230973)
(-0.559012 -0.0182864 -0.205618)
(-0.571511 -0.0223761 -0.206673)
(-0.531172 -0.0121687 -0.199139)
(-0.544042 -0.0198239 -0.21297)
(-0.508852 -0.0175366 -0.163455)
(-0.509028 -0.0213686 -0.172493)
(-0.502313 -0.00976925 -0.167472)
(-0.47489 -0.00728167 -0.177615)
(-0.463522 -0.0108719 -0.178789)
(-0.44351 -0.00898694 -0.166784)
(-0.481527 -0.0115842 -0.146314)
(-0.476972 -0.0171157 -0.159192)
(-0.445478 -0.00553975 -0.157227)
(-0.458928 -0.0148147 -0.162876)
(-0.416157 -0.00552239 -0.147249)
(-0.43684 -0.00624571 -0.134691)
(-0.392126 -0.00122418 -0.123914)
(-1.04509 -0.00193785 -0.452535)
(-1.01478 -0.010697 -0.439587)
(-1.04315 0.0181879 -0.434702)
(-1.04645 0.0144611 -0.435791)
(-1.00554 -0.00914577 -0.439348)
(-0.999861 -0.012252 -0.421068)
(-0.98356 -0.0178728 -0.425783)
(-0.90879 -0.00885245 -0.398095)
(-0.89143 -0.0118176 -0.39848)
(-0.972901 0.0133039 -0.397578)
(-0.984189 0.0294025 -0.407038)
(-0.863988 -0.0206292 -0.391737)
(-0.925228 -0.0119304 -0.409033)
(-0.871823 -0.0129928 -0.38576)
(-0.907053 -0.00473056 -0.397316)
(-0.75069 0.0745296 -0.206817)
(-0.765554 0.0894523 -0.197825)
(-0.671039 0.110058 -0.129456)
(-0.599561 0.102556 -0.103702)
(-0.61933 0.0594572 -0.126565)
(-0.608057 0.0659435 -0.112739)
(-0.62577 0.0783667 -0.123782)
(-0.580298 0.0817146 -0.101162)
(-0.623919 0.0895743 -0.116033)
(-0.604532 0.0938517 -0.105143)
(-0.762712 0.0539888 -0.230955)
(-0.746487 0.0651166 -0.19743)
(-0.672743 0.113279 -0.127966)
(-0.716888 0.114653 -0.148245)
(-0.771098 0.0861035 -0.205936)
(-0.67645 0.0905376 -0.140485)
(-0.641866 0.0711727 -0.124376)
(-0.648458 0.0666902 -0.138055)
(-0.566399 0.0959825 -0.0934288)
(-0.651932 0.072832 -0.139398)
(-0.60844 0.0925422 -0.110075)
(-0.732056 0.0832583 -0.182314)
(-0.74892 0.0743498 -0.200646)
(-0.688679 0.109316 -0.144394)
(-0.421837 0.134682 -0.170879)
(-0.366952 0.134053 -0.161)
(-0.397079 0.147971 -0.181422)
(-0.49798 0.139488 -0.190676)
(-0.472785 0.144652 -0.181878)
(-0.405873 0.13011 -0.161925)
(-0.330349 0.137799 -0.147136)
(-0.372682 0.147983 -0.177378)
(-0.338029 0.140876 -0.163787)
(-0.454515 0.150158 -0.18884)
(-0.50199 0.147327 -0.186578)
(-0.50697 0.154211 -0.199376)
(-0.364464 0.145386 -0.182536)
(-0.396758 0.14176 -0.170564)
(-0.492317 0.152415 -0.204767)
(-0.485423 0.163208 -0.186177)
(-0.485648 0.158375 -0.194127)
(-0.380017 0.15488 -0.190604)
(-0.454054 0.156459 -0.1995)
(-0.547948 0.000916985 -0.131432)
(-0.513589 -0.000118356 -0.125859)
(-0.565297 -0.00283464 -0.143401)
(-0.590947 -0.00434294 -0.148783)
(-0.566121 -0.00592731 -0.1476)
(-0.525713 -0.0174897 -0.145985)
(-0.506767 -0.0171168 -0.134377)
(-0.517399 -0.0108886 -0.136371)
(-0.504689 -0.0117341 -0.131153)
(-0.512634 -0.0065901 -0.132206)
(-0.485204 -0.00434009 -0.124024)
(-0.641026 -0.0189653 -0.203636)
(-0.668184 -0.0223079 -0.213547)
(-0.584521 -0.00976956 -0.15917)
(-0.553465 -0.0271512 -0.157593)
(-0.546697 -0.0233773 -0.163941)
(-0.535691 -0.0218966 -0.150969)
(-0.516237 -0.0116415 -0.13998)
(-0.662752 -0.0316191 -0.220098)
(-0.655667 -0.0390926 -0.220062)
(-0.665084 -0.0353784 -0.226133)
(-0.640107 -0.0285016 -0.208912)
(-0.635557 0.0897431 -0.13889)
(-0.61258 0.105735 -0.136281)
(-0.677069 0.105697 -0.162616)
(-0.940095 0.0956326 -0.257821)
(-0.910217 0.0878461 -0.274674)
(-0.905774 0.0907501 -0.243624)