/*--------------------------------*- C++ -*----------------------------------*\
| =========                 |                                                 |
| \\      /  F ield         | OpenFOAM: The Open Source CFD Toolbox           |
|  \\    /   O peration     | Version:  v1612+                                |
|   \\  /    A nd           | Web:      www.OpenFOAM.com                      |
|    \\/     M anipulation  |                                                 |
\*---------------------------------------------------------------------------*/
FoamFile
{
    version     2.0;
    format      ascii;
    class       volScalarField;
    location    "50";
    object      p;
}
// * * * * * * * * * * * * * * * * * * * * * * * * * * * * * * * * * * * * * //

dimensions      [0 2 -2 0 0 0 0];

internalField   nonuniform List<scalar> 
16982
(
3.60578
3.62712
3.66532
3.62215
3.62205
3.60512
3.59918
3.60122
3.59898
3.59555
3.59927
3.59843
3.59785
3.60423
3.59961
3.59263
3.59768
3.60357
3.60025
3.59779
3.6053
3.60072
3.59411
3.59326
3.59176
3.59647
3.59803
3.59171
3.67597
3.67199
3.67226
3.67017
3.67293
3.67408
3.67657
3.67268
3.67525
3.67648
3.67726
3.67516
3.67404
3.59948
3.59512
3.59149
3.59213
3.59254
3.59207
3.59421
3.58941
3.592
3.5922
3.58999
3.58967
3.59456
3.59516
3.59995
3.59173
3.59204
3.69958
3.7043
3.7016
3.70447
3.70588
3.70404
3.69888
3.69967
3.70686
3.70924
3.70812
3.70181
3.70137
3.70616
3.70983
3.70621
3.61631
3.61683
3.62178
3.62172
3.62098
3.62309
3.62135
3.62283
3.62093
3.62009
3.62892
3.61883
3.63123
3.62624
3.62433
3.62402
3.6294
3.62187
3.67129
3.67379
3.67849
3.67879
3.67172
3.6668
3.67922
3.66676
3.6665
3.67125
3.67683
3.66986
3.66801
3.6706
3.66719
3.66635
3.66889
3.67003
3.60482
3.60109
3.60702
3.6033
3.60488
3.60525
3.602
3.59919
3.60665
3.60692
3.60502
3.607
3.59782
3.5995
3.60499
3.60184
3.6293
3.62782
3.62426
3.61938
3.63274
3.62675
3.62774
3.62133
3.6288
3.6298
3.63045
3.62902
3.62704
3.70784
3.70875
3.71215
3.70143
3.70451
3.70029
3.69994
3.71285
3.71181
3.70259
3.70307
3.70979
3.70293
3.71103
3.70883
3.7079
3.61284
3.60463
3.60826
3.60843
3.61191
3.60612
3.61508
3.61034
3.60895
3.61031
3.61364
3.60542
3.60749
3.60842
3.59582
3.59652
3.59266
3.59253
3.59528
3.5943
3.59834
3.60144
3.59707
3.59792
3.5887
3.59615
3.599
3.62776
3.6274
3.63514
3.63593
3.62848
3.63118
3.63356
3.63473
3.62788
3.63476
3.62712
3.63248
3.6297
3.6298
3.60508
3.61239
3.61011
3.61954
3.61654
3.62292
3.62153
3.6146
3.61453
3.61067
3.62339
3.61108
3.6013
3.60063
3.59284
3.59497
3.60039
3.6054
3.59755
3.59904
3.59693
3.59838
3.60273
3.59742
3.59746
3.59565
3.59522
3.59769
3.59795
3.5942
3.59604
3.59627
3.59722
3.59423
3.65875
3.65762
3.65344
3.65691
3.65677
3.65931
3.6545
3.65159
3.65757
3.6499
3.65793
3.70454
3.70675
3.71324
3.70934
3.71022
3.70667
3.70611
3.70956
3.70697
3.70556
3.70643
3.71174
3.7137
3.70748
3.71129
3.70806
3.70916
3.71374
3.70841
3.70886
3.70685
3.70772
3.71351
3.71618
3.7168
3.71764
3.70868
3.71301
3.71163
3.71464
3.71331
3.71413
3.71341
3.70772
3.71045
3.7065
3.7079
3.70698
3.7113
3.71236
3.70997
3.71399
3.70782
3.60389
3.6047
3.601
3.60023
3.60738
3.6061
3.5998
3.60111
3.60083
3.60634
3.60874
3.60045
3.60343
3.60708
3.60429
3.60014
3.60419
3.60435
3.60956
3.59134
3.59057
3.59123
3.58952
3.58693
3.58855
3.59147
3.59369
3.5902
3.59369
3.59464
3.59802
3.60051
3.59858
3.59769
3.59736
3.61702
3.62233
3.62115
3.62185
3.61889
3.62506
3.62356
3.62041
3.6181
3.62702
3.62344
3.69529
3.69354
3.69234
3.6938
3.69492
3.69225
3.68938
3.69629
3.69251
3.6902
3.68918
3.69104
3.69984
3.697
3.6953
3.6961
3.69587
3.69902
3.69334
3.65271
3.6522
3.65237
3.64427
3.64816
3.64713
3.65511
3.66325
3.66293
3.66008
3.66301
3.66864
3.66653
3.65507
3.65419
3.65871
3.6474
3.64265
3.64977
3.64771
3.64695
3.66693
3.66005
3.64949
3.65046
3.66239
3.66366
3.67457
3.67127
3.65935
3.67212
3.66872
3.6685
3.66076
3.66716
3.67083
3.66801
3.66339
3.67247
3.66282
3.6715
3.66665
3.67767
3.67692
3.66712
3.6754
3.6743
3.66907
3.66813
3.67519
3.67664
3.61153
3.61075
3.61403
3.61921
3.61222
3.61287
3.6095
3.61
3.6083
3.6149
3.61091
3.61494
3.6037
3.6086
3.6044
3.60489
3.60903
3.60943
3.6092
3.61
3.60958
3.6105
3.61234
3.61729
3.61499
3.61756
3.61362
3.67488
3.6777
3.67651
3.67644
3.68253
3.68281
3.68108
3.65094
3.6533
3.658
3.65727
3.64869
3.65613
3.65577
3.65116
3.66151
3.66272
3.66399
3.66129
3.6618
3.65313
3.65192
3.65934
3.65363
3.65646
3.70184
3.70008
3.69633
3.69723
3.70269
3.70445
3.70518
3.70128
3.70154
3.70023
3.70149
3.70004
3.69608
3.6958
3.70346
3.70478
3.70463
3.70131
3.699
3.69195
3.7001
3.62079
3.62152
3.62154
3.6194
3.62234
3.62703
3.61254
3.61598
3.61739
3.61876
3.62152
3.62158
3.62067
3.62084
3.62045
3.61832
3.61834
3.61491
3.61601
3.6411
3.64387
3.64453
3.64265
3.64598
3.65153
3.65242
3.65643
3.65343
3.65053
3.64603
3.64905
3.6522
3.64738
3.65352
3.66067
3.65894
3.659
3.65264
3.65214
3.6526
3.6563
3.65804
3.65268
3.6482
3.65353
3.65753
3.65273
3.66032
3.65681
3.6582
3.66051
3.65189
3.65615
3.65051
3.65023
3.65303
3.65817
3.65554
3.65771
3.65814
3.65972
3.65432
3.63198
3.62501
3.62678
3.63114
3.62516
3.63101
3.61994
3.62438
3.62103
3.63119
3.62969
3.62484
3.6257
3.63041
3.62759
3.6267
3.62814
3.62663
3.62516
3.6325
3.70488
3.69947
3.70215
3.70042
3.69887
3.70366
3.70888
3.70754
3.69873
3.70191
3.69692
3.69874
3.69533
3.69749
3.69537
3.69391
3.7068
3.70597
3.69169
3.70259
3.65223
3.6521
3.66119
3.65296
3.65527
3.65535
3.654
3.66115
3.65894
3.65718
3.651
3.6577
3.66224
3.66425
3.66412
3.65499
3.65782
3.6604
3.71893
3.68719
3.68388
3.68577
3.68536
3.68998
3.69093
3.69016
3.69041
3.68244
3.68175
3.68883
3.68851
3.68881
3.68767
3.69068
3.68247
3.68729
3.67855
3.68267
3.68263
3.68132
3.65376
3.65442
3.65449
3.65012
3.64529
3.6596
3.65465
3.65229
3.66132
3.66112
3.65847
3.66232
3.65083
3.65364
3.64859
3.66192
3.65808
3.66225
3.65792
3.66076
3.65785
3.5903
3.59342
3.59091
3.59333
3.58415
3.58555
3.59577
3.59207
3.59244
3.58935
3.59118
3.63866
3.63023
3.62496
3.63249
3.63343
3.63104
3.63163
3.62506
3.62321
3.62852
3.62622
3.63243
3.62881
3.6262
3.62931
3.63401
3.61756
3.61842
3.62228
3.63089
3.62945
3.61995
3.62424
3.62284
3.60789
3.61814
3.61755
3.62263
3.69419
3.69252
3.69338
3.68888
3.68798
3.69488
3.68683
3.68845
3.68461
3.69372
3.68674
3.68909
3.68985
3.68736
3.69514
3.69296
3.69597
3.69382
3.7004
3.70233
3.70513
3.70782
3.6976
3.69792
3.69851
3.70147
3.69902
3.70374
3.70039
3.69798
3.69961
3.6972
3.68172
3.6821
3.67721
3.67872
3.68465
3.68412
3.67506
3.68138
3.68248
3.67862
3.68635
3.68019
3.68629
3.68622
3.68782
3.68852
3.68391
3.68195
3.68975
3.67919
3.68452
3.6812
3.68278
3.69096
3.69437
3.68774
3.68341
3.69634
3.68779
3.69206
3.69511
3.6891
3.65715
3.65996
3.65512
3.64801
3.65746
3.65558
3.65502
3.65374
3.65384
3.65625
3.65514
3.65724
3.65295
3.65372
3.65115
3.6529
3.648
3.64537
3.68998
3.68865
3.69651
3.69892
3.69512
3.69208
3.69121
3.69331
3.69746
3.69459
3.69511
3.69055
3.68808
3.6988
3.69478
3.69383
3.61698
3.62062
3.61934
3.62413
3.61733
3.62197
3.617
3.61948
3.61396
3.61401
3.61744
3.61494
3.62036
3.61847
3.6218
3.62425
3.62271
3.61388
3.6091
3.61972
3.61944
3.62163
3.61449
3.61603
3.60728
3.60933
3.61069
3.60663
3.60956
3.60467
3.60663
3.60157
3.60552
3.60864
3.61166
3.61152
3.6076
3.60909
3.60926
3.61106
3.61053
3.61083
3.60814
3.60759
3.61014
3.60713
3.70733
3.70628
3.70682
3.70979
3.705
3.70664
3.70511
3.70499
3.70553
3.63062
3.63144
3.63114
3.63132
3.63311
3.6349
3.63389
3.63692
3.63496
3.63684
3.65707
3.65515
3.6572
3.6549
3.6598
3.66084
3.65399
3.64841
3.65808
3.6603
3.649
3.65183
3.6558
3.59693
3.60453
3.59646
3.59846
3.59693
3.59379
3.60025
3.59662
3.60048
3.60086
3.5929
3.59767
3.59701
3.59852
3.5978
3.5967
3.60243
3.60409
3.61128
3.61565
3.61224
3.61059
3.608
3.61318
3.61754
3.61167
3.61159
3.61537
3.60773
3.61087
3.60635
3.60992
3.614
3.60859
3.60724
3.63426
3.63514
3.62487
3.63087
3.6237
3.63003
3.62683
3.63415
3.63068
3.62673
3.62911
3.62795
3.62989
3.63411
3.63473
3.63065
3.63178
3.6339
3.58876
3.58774
3.58792
3.58404
3.59087
3.594
3.59965
3.5985
3.58784
3.59339
3.59473
3.59474
3.59748
3.58519
3.58774
3.59492
3.59179
3.58819
3.59811
3.59015
3.59406
3.59467
3.58544
3.589
3.5884
3.59377
3.58983
3.59517
3.59265
3.5934
3.59295
3.59281
3.60129
3.59965
3.59096
3.59011
3.59204
3.59105
3.59704
3.59806
3.60128
3.6009
3.60238
3.6018
3.59873
3.5984
3.60885
3.60506
3.60241
3.60039
3.60254
3.59675
3.60652
3.61211
3.60697
3.60595
3.60749
3.60404
3.6045
3.60474
3.60403
3.60886
3.60899
3.60874
3.6068
3.61208
3.61757
3.61128
3.61136
3.61667
3.61747
3.61032
3.61134
3.61252
3.61564
3.61339
3.60971
3.61148
3.61448
3.61374
3.61221
3.61383
3.6213
3.62328
3.621
3.61836
3.61406
3.61965
3.62089
3.61153
3.62667
3.62438
3.62533
3.62716
3.63298
3.62783
3.62403
3.6233
3.62045
3.62802
3.62481
3.62965
3.62816
3.62269
3.63055
3.62414
3.63044
3.6352
3.63526
3.62797
3.62736
3.62934
3.63022
3.63553
3.62527
3.63884
3.64527
3.64072
3.64561
3.63668
3.63444
3.64241
3.63611
3.63565
3.63077
3.64536
3.64261
3.6378
3.65043
3.642
3.64298
3.64304
3.64224
3.65274
3.64507
3.64458
3.64295
3.64199
3.63848
3.65438
3.6473
3.6498
3.64681
3.6449
3.64095
3.63524
3.65125
3.65262
3.65658
3.65749
3.66757
3.66162
3.66114
3.66219
3.65648
3.65818
3.6595
3.66231
3.6687
3.66542
3.65934
3.65805
3.65832
3.67976
3.67619
3.6733
3.67488
3.66857
3.67132
3.67368
3.67152
3.67095
3.67333
3.67268
3.67037
3.6671
3.67317
3.67895
3.6848
3.68085
3.67471
3.67637
3.69002
3.68924
3.68631
3.69328
3.69032
3.68597
3.68617
3.68632
3.6864
3.69058
3.68877
3.69063
3.68923
3.68562
3.68735
3.70039
3.70182
3.69974
3.69979
3.70544
3.70901
3.6977
3.69864
3.69798
3.69799
3.70551
3.704
3.70571
3.70772
3.7098
3.70573
3.71014
3.7019
3.60103
3.59608
3.59811
3.59354
3.59863
3.59889
3.59678
3.59388
3.60181
3.59779
3.59198
3.60098
3.59923
3.60074
3.59637
3.59831
3.59069
3.59369
3.59595
3.59191
3.59699
3.59058
3.59369
3.59619
3.5835
3.59066
3.59238
3.5961
3.59355
3.58905
3.60391
3.60256
3.59795
3.60092
3.60053
3.60046
3.60684
3.60002
3.59865
3.60669
3.60224
3.59833
3.59434
3.59838
3.59648
3.59855
3.59209
3.59168
3.59153
3.59529
3.59802
3.71233
3.7088
3.70678
3.71045
3.71144
3.69836
3.70152
3.70292
3.70244
3.69523
3.70361
3.70304
3.7004
3.70336
3.69577
3.70173
3.69593
3.69758
3.70663
3.70836
3.69994
3.70376
3.70087
3.69866
3.71001
3.69617
3.70333
3.7007
3.70403
3.70304
3.70776
3.70378
3.70441
3.70129
3.70463
3.70765
3.69572
3.70149
3.69568
3.69957
3.69766
3.70135
3.70202
3.69681
3.6974
3.70946
3.69991
3.69943
3.70476
3.70279
3.70039
3.70075
3.68713
3.68293
3.69025
3.70202
3.70709
3.69317
3.698
3.69962
3.68734
3.69672
3.70114
3.70026
3.68745
3.69022
3.69453
3.69519
3.69512
3.69455
3.69871
3.69767
3.69576
3.69069
3.69524
3.69727
3.70092
3.70475
3.70769
3.70646
3.70305
3.69543
3.69374
3.69798
3.69536
3.701
3.69395
3.68749
3.69515
3.69009
3.70043
3.69854
3.6967
3.69534
3.71079
3.706
3.70392
3.70523
3.70769
3.70751
3.70297
3.70001
3.6946
3.69466
3.70333
3.70057
3.68614
3.68463
3.69435
3.69294
3.68997
3.68744
3.68367
3.67706
3.68577
3.67848
3.6802
3.68297
3.68534
3.67677
3.6735
3.68047
3.67699
3.67286
3.6797
3.68538
3.68774
3.68297
3.68193
3.68061
3.68439
3.68646
3.68573
3.68579
3.67853
3.68655
3.68725
3.68195
3.68581
3.67882
3.67755
3.67833
3.68175
3.68714
3.68857
3.68782
3.68093
3.6807
3.67756
3.67846
3.67181
3.67447
3.68368
3.67887
3.68505
3.68498
3.67844
3.67798
3.68581
3.68213
3.68622
3.6913
3.69342
3.69243
3.69232
3.66986
3.67968
3.67906
3.68337
3.6938
3.69151
3.69537
3.69168
3.68928
3.68437
3.68164
3.68376
3.68161
3.68088
3.67687
3.68463
3.67884
3.67718
3.69006
3.68232
3.68574
3.69014
3.6893
3.6751
3.67371
3.6844
3.67718
3.68185
3.6839
3.6921
3.69346
3.69423
3.69677
3.69342
3.69839
3.68989
3.68229
3.68926
3.68662
3.68576
3.68698
3.68946
3.69188
3.69161
3.69453
3.69039
3.69245
3.68146
3.6834
3.68715
3.65981
3.66127
3.66979
3.67444
3.67185
3.66697
3.67355
3.66951
3.66922
3.66369
3.67916
3.67272
3.67218
3.67507
3.678
3.6777
3.66653
3.67123
3.66512
3.66837
3.68791
3.68261
3.68201
3.67101
3.6667
3.67562
3.6766
3.66748
3.69054
3.68491
3.6949
3.68793
3.69838
3.69608
3.68777
3.6837
3.65491
3.65828
3.66107
3.66486
3.65913
3.66132
3.66138
3.65777
3.66287
3.65682
3.66509
3.66894
3.66499
3.6647
3.6653
3.66399
3.6641
3.67316
3.67603
3.6776
3.67097
3.66653
3.6653
3.66489
3.67184
3.66945
3.66628
3.66943
3.66662
3.66578
3.65931
3.65945
3.66782
3.67102
3.66874
3.66561
3.68348
3.67491
3.6758
3.68107
3.68496
3.67835
3.68596
3.68545
3.67087
3.66965
3.66855
3.66724
3.66444
3.67599
3.66805
3.67251
3.66832
3.67219
3.66845
3.66828
3.67868
3.67893
3.67795
3.67677
3.67395
3.66734
3.66064
3.66665
3.66657
3.66355
3.66133
3.66284
3.67635
3.67162
3.67433
3.67273
3.67827
3.67285
3.67168
3.66472
3.66117
3.66207
3.67093
3.66616
3.66852
3.66604
3.66384
3.6668
3.6705
3.68153
3.68207
3.6802
3.67587
3.68051
3.67687
3.67753
3.67463
3.66644
3.67099
3.66586
3.66777
3.6679
3.66601
3.66759
3.67232
3.6724
3.66528
3.66651
3.67163
3.66462
3.65895
3.66509
3.65819
3.65174
3.64588
3.64647
3.65261
3.65436
3.65511
3.65577
3.65653
3.65802
3.66378
3.66333
3.65343
3.65279
3.66611
3.66085
3.66062
3.665
3.66701
3.66155
3.65795
3.66038
3.65804
3.64229
3.65426
3.65477
3.65497
3.64863
3.6549
3.65781
3.66833
3.66278
3.65625
3.65521
3.65914
3.65982
3.66126
3.65544
3.65415
3.65829
3.65643
3.65811
3.65276
3.65485
3.66784
3.66108
3.65434
3.6558
3.66303
3.66152
3.65099
3.64526
3.65501
3.65556
3.65444
3.65336
3.65205
3.65352
3.64578
3.65467
3.65349
3.64646
3.64715
3.64781
3.65549
3.65393
3.64684
3.64744
3.65609
3.65322
3.65065
3.65351
3.65517
3.65713
3.65193
3.66387
3.6569
3.65572
3.65536
3.66562
3.66536
3.65933
3.66179
3.66113
3.66322
3.63581
3.64788
3.6484
3.64757
3.64065
3.64394
3.64831
3.6488
3.65083
3.64451
3.64519
3.64727
3.64672
3.63611
3.63774
3.63075
3.63293
3.64226
3.63893
3.65103
3.64813
3.65078
3.65284
3.65544
3.65433
3.64504
3.64424
3.63434
3.64211
3.63722
3.64857
3.64903
3.6499
3.64261
3.64528
3.64499
3.64634
3.65216
3.65552
3.65612
3.64948
3.64755
3.65381
3.64971
3.64642
3.64327
3.63935
3.63846
3.64692
3.64583
3.6325
3.62983
3.62635
3.63964
3.63341
3.6382
3.63641
3.64869
3.64213
3.65248
3.65232
3.64771
3.64479
3.64032
3.64005
3.63671
3.63252
3.63591
3.64157
3.63834
3.64136
3.64323
3.64275
3.64078
3.63751
3.64068
3.64165
3.64274
3.63678
3.6414
3.64299
3.65416
3.6531
3.64526
3.65338
3.65243
3.6509
3.64585
3.64988
3.64305
3.6432
3.65127
3.65126
3.64397
3.64799
3.64614
3.64235
3.63303
3.63929
3.63658
3.64465
3.64522
3.63228
3.63006
3.642
3.63897
3.64012
3.63184
3.64233
3.63211
3.64065
3.63812
3.64064
3.64041
3.6423
3.64562
3.6542
3.65174
3.64384
3.64458
3.63016
3.63229
3.63253
3.63782
3.63537
3.6321
3.63268
3.6303
3.6457
3.64186
3.63829
3.63599
3.63892
3.63501
3.64571
3.64602
3.64519
3.63005
3.6264
3.63255
3.6324
3.63029
3.6343
3.63214
3.62589
3.62599
3.62723
3.6231
3.62637
3.64403
3.63731
3.64084
3.6376
3.6315
3.63857
3.6357
3.63926
3.64024
3.64217
3.63965
3.63869
3.62629
3.63222
3.62767
3.63614
3.64099
3.63209
3.63204
3.63384
3.63617
3.63955
3.64015
3.64049
3.64664
3.64318
3.64506
3.65323
3.6501
3.6488
3.64633
3.64937
3.65241
3.63565
3.6404
3.63329
3.62956
3.63804
3.63597
3.64101
3.63927
3.63586
3.63598
3.62357
3.62351
3.62725
3.62565
3.6199
3.62779
3.63057
3.62494
3.62568
3.63175
3.62998
3.62909
3.62638
3.62828
3.62708
3.62219
3.62108
3.62659
3.63541
3.63159
3.62786
3.63447
3.63171
3.61791
3.61449
3.62262
3.62682
3.62553
3.62295
3.62495
3.62394
3.63199
3.63012
3.62849
3.62752
3.62504
3.62818
3.62564
3.62422
3.62046
3.62215
3.63239
3.62375
3.62539
3.62076
3.62181
3.62782
3.62272
3.6242
3.6172
3.61623
3.62601
3.61541
3.61452
3.622
3.61997
3.6265
3.62411
3.62165
3.61323
3.62119
3.61998
3.62205
3.62694
3.62473
3.61435
3.61667
3.62797
3.62538
3.62836
3.62717
3.62675
3.62373
3.63284
3.63139
3.62681
3.62993
3.62819
3.62952
3.62519
3.62133
3.6244
3.61465
3.6191
3.61788
3.62045
3.61025
3.61453
3.62123
3.62179
3.62349
3.62161
3.62379
3.62067
3.62447
3.62645
3.61755
3.6213
3.62264
3.63396
3.62818
3.62371
3.62887
3.62608
3.62884
3.62893
3.62528
3.62021
3.61897
3.61954
3.61974
3.6259
3.6244
3.62354
3.63044
3.632
3.62757
3.63521
3.63414
3.63465
3.63414
3.63768
3.63516
3.62251
3.62489
3.62142
3.62596
3.6244
3.62275
3.62375
3.62299
3.62037
3.62049
3.61709
3.61257
3.62323
3.62225
3.63351
3.63558
3.63481
3.61098
3.60973
3.62717
3.6151
3.61861
3.61707
3.62265
3.62585
3.62294
3.61777
3.61959
3.61485
3.61304
3.61158
3.61863
3.61233
3.61184
3.61218
3.61406
3.6187
3.61321
3.61336
3.61261
3.61695
3.61539
3.61251
3.61399
3.62617
3.62132
3.61677
3.62427
3.62556
3.60941
3.61119
3.61192
3.61635
3.60709
3.60578
3.61525
3.61201
3.61058
3.60653
3.61916
3.61656
3.62034
3.62261
3.61301
3.61403
3.61411
3.61645
3.62174
3.61786
3.60719
3.61168
3.61076
3.60762
3.61502
3.60782
3.61072
3.61427
3.61205
3.6084
3.60616
3.60204
3.60977
3.61135
3.61403
3.62129
3.61464
3.61354
3.61594
3.61655
3.61065
3.61107
3.61687
3.61821
3.60921
3.60902
3.61142
3.61063
3.61073
3.61382
3.61109
3.61125
3.61584
3.60875
3.60932
3.62029
3.61678
3.61349
3.62319
3.61939
3.6206
3.59887
3.61037
3.60847
3.61232
3.60956
3.60771
3.61522
3.61912
3.61287
3.60839
3.60868
3.60791
3.61509
3.61018
3.60831
3.61142
3.60716
3.61207
3.61417
3.61467
3.60694
3.61085
3.60725
3.60759
3.60915
3.60336
3.60713
3.60614
3.59908
3.60015
3.5986
3.60722
3.60664
3.60669
3.59506
3.60362
3.60881
3.60095
3.6027
3.60206
3.59592
3.60324
3.60578
3.59814
3.60375
3.59866
3.6025
3.60216
3.6003
3.59578
3.6057
3.60143
3.59993
3.60248
3.60476
3.60912
3.60857
3.61038
3.60995
3.60692
3.60666
3.60485
3.60775
3.60823
3.6036
3.60416
3.59517
3.59727
3.60352
3.59947
3.60397
3.60064
3.60042
3.60878
3.60472
3.60393
3.61187
3.60597
3.61216
3.60961
3.61332
3.61026
3.61202
3.60755
3.60555
3.60709
3.60961
3.60715
3.60621
3.60822
3.60995
3.60972
3.61204
3.60791
3.60681
3.60672
3.59924
3.60084
3.60598
3.60888
3.5999
3.60247
3.6048
3.61036
3.60831
3.60679
3.61594
3.60858
3.60985
3.60711
3.60847
3.60097
3.60569
3.60193
3.5997
3.60112
3.60747
3.60121
3.60058
3.60108
3.60293
3.59979
3.59895
3.60031
3.60379
3.5942
3.59174
3.59847
3.59535
3.59597
3.59309
3.59713
3.59723
3.60095
3.59967
3.59328
3.59728
3.60297
3.59911
3.60655
3.60837
3.60523
3.60419
3.60864
3.61107
3.60927
3.59903
3.60529
3.59831
3.5999
3.60091
3.60435
3.6007
3.59885
3.59697
3.59922
3.60139
3.59835
3.59598
3.59781
3.5966
3.59958
3.60123
3.60234
3.59716
3.6071
3.6042
3.59504
3.59524
3.60022
3.60302
3.61106
3.60544
3.59919
3.60244
3.59974
3.59122
3.59119
3.59703
3.59729
3.60236
3.60437
3.59779
3.59819
3.59898
3.59576
3.59777
3.59642
3.59066
3.59758
3.589
3.58744
3.59414
3.59026
3.59119
3.59927
3.60257
3.59544
3.59632
3.59354
3.59332
3.59424
3.59989
3.59486
3.59083
3.59561
3.59314
3.59605
3.59687
3.59843
3.60477
3.60258
3.603
3.59465
3.59525
3.60069
3.59125
3.59216
3.59988
3.59962
3.59455
3.59224
3.59353
3.5909
3.59229
3.59029
3.58938
3.59156
3.59899
3.59074
3.59165
3.59462
3.59363
3.59302
3.59278
3.59469
3.5931
3.59288
3.59222
3.59966
3.59486
3.59232
3.59479
3.59021
3.59102
3.5885
3.59075
3.59033
3.59232
3.58902
3.5898
3.59245
3.59289
3.58784
3.58752
3.58399
3.59508
3.59054
3.58828
3.5944
3.59761
3.59335
3.59179
3.59055
3.59311
3.59341
3.59662
3.5954
3.591
3.58982
3.59064
3.59512
3.59127
3.59547
3.59495
3.59017
3.59231
3.59194
3.58956
3.60114
3.59712
3.59571
3.59379
3.59145
3.59085
3.58685
3.58812
3.59555
3.58537
3.59057
3.59554
3.59259
3.59233
3.59595
3.59276
3.59113
3.59392
3.59687
3.59821
3.60302
3.59634
3.59753
3.59492
3.59549
3.59684
3.59656
3.59727
3.59512
3.59521
3.59028
3.59033
3.5904
3.59507
3.58948
3.59248
3.59409
3.59478
3.59345
3.58955
3.59115
3.5884
3.59031
3.58876
3.59685
3.59195
3.60366
3.60101
3.60066
3.59745
3.594
3.59589
3.59252
3.5982
3.60357
3.59874
3.59786
3.60222
3.59539
3.59664
3.59771
3.59965
3.59727
3.5935
3.59452
3.60197
3.6064
3.60259
3.60544
3.59986
3.60806
3.60566
3.60061
3.6061
3.60472
3.60128
3.60067
3.59439
3.59682
3.58925
3.59519
3.59153
3.60541
3.60487
3.60693
3.60449
3.60201
3.60628
3.59564
3.60492
3.59938
3.6024
3.60247
3.59409
3.59394
3.60179
3.6044
3.59942
3.5981
3.59135
3.59732
3.59578
3.59532
3.59653
3.61009
3.60867
3.60592
3.60093
3.60933
3.60801
3.60476
3.60233
3.60609
3.6025
3.6021
3.60956
3.60816
3.60641
3.60821
3.62015
3.61709
3.61499
3.62047
3.61503
3.60906
3.61792
3.62072
3.61475
3.61138
3.6141
3.61374
3.60709
3.61548
3.61582
3.61834
3.61316
3.61481
3.61251
3.60876
3.60289
3.60059
3.60362
3.61753
3.61399
3.61522
3.61532
3.61253
3.61321
3.60604
3.61799
3.61481
3.6108
3.60864
3.60752
3.6115
3.61198
3.61427
3.61481
3.61717
3.61807
3.61504
3.61223
3.61946
3.6105
3.60566
3.61195
3.60966
3.60667
3.61112
3.60929
3.60569
3.60762
3.60418
3.60678
3.6128
3.61063
3.62471
3.63138
3.62472
3.62261
3.62316
3.61754
3.62089
3.62506
3.61116
3.61777
3.6164
3.61916
3.61745
3.61424
3.61237
3.61977
3.61805
3.61576
3.61244
3.61424
3.64022
3.63424
3.64167
3.64392
3.64949
3.63573
3.6337
3.64256
3.64301
3.63623
3.63756
3.63817
3.63767
3.61172
3.61497
3.6164
3.61589
3.61396
3.61641
3.60784
3.61723
3.61199
3.61187
3.61652
3.6417
3.64005
3.63375
3.62993
3.63462
3.63387
3.63661
3.63257
3.63383
3.63366
3.63528
3.62981
3.62515
3.62939
3.62342
3.62174
3.62624
3.62734
3.62676
3.62412
3.6246
3.62585
3.62276
3.62218
3.62243
3.61896
3.62126
3.62362
3.61827
3.61361
3.62153
3.62291
3.62963
3.62791
3.62931
3.62168
3.62379
3.62504
3.62323
3.6222
3.62707
3.62839
3.61761
3.62174
3.61404
3.61509
3.61505
3.61513
3.6298
3.63336
3.63354
3.63629
3.63587
3.63759
3.63892
3.63682
3.63065
3.62743
3.63199
3.63494
3.62699
3.62738
3.62405
3.63158
3.63426
3.63544
3.61971
3.62134
3.62387
3.62017
3.61642
3.62466
3.61759
3.61721
3.62167
3.62262
3.62358
3.62262
3.62671
3.62946
3.62564
3.6282
3.63613
3.63753
3.63649
3.6313
3.63304
3.62787
3.62961
3.62982
3.65445
3.65856
3.65803
3.6541
3.651
3.65731
3.65355
3.64469
3.64879
3.64284
3.65155
3.6469
3.65004
3.65562
3.65394
3.63357
3.6342
3.63127
3.62987
3.63287
3.62732
3.62407
3.63452
3.62775
3.63258
3.63332
3.63176
3.6307
3.63516
3.63156
3.62841
3.62926
3.62982
3.6293
3.63022
3.63161
3.64662
3.65038
3.6467
3.65743
3.65543
3.64878
3.64585
3.6405
3.63878
3.63136
3.63783
3.63889
3.6394
3.63907
3.6309
3.64079
3.63964
3.64139
3.63834
3.63445
3.64072
3.64061
3.63745
3.64378
3.64582
3.63913
3.63503
3.64545
3.6484
3.64166
3.63719
3.63922
3.63796
3.62504
3.62429
3.62936
3.6325
3.63219
3.63482
3.6374
3.62687
3.6286
3.63066
3.6332
3.65431
3.66119
3.66119
3.65664
3.6581
3.65486
3.64319
3.64015
3.64357
3.64914
3.64596
3.64713
3.64673
3.64941
3.64882
3.64508
3.65699
3.65494
3.64835
3.64512
3.63502
3.64064
3.64079
3.63756
3.63609
3.63763
3.63856
3.64646
3.64366
3.66831
3.66461
3.66957
3.66895
3.66171
3.665
3.64852
3.64227
3.64371
3.64522
3.65044
3.64877
3.64049
3.64404
3.65003
3.64634
3.66644
3.66148
3.66379
3.66538
3.68299
3.6814
3.67811
3.68713
3.68144
3.68358
3.66023
3.65938
3.67175
3.66524
3.66824
3.66636
3.66651
3.66821
3.6686
3.668
3.67376
3.67505
3.67483
3.67473
3.68382
3.68558
3.67972
3.67761
3.67235
3.68103
3.67339
3.67471
3.67004
3.66674
3.66726
3.68459
3.68273
3.66921
3.66929
3.64329
3.64705
3.65467
3.6438
3.65361
3.65273
3.65216
3.65059
3.65015
3.65289
3.67938
3.67919
3.68722
3.68465
3.68764
3.67562
3.68126
3.68338
3.68534
3.6868
3.6826
3.68349
3.67012
3.6779
3.6792
3.67684
3.67705
3.67609
3.6758
3.68871
3.69418
3.69546
3.68874
3.68444
3.69236
3.68853
3.69089
3.68332
3.68548
3.67062
3.6831
3.67982
3.68101
3.67418
3.67532
3.67784
3.68005
3.67765
3.67752
3.69295
3.69253
3.6907
3.68686
3.68725
3.68674
3.68368
3.67408
3.67425
3.67421
3.67628
3.67434
3.68098
3.68442
3.68839
3.68435
3.6842
3.67393
3.66834
3.66819
3.67095
3.67201
3.67427
3.67407
3.6812
3.68205
3.68086
3.6804
3.69092
3.68962
3.69122
3.68947
3.69226
3.69151
3.69704
3.69938
3.6917
3.6892
3.69485
3.69978
3.69811
3.68914
3.69239
3.70842
3.70748
3.70265
3.7003
3.6981
3.67378
3.6858
3.68642
3.68127
3.6788
3.67884
3.67537
3.68208
3.68309
3.67174
3.67843
3.67985
3.70327
3.70367
3.69739
3.69921
3.70119
3.69418
3.69915
3.6996
3.69771
3.6948
3.69528
3.69585
3.69682
3.69492
3.68802
3.69039
3.68748
3.69208
3.6937
3.6905
3.60514
3.60497
3.61231
3.60645
3.60563
3.60844
3.60147
3.59947
3.60226
3.60473
3.59793
3.59762
3.59959
3.60247
3.59936
3.59384
3.60407
3.59752
3.60338
3.59877
3.60447
3.60378
3.70131
3.69931
3.69946
3.69906
3.69383
3.69158
3.69635
3.70029
3.69904
3.70329
3.71017
3.70647
3.70528
3.7032
3.69865
3.70737
3.70313
3.70272
3.70626
3.69199
3.695
3.69336
3.68851
3.69203
3.68281
3.68334
3.69199
3.68899
3.68689
3.65619
3.64875
3.65995
3.64946
3.6525
3.656
3.65936
3.66354
3.66401
3.66338
3.66152
3.66088
3.65939
3.65991
3.65795
3.65486
3.65403
3.64606
3.65712
3.64959
3.6506
3.65236
3.65492
3.63567
3.64021
3.63917
3.6339
3.63746
3.63524
3.64413
3.64348
3.64301
3.6391
3.63805
3.63708
3.63868
3.63778
3.64392
3.62569
3.62428
3.62252
3.62447
3.62408
3.62906
3.62588
3.62306
3.62428
3.62747
3.70765
3.69791
3.70052
3.70638
3.70395
3.7057
3.70795
3.6037
3.60459
3.59957
3.60083
3.60539
3.59959
3.60313
3.60182
3.59935
3.60775
3.60651
3.6068
3.6084
3.67213
3.66878
3.66603
3.66563
3.66168
3.66821
3.67069
3.66479
3.66692
3.66696
3.59367
3.59715
3.6034
3.60164
3.60254
3.60161
3.60202
3.59896
3.60241
3.60226
3.60892
3.60151
3.60138
3.60752
3.60821
3.61056
3.60373
3.60894
3.6099
3.60669
3.60919
3.60386
3.60007
3.60783
3.6091
3.71174
3.70843
3.71345
3.70477
3.70748
3.7041
3.70805
3.70597
3.70477
3.71597
3.70523
3.70114
3.70494
3.71074
3.7085
3.70879
3.70866
3.70376
3.70003
3.70951
3.70927
3.71024
3.70932
3.69425
3.7019
3.69483
3.70258
3.70126
3.69887
3.70058
3.69592
3.69555
3.69937
3.70531
3.70454
3.70187
3.6995
3.70893
3.70459
3.70817
3.70564
3.70256
3.70337
3.70226
3.70281
3.7037
3.70228
3.70618
3.69654
3.70043
3.71141
3.71036
3.70643
3.70277
3.69997
3.6857
3.69317
3.69
3.69634
3.69476
3.68625
3.6848
3.68754
3.695
3.69686
3.69011
3.694
3.68472
3.68383
3.68458
3.68507
3.68517
3.70704
3.6933
3.69582
3.69979
3.69986
3.70274
3.68923
3.70343
3.69384
3.69456
3.69718
3.69396
3.6986
3.69558
3.69858
3.69668
3.69746
3.69289
3.69967
3.70004
3.70375
3.69797
3.70796
3.70483
3.69998
3.70288
3.70377
3.70164
3.69881
3.68747
3.69803
3.6937
3.68981
3.69657
3.68605
3.68809
3.6858
3.68816
3.69824
3.70079
3.69845
3.69857
3.70042
3.70117
3.69894
3.69934
3.68738
3.68843
3.69519
3.69577
3.69691
3.69469
3.69484
3.70218
3.69954
3.67519
3.67594
3.67886
3.68039
3.674
3.67431
3.68371
3.67806
3.68305
3.68036
3.6867
3.68617
3.68257
3.67492
3.6785
3.67487
3.67647
3.66721
3.67579
3.67575
3.67686
3.6758
3.66234
3.66609
3.6925
3.69359
3.68436
3.68183
3.69429
3.69631
3.69018
3.68579
3.68991
3.69205
3.68974
3.68973
3.69331
3.67781
3.68854
3.68487
3.68515
3.68322
3.6815
3.6782
3.6752
3.6716
3.67202
3.6785
3.67983
3.67994
3.66905
3.66809
3.66962
3.67869
3.69122
3.68337
3.68097
3.68347
3.68692
3.67667
3.67192
3.67662
3.67023
3.66772
3.67326
3.66539
3.66679
3.67345
3.67197
3.66442
3.66009
3.66397
3.66645
3.66608
3.66418
3.66495
3.66818
3.67015
3.67407
3.67472
3.67516
3.67548
3.66839
3.66898
3.66859
3.66262
3.67241
3.66362
3.67526
3.67505
3.66087
3.65899
3.66033
3.6734
3.67271
3.67396
3.67322
3.66833
3.66504
3.6611
3.66545
3.66073
3.66167
3.66099
3.66147
3.66062
3.63988
3.63873
3.64057
3.63232
3.64599
3.64364
3.65122
3.64095
3.64629
3.64731
3.64097
3.64411
3.66706
3.66876
3.66706
3.66342
3.66385
3.66428
3.66562
3.67488
3.67856
3.67555
3.66966
3.66795
3.6494
3.64621
3.64323
3.65666
3.65506
3.65656
3.65459
3.6544
3.65365
3.65064
3.66193
3.66192
3.66302
3.65694
3.65999
3.64315
3.6439
3.63972
3.63841
3.63638
3.64113
3.64103
3.63831
3.64866
3.64937
3.64908
3.64779
3.63883
3.64648
3.64348
3.64017
3.63997
3.64429
3.65272
3.64965
3.64799
3.63841
3.64572
3.64515
3.64403
3.64676
3.64765
3.64852
3.65248
3.65087
3.63912
3.64148
3.64431
3.64615
3.64617
3.64187
3.64248
3.64402
3.64521
3.63919
3.64034
3.64773
3.64143
3.65289
3.65251
3.65076
3.6464
3.64923
3.6477
3.64491
3.64184
3.63862
3.63637
3.64009
3.64052
3.64648
3.64138
3.63868
3.64294
3.63224
3.63437
3.63698
3.62791
3.61484
3.61939
3.6183
3.61948
3.62183
3.61933
3.61737
3.61615
3.62325
3.62815
3.62777
3.62536
3.61481
3.62136
3.62641
3.62606
3.61932
3.61871
3.62092
3.62564
3.62394
3.6213
3.62931
3.62726
3.62709
3.63162
3.63333
3.63084
3.60292
3.60916
3.61315
3.61569
3.61919
3.61955
3.61709
3.62216
3.61806
3.62046
3.63118
3.62453
3.63272
3.63021
3.62806
3.62976
3.62866
3.62526
3.63559
3.63221
3.62812
3.63431
3.63391
3.6326
3.62002
3.62126
3.61425
3.61532
3.61258
3.62414
3.62142
3.61929
3.62014
3.61609
3.61707
3.61389
3.62287
3.62197
3.61853
3.61347
3.61038
3.62272
3.62305
3.62007
3.62067
3.61881
3.61901
3.61998
3.6203
3.62729
3.62909
3.62659
3.62131
3.6192
3.62671
3.62888
3.62441
3.63083
3.6293
3.62735
3.6287
3.62833
3.6222
3.6158
3.61619
3.61745
3.6177
3.61537
3.616
3.61544
3.61328
3.61239
3.6211
3.61938
3.60241
3.6053
3.60663
3.61331
3.61307
3.61218
3.61275
3.60799
3.60831
3.61386
3.61277
3.61135
3.61059
3.60791
3.60668
3.61138
3.60802
3.60989
3.60559
3.60547
3.60776
3.60883
3.60087
3.59408
3.60393
3.60836
3.61365
3.61741
3.61876
3.61792
3.61461
3.61901
3.616
3.6191
3.62317
3.62046
3.62304
3.62164
3.61822
3.61489
3.61602
3.61493
3.61524
3.61512
3.6134
3.61758
3.61716
3.60942
3.60908
3.61055
3.6118
3.61013
3.61771
3.62143
3.62103
3.62152
3.61807
3.61599
3.61175
3.61184
3.61013
3.61443
3.61847
3.61378
3.61904
3.61205
3.61142
3.6189
3.61011
3.61531
3.61301
3.60931
3.60458
3.6053
3.61371
3.61051
3.60654
3.61416
3.6124
3.6107
3.61103
3.60231
3.6069
3.60815
3.60135
3.60158
3.59955
3.60131
3.60092
3.60065
3.60433
3.60383
3.60601
3.60393
3.60988
3.60488
3.6038
3.60857
3.60418
3.60736
3.60805
3.61165
3.60929
3.61287
3.60861
3.60205
3.60666
3.60494
3.60335
3.59837
3.59812
3.59026
3.59342
3.6033
3.60097
3.60335
3.60002
3.59716
3.59649
3.60659
3.61289
3.60454
3.60285
3.60899
3.60098
3.60739
3.60618
3.6024
3.60757
3.60191
3.60439
3.59992
3.59958
3.60325
3.60821
3.6058
3.60576
3.59696
3.59897
3.59922
3.59503
3.59802
3.5982
3.59515
3.60188
3.60538
3.59784
3.59754
3.60407
3.60675
3.60133
3.59418
3.59527
3.59246
3.59564
3.58986
3.5902
3.59812
3.59452
3.60096
3.59197
3.59368
3.59212
3.59065
3.59579
3.59344
3.59007
3.59347
3.58956
3.59779
3.59116
3.59588
3.59601
3.59607
3.597
3.59542
3.59632
3.59592
3.58908
3.5864
3.59829
3.59621
3.59395
3.58873
3.59589
3.59422
3.59638