/*--------------------------------*- C++ -*----------------------------------*\
| =========                 |                                                 |
| \\      /  F ield         | OpenFOAM: The Open Source CFD Toolbox           |
|  \\    /   O peration     | Version:  v1612+                                |
|   \\  /    A nd           | Web:      www.OpenFOAM.com                      |
|    \\/     M anipulation  |                                                 |
\*---------------------------------------------------------------------------*/
FoamFile
{
    version     2.0;
    format      ascii;
    class       volScalarField;
    location    "100";
    object      p;
}
// * * * * * * * * * * * * * * * * * * * * * * * * * * * * * * * * * * * * * //

dimensions      [0 2 -2 0 0 0 0];

internalField   nonuniform List<scalar> 
21518
(
0.21036
0.218434
0.249676
0.253281
0.252984
0.260122
0.272645
0.214406
0.217547
0.26316
0.253011
0.256742
0.268219
0.269257
0.203248
0.209382
0.20817
0.19127
0.190829
0.224279
0.212397
0.205204
0.210895
0.242832
0.260205
0.275381
0.250173
0.251404
0.24779
0.231682
0.221738
0.223637
0.196064
0.246243
0.205807
0.273965
0.22439
0.188425
0.248743
0.273922
0.266433
0.199368
0.22284
0.223578
0.217035
0.221808
0.245304
0.188698
0.198031
0.217618
0.214859
0.226524
0.239853
0.240282
0.22234
0.223138
0.229267
0.233721
0.200397
0.200313
0.218235
0.260653
0.192349
0.18248
0.229459
0.188604
0.191778
0.20781
0.246274
0.252967
0.187093
0.198827
0.218839
0.212948
0.199809
0.199298
0.1928
0.191126
0.206586
0.220905
0.225235
0.221501
0.222133
0.222889
0.216175
0.224815
0.222084
0.218214
0.210647
0.219507
0.225039
0.242777
0.202686
0.201225
0.224504
0.273292
0.219953
0.241309
0.244748
0.198401
0.240088
0.257334
0.225952
0.222647
0.227212
0.267115
0.261289
0.266391
0.262974
0.266723
0.201063
0.20039
0.240218
0.192359
0.19785
0.19545
0.230471
0.25943
0.216972
0.259767
0.26903
0.19424
0.24293
0.207042
0.200202
0.190559
0.199937
0.189246
0.189736
0.227649
0.237444
0.234311
0.23406
0.228435
0.182898
0.213356
0.209647
0.211943
0.283893
0.253846
0.214965
0.216842
0.243309
0.240834
0.249687
0.243542
0.197389
0.226241
0.252047
0.256302
0.268796
0.270073
0.260446
0.265053
0.250496
0.204881
0.208518
0.219603
0.21471
0.216435
0.214923
0.20156
0.231522
0.260904
0.252144
0.2567
0.248227
0.246893
0.205761
0.206253
0.261892
0.221815
0.264334
0.253476
0.243886
0.24886
0.224674
0.237115
0.221555
0.226601
0.222253
0.256341
0.242615
0.237432
0.247041
0.243373
0.192631
0.267896
0.280525
0.276598
0.221138
0.219806
0.190654
0.197419
0.216114
0.225225
0.227776
0.219241
0.225629
0.218224
0.224816
0.242901
0.23869
0.237491
0.210142
0.225365
0.254753
0.266078
0.273149
0.184164
0.202467
0.193569
0.209887
0.222463
0.190845
0.192167
0.189301
0.222071
0.236935
0.223596
0.261031
0.196632
0.206722
0.243821
0.278974
0.267461
0.272485
0.234301
0.247027
0.200489
0.193265
0.192892
0.231381
0.256327
0.248081
0.196826
0.226851
0.192032
0.192698
0.192801
0.213192
0.212235
0.269555
0.245276
0.238703
0.254733
0.190826
0.207897
0.197385
0.189078
0.187193
0.193107
0.251224
0.20385
0.229298
0.267676
0.200636
0.204959
0.216322
0.252132
0.253761
0.257541
0.254936
0.251951
0.253415
0.249951
0.244303
0.235185
0.252902
0.209372
0.262551
0.203204
0.210276
0.205934
0.203088
0.197684
0.223041
0.224604
0.18231
0.190257
0.184859
0.189323
0.189674
0.195671
0.191878
0.192698
0.233747
0.187753
0.183149
0.272507
0.221568
0.190202
0.201992
0.21978
0.20581
0.204988
0.219783
0.216396
0.208681
0.23666
0.272558
0.256939
0.256413
0.267379
0.26465
0.207847
0.268676
0.25922
0.195898
0.195841
0.194099
0.241528
0.243452
0.183553
0.23397
0.243616
0.223924
0.218268
0.230366
0.195368
0.223794
0.232201
0.224279
0.247649
0.247535
0.204477
0.216054
0.257508
0.211183
0.232845
0.25838
0.276068
0.194211
0.211995
0.21353
0.216882
0.196433
0.268216
0.191972
0.188734
0.205921
0.198132
0.19985
0.274835
0.246772
0.253827
0.252274
0.252764
0.260531
0.248689
0.199224
0.194784
0.194458
0.193558
0.266317
0.232368
0.242132
0.185944
0.244582
0.242469
0.245332
0.19625
0.219154
0.215507
0.267011
0.271657
0.22747
0.239362
0.235612
0.2327
0.243059
0.250162
0.254596
0.258701
0.257645
0.253088
0.199222
0.246446
0.27577
0.273631
0.237472
0.236439
0.239336
0.23443
0.188945
0.261906
0.267229
0.268951
0.269504
0.267108
0.220664
0.234103
0.244172
0.237498
0.229726
0.232443
0.226741
0.21753
0.230091
0.255068
0.206091
0.236512
0.230665
0.187536
0.267659
0.220458
0.235844
0.214192
0.194449
0.240132
0.230307
0.271994
0.236249
0.261609
0.263747
0.202486
0.276278
0.25583
0.254916
0.232896
0.249847
0.218771
0.195298
0.221573
0.2734
0.213373
0.258807
0.258476
0.273136
0.200947
0.279953
0.268158
0.189793
0.266922
0.234925
0.258525
0.201149
0.199687
0.201865
0.214685
0.233102
0.239153
0.25489
0.265389
0.202461
0.212291
0.249824
0.209154
0.208814
0.211908
0.19296
0.188236
0.270591
0.202299
0.237718
0.24007
0.192887
0.26093
0.231398
0.241588
0.242731
0.208286
0.20481
0.201234
0.216338
0.188002
0.198287
0.249237
0.240049
0.232863
0.24389
0.20314
0.200593
0.19483
0.263579
0.263068
0.257942
0.25677
0.218984
0.215438
0.250376
0.234968
0.259786
0.256781
0.2522
0.262479
0.220842
0.230569
0.224541
0.200157
0.205188
0.200781
0.279174
0.19151
0.191824
0.194148
0.254119
0.20471
0.283961
0.272382
0.281642
0.222887
0.26623
0.273362
0.273009
0.232425
0.254595
0.252619
0.263858
0.259304
0.23051
0.253656
0.186025
0.246743
0.242857
0.229267
0.224606
0.231878
0.189928
0.22982
0.206647
0.250205
0.248636
0.200414
0.254651
0.209226
0.234424
0.277296
0.264157
0.210204
0.266581
0.274742
0.271896
0.257841
0.258546
0.204448
0.262493
0.254134
0.200723
0.20427
0.200441
0.203403
0.206902
0.201963
0.266285
0.267753
0.217394
0.248906
0.252546
0.253905
0.259726
0.199627
0.189963
0.213213
0.270333
0.272729
0.272474
0.208975
0.222934
0.216666
0.190999
0.213854
0.21495
0.250149
0.24431
0.207413
0.21051
0.227287
0.224617
0.212515
0.211665
0.23924
0.279588
0.277619
0.196531
0.192819
0.261202
0.187881
0.194777
0.216986
0.267731
0.245629
0.261684
0.194877
0.26462
0.226763
0.238016
0.225608
0.217569
0.263629
0.220182
0.223201
0.238754
0.241703
0.260614
0.260967
0.231665
0.260191
0.266484
0.265366
0.24472
0.246271
0.26795
0.205138
0.205201
0.211424
0.207539
0.212099
0.234389
0.241899
0.26704
0.267706
0.259421
0.228499
0.230423
0.231876
0.195813
0.217163
0.224241
0.192818
0.190414
0.258907
0.265531
0.238562
0.235047
0.233815
0.231805
0.229821
0.229246
0.251737
0.186506
0.198672
0.220651
0.217398
0.251313
0.240726
0.239848
0.23757
0.238782
0.20456
0.254989
0.215731
0.234056
0.255757
0.236351
0.255056
0.251395
0.25483
0.19197
0.188352
0.224771
0.214381
0.211576
0.234289
0.228332
0.20591
0.195285
0.185192
0.208061
0.25206
0.245642
0.253041
0.23741
0.230705
0.246034
0.242641
0.232758
0.212406
0.196775
0.216268
0.189146
0.190407
0.19188
0.191753
0.18902
0.22091
0.271781
0.251934
0.269116
0.277148
0.276181
0.260673
0.260752
0.270146
0.245339
0.248552
0.241586
0.237935
0.255524
0.269191
0.247051
0.256108
0.257402
0.251234
0.247773
0.261837
0.243872
0.25985
0.265924
0.24253
0.202976
0.2209
0.21639
0.210466
0.204368
0.217296
0.240614
0.278058
0.268573
0.258651
0.268404
0.248424
0.236279
0.246001
0.242926
0.246104
0.24143
0.249652
0.249802
0.244125
0.25299
0.261599
0.252907
0.237373
0.240729
0.245426
0.244388
0.237935
0.236631
0.249333
0.255494
0.250624
0.268537
0.249762
0.262217
0.261089
0.256781
0.20276
0.194813
0.198387
0.195034
0.199739
0.195966
0.182576
0.237388
0.218637
0.225805
0.220377
0.226658
0.235199
0.234622
0.223609
0.219126
0.231521
0.225557
0.211261
0.210314
0.221703
0.218375
0.228112
0.244131
0.228506
0.228974
0.23255
0.230092
0.211678
0.217461
0.228675
0.222289
0.213509
0.217541
0.23151
0.233826
0.218398
0.218241
0.201212
0.200741
0.226729
0.215188
0.206944
0.220781
0.21128
0.207501
0.214582
0.189813
0.198739
0.195146
0.186495
0.200315
0.1985
0.193209
0.214256
0.200612
0.210765
0.208538
0.204642
0.193201
0.193771
0.193192
0.198663
0.2
0.202711
0.218192
0.203521
0.2114
0.211133
0.207829
0.237412
0.236568
0.216349
0.217972
0.246785
0.245523
0.241474
0.240325
0.236915
0.231818
0.232022
0.232032
0.234174
0.23589
0.236928
0.235193
0.18257
0.185603
0.205632
0.199139
0.205162
0.200825
0.205003
0.206005
0.203771
0.201006
0.267759
0.275694
0.273202
0.273741
0.282784
0.27561
0.261241
0.258376
0.260407
0.258886
0.265782
0.263474
0.272835
0.264363
0.267148
0.260046
0.270977
0.276995
0.254958
0.251042
0.253824
0.233831
0.242394
0.233346
0.239038
0.239307
0.239039
0.237325
0.268346
0.262228
0.264473
0.261944
0.263549
0.257858
0.257198
0.261517
0.255156
0.263182
0.259601
0.265201
0.253636
0.257311
0.26437
0.229202
0.230197
0.224881
0.223927
0.228913
0.235254
0.24171
0.240186
0.236365
0.235051
0.236658
0.237942
0.271706
0.258561
0.268506
0.257613
0.262851
0.261603
0.261133
0.247893
0.244507
0.244969
0.245587
0.241445
0.234813
0.246777
0.256499
0.24805
0.255701
0.254833
0.254562
0.256323
0.259818
0.260613
0.247958
0.259591
0.249268
0.251714
0.252026
0.252652
0.254871
0.250812
0.252324
0.254674
0.256843
0.249095
0.194833
0.199762
0.199229
0.193581
0.186988
0.186692
0.204869
0.207485
0.230857
0.231782
0.230096
0.229648
0.227013
0.227576
0.229784
0.214335
0.220249
0.215457
0.217579
0.215874
0.214002
0.218478
0.215987
0.205015
0.21242
0.213778
0.213295
0.209919
0.243859
0.231441
0.243524
0.23112
0.237559
0.23045
0.237208
0.235692
0.233216
0.239833
0.231844
0.225493
0.228674
0.234238
0.209574
0.212834
0.214393
0.21123
0.209803
0.209411
0.207596
0.211449
0.209534
0.203854
0.201732
0.205158
0.201324
0.199222
0.197821
0.200459
0.204087
0.195762
0.199506
0.204685
0.19958
0.196378
0.188112
0.196837
0.190082
0.191357
0.21299
0.204263
0.211352
0.20436
0.209964
0.208277
0.20596
0.216296
0.212265
0.200734
0.232419
0.229296
0.232629
0.238807
0.234544
0.231653
0.259691
0.256422
0.248603
0.263785
0.252465
0.239623
0.246236
0.244377
0.255074
0.24409
0.24954
0.247596
0.247638
0.239199
0.228464
0.224622
0.224854
0.22859
0.248414
0.25182
0.256899
0.252173
0.254835
0.249333
0.236229
0.237445
0.230255
0.236873
0.240281
0.240811
0.236291
0.243763
0.235896
0.237476
0.229906
0.228144
0.238722
0.234054
0.232987
0.24061
0.2441
0.246309
0.25202
0.241893
0.252215
0.245783
0.244301
0.23683
0.238762
0.245731
0.239984
0.238215
0.238268
0.237185
0.24161
0.228399
0.2396
0.237312
0.208375
0.206208
0.206085
0.206127
0.203185
0.199273
0.206628
0.212339
0.202415
0.186825
0.194727
0.196599
0.20215
0.199836
0.203995
0.202609
0.19874
0.205719
0.205768
0.204698
0.197724
0.201289
0.207656
0.197148
0.188539
0.202117
0.197169
0.198814
0.195839
0.195457
0.199463
0.199079
0.194838
0.19658
0.201338
0.199934
0.196364
0.190847
0.191629
0.196109
0.187008
0.192253
0.196133
0.196648
0.192557
0.186628
0.199114
0.189966
0.194516
0.192562
0.19315
0.191889
0.189167
0.181188
0.179053
0.190154
0.208808
0.272009
0.268647
0.274556
0.266173
0.261869
0.259533
0.254606
0.264529
0.261196
0.259603
0.266506
0.258933
0.261484
0.260486
0.274647
0.26824
0.269704
0.273043
0.267726
0.275823
0.276792
0.275639
0.264712
0.259463
0.266315
0.264975
0.279195
0.280406
0.27152
0.276628
0.277427
0.270372
0.280848
0.251404
0.247091
0.256875
0.251112
0.249391
0.257257
0.259775
0.251476
0.260334
0.254182
0.25819
0.263411
0.264723
0.267676
0.260035
0.276592
0.254693
0.257559
0.258577
0.260764
0.26223
0.26132
0.245104
0.251184
0.261586
0.255087
0.254016
0.23709
0.244279
0.238566
0.249375
0.24736
0.247595
0.258815
0.254992
0.246628
0.235579
0.252824
0.253999
0.244571
0.244924
0.231328
0.238813
0.237625
0.240882
0.262012
0.252988
0.262356
0.257831
0.260104
0.250929
0.24889
0.247229
0.244498
0.241821
0.254464
0.256488
0.267878
0.265351
0.274326
0.2741
0.263673
0.2648
0.262541
0.266464
0.267831
0.267385
0.269967
0.271558
0.259042
0.262092
0.269686
0.24243
0.237829
0.24205
0.243948
0.244662
0.240891
0.253147
0.260069
0.262627
0.254611
0.251411
0.261084
0.250278
0.253463
0.262614
0.255047
0.254689
0.253533
0.255883
0.258842
0.250603
0.251628
0.254738
0.254605
0.261821
0.248931
0.247899
0.250903
0.250545
0.249389
0.255111
0.254032
0.26108
0.262152
0.258333
0.258462
0.260456
0.260028
0.265482
0.247996
0.237003
0.245126
0.240845
0.241142
0.241085
0.258872
0.25418
0.252859
0.256797
0.260401
0.257508
0.251742
0.252282
0.249373
0.263132
0.273541
0.265785
0.265511
0.263162
0.275841
0.265222
0.271589
0.265497
0.268503
0.264086
0.266763
0.272865
0.269517
0.272984
0.267698
0.270924
0.272907
0.277406
0.266994
0.262362
0.269594
0.268198
0.26841
0.274449
0.214042
0.231592
0.230198
0.235326
0.232282
0.230716
0.237572
0.238762
0.241464
0.23792
0.2367
0.247849
0.237504
0.228486
0.235397
0.230643
0.238583
0.226956
0.221503
0.229672
0.215157
0.21533
0.215786
0.216652
0.221556
0.206826
0.205964
0.226167
0.218744
0.221729
0.200652
0.214745
0.205278
0.200392
0.219519
0.218144
0.223249
0.217929
0.225352
0.252181
0.240146
0.256948
0.25596
0.259301
0.252039
0.254509
0.249519
0.257803
0.25726
0.251745
0.239581
0.248535
0.238243
0.238681
0.238442
0.246617
0.245545
0.249784
0.24193
0.245596
0.250873
0.240093
0.244276
0.248145
0.246131
0.25056
0.244778
0.245838
0.235407
0.243337
0.245403
0.274016
0.278335
0.261558
0.262978
0.257353
0.266621
0.262914
0.275077
0.263907
0.267598
0.265271
0.252447
0.248017
0.258042
0.253972
0.251578
0.251741
0.258905
0.241753
0.2407
0.237325
0.238635
0.240545
0.239165
0.237617
0.2529
0.246878
0.254117
0.249991
0.254436
0.254368
0.249078
0.241095
0.239009
0.247363
0.2449
0.238642
0.237589
0.245234
0.255543
0.247969
0.251693
0.245274
0.253989
0.249687
0.249097
0.241978
0.238177
0.245718
0.247103
0.239354
0.242159
0.246305
0.242593
0.247671
0.250749
0.244387
0.249819
0.242625
0.248911
0.255668
0.249723
0.248076
0.251705
0.255274
0.250748
0.243552
0.258457
0.269359
0.264795
0.252951
0.266011
0.249987
0.26069
0.259354
0.256657
0.249229
0.251958
0.248359
0.258664
0.251242
0.25797
0.250307
0.2535
0.251005
0.26644
0.256753
0.262993
0.257123
0.267439
0.269469
0.260048
0.239293
0.241367
0.24192
0.240266
0.244154
0.246251
0.246149
0.232078
0.235356
0.233154
0.235861
0.238556
0.237479
0.233551
0.244221
0.24455
0.23412
0.240826
0.245953
0.249925
0.244435
0.247392
0.247713
0.240707
0.25021
0.24085
0.241727
0.235207
0.239595
0.237026
0.236962
0.242794
0.240596
0.233754
0.240197
0.238048
0.244185
0.237621
0.242741
0.250786
0.244543
0.239915
0.247753
0.24704
0.240405
0.261202
0.252521
0.261117
0.258895
0.256793
0.262811
0.258765
0.257718
0.259754
0.260161
0.257108
0.253623
0.251065
0.257879
0.271746
0.272897
0.267983
0.279033
0.278105
0.271142
0.257875
0.244528
0.26205
0.260541
0.260412
0.255635
0.264063
0.253546
0.258731
0.268604
0.262449
0.258557
0.258315
0.265909
0.253066
0.256591
0.256738
0.259286
0.251307
0.252111
0.253757
0.26712
0.258737
0.262489
0.262642
0.268593
0.266857
0.266159
0.203304
0.202848
0.207017
0.202426
0.200445
0.206834
0.205383
0.200145
0.19891
0.202978
0.219911
0.197921
0.204539
0.203707
0.212823
0.188337
0.197412
0.186487
0.183927
0.196994
0.19571
0.189287
0.187842
0.184459
0.177822
0.188654
0.192434
0.192114
0.193795
0.198268
0.192309
0.190731
0.188342
0.192429
0.201125
0.196937
0.193104
0.193989
0.190867
0.185684
0.193711
0.189982
0.186913
0.186143
0.188863
0.191479
0.188767
0.190163
0.194919
0.204993
0.198271
0.193247
0.197042
0.201606
0.192479
0.196383
0.194084
0.193889
0.191344
0.197943
0.189661
0.23603
0.247037
0.214011
0.223013
0.218683
0.214371
0.221616
0.230019
0.227587
0.226333
0.225933
0.221273
0.22886
0.231232
0.227055
0.214124
0.227529
0.224754
0.226026
0.229118
0.244411
0.227446
0.22272
0.229144
0.230996
0.225617
0.224211
0.230638
0.237454
0.230055
0.23229
0.229738
0.235042
0.235666
0.227557
0.231585
0.223194
0.228871
0.220761
0.230849
0.227089
0.216818
0.223219
0.222623
0.231941
0.227364
0.227036
0.223555
0.231315
0.231814
0.226274
0.227319
0.220684
0.225254
0.22552
0.225536
0.226005
0.227022
0.220963
0.233818
0.223052
0.221993
0.228338
0.242379
0.229049
0.23982
0.236567
0.231173
0.234771
0.217527
0.214871
0.215542
0.206433
0.215372
0.212563
0.210517
0.202972
0.206982
0.214791
0.218196
0.211575
0.21096
0.223614
0.214325
0.212107
0.222809
0.21543
0.21552
0.214784
0.219227
0.217268
0.219828
0.212007
0.219927
0.214967
0.21754
0.218753
0.224318
0.232427
0.227582
0.231447
0.226346
0.226631
0.230666
0.236742
0.24228
0.23381
0.2299
0.237453
0.232743
0.232744
0.231266
0.232093
0.219719
0.225341
0.2232
0.227556
0.220158
0.220617
0.227169
0.225573
0.230559
0.224935
0.229991
0.224578
0.225002
0.22706
0.234115
0.233052
0.229935
0.229417
0.228975
0.229683
0.230737
0.216021
0.215107
0.206623
0.210838
0.21574
0.212498
0.210727
0.208007
0.214136
0.208231
0.210148
0.212726
0.213602
0.210305
0.219113
0.224415
0.230086
0.22516
0.222567
0.22345
0.226369
0.217406
0.222512
0.225648
0.218822
0.225523
0.221732
0.221629
0.217154
0.210742
0.216591
0.218444
0.213316
0.214373
0.217808
0.221062
0.219496
0.210533
0.215392
0.216968
0.217159
0.214554
0.221914
0.232389
0.221471
0.222318
0.222682
0.224893
0.217742
0.232626
0.230039
0.238861
0.233011
0.24165
0.238332
0.220406
0.219693
0.228228
0.227169
0.234797
0.232294
0.228245
0.222597
0.233429
0.226605
0.221962
0.226067
0.220754
0.223204
0.22123
0.222275
0.214159
0.211267
0.210645
0.217952
0.215459
0.204211
0.212181
0.21495
0.215455
0.222678
0.222213
0.219127
0.221329
0.212836
0.220775
0.220444
0.215146
0.209171
0.209357
0.219854
0.214788
0.183394
0.193647
0.189508
0.190297
0.226275
0.217626
0.224253
0.220508
0.224043
0.222527
0.221507
0.19725
0.210176
0.208388
0.210392
0.200536
0.230739
0.212644
0.206211
0.219214
0.216588
0.213547
0.206662
0.211159
0.215398
0.21208
0.219145
0.21845
0.219668
0.210992
0.210849
0.219549
0.211217
0.208904
0.206018
0.211822
0.21851
0.221637
0.213057
0.215225
0.198057
0.194399
0.189063
0.191829
0.197738
0.197894
0.191463
0.195559
0.194058
0.20235
0.201959
0.196203
0.194081
0.201804
0.188945
0.191819
0.201384
0.195041
0.194708
0.194339
0.195016
0.193329
0.194164
0.191698
0.191912
0.189349
0.193566
0.195043
0.190361
0.190826
0.194116
0.201851
0.198656
0.196335
0.199416
0.199809
0.195473
0.2097
0.199348
0.200994
0.211861
0.205189
0.204755
0.207182
0.21237
0.213462
0.220076
0.217627
0.218255
0.223393
0.217042
0.198775
0.210366
0.204751
0.207633
0.200744
0.212533
0.20469
0.209189
0.208921
0.211717
0.202004
0.206199
0.206545
0.200663
0.19576
0.2072
0.212219
0.20904
0.210867
0.204981
0.214545
0.212569
0.20855
0.20043
0.196021
0.200322
0.20249
0.198972
0.199432
0.185877
0.199112
0.188732
0.198029
0.193795
0.19209
0.185782
0.192403
0.195487
0.191815
0.197059
0.189935
0.188698
0.191171
0.190626
0.188482
0.195954
0.197174
0.194698
0.192905
0.194809
0.208674
0.200562
0.200907
0.202309
0.199955
0.199704
0.204886
0.199817
0.209205
0.200781
0.208109
0.204955
0.204714
0.209894
0.216176
0.217442
0.226074
0.217652
0.221777
0.220202
0.21869
0.211441
0.2047
0.211465
0.207812
0.211144
0.209758
0.210029
0.20198
0.206152
0.214014
0.208776
0.204408
0.205878
0.208273
0.202638
0.20855
0.205519
0.207703
0.202054
0.204857
0.206389
0.215978
0.212263
0.210023
0.209519
0.213836
0.213749
0.209672
0.206199
0.20833
0.196873
0.204962
0.199647
0.189815
0.202321
0.200545
0.19777
0.211645
0.214685
0.218965
0.216665
0.216509
0.22702
0.232595
0.240534
0.22865
0.226969
0.229035
0.22729
0.217178
0.222396
0.228803
0.240727
0.21474
0.21506
0.215085
0.22464
0.224582
0.208012
0.214192
0.223703
0.201306
0.245129
0.24346
0.211764
0.242672
0.238406
0.23983
0.239229
0.24166
0.242738
0.241204
0.213873
0.211341
0.208552
0.208837
0.277025
0.271566
0.28532
0.26534
0.254833
0.275283
0.265149
0.257597
0.258476
0.257026
0.269102
0.282134
0.269484
0.266957
0.245937
0.245053
0.241552
0.251536
0.255574
0.256103
0.254475
0.254656
0.252789
0.254126
0.268997
0.27197
0.261034
0.22071
0.218542
0.216194
0.22244
0.217618
0.220666
0.249321
0.250145
0.241554
0.234485
0.238046
0.23217
0.236521
0.234278
0.236629
0.23879
0.25519
0.254154
0.252153
0.260275
0.254914
0.257653
0.258865
0.231707
0.234127
0.235578
0.238073
0.236343
0.236877
0.235991
0.255509
0.24994
0.253709
0.255042
0.254157
0.254066
0.250422
0.254412
0.247692
0.250541
0.248179
0.251292
0.251598
0.248758
0.250343
0.250294
0.252558
0.250974
0.24673
0.253587
0.195885
0.198097
0.19026
0.193579
0.198291
0.197625
0.195622
0.187112
0.188035
0.185541
0.20257
0.219854
0.223337
0.22465
0.225392
0.221956
0.221984
0.224806
0.216769
0.21848
0.217679
0.217388
0.216234
0.215498
0.217351
0.210067
0.208193
0.215075
0.208207
0.207458
0.204525
0.210528
0.232271
0.234975
0.229633
0.236341
0.229166
0.234221
0.230057
0.224931
0.229293
0.227384
0.22597
0.227405
0.225965
0.227104
0.206648
0.209074
0.208496
0.208828
0.211344
0.201827
0.202574
0.206798
0.203598
0.20336
0.202766
0.207518
0.196217
0.194145
0.194806
0.193195
0.193655
0.199759
0.195815
0.187585
0.187913
0.184959
0.188172
0.187799
0.203927
0.204463
0.203887
0.206758
0.206886
0.206477
0.205664
0.233394
0.227204
0.225596
0.239455
0.231324
0.241451
0.250695
0.249445
0.229025
0.22956
0.216725
0.251824
0.241332
0.236901
0.241674
0.236687
0.235958
0.232408
0.238913
0.244981
0.243536
0.229965
0.234065
0.226524
0.235671
0.236472
0.23509
0.236798
0.246683
0.243423
0.246509
0.244192
0.24717
0.245194
0.24525
0.245893
0.242609
0.247086
0.241986
0.240406
0.240831
0.242161
0.243799
0.235408
0.235463
0.236591
0.243128
0.240783
0.214461
0.212313
0.198977
0.197736
0.196332
0.194641
0.194999
0.198837
0.197824
0.198866
0.196265
0.208089
0.200235
0.213799
0.215227
0.213147
0.207638
0.207432
0.197891
0.197425
0.197924
0.194461
0.197359
0.193204
0.195102
0.192588
0.19863
0.198067
0.195247
0.199996
0.195671
0.196586
0.197003
0.199388
0.190045
0.193458
0.189136
0.188636
0.189585
0.190977
0.187296
0.18784
0.187217
0.190688
0.191184
0.189273
0.191008
0.193899
0.191092
0.188898
0.187782
0.191096
0.190772
0.188809
0.190306
0.188698
0.190202
0.19087
0.186732
0.187284
0.216958
0.216428
0.216607
0.215106
0.274206
0.28085
0.274293
0.275953
0.26628
0.269821
0.26842
0.269656
0.256786
0.261953
0.259413
0.257103
0.255575
0.263615
0.26258
0.270061
0.26165
0.26586
0.270719
0.268297
0.271114
0.273673
0.255321
0.269886
0.266913
0.27459
0.280596
0.286191
0.274169
0.26786
0.272076
0.274992
0.275324
0.277556
0.272593
0.265365
0.268317
0.253358
0.247815
0.260005
0.255619
0.246098
0.258147
0.257564
0.262263
0.269348
0.266958
0.265428
0.266474
0.267442
0.268118
0.268663
0.26736
0.270833
0.270857
0.264659
0.268262
0.268426
0.261961
0.25897
0.264995
0.269286
0.234653
0.244936
0.231835
0.237549
0.241173
0.242608
0.244739
0.244517
0.24557
0.245433
0.243642
0.245436
0.249384
0.247793
0.255338
0.246128
0.242908
0.245802
0.241113
0.24814
0.239796
0.236155
0.236677
0.252471
0.264225
0.251031
0.254858
0.248984
0.262953
0.264551
0.263272
0.259463
0.261232
0.258402
0.262814
0.264651
0.273257
0.268097
0.269678
0.263735
0.263139
0.273583
0.270922
0.255741
0.247572
0.243464
0.24704
0.245344
0.245416
0.246293
0.245673
0.258719
0.261249
0.259706
0.254407
0.259874
0.258756
0.260855
0.263497
0.258546
0.260831
0.258516
0.26265
0.260028
0.260138
0.251287
0.254692
0.248903
0.251526
0.251274
0.251314
0.253819
0.247191
0.253059
0.246688
0.248941
0.250768
0.250555
0.246344
0.261406
0.256841
0.26056
0.261747
0.26198
0.258403
0.264003
0.241743
0.245132
0.246318
0.248344
0.243219
0.245225
0.246816
0.258006
0.251905
0.2607
0.266994
0.260191
0.257022
0.249245
0.261217
0.258558
0.260161
0.253079
0.262542
0.265732
0.270302
0.267678
0.272178
0.270613
0.264095
0.265688
0.262684
0.267171
0.269705
0.267121
0.267538
0.242166
0.24222
0.243256
0.240702
0.245277
0.24002
0.239504
0.214747
0.215564
0.211613
0.206554
0.217136
0.203669
0.226046
0.226807
0.22727
0.202338
0.19223
0.205978
0.184395
0.20503
0.209802
0.21458
0.208118
0.209809
0.208069
0.208618
0.225699
0.262248
0.259625
0.24707
0.241381
0.24862
0.246291
0.244041
0.249156
0.252061
0.248566
0.25963
0.249371
0.257734
0.249771
0.243204
0.251471
0.259851
0.242509
0.235481
0.241726
0.235664
0.243399
0.239075
0.238227
0.242762
0.243506
0.239217
0.243203
0.250263
0.263051
0.268704
0.263418
0.259426
0.25822
0.262591
0.261964
0.264231
0.264614
0.264225
0.266426
0.259109
0.265853
0.27636
0.270668
0.271175
0.271389
0.270739
0.272072
0.268471
0.253913
0.252402
0.249944
0.250384
0.254577
0.251908
0.2507
0.231629
0.233033
0.235692
0.236396
0.235032
0.234503
0.233713
0.250098
0.248008
0.254101
0.249255
0.247528
0.248448
0.248282
0.247234
0.245853
0.247245
0.244021
0.246486
0.242133
0.249153
0.248432
0.244676
0.245703
0.245223
0.249004
0.250774
0.247712
0.245196
0.24539
0.245112
0.24135
0.245827
0.242895
0.246709
0.250087
0.244922
0.248224
0.248265
0.249453
0.249422
0.247102
0.250306
0.241763
0.244233
0.253705
0.24053
0.251569
0.270395
0.269892
0.26675
0.266566
0.270273
0.270193
0.261462
0.260569
0.257935
0.246485
0.255629
0.251409
0.252794
0.257513
0.255635
0.251258
0.249014
0.255113
0.262445
0.255742
0.255807
0.237785
0.233879
0.232467
0.236334
0.238723
0.234451
0.237997
0.246427
0.242233
0.242603
0.241776
0.243607
0.241174
0.242231
0.249044
0.25054
0.249492
0.250284
0.253371
0.245763
0.241256
0.244596
0.246423
0.242558
0.241592
0.247312
0.23786
0.24128
0.236118
0.237369
0.234477
0.238474
0.235218
0.233073
0.23657
0.234151
0.239707
0.235936
0.237554
0.236976
0.246326
0.2448
0.247987
0.250946
0.243311
0.246323
0.241981
0.260374
0.259186
0.259934
0.263079
0.260813
0.257428
0.260675
0.251013
0.256446
0.255721
0.25165
0.254185
0.253154
0.249216
0.261123
0.258323
0.258339
0.250622
0.259944
0.256929
0.254367
0.268426
0.262961
0.26695
0.260175
0.26855
0.265387
0.266426
0.260905
0.262348
0.266688
0.262067
0.255439
0.260041
0.262416
0.257344
0.256545
0.25195
0.257502
0.26422
0.258396
0.256255
0.204143
0.208437
0.202907
0.199163
0.203128
0.204906
0.197766
0.21637
0.205349
0.215533
0.210736
0.211773
0.206659
0.189055
0.190438
0.191403
0.190763
0.186129
0.187648
0.19103
0.185945
0.183949
0.198659
0.200546
0.198252
0.194812
0.198759
0.1984
0.20115
0.190672
0.190954
0.201305
0.194877
0.199185
0.195889
0.19538
0.195473
0.199324
0.19706
0.19354
0.186641
0.198486
0.192779
0.199674
0.207446
0.193653
0.185323
0.19204
0.190945
0.183722
0.187549
0.227334
0.217246
0.214744
0.218853
0.21912
0.215408
0.214833
0.219733
0.228755
0.230592
0.232646
0.229814
0.22843
0.229749
0.236694
0.229085
0.233711
0.232493
0.231255
0.231937
0.229054
0.230519
0.229893
0.228656
0.229939
0.230074
0.229105
0.236065
0.232064
0.233383
0.232939
0.233962
0.237147
0.232882
0.221062
0.231258
0.227952
0.232867
0.230882
0.230631
0.235506
0.230448
0.228387
0.223275
0.230355
0.222942
0.223665
0.219582
0.224571
0.222461
0.224177
0.220333
0.222077
0.222983
0.218605
0.220308
0.222125
0.220436
0.220898
0.236395
0.228904
0.233426
0.230849
0.236888
0.228619
0.231581
0.24428
0.243617
0.23815
0.234544
0.225148
0.226268
0.224921
0.230602
0.228404
0.208632
0.207614
0.209426
0.209703
0.204375
0.205411
0.210002
0.220834
0.216632
0.214756
0.217462
0.215013
0.221189
0.219918
0.216702
0.212529
0.210762
0.216055
0.228248
0.222825
0.22388
0.214522
0.22576
0.223673
0.215136
0.219179
0.217756
0.218378
0.217558
0.214951
0.217425
0.231791
0.231619
0.231463
0.228423
0.231738
0.229395
0.231247
0.240945
0.234551
0.243573
0.232934
0.229463
0.227705
0.225667
0.227869
0.227015
0.231974
0.231763
0.22864
0.234476
0.227113
0.231155
0.227943
0.231563
0.229121
0.230163
0.2339
0.230826
0.230096
0.229433
0.23211
0.230468
0.225503
0.223356
0.223449
0.22926
0.23016
0.226385
0.206406
0.20963
0.207692
0.207338
0.208368
0.211893
0.207329
0.220962
0.216651
0.219719
0.217626
0.21596
0.218339
0.219238
0.231248
0.22785
0.232826
0.227972
0.229774
0.227524
0.227306
0.222534
0.218579
0.218613
0.227581
0.222807
0.225049
0.221353
0.216355
0.217767
0.216424
0.21543
0.216903
0.215318
0.217047
0.213553
0.217752
0.216502
0.217912
0.213882
0.218547
0.215117
0.224821
0.225455
0.228344
0.223935
0.217677
0.220546
0.221971
0.230447
0.226567
0.225871
0.231649
0.216558
0.223831
0.220049
0.223185
0.225341
0.217906
0.228967
0.231261
0.22099
0.228259
0.228805
0.226297
0.229284
0.226058
0.223068
0.219952
0.219556
0.217102
0.224399
0.216441
0.220116
0.213157
0.204564
0.206125
0.21009
0.212575
0.212673
0.210835
0.218428
0.219238
0.21873
0.218526
0.21813
0.178534
0.220381
0.21923
0.215589
0.216698
0.216818
0.220653
0.215315
0.198955
0.195103
0.199003
0.203197
0.199144
0.198933
0.200368
0.222485
0.225104
0.214288
0.21576
0.215476
0.211878
0.215625
0.215806
0.215629
0.215596
0.207413
0.215585
0.214918
0.209756
0.215326
0.221066
0.206374
0.218736
0.215271
0.216162
0.219209
0.218634
0.218622
0.218549
0.187072
0.189346
0.18943
0.187687
0.188356
0.188208
0.202783
0.201722
0.203136
0.199525
0.203461
0.200453
0.203759
0.199798
0.195348
0.198444
0.195864
0.198717
0.196632
0.198041
0.190858
0.191112
0.187587
0.187889
0.189705
0.190237
0.188131
0.190402
0.186583
0.198727
0.195743
0.198819
0.198979
0.19862
0.197947
0.199761
0.201305
0.204016
0.202303
0.203849
0.204968
0.212961
0.200674
0.193628
0.203298
0.216825
0.212674
0.21412
0.220672
0.216425
0.215288
0.220733
0.20403
0.20373
0.201497
0.199685
0.206149
0.199171
0.20248
0.209094
0.209471
0.207219
0.211286
0.210474
0.214053
0.207745
0.202208
0.215972
0.206487
0.20553
0.20169
0.205077
0.206324
0.207186
0.203482
0.195114
0.196719
0.191358
0.200654
0.195853
0.1928
0.196951
0.194872
0.192901
0.192558
0.198564
0.189852
0.19298
0.180355
0.19967
0.196725
0.199327
0.196524
0.196095
0.199709
0.197387
0.196932
0.202746
0.197649
0.201061
0.198689
0.200255
0.199421
0.203575
0.203146
0.206893
0.206696
0.204593
0.205672
0.206246
0.222766
0.21843
0.218969
0.217565
0.21996
0.218143
0.218787
0.206995
0.206529
0.202452
0.20429
0.205543
0.206311
0.203428
0.214007
0.210929
0.215724
0.211461
0.212592
0.21087
0.212382
0.209931
0.209768
0.214111
0.212567
0.210625
0.209513
0.212135
0.206341
0.207444
0.20326
0.206168
0.205417
0.206393
0.20595
0.198095
0.194101
0.19963
0.192188
0.195378
0.202405
0.189787
0.188582
0.185199
0.186619
0.196896
0.196036
0.186659
0.189855
0.202829
0.208049
0.233428
0.233538
0.225469
0.241252
0.233815
0.231972
0.237428
0.231817
0.231408
0.233663
0.210158
0.219753
0.220812
0.226934
0.221722
0.24228
0.245799
0.245443
0.252334
0.250845
0.244955
0.251431
0.241435