/*--------------------------------*- C++ -*----------------------------------*\
| =========                 |                                                 |
| \\      /  F ield         | OpenFOAM: The Open Source CFD Toolbox           |
|  \\    /   O peration     | Version:  v1612+                                |
|   \\  /    A nd           | Web:      www.OpenFOAM.com                      |
|    \\/     M anipulation  |                                                 |
\*---------------------------------------------------------------------------*/
FoamFile
{
    version     2.0;
    format      ascii;
    class       surfaceScalarField;
    location    "100";
    object      phi;
}
// * * * * * * * * * * * * * * * * * * * * * * * * * * * * * * * * * * * * * //

dimensions      [0 3 -1 0 0 0 0];

internalField   nonuniform List<scalar> 
46463
(
2.75117e-09
-4.40013e-10
-6.42892e-09
4.11776e-09
-1.17301e-09
4.06138e-09
4.0583e-09
-6.94667e-09
-5.28757e-09
-6.70591e-09
6.30742e-09
5.68607e-09
6.46406e-09
6.54317e-10
-1.24059e-08
-2.42378e-09
3.58761e-10
2.15948e-09
-9.44981e-11
5.4472e-10
3.75864e-09
-5.99046e-09
1.68712e-09
1.61775e-09
-2.65119e-09
-2.59554e-09
3.62901e-09
8.36135e-09
-3.60595e-09
-3.99871e-09
-7.56693e-10
5.25053e-09
-5.75465e-09
-3.71091e-09
4.21498e-09
-8.43193e-10
-2.56399e-09
9.07455e-09
-5.66739e-09
-3.00689e-09
1.45372e-08
-1.27771e-08
1.24681e-09
1.69732e-09
-8.38279e-09
6.71929e-09
-3.37833e-11
6.08649e-09
7.18193e-09
-5.05546e-09
-8.21296e-09
-4.58097e-09
4.19558e-09
1.91771e-09
-1.53233e-09
-4.27403e-09
-1.20279e-09
-4.17837e-09
9.65519e-09
-1.08626e-08
1.2491e-08
-5.9024e-09
-4.37638e-09
2.63163e-09
3.89176e-09
-2.147e-09
6.69193e-09
-5.26755e-10
1.89737e-09
-8.06255e-09
5.813e-09
-8.3966e-09
9.27552e-09
-8.25064e-10
1.61197e-09
-3.1757e-09
2.38879e-09
-1.03134e-09
-1.21077e-09
6.88343e-09
-4.64132e-09
-1.53013e-09
1.28148e-09
5.73254e-09
-5.48389e-09
-9.96542e-10
-1.0913e-09
2.04938e-09
3.8373e-11
-2.28041e-09
-7.99315e-10
3.12793e-09
-4.81885e-11
2.81201e-09
2.60899e-09
-5.22203e-09
-1.98974e-10
-4.63892e-09
-4.16739e-09
3.55122e-09
5.25508e-09
3.20471e-09
-9.07872e-10
-4.89495e-09
2.59811e-09
4.28217e-09
-2.32347e-09
-7.7883e-10
-1.1798e-09
-4.11522e-09
1.81765e-09
-2.28714e-10
2.52622e-09
-6.29386e-09
8.67754e-10
7.71717e-09
-2.29105e-09
-2.2096e-09
2.89955e-09
-6.67954e-10
-2.20322e-11
-1.91645e-09
7.01971e-09
-1.48108e-08
9.70757e-09
-1.67923e-09
2.14566e-09
-5.20384e-10
5.40719e-11
6.66586e-10
9.53417e-09
-3.09949e-09
-7.10125e-09
-5.68053e-09
-2.15479e-09
5.5289e-09
2.30634e-09
2.1746e-09
-1.35269e-08
6.71221e-09
4.64012e-09
3.73099e-09
-5.0266e-09
-3.24601e-10
1.62022e-09
2.33045e-09
-3.13466e-09
9.91053e-10
-1.86823e-10
-1.40061e-09
2.64234e-09
-1.23515e-09
-6.66764e-12
5.63057e-10
-1.65233e-09
-1.38243e-09
2.47181e-09
-3.02087e-09
4.10729e-09
-1.01823e-09
-6.81993e-11
7.03101e-09
-1.24135e-09
1.42806e-09
-7.21771e-09
-2.65492e-09
-8.63309e-09
1.26999e-09
1.0018e-08
2.21933e-09
-5.662e-09
1.96309e-09
1.47959e-09
-3.76186e-09
7.0096e-09
4.58362e-09
-7.83137e-09
4.04735e-09
3.8635e-09
3.10292e-09
-1.10138e-08
-3.01366e-09
-2.57763e-09
3.73943e-09
1.85186e-09
-4.65074e-09
-1.48716e-09
9.7178e-10
5.16614e-09
3.5467e-09
3.45102e-09
-1.39026e-09
-5.60745e-09
1.43376e-09
-5.70513e-09
3.61236e-11
4.23524e-09
-8.19603e-09
-2.59633e-09
2.11846e-09
8.67391e-09
-2.81292e-09
6.34357e-09
2.39635e-09
-5.92698e-09
-6.65236e-10
-4.64644e-09
8.02956e-09
-2.7179e-09
2.75176e-09
-1.33972e-09
-1.39413e-09
-1.77912e-11
1.25653e-09
3.20279e-09
-3.02556e-09
1.04178e-09
1.98768e-09
-2.82055e-09
-2.09129e-10
-1.19616e-09
7.17073e-09
4.29758e-09
-1.02721e-08
-5.55128e-09
7.38546e-09
-2.12926e-09
2.95077e-10
-3.34405e-09
1.43127e-09
1.98249e-09
-6.97199e-11
1.03546e-08
2.87317e-09
1.56703e-09
-1.47949e-08
-4.96065e-09
3.57103e-09
1.3852e-09
4.4263e-12
-2.03469e-09
2.57673e-09
-6.77282e-10
1.35249e-10
-6.11243e-10
1.33877e-09
-7.37226e-10
9.72461e-12
-2.71896e-09
-3.18168e-09
-4.97323e-09
8.87102e-09
2.12986e-09
-6.57124e-09
-4.42964e-09
3.87865e-09
-3.71483e-09
1.79707e-10
-3.43525e-10
3.84855e-09
-4.66293e-09
4.69303e-09
-5.46489e-09
3.94521e-09
-1.04488e-11
7.17232e-09
-3.68448e-09
-1.315e-10
-3.35632e-09
7.28612e-09
-7.26749e-09
5.35133e-09
-5.36996e-09
2.55891e-09
-6.82692e-09
3.35273e-09
9.15274e-10
6.19681e-09
1.07955e-08
-9.4448e-09
-7.54752e-09
-1.24823e-09
6.48026e-09
-2.11967e-09
-3.11235e-09
2.42924e-09
5.26644e-09
-1.73681e-09
-5.95888e-09
-1.11693e-09
4.98754e-09
-4.40379e-09
5.33186e-10
5.05545e-09
-6.01814e-09
-1.54238e-10
-1.33181e-09
-3.04872e-09
4.30222e-09
7.83007e-11
-9.11732e-11
4.5808e-09
-6.86767e-09
2.37804e-09
-1.27298e-09
-2.3894e-09
3.62193e-09
4.04507e-11
4.18369e-09
9.76483e-09
-9.44428e-09
-4.50424e-09
3.16097e-09
-7.98177e-09
2.53076e-09
2.29005e-09
5.3198e-09
-6.2331e-09
3.93745e-09
-3.97658e-09
3.77013e-09
-3.83373e-09
1.11685e-08
-3.15109e-09
2.85348e-09
-2.74974e-09
1.01866e-08
-7.79314e-09
-4.8733e-09
2.47981e-09
8.00772e-09
-1.05335e-08
-8.16099e-09
1.06868e-08
3.97775e-09
4.61407e-09
-3.48664e-09
8.11811e-10
7.97764e-09
-5.30281e-09
9.45964e-09
-9.67907e-09
-3.2672e-09
4.65098e-09
6.40813e-10
-4.88835e-09
-4.03439e-10
4.01691e-09
-6.05531e-09
3.1115e-09
-1.07308e-09
-3.70566e-09
2.0702e-09
1.84921e-09
-2.13739e-10
-5.11744e-09
-6.24241e-10
-2.43111e-10
5.98481e-09
3.11086e-09
-3.21384e-09
2.78489e-10
-1.75522e-10
3.11393e-09
1.02e-09
-1.80843e-12
-4.13211e-09
3.02411e-09
-6.0066e-09
2.15743e-09
-4.64076e-09
8.36273e-09
-9.60805e-10
-2.76117e-09
-6.89075e-09
2.29997e-09
4.62683e-09
-3.6054e-11
4.57947e-10
-4.2301e-09
3.72523e-09
4.69373e-11
-1.61917e-09
2.86897e-09
-1.24396e-09
-5.83487e-12
2.94702e-09
3.1394e-09
-5.94635e-09
-1.40021e-10
4.05001e-09
-3.49752e-09
4.62289e-09
-5.17539e-09
-4.02881e-09
3.86379e-09
4.89171e-09
-4.72668e-09
-7.90036e-10
1.11934e-08
-6.35335e-09
2.24069e-09
2.31384e-09
-5.31367e-09
7.59168e-10
5.03345e-09
-5.77546e-09
3.81628e-09
-3.07428e-09
1.5888e-08
-7.26683e-09
-2.53469e-09
-1.93464e-09
-4.56655e-09
6.49177e-09
9.44079e-12
2.06329e-09
8.78518e-09
5.03953e-09
1.03962e-09
5.87241e-09
-6.80814e-09
-1.03878e-10
-3.47933e-09
6.02567e-09
-7.49128e-09
4.94494e-09
-1.13473e-09
-3.678e-09
2.69282e-09
2.11994e-09
-1.13595e-09
1.32626e-09
1.26464e-09
-1.45495e-09
2.69767e-09
-6.16084e-10
-5.6872e-09
3.60563e-09
-4.3938e-09
-3.19218e-09
4.94772e-09
2.63827e-09
2.15864e-09
-2.215e-09
-1.61329e-09
1.66963e-09
4.47408e-09
6.49079e-09
-8.98044e-09
-1.98439e-09
-6.93565e-09
6.01721e-09
1.10096e-09
-1.8247e-10
2.98888e-09
-3.78009e-09
2.39216e-09
-1.60094e-09
3.14842e-09
-1.30899e-09
-1.85698e-09
1.75472e-11
-3.15084e-09
-5.59079e-09
4.95203e-09
3.78962e-09
1.04231e-09
-3.12455e-09
4.53364e-09
-2.4514e-09
-3.5027e-09
-2.09557e-09
5.46164e-09
1.36652e-10
-2.73313e-09
-5.92616e-10
6.83644e-10
2.6421e-09
1.98787e-10
-7.57976e-09
-1.53522e-10
-1.10918e-09
-2.78863e-09
7.79458e-09
-3.89677e-09
4.11304e-09
-2.77717e-10
1.3235e-11
-4.55865e-09
4.63947e-09
1.79611e-10
-2.60429e-10
5.72769e-09
4.16964e-09
-4.77779e-09
-5.11951e-09
-5.97618e-09
3.7608e-09
-5.05021e-09
7.26561e-09
-2.50338e-09
3.14494e-09
2.38452e-09
-3.02601e-09
-3.08727e-09
-7.03293e-09
5.92856e-09
4.19165e-09
3.70604e-09
-5.24803e-09
6.77731e-09
-5.23531e-09
4.29688e-09
-1.12166e-09
-3.23605e-09
6.08623e-11
-7.10284e-09
1.12004e-09
-2.75307e-09
8.73588e-09
2.79208e-09
-5.98538e-09
-1.18308e-09
3.78489e-09
-8.00295e-09
-1.29985e-10
4.34804e-09
-6.80692e-09
-3.26053e-09
1.93004e-09
8.13742e-09
-2.4853e-09
6.28008e-09
-9.21189e-11
-3.70266e-09
1.03404e-09
-8.40175e-10
2.98124e-09
-3.1751e-09
-1.68686e-09
-1.03049e-09
8.54654e-10
1.86272e-09
-6.33763e-09
-2.17384e-09
5.14844e-09
3.36305e-09
-1.98626e-09
7.40249e-09
-4.36086e-09
-1.05526e-09
-8.11473e-09
-8.24772e-10
4.5465e-09
4.39304e-09
-3.88465e-09
1.38587e-09
-5.61592e-09
1.90159e-09
-1.80786e-09
-9.80993e-10
8.87234e-10
-3.76238e-10
-4.50664e-09
4.88856e-09
-5.67311e-12
2.2327e-09
2.60939e-09
-3.79457e-09
-1.0475e-09
-1.5494e-09
-1.60828e-09
1.47308e-09
1.6846e-09
4.03172e-09
-2.18516e-09
2.58757e-09
-4.43412e-09
3.62806e-09
-1.61451e-09
-2.04147e-09
2.79276e-11
3.03277e-09
-1.51499e-09
-1.70115e-09
1.83377e-10
7.02548e-09
4.08862e-09
-8.38833e-09
-2.72576e-09
7.92001e-09
-4.3114e-09
-2.92877e-09
-6.79859e-10
-3.44818e-09
2.95555e-09
-1.56599e-09
2.05857e-09
4.45764e-09
2.62675e-10
-4.46125e-09
-2.59071e-10
4.9455e-09
9.00493e-10
3.61365e-09
8.82738e-09
-5.16208e-09
3.70994e-09
1.23864e-09
-2.97586e-10
6.56136e-09
-4.84857e-09
9.45573e-09
-5.25598e-10
-4.41042e-09
7.69462e-09
-2.75861e-09
-1.99246e-09
-1.69138e-09
3.57974e-09
1.04093e-10
9.52399e-10
1.08756e-09
-1.81575e-09
-2.24161e-10
6.75513e-09
-4.21286e-09
-3.74226e-09
1.19997e-09
1.29007e-09
-2.44906e-09
1.32747e-09
-1.68458e-10
6.18232e-09
-2.43759e-09
-2.70243e-09
3.16954e-09
-6.53032e-09
3.54374e-09
-1.82973e-10
-1.70704e-09
3.84924e-09
1.54876e-09
-3.69098e-09
2.44534e-09
-1.80439e-09
3.67271e-09
-4.31366e-09
-2.02963e-09
1.36052e-09
-1.46702e-09
2.13611e-09
-6.13624e-10
4.42058e-09
-5.1854e-09
1.37844e-09
2.58495e-09
-3.00404e-09
-1.95634e-09
2.37542e-09
3.11984e-09
4.44013e-09
-2.73823e-10
2.46121e-11
-5.81502e-09
6.51136e-09
-7.2093e-10
8.52299e-09
2.85752e-09
-2.11268e-09
-9.26781e-09
-3.39629e-09
3.30618e-09
-1.74023e-09
1.83039e-09
-6.24413e-09
2.73646e-09
1.00435e-09
5.64072e-10
6.6976e-09
-3.12556e-09
-4.13612e-09
1.09078e-09
-1.77096e-09
2.76138e-09
-2.08121e-09
-1.73055e-10
3.52784e-09
-3.45087e-09
9.60844e-11
1.4342e-09
2.76822e-09
-4.30278e-09
1.00367e-10
-8.93448e-09
5.04892e-09
9.05074e-09
-5.16511e-09
-7.20739e-10
-4.62759e-09
-6.64943e-09
1.19978e-08
-2.61508e-09
9.05332e-09
-6.5491e-09
1.10868e-10
-7.31303e-10
-5.30048e-10
1.29922e-09
-3.7872e-11
-5.28351e-09
3.36461e-09
6.83648e-09
-4.91758e-09
2.18678e-09
-1.19381e-08
1.31515e-08
-3.40013e-09
2.65453e-09
2.38164e-09
-4.02293e-11
-3.27633e-09
5.51963e-09
-3.08188e-09
8.38638e-10
1.88034e-09
-1.70525e-09
2.96136e-09
-3.13648e-09
6.73019e-10
1.29676e-09
-8.94432e-11
-6.24901e-09
-1.10852e-09
1.29319e-09
6.16472e-09
-5.29436e-10
-1.24867e-09
-4.38661e-09
-8.55394e-09
3.86325e-09
3.52777e-09
1.16292e-09
-9.39578e-10
2.03033e-09
-3.6873e-09
2.59655e-09
3.1202e-09
2.78726e-09
2.96353e-09
-3.98048e-09
-2.28148e-09
6.07906e-09
1.82902e-10
-3.3327e-09
2.08626e-09
-3.08458e-10
1.55508e-09
3.62522e-09
-4.85603e-09
-2.1018e-09
2.90386e-09
-4.04266e-10
-2.51452e-09
1.4943e-11
-1.83977e-09
-3.11557e-09
-5.689e-10
5.52427e-09
2.5892e-09
1.30874e-09
-1.37929e-09
-2.51874e-09
2.39722e-09
-6.01452e-09
3.71891e-09
-1.01592e-10
1.85793e-09
-2.33984e-09
-1.51886e-09
2.00076e-09
-1.60448e-09
-2.57771e-09
1.53393e-10
-3.45894e-09
5.585e-09
-2.16372e-09
3.76667e-11
-5.86109e-09
2.12225e-09
4.28355e-09
1.76714e-09
6.34235e-10
1.60956e-09
-4.01088e-09
1.60217e-10
-2.14573e-09
3.43661e-10
1.64182e-09
1.28826e-09
3.33919e-09
-4.53028e-09
-9.71646e-11
-3.10976e-09
-7.0856e-09
2.15508e-09
-3.5999e-09
-2.00194e-09
3.44677e-09
-2.64923e-09
4.18653e-09
9.36864e-10
-2.47416e-09
3.33393e-09
3.73901e-09
-9.00219e-10
-6.17272e-09
1.06053e-09
-3.26854e-09
-9.63201e-10
3.17125e-09
6.10039e-09
-9.22332e-09
3.03177e-09
-1.72904e-09
5.39456e-09
-3.776e-09
1.10484e-10
3.85867e-09
-2.50673e-09
-1.62451e-09
2.72573e-10
2.99603e-09
3.41888e-09
-4.95721e-09
-1.4577e-09
-5.0603e-09
2.70367e-09
7.25047e-09
-4.89385e-09
-1.30443e-09
-4.2796e-09
3.12473e-09
2.45932e-09
-2.60574e-10
3.36035e-09
-3.16182e-09
6.20452e-11
-1.92057e-09
2.97129e-09
-1.1288e-09
7.8098e-11
1.2038e-09
5.53314e-10
3.80935e-09
3.17831e-09
-8.59038e-09
5.66305e-09
-2.50973e-10
-5.82163e-09
5.53915e-09
9.19813e-09
-4.15564e-09
-5.66446e-09
-5.29225e-10
1.03493e-08
-2.95654e-09
1.70451e-09
-1.27315e-09
2.52518e-09
-1.3045e-09
2.12061e-09
-8.68137e-10
5.20332e-11
2.13057e-09
4.35195e-10
-3.70171e-09
-1.5134e-09
1.70735e-09
1.93663e-09
-1.08644e-08
6.13351e-09
4.96281e-09
-2.31879e-10
-3.76627e-09
6.2748e-09
-2.30303e-09
-2.05513e-10
-2.09604e-09
-3.10415e-09
-6.7455e-10
5.87471e-09
3.99219e-09
-2.29398e-09
-1.7313e-09
3.30466e-11
-3.42031e-09
-2.76995e-10
3.71152e-09
-1.42198e-11
-2.17205e-09
3.76045e-09
1.36341e-09
-2.9518e-09
3.88594e-09
-1.88809e-09
-3.10449e-09
1.10664e-09
-2.98849e-09
-2.71474e-09
5.64005e-09
6.31615e-11
2.26129e-09
3.41528e-09
-5.58263e-09
-9.39057e-11
-6.65646e-09
-2.54376e-09
6.70115e-09
2.49906e-09
-4.03877e-10
-4.0872e-09
2.20496e-09
2.28611e-09
5.72272e-09
-2.46192e-09
-5.53724e-09
2.27645e-09
6.44048e-09
-3.37573e-09
1.04787e-10
3.30154e-09
-2.6e-09
-6.50512e-10
-5.1063e-11
2.57888e-09
1.73114e-09
-5.28673e-09
9.76706e-10
2.2869e-09
-2.14792e-09
-2.63248e-09
2.49351e-09
1.60581e-09
-8.89905e-10
-2.02039e-09
-2.14645e-09
-1.12004e-09
3.23221e-09
3.42915e-11
-2.85416e-09
3.63085e-09
-3.1455e-09
2.36881e-09
9.40316e-10
1.26706e-09
-8.6723e-11
-2.52297e-09
-2.99287e-09
1.54443e-09
2.44489e-09
-3.98347e-09
-5.8345e-12
3.51189e-09
-3.43122e-09
4.36319e-09
-4.44384e-09
2.31036e-09
-1.36449e-09
-4.77075e-10
-4.68938e-10
2.00587e-09
-2.26506e-09
2.43869e-10
1.53145e-11
4.41934e-09
6.36217e-09
-2.42016e-09
5.83802e-09
-4.20316e-09
-1.79858e-09
1.63776e-10
-2.96569e-09
2.978e-09
-2.43612e-09
-3.11812e-09
1.96565e-09
1.24421e-09
-9.17732e-11
3.87806e-09
-2.85697e-09
9.57733e-10
-1.97881e-09
-6.26543e-09
7.61506e-09
2.52843e-09
-6.99329e-09
3.65611e-09
2.06638e-10
3.13053e-09
3.12629e-09
-5.93766e-09
2.91953e-09
-1.08208e-10
3.26505e-09
2.21267e-09
-2.35143e-09
2.92199e-09
5.8683e-09
1.59992e-09
-1.03902e-08
2.14181e-09
-8.42468e-09
1.60232e-09
4.68054e-09
-3.22814e-09
1.3918e-09
1.97854e-09
-1.42209e-10
1.00341e-09
3.07771e-09
-5.34342e-09
1.26234e-09
-5.89226e-09
2.45365e-09
3.71515e-09
-2.76519e-10
4.34941e-09
2.1962e-09
-6.42865e-09
-1.16948e-10
-3.3242e-09
3.38063e-09
4.37968e-09
-4.4362e-09
-5.46867e-09
3.80742e-09
5.37881e-10
1.12334e-09
-1.1148e-09
2.56437e-09
-1.47244e-09
2.29049e-11
-1.6419e-09
-2.31104e-09
3.843e-09
1.09991e-10
5.54801e-10
3.36338e-09
2.67994e-09
-6.59812e-09
1.13688e-09
3.31546e-09
-4.2818e-09
-1.70552e-10
-3.94937e-09
1.35099e-10
9.52903e-12
1.40994e-09
-1.40995e-09
1.49769e-09
-1.49768e-09
5.32775e-09
-2.04343e-09
-5.92013e-09
2.63579e-09
-1.47418e-09
-2.84776e-09
4.22467e-09
9.72642e-11
-1.6506e-09
5.50418e-09
-3.20691e-09
3.35747e-10
2.3399e-11
-4.87215e-09
-3.78192e-10
-2.50437e-09
-2.41031e-09
4.25075e-11
-5.89006e-09
-4.2671e-09
8.56449e-09
1.59273e-09
5.40513e-10
-3.69832e-09
3.19217e-09
-3.439e-11
4.11546e-09
-6.8906e-09
3.60935e-09
5.04226e-10
-9.99613e-10
-3.27393e-09
2.57894e-09
4.40106e-09
3.49356e-09
1.41579e-09
-3.03506e-09
4.28826e-09
2.82725e-11
-3.36697e-09
-4.83097e-09
6.94973e-09
1.78465e-09
4.27081e-10
-1.98112e-09
-2.30544e-10
4.96434e-10
-2.73855e-09
4.02676e-09
5.87626e-09
2.48093e-09
-1.87693e-09
3.33368e-09
1.54785e-09
-1.62484e-09
-3.2567e-09
3.28794e-09
3.3625e-09
-3.31676e-09
3.54753e-09
1.59493e-09
-2.95138e-09
-2.19109e-09
1.69733e-09
4.77449e-09
-1.58267e-09
-3.61786e-09
-1.03261e-09
1.44365e-09
3.20681e-09
-1.32031e-09
3.05479e-09
-1.71013e-09
-2.43536e-11
5.79391e-09
-2.77147e-09
-3.10357e-09
8.11721e-11
-1.96262e-09
-1.84243e-09
1.1197e-09
2.68537e-09
2.30541e-09
-3.94111e-09
1.78299e-09
-1.47297e-10
3.31512e-09
3.66144e-09
-3.33837e-09
7.23513e-09
2.40845e-09
-6.88292e-09
-2.76066e-09
-5.43507e-09
-5.78066e-11
-3.81498e-09
4.75423e-09
-2.33064e-09
1.39138e-09
8.02322e-10
7.69326e-09
-4.81385e-09
-3.68173e-09
1.09238e-09
-2.10944e-09
-1.17674e-10
1.02019e-09
2.78076e-09
2.32504e-09
-6.12598e-09
-3.15268e-09
-3.77043e-09
1.38547e-09
-4.19285e-09
1.84791e-09
-1.82335e-10
2.52728e-09
3.43027e-09
-4.55951e-09
-1.62398e-09
2.75322e-09
3.17378e-09
3.47239e-09
-6.52782e-09
-1.18337e-10
4.75503e-09
1.52684e-09
-2.57132e-09
-3.71054e-09
2.90927e-09
3.0364e-09
-5.79556e-09
-1.50071e-10
-5.66706e-09
1.88983e-09
3.89284e-09
-1.15617e-10
4.9786e-10
-2.4256e-09
-4.17103e-09
6.0988e-09
3.54995e-09
-5.14719e-09
1.56338e-09
3.38711e-11
2.21687e-09
6.80848e-09
-3.58549e-09
-5.43985e-09
-2.65363e-09
-5.27849e-09
4.16366e-09
3.7685e-09
1.03558e-09
-2.08307e-09
1.1456e-09
-9.81062e-11
-4.93595e-09
6.05002e-09
6.81673e-09
-7.93079e-09
5.87788e-09
-4.13117e-09
1.11968e-09
-2.86639e-09
-5.22745e-09
1.14469e-11
2.14723e-09
3.0688e-09
6.27777e-09
2.23589e-09
-2.48516e-09
-6.0285e-09
-1.39076e-10
-2.38177e-09
-3.75075e-09
6.27164e-09
4.11512e-10
3.56495e-09
2.77867e-09
-2.7507e-09
1.6955e-09
2.82235e-09
-8.20667e-10
-1.96846e-09
7.36378e-09
-4.57462e-09
-1.80179e-09
3.20162e-09
-1.42942e-09
2.96039e-11
-3.17072e-09
2.62869e-09
-9.65442e-10
1.5076e-09
-7.0591e-09
4.03233e-09
-2.25804e-09
5.28482e-09
2.38809e-10
1.9631e-09
-2.13663e-09
-6.5275e-11
4.01156e-09
8.49467e-11
-5.10582e-09
1.00933e-09
1.66438e-09
-1.73738e-09
3.59598e-11
3.70121e-11
2.11778e-09
2.10552e-09
9.64031e-10
-4.3714e-09
3.42275e-09
-1.53735e-11
-5.70556e-09
2.66315e-09
-6.74486e-10
3.7169e-09
-5.18817e-10
1.44336e-09
-9.34525e-10
9.98145e-12
3.26403e-09
-2.16487e-09
-1.11157e-09
1.23998e-11
2.80165e-09
-2.46885e-09
-6.36808e-09
6.03526e-09
8.1118e-10
-2.06512e-09
-1.8642e-09
-1.48933e-09
4.99093e-09
-3.54596e-09
4.43899e-11
-5.48526e-10
-2.24362e-09
-1.73537e-10
6.92684e-09
-2.30829e-09
-4.35919e-09
-2.59398e-10
1.58017e-09
-1.77839e-09
2.29794e-09
-2.09971e-09
-1.68533e-09
-4.75107e-09
-3.87358e-09
1.54535e-09
2.67175e-09
-5.38777e-09
-2.41625e-09
5.22846e-09
-2.82145e-09
2.50823e-09
-3.37913e-09
3.91134e-09
7.86666e-10
2.3258e-09
1.27191e-08
-7.70201e-09
-4.51924e-09
-1.92435e-09
-1.82406e-09
2.95962e-09
7.88842e-10
-3.52832e-09
7.80988e-10
-1.06834e-10
-2.19512e-09
5.25495e-09
-3.0514e-09
-8.25881e-12
1.75986e-09
2.16327e-11
-1.71874e-09
-6.27427e-11
-2.53466e-09
5.69458e-09
-1.88051e-09
-1.27929e-09
4.13341e-09
-6.54131e-09
-1.9859e-09
7.49255e-09
1.77881e-10
-3.93442e-09
-3.73601e-09
3.80572e-09
-1.71569e-09
-2.24136e-09
1.5131e-10
-2.91339e-09
4.81581e-09
-2.05148e-09
1.49054e-10
3.56715e-09
-1.38563e-09
2.89582e-09
-5.07734e-09
-4.23293e-09
2.18517e-09
2.60256e-09
1.81351e-09
1.51654e-09
-7.4096e-10
3.38283e-09
1.54523e-09
-4.81105e-09
-1.17055e-10
-3.95747e-09
-2.69018e-09
4.98722e-09
1.66043e-09
-4.62332e-09
7.58202e-09
-2.86047e-09
-9.82227e-11
1.14792e-09
-3.8518e-09
2.99177e-09
-2.87897e-10
-5.60655e-09
-3.71642e-09
6.56997e-09
2.75301e-09
-3.01934e-09
5.70644e-09
2.18893e-11
-2.70897e-09
6.63071e-09
1.51723e-09
-3.67383e-09
7.93348e-09
3.05141e-09
-4.35416e-09
-4.83879e-09
-1.08019e-09
2.21051e-09
3.70846e-09
-5.04374e-09
3.7349e-09
-1.76291e-09
3.07173e-09
4.23582e-09
3.13818e-09
-7.14219e-09
-2.31817e-10
-5.24915e-09
7.56204e-09
6.0107e-09
-5.66591e-09
-4.35667e-09
1.58521e-09
8.43734e-09
-4.74561e-09
2.59045e-09
2.24546e-09
-9.02813e-11
-1.81092e-09
-1.08058e-08
4.00989e-09
8.60681e-09
2.80159e-09
6.86259e-09
-3.02251e-09
-6.64168e-09
-4.06237e-09
3.35355e-09
-4.73351e-09
5.4423e-09
-3.44417e-09
1.82636e-09
1.75461e-09
-1.36766e-10
-7.06324e-10
-9.15854e-10
1.65725e-09
-3.49883e-11
-2.15043e-09
6.54239e-10
1.5672e-09
-7.0981e-11
2.76829e-09
-1.02736e-09
-2.8221e-09
1.08112e-09
-7.07326e-09
4.00945e-09
4.88192e-09
-1.8181e-09
-3.56458e-09
1.34549e-09
2.24244e-09
-2.33725e-11
4.05422e-10
-7.16213e-09
-2.58122e-09
9.33796e-09
4.31683e-09
-3.47543e-09
-2.46057e-09
2.88363e-09
-4.82817e-09
2.09474e-09
-1.50196e-10
5.59654e-09
2.20816e-09
-7.54457e-09
-2.60135e-10
9.32142e-09
3.88446e-09
-7.60933e-09
5.27249e-09
4.07153e-10
-4.8116e-09
-8.6805e-10
3.68964e-09
-1.70319e-09
-2.26545e-09
2.79051e-10
7.70475e-09
-4.25668e-09
-3.4924e-09
4.43241e-11
3.49957e-09
-3.07151e-09
8.24955e-10
-1.25292e-09
-3.97297e-09
1.63356e-09
2.36503e-09
-2.56109e-11
3.20785e-09
1.11997e-09
-5.25629e-09
9.28481e-10
3.76876e-10
-9.40079e-10
2.70501e-09
-3.64197e-09
1.95127e-09
3.29458e-09
-2.38112e-09
-9.47702e-10
3.42996e-11
-4.11172e-10
-2.77384e-09
-3.79629e-10
1.66526e-09
2.8217e-09
-1.67423e-09
-2.81271e-09
-8.24906e-09
5.41557e-09
2.21305e-09
6.20488e-10
5.27693e-09
-6.39787e-09
-1.61221e-09
2.73316e-09
-2.28292e-09
2.21733e-09
1.83029e-10
-1.17452e-10
-1.36436e-09
-2.85798e-09
1.30916e-09
2.9132e-09
6.83921e-09
-3.23616e-09
-3.59013e-11
-2.65885e-09
6.13793e-09
-3.55215e-09
7.30509e-11
-2.66726e-09
1.43145e-09
2.73931e-09
-1.50348e-09
-1.37864e-09
-1.3477e-09
5.91847e-11
3.69355e-09
-1.96497e-09
-1.88558e-09
1.56972e-10
2.83216e-09
3.81678e-09
-2.4627e-09
-1.68288e-09
3.28806e-10
3.91158e-09
-4.85603e-09
2.96627e-09
-2.02181e-09
4.70341e-09
-4.07341e-09
-6.65447e-10
3.54555e-11
-1.2775e-09
3.55542e-09
-2.36596e-09
8.80331e-11
5.12297e-09
-3.51945e-09
-1.59016e-09
-1.33646e-11
-4.12624e-09
1.00522e-09
1.12479e-11
4.89464e-09
4.01514e-09
-7.23062e-09
-1.67917e-09
6.53277e-10
-1.55179e-09
1.00189e-09
-1.03421e-10
-5.84802e-09
2.6722e-09
3.29689e-09
-1.21071e-10
-3.33806e-09
1.72033e-09
3.33415e-09
-1.71642e-09
-4.66926e-09
8.08211e-09
-3.41442e-09
1.56635e-12
2.64253e-09
-3.43557e-09
2.2216e-09
-1.42855e-09
-2.73817e-09
5.7715e-09
-3.54117e-09
5.07851e-10
-4.53312e-10
-4.38989e-09
4.65277e-09
1.90427e-10
-1.28669e-10
2.82682e-09
-1.13278e-10
5.07336e-09
-1.51534e-09
-6.86514e-09
3.30711e-09
-4.10394e-09
5.42591e-09
-2.89459e-09
1.57262e-09
-1.7051e-09
5.45925e-09
-3.81725e-09
6.31025e-11
-5.43035e-10
1.39868e-09
-8.03419e-10
-5.22484e-11
2.06855e-09
-3.00506e-09
-1.28567e-09
2.22221e-09
-2.81076e-09
5.0108e-09
-3.51987e-09
1.31984e-09
5.74898e-09
-6.79659e-09
-4.06984e-09
-3.62369e-09
3.26797e-09
4.04534e-09
1.49455e-09
2.3076e-09
1.84505e-09
-5.64725e-09
2.46834e-09
4.26991e-09
-2.91441e-09
-3.82378e-09
4.30164e-09
1.99716e-09
-3.35177e-09
4.0954e-09
2.70056e-09
-1.00203e-09
-3.02582e-09
-2.1451e-09
3.27209e-09
1.89882e-09
-2.83854e-09
1.68119e-09
1.25546e-09
-9.8094e-11
-3.96859e-09
3.1136e-09
3.60689e-09
-2.75191e-09
-2.24339e-09
7.67765e-09
-4.08734e-09
-1.34692e-09
4.57525e-09
-2.18859e-09
4.2582e-11
3.76328e-09
5.28446e-09
-3.7813e-09
-2.11977e-09
1.3077e-09
1.75246e-09
-4.35819e-09
7.55225e-09
-3.99754e-09
8.03498e-10
-2.00459e-09
-1.58965e-09
1.82762e-09
1.76661e-09
-1.41974e-09
2.25812e-09
-8.92021e-10
5.36787e-11
-2.3324e-09
3.78599e-09
-3.69184e-09
2.23824e-09
-3.25998e-09
2.45086e-09
-6.5511e-09
7.36022e-09
-3.48994e-09
-2.56447e-09
1.55806e-10
-1.7332e-09
-1.59708e-09
5.58887e-10
1.94146e-09
-3.91709e-09
-1.68155e-11
-2.48072e-09
-2.81774e-09
3.0198e-09
2.27865e-09
-1.58282e-09
2.69057e-09
4.66923e-10
-1.57466e-09
3.82608e-09
-2.38097e-09
4.43115e-09
1.12711e-09
-2.56924e-09
-2.45998e-09
3.90212e-09
3.74608e-10
-2.647e-09
5.44247e-09
-3.17008e-09
3.01735e-09
2.29891e-09
-5.19932e-09
-1.16932e-10
-1.29686e-09
4.40759e-09
2.24407e-10
-3.33513e-09
1.5317e-09
-3.72884e-09
2.30934e-09
-1.12203e-10
5.72308e-09
-2.24634e-09
-4.64685e-11
-2.67693e-09
4.42853e-09
-1.83127e-09
7.96771e-11
-4.99804e-10
-4.26007e-09
4.5267e-09
2.33172e-10
4.85632e-09
-4.22677e-09
-2.74348e-09
2.11391e-09
-1.41058e-09
-2.91578e-09
4.24824e-09
7.81133e-11
-4.26528e-09
2.44814e-09
-4.976e-09
6.79313e-09
7.02953e-09
7.18466e-10
-4.55433e-09
-3.19367e-09
-1.87079e-09
1.47218e-09
5.2504e-09
-7.88913e-09
1.21515e-09
4.80318e-09
4.90941e-09
-2.28931e-09
-3.94038e-09
1.80256e-09
-4.02868e-09
-1.39172e-09
2.09763e-09
-7.98671e-10
2.4889e-10
-4.10298e-09
6.73402e-09
-2.67248e-09
4.14271e-11
-5.95585e-09
3.45752e-09
-4.69897e-09
7.19732e-09
3.48098e-09
-2.51167e-09
-6.94548e-09
5.60275e-10
4.52269e-09
-8.01826e-09
2.93536e-09
1.99692e-09
-4.81643e-09
4.40617e-09
-1.58663e-09
3.58329e-09
-8.65614e-10
-7.6152e-09
4.89753e-09
-5.61436e-09
-6.09388e-09
7.94197e-09
-5.29512e-09
3.13828e-09
4.70089e-09
-2.54407e-09
2.66121e-09
3.43227e-09
-5.95595e-09
-1.37528e-10
-3.1412e-09
5.74136e-09
6.10523e-11
-3.68856e-09
6.09835e-09
4.67523e-09
-7.08502e-09
-1.8776e-09
2.59669e-09
-6.89583e-10
-2.94927e-11
4.61964e-09
-1.76973e-09
2.71603e-09
-5.56594e-09
2.11989e-09
7.19157e-10
-7.18027e-10
4.1206e-09
-1.21361e-09
-3.08801e-09
1.81021e-10
-5.55193e-09
4.16496e-09
1.58513e-09
-1.98149e-10
3.82074e-09
-4.25269e-09
5.15321e-10
-8.3373e-11
-2.97204e-09
-2.50664e-09
5.32818e-09
1.50496e-10
-5.62566e-09
2.60412e-09
-2.22594e-09
5.24748e-09
3.32834e-09
-1.96392e-09
-7.86491e-11
-2.66107e-09
5.56591e-09
-2.84526e-09
-5.95709e-11
2.90364e-09
-2.11308e-09
3.41559e-09
-4.20614e-09
-3.84528e-09
1.82706e-09
2.2012e-09
-1.82988e-10
1.47109e-09
-8.20319e-10
-5.39819e-10
-1.10907e-10
-1.81592e-09
-2.45232e-09
1.35416e-09
2.91411e-09
-1.71371e-09
-1.7688e-09
3.47001e-09
1.25718e-11
-4.87656e-09
-2.93849e-09
6.46766e-09
1.34743e-09
-1.65013e-09
-2.85182e-09
-3.58619e-09
8.08816e-09
3.63287e-09
-1.92845e-09
-1.69233e-09
-1.20752e-11
-4.33125e-09
2.75107e-09
-3.48011e-09
1.34323e-09
7.22595e-10
4.75531e-09
-6.82113e-09
4.16276e-09
-2.02421e-09
-2.22814e-09
8.9577e-11
2.46758e-09
-3.64881e-09
1.40064e-09
-2.19427e-10
-3.91023e-09
-3.61961e-09
2.51734e-09
2.51522e-09
-1.26267e-09
-1.2814e-09
2.88849e-11
-1.13627e-09
7.58605e-09
-5.7244e-09
-7.25351e-10
3.71723e-09
-4.00544e-09
-8.80056e-11
9.59795e-10
-1.05759e-09
-4.60831e-09
4.70611e-09
4.76524e-09
-1.81939e-09
-2.9999e-09
5.40594e-11
-4.07206e-09
5.59527e-09
8.13431e-10
-2.33665e-09
-8.25197e-09
5.28188e-09
6.68731e-09
9.94678e-09
-1.19971e-09
-2.48339e-09
-6.26365e-09
-1.22276e-09
2.33105e-09
-1.12313e-09
1.4865e-11
1.30404e-09
2.7985e-09
3.59943e-10
-4.46248e-09
8.25466e-10
3.64345e-09
-4.52348e-09
5.45621e-11
2.77632e-10
3.67375e-09
3.96864e-09
1.68621e-09
-2.8831e-09
1.29481e-09
-9.79754e-11
4.21521e-09
-1.25691e-09
-1.1449e-09
1.50212e-08
1.07915e-09
-8.90124e-10
7.59765e-09
6.18739e-09
-8.50018e-09
-5.28486e-09
-4.04333e-09
3.59587e-09
9.58085e-10
-5.10608e-10
-4.92623e-09
-4.3964e-09
6.38618e-09
2.93644e-09
4.15089e-09
8.91425e-09
-8.68198e-09
-4.38316e-09
6.8712e-09
-2.97936e-09
2.59073e-10
-2.66688e-09
2.32845e-09
-2.10096e-10
3.01819e-09
-1.30963e-10
-4.51821e-09
1.63097e-09
2.09021e-09
-4.16487e-09
2.16552e-09
-9.09017e-11
-1.20511e-09
1.11328e-09
1.84882e-09
-1.75698e-09
-3.74655e-09
-9.00908e-09
3.32981e-09
9.42584e-09
2.32282e-09
-3.94441e-09
-2.03423e-11
8.03311e-10
-1.68253e-09
1.04755e-09
-1.68355e-10
-4.65801e-09
2.50078e-09
3.73959e-09
-1.58237e-09
-7.30385e-09
-1.2411e-09
5.85745e-09
2.68749e-09
-1.47249e-09
2.38057e-09
-1.0511e-09
1.43007e-10
-1.60029e-09
1.35839e-09
-1.23063e-09
-1.60679e-09
-1.39044e-09
2.94324e-09
5.3988e-11
3.25656e-09
2.59551e-09
-1.81566e-10
-5.97556e-09
1.09768e-09
4.26425e-09
-8.31451e-09
4.87182e-09
-2.03262e-09
5.47532e-09
8.14174e-09
2.92803e-09
-9.42079e-09
-1.64897e-09
-1.88699e-09
-2.26494e-09
2.05587e-09
6.31784e-09
-1.3422e-09
1.29916e-09
-1.44617e-09
5.67978e-09
-1.46708e-09
-2.76654e-09
-2.0345e-09
-1.00891e-09
2.9933e-09
5.01084e-11
5.40359e-09
-2.6974e-09
-3.22172e-09
5.15527e-10
1.25254e-09
-5.87583e-10
-1.16823e-11
6.5119e-10
-2.60105e-09
2.96986e-09
1.56029e-09
-1.38554e-09
-7.03731e-10
5.29041e-10
-1.48461e-09
1.86926e-09
1.87671e-09
-7.96631e-10
-5.72473e-09
4.78016e-09
1.74117e-09
2.1958e-09
-5.68489e-09
3.59578e-09
-1.0668e-10
-1.33437e-09
-2.79962e-09
7.16273e-11
4.88021e-10
-4.40145e-09
1.49638e-09
2.41703e-09
1.6121e-09
-2.60876e-09
1.18603e-09
-1.89333e-10
1.60121e-09
-5.88538e-10
-4.13796e-09
3.1253e-09
6.12986e-09
-2.41243e-09
-3.69213e-09
-2.53092e-11
-1.81083e-09
2.30144e-09
7.80506e-10
-1.27113e-09
1.51086e-09
2.36066e-09
-3.79309e-09
-7.84308e-11
6.08629e-09
-1.12785e-09
-1.84759e-09
-4.77573e-09
1.97501e-10
4.52037e-09
5.78561e-11
1.63998e-09
2.17751e-09
-1.72019e-09
-2.09731e-09
-3.2758e-09
4.35459e-09
5.61179e-10
-9.00709e-09
6.46206e-09
7.20883e-09
-4.66377e-09
1.16514e-09
-2.5691e-09
1.61359e-09
-2.096e-10
-1.89162e-09
3.27299e-09
-1.24303e-09
-1.38347e-10
3.22199e-09
-1.36842e-09
-2.37239e-09
-1.59423e-09
-3.03253e-10
1.98315e-09
-8.56625e-11
-1.27693e-09
-1.63927e-09
1.86018e-09
1.05601e-09
-1.32997e-09
-7.00108e-09
1.83405e-10
-3.47517e-09
2.31982e-09
1.25683e-09
-1.01491e-10
1.20443e-09
5.29334e-09
-7.61747e-09
1.1197e-09
-9.68161e-10
-3.42798e-09
6.52942e-09
-2.13328e-09
3.06545e-09
-4.83182e-09
1.86413e-09
-9.77345e-11
3.82099e-09
-4.36772e-10
-9.06327e-09
5.67904e-09
-7.29624e-10
-2.31224e-09
-1.61659e-09
4.65846e-09
2.14546e-09
-5.31116e-10
1.6422e-09
-7.45481e-10
5.72845e-10
-2.31983e-09
2.49248e-09
-2.01894e-09
4.74337e-09
1.59201e-10
-3.4265e-09
2.70479e-09
-2.37639e-11
-1.21723e-09
-1.90967e-09
1.44004e-09
-2.17657e-09
1.18609e-09
-2.14614e-10
3.17205e-09
-2.19523e-09
5.72124e-11
8.80988e-10
3.81319e-09
9.23293e-12
-1.38376e-09
2.22863e-09
5.40031e-09
-6.24517e-09
-3.12435e-09
1.84791e-09
1.34687e-09
-7.04557e-11
-6.67559e-09
4.41332e-09
-1.02279e-09
3.28506e-09
-1.97223e-09
4.19091e-09
-2.59364e-09
3.74999e-10
-2.60581e-09
-7.43494e-10
2.41988e-09
9.2948e-10
1.12413e-10
-2.27935e-09
-4.40636e-09
6.57332e-09
2.75337e-09
-1.36979e-09
1.33662e-10
-5.07095e-09
8.11733e-09
-9.54944e-10
-2.09141e-09
3.39735e-09
-3.67464e-10
-4.67533e-09
1.64546e-09
-5.25179e-09
4.78125e-09
-3.40374e-09
3.87427e-09
4.98684e-09
7.20059e-09
-5.34823e-09
1.31489e-09
2.08933e-09
-3.30673e-09
-9.74788e-11
-2.01708e-09
3.25368e-09
7.83152e-11
-9.45407e-10
-1.43328e-09
2.33758e-09
4.11086e-11
8.20998e-09
-6.79943e-09
-2.44189e-09
-3.74577e-09
6.8484e-09
-3.23492e-09
1.3228e-10
-3.40092e-09
-3.20185e-09
5.60857e-09
9.9421e-10
-1.77295e-09
-1.6951e-09
6.71283e-11
-1.20289e-09
1.86143e-09
2.96954e-09
-4.77782e-09
1.25456e-09
2.32035e-09
-1.22709e-09
-4.46036e-09
3.02055e-09
-3.56955e-09
-6.19335e-10
4.15611e-09
3.27737e-11
3.56791e-09
-3.05806e-09
6.29923e-11
-1.57882e-09
9.37885e-11
9.47262e-10
5.38487e-10
-4.23833e-11
-2.03708e-09
-5.29658e-09
4.68443e-09
-3.07697e-09
6.79517e-09
-3.7411e-09
2.28965e-11
1.75093e-09
-3.70349e-11
5.12705e-09
4.30698e-09
-3.15729e-09
-6.27674e-09
-2.7031e-09
6.61307e-10
-1.40237e-09
-1.17314e-09
-1.71007e-09
2.81502e-09
6.82907e-11
1.74412e-09
-9.71078e-10
1.6953e-09
-6.60627e-09
-2.91484e-09
1.12653e-08
2.29338e-09
1.46797e-09
-3.73769e-09
-2.36429e-11
2.56177e-09
-2.19669e-09
1.92831e-09
-1.66982e-09
4.03266e-09
-2.44594e-09
8.31133e-11
3.90957e-09
2.14942e-09
2.73004e-11
-3.39892e-09
-3.62145e-09
2.70183e-11
-3.07419e-09
1.80757e-09
1.39981e-09
-1.33175e-10
-1.99099e-09
-1.08225e-09
-9.4966e-13
1.64471e-09
2.7463e-09
-2.33109e-09
-2.05993e-09
2.03472e-09
-5.04413e-10
1.14386e-10
-2.14804e-09