/*--------------------------------*- C++ -*----------------------------------*\
| =========                 |                                                 |
| \\      /  F ield         | OpenFOAM: The Open Source CFD Toolbox           |
|  \\    /   O peration     | Version:  v1612+                                |
|   \\  /    A nd           | Web:      www.OpenFOAM.com                      |
|    \\/     M anipulation  |                                                 |
\*---------------------------------------------------------------------------*/
FoamFile
{
    version     2.0;
    format      ascii;
    class       volVectorField;
    location    "100";
    object      U;
}
// * * * * * * * * * * * * * * * * * * * * * * * * * * * * * * * * * * * * * //

dimensions      [0 1 -1 0 0 0 0];

internalField   nonuniform List<vector> 
21518
(
(0.143126 0.620294 -0.551148)
(0.153967 0.665351 -0.633039)
(0.164662 0.547755 -0.621221)
(0.179919 0.583367 -0.630953)
(0.117198 0.307992 -0.333682)
(0.125096 0.59111 -0.629804)
(0.00784185 0.425744 -0.296732)
(0.145177 0.541343 -0.542903)
(0.149828 0.428725 -0.423875)
(0.136413 0.432462 -0.527499)
(0.177303 0.718321 -0.718811)
(0.152218 0.623318 -0.643189)
(0.17294 0.629091 -0.646045)
(0.1255 0.303903 -0.318152)
(0.171417 0.646219 -0.573863)
(0.187263 0.7052 -0.628839)
(0.158626 0.583976 -0.523658)
(0.162329 0.645583 -0.588421)
(0.17946 0.691779 -0.6247)
(0.120905 0.557205 -0.496227)
(0.155485 0.578643 -0.529548)
(0.144591 0.555377 -0.493498)
(0.0610821 0.397545 -0.30967)
(0.0176853 0.429109 -0.32438)
(0.0266781 0.465777 -0.344107)
(0.188818 0.669965 -0.684803)
(0.0392552 0.496515 -0.361126)
(0.137672 0.430849 -0.501359)
(0.108653 0.32016 -0.27745)
(0.135356 0.42608 -0.475006)
(0.113363 0.363069 -0.38768)
(0.147979 0.574265 -0.591219)
(0.126351 0.4153 -0.398548)
(0.169621 0.47502 -0.523875)
(0.161448 0.536777 -0.526298)
(0.150583 0.658014 -0.713618)
(0.146817 0.575215 -0.546092)
(0.0822991 0.449846 -0.403537)
(0.0835986 0.276038 -0.238317)
(0.0595368 0.26424 -0.195364)
(0.126011 0.326585 -0.389929)
(0.153272 0.648967 -0.585602)
(0.130929 0.575119 -0.575278)
(0.125085 0.592167 -0.542562)
(0.144247 0.543529 -0.504051)
(0.132773 0.565279 -0.556257)
(0.108347 0.534195 -0.567798)
(0.132787 0.547701 -0.476269)
(0.137256 0.462496 -0.445916)
(0.134567 0.582833 -0.524028)
(0.155895 0.582277 -0.550955)
(0.13304 0.530787 -0.566001)
(0.117081 0.6338 -0.592895)
(0.0214979 0.443857 -0.363691)
(0.125574 0.544599 -0.484599)
(0.0905302 0.317912 -0.272349)
(0.133283 0.533974 -0.573637)
(0.116217 0.461109 -0.507543)
(0.123314 0.489713 -0.428469)
(0.142482 0.536473 -0.523137)
(0.132838 0.55097 -0.53708)
(0.134534 0.520382 -0.550092)
(0.11479 0.374368 -0.345485)
(0.159566 0.580926 -0.519858)
(0.145605 0.424361 -0.456897)
(0.149036 0.539226 -0.491026)
(0.138302 0.520769 -0.46423)
(0.150685 0.545518 -0.486578)
(0.121185 0.542076 -0.594895)
(0.172836 0.620481 -0.60757)
(0.104577 0.538251 -0.459641)
(0.163263 0.632832 -0.553404)
(0.15522 0.568646 -0.531464)
(0.117447 0.532832 -0.498506)
(0.13135 0.518937 -0.473588)
(0.140643 0.549082 -0.499922)
(0.112701 0.448292 -0.429472)
(0.126178 0.528633 -0.485438)
(0.108974 0.443548 -0.43776)
(0.158347 0.644766 -0.615893)
(0.140506 0.600303 -0.576254)
(0.124054 0.522503 -0.517562)
(0.133252 0.521515 -0.506539)
(0.158259 0.618743 -0.585693)
(0.143486 0.559608 -0.534443)
(0.169753 0.680993 -0.649524)
(0.178207 0.684163 -0.646935)
(0.160694 0.649483 -0.624051)
(0.138037 0.528767 -0.504936)
(0.172108 0.650568 -0.613249)
(0.133736 0.527866 -0.499696)
(0.144226 0.57001 -0.57812)
(0.105859 0.478106 -0.446871)
(0.125692 0.531564 -0.498784)
(0.121037 0.473584 -0.450612)
(0.114476 0.287842 -0.266615)
(0.132778 0.596635 -0.534569)
(0.175657 0.613874 -0.589002)
(0.162574 0.589905 -0.550378)
(0.12346 0.492652 -0.441045)
(0.0911581 0.504467 -0.489048)
(0.0215117 0.529843 -0.528647)
(0.155891 0.583829 -0.549479)
(0.149599 0.547 -0.513425)
(0.168017 0.622159 -0.575999)
(0.0944628 0.624551 -0.673818)
(0.118581 0.624577 -0.672661)
(0.185483 0.650504 -0.663408)
(0.140299 0.573958 -0.621167)
(0.187011 0.671565 -0.66851)
(0.132039 0.496474 -0.453692)
(0.138609 0.532542 -0.485972)
(0.0504013 0.518713 -0.504893)
(0.124837 0.487906 -0.436937)
(0.157449 0.580203 -0.510675)
(0.144768 0.557556 -0.491518)
(0.0614115 0.520386 -0.492535)
(0.0949438 0.579068 -0.607933)
(0.161274 0.500482 -0.507785)
(0.159615 0.413637 -0.487527)
(0.120294 0.395693 -0.474206)
(0.155854 0.613173 -0.545647)
(0.0330685 0.580558 -0.499265)
(0.120355 0.38085 -0.390155)
(0.143221 0.61998 -0.558007)
(0.133786 0.498038 -0.451385)
(0.147298 0.556049 -0.511624)
(0.128389 0.482658 -0.433977)
(0.130203 0.495641 -0.462043)
(0.128091 0.583724 -0.575592)
(0.141045 0.616217 -0.618526)
(0.114243 0.561555 -0.557715)
(0.118465 0.564075 -0.569869)
(0.136911 0.545206 -0.532929)
(0.113117 0.429354 -0.370418)
(0.153944 0.570366 -0.505409)
(0.14559 0.533643 -0.484983)
(0.141593 0.573962 -0.519385)
(0.111851 0.647276 -0.723391)
(0.110242 0.655928 -0.606968)
(0.125543 0.535676 -0.487246)
(0.124924 0.528628 -0.477993)
(0.113853 0.602733 -0.611635)
(0.0937783 0.591226 -0.590076)
(0.0849749 0.571243 -0.5821)
(0.0815607 0.551864 -0.569188)
(0.0742257 0.453792 -0.387088)
(0.0967622 0.487734 -0.482961)
(0.026226 0.55929 -0.459581)
(0.0225323 0.507145 -0.397669)
(0.0286867 0.432777 -0.287863)
(0.0292914 0.313933 -0.220261)
(0.117131 0.473389 -0.544611)
(0.136293 0.475701 -0.573996)
(0.119782 0.473829 -0.552906)
(0.129869 0.449189 -0.450059)
(0.131818 0.497026 -0.461494)
(0.182341 0.685734 -0.632105)
(0.140948 0.519205 -0.490734)
(0.131775 0.481877 -0.461201)
(0.145439 0.555016 -0.532074)
(0.137872 0.588206 -0.54184)
(0.121518 0.561654 -0.519916)
(0.00963025 0.394797 -0.292177)
(0.0268789 0.465212 -0.339565)
(0.00467728 0.480616 -0.42679)
(0.0460679 0.611823 -0.552269)
(0.0398801 0.534697 -0.497994)
(0.0735018 0.463604 -0.36804)
(0.0737846 0.503115 -0.421039)
(0.10714 0.626779 -0.576697)
(0.0903607 0.373559 -0.301312)
(0.14405 0.341266 -0.390179)
(0.169564 0.598898 -0.587266)
(0.166035 0.597319 -0.602672)
(0.174548 0.621754 -0.611873)
(0.0589255 0.520858 -0.477155)
(0.112705 0.598545 -0.604963)
(0.053466 0.548294 -0.479052)
(0.0901345 0.531347 -0.530369)
(0.102376 0.493941 -0.508961)
(0.159209 0.580477 -0.578842)
(0.163853 0.657499 -0.660107)
(0.141312 0.597589 -0.608038)
(0.130275 0.555072 -0.553209)
(0.0535338 0.391729 -0.28565)
(0.152434 0.582811 -0.512555)
(0.119274 0.607057 -0.676306)
(0.11158 0.5808 -0.660905)
(0.116967 0.631137 -0.6966)
(0.133471 0.3773 -0.366868)
(0.109785 0.336812 -0.319268)
(0.108353 0.534772 -0.475121)
(0.113574 0.573125 -0.503727)
(0.135256 0.55599 -0.55378)
(0.119832 0.549708 -0.490083)
(0.157783 0.443887 -0.474394)
(0.124643 0.477767 -0.470564)
(0.144246 0.446742 -0.46779)
(0.132897 0.442331 -0.479201)
(0.125559 0.437374 -0.459423)
(0.16798 0.652564 -0.637656)
(0.0957306 0.328436 -0.268852)
(0.130638 0.350493 -0.358489)
(0.117352 0.499537 -0.503917)
(0.132195 0.503337 -0.465025)
(0.110365 0.536702 -0.572544)
(0.130779 0.61512 -0.648421)
(0.0114788 0.585075 -0.596699)
(0.134834 0.534316 -0.472715)
(0.111943 0.481678 -0.453336)
(0.127812 0.521219 -0.48539)
(0.127228 0.463389 -0.470105)
(0.069448 0.438542 -0.335694)
(0.149192 0.537975 -0.484199)
(0.120701 0.530117 -0.445352)
(0.137656 0.548375 -0.506251)
(0.109933 0.502639 -0.492707)
(0.101624 0.532098 -0.536432)
(0.109648 0.567823 -0.54787)
(0.17457 0.645364 -0.58083)
(0.135902 0.539132 -0.50504)
(0.120503 0.465503 -0.458348)
(0.117294 0.431072 -0.490084)
(0.155633 0.6469 -0.698922)
(0.165002 0.582608 -0.611784)
(0.186202 0.65874 -0.676211)
(0.121581 0.609331 -0.589834)
(0.104914 0.601633 -0.567618)
(0.118297 0.488063 -0.440143)
(0.138853 0.526183 -0.481719)
(0.127477 0.486757 -0.447435)
(0.12906 0.595224 -0.527703)
(0.152722 0.669548 -0.580257)
(0.136035 0.625804 -0.567253)
(0.108054 0.388714 -0.338244)
(0.138259 0.5033 -0.485843)
(0.0969965 0.462166 -0.38849)
(0.0892615 0.464846 -0.383985)
(0.0766874 0.480226 -0.402871)
(0.116777 0.435273 -0.46427)
(0.146417 0.444629 -0.455531)
(0.0828382 0.267991 -0.208636)
(0.0238389 0.533527 -0.46545)
(0.0207929 0.498067 -0.473675)
(0.117857 0.315693 -0.365551)
(0.111483 0.529903 -0.486793)
(0.0999732 0.51999 -0.486391)
(0.128986 0.52606 -0.455659)
(0.134567 0.479383 -0.437112)
(0.136465 0.518182 -0.459483)
(0.119094 0.464879 -0.412485)
(0.100287 0.309817 -0.269403)
(0.10828 0.498199 -0.472386)
(0.0847392 0.560786 -0.556416)
(0.119596 0.306023 -0.323272)
(0.118362 0.434111 -0.417926)
(0.127328 0.496487 -0.500054)
(0.137282 0.44787 -0.465816)
(0.13725 0.343535 -0.368993)
(0.0868011 0.263617 -0.23256)
(0.170264 0.621978 -0.584242)
(0.195044 0.665686 -0.623175)
(0.0266951 0.566256 -0.523137)
(0.0275214 0.544926 -0.530773)
(0.0294 0.55024 -0.540737)
(0.120042 0.612645 -0.605803)
(0.121645 0.557278 -0.582768)
(0.152744 0.573711 -0.507252)
(0.086024 0.541613 -0.491117)
(0.180733 0.605132 -0.584213)
(0.139772 0.514754 -0.460881)
(0.0972004 0.385322 -0.32912)
(0.103088 0.453719 -0.367844)
(0.112682 0.360293 -0.32106)
(0.115386 0.392003 -0.364264)
(0.130551 0.381647 -0.333876)
(0.130057 0.372899 -0.385947)
(0.0942085 0.462536 -0.387694)
(0.115443 0.578311 -0.494066)
(0.0974888 0.514717 -0.432655)
(0.0867849 0.481511 -0.404679)
(0.0942091 0.496372 -0.409528)
(0.0913418 0.50109 -0.42173)
(0.0935817 0.527209 -0.450707)
(0.0934373 0.501855 -0.433323)
(0.0830103 0.546122 -0.547109)
(0.126616 0.414972 -0.392369)
(0.130295 0.479361 -0.42657)
(0.105492 0.284734 -0.248592)
(0.122116 0.527538 -0.523873)
(0.104437 0.50631 -0.460796)
(0.127033 0.489975 -0.445031)
(0.154017 0.557125 -0.507559)
(0.128773 0.465773 -0.434616)
(0.145959 0.513736 -0.46576)
(0.153847 0.557435 -0.524669)
(0.132877 0.522083 -0.47053)
(0.136153 0.55368 -0.498659)
(0.142133 0.386737 -0.405177)
(0.154693 0.406506 -0.50094)
(0.0643387 0.313024 -0.22893)
(0.0332958 0.344306 -0.242939)
(0.00807221 0.548519 -0.550829)
(0.004905 0.552253 -0.500077)
(0.124092 0.499854 -0.444412)
(0.120119 0.720445 -0.669016)
(0.123089 0.680194 -0.62315)
(0.0853524 0.504887 -0.42126)
(0.101116 0.475552 -0.395709)
(0.0922341 0.515263 -0.432206)
(0.0387754 0.469119 -0.463424)
(0.0454078 0.599545 -0.501662)
(0.154158 0.558751 -0.498342)
(0.142785 0.551331 -0.498253)
(0.156553 0.590062 -0.531432)
(0.137575 0.578642 -0.505054)
(0.13115 0.559574 -0.49998)
(0.0605897 0.404863 -0.308806)
(0.0905109 0.48885 -0.437905)
(0.152024 0.550536 -0.499277)
(0.149806 0.566096 -0.511685)
(0.156643 0.575939 -0.518628)
(0.0674385 0.584344 -0.600148)
(0.0523344 0.479792 -0.486205)
(0.141084 0.520478 -0.489315)
(0.0701958 0.480703 -0.380036)
(0.15226 0.623429 -0.664572)
(0.111903 0.537513 -0.500029)
(0.0485744 0.552148 -0.511864)
(0.0341844 0.47117 -0.333353)
(0.0128266 0.571833 -0.582907)
(0.111499 0.535444 -0.493719)
(0.0779525 0.460041 -0.435494)
(0.112019 0.538039 -0.514011)
(0.106399 0.546587 -0.524203)
(0.113385 0.436708 -0.396632)
(0.0183301 0.465791 -0.321017)
(0.0928601 0.466285 -0.405855)
(0.101434 0.498352 -0.432497)
(0.105431 0.478332 -0.450931)
(0.129347 0.530196 -0.491421)
(0.103137 0.448715 -0.427468)
(0.0783122 0.238176 -0.228033)
(0.16542 0.431948 -0.497565)
(0.0858988 0.278675 -0.242327)
(0.120517 0.320254 -0.335311)
(0.111803 0.29255 -0.29696)
(0.152211 0.365829 -0.39099)
(0.126901 0.339767 -0.33096)
(0.142762 0.595003 -0.532721)
(0.134015 0.524589 -0.476152)
(0.145519 0.603013 -0.541508)
(0.130177 0.543574 -0.492978)
(0.132306 0.486123 -0.590197)
(0.163984 0.626893 -0.566581)
(0.0891546 0.299804 -0.255681)
(0.120152 0.474386 -0.424463)
(0.118215 0.47883 -0.532438)
(0.0979686 0.429476 -0.486319)
(0.124947 0.479154 -0.550473)
(0.139954 0.54098 -0.480265)
(0.131016 0.581072 -0.563188)
(0.112264 0.484456 -0.484506)
(0.175087 0.612803 -0.555727)
(0.192202 0.671453 -0.624392)
(0.116728 0.356372 -0.319685)
(0.0952874 0.311225 -0.267902)
(0.109283 0.323199 -0.305476)
(0.128076 0.359813 -0.3647)
(0.166411 0.585565 -0.546135)
(0.165021 0.571742 -0.549352)
(0.112355 0.533842 -0.589312)
(0.0864152 0.588383 -0.596144)
(0.104666 0.586213 -0.626426)
(0.104591 0.623116 -0.64441)
(0.126832 0.445186 -0.406301)
(0.0376967 0.526523 -0.406817)
(0.175644 0.665349 -0.598862)
(0.183679 0.710919 -0.624199)
(0.159859 0.592458 -0.582116)
(0.128808 0.523231 -0.5188)
(0.177882 0.638551 -0.610972)
(0.162516 0.576559 -0.542663)
(0.105573 0.521384 -0.462806)
(0.10684 0.298554 -0.273566)
(0.0498864 0.226601 -0.180447)
(0.0806106 0.246158 -0.224111)
(0.189378 0.670901 -0.611528)
(0.185701 0.666729 -0.60538)
(0.106779 0.333393 -0.307322)
(0.112073 0.58977 -0.548249)
(0.102142 0.553561 -0.545173)
(0.11087 0.565874 -0.526822)
(0.149105 0.531903 -0.495178)
(0.157052 0.583398 -0.5426)
(0.155016 0.576887 -0.54903)
(0.144835 0.430628 -0.413203)
(0.12475 0.546924 -0.486815)
(0.0864228 0.580922 -0.606346)
(0.110502 0.485745 -0.470842)
(0.134275 0.567758 -0.568466)
(0.11643 0.517605 -0.527266)
(0.111351 0.554987 -0.47236)
(0.090165 0.267197 -0.253316)
(0.115056 0.349543 -0.322912)
(0.110159 0.58886 -0.546959)
(0.117542 0.408554 -0.343879)
(0.130241 0.520904 -0.498311)
(0.121289 0.324735 -0.348565)
(0.122337 0.508036 -0.527895)
(0.182849 0.636557 -0.57973)
(0.124537 0.550172 -0.492713)
(0.0665893 0.270243 -0.20888)
(0.051702 0.254099 -0.194126)
(0.127817 0.460109 -0.399174)
(0.118652 0.592763 -0.681148)
(0.120253 0.427415 -0.509535)
(0.0387991 0.571925 -0.552219)
(0.143623 0.571248 -0.516889)
(0.129392 0.575886 -0.508318)
(0.126338 0.515824 -0.466809)
(0.119382 0.484047 -0.451439)
(0.0775095 0.541456 -0.510991)
(0.0851821 0.240294 -0.234268)
(0.114097 0.489504 -0.48669)
(0.12253 0.648989 -0.593776)
(0.181103 0.616988 -0.572397)
(0.0169429 0.424594 -0.295272)
(0.145773 0.480707 -0.466837)
(0.180531 0.629808 -0.620487)
(0.13999 0.326996 -0.369728)
(0.11853 0.564535 -0.492369)
(0.104792 0.627834 -0.615147)
(0.154378 0.580343 -0.509527)
(0.0570162 0.230039 -0.18972)
(0.120966 0.504588 -0.464275)
(0.131772 0.538596 -0.48326)
(0.132567 0.545555 -0.510379)
(0.130476 0.390961 -0.383293)
(0.0534915 0.510286 -0.393559)
(0.0856567 0.570599 -0.573021)
(0.0258468 0.559564 -0.563181)
(0.00879405 0.567453 -0.550929)
(0.0823404 0.498607 -0.45975)
(0.0686814 0.477612 -0.434048)
(0.155328 0.655538 -0.588915)
(0.13145 0.588972 -0.544077)
(0.110597 0.486902 -0.456774)
(0.13143 0.591768 -0.549547)
(0.135276 0.501954 -0.447043)
(0.138435 0.534789 -0.479145)
(0.0830774 0.609623 -0.610857)
(0.119783 0.379048 -0.361299)
(0.143433 0.575522 -0.515639)
(0.156102 0.597811 -0.542529)
(0.124908 0.51813 -0.474798)
(0.0055434 0.560561 -0.540117)
(0.109203 0.548896 -0.506092)
(0.038679 0.481632 -0.368441)
(0.0651672 0.316528 -0.241658)
(0.145348 0.547597 -0.51345)
(0.104582 0.402517 -0.348718)
(0.0781901 0.450646 -0.363062)
(0.0857466 0.505083 -0.473736)
(0.127059 0.509154 -0.447057)
(0.129217 0.487158 -0.430853)
(0.156058 0.595487 -0.548145)
(0.159832 0.57831 -0.528034)
(0.145892 0.573703 -0.529811)
(0.106975 0.584305 -0.527609)
(0.13174 0.486014 -0.446623)
(0.144797 0.522445 -0.486918)
(0.152287 0.548984 -0.500789)
(0.0928347 0.563878 -0.607445)
(0.102488 0.62195 -0.646064)
(0.047709 0.35721 -0.248812)
(0.0625889 0.29441 -0.221128)
(0.133753 0.509238 -0.45334)
(0.14398 0.513593 -0.460689)
(0.143324 0.571101 -0.594788)
(0.122622 0.550679 -0.560991)
(0.0997174 0.607194 -0.648398)
(0.0950546 0.557843 -0.605395)
(0.179721 0.640603 -0.585754)
(0.16865 0.706754 -0.6161)
(0.131776 0.565939 -0.500832)
(0.128655 0.550282 -0.491697)
(0.12415 0.540811 -0.477775)
(0.140488 0.538306 -0.518229)
(0.114038 0.426436 -0.430678)
(0.139748 0.509679 -0.502462)
(0.0543296 0.244642 -0.177821)
(0.130888 0.507332 -0.448797)
(0.137465 0.518929 -0.456966)
(0.120004 0.490466 -0.43188)
(0.0780436 0.563287 -0.551817)
(0.135287 0.527987 -0.465917)
(0.0103836 0.40976 -0.2744)
(-0.010732 0.480461 -0.328361)
(-0.0180378 0.528615 -0.425373)
(0.0679724 0.353973 -0.277446)
(0.0177304 0.354282 -0.24623)
(0.0259767 0.351072 -0.230487)
(0.0470408 0.277421 -0.198806)
(0.104029 0.581414 -0.563196)
(0.127515 0.529194 -0.604962)
(0.101043 0.429405 -0.51157)
(0.189164 0.690478 -0.6215)
(0.190575 0.680524 -0.630193)
(0.0501454 0.492858 -0.394559)
(0.0984469 0.586174 -0.539542)
(0.115571 0.476283 -0.40664)
(0.091793 0.476345 -0.507959)
(0.126809 0.637174 -0.642868)
(0.100141 0.504856 -0.509442)
(0.105067 0.523567 -0.518893)
(0.110408 0.52573 -0.516181)
(0.122847 0.54219 -0.494348)
(0.107452 0.555939 -0.549975)
(0.16004 0.590368 -0.530116)
(0.00811414 0.485482 -0.426525)
(0.158736 0.626299 -0.565115)
(0.123154 0.493078 -0.46624)
(0.131532 0.476725 -0.558378)
(0.0655268 0.468634 -0.41583)
(0.0884831 0.326615 -0.268066)
(0.21723 0.726145 -0.683985)
(0.130804 0.610265 -0.658117)
(0.112358 0.4974 -0.480096)
(0.144358 0.699282 -0.615121)
(0.117025 0.625652 -0.681459)
(0.111386 0.574974 -0.642964)
(0.111326 0.292155 -0.296695)
(0.121406 0.311583 -0.292034)
(0.071382 0.489708 -0.406953)
(-0.000296947 0.516983 -0.441247)
(0.124158 0.519883 -0.604137)
(0.119051 0.390249 -0.36098)
(0.0702529 0.447459 -0.401616)
(0.0992172 0.508867 -0.460862)
(0.0917931 0.539171 -0.490382)
(0.0789135 0.475898 -0.430626)
(0.077906 0.50029 -0.445737)
(0.12255 0.593765 -0.524952)
(0.13377 0.650408 -0.568888)
(0.097657 0.397587 -0.310542)
(0.151312 0.642898 -0.567395)
(0.152512 0.657085 -0.580711)
(0.125955 0.62811 -0.555907)
(0.146968 0.669885 -0.584041)
(0.0834038 0.522258 -0.442284)
(0.0862887 0.459389 -0.401102)
(0.144593 0.58023 -0.510634)
(0.0845164 0.243949 -0.238314)
(0.10307 0.274769 -0.252999)
(0.0610061 0.251269 -0.195664)
(0.132579 0.456184 -0.491711)
(0.0656861 0.505403 -0.393047)
(0.115341 0.539753 -0.494456)
(0.102069 0.487433 -0.436077)
(0.0737553 0.544073 -0.476766)
(0.121834 0.480337 -0.428823)
(0.0468547 0.43775 -0.320405)
(0.0560399 0.41466 -0.297333)
(0.115492 0.52173 -0.472771)
(0.120495 0.497756 -0.426814)
(0.14239 0.53777 -0.517719)
(0.11311 0.494712 -0.507309)
(0.0686766 0.46213 -0.367381)
(0.0759048 0.495046 -0.40465)
(0.17374 0.658352 -0.644879)
(0.0182357 0.358043 -0.244166)
(0.00873389 0.362568 -0.242656)
(0.112223 0.492912 -0.467422)
(0.103696 0.443275 -0.410827)
(0.00249145 0.457094 -0.340367)
(0.147742 0.510793 -0.487947)
(0.117611 0.406959 -0.382884)
(0.158565 0.600914 -0.537482)
(0.00669334 0.530948 -0.386314)
(0.155208 0.565861 -0.522506)
(0.176763 0.709455 -0.62732)
(0.0932275 0.521236 -0.468931)
(0.131839 0.655217 -0.582077)
(0.127932 0.568561 -0.538206)
(0.109571 0.566644 -0.543483)
(0.10181 0.52667 -0.493925)
(0.125259 0.558286 -0.502375)
(-0.0049719 0.48343 -0.442788)
(0.122496 0.53438 -0.489101)
(0.136446 0.543728 -0.472477)
(0.0579182 0.451297 -0.326736)
(0.0610181 0.342976 -0.25521)
(0.171723 0.661484 -0.606309)
(0.0514967 0.326971 -0.226364)
(0.0926894 0.315866 -0.267018)
(0.0468069 0.55896 -0.590864)
(0.0971609 0.562291 -0.593602)
(0.00765307 0.600163 -0.544007)
(0.165461 0.590514 -0.552951)
(0.159295 0.596077 -0.579813)
(0.191773 0.676174 -0.621751)
(0.134161 0.490598 -0.438751)
(0.116838 0.495854 -0.44137)
(0.125829 0.482628 -0.433548)
(0.153513 0.559363 -0.519366)
(0.14077 0.550298 -0.474115)
(0.089902 0.550007 -0.545999)
(0.0922402 0.501695 -0.507342)
(0.0438339 0.321042 -0.216843)
(0.0582934 0.33022 -0.213004)
(0.127532 0.315305 -0.332495)
(0.110395 0.51631 -0.494624)
(0.118981 0.55106 -0.52192)
(0.0996881 0.53895 -0.508557)
(0.104011 0.45057 -0.41497)
(0.070747 0.466312 -0.353967)
(0.0502615 0.434869 -0.337036)
(0.0871724 0.435455 -0.366291)
(0.0915804 0.525521 -0.462566)
(0.10114 0.293613 -0.2653)
(0.0662548 0.25969 -0.210094)
(0.084895 0.547287 -0.537044)
(0.0930413 0.586024 -0.574053)
(0.0833121 0.499297 -0.501128)
(0.0835595 0.523513 -0.527043)
(0.0674588 0.509899 -0.496265)
(0.134662 0.503755 -0.484567)
(0.0257236 0.550693 -0.51403)
(0.10081 0.440654 -0.407493)
(0.11145 0.461823 -0.427899)
(0.13315 0.404814 -0.420734)
(0.114078 0.341334 -0.354071)
(0.153862 0.54992 -0.516087)
(0.167892 0.616924 -0.570415)
(0.144556 0.543504 -0.503045)
(0.0385532 0.572247 -0.514636)
(0.205851 0.782919 -0.723253)
(0.0595912 0.384259 -0.30781)
(0.221052 0.819794 -0.702834)
(0.164612 0.624729 -0.583967)
(0.170117 0.766127 -0.692033)
(0.188294 0.639449 -0.567631)
(0.162335 0.600429 -0.455853)
(0.142732 0.578378 -0.653179)
(0.169579 0.781064 -0.700362)
(0.0543075 0.50221 -0.349071)
(0.127109 0.479191 -0.437609)
(0.186175 0.718754 -0.643352)
(0.161416 0.735115 -0.656788)
(0.148502 0.720735 -0.661094)
(0.17656 0.611959 -0.580428)
(0.205766 0.536507 -0.432699)
(0.112101 0.616353 -0.480889)
(0.132469 0.63011 -0.584746)
(0.194374 0.765284 -0.681326)
(0.164288 0.613813 -0.549236)
(0.195451 0.764452 -0.672468)
(0.0092582 0.487404 -0.448978)
(0.0511592 0.573521 -0.551717)
(0.10417 0.556291 -0.586932)
(0.0677126 0.653201 -0.568244)
(0.119914 0.705423 -0.662994)
(0.154121 0.729918 -0.712542)
(0.192789 0.757719 -0.705732)
(0.0965464 0.611714 -0.61925)
(0.11234 0.516192 -0.48624)
(0.164218 0.546479 -0.508524)
(0.0749086 0.355798 -0.291267)
(0.13449 0.464609 -0.41971)
(0.132894 0.627101 -0.529134)
(0.123464 0.461498 -0.392251)
(0.18941 0.746941 -0.645434)
(0.203578 0.780547 -0.682487)
(0.104099 0.490959 -0.470969)
(0.122224 0.646402 -0.70862)
(0.0883189 0.569835 -0.551545)
(-0.0126592 0.496932 -0.443549)
(0.0196487 0.384137 -0.264708)
(0.0376572 0.461064 -0.28584)
(0.0233351 0.567924 -0.437032)
(0.0231276 0.537459 -0.385341)
(-0.0064456 0.424623 -0.315914)
(0.196989 0.72368 -0.696387)
(0.152265 0.595578 -0.592355)
(0.173053 0.691168 -0.679864)
(0.142605 0.619161 -0.552439)
(0.103066 0.623145 -0.582397)
(0.233357 0.749501 -0.702264)
(0.204879 0.782802 -0.696633)
(0.218451 0.758966 -0.706969)
(0.205171 0.772199 -0.683592)
(0.194861 0.697168 -0.679842)
(0.218341 0.797091 -0.725875)
(0.22561 0.79753 -0.726858)
(0.170748 0.706102 -0.622372)
(0.196529 0.747538 -0.66762)
(0.208457 0.711916 -0.678563)
(0.160668 0.567788 -0.514992)
(0.136974 0.523275 -0.498851)
(0.138576 0.502665 -0.454983)
(0.15591 0.580469 -0.542188)
(0.129239 0.559487 -0.487502)
(0.137643 0.506665 -0.448744)
(0.134156 0.532906 -0.4799)
(0.152709 0.741937 -0.687773)
(0.149384 0.360203 -0.28526)
(0.215367 0.585764 -0.407019)
(0.142317 0.541749 -0.374987)
(0.0609587 0.58045 -0.417923)
(0.204259 0.793372 -0.668573)
(0.210042 0.774672 -0.669069)
(0.120773 0.707602 -0.660909)
(0.208715 0.519099 -0.366602)
(0.219235 0.797116 -0.714784)
(0.205548 0.766477 -0.699457)
(0.171231 0.502766 -0.333736)
(0.173266 0.454549 -0.482202)
(0.133144 0.440589 -0.50641)
(0.186177 0.633834 -0.640286)
(0.139441 0.405889 -0.484646)
(0.209022 0.496663 -0.447288)
(0.203503 0.537175 -0.38053)
(0.205789 0.801923 -0.695901)
(0.121576 0.545582 -0.588761)
(0.20108 0.714414 -0.605896)
(0.181841 0.744017 -0.682578)
(0.171181 0.773096 -0.701658)
(0.187578 0.652343 -0.646358)
(0.214828 0.587048 -0.427412)
(0.116108 0.664336 -0.576662)
(0.0516817 0.259185 -0.187011)
(0.153374 0.455226 -0.290913)
(0.143536 0.509632 -0.330778)
(0.0744218 0.582422 -0.414782)
(0.156912 0.384196 -0.29905)
(0.126104 0.557671 -0.514893)
(0.166251 0.725917 -0.634436)
(0.135309 0.596996 -0.550203)
(0.120247 0.488049 -0.450413)
(0.107888 0.480663 -0.441295)
(0.180874 0.737711 -0.662894)
(0.138439 0.519105 -0.46683)
(0.113832 0.481686 -0.502862)
(0.148532 0.667324 -0.633258)
(0.147986 0.71021 -0.663493)
(0.11612 0.561003 -0.532694)
(0.178813 0.725886 -0.692044)
(0.0643532 0.637816 -0.563053)
(0.0796455 0.636771 -0.585808)
(0.182764 0.761996 -0.693753)
(0.14897 0.731405 -0.655774)
(0.0812077 0.538457 -0.535271)
(0.100375 0.497581 -0.367467)
(0.142552 0.643906 -0.528112)
(0.18005 0.561584 -0.507979)
(0.147394 0.425929 -0.372642)
(0.179195 0.747952 -0.685609)
(0.202207 0.773061 -0.672608)
(0.128985 0.48305 -0.536356)
(0.200055 0.623513 -0.55059)
(0.15992 0.724399 -0.684176)
(0.183387 0.756082 -0.684975)
(0.175727 0.519851 -0.554231)
(0.195489 0.695746 -0.61944)
(0.11786 0.647677 -0.534112)
(0.200348 0.765817 -0.678707)
(0.156861 0.520066 -0.393907)
(0.189617 0.765032 -0.676189)
(0.157806 0.728312 -0.644264)
(0.195143 0.663412 -0.562837)
(0.101577 0.342678 -0.286787)
(0.156906 0.559915 -0.581654)
(0.165246 0.694719 -0.613809)
(0.118915 0.542746 -0.494734)
(0.106187 0.482704 -0.430305)
(0.111171 0.560826 -0.520392)
(0.191657 0.736371 -0.673491)
(0.168976 0.67076 -0.621506)
(0.120888 0.567259 -0.547035)
(0.172389 0.732997 -0.677447)
(0.151548 0.584229 -0.548311)
(0.147686 0.680725 -0.641002)
(0.197745 0.749281 -0.662105)
(0.188137 0.751641 -0.654834)
(0.199242 0.783559 -0.688395)
(0.201442 0.782635 -0.687705)
(0.201077 0.789621 -0.693704)
(0.148377 0.629326 -0.570048)
(0.112143 0.459951 -0.410936)
(0.162361 0.625074 -0.556568)
(0.180579 0.688178 -0.608829)
(0.11322 0.495822 -0.433528)
(0.134163 0.551872 -0.480328)
(0.193704 0.749228 -0.663402)
(0.190349 0.757872 -0.670462)
(0.113252 0.48218 -0.433536)
(0.194548 0.751305 -0.661863)
(0.17515 0.69047 -0.608648)
(0.192152 0.749508 -0.675671)
(0.184554 0.758637 -0.667431)
(0.19931 0.793484 -0.700128)
(0.200596 0.790206 -0.6935)
(0.188079 0.763015 -0.693627)
(0.191253 0.773782 -0.687642)
(0.197791 0.785471 -0.691473)
(0.0391909 0.551548 -0.486557)
(0.0559204 0.545525 -0.508614)
(0.0479569 0.504777 -0.423265)
(0.0458613 0.47862 -0.416244)
(0.0455695 0.492584 -0.360433)
(0.0373463 0.58634 -0.459117)
(0.0312178 0.524134 -0.444868)
(0.0285518 0.518285 -0.427781)
(0.0403118 0.544981 -0.475461)
(0.204867 0.796128 -0.713634)
(0.188034 0.758714 -0.714297)
(0.204758 0.789629 -0.704297)
(0.191619 0.768298 -0.720784)
(0.205255 0.78489 -0.718955)
(0.201999 0.776009 -0.71902)
(0.198442 0.780217 -0.718985)
(0.129176 0.489339 -0.44439)
(0.129267 0.475133 -0.408637)
(0.117894 0.658937 -0.568809)
(0.113914 0.557421 -0.461533)
(0.145694 0.680109 -0.576573)
(0.115171 0.556064 -0.452608)
(0.0851947 0.520297 -0.427507)
(0.0847073 0.428053 -0.348083)
(0.123134 0.598082 -0.49196)
(0.0607587 0.428211 -0.359863)
(0.0591704 0.616018 -0.661547)
(0.169572 0.698401 -0.734505)
(0.0591798 0.616056 -0.668131)
(0.135423 0.660002 -0.722511)
(0.100435 0.617541 -0.697376)
(0.121746 0.634279 -0.695758)
(0.103208 0.541284 -0.583956)
(0.121462 0.531799 -0.574119)
(0.122336 0.701624 -0.686927)
(0.0759675 0.52458 -0.534409)
(0.111471 0.672543 -0.629951)
(0.10096 0.620042 -0.645017)
(0.107052 0.622637 -0.577623)
(0.127004 0.672718 -0.608261)
(0.110105 0.648148 -0.593348)
(0.0762023 0.584808 -0.606023)
(0.0219802 0.517045 -0.55691)
(0.0350369 0.306779 -0.201609)
(0.0548814 0.239589 -0.191637)
(0.069025 0.367505 -0.260035)
(0.036207 0.359 -0.256112)
(0.185661 0.716032 -0.67872)
(0.20468 0.775749 -0.720958)
(0.195504 0.751845 -0.693446)
(0.20241 0.755477 -0.69987)
(0.177774 0.67161 -0.64685)
(0.184035 0.688754 -0.667099)
(0.20111 0.755363 -0.699941)
(0.181937 0.659613 -0.614981)
(0.241181 0.776074 -0.636315)
(0.214064 0.818415 -0.710934)
(0.216254 0.810238 -0.674091)
(0.210138 0.824645 -0.709604)
(0.227509 0.815103 -0.694724)
(0.226461 0.818839 -0.702678)
(0.20926 0.830594 -0.711475)
(0.183867 0.808156 -0.702585)
(0.198984 0.798528 -0.693869)
(0.176057 0.808286 -0.702598)
(0.187261 0.797571 -0.691677)
(0.161331 0.725843 -0.643859)
(0.159518 0.738329 -0.643799)
(0.191154 0.812681 -0.700348)
(0.181276 0.692306 -0.65109)
(0.193301 0.729994 -0.671912)
(0.165446 0.625276 -0.584454)
(0.168747 0.599854 -0.552853)
(0.160386 0.575366 -0.532245)
(0.189363 0.772691 -0.687179)
(0.132498 0.612039 -0.540675)
(0.186275 0.783439 -0.694076)
(0.149794 0.724654 -0.643645)
(0.18285 0.784118 -0.69334)
(0.174671 0.774702 -0.690655)
(0.16256 0.738265 -0.653519)
(0.087094 0.697476 -0.690925)
(0.0717645 0.651594 -0.550814)
(0.0524874 0.627369 -0.665569)
(0.0732024 0.672884 -0.609317)
(0.136097 0.665603 -0.61174)
(0.148905 0.631304 -0.553444)
(0.0614182 0.652045 -0.641005)
(0.0618159 0.594381 -0.452631)
(0.161528 0.428664 -0.28214)
(0.0672781 0.509646 -0.358056)
(0.141748 0.462042 -0.300351)
(0.117136 0.609346 -0.459673)
(0.155526 0.561246 -0.416739)
(0.121062 0.473311 -0.312063)
(0.196326 0.657116 -0.644625)
(0.203296 0.690856 -0.604179)
(0.175292 0.734592 -0.678896)
(0.183093 0.72828 -0.6726)
(0.176051 0.613872 -0.645015)
(0.171597 0.618143 -0.659693)
(0.179752 0.735882 -0.674459)
(0.133371 0.680317 -0.689307)
(0.199265 0.697972 -0.591377)
(0.14833 0.743524 -0.701737)
(0.190767 0.767767 -0.66554)
(0.158906 0.750169 -0.70751)
(0.162803 0.756584 -0.701404)
(0.18097 0.763089 -0.676356)
(0.0649903 0.313535 -0.225974)
(0.142308 0.422502 -0.283511)
(0.110915 0.441369 -0.295673)
(0.0631009 0.387929 -0.258871)
(0.0741354 0.445381 -0.287876)
(0.0949467 0.401565 -0.277022)
(0.134628 0.525051 -0.482592)
(0.123612 0.503514 -0.461742)
(0.166082 0.638515 -0.58885)
(0.159611 0.609486 -0.555339)
(0.169747 0.661828 -0.598329)
(0.147553 0.563025 -0.509156)
(0.129531 0.557874 -0.523949)
(0.12756 0.535172 -0.502295)
(0.142656 0.661783 -0.585597)
(0.173091 0.772914 -0.693629)
(0.1695 0.72269 -0.637102)
(0.177235 0.772264 -0.690685)
(0.146023 0.695786 -0.629752)
(0.154845 0.704832 -0.633377)
(0.176454 0.776015 -0.688206)
(0.0820037 0.587264 -0.523557)
(0.0813589 0.549238 -0.515771)
(0.0771709 0.605377 -0.531741)
(0.0951082 0.611575 -0.566853)
(0.119251 0.667769 -0.605809)
(0.126646 0.673169 -0.621164)
(0.0881075 0.624579 -0.572672)
(0.166521 0.608497 -0.603209)
(0.135057 0.526935 -0.521854)
(0.171791 0.627777 -0.613049)
(0.15018 0.507489 -0.504691)
(0.171756 0.55231 -0.551288)
(0.156546 0.598216 -0.591338)
(0.149435 0.381274 -0.377311)
(0.166262 0.441349 -0.380913)
(0.112204 0.341015 -0.281962)
(0.152687 0.431404 -0.330167)
(0.202633 0.517056 -0.481259)
(0.200757 0.529003 -0.461899)
(0.137821 0.415673 -0.326053)
(0.158133 0.527492 -0.377704)
(0.15749 0.44779 -0.369788)
(0.109732 0.47918 -0.336429)
(0.11539 0.4345 -0.31597)
(0.143396 0.569702 -0.427932)
(0.136877 0.578056 -0.430217)
(0.107831 0.436969 -0.314167)
(0.113529 0.471777 -0.472445)
(0.145727 0.552136 -0.565643)
(0.14096 0.547868 -0.556913)
(0.151113 0.722886 -0.662407)
(0.0861978 0.521713 -0.47006)
(0.149698 0.705884 -0.65004)
(0.122258 0.60718 -0.572566)
(0.140904 0.650818 -0.607208)
(0.128451 0.657892 -0.609539)