/*--------------------------------*- C++ -*----------------------------------*\
| =========                 |                                                 |
| \\      /  F ield         | OpenFOAM: The Open Source CFD Toolbox           |
|  \\    /   O peration     | Version:  v1612+                                |
|   \\  /    A nd           | Web:      www.OpenFOAM.com                      |
|    \\/     M anipulation  |                                                 |
\*---------------------------------------------------------------------------*/
FoamFile
{
    version     2.0;
    format      ascii;
    class       volVectorField;
    location    "50";
    object      U;
}
// * * * * * * * * * * * * * * * * * * * * * * * * * * * * * * * * * * * * * //

dimensions      [0 1 -1 0 0 0 0];

internalField   nonuniform List<vector> 
16938
(
(0.174982 0.407563 -0.298419)
(-0.0888784 0.171214 -0.336966)
(0.114384 0.375316 -0.771544)
(-0.147776 0.549393 -0.792883)
(-0.128323 0.544233 -0.767489)
(-0.118619 0.620755 -0.878116)
(-0.153752 0.621407 -0.851314)
(-0.0702308 0.46727 -0.682938)
(-0.0887532 0.558577 -0.815451)
(-0.0663453 0.525281 -0.77005)
(-0.0829752 0.553276 -0.817882)
(-0.140997 0.677022 -0.950669)
(-0.13708 0.64694 -0.897362)
(-0.139012 0.685407 -0.963765)
(-0.149598 0.631465 -0.896207)
(-0.146505 0.605432 -0.853034)
(-0.185482 0.689404 -0.953638)
(-0.187977 0.687065 -0.932481)
(-0.0147434 0.52886 -0.624671)
(-0.0160244 0.512031 -0.591297)
(-0.0346001 0.513121 -0.56112)
(-0.0553061 0.497616 -0.534794)
(-0.0101465 0.511929 -0.569328)
(-0.0303536 0.506539 -0.542216)
(-0.0372913 0.507739 -0.499558)
(0.0112257 0.527274 -0.637996)
(0.00659641 0.519798 -0.635185)
(0.0101872 0.549166 -0.718798)
(0.0336058 0.558184 -0.751027)
(0.024441 0.558792 -0.743544)
(-0.0132881 0.546449 -0.649951)
(-0.0357252 0.513599 -0.544606)
(0.0302907 0.510998 -0.578909)
(0.0125575 0.522809 -0.614757)
(0.00789011 0.526044 -0.643928)
(-0.00491473 0.512442 -0.592934)
(0.00229923 0.36625 -0.577318)
(0.0114445 0.391735 -0.599389)
(0.0947656 0.512164 -0.76352)
(0.0640121 0.480228 -0.737337)
(0.111897 0.483355 -0.773525)
(-0.00320971 0.415597 -0.565991)
(0.0225288 0.504809 -0.626681)
(0.0875386 0.55623 -0.693471)
(0.0492018 0.558497 -0.639968)
(0.02075 0.407243 -0.561838)
(-0.0385253 0.423534 -0.469727)
(-0.0133588 0.469709 -0.546746)
(0.0549586 0.555254 -0.603507)
(0.0272226 0.540659 -0.573761)
(0.0684639 0.486112 -0.629329)
(-0.0132205 0.498839 -0.489309)
(0.0141438 0.484661 -0.517215)
(-0.0894786 0.27126 -0.454855)
(-0.102898 0.27242 -0.45389)
(-0.0700843 0.27216 -0.48451)
(-0.0775182 0.271595 -0.490668)
(-0.128862 0.224508 -0.357089)
(-0.1395 0.201581 -0.305649)
(-0.0942367 0.266526 -0.465932)
(-0.166446 0.195773 -0.309488)
(-0.157638 0.228816 -0.370196)
(-0.120608 0.243877 -0.438496)
(-0.124754 0.258275 -0.431923)
(-0.152416 0.239105 -0.351267)
(-0.151184 0.222503 -0.314615)
(-0.155123 0.208893 -0.327134)
(-0.172668 0.211785 -0.336679)
(-0.129904 0.229627 -0.379079)
(-0.168787 0.231425 -0.353381)
(-0.15453 0.200416 -0.282483)
(0.100349 0.25508 -0.583603)
(0.0951517 0.244448 -0.578002)
(0.105504 0.272362 -0.68343)
(0.159199 0.283439 -0.813484)
(0.131223 0.254463 -0.645071)
(0.182811 0.300778 -0.79094)
(0.108502 0.268405 -0.641541)
(0.166724 0.298064 -0.784466)
(0.139228 0.272646 -0.665032)
(0.148948 0.281351 -0.713195)
(-0.0814552 0.625441 -0.815025)
(-0.0628176 0.621267 -0.855643)
(-0.0862201 0.631355 -0.907876)
(-0.0804669 0.621763 -0.853267)
(-0.0688872 0.553915 -0.738759)
(-0.0820461 0.576259 -0.754284)
(-0.106297 0.61248 -0.84171)
(-0.130767 0.501979 -0.711946)
(-0.144398 0.478369 -0.664632)
(-0.0844518 0.529384 -0.719208)
(-0.0929224 0.5317 -0.712604)
(-0.165486 0.533017 -0.785248)
(-0.155322 0.503437 -0.715741)
(-0.140621 0.604569 -0.851409)
(-0.127673 0.606068 -0.859409)
(-0.117019 0.56709 -0.759771)
(-0.122023 0.49925 -0.679344)
(-0.150345 0.537402 -0.764257)
(-0.133478 0.518311 -0.715634)
(0.0705592 0.579172 -0.978756)
(0.0444653 0.660258 -1.04856)
(0.0917251 0.614699 -1.03076)
(0.0625124 0.580255 -0.978058)
(0.0734153 0.66418 -1.08593)
(0.0419587 0.540083 -0.929012)
(0.0785498 0.464601 -0.840916)
(0.0693644 0.47893 -0.859483)
(0.108858 0.573298 -1.02749)
(0.0947846 0.555738 -0.961202)
(0.00152729 0.61325 -0.955636)
(0.02594 0.666023 -1.04942)
(0.0723265 0.52455 -0.888752)
(0.0384406 0.518775 -0.867361)
(0.0229267 0.562721 -0.884887)
(0.0654403 0.632413 -1.01467)
(0.0431833 0.541334 -0.903799)
(0.0565452 0.612693 -0.978873)
(0.194032 0.404151 -0.936956)
(0.181741 0.409138 -0.912028)
(0.162417 0.380953 -0.843825)
(0.180908 0.39363 -0.910974)
(0.208131 0.433856 -0.970588)
(0.18787 0.422916 -0.924689)
(0.16749 0.379148 -0.804003)
(0.163573 0.373386 -0.774538)
(0.193467 0.387616 -0.915215)
(0.180463 0.3954 -0.802796)
(0.172116 0.371064 -0.76992)
(0.168777 0.371882 -0.756141)
(0.195009 0.388154 -0.838928)
(0.208867 0.409042 -0.947159)
(-0.0290629 0.695694 -0.925955)
(-0.00429166 0.706929 -1.02202)
(-0.0236098 0.651729 -0.870982)
(-0.00981154 0.624179 -0.852096)
(-0.0327438 0.642636 -0.926026)
(-0.137695 0.610248 -0.721634)
(-0.0517125 0.534763 -0.725795)
(-0.0526581 0.684498 -0.857203)
(-0.0712356 0.599232 -0.785373)
(-0.0572668 0.625894 -0.846322)
(-0.111859 0.714213 -0.839457)
(-0.0773754 0.694539 -0.864715)
(-0.0380445 0.735337 -0.977134)
(-0.0617398 0.704692 -0.930473)
(-0.0530002 0.737504 -0.985228)
(-0.0833086 0.750503 -0.977689)
(-0.0153944 0.637662 -0.930856)
(-0.0535883 0.654164 -0.937432)
(-0.063548 0.694176 -0.936476)
(-0.10564 0.680121 -0.835504)
(-0.0260282 0.455025 -0.707385)
(-0.0366435 0.411716 -0.640842)
(-0.0207476 0.471567 -0.736683)
(-0.043946 0.492718 -0.742871)
(-0.0380644 0.362327 -0.585806)
(-0.0325176 0.463305 -0.733087)
(-0.0825359 0.45048 -0.666918)
(-0.0779668 0.394443 -0.602894)
(-0.0704614 0.351833 -0.586298)
(-0.0579057 0.413096 -0.645179)
(-0.0885862 0.540955 -0.791933)
(-0.0519189 0.553278 -0.827216)
(-0.159639 0.448471 -0.648947)
(-0.186506 0.542099 -0.71641)
(-0.155659 0.523679 -0.721816)
(-0.174599 0.552305 -0.714776)
(-0.0794613 0.500163 -0.722162)
(-0.113829 0.518567 -0.727382)
(0.107669 0.668027 -1.11073)
(0.0879028 0.685131 -1.115)
(0.063573 0.684218 -1.00716)
(0.0529036 0.687201 -1.0031)
(0.0852501 0.699926 -1.12348)
(0.0463716 0.718983 -1.075)
(0.0339758 0.679374 -1.00103)
(0.109913 0.623472 -1.04058)
(0.092953 0.612757 -0.975164)
(0.0600451 0.684771 -1.05227)
(0.0675 0.649757 -0.975662)
(0.0365542 0.604749 -0.915308)
(0.073928 0.635306 -0.946064)
(0.0968264 0.586814 -1.01206)
(0.0624712 0.602633 -0.950176)
(0.0728941 0.576476 -0.958915)
(0.00980381 0.577184 -0.962034)
(0.0134376 0.586748 -0.95269)
(0.0776775 0.581933 -1.00982)
(0.0353608 0.558665 -0.948813)
(0.0574469 0.586383 -1.02733)
(0.0262233 0.606205 -1.01544)
(0.0113891 0.550909 -0.926196)
(0.0219969 0.565312 -0.930364)
(0.0466419 0.604424 -1.01191)
(0.0316243 0.568853 -0.955955)
(0.113003 0.570999 -1.039)
(0.0460604 0.540111 -0.931744)
(0.106426 0.600372 -1.02436)
(0.061812 0.559453 -0.95946)
(0.107979 0.601959 -1.07393)
(0.139146 0.520375 -0.873873)
(0.137343 0.502709 -0.848832)
(0.148226 0.497585 -0.859709)
(0.133821 0.482996 -0.799295)
(0.186584 0.506546 -1.06091)
(0.194922 0.518529 -1.07776)
(0.143458 0.523659 -0.895229)
(0.153993 0.532272 -0.967846)
(0.153492 0.506444 -0.921654)
(0.183125 0.521362 -1.03532)
(0.166774 0.530575 -0.976082)
(0.16177 0.489857 -0.887475)
(0.155801 0.495257 -0.88703)
(0.147633 0.479272 -0.865108)
(0.186922 0.493662 -1.00192)
(0.190899 0.508523 -1.03443)
(0.147845 0.481513 -0.856977)
(0.177773 0.521147 -0.959479)
(0.166129 0.505795 -0.963362)
(0.112643 0.35217 -0.678271)
(0.0724667 0.322923 -0.61056)
(0.0876971 0.337165 -0.67719)
(0.133282 0.386786 -0.743415)
(0.0982929 0.351815 -0.666086)
(0.0732802 0.324844 -0.609852)
(0.097448 0.372949 -0.702509)
(0.0637086 0.323859 -0.634373)
(0.0460603 0.312658 -0.61251)
(0.0655598 0.333967 -0.624503)
(0.0523503 0.304449 -0.562051)
(-0.00251552 0.335561 -0.525669)
(-0.025362 0.296875 -0.448894)
(0.0121789 0.437168 -0.574115)
(-0.011528 0.346982 -0.505399)
(-0.00280936 0.343023 -0.540614)
(-0.019739 0.327981 -0.480813)
(-0.0168231 0.381137 -0.497265)
(-0.0250947 0.34324 -0.445678)
(-0.0109157 0.419261 -0.549746)
(-0.0209198 0.44617 -0.547905)
(-0.0279991 0.307937 -0.427752)
(0.00902527 0.347595 -0.526361)
(0.0348088 0.373027 -0.550322)
(-0.00944233 0.397304 -0.526678)
(-0.0198113 0.341646 -0.469654)
(-0.0153322 0.413457 -0.527887)
(0.00448566 0.402571 -0.565404)
(0.013049 0.43936 -0.622178)
(-0.0608173 0.630537 -0.563704)
(-0.0802059 0.619417 -0.499533)
(-0.0563423 0.663005 -0.632154)
(-0.056065 0.677033 -0.654125)
(-0.0545998 0.630623 -0.556287)
(-0.0782998 0.589084 -0.460036)
(-0.0374102 0.640812 -0.617251)
(-0.0519804 0.588006 -0.483552)
(-0.0476173 0.637246 -0.505188)
(-0.0559328 0.596751 -0.447477)
(-0.0265484 0.66478 -0.67584)
(-0.0343463 0.663903 -0.651616)
(-0.0217395 0.658378 -0.645338)
(-0.030324 0.680503 -0.667447)
(-0.0419058 0.602855 -0.507866)
(-0.0384307 0.619539 -0.539752)
(-0.0429678 0.607314 -0.553405)
(-0.068186 0.645211 -0.540719)
(-0.0366298 0.630479 -0.586832)
(-0.0974358 0.737337 -0.819551)
(-0.102246 0.737238 -0.801878)
(-0.105936 0.690955 -0.610726)
(-0.085426 0.713835 -0.689699)
(-0.0728494 0.725831 -0.802031)
(-0.0812699 0.724002 -0.792763)
(-0.116043 0.729938 -0.684044)
(-0.085691 0.704047 -0.688173)
(-0.102256 0.694067 -0.645564)
(-0.123825 0.709175 -0.664718)
(-0.0913178 0.70717 -0.741072)
(-0.104003 0.705004 -0.713319)
(-0.126615 0.687084 -0.638519)
(0.0448887 0.554657 -0.661129)
(0.026971 0.548151 -0.654364)
(0.0514173 0.555351 -0.664161)
(0.0385683 0.550587 -0.671995)
(0.0271258 0.563122 -0.670399)
(0.0428426 0.595798 -0.793471)
(0.0219166 0.621782 -0.866918)
(0.0344159 0.612018 -0.885226)
(0.0571219 0.594537 -0.897578)
(0.0100048 0.521009 -0.702005)
(0.00482134 0.528034 -0.74998)
(-0.00343385 0.510904 -0.67449)
(-0.00330168 0.539055 -0.671843)
(-0.00101072 0.530848 -0.653396)
(0.0390753 0.593706 -0.785566)
(-0.00511108 0.552785 -0.739275)
(0.0109932 0.598209 -0.851897)
(-0.099735 0.541995 -0.815044)
(-0.0354672 0.580771 -0.934001)
(-0.0760577 0.652741 -0.973884)
(-0.114969 0.624718 -0.95634)
(-0.101816 0.602912 -0.915355)
(-0.0256771 0.652134 -1.02678)
(-0.0539904 0.604801 -0.942238)
(-0.108767 0.554373 -0.829127)
(0.00329812 0.64912 -1.02803)
(0.00354697 0.649755 -1.03953)
(-0.1265 0.580567 -0.825657)
(-0.0700467 0.623085 -0.982039)
(-0.0356677 0.642225 -1.00109)
(-0.0644736 0.550829 -0.856456)
(-0.0895054 0.55202 -0.826995)
(0.00801756 0.625514 -1.00007)
(-0.0198822 0.636599 -0.992572)
(-0.108097 0.602554 -0.900252)
(-0.0990249 0.574475 -0.862896)
(-0.0406651 0.590554 -0.911512)
(0.00476173 0.42273 -0.694381)
(-0.0176921 0.428575 -0.680364)
(-0.0579963 0.443321 -0.698524)
(0.00806807 0.446546 -0.74303)
(-0.00487852 0.439315 -0.716084)
(-0.0156028 0.440987 -0.714977)
(0.0140854 0.462374 -0.747436)
(0.0145253 0.437122 -0.732608)
(-0.0506141 0.428658 -0.683649)
(-0.0378096 0.451681 -0.724909)
(-0.01575 0.474151 -0.781022)
(-0.0489101 0.423644 -0.670113)
(0.00709502 0.440105 -0.728845)
(0.051236 0.493452 -0.843894)
(-0.013395 0.462908 -0.762292)
(-0.0381552 0.433453 -0.701896)
(0.0347001 0.479111 -0.814471)
(0.0719802 0.518266 -0.892389)
(0.0455019 0.491467 -0.828006)
(0.0240651 0.489995 -0.851389)
(0.0420488 0.516597 -0.880611)
(0.0404152 0.507223 -0.864777)
(0.218118 0.432773 -1.00187)
(0.204583 0.439903 -1.04629)
(0.214613 0.462628 -1.1092)
(0.221544 0.448462 -1.10283)
(0.203406 0.462364 -1.09285)
(0.19669 0.393722 -1.00146)
(0.198796 0.409675 -1.06135)
(0.191348 0.376339 -0.912074)
(0.205364 0.381951 -0.942323)
(0.218405 0.402553 -0.94466)
(0.22572 0.428721 -1.02017)
(0.232983 0.455169 -1.12029)
(0.209892 0.39257 -1.03003)
(0.217111 0.421902 -1.0582)
(-0.152746 0.729434 -1.05529)
(-0.149889 0.675294 -1.00417)
(-0.144964 0.715891 -1.05943)
(-0.158843 0.69412 -1.00689)
(-0.211599 0.660533 -0.957528)
(-0.210915 0.700361 -0.982835)
(-0.17193 0.703076 -0.991978)
(-0.183537 0.724111 -1.03703)
(-0.172807 0.696512 -1.01465)
(-0.278604 0.66133 -0.883598)
(-0.194502 0.706426 -1.0211)
(-0.230546 0.67371 -0.959787)
(-0.211359 0.689757 -0.968726)
(-0.27318 0.617539 -0.847492)
(-0.268227 0.602413 -0.851903)
(-0.217304 0.692258 -1.02036)
(-0.230826 0.676108 -0.96172)
(0.165837 0.482665 -0.852833)
(0.162177 0.482042 -0.86225)
(0.146447 0.49552 -0.823357)
(0.133429 0.464713 -0.733673)
(0.138842 0.489634 -0.843061)
(0.145302 0.473731 -0.791506)
(0.143857 0.486465 -0.801489)
(0.11695 0.470905 -0.705722)
(0.132103 0.480828 -0.763636)
(0.154659 0.493122 -0.853819)
(0.147586 0.501758 -0.852117)
(0.101873 0.475108 -0.715174)
(0.080997 0.445119 -0.61194)
(0.127856 0.472136 -0.778283)
(0.129114 0.465659 -0.745402)
(0.0963567 0.454609 -0.648588)
(0.107655 0.487985 -0.740798)
(0.113796 0.491438 -0.778417)
(0.111052 0.464885 -0.696329)
(-0.353523 0.130505 -0.36455)
(-0.368293 0.0985077 -0.321959)
(-0.342436 0.127109 -0.394427)
(-0.357684 0.110597 -0.36047)
(-0.336271 0.20506 -0.470839)
(-0.323038 0.215873 -0.466786)
(-0.364482 0.159568 -0.378135)
(-0.355888 0.132036 -0.396705)
(-0.401367 0.149504 -0.336234)
(-0.381289 0.11814 -0.3235)
(-0.337166 0.244002 -0.459042)
(-0.43853 0.187704 -0.353821)
(-0.411131 0.130539 -0.320542)
(-0.406264 0.210425 -0.392224)
(-0.368521 0.243615 -0.468709)
(-0.373511 0.272432 -0.458497)
(-0.411919 0.174891 -0.391388)
(-0.406341 0.151965 -0.365174)
(-0.041454 0.431149 -0.436788)
(-0.0435004 0.42084 -0.413188)
(-0.0320902 0.42434 -0.435179)
(-0.0444975 0.345346 -0.366161)
(-0.0453956 0.329896 -0.362009)
(-0.0175186 0.453481 -0.537599)
(-0.010528 0.479252 -0.550938)
(0.000113035 0.476123 -0.564194)
(-0.00110682 0.479408 -0.59364)
(0.00330626 0.465139 -0.580799)
(-0.0339684 0.334147 -0.393677)
(-0.0104829 0.441698 -0.463571)
(-0.0240743 0.380313 -0.413634)
(-0.0157881 0.417746 -0.521153)
(-0.0302757 0.346938 -0.39293)
(-0.376701 0.412028 -0.539866)
(-0.397448 0.365068 -0.497847)
(-0.437553 0.353663 -0.386775)
(-0.449411 0.286907 -0.356844)
(-0.435241 0.388629 -0.406395)
(-0.453916 0.359707 -0.350839)
(-0.42509 0.407084 -0.489812)
(-0.399285 0.305999 -0.470744)
(-0.393617 0.355677 -0.495826)
(-0.459545 0.294977 -0.341535)
(-0.43225 0.307673 -0.42083)
(-0.444094 0.279958 -0.382309)
(-0.452863 0.22844 -0.385373)
(-0.450524 0.371028 -0.435126)
(-0.465106 0.375344 -0.408631)
(-0.446342 0.23513 -0.351523)
(-0.462381 0.20157 -0.309339)
(-0.466302 0.246117 -0.296261)
(-0.186766 0.589539 -0.567737)
(-0.199894 0.606821 -0.565554)
(-0.208096 0.655116 -0.654034)
(-0.20697 0.661883 -0.696944)
(-0.243386 0.693476 -0.662097)
(-0.249472 0.695606 -0.67439)
(-0.213913 0.608077 -0.596541)
(-0.228508 0.706599 -0.703465)
(-0.243985 0.708169 -0.705442)
(-0.238055 0.652191 -0.676639)
(-0.254545 0.673714 -0.630538)
(-0.199188 0.598356 -0.531609)
(-0.212647 0.581304 -0.527573)
(-0.211381 0.560174 -0.496128)
(-0.224768 0.693447 -0.643062)
(-0.248867 0.65909 -0.640591)
(-0.225712 0.590368 -0.469942)
(-0.213515 0.596256 -0.475482)
(-0.238915 0.619129 -0.506685)
(-0.237333 0.612435 -0.494417)
(-0.205486 0.641611 -0.558099)
(-0.236542 0.599693 -0.520768)
(-0.203091 0.623837 -0.504041)
(-0.262965 0.596473 -0.426282)
(-0.288014 0.61254 -0.446677)
(-0.276453 0.593767 -0.427341)
(-0.273978 0.568383 -0.391084)
(-0.264106 0.623593 -0.473636)
(-0.258301 0.680617 -0.626973)
(-0.25656 0.689519 -0.643655)
(-0.291959 0.642999 -0.545003)
(-0.280075 0.641206 -0.55409)
(-0.271211 0.674337 -0.600676)
(-0.269633 0.655061 -0.569806)
(-0.303074 0.63421 -0.528734)
(-0.244789 0.599156 -0.446722)
(-0.256603 0.564463 -0.409436)
(-0.299991 0.593905 -0.440707)
(-0.243425 0.578467 -0.442264)
(-0.274329 0.591206 -0.446844)
(-0.176048 0.682554 -0.683641)
(-0.154562 0.696295 -0.686477)
(-0.194353 0.687018 -0.636459)
(-0.199034 0.665539 -0.624565)
(-0.135186 0.731288 -0.789795)
(-0.220598 0.660649 -0.671319)
(-0.189952 0.69348 -0.727362)
(-0.139243 0.665549 -0.733125)
(-0.132034 0.622369 -0.765345)
(-0.113671 0.639521 -0.792933)
(-0.215178 0.620531 -0.676163)
(-0.210089 0.66685 -0.684265)
(-0.151376 0.658715 -0.720643)
(-0.189796 0.627599 -0.695309)
(-0.168367 0.568296 -0.678039)
(-0.0927088 0.299165 -0.511243)
(-0.11782 0.299199 -0.474297)
(-0.169143 0.230433 -0.370745)
(-0.193501 0.195244 -0.281078)
(-0.16629 0.228883 -0.337163)
(-0.190752 0.208609 -0.294073)
(-0.225558 0.257295 -0.318478)
(-0.219721 0.21804 -0.282551)
(-0.08836 0.297655 -0.511952)
(-0.124159 0.279321 -0.463515)
(-0.135465 0.28728 -0.473725)
(-0.126102 0.310575 -0.506406)
(-0.126383 0.263845 -0.456839)
(-0.187751 0.245253 -0.357328)
(-0.211206 0.264653 -0.359686)
(-0.215857 0.241241 -0.328619)
(-0.212084 0.217434 -0.306491)
(-0.0171296 0.406122 -0.693101)
(-0.0543578 0.438077 -0.658467)
(-0.108581 0.465366 -0.565643)
(-0.135029 0.440628 -0.547373)
(0.0417544 0.44331 -0.770114)
(0.0210478 0.490035 -0.754229)
(-0.0202111 0.411893 -0.684562)
(-0.113187 0.471572 -0.578938)
(-0.123702 0.479967 -0.568097)
(-0.0945501 0.404318 -0.577608)
(-0.11468 0.438661 -0.574283)
(-0.0925211 0.402433 -0.575714)
(0.0609559 0.468176 -0.79993)
(0.00249242 0.395504 -0.703996)
(-0.0616706 0.407659 -0.609021)
(-0.0612119 0.417735 -0.626528)
(0.0142694 0.546383 -0.76712)
(0.0431625 0.523582 -0.814692)
(0.01398 0.422379 -0.71721)
(-0.00744285 0.528129 -0.719308)
(-0.056431 0.507003 -0.664698)
(-0.00411937 0.457828 -0.69525)
(-0.0275501 0.310467 -0.4712)
(-0.0376023 0.302019 -0.454121)
(-0.0783287 0.199956 -0.410081)
(-0.0848196 0.188574 -0.391447)
(-0.0559918 0.243782 -0.410755)
(-0.069872 0.222471 -0.386811)
(-0.0434596 0.260418 -0.412914)
(-0.0236946 0.31353 -0.468182)
(-0.0673501 0.22571 -0.43916)
(-0.0747808 0.216464 -0.416152)
(-0.0540968 0.239003 -0.434916)
(-0.0129966 0.33101 -0.525179)
(-0.0124634 0.324644 -0.51428)
(-0.0472258 0.24135 -0.411449)
(-0.0323859 0.291311 -0.497159)
(-0.025637 0.285149 -0.492502)
(-0.0136042 0.303617 -0.501677)
(-0.0531533 0.24091 -0.428915)
(0.0786114 0.405895 -0.79793)
(0.0813242 0.384022 -0.811463)
(0.0810822 0.385171 -0.784126)
(0.0706726 0.383249 -0.790408)
(0.0627586 0.44819 -0.802012)
(0.0490502 0.377916 -0.732715)
(0.0738503 0.409589 -0.807146)
(0.0753184 0.430486 -0.812249)
(0.0285214 0.429189 -0.716714)
(0.0272529 0.415873 -0.723905)
(-0.0012616 0.359202 -0.657133)
(0.0527118 0.373034 -0.727074)
(0.00681451 0.367403 -0.694525)
(0.0195104 0.386348 -0.726761)
(0.0306497 0.479679 -0.723914)
(0.0271699 0.431631 -0.716593)
(-0.0692769 0.426953 -0.595561)
(-0.0178604 0.362684 -0.648454)
(-0.2823 0.48442 -0.574345)
(-0.382647 0.486387 -0.49036)
(-0.354772 0.441518 -0.500479)
(-0.272347 0.516074 -0.608808)
(-0.310583 0.493536 -0.55197)
(-0.342947 0.49213 -0.531452)
(-0.399534 0.407648 -0.460178)
(-0.368434 0.309267 -0.418196)
(-0.339565 0.336655 -0.449274)
(-0.358051 0.312915 -0.435938)
(-0.382624 0.296309 -0.420155)
(-0.377646 0.391384 -0.451768)
(-0.347929 0.32304 -0.481147)
(-0.356288 0.306117 -0.442688)
(-0.290227 0.448196 -0.596444)
(-0.1008 0.743355 -0.817068)
(-0.0195193 0.707016 -0.842208)
(-0.0376443 0.66934 -0.857737)
(-0.119869 0.707107 -0.737789)
(-0.083172 0.761851 -0.810339)
(-0.119432 0.678917 -0.733997)
(-0.0361726 0.747736 -0.878428)
(-0.111158 0.659839 -0.725502)
(-0.101069 0.656308 -0.735696)
(-0.139692 0.658351 -0.673559)
(-0.110446 0.679913 -0.706122)
(0.0685469 0.343949 -0.676004)
(0.0480746 0.322532 -0.620334)
(0.029075 0.32936 -0.64734)
(0.0332213 0.329401 -0.647952)
(0.0583702 0.33528 -0.665445)
(-0.0246017 0.269928 -0.506497)
(-0.0125922 0.290955 -0.553373)
(0.0383994 0.310571 -0.586273)
(-0.0101283 0.307711 -0.560982)
(0.018847 0.306942 -0.589116)
(-0.0442631 0.280244 -0.505343)
(-0.0563213 0.240812 -0.438975)
(-0.0280144 0.263254 -0.481638)
(0.0216744 0.303191 -0.566784)
(-0.0105839 0.277051 -0.507994)
(-0.0299047 0.255332 -0.479175)
(-0.175814 0.570377 -0.562571)
(-0.181434 0.574962 -0.557183)
(-0.190465 0.59224 -0.621869)
(-0.203162 0.598634 -0.609144)
(-0.136219 0.593308 -0.721349)
(-0.125933 0.542823 -0.530839)
(-0.110269 0.524385 -0.517437)
(-0.148807 0.539914 -0.511595)
(-0.163601 0.588119 -0.648657)
(-0.0721455 0.546645 -0.687158)
(-0.0932318 0.555139 -0.691391)
(-0.069431 0.513747 -0.539654)
(-0.0754734 0.536135 -0.577342)
(-0.134208 0.548873 -0.569119)
(-0.0864893 0.533705 -0.588449)
(0.0809376 0.652846 -1.10456)
(0.0987053 0.580337 -1.01729)
(0.0938328 0.566807 -0.956479)
(0.0808631 0.556019 -0.963622)
(0.0863414 0.574309 -0.978519)
(0.118143 0.562123 -1.01853)
(0.103498 0.526235 -0.972983)
(0.118272 0.544188 -0.998504)
(0.11256 0.517661 -0.957168)
(0.0961488 0.530198 -0.949018)
(0.200253 0.405231 -0.890458)
(0.219136 0.399452 -0.912956)
(0.245094 0.405743 -0.989616)
(0.111142 0.538315 -0.840254)
(0.102801 0.531893 -0.817117)
(0.161403 0.51915 -0.959896)
(0.138268 0.518045 -0.949689)
(0.116696 0.538874 -0.858342)
(0.0908786 0.554224 -0.849289)
(0.121412 0.566982 -0.970165)
(0.115586 0.517637 -0.859214)
(0.124455 0.530336 -0.892387)
(0.150201 0.553365 -1.01368)
(0.15787 0.536898 -1.0095)
(0.0817937 0.547061 -0.822889)
(0.0989097 0.510412 -0.803153)
(0.139647 0.55872 -0.993915)
(0.0777105 0.539853 -0.821208)
(0.0922779 0.543182 -0.884254)
(0.092294 0.559019 -0.796825)
(0.108339 0.557378 -0.924502)
(0.147772 0.544316 -0.980175)
(0.0755143 0.525402 -0.73765)
(0.0821054 0.545248 -0.803547)
(0.0779613 0.540519 -0.784181)
(0.115783 0.536022 -0.866934)
(0.149746 0.508942 -0.925892)
(0.0801413 0.512139 -0.742924)
(0.0870776 0.507342 -0.746267)
(0.100528 0.507638 -0.773375)
(0.101881 0.517319 -0.801402)
(0.136507 0.523426 -0.905586)
(0.131039 0.508976 -0.834911)
(0.121842 0.525191 -0.828568)
(-0.00213135 0.577187 -0.904948)
(0.0297717 0.569253 -0.9075)
(-0.0415918 0.413433 -0.668818)
(-0.0765465 0.467344 -0.682489)
(-0.118483 0.428707 -0.644867)
(-0.0596672 0.369369 -0.601372)
(0.023556 0.523857 -0.850864)
(0.00198377 0.493954 -0.748393)
(-0.0622949 0.487071 -0.699872)
(-0.135256 0.503164 -0.676497)
(-0.00518362 0.5244 -0.846822)
(-0.0338892 0.367323 -0.628012)
(0.0115693 0.447253 -0.773399)
(0.000408296 0.215439 -0.4669)
(-0.00496797 0.216022 -0.426386)
(-0.0258351 0.226916 -0.412297)
(-0.0231511 0.219627 -0.444578)
(-0.0105688 0.217011 -0.404091)
(-0.000502092 0.210861 -0.461753)
(-0.0446575 0.255152 -0.200468)
(-0.0554317 0.249041 -0.219129)
(-0.0317275 0.296571 -0.237868)
(-0.0430307 0.275429 -0.243114)
(0.0424371 0.349094 -0.555275)
(0.0422304 0.359363 -0.534339)
(0.0633093 0.420638 -0.604947)
(0.0646841 0.37582 -0.591462)
(0.0523879 0.3515 -0.553875)
(0.0849378 0.399356 -0.641007)
(0.0602891 0.373011 -0.573525)
(0.0433148 0.351443 -0.569558)
(0.0769274 0.39624 -0.721785)
(0.06916 0.387221 -0.67937)
(0.0967945 0.447674 -0.70578)
(0.0895774 0.428183 -0.697956)
(0.0654336 0.438754 -0.621494)
(0.053748 0.393819 -0.563224)
(0.0507025 0.363602 -0.584792)
(0.0869344 0.41788 -0.741633)
(0.0940756 0.452781 -0.742666)
(0.0493139 0.390641 -0.576963)
(0.0646094 0.406513 -0.648654)
(0.0875475 0.453478 -0.706901)
(0.0794089 0.425658 -0.670414)
(0.00888425 0.583402 -0.570942)
(-0.00115431 0.577285 -0.520972)
(0.0157893 0.603742 -0.613711)
(0.00479482 0.584345 -0.509003)
(-0.00591157 0.611993 -0.634013)
(-0.0285926 0.583047 -0.46035)
(-0.00572244 0.596569 -0.565129)
(-0.00759453 0.575982 -0.504602)
(0.00454771 0.631042 -0.67987)
(0.00730508 0.636658 -0.686638)
(-0.00297214 0.607723 -0.52831)
(-0.0183184 0.604095 -0.49894)
(-0.0260658 0.62488 -0.519699)
(0.0044519 0.655517 -0.664294)
(-0.000954672 0.667011 -0.6601)
(0.234405 0.461206 -1.07249)
(0.22796 0.43267 -0.99338)
(0.236883 0.442742 -1.0065)
(0.234799 0.432221 -1.05236)
(0.221914 0.408446 -0.979076)
(0.224567 0.393669 -0.992836)
(0.237703 0.434177 -1.10308)
(0.198575 0.390571 -0.963947)
(0.187717 0.36839 -1.00974)
(0.223466 0.460326 -1.10936)
(0.219687 0.426553 -1.08928)
(0.207267 0.421934 -1.11529)
(0.191783 0.403888 -1.00461)
(0.200349 0.394696 -0.928574)
(0.170483 0.36402 -0.998917)
(0.201797 0.385849 -0.955512)
(0.207385 0.430808 -1.09845)
(0.18236 0.395781 -1.04217)
(0.14173 0.429018 -0.812726)
(0.154216 0.442017 -0.861091)
(0.128981 0.41712 -0.750508)
(0.144053 0.429839 -0.751088)
(0.149886 0.4555 -0.858804)
(0.149343 0.474612 -0.884495)
(0.153256 0.443683 -0.798025)
(0.114906 0.41767 -0.67822)
(0.119216 0.510265 -0.821619)
(0.12063 0.488389 -0.754029)
(0.116612 0.445534 -0.743254)
(0.113704 0.469101 -0.73652)
(0.111197 0.414146 -0.654546)
(0.144286 0.458225 -0.813427)
(0.123606 0.434758 -0.683877)
(0.115709 0.437149 -0.71303)
(-0.0133869 0.307867 -0.516236)
(-0.00589742 0.331307 -0.529756)
(0.00991377 0.426211 -0.681076)
(0.0150258 0.427863 -0.675866)
(0.00880669 0.384319 -0.631319)
(0.00183114 0.407558 -0.61479)
(-0.00242717 0.428369 -0.64927)
(0.00718015 0.366076 -0.619173)
(-0.00447011 0.353275 -0.59378)
(-0.0113717 0.380442 -0.591642)
(-0.0182321 0.301247 -0.536013)
(-0.00895751 0.288012 -0.522971)
(-0.0184793 0.354294 -0.55414)
(-0.0192247 0.331021 -0.566037)
(-0.037094 0.27818 -0.512443)
(0.139954 0.37289 -0.700627)
(0.108143 0.339001 -0.680375)
(0.187195 0.377537 -0.759219)
(0.197867 0.39182 -0.779855)
(0.0998689 0.311671 -0.612359)
(0.0914024 0.314718 -0.568812)
(0.106711 0.320462 -0.610542)
(0.153153 0.36031 -0.686381)
(0.15733 0.341304 -0.692126)
(0.134812 0.361269 -0.729655)
(0.18337 0.408872 -0.813517)
(0.17673 0.413403 -0.80398)
(0.114962 0.323636 -0.628613)
(0.0898978 0.3015 -0.564559)
(0.108781 0.313168 -0.631537)
(0.116617 0.340327 -0.62101)
(0.0847901 0.308064 -0.554685)
(0.138932 0.340901 -0.637851)
(0.143661 0.351699 -0.653744)
(0.0330429 0.410547 -0.672594)
(0.0245448 0.412856 -0.703833)
(0.0484289 0.458261 -0.766585)
(0.0252703 0.500163 -0.749418)
(0.0258032 0.451787 -0.719975)
(0.0279256 0.500781 -0.764944)
(-0.0063093 0.627135 -0.983167)
(0.0399862 0.537135 -0.900445)
(0.0690936 0.494903 -0.842093)
(0.0216074 0.577625 -0.892164)
(0.00421586 0.55218 -0.869195)
(0.0361191 0.47092 -0.806231)
(0.0134996 0.589098 -0.924241)
(0.0166397 0.552729 -0.91682)
(-0.0947782 0.429138 -0.494632)
(-0.0739744 0.453042 -0.521748)
(-0.13585 0.525324 -0.610752)
(-0.0855505 0.481215 -0.597822)
(-0.105456 0.499102 -0.517385)
(-0.12781 0.467616 -0.478099)
(-0.158628 0.545949 -0.575438)
(-0.120694 0.404018 -0.413719)
(-0.161481 0.518775 -0.53368)
(-0.325401 0.534406 -0.398197)
(-0.327283 0.546765 -0.394361)
(-0.386409 0.427292 -0.330994)
(-0.385789 0.440361 -0.301821)
(-0.372291 0.460445 -0.321983)
(-0.375228 0.458547 -0.309637)
(-0.398087 0.436655 -0.323046)
(-0.406449 0.442895 -0.354701)
(-0.230558 0.572913 -0.623684)
(-0.253969 0.594647 -0.623207)
(-0.259975 0.567637 -0.592684)
(-0.241406 0.523811 -0.581584)
(-0.311134 0.580739 -0.475975)
(-0.307392 0.510457 -0.488394)
(-0.363837 0.543278 -0.359671)
(-0.383375 0.525005 -0.361835)
(-0.27767 0.574821 -0.566303)
(-0.259782 0.526148 -0.558795)
(-0.349789 0.475893 -0.396363)
(-0.375535 0.441799 -0.368121)
(-0.35403 0.475882 -0.457554)
(-0.327713 0.478206 -0.513851)
(0.019822 0.595215 -0.486865)
(-0.00998792 0.597004 -0.469788)
(0.0446778 0.637059 -0.724608)
(0.0190272 0.649202 -0.682008)
(0.021998 0.615554 -0.570218)
(0.025882 0.654161 -0.714675)
(0.0288222 0.649626 -0.726516)
(0.0272961 0.621164 -0.573968)
(0.0119464 0.608608 -0.516129)
(-0.0131229 0.594828 -0.45005)
(-0.0437669 0.624365 -0.488561)
(-0.024874 0.632128 -0.478229)
(-0.0132741 0.649064 -0.624404)
(-0.0282664 0.639793 -0.597385)
(0.00230223 0.637321 -0.600476)
(-0.00602189 0.613151 -0.505161)
(-0.0343533 0.599628 -0.456094)
(-0.00148076 0.645044 -0.537496)
(-0.0158039 0.625127 -0.514177)
(0.0110305 0.652736 -0.670828)
(-0.135896 0.33743 -0.582513)
(-0.119613 0.307879 -0.551185)
(-0.113155 0.25655 -0.50353)
(-0.106278 0.28374 -0.52891)
(-0.250091 0.334323 -0.552859)
(-0.190753 0.309457 -0.556869)
(-0.186035 0.257715 -0.513268)
(-0.210826 0.297977 -0.549816)
(-0.289607 0.286437 -0.498437)
(-0.220089 0.345057 -0.570734)
(-0.207997 0.197564 -0.489079)
(-0.25474 0.252457 -0.503325)
(-0.29619 0.22964 -0.486435)
(-0.334924 0.29251 -0.485708)
(-0.323306 0.226714 -0.455213)
(-0.243501 0.312793 -0.540991)
(-0.289153 0.308661 -0.514814)
(-0.169066 0.673856 -0.966953)
(-0.120004 0.697869 -1.01755)
(-0.141452 0.646844 -0.868526)
(-0.182695 0.675026 -0.855059)
(-0.057003 0.641677 -0.939508)
(-0.110893 0.651926 -0.900638)
(-0.157743 0.668502 -0.901734)
(-0.192666 0.667129 -0.858723)
(-0.0449366 0.663905 -0.996693)
(-0.116845 0.664856 -0.884782)
(-0.18994 0.662288 -0.884176)
(-0.142342 0.69804 -1.01659)
(-0.188138 0.700425 -0.981321)
(-0.211414 0.672905 -0.883947)
(-0.118056 0.645685 -0.865175)
(-0.157906 0.658885 -0.831897)
(-0.140352 0.674902 -0.959161)
(-0.0997286 0.664231 -0.884413)
(-0.147051 0.696916 -0.887814)
(-0.249902 0.672541 -0.553331)
(-0.286156 0.607206 -0.491692)
(-0.271749 0.625451 -0.557582)
(-0.245482 0.657815 -0.600097)
(-0.274424 0.599995 -0.483381)
(-0.214009 0.651873 -0.591004)
(-0.240411 0.629328 -0.517103)
(-0.223057 0.643536 -0.574072)
(-0.219385 0.647408 -0.560056)
(-0.34867 0.567084 -0.822339)
(-0.414877 0.479517 -0.678888)
(-0.412661 0.453925 -0.650125)
(-0.369537 0.457733 -0.69525)
(-0.381714 0.542171 -0.764245)
(-0.380089 0.467395 -0.698023)
(-0.395837 0.454181 -0.687506)
(-0.368779 0.476746 -0.719141)
(-0.38239 0.449366 -0.692405)
(-0.365868 0.563496 -0.802342)
(-0.376217 0.495702 -0.740869)
(0.0501584 0.388001 -0.308753)
(0.0682907 0.38119 -0.276616)
(0.160241 0.391814 -0.326656)
(0.131514 0.407291 -0.230631)
(0.121147 0.386116 -0.401365)
(0.147961 0.380037 -0.417105)
(0.140292 0.405712 -0.744883)
(0.144808 0.408148 -0.744698)
(0.16429 0.404203 -0.779182)
(0.150178 0.395043 -0.75425)
(0.168233 0.42312 -0.887847)
(0.168184 0.434626 -0.878529)
(0.158649 0.433194 -0.813023)
(0.174448 0.435606 -0.9195)
(0.173498 0.417672 -0.901335)
(0.170146 0.452028 -0.8365)
(0.183982 0.446069 -0.847056)
(0.171831 0.448839 -0.860002)
(0.184823 0.436873 -0.900893)
(0.172205 0.434247 -0.825155)
(0.178865 0.422355 -0.832613)
(0.0684383 0.494709 -0.649625)
(0.0811143 0.485547 -0.648892)
(0.0803123 0.503961 -0.682325)
(0.0447002 0.496234 -0.619029)
(0.0645783 0.503828 -0.6454)
(0.0482069 0.497189 -0.62622)