/*--------------------------------*- C++ -*----------------------------------*\
| =========                 |                                                 |
| \\      /  F ield         | OpenFOAM: The Open Source CFD Toolbox           |
|  \\    /   O peration     | Version:  v1612+                                |
|   \\  /    A nd           | Web:      www.OpenFOAM.com                      |
|    \\/     M anipulation  |                                                 |
\*---------------------------------------------------------------------------*/
FoamFile
{
    version     2.0;
    format      ascii;
    class       volVectorField;
    location    "150";
    object      U;
}
// * * * * * * * * * * * * * * * * * * * * * * * * * * * * * * * * * * * * * //

dimensions      [0 1 -1 0 0 0 0];

internalField   nonuniform List<vector> 
18732
(
(-0.332596 0.682306 0.557891)
(-0.147181 0.610861 0.473006)
(-0.0317631 0.581354 0.527006)
(-0.560584 0.654123 0.805549)
(-0.555483 0.645672 0.81207)
(-0.240154 0.576436 0.690401)
(-0.50255 0.581393 0.755551)
(-0.339437 0.519963 0.688745)
(-0.334478 0.520554 0.674397)
(-0.322983 0.522157 0.680166)
(-0.347612 0.507487 0.59015)
(-0.314648 0.522443 0.691744)
(-0.308515 0.52773 0.696899)
(-0.349835 0.522444 0.632162)
(-0.359782 0.53436 0.625994)
(-0.322375 0.535822 0.675371)
(-0.312531 0.526187 0.686394)
(-0.301086 0.501528 0.650391)
(-0.266736 0.500374 0.59152)
(-0.255344 0.519151 0.678982)
(-0.313113 0.484546 0.565724)
(-0.293221 0.460454 0.530652)
(-0.319661 0.500134 0.576019)
(-0.229072 0.376028 0.4963)
(-0.205456 0.329822 0.458857)
(-0.24759 0.385945 0.529618)
(-0.188307 0.304799 0.431834)
(-0.142148 0.258878 0.354952)
(-0.143166 0.265977 0.375627)
(-0.173408 0.296193 0.398228)
(-0.143607 0.272022 0.36303)
(-0.146627 0.26267 0.350216)
(-0.181046 0.313305 0.371218)
(-0.196483 0.330572 0.400398)
(-0.267226 0.386529 0.457093)
(-0.269816 0.39301 0.476095)
(-0.167707 0.303758 0.400261)
(-0.280263 0.412399 0.540244)
(-0.303301 0.418498 0.549314)
(-0.260287 0.402712 0.593982)
(-0.176702 0.308314 0.416025)
(-0.26236 0.406216 0.581745)
(-0.213093 0.332083 0.480835)
(-0.185952 0.30284 0.431361)
(-0.224765 0.189081 0.24959)
(-0.258985 0.217436 0.279433)
(-0.247666 0.236246 0.265099)
(-0.208344 0.198032 0.241309)
(-0.209939 0.179585 0.228424)
(-0.164428 0.144599 0.187312)
(-0.173482 0.173082 0.187698)
(-0.12035 0.126108 0.150154)
(-0.128107 0.117173 0.144164)
(-0.204719 0.175301 0.22525)
(-0.151748 0.157008 0.174944)
(-0.210399 0.199733 0.218606)
(-0.143191 0.145949 0.154723)
(-0.127176 0.121376 0.136288)
(-0.213548 0.476064 0.525097)
(-0.245536 0.445811 0.493734)
(-0.235833 0.521148 0.671181)
(-0.231954 0.518503 0.67396)
(-0.219887 0.448395 0.481868)
(-0.233532 0.465774 0.522928)
(-0.183641 0.52085 0.618666)
(-0.177532 0.485226 0.552045)
(-0.204596 0.531826 0.676862)
(-0.242344 0.540287 0.678878)
(-0.226783 0.506489 0.584495)
(-0.204324 0.465013 0.543734)
(-0.222504 0.486649 0.593252)
(-0.176641 0.48625 0.590842)
(-0.49669 0.597301 0.714729)
(-0.512399 0.579704 0.712086)
(-0.501483 0.569019 0.711238)
(-0.53754 0.620832 0.752664)
(-0.538003 0.628226 0.753934)
(-0.492075 0.589549 0.696753)
(-0.509209 0.593412 0.715319)
(-0.488057 0.582696 0.689392)
(-0.53829 0.603716 0.741185)
(-0.498276 0.573074 0.70086)
(-0.474249 0.549075 0.678398)
(-0.521067 0.567869 0.72198)
(-0.527723 0.573302 0.710945)
(-0.528542 0.600955 0.734745)
(-0.532739 0.610345 0.730519)
(-0.515918 0.566743 0.715887)
(-0.538728 0.592533 0.725701)
(-0.50089 0.568234 0.707156)
(-0.492918 0.570395 0.707043)
(-0.551336 0.615426 0.759116)
(-0.547771 0.599534 0.735126)
(-0.543926 0.636974 0.777085)
(-0.535498 0.626059 0.765951)
(-0.541093 0.602258 0.736314)
(-0.537741 0.632989 0.784769)
(-0.094068 0.159792 0.161024)
(-0.0771866 0.118614 0.125264)
(-0.0763467 0.104807 0.105733)
(-0.112022 0.16874 0.164279)
(-0.100209 0.151468 0.151806)
(-0.0562028 0.0868552 0.0947496)
(-0.050344 0.0738256 0.0858808)
(-0.0698097 0.0999592 0.0988629)
(-0.0699456 0.119062 0.132225)
(-0.0795014 0.132558 0.126719)
(-0.0534619 0.0799829 0.076013)
(-0.0498445 0.0579438 0.0611707)
(-0.0440423 0.0588072 0.0705648)
(-0.0552347 0.066021 0.0697261)
(-0.0563068 0.0645711 0.0640564)
(-0.0438922 0.069127 0.0869684)
(-0.0764932 0.120763 0.137316)
(-0.549174 0.659579 0.834772)
(-0.563337 0.664035 0.850938)
(-0.550861 0.660597 0.855159)
(-0.558832 0.665906 0.867398)
(-0.566034 0.682053 0.870967)
(-0.568121 0.67053 0.865639)
(-0.559006 0.651889 0.841661)
(-0.559971 0.659288 0.851086)
(-0.567954 0.669171 0.871081)
(-0.566268 0.676992 0.86509)
(-0.558511 0.660534 0.84384)
(-0.561708 0.659844 0.831643)
(-0.552139 0.65613 0.830096)
(-0.549686 0.663238 0.835674)
(-0.549975 0.661619 0.830884)
(-0.554652 0.66174 0.831088)
(-0.544108 0.656534 0.821833)
(-0.549305 0.658162 0.833491)
(-0.414887 0.471069 0.671794)
(-0.394858 0.46468 0.662877)
(-0.40935 0.465189 0.67368)
(-0.415711 0.495501 0.694773)
(-0.43086 0.48318 0.693079)
(-0.338839 0.478581 0.616944)
(-0.324688 0.489593 0.61067)
(-0.416534 0.495535 0.691384)
(-0.401914 0.494339 0.671057)
(-0.387547 0.527222 0.704952)
(-0.413547 0.524852 0.704994)
(-0.383861 0.511087 0.689894)
(-0.390351 0.535711 0.698259)
(-0.406763 0.532985 0.702091)
(-0.376969 0.554967 0.699212)
(-0.368373 0.556163 0.702806)
(-0.333116 0.514478 0.640497)
(-0.333685 0.529968 0.652854)
(-0.332608 0.522478 0.646084)
(-0.346899 0.509044 0.650394)
(-0.212628 0.592545 0.550307)
(-0.191302 0.571433 0.513919)
(-0.22219 0.608825 0.546638)
(-0.227138 0.638174 0.584534)
(-0.237259 0.640732 0.58409)
(-0.2172 0.58275 0.500605)
(-0.194856 0.573997 0.489709)
(-0.193547 0.592738 0.501296)
(-0.204242 0.646556 0.54704)
(-0.21146 0.650759 0.574382)
(-0.252665 0.649965 0.562934)
(-0.256604 0.645277 0.571993)
(-0.214388 0.60373 0.487281)
(-0.186292 0.581041 0.464883)
(-0.226941 0.650301 0.542259)
(-0.236321 0.655267 0.555623)
(-0.323672 0.684623 0.607344)
(-0.366175 0.737572 0.656648)
(-0.393267 0.765313 0.689482)
(-0.28184 0.600646 0.546887)
(-0.317 0.63285 0.58906)
(-0.273299 0.579242 0.52392)
(-0.398158 0.728613 0.687371)
(-0.396846 0.729712 0.681724)
(-0.40944 0.768417 0.713647)
(-0.41402 0.730942 0.699517)
(-0.362069 0.717426 0.64685)
(-0.289101 0.626455 0.56928)
(-0.305156 0.638597 0.568116)
(-0.254827 0.561186 0.500818)
(-0.373751 0.698235 0.640817)
(-0.332141 0.638755 0.590921)
(-0.365668 0.693436 0.632449)
(-0.39486 0.74269 0.685819)
(-0.377005 0.683833 0.639414)
(-0.27093 0.669312 0.655614)
(-0.260821 0.661299 0.654683)
(-0.307542 0.669856 0.672098)
(-0.291011 0.639173 0.620545)
(-0.319996 0.675747 0.677272)
(-0.305499 0.700645 0.684012)
(-0.271507 0.666379 0.660507)
(-0.259102 0.657963 0.650274)
(-0.28368 0.690926 0.673173)
(-0.292772 0.669967 0.67574)
(-0.287408 0.629695 0.623233)
(-0.327536 0.664734 0.712009)
(-0.293161 0.659561 0.671918)
(-0.316379 0.64783 0.678719)
(-0.336506 0.645075 0.695832)
(-0.330201 0.655723 0.699394)
(-0.00181975 0.156292 0.0511861)
(0.0153995 0.0907315 0.0306286)
(-0.0362912 0.174408 0.0454285)
(-0.0191065 0.175023 0.0528239)
(0.0108564 0.154941 0.0645809)
(0.0147765 0.110959 0.0443999)
(-0.0455014 0.133179 0.0583794)
(-0.0114514 0.113406 0.0430691)
(0.00436568 0.0912779 0.0318764)
(-0.0180921 0.175433 0.0896178)
(-0.0576528 0.163801 0.0653011)
(-0.0221437 0.117678 0.0525295)
(-0.00397081 0.109252 0.0439257)
(-0.00970595 0.16008 0.0717724)
(-0.00165513 0.132707 0.0606617)
(-0.0322848 0.186757 0.0715182)
(0.00298583 0.163314 0.0999967)
(0.00415038 0.125452 0.0654668)
(-0.0400492 0.171704 0.0721423)
(-0.469919 0.619068 0.692027)
(-0.443806 0.605819 0.657059)
(-0.447885 0.596522 0.657698)
(-0.413963 0.590035 0.63674)
(-0.453149 0.59518 0.663399)
(-0.430522 0.577519 0.620052)
(-0.464823 0.596974 0.674061)
(-0.459299 0.61852 0.68749)
(-0.454774 0.630577 0.683851)
(-0.392293 0.5625 0.577537)
(-0.489365 0.626257 0.704087)
(-0.496998 0.627179 0.713708)
(-0.474151 0.62577 0.682299)
(-0.494765 0.626028 0.709148)
(-0.435595 0.592004 0.623083)
(-0.419809 0.59377 0.631115)
(-0.479294 0.639228 0.705236)
(-0.477787 0.643774 0.698003)
(-0.446201 0.606495 0.654304)
(-0.103057 0.12604 0.102784)
(-0.0836812 0.0985376 0.095457)
(-0.0758117 0.0926722 0.0793567)
(-0.103544 0.142449 0.106988)
(-0.133719 0.164399 0.143478)
(-0.133905 0.158212 0.145034)
(-0.128311 0.136536 0.150776)
(-0.161013 0.167602 0.173634)
(-0.0652619 0.0815038 0.0749634)
(-0.0644875 0.0767672 0.0827128)
(-0.163691 0.181356 0.173173)
(-0.127586 0.144321 0.153786)
(-0.122764 0.140093 0.143016)
(-0.0879917 0.103879 0.109309)
(-0.0724385 0.103249 0.0852557)
(-0.0749964 0.0957677 0.0945989)
(-0.0556222 0.0807277 0.0830652)
(-0.302126 0.17822 0.270577)
(-0.356196 0.218107 0.349275)
(-0.323466 0.20588 0.29986)
(-0.352775 0.220188 0.339023)
(-0.332173 0.541627 0.546859)
(-0.31174 0.496994 0.523619)
(-0.281246 0.468596 0.468817)
(-0.239634 0.447671 0.45007)
(-0.213106 0.433432 0.381285)
(-0.339866 0.565639 0.580909)
(-0.353313 0.605418 0.612289)
(-0.218444 0.46374 0.404834)
(-0.292928 0.486414 0.478355)
(-0.233364 0.502311 0.490747)
(-0.309249 0.610419 0.633609)
(-0.345569 0.579761 0.61926)
(-0.305597 0.579018 0.586368)
(-0.353614 0.664391 0.662141)
(-0.277816 0.536842 0.524221)
(-0.399536 0.559672 0.681472)
(-0.446104 0.606773 0.741487)
(-0.43689 0.581827 0.718444)
(-0.428442 0.584296 0.716798)
(-0.390241 0.531272 0.672963)
(-0.410055 0.551739 0.698168)
(-0.338587 0.482781 0.610185)
(-0.368252 0.508174 0.647772)
(-0.414969 0.579509 0.703977)
(-0.356759 0.529634 0.638772)
(-0.382448 0.538452 0.676193)
(-0.389021 0.544284 0.675549)
(-0.44202 0.603582 0.731976)
(-0.322973 0.517042 0.610106)
(-0.339145 0.5013 0.612548)
(-0.331941 0.506603 0.604459)
(-0.374371 0.55998 0.674744)
(-0.38929 0.567372 0.686025)
(-0.434003 0.623423 0.725274)
(-0.407377 0.594433 0.702648)
(-0.39625 0.549954 0.68402)
(-0.347136 0.533267 0.618166)
(-0.39401 0.575662 0.691499)
(-0.374374 0.552972 0.664363)
(-0.435833 0.602041 0.728834)
(-0.406635 0.57364 0.709648)
(-0.218548 0.671011 0.56484)
(-0.179545 0.641817 0.58863)
(-0.225929 0.653585 0.570224)
(-0.155085 0.628639 0.568286)
(-0.193475 0.657858 0.581627)
(-0.161738 0.605036 0.512969)
(-0.186364 0.623423 0.545003)
(-0.127464 0.471282 0.256299)
(-0.122113 0.448155 0.233865)
(-0.103551 0.441094 0.261631)
(-0.12683 0.445372 0.293927)
(-0.125697 0.498165 0.459881)
(-0.108131 0.45924 0.369597)
(-0.124665 0.49042 0.294743)
(-0.159714 0.451737 0.382698)
(-0.110146 0.502503 0.455412)
(-0.109536 0.537069 0.445738)
(-0.123156 0.547735 0.547738)
(-0.129825 0.527398 0.542897)
(-0.156437 0.492408 0.429781)
(-0.139196 0.536828 0.515511)
(-0.160478 0.519776 0.546916)
(-0.151742 0.540469 0.550585)
(-0.184899 0.458468 0.440039)
(-0.215533 0.301921 0.319873)
(-0.166884 0.254601 0.233276)
(-0.36156 0.406726 0.468419)
(-0.392585 0.451935 0.51356)
(-0.318809 0.371498 0.413604)
(-0.232364 0.297485 0.322235)
(-0.305457 0.406217 0.447362)
(-0.2057 0.288296 0.269677)
(-0.359177 0.441309 0.503964)
(-0.376085 0.43796 0.510361)
(-0.246096 0.325059 0.311946)
(-0.375807 0.424273 0.505032)
(-0.359685 0.432867 0.517295)
(-0.265027 0.338435 0.35408)
(-0.251051 0.383073 0.375505)
(-0.219073 0.41032 0.365462)
(-0.197342 0.388724 0.335407)
(-0.227409 0.380692 0.352392)
(-0.277587 0.465777 0.446502)
(-0.244735 0.39883 0.367659)
(-0.312455 0.471613 0.459651)
(-0.230591 0.465375 0.382197)
(-0.250791 0.460575 0.405938)
(-0.278603 0.540186 0.524878)
(-0.329372 0.586498 0.561656)
(-0.299067 0.467411 0.43694)
(-0.35797 0.569067 0.573372)
(-0.309314 0.547195 0.527709)
(-0.347985 0.537723 0.529381)
(-0.160339 0.218241 0.220772)
(-0.138053 0.199967 0.206355)
(-0.334219 0.392846 0.503331)
(-0.2641 0.351421 0.423174)
(-0.126705 0.168025 0.187054)
(-0.137124 0.199004 0.229103)
(-0.336664 0.42323 0.534511)
(-0.234331 0.320102 0.363254)
(-0.181569 0.246247 0.274675)
(-0.17471 0.237791 0.254091)
(-0.220769 0.27722 0.319344)
(-0.176603 0.218387 0.257115)
(-0.17341 0.23726 0.289281)
(-0.193793 0.271325 0.295731)
(-0.221716 0.288349 0.332982)
(-0.17623 0.230419 0.255601)
(-0.145022 0.192288 0.221822)
(-0.149059 0.202534 0.224884)
(-0.136062 0.175638 0.194847)
(-0.205285 0.267196 0.31534)
(-0.316384 0.477477 0.569855)
(-0.339107 0.494887 0.605273)
(-0.299404 0.451356 0.53722)
(-0.271499 0.409784 0.478263)
(-0.423353 0.583144 0.720822)
(-0.426091 0.590038 0.736963)
(-0.286725 0.414093 0.497594)
(-0.357297 0.477248 0.603968)
(-0.357409 0.481567 0.608923)
(-0.415014 0.562898 0.708781)
(-0.323778 0.471648 0.588188)
(-0.396291 0.548586 0.696893)
(-0.400366 0.579364 0.703226)
(-0.365945 0.519582 0.658038)
(-0.322496 0.472327 0.553936)
(-0.366504 0.535068 0.642886)
(-0.323155 0.428711 0.467921)
(-0.302867 0.405533 0.433996)
(-0.382522 0.461776 0.521437)
(-0.357476 0.428295 0.47648)
(-0.318935 0.451457 0.493464)
(-0.44171 0.540943 0.616841)
(-0.438646 0.545769 0.610087)
(-0.340256 0.403357 0.435891)
(-0.431202 0.520526 0.597643)
(-0.309377 0.410902 0.426358)
(-0.375408 0.507389 0.578687)
(-0.421835 0.503301 0.573371)
(-0.387905 0.453412 0.516709)
(-0.434962 0.552377 0.591106)
(-0.406032 0.524457 0.587523)
(-0.34399 0.409637 0.440697)
(-0.372632 0.4457 0.501875)
(-0.303396 0.369657 0.459903)
(-0.218265 0.282446 0.351345)
(-0.123645 0.17506 0.1916)
(-0.140862 0.23879 0.237714)
(-0.18449 0.264029 0.280196)
(-0.103327 0.175236 0.184161)
(-0.1011 0.16857 0.174312)
(-0.211955 0.285007 0.310275)
(-0.193321 0.259098 0.307221)
(-0.195808 0.244989 0.297869)
(-0.24795 0.309812 0.377601)
(-0.25474 0.319097 0.383495)
(-0.220374 0.291547 0.333127)
(-0.185721 0.265809 0.280505)
(-0.234176 0.319959 0.327021)
(-0.550489 0.564118 0.689346)
(-0.551472 0.566958 0.697833)
(-0.557015 0.592717 0.703939)
(-0.556861 0.584253 0.709745)
(-0.555813 0.568109 0.700458)
(-0.507892 0.521374 0.618538)
(-0.53014 0.542828 0.660172)
(-0.535465 0.556201 0.672358)
(-0.536663 0.565698 0.696692)
(-0.538526 0.593318 0.71941)
(-0.54443 0.580312 0.699643)
(-0.558614 0.59705 0.726331)
(-0.561502 0.57651 0.707665)
(-0.538397 0.567323 0.696481)
(-0.544668 0.596284 0.716634)
(-0.534745 0.603619 0.732945)
(-0.553787 0.592625 0.722049)
(-0.54695 0.602155 0.735441)
(-0.557127 0.619033 0.755575)
(-0.545735 0.609969 0.739881)
(-0.549109 0.61039 0.742374)
(-0.541077 0.604882 0.7401)
(-0.143305 0.252426 0.180265)
(-0.158781 0.280815 0.241706)
(-0.197048 0.305732 0.285156)
(-0.215238 0.317005 0.300082)
(-0.225601 0.318797 0.298505)
(-0.172965 0.301132 0.259228)
(-0.183993 0.338222 0.305164)
(-0.161925 0.28838 0.231107)
(-0.154714 0.295228 0.229095)
(-0.267847 0.409993 0.41215)
(-0.190346 0.311725 0.269121)
(-0.222213 0.346022 0.323689)
(-0.3283 0.436844 0.435446)
(-0.282732 0.379897 0.384514)
(-0.312384 0.421029 0.444354)
(-0.323465 0.423741 0.441401)
(-0.268802 0.447111 0.435719)
(-0.281389 0.403947 0.405194)
(-0.269617 0.370521 0.37253)
(-0.0386384 0.615743 0.517614)
(-0.0314332 0.632625 0.524719)
(-0.0151316 0.60433 0.500287)
(-0.0743354 0.673256 0.55371)
(-0.045137 0.702017 0.584865)
(-0.0637701 0.663967 0.524169)
(-0.0166853 0.618727 0.492513)
(-0.0920885 0.675106 0.493111)
(-0.0681853 0.695175 0.532215)
(-0.0392754 0.658535 0.519787)
(-0.0262337 0.606446 0.457931)
(-0.0609539 0.666454 0.506832)
(-0.0917689 0.652046 0.404311)
(-0.103616 0.673014 0.398735)
(-0.0812139 0.676903 0.451671)
(-0.201704 0.286081 0.30075)
(-0.244566 0.338718 0.348704)
(-0.151551 0.225519 0.203907)
(-0.157408 0.244511 0.220678)
(-0.223424 0.332021 0.351156)
(-0.228693 0.321165 0.338269)
(-0.169738 0.276879 0.249121)
(-0.186839 0.32713 0.294031)
(-0.1408 0.216934 0.188757)
(-0.181991 0.321922 0.302275)
(-0.115147 0.198021 0.164903)
(-0.184063 0.31221 0.301091)
(-0.168701 0.308267 0.285342)
(-0.128995 0.248937 0.194853)
(-0.120756 0.256894 0.213506)
(-0.1019 0.227529 0.164194)
(-0.102797 0.233966 0.187717)
(-0.115648 0.209989 0.153803)
(-0.125967 0.228267 0.165725)
(-0.121106 0.221728 0.15924)
(-0.193272 0.316606 0.297253)
(-0.107407 0.220156 0.134191)
(-0.499066 0.660872 0.738346)
(-0.536798 0.68697 0.788202)
(-0.494881 0.625247 0.726344)
(-0.524149 0.705858 0.797524)
(-0.486038 0.620583 0.707481)
(-0.492641 0.627377 0.704848)
(-0.519256 0.710065 0.789937)
(-0.495777 0.673998 0.74115)
(-0.486917 0.648868 0.711648)
(-0.488034 0.664808 0.723046)
(-0.553603 0.699258 0.81559)
(-0.517007 0.653838 0.754805)
(-0.510638 0.641884 0.737961)
(-0.50833 0.650887 0.740528)
(-0.472626 0.632615 0.706944)
(-0.467148 0.620333 0.691344)
(-0.511481 0.704614 0.7783)
(-0.452354 0.597156 0.653947)
(-0.545117 0.702576 0.812138)
(-0.537286 0.716831 0.822059)
(-0.535304 0.710604 0.814561)
(-0.281157 0.706906 0.675202)
(-0.248438 0.724163 0.669189)
(-0.199091 0.652822 0.589671)
(-0.22409 0.697799 0.607753)
(-0.255954 0.683031 0.667586)
(-0.208652 0.679458 0.598576)
(-0.192183 0.665253 0.595652)
(-0.266632 0.679958 0.667994)
(-0.246093 0.671887 0.658614)
(-0.235149 0.702946 0.667062)
(-0.217546 0.720076 0.648324)
(-0.249934 0.746287 0.665889)
(-0.260187 0.721466 0.676541)
(-0.339064 0.667162 0.603956)
(-0.334751 0.698433 0.622432)
(-0.332697 0.675212 0.595652)
(-0.336495 0.678007 0.594778)
(-0.319436 0.675728 0.579259)
(-0.273944 0.587895 0.49829)
(-0.326103 0.633188 0.562142)
(-0.276358 0.571935 0.503207)
(-0.292995 0.629928 0.542325)
(-0.320339 0.699531 0.597184)
(-0.343507 0.741174 0.651533)
(-0.363058 0.717919 0.650319)
(-0.57007 0.659315 0.892593)
(-0.583828 0.668161 0.900291)
(-0.593811 0.680721 0.904501)
(-0.580291 0.640221 0.885022)
(-0.598969 0.660233 0.917921)
(-0.612544 0.677093 0.919282)
(-0.58171 0.642236 0.898289)
(-0.583411 0.63115 0.897859)
(-0.618135 0.652482 0.915869)
(-0.615692 0.673135 0.922944)
(-0.381381 0.715147 0.612592)
(-0.360576 0.712091 0.601231)
(-0.243296 0.652417 0.469646)
(-0.349015 0.687688 0.586537)
(-0.384166 0.712357 0.630009)
(-0.387605 0.71274 0.611481)
(-0.382354 0.695888 0.611248)
(-0.216893 0.465289 0.432211)
(-0.224381 0.458311 0.460243)
(-0.273616 0.536293 0.565001)
(-0.383309 0.544105 0.589818)
(-0.384578 0.551709 0.622836)
(-0.347559 0.552163 0.635088)
(-0.301939 0.556307 0.626977)
(-0.329798 0.49092 0.554128)
(-0.40752 0.503183 0.556169)
(-0.353112 0.503636 0.536681)
(-0.199656 0.484267 0.464457)
(-0.375168 0.518402 0.536112)
(-0.41282 0.520329 0.569781)
(-0.371319 0.542899 0.633765)
(-0.345658 0.519251 0.601223)
(-0.382662 0.514639 0.581143)
(-0.300712 0.514149 0.587711)
(-0.389834 0.519584 0.594284)
(-0.418944 0.698556 0.698663)
(-0.412575 0.66334 0.670356)
(-0.354888 0.577337 0.577323)
(-0.481618 0.721181 0.767368)
(-0.469162 0.709379 0.735668)
(-0.406031 0.646014 0.66372)
(-0.365726 0.588066 0.605624)
(-0.421199 0.63886 0.676693)
(-0.43378 0.661441 0.694008)
(-0.387007 0.60457 0.627297)
(-0.40971 0.609833 0.633321)
(-0.4083 0.617173 0.638428)
(-0.479315 0.733753 0.770078)
(-0.369684 0.618906 0.610568)
(-0.437403 0.649801 0.684914)
(-0.454344 0.664834 0.705654)
(-0.43341 0.637468 0.677627)
(-0.467928 0.725708 0.74811)
(-0.393514 0.73217 0.656098)
(-0.437487 0.768169 0.716337)
(-0.421457 0.757074 0.685226)
(-0.411683 0.77394 0.690105)
(-0.41074 0.750964 0.678333)
(-0.376757 0.737765 0.639403)
(-0.387848 0.746477 0.654002)
(-0.414431 0.744021 0.65741)
(-0.396411 0.749312 0.639684)
(-0.42301 0.763984 0.680975)
(-0.415491 0.752028 0.6752)
(-0.421401 0.779128 0.696222)
(-0.380713 0.771119 0.65788)
(-0.380912 0.75415 0.651986)
(-0.417884 0.746414 0.674097)
(-0.405733 0.761588 0.650923)
(-0.403472 0.755028 0.650455)
(-0.425573 0.73506 0.659895)
(-0.397198 0.783817 0.66413)
(-0.267352 0.439753 0.67805)
(-0.243178 0.428737 0.659634)
(-0.169894 0.390637 0.579344)
(-0.168615 0.386646 0.580629)
(-0.214065 0.418959 0.620216)
(-0.194735 0.38524 0.574496)
(-0.281936 0.474314 0.711345)
(-0.195397 0.418547 0.633572)
(-0.265841 0.433867 0.67435)
(-0.29984 0.460622 0.704056)
(-0.196574 0.400064 0.576809)
(-0.304244 0.478322 0.660254)
(-0.213856 0.401145 0.590086)
(-0.29319 0.469703 0.63174)
(-0.285738 0.434016 0.547232)
(-0.312928 0.469247 0.647742)
(-0.255592 0.457904 0.671697)
(-0.29707 0.471712 0.654952)
(-0.278917 0.448075 0.57644)
(-0.26664 0.448016 0.568945)
(-0.23487 0.432581 0.558039)
(-0.477485 0.582082 0.688824)
(-0.471466 0.579652 0.682513)
(-0.496227 0.603066 0.714205)
(-0.521574 0.624595 0.735095)
(-0.473376 0.562406 0.685923)
(-0.444677 0.55174 0.64364)
(-0.495074 0.609451 0.71593)
(-0.486221 0.596155 0.693582)
(-0.491753 0.583933 0.696071)
(-0.51288 0.631009 0.737857)
(-0.50878 0.597295 0.713249)
(-0.501484 0.603726 0.721575)
(-0.516804 0.628792 0.734855)
(-0.508589 0.595951 0.709092)
(-0.528153 0.654832 0.753663)
(-0.497405 0.59644 0.708801)
(-0.487548 0.571575 0.698906)
(-0.466038 0.570659 0.672793)
(-0.483211 0.59624 0.691532)
(-0.415836 0.533458 0.599553)
(-0.324514 0.648362 0.404465)
(-0.362045 0.68352 0.435537)
(-0.288907 0.599237 0.449033)
(-0.299367 0.615783 0.466849)
(-0.342812 0.64106 0.530911)
(-0.335893 0.642628 0.417123)
(-0.343317 0.646839 0.422838)
(-0.327795 0.639825 0.483236)
(-0.295587 0.58075 0.435282)
(-0.323289 0.587555 0.471237)
(-0.303561 0.572005 0.40834)
(-0.34183 0.604095 0.425468)
(-0.369121 0.641742 0.54427)
(-0.334308 0.58705 0.426226)
(-0.357795 0.618009 0.414401)
(-0.357264 0.617211 0.501741)
(-0.362944 0.617586 0.499857)
(-0.398336 0.598455 0.729177)
(-0.383394 0.606186 0.736985)
(-0.384122 0.611451 0.728128)
(-0.383243 0.606531 0.693207)
(-0.41175 0.646463 0.719853)
(-0.399912 0.622717 0.693778)
(-0.420568 0.626742 0.717063)
(-0.425446 0.634594 0.724881)
(-0.388999 0.62304 0.73163)
(-0.383509 0.632271 0.722192)
(-0.421661 0.639177 0.733227)
(-0.367289 0.622791 0.694027)
(-0.420716 0.658943 0.728193)
(-0.399075 0.648706 0.721872)
(-0.413444 0.673119 0.720198)
(-0.366747 0.419614 0.463246)
(-0.389384 0.447675 0.527547)
(-0.355628 0.399787 0.437251)
(-0.355066 0.399643 0.440682)
(-0.414817 0.465817 0.583823)
(-0.43556 0.482479 0.608185)
(-0.445063 0.495599 0.565138)
(-0.430447 0.483091 0.543034)
(-0.461518 0.501598 0.597625)
(-0.454467 0.494443 0.583679)
(-0.435632 0.466997 0.57119)
(-0.422487 0.465519 0.569305)
(-0.43875 0.47931 0.561915)
(-0.465535 0.509372 0.604467)
(-0.467515 0.504538 0.597583)
(-0.411267 0.433017 0.490462)
(-0.42655 0.463431 0.560342)
(-0.305282 0.278386 0.34454)
(-0.351352 0.331303 0.416137)
(-0.438428 0.383733 0.587377)
(-0.423964 0.382126 0.588063)
(-0.315174 0.323057 0.384866)
(-0.389955 0.317416 0.466484)
(-0.342244 0.276725 0.379687)
(-0.419583 0.342988 0.541825)
(-0.384116 0.310324 0.464908)
(-0.367913 0.296024 0.430173)
(-0.36904 0.303373 0.453017)
(-0.305668 0.371796 0.454184)
(-0.352782 0.378407 0.504142)
(-0.311383 0.325923 0.381259)
(-0.356819 0.27208 0.389968)
(-0.375165 0.308949 0.439033)
(-0.423281 0.35869 0.522314)
(-0.351179 0.293249 0.378101)
(-0.336816 0.518979 0.622965)
(-0.391577 0.585684 0.69605)
(-0.30158 0.492376 0.57014)
(-0.405143 0.576422 0.70588)
(-0.287965 0.445944 0.52191)
(-0.278281 0.450335 0.503188)
(-0.292967 0.425428 0.4966)
(-0.328383 0.480728 0.541533)
(-0.449466 0.629515 0.7577)
(-0.468234 0.631464 0.758665)
(-0.478593 0.631502 0.774337)
(-0.360762 0.498035 0.597515)
(-0.354659 0.480632 0.555458)
(-0.281703 0.449945 0.495354)
(-0.370321 0.552284 0.64555)
(-0.414901 0.549083 0.646998)
(-0.425719 0.570324 0.671744)
(-0.332623 0.522763 0.579183)
(-0.516806 0.686548 0.79072)
(-0.524237 0.689595 0.799871)
(-0.522522 0.682951 0.793666)
(-0.504104 0.673771 0.771997)
(-0.513946 0.685729 0.775557)
(-0.512858 0.681878 0.769553)
(-0.517918 0.686799 0.791938)
(-0.500025 0.672542 0.74904)
(-0.509324 0.674526 0.760857)
(-0.522223 0.682375 0.782799)
(-0.501353 0.676801 0.745452)
(-0.520291 0.670563 0.768211)
(-0.527544 0.675469 0.770863)
(-0.519398 0.68686 0.775614)
(-0.535049 0.669104 0.778914)
(-0.312632 0.210881 0.310506)
(-0.340485 0.223779 0.32451)
(-0.208324 0.14615 0.19377)
(-0.195151 0.139201 0.180589)
(-0.207436 0.126771 0.181988)
(-0.180646 0.0953645 0.156147)
(-0.174074 0.100471 0.152269)
(-0.164856 0.102235 0.147013)
(-0.148437 0.0776614 0.125317)
(-0.168269 0.0951853 0.146948)
(-0.307438 0.19268 0.293907)
(-0.328219 0.20216 0.316509)
(-0.303176 0.192773 0.295832)
(-0.276321 0.19506 0.266087)
(-0.282112 0.220161 0.289923)
(-0.18778 0.121223 0.167604)
(-0.219165 0.157089 0.201979)
(-0.163928 0.0905157 0.147085)
(-0.220528 0.14479 0.197232)
(-0.249621 0.158846 0.229451)
(-0.270394 0.162931 0.259054)
(-0.282993 0.186744 0.275369)
(-0.218126 0.134017 0.204897)
(-0.216333 0.130839 0.200237)
(-0.180107 0.107922 0.169768)
(-0.620808 0.662689 0.889323)
(-0.607598 0.655601 0.894801)
(-0.589293 0.661708 0.869344)
(-0.576216 0.652439 0.850006)
(-0.57422 0.645572 0.838612)
(-0.604286 0.659114 0.881886)
(-0.618269 0.675755 0.884452)
(-0.585466 0.647699 0.846313)
(-0.578294 0.639233 0.837298)
(-0.612881 0.663267 0.906694)
(-0.616015 0.660897 0.892613)
(-0.604221 0.681985 0.901962)
(-0.609924 0.664525 0.903913)
(-0.570558 0.660286 0.85092)
(-0.547579 0.627945 0.795773)
(-0.591032 0.669762 0.880414)
(-0.573468 0.638259 0.827266)
(-0.582263 0.651014 0.847717)
(-0.627906 0.677437 0.889957)
(-0.537192 0.608453 0.739744)
(-0.549067 0.621427 0.781979)
(-0.546581 0.636957 0.820994)
(-0.546049 0.648952 0.802269)
(-0.542162 0.649335 0.799727)
(-0.54435 0.644724 0.793108)
(-0.536001 0.641358 0.783594)
(-0.548563 0.640935 0.783999)
(-0.54977 0.647953 0.78694)
(-0.540576 0.630772 0.769078)
(-0.550001 0.661975 0.817558)
(-0.552922 0.632849 0.787741)
(-0.536866 0.636719 0.778999)
(-0.541531 0.641919 0.781298)
(-0.537588 0.644437 0.776128)
(-0.561079 0.641786 0.791511)
(-0.548279 0.640636 0.796367)
(-0.54151 0.645814 0.792315)
(-0.549308 0.61822 0.749419)
(-0.559798 0.644675 0.780623)
(-0.51303 0.612956 0.731181)
(-0.497856 0.577369 0.695195)
(-0.544923 0.629067 0.760711)
(-0.508983 0.583372 0.698145)
(-0.539242 0.637638 0.76711)
(-0.350728 0.399206 0.533893)
(-0.4088 0.417406 0.612488)
(-0.458784 0.402137 0.631472)
(-0.438848 0.389532 0.617476)
(-0.314027 0.415623 0.537526)
(-0.327597 0.431575 0.568471)
(-0.451956 0.402993 0.634059)
(-0.355947 0.47158 0.61995)
(-0.346353 0.444104 0.598395)
(-0.423366 0.47235 0.691848)
(-0.434925 0.461151 0.696546)
(-0.442058 0.407914 0.643884)
(-0.44775 0.408507 0.651446)
(-0.433021 0.457317 0.695799)
(-0.429574 0.423445 0.656435)
(-0.4318 0.44652 0.691787)
(-0.0352602 0.0280222 0.0300385)
(-0.0353001 0.0197695 0.0231636)
(-0.0554365 0.0274138 0.0346462)
(-0.0474195 0.0208293 0.0277858)
(-0.0365283 0.031969 0.0353773)
(-0.0517095 0.0323127 0.041245)
(-0.0599955 0.029462 0.0411546)
(-0.0508016 0.0200157 0.0315347)
(-0.0365501 0.0113347 0.0206342)
(-0.0742801 0.0620572 0.0745921)
(-0.0684262 0.0595055 0.065094)
(-0.0696735 0.0537829 0.064248)
(-0.0790219 0.0510105 0.0675058)
(-0.0695366 0.0344556 0.0524032)
(-0.0512181 0.0477569 0.0544624)
(-0.0691329 0.0397272 0.0511266)
(-0.0783904 0.0523276 0.0677568)
(-0.0526611 0.0397483 0.0535231)
(-0.566219 0.675787 0.867012)
(-0.558778 0.668408 0.847491)
(-0.564523 0.681219 0.868264)
(-0.56275 0.6751 0.862165)
(-0.563079 0.689278 0.872747)
(-0.516815 0.638288 0.781594)
(-0.500858 0.62637 0.762851)
(-0.522491 0.636029 0.790462)
(-0.547717 0.653904 0.828315)
(-0.558762 0.668318 0.843259)
(-0.498624 0.629499 0.767805)
(-0.463011 0.580127 0.705461)
(-0.504195 0.613111 0.765344)
(-0.529787 0.639328 0.798453)
(-0.528546 0.641289 0.796386)
(-0.537744 0.652307 0.81282)
(-0.494702 0.611617 0.762563)
(-0.474604 0.596094 0.725223)
(-0.536216 0.66289 0.819936)
(-0.502795 0.631742 0.76372)
(-0.501434 0.634073 0.77059)
(-0.522806 0.657436 0.7986)
(-0.528576 0.654607 0.800457)
(-0.567178 0.683554 0.860835)
(-0.570363 0.690868 0.870852)
(-0.58539 0.678238 0.882812)
(-0.574779 0.682878 0.87682)
(-0.500914 0.617234 0.753049)
(-0.535762 0.65115 0.810884)
(-0.580454 0.691047 0.886507)
(-0.574818 0.682192 0.875879)
(-0.501649 0.617535 0.752458)
(-0.546628 0.669335 0.831015)
(-0.562079 0.67627 0.848727)
(-0.54677 0.656362 0.818055)
(-0.543166 0.610869 0.793112)
(-0.540034 0.612516 0.77473)
(-0.53839 0.587439 0.729709)
(-0.546886 0.574044 0.700255)
(-0.509011 0.546307 0.702649)
(-0.53955 0.600104 0.759929)
(-0.427108 0.45739 0.564018)
(-0.468874 0.50079 0.620459)
(-0.529091 0.55579 0.681891)
(-0.540635 0.588456 0.729568)
(-0.516483 0.531904 0.654171)
(-0.516257 0.549085 0.684414)
(-0.510168 0.543663 0.728215)
(-0.528342 0.557951 0.739146)
(-0.533842 0.570798 0.721664)
(-0.534749 0.568256 0.707956)
(-0.411781 0.452807 0.535709)
(-0.399071 0.473215 0.564819)
(-0.346583 0.416822 0.455819)
(-0.409933 0.460508 0.550553)
(-0.433999 0.504506 0.627801)
(-0.319171 0.392577 0.421084)
(-0.31955 0.412277 0.449934)
(-0.30694 0.435956 0.489935)
(-0.387357 0.480425 0.592346)
(-0.393406 0.457891 0.526998)
(-0.380534 0.466211 0.537566)
(-0.307753 0.429358 0.49134)
(-0.406273 0.46271 0.576947)
(-0.397938 0.473499 0.620909)
(-0.378292 0.476105 0.596742)
(-0.176219 0.0750025 0.14374)
(-0.503007 0.503929 0.758978)
(-0.448715 0.474369 0.727575)
(-0.01641 0.000977752 0.0117137)
(-0.00973111 0.00342704 0.00928013)
(-0.475425 0.357959 0.656194)
(-0.469687 0.320571 0.615471)
(-0.53121 0.581075 0.731154)
(-0.530962 0.602574 0.742867)
(-0.556391 0.586839 0.740501)
(-0.461136 0.512297 0.739558)
(-0.461626 0.508456 0.744575)
(-0.456404 0.47763 0.728448)
(-0.19137 0.313957 0.441095)
(-0.164205 0.262824 0.38668)
(-0.199607 0.335386 0.468272)
(-0.141366 0.239201 0.331091)
(-0.340467 0.206089 0.34614)
(-0.374396 0.228087 0.382805)
(-0.541221 0.588874 0.727289)
(-0.543551 0.577666 0.731537)
(-0.556719 0.600295 0.750937)
(-0.570069 0.644646 0.836365)
(-0.556471 0.63468 0.8248)
(-0.499084 0.48666 0.739712)
(-0.523323 0.50956 0.73261)
(-0.503728 0.500104 0.753233)
(-0.0249968 0.0280746 0.0298638)
(-0.0279208 0.0229067 0.0256293)
(-0.509625 0.584253 0.729348)
(-0.505095 0.585984 0.72837)
(-0.4489 0.448779 0.711703)
(-0.451819 0.460372 0.715199)
(-0.451268 0.479339 0.723337)
(-0.445754 0.492137 0.721757)
(-0.513854 0.617782 0.769321)
(-0.502367 0.615182 0.756851)
(-0.115526 0.0648718 0.098358)
(-0.134888 0.0836438 0.121703)
(-0.100145 0.0618595 0.0850595)
(-0.528203 0.592273 0.741736)
(-0.51619 0.583555 0.754524)
(-0.588898 0.622195 0.820941)
(-0.525476 0.579404 0.730391)
(-0.515882 0.6038 0.737059)