/*--------------------------------*- C++ -*----------------------------------*\
| =========                 |                                                 |
| \\      /  F ield         | OpenFOAM: The Open Source CFD Toolbox           |
|  \\    /   O peration     | Version:  v1612+                                |
|   \\  /    A nd           | Web:      www.OpenFOAM.com                      |
|    \\/     M anipulation  |                                                 |
\*---------------------------------------------------------------------------*/
FoamFile
{
    version     2.0;
    format      ascii;
    class       volVectorField;
    location    "150";
    object      wallShearStress;
}
// * * * * * * * * * * * * * * * * * * * * * * * * * * * * * * * * * * * * * //

dimensions      [0 2 -2 0 0 0 0];

internalField   uniform (0 0 0);

boundaryField
{
    WALL
    {
        type            calculated;
        value           nonuniform List<vector> 
1676
(
(-0.00512282 -0.00548318 -0.0111908)
(-0.00302424 -0.0061597 -0.013569)
(0.00230628 -0.000648097 -0.00186671)
(0.000416321 0.00043797 0.000122244)
(-0.00212673 -0.0158252 -0.00708205)
(-0.0024825 -0.0130912 -0.00675202)
(0.00213101 -0.0104246 -0.00900062)
(0.000482788 -0.0094895 -0.00872619)
(0.00102692 -0.00104321 -0.00133214)
(0.00159909 -0.00173456 -0.00214414)
(-0.00223 -0.00132235 -0.00185204)
(-0.00425545 -0.00270202 -0.00545085)
(0.00378552 -0.0158047 -0.0160528)
(0.00323923 -0.012822 -0.0124696)
(0.0115574 -0.0150466 -0.0160416)
(0.0127896 -0.0173335 -0.0191688)
(-0.000637012 -0.00773494 -0.0074283)
(0.00551372 -0.0171142 -0.0128996)
(0.00548085 -0.0186002 -0.0131644)
(-0.00426314 -0.0171924 -0.0070801)
(-0.00551096 -0.0161048 -0.00746598)
(-0.000752949 -0.0174626 -0.00744805)
(-0.00209743 -0.0172101 -0.00767783)
(-0.00319762 -0.00913011 -0.00960718)
(-0.00494553 -0.00935138 -0.00900237)
(0.009731 -0.0175331 -0.0185595)
(0.00954029 -0.0179315 -0.0183455)
(6.94807e-05 -0.00934068 -0.0130452)
(0.0015681 -0.00925628 -0.0130332)
(0.0041898 -0.0144932 -0.00944586)
(0.0035751 -0.0125493 -0.00889699)
(0.00406746 -0.0172875 -0.00570103)
(0.00525086 -0.0177003 -0.00719338)
(-0.00361275 -0.0102359 -0.0139625)
(-0.000988072 -0.0103924 -0.0137999)
(-1.12395e-05 -0.0081199 -0.0146401)
(-0.00183662 -0.00765706 -0.0142735)
(-0.00293929 -0.00322491 -0.0087328)
(-0.00269211 -0.00305104 -0.0111141)
(0.00453103 -0.0159342 -0.00615595)
(0.00475184 -0.014406 -0.00647373)
(0.0145449 -0.0165504 -0.0207421)
(7.31905e-05 -0.000219479 -0.000439187)
(-0.00251438 -0.00398381 -0.0119587)
(0.000521836 -0.0054855 -0.0131285)
(0.00102095 -0.0209801 -0.00750142)
(0.000941272 -0.0227711 -0.00639698)
(0.000839433 -0.0164505 -0.00281302)
(0.00213899 -0.016799 -0.00398133)
(0.000338697 -0.0182144 -0.00385346)
(0.00223035 -0.0178552 -0.00502357)
(-0.000438014 -0.0180614 -0.00360773)
(-2.78195e-05 -0.0181251 -0.00405141)
(-0.00213699 -0.0129381 -0.0139564)
(-0.00401902 -0.014466 -0.0145287)
(-0.00146157 -0.014095 -0.014246)
(-0.00346144 -0.0135621 -0.0141405)
(0.00948836 -0.0155035 -0.0173264)
(0.00856554 -0.0157355 -0.0175663)
(0.00787324 -0.0158311 -0.0178996)
(0.010112 -0.0150722 -0.0166262)
(0.00978878 -0.0170517 -0.0191639)
(0.0093623 -0.0164053 -0.0186155)
(0.00469277 -0.0144495 -0.0153912)
(0.00204075 -0.0141335 -0.0140114)
(0.00141573 -0.0155638 -0.014665)
(-0.000220558 -0.0138142 -0.0132188)
(0.000452778 -0.0123353 -0.0120697)
(0.00254001 -0.0145236 -0.0145076)
(0.0139267 -0.0175061 -0.0213606)
(0.0144563 -0.0181415 -0.0236239)
(0.0146347 -0.01839 -0.023701)
(0.0143644 -0.0187996 -0.0236604)
(0.0132101 -0.0178146 -0.0219536)
(0.0129006 -0.0162961 -0.0197043)
(0.00400671 -0.0138953 -0.00688122)
(0.00331415 -0.0127432 -0.00707306)
(0.0042401 -0.0157263 -0.00710331)
(0.00188485 -0.0171109 -0.0138233)
(0.00452824 -0.0178006 -0.0160745)
(0.00315126 -0.0172793 -0.0152187)
(0.00343195 -0.0175969 -0.0138095)
(0.00130086 -0.0169683 -0.0128849)
(0.00362543 -0.0162052 -0.0137599)
(-0.00459675 -0.015773 -0.00857071)
(-0.0032703 -0.0174599 -0.00784)
(-0.0033187 -0.016548 -0.0092943)
(-0.0045606 -0.0178006 -0.00627027)
(-0.00491199 -0.0170108 -0.00804879)
(-0.00343645 -0.0165937 -0.00816401)
(0.0145052 -0.0184016 -0.0219936)
(0.0150643 -0.0196521 -0.0235424)
(0.0172762 -0.0206556 -0.0253759)
(0.0103064 -0.0177986 -0.0196408)
(0.0109543 -0.017627 -0.0198622)
(0.00896631 -0.0178946 -0.0178419)
(0.0107487 -0.0187053 -0.0203516)
(0.0114501 -0.0192804 -0.0211859)
(0.0103006 -0.0181997 -0.0191524)
(-0.00166976 -0.00719707 -0.00758772)
(-0.00384201 -0.0069462 -0.00796712)
(-0.00267792 -0.00701405 -0.00776864)
(0.0010888 -0.00925983 -0.0145299)
(0.00231619 -0.00877676 -0.0140809)
(0.0025079 -0.00923637 -0.0130801)
(0.002762 -0.00911117 -0.01299)
(-0.000416642 -0.00774893 -0.014771)
(0.00103389 -0.00869432 -0.014512)
(0.00899941 -0.00531778 -0.0116579)
(0.00680624 -0.00517537 -0.00901179)
(0.00755744 -0.00550273 -0.00935206)
(0.00954046 -0.0065814 -0.0122758)
(0.00918933 -0.0064609 -0.0118929)
(0.0119254 -0.0162943 -0.0156584)
(0.0112413 -0.012588 -0.0174967)
(0.0127912 -0.0145163 -0.0187387)
(0.0123697 -0.0161011 -0.0169394)
(0.0118632 -0.014157 -0.0167124)
(0.0131803 -0.0158379 -0.019296)
(0.0058896 -0.0111336 -0.00956408)
(0.00582183 -0.0105919 -0.00821117)
(0.00548157 -0.00925128 -0.0094327)
(0.00630384 -0.0126119 -0.00973739)
(0.00559952 -0.00959061 -0.00959197)
(0.00622066 -0.0123199 -0.00922523)
(0.00237285 -0.0178314 -0.00415131)
(0.000409534 -0.017797 -0.00315322)
(0.00194644 -0.0171047 -0.00408615)
(0.000538841 -0.0186344 -0.00353356)
(0.00239809 -0.0166091 -0.003546)
(-0.000444341 -0.0177516 -0.00274092)
(0.00288202 -0.0181533 -0.00812897)
(0.00314897 -0.0159379 -0.00836204)
(0.0032217 -0.0156792 -0.00679276)
(0.00270281 -0.0158907 -0.0056151)
(0.00264539 -0.0172945 -0.00674283)
(0.0025952 -0.0172844 -0.00683831)
(0.00387239 -0.0167921 -0.00794138)
(0.00534447 -0.0161639 -0.00888551)
(0.0054132 -0.0165899 -0.00910432)
(0.00708733 -0.0172405 -0.0102507)
(0.00631281 -0.0155399 -0.00883949)
(0.0111635 -0.0173636 -0.0177855)
(0.012045 -0.0167278 -0.017709)
(0.0127108 -0.0163135 -0.0187798)
(0.0115269 -0.0158246 -0.0170096)
(0.0119656 -0.0157201 -0.01769)
(0.0123338 -0.0166693 -0.0183851)
(0.00345997 -0.0165302 -0.00430201)
(0.0041346 -0.0161883 -0.00564552)
(0.00471405 -0.0134072 -0.00743697)
(0.00456957 -0.0166903 -0.00631532)
(0.00425788 -0.0142379 -0.00611222)
(0.0124191 -0.0167347 -0.0168656)
(0.0109074 -0.0128016 -0.0145554)
(0.0124406 -0.0160003 -0.0178447)
(0.0114598 -0.0116184 -0.018035)
(0.0127648 -0.0140261 -0.0190402)
(0.0109996 -0.0145051 -0.0145631)
(0.0125257 -0.0121393 -0.0189015)
(0.0129249 -0.011767 -0.0180137)
(0.0138913 -0.0135444 -0.0194769)
(0.0138594 -0.0131128 -0.0200566)
(0.0126683 -0.0110455 -0.0198693)
(0.0126786 -0.0128604 -0.0177891)
(0.00695436 -0.0072829 -0.015998)
(0.00450839 -0.00537301 -0.0139165)
(0.00450034 -0.00513175 -0.0141343)
(0.00674494 -0.00669514 -0.015765)
(0.00654716 -0.00714779 -0.0155365)
(0.00582437 -0.00669798 -0.0151296)
(0.00945013 -0.00723582 -0.0211735)
(0.0123162 -0.00852233 -0.0235578)
(-0.000176724 0.000589841 0.000772529)
(-0.000562496 0.000832725 0.000968891)
(-0.000762284 0.00111316 0.00132751)
(-0.000198406 0.000400621 0.000546066)
(-0.000211735 0.000355092 0.000478529)
(-0.000354189 0.000887402 0.00110913)
(4.12608e-05 0.000236372 0.000291734)
(8.6874e-05 -0.000350456 -0.000609594)
(2.17137e-05 0.000166808 0.000238937)
(3.68074e-05 -9.38924e-05 -0.000216435)
(0.000243349 -0.000366064 -0.000618725)
(-1.55702e-05 5.3737e-06 -2.90261e-06)
(0.000123817 -0.000416654 -0.000703932)
(0.000384511 -0.00116064 -0.00171932)
(0.000403596 -0.00119568 -0.00189004)
(0.000217577 -0.000743307 -0.00121027)
(0.000119998 -0.000479022 -0.000649333)
(0.000236437 -0.000808215 -0.00117501)
(0.00168742 -0.00322432 -0.00780658)
(0.00223746 -0.00433495 -0.00907558)
(0.00322099 -0.00484984 -0.0116994)
(0.00168491 -0.00343305 -0.00692778)
(0.00263001 -0.0040168 -0.00960281)
(0.0033605 -0.00516011 -0.0108135)
(0.00554291 -0.015609 -0.00688741)
(0.00453307 -0.0154499 -0.00594495)
(0.00568712 -0.0151145 -0.00733068)
(0.00494474 -0.0162165 -0.00697009)
(0.00553236 -0.0159652 -0.00705162)
(0.00387433 -0.0160574 -0.00605881)
(0.00495559 -0.00986224 -0.0110755)
(0.00370426 -0.00840407 -0.0127605)
(0.00537932 -0.0105333 -0.0108876)
(0.00372916 -0.0090082 -0.0129749)
(0.00436604 -0.00983348 -0.0120061)
(0.00496421 -0.00930295 -0.0110963)
(0.00767254 -0.0102301 -0.0113601)
(0.00732409 -0.0109806 -0.0105928)
(0.00761114 -0.0105369 -0.0119909)
(0.00624052 -0.00880651 -0.00996351)
(0.00637212 -0.00833543 -0.0109355)
(0.00711586 -0.0110185 -0.0100313)
(0.00886235 -0.0150042 -0.0119575)
(0.010098 -0.0114574 -0.0141937)
(0.0082083 -0.0121344 -0.0117158)
(0.00829404 -0.0140358 -0.0113945)
(0.00999942 -0.0143639 -0.0135986)
(0.0103439 -0.0129558 -0.0144804)
(-0.00307841 -0.00229074 -0.00479478)
(-0.00204865 -0.00285744 -0.00540359)
(-0.00355141 -0.00291705 -0.00708196)
(-0.00262479 -0.0035094 -0.00911426)
(-0.00249783 -0.00302719 -0.00708441)
(-0.00466367 -0.00280191 -0.00976101)
(-0.00544259 -0.00346401 -0.00876293)
(-0.00478293 -0.00338123 -0.00872759)
(-0.00389848 -0.00422114 -0.0121568)
(-0.00500882 -0.00492441 -0.0112647)
(-0.00414811 -0.00666791 -0.0129091)
(-0.00289962 -0.00595704 -0.013815)
(-0.00386587 -0.00498449 -0.0124647)
(0.00139108 -0.00715493 -0.0135149)
(0.00149803 -0.00661717 -0.0129487)
(-0.000403198 -0.00702751 -0.0144076)
(-0.00160811 -0.00592831 -0.0140838)
(-0.00110142 -0.00560526 -0.0134691)
(0.000506063 -0.00489646 -0.012726)
(-0.000583867 -0.00286326 -0.00566412)
(-0.000430641 -0.00199239 -0.00312851)
(-0.000904225 -0.0016799 -0.00285643)
(-0.00154955 -0.00248145 -0.00541646)
(-0.000624936 -0.0023233 -0.00441752)
(-0.00132089 -0.00230933 -0.00424675)
(-0.000159792 -0.00177744 -0.00337229)
(8.86772e-05 -0.00115286 -0.00170178)
(-0.000101581 -0.00131027 -0.00227737)
(-0.00028443 -0.000956021 -0.00150756)
(-0.0004125 -0.00139503 -0.00249289)
(-0.000323165 -0.001764 -0.00321471)
(0.000451763 -0.0026689 -0.00822346)
(0.00144201 -0.00412757 -0.011471)
(0.00217454 -0.0038729 -0.00887357)
(0.0026983 -0.00488145 -0.0122135)
(0.00229049 -0.00400961 -0.0127727)
(0.00230277 -0.00358499 -0.010785)
(0.00471823 -0.0147164 -0.00980842)
(0.00378446 -0.0155783 -0.00940719)
(0.00412391 -0.0154311 -0.00922501)
(0.00552995 -0.0169938 -0.0107059)
(0.00453179 -0.0177427 -0.00990152)
(0.00452165 -0.0177176 -0.00950256)
(0.0122031 -0.0240342 -0.0122726)
(0.0141804 -0.0241793 -0.0139112)
(0.0111521 -0.0229963 -0.0112582)
(0.013493 -0.023855 -0.0138527)
(0.0127494 -0.0223523 -0.0142629)
(0.0118303 -0.0236431 -0.0132024)
(0.0129071 -0.0134265 -0.0186975)
(0.0130463 -0.0138642 -0.0200156)
(0.0137747 -0.0124102 -0.0212584)
(0.0123057 -0.00983432 -0.0188556)
(0.013962 -0.0139958 -0.0212191)
(0.0125117 -0.0115968 -0.0184685)
(0.0106094 -0.016665 -0.0142052)
(0.0135825 -0.0190544 -0.018654)
(0.012272 -0.0203546 -0.0151676)
(0.0126564 -0.0195951 -0.0157792)
(0.0131907 -0.0188565 -0.0180089)
(0.0104314 -0.0162755 -0.0161353)
(0.010963 -0.0133138 -0.0154582)
(0.00906881 -0.0113803 -0.0128198)
(0.00999419 -0.0119538 -0.0143956)
(0.0109536 -0.0131333 -0.0164592)
(0.00841813 -0.012319 -0.0125255)
(0.00925677 -0.0102858 -0.0128543)
(0.00256377 -0.00331267 -0.0039415)
(0.00363885 -0.00485342 -0.00547176)
(0.00365944 -0.00410905 -0.00516224)
(0.00208721 -0.00313049 -0.00342294)
(0.00263947 -0.0038417 -0.00421053)
(0.00421608 -0.00510373 -0.00585632)
(0.0100594 -0.00924743 -0.0140446)
(0.0105175 -0.00951933 -0.0148731)
(0.0111798 -0.0117561 -0.0160078)
(0.0114978 -0.0105775 -0.0164988)
(0.00946308 -0.00825449 -0.0132072)
(0.0118801 -0.00976275 -0.0176542)
(0.00562963 -0.00695251 -0.00811063)
(0.0072253 -0.00750828 -0.0100883)
(0.00735395 -0.00563976 -0.00882587)
(0.00766612 -0.00811906 -0.0102767)
(0.00650483 -0.00590989 -0.0085675)
(0.00834352 -0.0090921 -0.0117968)
(0.0105513 -0.00760773 -0.014433)
(0.0129758 -0.00917682 -0.0179661)
(0.0118697 -0.00995756 -0.0174189)
(0.0115864 -0.0069184 -0.0156715)
(0.0123454 -0.00705088 -0.016116)
(0.0105285 -0.00782987 -0.0151673)
(0.00918671 -0.00481083 -0.0109242)
(0.00911376 -0.00344136 -0.0108657)
(0.00774574 -0.00323008 -0.00868328)
(0.00992702 -0.00424289 -0.0120336)
(0.00874653 -0.00316494 -0.0095966)
(0.00732932 -0.00236529 -0.00791265)
(0.00246458 -0.00552086 -0.00503871)
(0.00330086 -0.00578923 -0.00550496)
(0.00164606 -0.0046279 -0.00404581)
(0.00167138 -0.00374876 -0.0034922)
(0.0032017 -0.00677314 -0.00621123)
(0.00219802 -0.0039965 -0.00382634)
(0.00288482 -0.0062918 -0.00555124)
(0.00275057 -0.00744892 -0.00600018)
(0.00263997 -0.00665077 -0.00561174)
(0.00164612 -0.00453568 -0.0040208)
(0.00124474 -0.00372202 -0.00323891)
(0.00160162 -0.00464277 -0.00380379)
(-0.000137969 0.00108406 0.00104983)
(-0.000490951 0.00115043 0.00133915)
(-0.000197707 0.00100027 0.00099649)
(0.000668622 -5.10067e-05 -0.000449882)
(0.00071035 0.000449261 9.69597e-05)
(0.00201425 -0.000357006 -0.00139921)
(0.00330612 -0.00150059 -0.00320363)
(0.00278305 -0.00166555 -0.00297898)
(0.00156031 -0.000332165 -0.000961914)
(0.00315689 -0.000737705 -0.00253549)
(0.0014118 -0.000193021 -0.000945227)
(0.00166707 -0.00125832 -0.00184024)
(0.00192588 -0.000985728 -0.00177401)
(0.00116501 -0.000374126 -0.000852726)
(0.00129133 -0.000453116 -0.00105324)
(0.0024016 -0.00114594 -0.00203539)
(0.00138865 -0.000784047 -0.00130966)
(-0.00472142 -0.00776075 -0.00784616)
(-0.005342 -0.00765344 -0.00841148)
(-0.00383759 -0.00506631 -0.00456475)
(-0.0048108 -0.00577103 -0.00616603)
(-0.00423106 -0.00797877 -0.00687767)
(-0.00326114 -0.00520591 -0.00421097)
(-0.00507887 -0.00966821 -0.00979134)
(-0.00515427 -0.0114791 -0.0100749)
(-0.00525069 -0.0112031 -0.0109665)
(-0.00475686 -0.0100751 -0.00833037)
(-0.00549312 -0.0109182 -0.0114822)
(-0.00493311 -0.00989808 -0.0087784)
(-0.000375718 -0.0101402 -0.0131203)
(-0.00212204 -0.0101454 -0.014306)
(-0.00175425 -0.0108838 -0.0146918)
(0.00165287 -0.00968671 -0.0123257)
(0.000725048 -0.00987032 -0.0123833)
(-0.000371045 -0.00823581 -0.00538949)
(-0.00137149 -0.00965804 -0.00599384)
(-0.00280205 -0.00568337 -0.00399497)
(-0.0018072 -0.00438082 -0.00306848)
(-0.0013766 -0.00528212 -0.00366107)
(-0.00221122 -0.00889604 -0.00559002)
(0.00268967 -0.0190753 -0.00823845)
(0.00229733 -0.0169138 -0.00879085)
(0.00252102 -0.0164192 -0.00847989)
(0.00279078 -0.0197135 -0.00955067)
(0.00203833 -0.0162381 -0.00844455)
(0.00382591 -0.0178027 -0.00997402)
(-0.0058105 -0.00580483 -0.00988732)
(-0.00512996 -0.00840691 -0.0132215)
(-0.00442163 -0.00870967 -0.013005)
(-0.00513081 -0.0068335 -0.00875972)
(-0.00583394 -0.00684458 -0.009435)
(-0.00501964 -0.00746648 -0.0101744)
(0.00205763 -0.00616746 -0.00510362)
(0.000157852 -0.00342489 -0.0024896)
(0.00265675 -0.00758543 -0.00595451)
(0.00113996 -0.00468995 -0.00368932)
(0.00248487 -0.00729542 -0.00579874)
(0.000832276 -0.00459646 -0.00348166)
(0.00143019 -0.00769475 -0.00549675)
(0.00116397 -0.00893602 -0.00619215)
(0.000487572 -0.00747821 -0.00517595)
(-0.000115429 -0.00388945 -0.00274068)
(0.000457159 -0.00483432 -0.00339842)
(-0.000963596 -0.0052472 -0.0035065)
(-0.00425293 -0.00995673 -0.0122201)
(-0.00316105 -0.00973375 -0.0132671)
(-0.00364863 -0.0105899 -0.0140544)
(-0.00461434 -0.00749497 -0.011398)
(-0.00474623 -0.00946173 -0.0113989)
(-0.00530135 -0.00897972 -0.0116942)
(0.00623678 -0.0222343 -0.012051)
(0.00612549 -0.0197075 -0.00996499)
(0.00370055 -0.0228135 -0.00883233)
(0.0052073 -0.0221536 -0.010903)
(0.00647979 -0.0231873 -0.0110374)
(0.00582702 -0.0225654 -0.00897546)
(0.00739075 -0.0216929 -0.00892378)
(0.00843422 -0.0195707 -0.00960154)
(0.00870086 -0.0205827 -0.0100866)
(0.00847683 -0.0201555 -0.00852101)
(0.00935011 -0.0236355 -0.00971996)
(0.00674544 -0.0198158 -0.0082261)
(0.00882844 -0.0229152 -0.00994367)
(-0.0030314 -0.00983102 -0.00600968)
(-0.00258256 -0.00869857 -0.00565322)
(-0.00379922 -0.00824898 -0.00627023)
(-0.00355729 -0.00909221 -0.00639328)
(-0.00307821 -0.010195 -0.0067431)
(-0.00327825 -0.00781871 -0.00530301)
(-0.00524955 -0.0118688 -0.00903389)
(-0.00445811 -0.0123592 -0.00797507)
(-0.00528673 -0.0120871 -0.00852067)
(-0.00415536 -0.0109073 -0.00763703)
(-0.00369056 -0.0112915 -0.00744235)
(0.00466019 -0.0233975 -0.00764382)
(0.00576756 -0.0230377 -0.0072237)
(0.00482604 -0.0221454 -0.00712811)
(0.00614202 -0.0227225 -0.00894401)
(0.00640453 -0.024309 -0.00903007)
(0.00420159 -0.0222437 -0.00640141)
(-0.00412225 -0.0133999 -0.00773582)
(-0.00388681 -0.0130104 -0.00748812)
(-0.00382541 -0.0151896 -0.00751326)
(-0.00386384 -0.0149218 -0.0075482)
(-0.0041246 -0.0146524 -0.00772344)
(-0.00353269 -0.0138686 -0.00738704)
(-0.00120897 -0.0146611 -0.00734599)
(-0.00231175 -0.0162255 -0.00786453)
(-0.00162295 -0.012556 -0.0067558)
(-0.00184615 -0.0117097 -0.00662283)
(-0.000786319 -0.0145773 -0.00719446)
(-0.000293536 -0.0138847 -0.00754413)
(-0.000466176 -0.0129747 -0.00736331)
(-0.0012353 -0.0117607 -0.00674612)
(0.00554667 -0.014785 -0.00966549)
(0.00499037 -0.013638 -0.00675964)
(0.0044343 -0.0132444 -0.0092847)
(0.00433001 -0.0123727 -0.0102656)
(0.00430036 -0.0117519 -0.00977274)
(0.00407728 -0.0113266 -0.00671511)
(0.00352233 -0.0124983 -0.0104859)
(0.00220371 -0.0120249 -0.0120626)
(0.00355841 -0.0121746 -0.011465)
(0.00222797 -0.0111046 -0.0121538)
(0.0028503 -0.0134847 -0.0119094)
(0.0034339 -0.0125733 -0.0103269)
(0.00593632 -0.0161893 -0.011412)
(0.00613466 -0.0164296 -0.0123874)
(0.00679728 -0.0169538 -0.0125668)
(0.00524166 -0.01604 -0.0122526)
(0.00774625 -0.0166393 -0.0138455)
(0.00470196 -0.0174533 -0.00994422)
(0.00473333 -0.0180857 -0.0109578)
(0.00462715 -0.0169413 -0.0108064)
(0.00346453 -0.0170172 -0.00857507)
(0.00353921 -0.0162049 -0.00977046)
(0.00334466 -0.0161415 -0.00899198)
(0.0126764 -0.018085 -0.0205713)
(0.0137403 -0.0197726 -0.0234417)
(0.011686 -0.0182319 -0.0220768)
(0.011562 -0.0167209 -0.0196537)
(0.0142801 -0.0188019 -0.0224853)
(0.0124065 -0.0174103 -0.0210606)
(0.0161588 -0.0197857 -0.023984)
(0.0151169 -0.0192144 -0.0229985)
(0.0135309 -0.0201803 -0.0234119)
(0.0115033 -0.0175911 -0.0199526)
(0.014363 -0.0193936 -0.0236484)
(0.0141338 -0.0189517 -0.0213943)
(0.0154456 -0.0179557 -0.0225067)
(0.0149214 -0.0196672 -0.0248183)
(0.0155936 -0.0206108 -0.0260522)
(0.0151375 -0.0195605 -0.0249402)
(0.015166 -0.019749 -0.0257599)
(0.0147112 -0.0204861 -0.0257519)
(-0.00149835 -0.00976613 -0.00995837)
(-0.000816724 -0.0102356 -0.0104375)
(-0.000207406 -0.0102117 -0.0104109)
(-0.00222413 -0.0112775 -0.0112563)
(-0.00231044 -0.0104312 -0.0104723)
(0.0003933 -0.0113469 -0.011286)
(-0.00305452 -0.0129872 -0.0112387)
(-0.00292959 -0.0115477 -0.0106956)
(-0.0015817 -0.0121496 -0.0112354)
(-0.000798892 -0.013417 -0.0130434)
(-0.0029584 -0.0136814 -0.0118076)
(-0.00153063 -0.0124033 -0.012121)
(-0.00433081 -0.0173979 -0.00509623)
(-0.00166133 -0.0187728 -0.00572169)
(-0.00380925 -0.019233 -0.0051953)
(-0.00303722 -0.0173528 -0.0035552)
(-0.00191343 -0.0176015 -0.00424489)
(-0.00245623 -0.0177388 -0.00613539)
(-0.00222678 -0.0157918 -0.0111958)
(-0.00163097 -0.0149454 -0.011523)
(-0.00350564 -0.0149289 -0.0104314)
(-0.000904978 -0.015321 -0.0129574)
(-0.00198724 -0.0141976 -0.011875)
(-0.00331092 -0.014391 -0.0110182)
(-0.00526914 -0.0145999 -0.00894919)
(-0.00517596 -0.0138902 -0.00925726)
(-0.00543021 -0.0163606 -0.00895529)
(-0.00661458 -0.014232 -0.00829281)
(-0.00656254 -0.0156349 -0.00806609)
(-0.00468024 -0.0147237 -0.0104232)
(0.00589337 -0.0183364 -0.0168896)
(0.00769767 -0.0183406 -0.0184539)
(0.00552149 -0.0167021 -0.0156268)
(0.00540209 -0.0180059 -0.0161738)
(0.00647251 -0.017253 -0.0170004)
(0.00653369 -0.0171704 -0.0167243)
(0.000166523 -0.0173188 -0.011932)
(-0.00171456 -0.0166787 -0.00982577)
(0.00042693 -0.0169788 -0.0126979)
(-0.00170353 -0.0166658 -0.0107604)
(-0.000901923 -0.016145 -0.0115988)
(-0.000274803 -0.017461 -0.0106571)
(0.00623444 -0.0158921 -0.0165747)
(0.00644556 -0.0164429 -0.0176968)
(0.00543496 -0.0177759 -0.0176719)
(0.0048077 -0.0171929 -0.0171211)
(0.00667555 -0.0167672 -0.0182137)
(0.00593338 -0.0173492 -0.0177063)
(0.00271669 -0.0161122 -0.0150781)
(0.00174971 -0.0168597 -0.014625)
(0.00263294 -0.0154834 -0.0148825)
(0.00140381 -0.0155816 -0.0139399)
(0.000347154 -0.0158037 -0.013477)
(0.00325041 -0.0164852 -0.0160443)
(-0.00405096 -0.0197772 -0.00389176)
(-0.00274549 -0.0196714 -0.00277022)
(-0.00369078 -0.0186083 -0.00351417)
(-0.00279097 -0.019407 -0.00403232)
(-0.00392927 -0.018441 -0.00253663)
(-0.00163417 -0.0191116 -0.00411199)
(-0.000707946 -0.0187086 -0.00325569)
(-0.00319538 -0.0197369 -0.00308996)
(-0.00134027 -0.0189369 -0.00277142)
(-0.00362935 -0.0200747 -0.00255287)
(-0.0016939 -0.0191728 -0.0028429)
(-0.00243197 -0.0201137 -0.00291186)
(-0.00766788 -0.0152909 -0.00633666)
(-0.00871875 -0.0145939 -0.00698789)
(-0.0081808 -0.0164147 -0.00560901)
(-0.00770771 -0.0153198 -0.00769731)
(-0.00886654 -0.0160884 -0.00501947)
(-0.0093576 -0.0159051 -0.00619991)
(-0.00878309 -0.0170497 -0.00419469)
(-0.00870188 -0.0170084 -0.00302073)
(-0.0100074 -0.0151066 -0.00392694)
(-0.00965742 -0.01556 -0.00434619)
(-0.00990869 -0.0170558 -0.00390682)
(-0.00899497 -0.017068 -0.00265303)
(0.0170381 -0.0194507 -0.0258002)
(0.0154413 -0.0183919 -0.0237014)
(0.0160424 -0.0170851 -0.0220886)
(0.0144641 -0.0182942 -0.0240343)
(0.00448047 -0.0137578 -0.00914759)
(0.00388033 -0.0129384 -0.00825038)
(0.00321208 -0.0122738 -0.00824276)
(0.00416549 -0.0130201 -0.0094092)
(0.00295757 -0.0117135 -0.00943269)
(0.00115707 -0.0105668 -0.00963694)
(0.00153712 -0.0100361 -0.00791977)
(0.00255659 -0.0111076 -0.00829892)
(0.0127164 -0.0180204 -0.0213652)
(0.0130784 -0.0169497 -0.0204453)
(0.0143155 -0.018155 -0.0222529)
(0.0117929 -0.0176092 -0.020966)
(0.0132856 -0.0183696 -0.0220223)
(0.0132068 -0.0177017 -0.0216493)
(0.0100383 -0.0190633 -0.0214833)
(0.00973781 -0.0171663 -0.0196773)
(0.00935315 -0.0184595 -0.0201293)
(0.00896578 -0.0172014 -0.0189885)
(0.0114854 -0.0184052 -0.0211879)
(0.0086863 -0.0175828 -0.0187545)
(0.00650605 -0.0161227 -0.0173929)
(0.00435501 -0.0148567 -0.0154442)
(0.0054788 -0.0152289 -0.0158965)
(0.00763795 -0.0161734 -0.0172015)
(0.00672567 -0.0151896 -0.0162051)
(0.00510028 -0.0159196 -0.0165784)
(0.0111552 -0.00501635 -0.0149501)
(0.012796 -0.00574952 -0.0185266)
(0.00976823 -0.0171234 -0.0155538)
(0.0117991 -0.0188294 -0.015315)
(0.0104806 -0.0177263 -0.0143838)
(0.0129553 -0.0191609 -0.0165608)
(0.0109019 -0.0176954 -0.0169145)
(0.0115136 -0.017074 -0.0153523)
(0.0131989 -0.0205021 -0.0150345)
(0.0144341 -0.0228311 -0.0152826)
(0.0133482 -0.0213435 -0.0142852)
(0.0141831 -0.0207157 -0.0156552)
(0.0150396 -0.0223778 -0.0162791)
(0.0138622 -0.0199415 -0.0134308)
(0.009752 -0.0178354 -0.0130909)
(0.00918325 -0.0183153 -0.0115891)
(0.00978774 -0.0196912 -0.0118573)
(0.0107232 -0.0193158 -0.0137595)
(0.00938258 -0.0177144 -0.0115132)
(0.0117992 -0.02158 -0.0133436)
(0.00611605 -0.0144643 -0.0134192)
(0.00730443 -0.0146561 -0.0129235)
(0.00829106 -0.0164142 -0.0137752)
(0.00732671 -0.0157207 -0.0123029)
(0.00596317 -0.0139847 -0.011323)
(0.00484244 -0.0132024 -0.0120959)
(0.014058 -0.013898 -0.0224188)
(0.0134469 -0.013067 -0.0211639)
(0.0147866 -0.0154267 -0.0226314)
(0.0135902 -0.0141813 -0.0224425)
(0.0159977 -0.0170805 -0.0227339)
(0.0155023 -0.015008 -0.023764)
(0.000875367 -0.0158291 -0.0146669)
(4.69572e-05 -0.0145109 -0.0141872)
(0.000828168 -0.0143259 -0.0141192)
(-0.00190603 -0.0193336 -0.00740697)
(-0.00303423 -0.0169692 -0.00735659)
(-0.00211849 -0.0179477 -0.00749601)
(-0.00359348 -0.0197856 -0.00728237)
(-0.00380669 -0.0172773 -0.00684273)
(-0.00287875 -0.0198585 -0.0068707)
(5.84999e-05 -0.0170522 -0.00727996)
(-0.000227636 -0.0198441 -0.0080335)
(0.000627623 -0.018803 -0.00789852)
(9.81114e-05 -0.0195365 -0.00729055)
(-0.000980383 -0.0176068 -0.00733577)
(-0.000586312 -0.0173446 -0.00763317)
(0.00183425 -0.0211817 -0.00835791)
(0.00293838 -0.0220029 -0.0077631)
(0.00013363 -0.0213764 -0.00730384)
(0.00255677 -0.0213506 -0.00841173)
(0.00149603 -0.0232651 -0.00736449)
(0.00313475 -0.0231912 -0.00818765)
(-0.00537931 -0.00580091 -0.00991353)
(-0.00550517 -0.00460377 -0.00716334)
(-0.00503262 -0.00373447 -0.00520766)
(-0.00544278 -0.00387784 -0.00581481)
(-0.00592166 -0.00576153 -0.0104128)
(-0.00576995 -0.00388443 -0.00716825)
(0.00161243 -0.00156154 -0.00204723)
(0.00178305 -0.00208111 -0.00250738)
(0.00104837 -0.000968342 -0.00125569)
(0.00118459 -0.00129225 -0.00163917)
(0.00163721 -0.00221069 -0.00258309)
(0.00116396 -0.00109711 -0.00145885)
(0.00361187 -0.00466815 -0.00992694)
(0.00246254 -0.0036147 -0.00671104)
(0.00201289 -0.0030975 -0.00585363)
(0.00242948 -0.00361955 -0.00846039)
(0.0029384 -0.00418701 -0.00866361)
(0.00198454 -0.00337755 -0.00665754)
(0.00236775 -0.00365389 -0.00946019)
(0.00151106 -0.00273824 -0.00542229)
(0.00103747 -0.0019802 -0.00425128)
(0.00183052 -0.00314728 -0.00760233)
(0.00230993 -0.00356796 -0.00823234)
(0.00140652 -0.0027255 -0.00603555)
(0.00435067 -0.0054366 -0.0125214)
(0.00556107 -0.00591767 -0.0160928)
(0.00602379 -0.00565479 -0.0166803)
(0.00518329 -0.00570974 -0.0138123)
(0.0042377 -0.00520159 -0.0143886)
(0.00726222 -0.00697474 -0.0185459)
(0.00752246 -0.00716598 -0.016713)
(0.00667203 -0.00651767 -0.016542)
(0.00456727 -0.00524012 -0.013992)
(0.006262 -0.00604542 -0.0153101)
(0.00452453 -0.00525448 -0.0128157)
(0.00509252 -0.00586739 -0.0134778)
(0.00941895 -0.0145092 -0.0144597)
(0.00848439 -0.0157903 -0.0144151)
(0.00996737 -0.0164966 -0.0162257)
(0.00837965 -0.0163324 -0.0149794)
(0.00936929 -0.0153959 -0.0143455)
(0.00778131 -0.0166713 -0.0145298)
(0.00890625 -0.0165152 -0.0138648)
(0.00992858 -0.0150448 -0.0143206)
(0.00922167 -0.0162511 -0.0139591)
(0.00887259 -0.0159746 -0.0123967)
(0.0102302 -0.0156109 -0.0143285)
(0.00863394 -0.0153282 -0.0128407)
(0.00724544 -0.0175956 -0.0120704)
(0.00687047 -0.0166912 -0.0107895)
(0.0069184 -0.0175402 -0.0104956)
(0.00852961 -0.017277 -0.0126352)
(0.00740266 -0.0151031 -0.0114621)
(0.00691177 -0.0172317 -0.0115987)
(0.00655734 -0.0153885 -0.0110842)
(0.00875121 -0.016804 -0.0143316)
(0.00122663 -0.00257559 -0.00502195)
(0.00300638 -0.00459505 -0.00998469)
(0.00388188 -0.00457715 -0.0118337)
(0.00294575 -0.00416071 -0.0105595)
(0.0071103 -0.0145721 -0.0115204)
(0.00706704 -0.0143654 -0.0116187)
(0.011035 -0.0174125 -0.0151034)
(0.0105713 -0.0185417 -0.0155351)
(0.00792772 -0.0161246 -0.0122224)
(0.00805679 -0.016254 -0.013116)
(0.00855689 -0.0152845 -0.0125869)
(0.00942421 -0.01496 -0.0141518)
(0.0100736 -0.0161947 -0.0145598)
(0.00941891 -0.0119557 -0.0131517)
(0.00899015 -0.0153283 -0.0128098)
(0.00891011 -0.0121458 -0.0133448)
(0.00683449 -0.0134094 -0.0109966)
(0.00722598 -0.0134315 -0.0111924)
(0.000765696 -0.00127132 -0.00136928)
(0.000489263 -0.00153854 -0.00147058)
(0.000938776 -0.00181501 -0.00185342)
(0.0013518 -0.00256885 -0.00265149)
(0.000252801 -0.000493292 -0.000601881)
(0.000544937 -0.000602758 -0.000727397)
(0.00039896 -0.000743997 -0.000819634)
(0.000661762 -0.00055535 -0.000719323)
(0.00101928 -0.00138903 -0.00158684)
(0.000719974 -0.000741732 -0.000985714)
(0.00140086 -0.00216253 -0.00231005)
(-0.00301076 -0.00224437 -0.00185856)
(-0.0037522 -0.00196237 -0.0018475)
(-0.00434244 -0.00244586 -0.00269717)
(-0.00533684 -0.00465407 -0.00548032)
(-0.00551255 -0.00471747 -0.00663601)
(-0.00435142 -0.00252462 -0.00304095)
(-0.00301043 -0.000729402 -0.000384496)
(-0.0019621 -0.00036201 -5.23619e-05)
(-0.00186421 -0.000396715 5.09449e-05)
(-0.00345337 -0.00151513 -0.00143069)
(-0.00261721 -0.000648607 -0.000367805)
(-0.00266908 -0.00107867 -0.00153614)
(-0.00315089 -0.00182166 -0.00311876)
(-0.00476094 -0.00262378 -0.00491203)
(-0.00552853 -0.00364906 -0.00733213)
(-0.00438672 -0.00203699 -0.00287498)
(-0.00257065 -0.000711381 -0.000517826)
(-0.00209737 -0.000742487 -0.000804299)
(-0.00385959 -0.00222068 -0.00334255)
(-0.00342601 -0.00166435 -0.00182547)
(-0.00489403 -0.0124091 -0.012515)
(-0.00534149 -0.0125068 -0.0124079)
(-0.00549402 -0.0126927 -0.0112102)
(-0.00516059 -0.0129665 -0.0131494)
(-0.0043723 -0.0123303 -0.0135938)
(-0.00546588 -0.0136548 -0.0129466)
(-0.00521278 -0.0158414 -0.0149129)
(0.00114913 -0.0130287 -0.0135146)
(-0.000579383 -0.0133336 -0.0145112)
(-0.000379168 -0.0139684 -0.0141237)
(0.000723162 -0.0132995 -0.0135793)
(0.0014774 -0.0148134 -0.0136541)
(0.000542107 -0.0132152 -0.0150119)
(-0.00207643 -0.0124006 -0.014325)
(-0.000988512 -0.0122822 -0.0141727)
(-0.000101479 -0.0129197 -0.0142753)
(0.0124845 -0.0203267 -0.0149143)
(0.00922038 -0.0167329 -0.0131528)
(0.00981633 -0.0161594 -0.0163067)
(0.00873427 -0.0157462 -0.0167521)
(0.00762461 -0.0156032 -0.0165731)
(0.00957244 -0.0157276 -0.0154789)
(0.00727623 -0.0150881 -0.015797)
(0.00878266 -0.0167182 -0.0169809)
(0.00824135 -0.0158772 -0.014125)
(0.00741216 -0.0157897 -0.0154562)
(0.0111736 -0.0168178 -0.0167127)
(0.0122618 -0.0174239 -0.0180082)
(0.0128736 -0.0172007 -0.0178186)
(0.0120979 -0.0175131 -0.0162268)
(0.0130282 -0.0180768 -0.0166963)
(0.0128803 -0.0171737 -0.0165338)
(0.0130247 -0.0176398 -0.0177096)
(0.012929 -0.0182361 -0.0158735)
(0.0130668 -0.0187712 -0.0150769)
(0.00231359 -0.0114656 -0.0116293)
(0.00502026 -0.0149009 -0.0151754)
(0.0060011 -0.0158434 -0.0167655)
(0.0048545 -0.0131423 -0.0126098)
(0.005838 -0.0144201 -0.0138144)
(0.00352941 -0.0130606 -0.0130911)
(0.0138651 -0.0185333 -0.0169662)
(0.0144357 -0.0187879 -0.0163241)
(0.0133241 -0.0183262 -0.0155116)
(0.00323597 -0.0122483 -0.0120614)
(0.00405065 -0.0118647 -0.010912)
(0.00369956 -0.0120997 -0.0114572)
(0.00846965 -0.0174217 -0.0117904)
(0.00543575 -0.0157685 -0.00951695)
(0.00311277 -0.0119747 -0.00978818)
(-0.000728936 -0.00828067 -0.00836962)
(0.00689115 -0.0156451 -0.0104758)
(0.00800988 -0.0178516 -0.00984704)
(0.00708371 -0.0166394 -0.00859978)
(0.00689134 -0.0174556 -0.0100213)
(0.00440424 -0.0131488 -0.0120964)
(0.00462322 -0.0134787 -0.0107011)
(0.00603944 -0.0145777 -0.0108327)
(0.00504878 -0.0125727 -0.0102144)