/*--------------------------------*- C++ -*----------------------------------*\
| =========                 |                                                 |
| \\      /  F ield         | OpenFOAM: The Open Source CFD Toolbox           |
|  \\    /   O peration     | Version:  v1612+                                |
|   \\  /    A nd           | Web:      www.OpenFOAM.com                      |
|    \\/     M anipulation  |                                                 |
\*---------------------------------------------------------------------------*/
FoamFile
{
    version     2.0;
    format      ascii;
    class       surfaceScalarField;
    location    "166";
    object      phi;
}
// * * * * * * * * * * * * * * * * * * * * * * * * * * * * * * * * * * * * * //

dimensions      [0 3 -1 0 0 0 0];

internalField   nonuniform List<scalar> 
37564
(
7.964e-10
-1.28296e-09
3.39418e-09
-2.90766e-09
1.05093e-09
-4.41975e-09
-2.72842e-09
6.09724e-09
-7.34778e-09
7.683e-09
-3.30214e-09
2.96691e-09
3.85178e-09
-5.86367e-09
-5.33591e-09
5.85474e-09
5.57543e-09
-3.09393e-09
-8.33627e-09
7.49071e-10
5.86655e-09
-7.6088e-10
-5.59777e-09
4.51585e-09
8.76492e-09
-9.96942e-10
4.64337e-09
-2.79179e-09
-7.71526e-09
1.81245e-09
-4.7123e-10
7.65928e-09
8.94006e-10
-2.97789e-09
6.23615e-09
7.28969e-09
-4.94388e-09
-2.16222e-10
1.13962e-08
-7.56527e-09
-1.32494e-09
3.94631e-09
2.55194e-09
-8.43767e-09
-4.22741e-09
-2.44386e-09
-3.66472e-09
7.96434e-09
-5.98193e-09
9.92261e-10
-5.57669e-09
3.90122e-09
1.28852e-09
-6.19933e-09
-6.65888e-10
-2.68265e-10
-8.06811e-10
-4.89361e-10
-4.33643e-09
5.63259e-09
-1.67207e-09
-6.71764e-09
7.58287e-09
1.80958e-09
1.94061e-10
-6.75635e-09
4.75272e-09
-4.50237e-09
5.82259e-09
-7.22338e-09
5.74536e-09
1.95808e-09
-5.44944e-09
-3.22629e-09
-2.14493e-09
-2.33419e-10
-2.43697e-09
-1.38713e-09
-6.78241e-10
-3.16034e-09
-8.07554e-09
4.47954e-09
-4.20164e-09
-1.39566e-09
-3.47379e-09
-1.1211e-09
-2.6285e-09
-8.93579e-09
-4.67701e-09
1.0139e-08
-3.05954e-09
-4.72518e-10
-3.03664e-09
-6.15998e-09
-2.94346e-10
-6.94393e-09
-1.65108e-09
-6.42686e-09
-5.00496e-09
-1.55468e-09
1.17832e-08
4.4566e-10
-1.06742e-08
-9.32927e-11
-1.60495e-08
1.45881e-08
-5.26221e-10
-6.54995e-09
6.93923e-09
1.3693e-10
-9.00301e-09
8.38346e-09
-9.32511e-10
3.93661e-09
-4.65218e-09
1.64806e-09
7.56893e-09
-6.07999e-09
-8.08437e-09
6.59542e-09
-3.40814e-09
9.97961e-09
2.41933e-09
-8.99084e-09
-4.12532e-09
-5.02484e-09
-5.34374e-09
1.44939e-08
3.22828e-09
2.03317e-09
-6.88666e-09
-4.14953e-09
-4.03433e-09
-4.82474e-10
1.84511e-09
6.24726e-09
-4.15577e-09
5.59482e-09
-3.09282e-09
-6.56896e-10
-7.04234e-09
9.16428e-09
-7.68143e-10
9.3104e-10
-7.04957e-09
7.2583e-09
-1.18298e-08
-1.1478e-08
2.53199e-09
-9.7149e-10
1.87512e-08
-8.0193e-09
-3.38722e-09
-7.34466e-09
-1.56144e-08
1.47581e-08
1.96074e-08
-9.50262e-09
-1.41311e-08
5.92662e-09
6.5921e-09
-1.64841e-08
3.96539e-09
4.767e-09
-8.34298e-09
1.72933e-08
-9.2335e-09
-1.1447e-08
2.27146e-09
-1.49271e-08
-4.69773e-09
1.73534e-08
-2.28107e-09
-1.28955e-08
1.7448e-08
-1.20542e-09
1.36825e-08
2.88124e-09
1.32066e-08
-1.64188e-09
-1.49313e-08
3.67783e-09
-1.88321e-08
2.26315e-09
-7.12471e-09
-3.03953e-09
1.09095e-08
-1.14421e-08
-1.7621e-08
1.58045e-08
-1.04099e-09
-6.88163e-09
-6.7218e-09
-1.19402e-08
-3.02855e-09
1.61863e-08
-1.02234e-08
-2.93447e-09
1.28939e-08
-1.14749e-08
-4.44754e-09
-1.5165e-09
7.15691e-09
1.05459e-08
4.05664e-09
7.32074e-09
1.08336e-08
-8.00881e-09
-1.42997e-08
1.15532e-08
3.45264e-09
-4.17227e-09
6.72665e-09
8.88318e-09
-3.77477e-09
-4.90301e-09
-1.41546e-08
2.28324e-08
-1.35323e-08
-7.65057e-09
-1.67373e-08
1.08556e-08
1.06893e-08
2.68287e-09
-2.10228e-08
-1.24455e-08
8.69625e-09
-6.47411e-09
1.97706e-09
-2.24315e-08
-1.48852e-08
1.71391e-08
-1.06624e-08
7.19724e-09
-5.37824e-09
-7.90654e-09
-7.51433e-09
1.32549e-09
1.58327e-08
-2.45333e-08
1.06777e-08
-2.344e-09
7.18797e-09
-1.39923e-08
1.19425e-08
-5.13808e-09
-1.20017e-08
1.38304e-08
5.35923e-09
2.9289e-09
-7.27355e-09
-9.64774e-09
1.0259e-09
8.94926e-12
-1.30365e-08
2.5848e-09
2.78116e-09
6.57639e-09
9.03133e-09
-2.14049e-08
1.30932e-09
1.10643e-08
7.90444e-09
1.39296e-08
-1.28028e-08
1.48355e-08
-4.00217e-09
1.17489e-08
-3.36342e-10
-1.03868e-08
-6.13402e-09
-6.24608e-09
1.90914e-08
-6.71145e-09
-9.04266e-09
5.49337e-09
6.57054e-09
3.18676e-09
1.23634e-08
-1.02399e-08
1.57427e-08
-1.24314e-08
3.03937e-09
1.66032e-08
-1.06021e-08
-9.04038e-09
2.18114e-08
-1.15137e-08
-8.6406e-09
1.10414e-08
1.42024e-08
8.01486e-09
5.15591e-09
6.97343e-10
-1.6579e-09
-9.64159e-09
-7.53012e-10
-1.00633e-08
-9.74194e-09
1.03304e-08
7.42649e-09
1.10704e-08
-1.33746e-09
-1.04859e-08
-1.13799e-09
1.78874e-08
-1.84073e-08
8.75065e-10
1.31844e-08
-1.51975e-08
1.8226e-09
-4.94064e-10
1.4141e-09
-8.88334e-09
1.85107e-08
-7.78234e-09
1.95269e-08
6.99551e-09
-7.45787e-09
-5.71984e-09
1.47239e-08
4.0506e-09
3.41402e-09
-7.75996e-09
1.80026e-09
3.28616e-09
1.9379e-09
1.37047e-08
-1.51213e-09
-1.41305e-08
-8.60916e-09
1.01163e-08
4.30733e-10
8.63261e-10
-3.65751e-09
-5.81487e-09
1.07982e-08
4.98402e-09
-2.07752e-09
1.22196e-08
8.69494e-09
8.98707e-09
2.40486e-09
-1.88315e-08
7.43956e-09
9.12795e-09
-5.14253e-09
5.0016e-09
-7.45063e-09
1.49923e-08
-6.67838e-09
-3.60397e-09
-1.31646e-09
1.714e-08
-3.93462e-09
5.31467e-09
1.8539e-08
-1.72472e-09
-9.33828e-09
-7.47608e-09
8.83206e-11
4.12404e-09
1.43265e-08
1.205e-08
-1.70958e-08
-4.22462e-09
1.79005e-08
-2.03619e-08
1.62255e-08
-1.00367e-08
-1.00515e-08
1.02409e-08
-1.02618e-08
3.77406e-09
-1.7451e-10
-7.5131e-09
3.91364e-09
-7.81704e-09
8.95167e-09
2.63946e-09
-1.14026e-08
5.56179e-09
5.66638e-09
-1.18873e-08
-6.16925e-09
1.02396e-08
-1.3774e-08
-5.62638e-09
-1.21821e-08
7.14806e-09
-1.28162e-09
6.31578e-09
-6.70312e-09
-4.27387e-09
-6.29284e-09
1.72699e-08
1.06435e-08
-9.17101e-09
-8.17559e-09
1.48629e-08
-8.0481e-09
3.82871e-09
-9.55638e-09
-5.77949e-09
3.9333e-09
-7.88246e-09
5.25359e-09
-6.92747e-09
-7.66414e-09
-8.79181e-09
3.94721e-09
4.74648e-09
-8.01497e-09
6.0137e-09
-6.04681e-09
-9.48341e-10
-1.62376e-08
-9.18092e-09
-4.26268e-09
-1.80117e-08
-2.5067e-09
-4.07313e-09
6.10694e-09
-1.21325e-09
-8.20581e-10
2.92974e-09
-1.57045e-09
-5.43239e-09
-1.46269e-09
4.09277e-09
3.47687e-09
1.56938e-09
-1.0232e-10
-3.93872e-09
-3.60286e-09
6.32835e-09
3.12717e-09
-8.63633e-09
-8.39792e-10
2.46478e-09
-5.55614e-11
3.39318e-09
5.6136e-09
-5.87956e-09
2.6499e-09
-9.64991e-11
1.65118e-09
8.31568e-10
1.6101e-09
4.52882e-10
3.66309e-09
3.4575e-09
2.00696e-09
1.49166e-10
2.44895e-09
3.65846e-09
-1.3851e-09
4.28695e-09
3.19561e-09
-3.74912e-09
1.28117e-08
1.90716e-09
-3.81516e-09
-1.09037e-08
-2.82802e-10
1.17533e-08
1.34124e-09
1.58947e-08
-2.67524e-09
-1.13122e-08
1.02423e-08
9.41778e-10
4.71069e-09
1.40429e-08
-2.86367e-09
-1.49944e-08
1.2017e-08
1.74315e-09
8.52407e-09
1.34715e-08
1.22288e-08
-3.86127e-09
-1.10428e-08
9.00016e-09
4.17039e-09
-1.25275e-08
2.37199e-09
1.26585e-08
-2.50303e-09
-1.03683e-09
-1.53519e-08
1.20597e-08
-1.59602e-08
1.46564e-08
-2.24724e-10
1.09024e-08
1.07563e-08
-9.28671e-09
2.1708e-08
-3.8972e-09
-4.8139e-09
7.54422e-09
2.29097e-09
7.55158e-09
9.09752e-09
-1.31621e-08
2.8696e-09
1.19498e-09
1.05371e-08
-1.75384e-08
1.60989e-08
2.16149e-08
-4.66205e-09
-6.41574e-09
7.1551e-09
6.80603e-09
-5.63142e-09
-8.3297e-09
1.77089e-08
-1.1355e-08
8.01119e-10
-2.17362e-08
1.43738e-08
3.28243e-09
4.08e-09
2.31016e-09
-1.72403e-08
-8.53303e-09
5.36841e-09
-3.98616e-09
-2.68162e-08
1.9135e-08
6.29432e-09
1.38694e-09
-1.18171e-08
-9.85868e-09
-5.14039e-09
-4.68461e-09
-6.31493e-10
1.36271e-08
-8.31096e-09
1.364e-08
-1.14174e-09
-1.81297e-08
-2.39957e-09
-2.02239e-08
7.30734e-09
1.6199e-08
-4.45055e-09
-1.34632e-08
5.55511e-09
-2.05387e-08
1.38419e-08
-1.07125e-08
3.84802e-09
4.91208e-09
-1.36914e-09
-7.39094e-09
-8.30993e-09
5.88387e-09
-2.5151e-09
4.94116e-09
-2.09252e-09
-4.4198e-09
-1.7976e-09
-5.46263e-09
-2.87288e-09
6.19699e-10
7.7158e-09
-3.22628e-09
2.05536e-09
-4.29169e-09
1.64198e-09
-6.6698e-09
1.80154e-09
7.66971e-09
1.49097e-09
-5.31268e-09
-8.96548e-09
-5.46493e-09
8.83821e-09
5.5922e-09
-3.92646e-09
-7.13156e-09
-4.57999e-09
9.29339e-09
-2.65804e-09
-6.86446e-09
2.92193e-09
9.06551e-10
-3.1433e-09
4.16862e-09
-6.70204e-09
5.67669e-09
1.319e-09
-9.22923e-09
4.76692e-09
-5.94061e-09
1.30185e-09
8.80738e-09
3.30155e-10
-7.09219e-09
5.99831e-11
-6.96735e-09
-4.93941e-09
5.96612e-09
-6.52987e-09
-1.07342e-10
-3.27793e-09
-5.67393e-09
1.02537e-08
6.73603e-09
-1.4619e-08
9.2198e-09
3.32167e-09
4.60662e-10
-1.65918e-08
4.58767e-10
-4.68198e-10
-6.59235e-09
-4.10901e-11
-9.51348e-09
2.38473e-09
2.18933e-09
8.32488e-11
-6.77507e-09
1.6193e-10
-9.6589e-09
2.28646e-10
1.33758e-09
-7.46928e-09
-6.59509e-09
3.30587e-09
-2.41719e-09
1.10145e-09
-8.34319e-09
-7.85469e-09
-5.0629e-09
5.73504e-09
9.42976e-09
-7.00006e-09
-8.16471e-09
6.92336e-09
-1.54338e-09
3.55086e-10
7.3642e-09
-1.11797e-09
3.18353e-09
3.78882e-09
1.04987e-08
-1.31001e-09
-1.8524e-09
-3.83763e-09
6.59063e-10
6.61231e-09
-6.74205e-10
-6.59714e-09
6.523e-09
-6.21281e-09
3.48895e-10
6.19618e-09
8.54477e-09
-1.20256e-08
-2.7153e-09
-4.68064e-09
9.56682e-09
5.11882e-09
-1.39184e-10
4.14431e-09
-1.26157e-08
7.35339e-09
-3.51959e-09
1.11949e-08
-3.88648e-09
-7.49171e-10
1.2746e-09
8.01932e-09
-5.35522e-09
6.95445e-09
5.07927e-10
1.82585e-09
2.16079e-09
6.80477e-09
-1.07914e-08
3.36688e-09
7.47128e-09
-9.01234e-09
-1.52903e-09
-4.83755e-09
-4.30623e-09
1.06728e-08
-5.48068e-09
-5.52494e-09
9.47658e-09
-1.37737e-09
-4.88625e-09
9.63048e-09
9.07474e-09
-8.29133e-09
-7.6236e-09
2.30679e-09
-1.63904e-10
5.15774e-10
-6.6808e-10
6.68407e-09
6.36479e-10
-8.18661e-10
-5.88933e-09
1.87042e-09
3.40476e-10
-6.20693e-09
9.74731e-09
-7.84668e-09
-3.02153e-09
3.6482e-09
2.15521e-09
-7.91878e-09
2.11544e-09
2.43173e-09
2.91575e-09
-1.69923e-09
1.2402e-09
3.43811e-09
-2.5231e-09
-4.0126e-10
2.23068e-09
-5.73663e-09
-4.48307e-09
-1.16374e-09
-3.2776e-09
-4.56672e-09
-5.7361e-09
-5.42763e-09
-7.16234e-09
-4.07252e-09
8.79098e-09
-5.49199e-09
-3.81837e-10
-8.44903e-09
-1.6894e-09
6.06591e-09
-7.53374e-09
-6.4073e-09
-9.90493e-09
5.23761e-09
7.64735e-09
1.59458e-09
1.58628e-09
-1.08283e-08
2.22733e-09
-3.01768e-09
3.03708e-09
-9.77879e-09
2.07877e-11
-6.88866e-09
-2.09716e-09
-5.41582e-09
4.13169e-09
-4.64258e-09
1.59687e-10
5.34093e-09
8.16396e-09
-1.65309e-08
3.02597e-09
5.01911e-09
-4.36674e-09
4.68855e-09
5.38498e-09
-5.5704e-09
8.34937e-09
2.65443e-09
7.74965e-09
-7.60634e-09
-3.23967e-09
-5.6849e-09
8.37657e-09
-6.13072e-09
-9.85219e-09
1.87721e-09
2.13261e-09
-5.17784e-09
5.52187e-09
-3.81593e-09
3.47192e-09
-7.32856e-09
4.55817e-09
-2.40745e-09
-6.97099e-09
1.50859e-08
5.09163e-11
-8.16583e-09
-4.74959e-09
-9.54996e-09
-6.1144e-09
3.34298e-09
8.29327e-09
3.20984e-10
-1.58236e-08
1.93337e-09
8.31977e-09
-1.06798e-08
-8.3835e-09
-2.78934e-09
8.31399e-09
-1.62044e-08
-1.36697e-08
3.70472e-09
7.56529e-09
1.82337e-08
-9.86878e-09
-1.5642e-08
8.47301e-09
1.08737e-08
1.03331e-08
-7.74147e-09
-2.74755e-09
8.74496e-09
-5.99694e-09
1.17224e-08
6.26954e-09
1.76318e-09
1.26942e-09
6.9528e-09
-9.98531e-09
2.43887e-09
6.8896e-09
1.98065e-09
4.97061e-09
-5.68181e-09
-2.69867e-10
4.31555e-09
-2.06505e-09
5.64092e-09
8.20629e-10
-2.2094e-09
8.34165e-09
6.39372e-09
-6.02449e-10
-5.47281e-11
-5.03188e-10
-5.39252e-09
-1.12723e-09
8.22109e-10
-3.57062e-09
4.06649e-09
-1.318e-09
-1.7128e-09
2.55082e-09
-1.5862e-11
2.53706e-09
9.41469e-10
2.88805e-10
-3.76727e-09
1.02187e-09
-1.97577e-10
1.60344e-09
-4.23258e-09
6.34573e-10
7.83707e-10
2.64821e-09
1.56347e-09
-4.92327e-09
3.6486e-09
5.03629e-09
3.3602e-10
-3.76886e-09
1.52075e-09
4.15018e-09
-1.16106e-09
4.80743e-09
-2.64214e-09
-1.00414e-09
-1.49789e-09
1.28737e-09
-9.50401e-10
6.32665e-09
-4.42718e-09
-7.64619e-09
-1.58855e-09
6.65733e-09
2.57744e-09
5.3285e-09
-6.64806e-09
5.08279e-10
3.23167e-09
2.32783e-09
2.51164e-09
-4.33119e-09
3.62459e-09
-2.79466e-09
7.33199e-09
-5.9931e-09
1.2781e-09
-2.61698e-09
-1.36311e-09
2.50014e-09
6.19503e-09
7.09077e-09
-7.16913e-09
-5.91468e-09
3.00568e-10
5.42712e-09
-7.46587e-09
8.39671e-09
1.56931e-09
-4.88171e-09
-1.30605e-09
1.55143e-09
-6.0929e-09
4.84211e-09
8.19733e-09
6.51485e-09
-5.48157e-09
-9.23055e-09
-1.01271e-08
1.25833e-08
5.74118e-09
-1.95153e-09
-1.66068e-09
4.55692e-09
1.76535e-09
-4.77073e-09
8.7075e-10
-1.8305e-09
-6.20934e-09
-1.49872e-09
-3.72342e-09
-1.70468e-09
-4.39659e-09
4.60262e-09
3.5726e-09
-7.10775e-09
-6.79065e-09
-6.37702e-09
-2.41713e-09
-7.79819e-10
9.57393e-09
-1.29431e-09
-6.09005e-09
1.0073e-09
-1.00143e-08
-2.59808e-09
1.01952e-08
-1.05192e-08
-7.89348e-10
1.56559e-10
-6.99617e-09
1.84551e-09
4.99408e-09
-9.58579e-09
7.14426e-09
1.69997e-09
-9.9936e-09
-1.29219e-09
-5.76451e-09
4.68307e-10
6.27421e-09
-1.13692e-09
2.85202e-09
-7.98935e-09
5.25541e-09
9.35595e-09
-8.33717e-09
6.3211e-09
8.8691e-09
1.26901e-09
-7.9884e-10
3.0401e-09
6.44596e-11
3.8192e-10
-9.10653e-09
-9.44173e-09
2.21472e-09
6.14883e-11
-9.5749e-09
8.71454e-09
-8.59187e-10
-9.27817e-09
-1.02394e-08
-5.05943e-09
-6.19387e-09
4.06599e-09
7.1873e-09
-4.54898e-09
-4.48019e-10
-6.24384e-11
7.0177e-09
-5.54457e-09
-6.02212e-09
-9.73651e-10
1.79749e-09
6.65079e-09
-9.56309e-09
1.93862e-09
5.05553e-09
-8.95714e-09
1.05524e-08
1.25044e-08
-3.38292e-09
8.32178e-09
-3.25491e-09
-1.463e-08
-2.74439e-09
2.109e-09
4.62432e-09
-4.78517e-09
-2.87177e-10
-1.24641e-08
3.66465e-09
1.07882e-08
8.30602e-10
-3.6732e-09
-7.94565e-09
-1.48701e-09
2.36054e-09
9.91467e-09
1.34483e-08
-3.99396e-09
-8.6238e-09
1.26687e-09
1.06945e-08
-1.1467e-08
1.15306e-08
-8.92068e-09
8.85706e-09
-5.78234e-09
-9.67861e-09
5.53877e-09
5.44438e-09
-5.60521e-09
-5.37795e-09
-2.43787e-10
5.94406e-09
-1.61522e-10
5.58965e-09
-2.34951e-09
-6.91336e-09
5.38326e-09
-3.73885e-11
1.2904e-09
6.45343e-09
1.56068e-09
1.12368e-08
7.71736e-09
-1.49048e-09
-7.82503e-10
6.32586e-09
7.33558e-09
-8.90168e-09
-1.5095e-09
-1.86222e-09
-1.28218e-08
-9.81695e-09
9.17694e-09
3.78345e-09
-6.05278e-09
7.18143e-09
-4.70765e-10
4.15804e-09
9.61829e-11
-6.63137e-09
3.41551e-09
1.08823e-08
-7.66645e-09
1.7681e-09
-7.29794e-10
-1.88492e-09
-3.09836e-09
8.39884e-09
-1.89977e-09
3.79755e-09
-3.78269e-09
3.26256e-09
-3.6427e-09
-9.05881e-11
-1.52608e-09
-4.55794e-09
2.98569e-09
-4.06259e-09
6.36809e-10
-9.40565e-10
1.40538e-10
-6.58089e-09
2.92242e-09
-8.9947e-10
-1.63759e-09
3.82413e-09
1.58804e-08
6.08349e-09
9.61637e-09
1.68089e-08
-1.06453e-08
1.34127e-08
1.59176e-08
-2.75109e-09
-4.20639e-09
7.56037e-09
4.9165e-10
5.36084e-09
-4.69058e-09
1.3029e-08
-7.77917e-10
-8.42104e-09
1.33469e-08
-5.13015e-10
1.43314e-08
-3.18364e-09
-9.0411e-09
-2.10675e-09
-1.09283e-09
1.9223e-10
1.5232e-08
-6.14353e-10
-7.35294e-09
2.6469e-10
7.7026e-09
-1.0794e-08
1.06374e-08
-4.57736e-10
2.83099e-09
-1.04561e-08
-3.16892e-09
-4.70457e-09
1.82608e-10
1.50698e-08
-1.2132e-08
-6.12144e-09
1.47645e-08
-7.87559e-10
-7.78569e-09
8.2426e-09
-4.11664e-09
5.81908e-10
-6.92134e-09
7.51986e-09
-3.00786e-09
-8.62863e-09
2.82589e-09
-1.06143e-11
5.24647e-09
-9.36001e-09
-4.92755e-09
2.86672e-10
-4.19098e-09
-8.29113e-09
1.3064e-08
1.87575e-09
-1.42436e-08
-1.44472e-08
1.62029e-08
-7.80126e-09
-2.86349e-08
2.02334e-08
8.26315e-09
-5.45117e-09
1.33908e-08
3.06786e-08
-8.46453e-09
-8.68134e-09
-1.35327e-08
-5.43671e-09
1.67012e-08
1.94141e-08
1.13547e-08
5.46261e-09
-2.46184e-08
1.07339e-08
1.04954e-08
-2.6666e-08
2.03366e-08
-1.55653e-08
-1.32358e-08
8.0987e-09
2.89392e-08
-4.20875e-09
-1.77576e-12
8.75994e-09
-1.49235e-08
1.16262e-08
1.93609e-08
-2.33787e-09
3.53261e-09
-4.60747e-09
9.17388e-09
-8.87473e-09
-8.2241e-09
2.06315e-08
1.28988e-08
-1.84195e-08
9.13258e-10
-9.74602e-09
1.37701e-08
-9.44999e-09
1.19598e-08
5.65731e-09
-7.3095e-09
-1.67672e-08
-6.19398e-09
2.10532e-09
3.71698e-09
9.56635e-09
-6.62792e-09
5.43875e-09
-8.37699e-09
1.08112e-08
-3.14542e-09
1.90071e-09
2.14663e-09
6.63214e-09
-1.54067e-08
6.57968e-09
8.64008e-09
-1.30731e-08
1.4377e-08
-2.3585e-09
2.19899e-09
5.99767e-09
6.18034e-09
4.80215e-09
8.208e-09
6.64239e-09
-3.15565e-09
6.66475e-11
1.6221e-08
-9.01444e-09
-7.27318e-09
1.16355e-08
-4.92642e-09
-2.16992e-09
7.73978e-09
1.06512e-08
4.61737e-09
4.84819e-09
1.04992e-08
-1.08735e-08
-1.07496e-09
-6.12579e-09
1.49406e-08
8.34456e-09
1.03711e-08
-1.6809e-08
-7.92559e-09
1.16615e-08
3.15285e-09
-1.60898e-08
-3.87205e-09
-1.1432e-08
-8.21738e-10
7.92338e-09
-1.14126e-08
-1.26005e-08
-5.72092e-10
5.69868e-10
-1.13754e-08
8.42269e-09
1.20808e-08
-9.12801e-09
-1.92633e-08
6.70078e-09
1.18726e-09
-7.16765e-09
1.97838e-09
-6.24256e-09
-3.10852e-09
-1.54717e-08
9.81106e-09
-5.6067e-09
-1.63926e-08
1.21883e-08
8.57901e-09
6.5997e-10
-7.42728e-09
1.34915e-08
6.57452e-09
-5.42275e-09
-6.76995e-09
-6.36046e-09
-6.13287e-09
-5.58965e-09
-4.59195e-09
1.21602e-08
4.92109e-09
-1.36362e-08
-7.43849e-09
9.1412e-09
-7.28753e-09
-8.53194e-09
1.76049e-08
-1.1973e-09
-7.26635e-09
-1.42208e-08
-6.14649e-09
1.30798e-08
1.51379e-08
1.35691e-09
-2.26573e-09
-1.42291e-08
8.89063e-09
7.97599e-09
-1.72864e-09
-1.05826e-08
7.82301e-09
-2.36648e-09
5.12602e-09
1.89096e-08
-1.49245e-08
-1.45676e-08
1.94391e-08
7.29349e-09
-1.04728e-08
1.40736e-08
5.28984e-09
6.63947e-10
-9.77978e-09
-1.4165e-08
7.92018e-09
-7.12832e-10
-1.57179e-08
-1.51096e-08
4.21123e-09
1.13929e-09
-1.69617e-08
-1.31213e-08
1.27695e-09
-2.10514e-08
5.62566e-09
1.41488e-08
-1.5373e-08
4.71439e-09
1.19355e-08
-2.01914e-09
-2.26134e-09
-1.67709e-08
-3.45451e-09
-1.39376e-08
-1.22527e-08
1.28554e-08
5.02286e-09
-2.50533e-09
-1.20087e-08
1.03436e-09
1.59674e-09
-1.10911e-08
8.46001e-09
-1.16782e-08
1.02073e-08
-8.80415e-09
1.18735e-08
1.64508e-09
-1.01178e-08
1.52193e-08
7.37601e-09
-1.24775e-08
1.55805e-09
2.08406e-09
-1.37599e-08
9.44283e-09
-1.13006e-08
2.19674e-09
9.44608e-09
-1.50421e-08
-1.86465e-08
-4.18883e-09
-3.90126e-10
-3.58976e-09
1.06148e-08
-9.39772e-09
2.3726e-09
5.75231e-09
-1.31368e-08
3.79464e-09
-1.85174e-09
7.8365e-09
-1.12071e-08
-1.35545e-08
1.69251e-08
-2.04489e-08
1.11591e-08
1.46972e-09
-4.28628e-10
3.50269e-09
1.59816e-08
2.1306e-09
1.39684e-08
5.63322e-09
1.72863e-08
7.71048e-11
-1.39176e-08
-3.44578e-09
1.77045e-09
1.47821e-08
7.33743e-10
3.2355e-09
-1.59675e-08
1.45025e-08
-3.63684e-09
1.757e-08
2.04848e-09
1.10934e-08
-7.61753e-10
-4.03712e-09
1.40555e-08
4.76376e-09
-1.42532e-08
9.49763e-09
7.18431e-10
-2.76226e-09
-1.14138e-08
-2.17763e-09
1.48877e-08
1.34538e-09
8.75391e-09
-1.4339e-09
-1.13955e-08
1.15028e-08
-9.56289e-09
1.16441e-08
5.7986e-09
-7.87971e-09
6.4876e-09
-1.60298e-08
-2.06376e-11
5.86738e-09
-1.91459e-09
7.69134e-09
-6.17985e-09
4.26344e-09
7.78383e-09
-1.98804e-08
7.91348e-09
1.00524e-08
-6.22215e-10
-1.27705e-08
2.21676e-10
-6.0289e-10
-1.54374e-08
4.94908e-09
1.84019e-08
-5.63922e-09
-1.04204e-08
-2.35995e-11
-9.39904e-09
1.36861e-08
-1.06694e-08
1.55949e-08
7.49235e-09
-7.80156e-10
-6.49048e-09
1.09892e-09
-9.50928e-09
-2.259e-09
-8.07762e-10
-1.02279e-08
-4.92057e-09
1.20732e-08
-2.19336e-09
1.66856e-09
-1.15484e-08
3.94929e-09
6.62124e-09
1.50268e-09
6.7246e-09
-8.38234e-10
-8.07961e-09
7.36593e-09
-1.45985e-09
8.18478e-10
6.57469e-09
4.74051e-09
1.12872e-08
-1.27403e-09
8.42169e-09
9.48675e-09
5.87903e-09
7.48913e-10
-7.46611e-09
4.65785e-09
-2.38643e-10
-2.28697e-09
-8.97234e-09
6.65383e-09
-8.19185e-09
1.33932e-09
-3.67287e-10
-1.90723e-10
6.40301e-09
1.95912e-09
4.4249e-09
5.48295e-09
5.14256e-10
6.83963e-09
-3.86555e-09
1.36751e-08
-2.84146e-11
8.7387e-09
-3.93375e-09
-1.02958e-08
-7.19627e-09
-4.09232e-10
1.79013e-08
-8.30471e-09
-9.6848e-09
7.69371e-09
-4.3213e-09
7.79561e-09
5.63809e-09
1.04903e-09
2.4035e-09
-3.34959e-09
2.3651e-10
1.29631e-08
-1.00225e-08
8.77317e-09
8.91302e-09
-7.66366e-09
9.004e-10
-1.14024e-08
4.79432e-10
-1.00379e-08
1.07116e-08
6.56849e-09
-7.2422e-09
1.76652e-09
-9.15489e-09
-2.64948e-09
-7.01542e-10
1.1057e-08
-8.58893e-09
8.06717e-09
-1.58614e-09
-7.18257e-09
-2.60841e-09
1.05004e-08
3.165e-09
5.51842e-09
-5.96667e-11
-6.10738e-09
1.09423e-09
-1.59862e-09
6.61175e-09
-7.79015e-10
1.90046e-10
-9.63231e-09
-8.51896e-10
1.15784e-08
-9.88045e-09
-5.30865e-10
9.43879e-09
2.00406e-09
-2.66972e-09
-1.34892e-09
9.93581e-09
8.5877e-09
-9.27345e-09
1.18707e-09
1.00888e-08
7.1131e-10
-9.03637e-09
-1.04684e-08
2.91991e-09
1.65849e-08
-4.0182e-09
-1.4731e-08
9.71277e-09
1.51906e-08
-6.91645e-09
-8.17052e-09
-1.03573e-10
5.5043e-09
5.66805e-09
-2.83955e-11
-7.51997e-09
-2.92006e-09
-1.00244e-08
-4.73503e-09
-1.3313e-10
1.2118e-08
-3.68446e-09
-8.30045e-09
1.01902e-08
-3.4603e-09
-6.86299e-09
6.18435e-09
6.32106e-09
-7.00112e-09
-5.83995e-09
-1.11009e-08
-2.9525e-09
8.41416e-09
4.72846e-09
1.64553e-09
9.41194e-10
-1.04656e-08
5.55251e-09
-7.27939e-09
7.91127e-09
-8.15341e-09
1.66259e-08
-5.32074e-09
-8.82414e-09
1.06846e-08
-1.06747e-08
6.29518e-09
5.67379e-09
-5.41303e-09
-7.28179e-09
-2.22723e-09
1.14812e-08
-1.97223e-09
-4.59565e-09
1.31122e-09
-3.99736e-09
-2.54159e-09
4.33048e-09
-8.76357e-09
6.9747e-09
-2.08754e-09
-8.67315e-09
8.53345e-09
-1.22893e-08
7.66017e-09
-5.06976e-09
-8.7809e-10
-6.34143e-09
7.06747e-09
-5.37363e-09
-6.76361e-09
-1.07118e-09
-5.3451e-10
-4.6131e-09
-1.05372e-09
2.78164e-09
-9.87587e-09
1.72061e-09
2.28963e-09
1.11506e-08
-4.68633e-09
-1.59377e-09
-2.78101e-09
6.66441e-09
-3.42523e-09
-5.38772e-09
3.69806e-09
4.27452e-09
-2.58488e-09
-4.98751e-10
-6.25787e-09
1.3689e-09
6.7104e-11
3.18831e-09
-3.75414e-09
2.5682e-09
2.77689e-10
-2.77874e-09
8.13128e-10
3.58149e-09
-6.96541e-10
-3.43205e-09
3.68928e-09
5.55899e-10
-1.80126e-09
1.55756e-09
9.23408e-10
-1.56429e-10
2.34198e-11
-3.69542e-13
3.55843e-09
-5.44245e-11
3.76713e-09
5.51912e-09
-4.11168e-11
-4.78513e-09
-6.92889e-10
4.26644e-09
5.5057e-09
-4.25307e-09
-2.72855e-10
4.32461e-09
-4.09284e-09
2.86302e-09
-2.85817e-09
-1.21048e-09
4.34977e-09
1.18536e-09
1.80698e-09
-1.54342e-10
4.35932e-10
-3.18754e-10
-2.75744e-09
3.13896e-09
3.94736e-09
-2.70647e-11
2.21535e-09
9.86191e-09
4.5487e-09
9.97351e-09
-8.53724e-09
-4.44353e-09
3.00727e-09
5.78471e-09
3.77062e-09
4.18187e-10
-7.63857e-10
-5.04142e-09
-2.73192e-09
1.32189e-08
-4.77216e-09
-9.21055e-09
-1.76619e-08
1.21666e-08
7.71077e-09
-1.08439e-08
-1.14423e-09
3.64894e-09
1.22043e-08
-5.99134e-09
6.92528e-10
1.04163e-08
2.11009e-09
7.74524e-09
-1.1557e-08
-9.60377e-10
6.63123e-09
1.31437e-08
-7.60827e-09
2.67837e-09
1.07282e-08
-5.94681e-09
-7.45978e-09
1.29585e-08
-1.37373e-08
7.69609e-09
1.37866e-08
-5.14662e-09
-5.98081e-09
4.88446e-09
6.24296e-09
-8.36718e-09
1.30204e-09
1.91849e-09
3.21956e-09
-6.90275e-09
-2.42235e-09
-3.38902e-10
-8.37196e-09
6.15291e-09
3.52105e-09
-1.55539e-09
-6.05708e-09
-7.59502e-10
-8.38723e-10
2.82336e-09
-3.93576e-09
7.26527e-09
-2.79439e-09
1.05022e-08
5.60771e-09
8.59992e-10
-5.57562e-09
-5.67108e-09
8.45228e-09
-2.19781e-09
-8.03e-09
3.73228e-09
-5.46931e-10
2.39605e-09
-8.52964e-09
7.18255e-09
-8.356e-09
2.03341e-09
1.68612e-09
-2.53358e-09
-2.52685e-10
-1.06438e-08
-3.469e-09
1.19017e-08
2.21101e-09
1.01957e-08
2.73411e-09
-1.28985e-08
-3.14135e-11
-1.05081e-08
1.006e-08
3.43155e-09
7.64021e-09
-8.33767e-09
1.39215e-09
-1.04676e-08
5.60632e-09
-8.23905e-09
6.43217e-09
3.19902e-09
-1.11798e-08
3.73305e-09
2.36884e-09
5.07788e-09
4.21e-09
-6.19463e-09
-9.19519e-09
-4.19376e-09
-5.22323e-09
1.3627e-08
-7.63418e-09
1.35471e-09
-4.22867e-09
-6.12902e-09
-1.44036e-08
-8.93267e-09
4.42666e-09
-1.81476e-09
-8.50801e-09
4.52751e-09
-1.25369e-08
-5.41301e-09
-3.69987e-09
-9.81818e-09
-7.56096e-09
8.67913e-09
-1.4645e-08
2.58171e-09
-2.23377e-08
-6.71484e-10
-1.15341e-08
-1.51791e-10
-9.73484e-09
-7.69163e-10
-1.04548e-08
-7.0677e-09
2.98782e-09
-4.96929e-09
4.50769e-09
-7.2679e-09
-6.97461e-09
-4.0386e-09
-1.5141e-08
-3.15973e-09
5.06545e-10
-7.9006e-09
1.05538e-08
4.04311e-09
1.43541e-08
-1.40131e-08
-4.38405e-09
-9.15441e-09
1.23669e-08
8.30711e-10
1.07383e-08
8.12922e-09
-1.18149e-08
-7.05261e-09
-1.57584e-09
-3.06969e-09
-2.91646e-09
2.03403e-08
1.3831e-08
-4.53384e-09
-1.94955e-09
-3.93424e-09
-1.78599e-08
5.53727e-09
-9.24092e-10
1.32468e-08
-2.62832e-09
-5.87139e-09
-9.36011e-09
-1.34341e-08
1.6055e-08
-6.93213e-09
-9.13016e-09
7.95989e-09
-1.18754e-08
2.99147e-09
8.43698e-09
-1.67971e-09
2.60461e-09
-9.36199e-09
-7.27192e-10
9.72424e-09
-5.60088e-10
-6.23196e-09
2.70949e-09
-2.61994e-09
6.1424e-09
-6.15016e-09
3.20883e-09
-3.29064e-09
5.66414e-09
4.96713e-10
-7.84059e-09
-1.21322e-09
-5.58391e-09
3.73667e-10
7.91971e-09
-2.27633e-09
-9.87041e-11
-4.98131e-10
7.6024e-09
-4.24613e-09
2.237e-09
-2.67216e-10
-9.65828e-09
2.04809e-09
7.11195e-09
4.43525e-10
-7.49718e-09
9.18529e-09
-1.28611e-09
-7.45565e-09
8.41881e-09
-1.67035e-09
2.43678e-09
1.42862e-09
-5.17803e-09
-2.42982e-09
8.47653e-09
-5.67304e-09
8.03708e-09
-7.1192e-09
4.33933e-10
5.0149e-09
-6.97671e-09
8.08158e-09
2.15079e-08
-2.01383e-08
-9.45108e-09
2.00274e-08
-1.02544e-08
-1.69143e-09
-3.73977e-09
-1.26153e-08
1.48802e-08
1.47497e-09
7.03961e-09
-1.80867e-09
-8.97065e-09
-8.22454e-10
1.16201e-08
9.22987e-09
1.13961e-08
9.28936e-09
7.99715e-09
-1.09873e-08
-7.26422e-09
1.34006e-08
-4.4903e-09
-2.15255e-08
-5.17874e-09
1.05369e-08
9.52215e-09
1.17122e-09
6.89647e-10
8.90552e-09
2.62874e-10
7.41807e-09
1.31076e-08
-9.08104e-09
-5.7381e-09
-5.31893e-09
-7.1209e-09
-9.28837e-09
1.13158e-08
-7.76532e-09
-6.24113e-09
-8.28729e-10
1.44881e-08
-6.6121e-09
1.17673e-08
1.61377e-08
-8.0845e-09
5.3475e-09
6.39581e-09
2.02789e-08
-2.79245e-09
8.35967e-09
-1.77698e-08
8.36552e-09
6.21906e-09
-1.27442e-09
-2.34879e-10
1.56993e-08
-1.2405e-08
2.6648e-09
-5.95906e-09
4.81064e-09
9.56295e-09
1.32565e-09
-1.04095e-08
3.92288e-09
9.90295e-10
5.49634e-09
-2.47026e-09
-2.8442e-09
-5.09504e-09
8.26766e-09
-1.67326e-08
3.32682e-09
-8.07107e-09
2.68143e-09
8.17081e-09
-1.05933e-08
6.49803e-09
8.01816e-09
-6.91403e-09
-6.14954e-09
1.1473e-08
-6.61021e-09
-7.70694e-09
6.83247e-09
5.63078e-09
-6.41361e-09
-3.3691e-09
1.40114e-08
-4.82426e-09
-5.81801e-09
7.93959e-09
1.02293e-08
-1.18111e-09
-2.89856e-09
-6.14952e-09
-7.40191e-10
5.2244e-09
5.74505e-09
-1.27581e-08
5.7937e-09
6.22418e-09
-4.83229e-09
-9.10686e-09
-7.0445e-09
4.62927e-09
7.63965e-09
-8.97518e-10
-6.44366e-09
2.96711e-10
-6.529e-09
4.66207e-10
1.38467e-08
6.95605e-09
-6.03883e-09
5.73917e-09
-5.28294e-09
5.58263e-09
-7.08963e-09
1.53304e-10
-3.56211e-09
-5.78006e-09
1.76655e-10
-1.28887e-08
1.08347e-08
-6.35728e-09
4.71486e-10
-6.33947e-09
-7.10743e-09
-9.72492e-09
5.02346e-09
1.91911e-09
-5.01458e-10
-1.43166e-08
4.86666e-09
-5.46707e-09
1.49171e-08
4.43437e-09
6.04269e-09
2.39359e-09
-1.44937e-09
5.90484e-09
5.16139e-09
-7.6938e-09
7.41867e-10
1.18187e-08
-8.65808e-10
3.66336e-09
8.36451e-09
5.73747e-09
-1.54936e-10
-2.58823e-09
9.23504e-09
2.35876e-09
1.25529e-09
4.75069e-09
5.50804e-09
6.09381e-09
-1.15705e-08
1.07459e-08
-3.08566e-09
3.91022e-09
-9.05805e-09
-5.6901e-09
6.43666e-09
8.31153e-09
-1.39329e-08
2.59378e-09
2.28116e-09
-2.17173e-09
2.65043e-09
-1.41482e-08
1.36695e-08
1.66796e-09
-1.54102e-08
-4.6417e-09
1.45466e-09
1.5559e-08
5.80294e-09
-1.9694e-08
1.34469e-08
-2.52959e-09
5.37619e-09
-1.94083e-08
1.98351e-08
-7.44689e-10
8.15292e-10
1.33764e-08
-7.61385e-09
-1.18463e-08
7.92391e-09
1.15363e-08
-2.38566e-08
-4.48043e-10
1.66909e-08
-2.54691e-08
1.35475e-08
7.55004e-11
1.79205e-09
-2.18849e-08
1.30189e-09
-1.45782e-08
7.58619e-09
1.62999e-08
-7.91987e-09
-1.94332e-09
2.94955e-09
2.83834e-09
-5.55069e-09
-2.372e-10
-1.32888e-09
4.26131e-09
1.7131e-11
3.21228e-09
-4.41751e-09
-1.23623e-10
8.22423e-09
-7.60288e-09
-4.90192e-10
-1.31173e-10
8.36737e-10
6.70036e-09
1.02564e-10
7.8176e-09
-7.26716e-09
2.86302e-10
-6.748e-09
6.61307e-09
6.83531e-09
6.92877e-10
-6.67141e-09
5.90473e-09
7.37978e-11
-5.51158e-09
6.21429e-09
-9.83263e-12
-6.946e-09
1.40909e-09
2.53174e-11
3.15392e-09
4.7737e-09
-6.98384e-09
-9.43765e-10
7.40647e-09
-4.11413e-09
-1.38412e-10
6.85904e-09
-7.07532e-10
-1.37782e-09
-2.71414e-10
-7.09556e-09
7.11373e-09
2.53227e-10
-7.23792e-09
6.98662e-09
-2.00973e-11
-7.65749e-09
3.10652e-11
3.36767e-09
-5.12961e-09
2.07273e-09
-3.1074e-10
-1.9714e-09
5.34852e-09
-9.44422e-12
-1.89778e-09
4.08934e-09
-2.01303e-09
-1.7851e-10
1.821e-09
-2.93729e-10
-2.18421e-09
4.24167e-09
-2.36446e-10
-4.37524e-09
2.60005e-09
-4.09097e-10
3.72898e-09
-6.77757e-09
3.25674e-09
-2.08173e-10
-4.47796e-09
8.05704e-09
1.49885e-10
1.97155e-09
-6.02014e-09
-4.29361e-10
-6.05151e-09
8.23372e-09
-2.10657e-10
8.30385e-09
1.51191e-09
-1.00133e-08
1.97558e-10
-1.20289e-09
-6.58657e-09
8.65914e-11
3.32575e-11
4.30511e-09
-1.08415e-08
-5.02096e-11
-1.15824e-09
-5.94709e-09
7.17219e-09
-6.69045e-11
6.94068e-09
-8.11506e-09
1.61311e-11
4.23128e-09
-9.99394e-09
-1.84453e-10
-1.58081e-09
8.29297e-09
-6.7838e-09
7.16178e-11
5.75581e-09
-7.37626e-09
3.95467e-11
1.0375e-08
-4.86806e-09
2.48866e-10
-5.22188e-10
-6.17176e-09
6.85394e-09
-1.60043e-10
6.73414e-09
-7.28021e-09
2.3825e-11
-2.94189e-10
6.77666e-09
2.51633e-10
1.96094e-09
-3.56698e-09
-2.32394e-10
-1.41288e-09
-6.70775e-11
1.05796e-11
-7.14805e-09
7.29859e-09
-1.61135e-10
-7.72657e-09
7.68203e-09
5.50923e-11
-7.25188e-09
-5.45919e-11
1.58404e-10
3.77852e-09
-4.3102e-09
1.10639e-09
-5.74599e-10
-9.50703e-10
4.75687e-09
-2.76045e-11
3.53082e-09
-4.35838e-09
-1.23019e-10
5.49102e-10
-2.59126e-09
2.27552e-09
-2.33249e-10
1.31048e-09
8.58374e-10
-2.04875e-09
-1.20082e-10
1.91902e-09
-5.94359e-11
2.18881e-09
-1.22357e-09
-1.06855e-10
7.01582e-10
5.34953e-09
-6.24868e-09
1.97577e-10
-5.57081e-09
6.28494e-09
-1.25137e-11
-1.78068e-10
8.35204e-09
-8.27625e-09
1.02284e-10
8.15473e-09
-8.2369e-09
-9.58975e-11
2.45248e-09
1.12485e-09
-3.456e-09
-1.21246e-10
3.31561e-09
-8.39971e-10
-2.31567e-11
2.7991e-10
-6.7635e-09
6.49351e-09
-9.91626e-12
-6.99094e-09
1.63427e-10
1.3747e-09
3.1313e-09
-4.27642e-09
-2.29639e-10
2.78328e-09
1.36446e-09
-3.93119e-09
-2.16559e-10
4.25129e-09
-9.3317e-11
4.79784e-09
-3.40043e-09
-3.29224e-11
4.06248e-09
3.94568e-09
-8.22815e-09
2.19959e-10
-4.11783e-09
7.67735e-09
5.02962e-10
8.0458e-09
-4.57455e-09
4.74422e-10
3.86184e-09
-8.35132e-09
5.03002e-09
-5.40529e-10
9.72174e-09
-5.7959e-09
-6.40041e-11
-1.1098e-09
-5.27201e-09