/*--------------------------------*- C++ -*----------------------------------*\
| =========                 |                                                 |
| \\      /  F ield         | OpenFOAM: The Open Source CFD Toolbox           |
|  \\    /   O peration     | Version:  v1612+                                |
|   \\  /    A nd           | Web:      www.OpenFOAM.com                      |
|    \\/     M anipulation  |                                                 |
\*---------------------------------------------------------------------------*/
FoamFile
{
    version     2.0;
    format      ascii;
    class       volVectorField;
    location    "50";
    object      U;
}
// * * * * * * * * * * * * * * * * * * * * * * * * * * * * * * * * * * * * * //

dimensions      [0 1 -1 0 0 0 0];

internalField   nonuniform List<vector> 
19000
(
(0.0550333 0.623843 -0.19022)
(0.0355188 0.658533 -0.275239)
(-0.0468102 0.765039 -0.329809)
(-0.0379628 0.723513 -0.323699)
(-0.0740467 0.90662 -0.291711)
(-0.0747754 0.931725 -0.28592)
(-0.0605941 0.781001 -0.335564)
(-0.0385988 0.771362 -0.317401)
(-0.0729893 0.896888 -0.30375)
(-0.0663661 0.756144 -0.311355)
(-0.0593314 0.801434 -0.322536)
(-0.0799372 0.774358 -0.319878)
(-0.0808958 0.80054 -0.319231)
(-0.0522858 0.712282 -0.335914)
(-0.0619775 0.748153 -0.330658)
(-0.115101 0.802068 -0.248601)
(-0.10087 0.791999 -0.230982)
(-0.0927322 0.694835 -0.218868)
(-0.108387 0.878734 -0.26194)
(-0.0985979 0.897504 -0.258815)
(-0.0898823 0.77202 -0.238099)
(-0.0870524 0.869671 -0.250908)
(-0.0587559 0.716631 -0.213398)
(-0.0532459 0.787201 -0.235441)
(-0.0820139 0.811894 -0.236128)
(-0.0938027 0.909922 -0.24819)
(-0.0971649 0.901193 -0.248764)
(-0.0737782 0.726493 -0.209936)
(-0.0740544 0.673899 -0.206774)
(-0.0494237 0.729604 -0.216561)
(-0.0615127 0.652025 -0.202283)
(-0.0785539 0.908732 -0.264031)
(-0.0641562 0.929114 -0.250909)
(-0.0780768 0.915916 -0.247392)
(-0.0614874 0.791931 -0.228202)
(-0.104861 0.79898 -0.254426)
(-0.119587 0.776181 -0.249357)
(-0.117931 0.721681 -0.243071)
(-0.0990603 0.896684 -0.275343)
(-0.0999905 0.866041 -0.265799)
(-0.11494 0.873946 -0.290865)
(-0.137678 0.797082 -0.262014)
(-0.0795028 0.72508 -0.226632)
(-0.087502 0.802227 -0.255981)
(-0.117314 0.757306 -0.24393)
(-0.109938 0.708006 -0.232501)
(-0.0639764 0.695792 -0.218127)
(-0.0730987 0.62544 -0.203075)
(-0.0895501 0.608726 -0.203681)
(-0.191999 0.398693 -0.13902)
(-0.207699 0.441247 -0.167737)
(-0.17798 0.555524 -0.177512)
(-0.148649 0.535538 -0.152129)
(-0.177684 0.444438 -0.130965)
(-0.220772 0.410112 -0.169713)
(-0.20859 0.363579 -0.149697)
(-0.159879 0.568704 -0.166456)
(-0.148585 0.563973 -0.159916)
(-0.181236 0.55729 -0.170983)
(-0.229056 0.436352 -0.173583)
(-0.158046 0.420774 -0.130311)
(-0.172181 0.370099 -0.125201)
(-0.157299 0.42817 -0.128893)
(-0.138461 0.46189 -0.133971)
(-0.135068 0.535137 -0.157729)
(-0.151849 0.538423 -0.158185)
(-0.187488 0.52535 -0.164192)
(-0.2127 0.463397 -0.168581)
(-0.198541 0.336335 -0.136258)
(-0.168984 0.461536 -0.146344)
(-0.194476 0.397188 -0.146291)
(-0.262775 0.975793 -0.493944)
(-0.214986 0.996262 -0.456832)
(-0.218368 0.884374 -0.479821)
(-0.234194 0.877649 -0.484202)
(-0.216478 0.839287 -0.485579)
(-0.227539 0.703331 -0.5061)
(-0.257947 0.776058 -0.514987)
(-0.195386 0.811726 -0.493897)
(-0.2124 0.788732 -0.503608)
(-0.218935 0.692839 -0.491175)
(-0.259176 0.812543 -0.48814)
(-0.267334 0.781983 -0.512827)
(-0.214919 0.66912 -0.494224)
(-0.195256 0.737999 -0.513256)
(-0.218375 0.688415 -0.488606)
(-0.394821 0.442091 -0.267692)
(-0.422743 0.422993 -0.273927)
(-0.250331 0.614004 -0.278339)
(-0.278873 0.615297 -0.311104)
(-0.366998 0.548896 -0.332444)
(-0.348017 0.541365 -0.307844)
(-0.303088 0.517878 -0.256713)
(-0.31265 0.563527 -0.293243)
(-0.365827 0.40397 -0.230546)
(-0.320326 0.580258 -0.301017)
(-0.312927 0.60137 -0.324559)
(-0.275871 0.572606 -0.269421)
(-0.344802 0.406449 -0.217645)
(-0.351424 0.427987 -0.226693)
(-0.39432 0.422156 -0.262445)
(-0.363619 0.376849 -0.219441)
(-0.334608 0.442617 -0.228452)
(-0.31458 0.448651 -0.224119)
(-0.304435 0.49171 -0.231779)
(-0.385308 0.437961 -0.272672)
(-0.35271 0.430189 -0.320517)
(-0.352183 0.386287 -0.30516)
(-0.386745 0.44312 -0.370526)
(-0.382792 0.380582 -0.334519)
(-0.359817 0.333637 -0.298634)
(-0.379269 0.555338 -0.41862)
(-0.394792 0.518035 -0.416506)
(-0.362636 0.383329 -0.323573)
(-0.395791 0.413819 -0.361791)
(-0.407254 0.52277 -0.425856)
(-0.383395 0.535982 -0.419109)
(-0.367057 0.425929 -0.348833)
(-0.363597 0.460488 -0.346347)
(-0.407321 0.347048 -0.471705)
(-0.412359 0.398573 -0.488792)
(-0.404554 0.381086 -0.469359)
(-0.394333 0.352784 -0.48603)
(-0.389833 0.336472 -0.473252)
(-0.394106 0.306904 -0.484729)
(-0.410003 0.493338 -0.549852)
(-0.40906 0.487983 -0.545462)
(-0.389333 0.491129 -0.542997)
(-0.402046 0.519857 -0.530395)
(-0.385043 0.391857 -0.478907)
(-0.38828 0.375157 -0.485333)
(-0.379293 0.265485 -0.471966)
(-0.386204 0.36543 -0.530375)
(-0.371431 0.337011 -0.523319)
(-0.353148 0.269773 -0.501271)
(-0.18599 0.588575 -0.354159)
(-0.168624 0.686864 -0.33133)
(-0.180319 0.720058 -0.325124)
(-0.200506 0.598202 -0.332684)
(-0.204083 0.53418 -0.322579)
(-0.215951 0.565679 -0.299888)
(-0.204824 0.559359 -0.301796)
(-0.201238 0.604678 -0.296082)
(-0.190256 0.596139 -0.307581)
(-0.207849 0.630706 -0.308692)
(-0.161553 0.764 -0.288473)
(-0.148552 0.842381 -0.290196)
(-0.146035 0.811535 -0.302561)
(-0.167673 0.834411 -0.316023)
(-0.174058 0.817136 -0.273245)
(-0.172549 0.798889 -0.283406)
(-0.0593635 1.07153 -0.258612)
(-0.0433247 0.920126 -0.274186)
(-0.0631935 0.887042 -0.252276)
(-0.0347707 0.879543 -0.281709)
(-0.0731553 1.01946 -0.247539)
(-0.0300974 0.924317 -0.285492)
(-0.0460374 1.01204 -0.270197)
(-0.0504614 0.991123 -0.296193)
(-0.0568497 1.06332 -0.281914)
(-0.0520518 0.934623 -0.296399)
(-0.058907 0.928267 -0.281884)
(-0.0259778 0.870827 -0.298524)
(-0.0151156 0.821666 -0.308966)
(-0.0285921 0.828631 -0.304051)
(-0.0227132 0.829528 -0.310427)
(-0.0179116 0.838551 -0.310721)
(-0.0741099 0.905884 -0.285716)
(-0.0606898 0.871531 -0.30509)
(-0.0872727 0.96584 -0.203871)
(-0.0844731 0.976842 -0.200732)
(-0.0624708 0.921166 -0.205256)
(-0.104814 0.996864 -0.207812)
(-0.106823 1.01919 -0.209225)
(-0.12081 1.14732 -0.237339)
(-0.112476 1.12871 -0.209152)
(-0.104633 1.13355 -0.224399)
(-0.0898273 1.14603 -0.219388)
(-0.0515198 0.970361 -0.209228)
(-0.0527564 0.949754 -0.209602)
(-0.086259 0.965206 -0.211377)
(-0.113885 1.02804 -0.226034)
(-0.0967792 1.12366 -0.210435)
(-0.107364 1.14166 -0.234066)
(-0.112283 1.13275 -0.245208)
(-0.068953 0.966175 -0.22098)
(-0.0672592 1.00384 -0.226899)
(-0.256201 0.821652 -0.391645)
(-0.252793 0.774268 -0.370091)
(-0.275311 0.73285 -0.365203)
(-0.287629 0.761653 -0.389332)
(-0.251553 0.713359 -0.361404)
(-0.261041 0.724936 -0.374666)
(-0.27887 0.713573 -0.363774)
(-0.267448 0.681568 -0.347667)
(-0.24498 0.760962 -0.368035)
(-0.267455 0.792332 -0.402744)
(-0.27871 0.833938 -0.417574)
(-0.244204 0.696346 -0.347054)
(-0.223847 0.753221 -0.562601)
(-0.195846 0.728641 -0.538907)
(-0.19672 0.684911 -0.551956)
(-0.195958 0.622759 -0.544368)
(-0.201375 0.733076 -0.548528)
(-0.215967 0.769104 -0.550061)
(-0.244403 0.746679 -0.564571)
(-0.254699 0.669779 -0.569548)
(-0.242571 0.724422 -0.585235)
(-0.235597 0.550987 -0.572457)
(-0.220461 0.548357 -0.534121)
(-0.233389 0.709149 -0.556702)
(-0.250934 0.632604 -0.56532)
(-0.226503 0.497298 -0.550775)
(-0.213445 0.501102 -0.548484)
(-0.115482 0.829144 -0.103407)
(-0.100065 0.747756 -0.0925596)
(-0.0786371 0.857346 -0.0488549)
(-0.0806249 0.84869 -0.0390121)
(-0.098411 0.893089 -0.0673981)
(-0.110481 0.869383 -0.0711187)
(-0.0986396 0.803775 -0.0825687)
(-0.111196 0.644793 -0.0773054)
(-0.115555 0.780647 -0.0897175)
(-0.0842147 0.798501 -0.0423736)
(-0.0910564 0.743019 -0.0334773)
(-0.116727 0.803488 -0.0673849)
(-0.103114 0.625755 -0.0499064)
(-0.0987056 0.706779 -0.0399467)
(-0.0656253 0.797408 -0.280747)
(-0.0627348 0.813855 -0.301693)
(-0.0461478 0.692151 -0.261116)
(-0.0360502 0.693 -0.263638)
(-0.0632004 0.763752 -0.221661)
(-0.0456596 0.699361 -0.236168)
(-0.0376628 0.723785 -0.234504)
(-0.0357152 0.675877 -0.227811)
(-0.0872873 0.845431 -0.258511)
(-0.0394239 0.737823 -0.290186)
(-0.0612373 0.776775 -0.220221)
(-0.0332376 0.726673 -0.256148)
(-0.0340716 0.691473 -0.248892)
(-0.0845643 0.920805 -0.293174)
(-0.0856686 0.901391 -0.261342)
(-0.0802597 0.837275 -0.232049)
(-0.0706465 0.880753 -0.276162)
(-0.0395906 0.781352 -0.281135)
(-0.129498 0.764732 -0.458097)
(-0.147048 0.772355 -0.463447)
(-0.158814 0.792909 -0.473417)
(-0.125592 0.816436 -0.481664)
(-0.135522 0.745854 -0.461871)
(-0.145596 0.745821 -0.453932)
(-0.145614 0.759251 -0.504412)
(-0.126882 0.764094 -0.47045)
(-0.154074 0.735544 -0.488266)
(-0.181948 0.873842 -0.507632)
(-0.190353 0.879119 -0.513849)
(-0.185527 0.898519 -0.492055)
(-0.170075 0.909544 -0.491708)
(-0.14109 0.721256 -0.480057)
(-0.162836 0.729838 -0.4996)
(-0.176234 0.754787 -0.500218)
(-0.168624 0.767881 -0.487763)
(-0.160064 0.729835 -0.496784)
(-0.0308231 0.76333 -0.275475)
(-0.0358031 0.727364 -0.254898)
(-0.0295927 0.925905 -0.311339)
(-0.0333849 0.8474 -0.294484)
(-0.0502144 0.952615 -0.319154)
(-0.0568246 0.965459 -0.324073)
(-0.0906327 1.01203 -0.316023)
(-0.0414879 0.882072 -0.311934)
(-0.0676619 1.00016 -0.314528)
(-0.0440321 0.857521 -0.27047)
(-0.0500526 0.850713 -0.269107)
(-0.0610035 0.886948 -0.284101)
(-0.0614045 0.957876 -0.308216)
(-0.294717 0.353628 -0.231155)
(-0.285204 0.300134 -0.214457)
(-0.27833 0.397619 -0.20253)
(-0.276291 0.333794 -0.197297)
(-0.285145 0.411773 -0.21341)
(-0.305258 0.408539 -0.265848)
(-0.292023 0.374981 -0.268341)
(-0.287873 0.324068 -0.232693)
(-0.268424 0.398606 -0.205988)
(-0.261485 0.428193 -0.204104)
(-0.247866 0.539085 -0.229644)
(-0.264666 0.538869 -0.268181)
(-0.277346 0.352774 -0.227566)
(-0.282424 0.420518 -0.270706)
(-0.250102 0.574284 -0.263719)
(-0.277388 0.420039 -0.213368)
(-0.25743 1.02791 -0.530312)
(-0.259584 1.02173 -0.543282)
(-0.262488 1.00407 -0.530454)
(-0.285562 1.04509 -0.566087)
(-0.244486 1.00998 -0.537963)
(-0.265544 0.931399 -0.559209)
(-0.230737 0.894882 -0.514156)
(-0.254294 0.916155 -0.552134)
(-0.259688 0.876152 -0.557982)
(-0.270176 0.949651 -0.522234)
(-0.242123 0.908859 -0.490404)
(-0.225217 0.854997 -0.530944)
(-0.267626 0.91776 -0.516551)
(-0.263658 0.907767 -0.509274)
(-0.348817 0.657217 -0.439793)
(-0.372366 0.631556 -0.446078)
(-0.369629 0.453751 -0.351343)
(-0.361452 0.38573 -0.335094)
(-0.348321 0.443637 -0.337482)
(-0.349007 0.395257 -0.32268)
(-0.341917 0.489545 -0.356485)
(-0.343591 0.466721 -0.339972)
(-0.389599 0.649129 -0.44967)
(-0.356264 0.6758 -0.437054)
(-0.35133 0.484816 -0.3631)
(-0.373033 0.587781 -0.399804)
(-0.385698 0.436024 -0.374442)
(-0.406062 0.468818 -0.400821)
(-0.364184 0.411871 -0.340083)
(-0.381016 0.558223 -0.439503)
(-0.386682 0.445048 -0.399359)
(-0.15175 0.858355 -0.413003)
(-0.145578 0.836733 -0.415955)
(-0.152356 0.831673 -0.397769)
(-0.146665 0.807173 -0.398362)
(-0.146585 0.661126 -0.426584)
(-0.134513 0.619328 -0.407857)
(-0.139661 0.75815 -0.415289)
(-0.147836 0.723797 -0.403381)
(-0.141093 0.741012 -0.400097)
(-0.133703 0.669924 -0.403801)
(-0.205447 0.602971 -0.233269)
(-0.203744 0.569501 -0.198068)
(-0.227549 0.562592 -0.233556)
(-0.218539 0.553419 -0.220914)
(-0.251221 0.382329 -0.241105)
(-0.245235 0.417936 -0.250394)
(-0.205534 0.586967 -0.239645)
(-0.224935 0.542901 -0.234819)
(-0.243152 0.387071 -0.245914)
(-0.237369 0.345251 -0.222163)
(-0.23822 0.42458 -0.237747)
(-0.239551 0.430245 -0.218358)
(-0.223817 0.434404 -0.190294)
(-0.224205 0.396899 -0.189576)
(-0.241298 0.424729 -0.217891)
(-0.23098 0.387454 -0.204564)
(-0.236864 0.356742 -0.200421)
(-0.200584 0.572941 -0.2178)
(-0.202319 0.548377 -0.233932)
(-0.209645 0.535897 -0.194249)
(-0.21619 0.429359 -0.180462)
(-0.201261 0.550566 -0.191594)
(-0.00242654 0.6983 -0.331554)
(-0.00485958 0.648268 -0.330429)
(0.0164812 0.654528 -0.26806)
(0.0298759 0.614421 -0.253743)
(-0.00722108 0.695672 -0.323064)
(0.0067137 0.599976 -0.302726)
(-0.0150335 0.761965 -0.3147)
(-0.020206 0.795934 -0.310523)
(0.00182356 0.665697 -0.312333)
(0.0204466 0.610065 -0.26199)
(0.0287099 0.549119 -0.253607)
(0.0251712 0.663512 -0.273485)
(0.00843905 0.606436 -0.293957)
(0.0182494 0.542848 -0.263529)
(0.0075325 0.647459 -0.281509)
(0.00142359 0.755058 -0.281166)
(0.00150078 0.755675 -0.271115)
(-0.0123216 0.780792 -0.294792)
(0.00982098 0.689348 -0.307712)
(0.0205949 0.606131 -0.283536)
(0.0224226 0.587775 -0.273445)
(-0.0193064 0.520213 -0.380832)
(-0.0245855 0.537943 -0.373798)
(0.00107055 0.574571 -0.353977)
(0.00841607 0.53435 -0.344928)
(-0.0197884 0.552488 -0.373011)
(-0.00119659 0.497708 -0.368929)
(-0.00175995 0.481846 -0.362574)
(0.0156414 0.537224 -0.339997)
(0.0107678 0.479708 -0.324341)
(-0.0134447 0.703745 -0.353293)
(0.00411579 0.578206 -0.347092)
(-0.0439188 0.696071 -0.36856)
(-0.0347548 0.697933 -0.377614)
(0.0115684 0.555512 -0.342932)
(0.00699001 0.599127 -0.352179)
(0.00260508 0.547152 -0.369856)
(0.00811751 0.505748 -0.358146)
(-0.019326 0.726284 -0.365957)
(0.0117543 0.509706 -0.337174)
(-0.360301 0.594268 -0.481177)
(-0.369604 0.599809 -0.492938)
(-0.365682 0.496927 -0.470249)
(-0.351503 0.413636 -0.454512)
(-0.366987 0.42196 -0.442386)
(-0.353329 0.333285 -0.416599)
(-0.359924 0.56827 -0.51627)
(-0.362755 0.44758 -0.505595)
(-0.353588 0.376653 -0.48346)
(-0.346522 0.345296 -0.443472)
(-0.376449 0.47334 -0.471935)
(-0.378143 0.413384 -0.446593)
(-0.336599 0.314935 -0.451029)
(-0.350593 0.460299 -0.485095)
(-0.351141 0.559692 -0.529279)
(-0.375976 0.445939 -0.499249)
(0.0275391 0.558056 -0.298457)
(0.0313188 0.484238 -0.282035)
(0.00644556 0.615844 -0.314309)
(-0.00428434 0.786293 -0.315494)
(-0.013063 0.832179 -0.323676)
(-0.00145069 0.77679 -0.327443)
(-0.00286806 0.757588 -0.328096)
(0.0294227 0.583573 -0.295389)
(0.0179242 0.670254 -0.30699)
(-0.00861841 0.749927 -0.3377)
(-0.00496155 0.721095 -0.353441)
(0.0128935 0.572399 -0.345526)
(0.0213713 0.567668 -0.334826)
(0.0231532 0.517294 -0.320684)
(0.00647642 0.6079 -0.35015)
(-0.0126026 0.712382 -0.364907)
(-0.0019369 0.803907 -0.341842)
(-0.00963894 0.766075 -0.335219)
(0.000169901 0.595086 -0.342718)
(0.0107983 0.554185 -0.335995)
(-0.0154565 0.70664 -0.36065)
(0.0253564 0.644287 -0.314779)
(0.0253021 0.530948 -0.326613)
(0.0188605 0.48733 -0.314698)
(-0.123771 0.495883 -0.184881)
(-0.144769 0.437924 -0.162014)
(-0.18723 0.463184 -0.169865)
(-0.171606 0.422924 -0.162876)
(-0.0973646 0.506982 -0.191879)
(-0.108206 0.526236 -0.190848)
(-0.144273 0.578823 -0.206959)
(-0.191106 0.485374 -0.171196)
(-0.170892 0.52206 -0.171736)
(-0.136424 0.564603 -0.180496)
(-0.103519 0.647138 -0.23515)
(-0.121746 0.684867 -0.225225)
(-0.14542 0.482975 -0.1629)
(-0.165672 0.477129 -0.15755)
(-0.184223 0.45942 -0.164636)
(-0.172564 0.455142 -0.166174)
(-0.164281 0.562953 -0.189744)
(-0.133576 0.625791 -0.200488)
(-0.143616 0.584008 -0.189124)
(-0.10687 0.504257 -0.172209)
(-0.142119 0.469276 -0.167137)
(-0.183908 0.47122 -0.334231)
(-0.183409 0.51699 -0.363789)
(-0.168745 0.504101 -0.369781)
(-0.176909 0.459373 -0.334718)
(-0.223162 0.589325 -0.406318)
(-0.20065 0.545523 -0.371019)
(-0.181328 0.516547 -0.354381)
(-0.200976 0.526004 -0.343577)
(-0.17628 0.428441 -0.300269)
(-0.260388 0.696737 -0.417919)
(-0.222643 0.687583 -0.424262)
(-0.167854 0.501737 -0.343811)
(-0.186172 0.528615 -0.325122)
(-0.162933 0.488673 -0.329267)
(-0.242176 0.618268 -0.374325)
(-0.26176 0.685352 -0.405274)
(-0.230709 0.685038 -0.411066)
(-0.211339 0.511942 -0.309917)
(-0.233335 0.569398 -0.343059)
(-0.174741 0.467674 -0.301241)
(-0.194578 0.516216 -0.309533)
(-0.196569 0.460774 -0.29016)
(-0.198045 0.579642 -0.351309)
(-0.0194279 0.83591 -0.291142)
(-0.0207004 0.852148 -0.290146)
(0.00754137 0.722008 -0.302716)
(0.00955216 0.725082 -0.310657)
(0.0195461 0.709268 -0.303327)
(-0.0601193 0.875576 -0.317546)
(-0.053239 0.867916 -0.315184)
(-0.0377554 0.768006 -0.340666)
(-0.041218 0.781651 -0.335851)
(-0.0200841 0.815948 -0.301811)
(-0.032388 0.856845 -0.314354)
(-0.0151183 0.746012 -0.322463)
(-8.78668e-05 0.709141 -0.321545)
(0.0124286 0.694376 -0.312663)
(-0.000908094 0.747731 -0.314573)
(-0.0328652 0.890025 -0.293212)
(-0.0124727 0.720539 -0.313268)
(-0.0207259 0.688031 -0.339144)
(-0.0440947 0.797889 -0.343983)
(-0.0428979 0.743943 -0.345152)
(-0.0250127 0.724563 -0.333034)
(-0.0498518 0.86138 -0.325768)
(-0.215126 1.0952 -0.415518)
(-0.200309 1.0406 -0.388748)
(-0.195227 0.97346 -0.376937)
(-0.199694 0.983653 -0.357467)
(-0.184125 0.954591 -0.354156)
(-0.16621 1.12037 -0.370949)
(-0.176462 1.09415 -0.366606)
(-0.153347 0.948869 -0.34354)
(-0.175071 0.982428 -0.350522)
(-0.173102 1.12232 -0.400243)
(-0.192325 1.06133 -0.390608)
(-0.187037 0.960506 -0.374301)
(-0.196477 1.12299 -0.380159)
(-0.172067 1.15004 -0.389005)
(-0.169901 1.02042 -0.358929)
(-0.180514 1.10915 -0.381707)
(-0.161289 1.05753 -0.364314)
(-0.0776888 0.830183 -0.0513508)
(-0.0678122 0.748724 -0.0506414)
(-0.053353 0.877762 -0.0423308)
(-0.0314771 0.788475 -0.054424)
(-0.0358938 0.685444 -0.0476213)
(-0.046916 0.662151 -0.0337746)
(-0.0590692 0.646879 -0.024741)
(-0.0372725 0.597668 -0.0339501)
(-0.0709716 0.629527 -0.0306956)
(-0.076424 0.796926 -0.0299986)
(-0.176471 0.828015 -0.467977)
(-0.160749 0.784824 -0.459517)
(-0.152396 0.675831 -0.428067)
(-0.171684 0.650459 -0.399614)
(-0.143302 0.732775 -0.454454)
(-0.162995 0.676844 -0.428254)
(-0.141047 0.919944 -0.415066)
(-0.172704 0.906751 -0.455588)
(-0.195832 0.629781 -0.444448)
(-0.19105 0.645037 -0.438733)
(-0.169039 0.752879 -0.374704)
(-0.18722 0.677114 -0.367935)
(-0.137603 0.931305 -0.40349)
(-0.148578 0.793945 -0.431102)
(-0.185305 0.845821 -0.393334)
(-0.206665 0.691065 -0.449417)
(-0.209012 0.731219 -0.393046)
(-0.111398 0.889508 -0.340199)
(-0.108134 0.819486 -0.302079)
(-0.0999213 0.746943 -0.276179)
(-0.109292 0.848754 -0.308758)
(-0.122839 0.662915 -0.248569)
(-0.1202 0.61328 -0.236575)
(-0.141192 0.664754 -0.26726)
(-0.142176 0.692071 -0.267658)
(-0.107309 0.666636 -0.252115)
(-0.109452 0.71525 -0.273096)
(-0.152931 0.696584 -0.265241)
(-0.137598 0.624457 -0.23848)
(-0.163325 0.753341 -0.28564)
(-0.135829 0.72082 -0.264919)
(-0.115673 0.850473 -0.318683)
(-0.148088 0.988005 -0.351532)
(-0.113143 0.804497 -0.301623)
(-0.130126 0.875595 -0.326072)
(-0.157282 0.762168 -0.297666)
(-0.146942 0.754727 -0.288455)
(-0.10682 0.700896 -0.259131)
(-0.140774 0.671778 -0.25037)
(-0.167787 0.79454 -0.314807)
(-0.137977 0.838231 -0.308625)
(-0.183051 0.748505 -0.243992)
(-0.13505 0.800585 -0.221917)
(-0.172187 0.747082 -0.244114)
(-0.191766 0.790753 -0.264614)
(-0.17662 0.772557 -0.238286)
(-0.171761 0.648565 -0.204507)
(-0.198479 0.536265 -0.171208)
(-0.154007 0.758159 -0.204091)
(-0.155463 0.751181 -0.227086)
(-0.169471 0.608248 -0.186268)
(-0.186111 0.622031 -0.193061)
(-0.221118 0.660458 -0.264936)
(-0.232921 0.525064 -0.216272)
(-0.220411 0.561829 -0.218459)
(-0.214886 0.64414 -0.260574)
(-0.0934928 1.09561 -0.262966)
(-0.103403 1.09987 -0.257042)
(-0.089567 1.0765 -0.259336)
(-0.121393 1.03127 -0.306798)
(-0.112155 1.04434 -0.293221)
(-0.0971688 1.0754 -0.259104)
(-0.0938521 1.11607 -0.242528)
(-0.0980247 0.993617 -0.272708)
(-0.103989 1.03005 -0.284234)
(-0.118793 1.00553 -0.272291)
(-0.120935 0.938259 -0.288473)
(-0.0826221 0.929355 -0.313382)
(-0.0711661 0.944337 -0.297614)
(-0.106855 0.938457 -0.298821)
(-0.120166 1.03288 -0.279449)
(-0.118137 0.985853 -0.302538)
(-0.0947587 0.919933 -0.320597)
(-0.155772 0.643124 -0.338594)
(-0.169825 0.632629 -0.338779)
(-0.157108 0.551495 -0.363435)
(-0.165474 0.569647 -0.361907)
(-0.166502 0.509157 -0.35837)
(-0.138951 0.76902 -0.356665)
(-0.153539 0.532317 -0.368578)
(-0.143049 0.821912 -0.325595)
(-0.173016 0.526044 -0.373498)
(-0.188131 0.511562 -0.378524)
(-0.14484 0.660971 -0.381189)
(-0.140843 0.831877 -0.329196)
(-0.165571 0.654519 -0.358464)
(-0.149602 0.735875 -0.353764)
(-0.346138 0.397468 -0.277146)
(-0.331152 0.347364 -0.237491)
(-0.31026 0.382884 -0.226052)
(-0.32633 0.430093 -0.274972)
(-0.329411 0.380925 -0.229882)
(-0.330299 0.429484 -0.234892)
(-0.27894 0.555708 -0.268431)
(-0.264501 0.542248 -0.232906)
(-0.318008 0.406508 -0.216972)
(-0.333701 0.336358 -0.22557)
(-0.35717 0.415257 -0.28687)
(-0.301924 0.425213 -0.229168)
(-0.249013 0.641959 -0.259772)
(-0.244294 0.62127 -0.237331)
(-0.350633 0.426806 -0.271773)
(-0.266357 0.605384 -0.285804)
(-0.259241 0.618796 -0.257034)
(-0.249754 0.546238 -0.216033)
(-0.27819 0.566636 -0.249672)
(-0.299188 0.547682 -0.285201)
(-0.282497 0.577731 -0.296875)
(-0.299751 0.448383 -0.223255)
(-0.334835 0.966986 -0.554852)
(-0.314861 1.01868 -0.574615)
(-0.344077 0.971646 -0.578605)
(-0.33034 0.996022 -0.596191)
(-0.346244 0.979694 -0.565913)
(-0.355224 0.887037 -0.555463)
(-0.307288 0.990197 -0.548639)
(-0.31602 0.998008 -0.575648)
(-0.350312 0.853566 -0.534524)
(-0.347626 0.85874 -0.507437)
(-0.312625 0.886258 -0.509637)
(-0.311375 0.816598 -0.504862)
(-0.318713 0.919176 -0.537854)
(-0.333966 0.984749 -0.581662)
(-0.348966 0.874819 -0.545367)
(-0.330279 0.911491 -0.568006)
(-0.340517 0.792436 -0.49991)
(-0.16412 0.458437 -0.37059)
(-0.175115 0.497671 -0.389848)
(-0.204456 0.498906 -0.347789)
(-0.182978 0.431277 -0.329254)
(-0.167779 0.445748 -0.3326)
(-0.217656 0.664328 -0.469808)
(-0.230427 0.654119 -0.482719)
(-0.206551 0.488692 -0.348485)
(-0.236279 0.565088 -0.382703)
(-0.24476 0.672369 -0.440724)
(-0.200756 0.526777 -0.385825)
(-0.232039 0.672775 -0.47625)
(-0.240731 0.665797 -0.459194)
(-0.00637036 0.87972 -0.291667)
(0.00334009 0.800378 -0.321256)
(0.0104213 0.839055 -0.291652)
(0.0212807 0.673876 -0.326532)
(0.00038499 0.753341 -0.314778)
(-0.0109055 0.794763 -0.319769)
(-0.00273539 0.846878 -0.283534)
(0.0283903 0.684301 -0.294811)
(-0.0131878 0.768515 -0.327472)
(-0.00299567 0.828508 -0.306023)
(-0.0354568 0.868348 -0.301293)
(0.00489181 0.816744 -0.293334)
(0.0241528 0.630747 -0.060816)
(0.0431686 0.583223 -0.0692785)
(0.0324292 0.577399 -0.0732716)
(0.0355714 0.536051 -0.0728756)
(-0.0115677 0.580381 -0.0432734)
(-0.0253704 0.483983 -0.0391597)
(0.0117832 0.489725 -0.0724326)
(0.00892936 0.433147 -0.0601818)
(-0.0245111 0.499404 -0.0505863)
(-0.0276492 0.415577 -0.045077)
(0.0103206 0.447117 -0.048869)
(-0.00504443 0.441938 -0.0565156)
(-0.000325991 0.378976 -0.0431001)
(0.00822608 0.413883 -0.0478848)
(-0.142189 0.805104 -0.246794)
(-0.13409 0.768554 -0.259281)
(-0.133885 0.8651 -0.244222)
(-0.131519 0.843944 -0.231911)
(-0.139623 0.883592 -0.269723)
(-0.135623 0.799602 -0.249044)
(-0.132423 0.799811 -0.280518)
(-0.124325 0.738378 -0.274117)
(-0.125649 0.818914 -0.292856)
(-0.124098 0.796155 -0.285647)
(-0.136695 0.983715 -0.239379)
(-0.134913 0.969542 -0.248159)
(-0.118994 0.963448 -0.275005)
(-0.135451 1.04424 -0.262931)
(-0.126788 0.850681 -0.289046)
(-0.12084 0.841298 -0.283394)
(-0.127742 0.812287 -0.277198)
(-0.127498 0.990646 -0.26138)
(-0.138807 1.04404 -0.258372)
(-0.124677 0.965571 -0.264639)
(-0.133282 1.00065 -0.268996)
(-0.112988 0.985045 -0.223995)
(-0.115976 0.87537 -0.229608)
(-0.118019 1.01936 -0.229846)
(-0.110115 0.841088 -0.258974)
(-0.118234 0.814373 -0.265251)
(-0.104915 0.750997 -0.267939)
(-0.232812 0.855638 -0.360972)
(-0.228593 0.806631 -0.346247)
(-0.219299 0.906434 -0.365194)
(-0.215933 0.90227 -0.358567)
(-0.249558 0.837767 -0.365543)
(-0.230734 0.908103 -0.362634)
(-0.220942 1.07037 -0.443065)
(-0.253892 1.04018 -0.435391)
(-0.211268 1.0076 -0.394279)
(-0.214743 0.993089 -0.386856)
(-0.259161 0.898423 -0.412573)
(-0.257472 0.843385 -0.374653)
(-0.244411 1.00617 -0.425197)
(-0.24625 0.989872 -0.438703)
(-0.224704 1.0349 -0.417247)
(-0.229265 1.02578 -0.400623)
(0.00192422 0.773557 -0.0851398)
(0.0109468 0.747079 -0.0927705)
(0.0269584 0.726935 -0.116707)
(-0.000123498 0.772596 -0.093649)
(0.000186895 0.682094 -0.0845652)
(0.00459683 0.722353 -0.0981657)
(0.0475194 0.569812 -0.104712)
(0.0277784 0.489357 -0.0844557)
(-0.00226585 0.490146 -0.0676403)
(0.0174676 0.450789 -0.0746007)
(0.00314371 0.639298 -0.065195)
(0.00226534 0.662056 -0.0727834)
(0.0210668 0.559858 -0.080708)
(0.0396981 0.603928 -0.101787)
(0.0377631 0.555214 -0.091332)
(0.00902193 0.490144 -0.0679237)
(-0.000363338 0.513145 -0.0725385)
(0.0328935 0.597135 -0.0646349)
(0.0234475 0.553135 -0.0630233)
(-0.00431075 0.60564 -0.0667926)
(-0.115288 0.987684 -0.215387)
(-0.11728 0.9627 -0.229383)
(-0.121167 0.873017 -0.219575)
(-0.120314 0.881217 -0.228307)
(-0.0924831 0.986604 -0.232918)
(-0.112755 1.03048 -0.232334)
(-0.113553 0.951295 -0.241864)
(-0.124024 0.995412 -0.242429)
(-0.0837026 0.880008 -0.194015)
(-0.0796604 0.817197 -0.177965)
(-0.104076 0.776396 -0.20213)
(-0.0816135 0.797797 -0.18419)
(-0.103946 0.803749 -0.196856)
(-0.0977732 0.743865 -0.194517)
(-0.102362 0.84808 -0.204555)
(-0.103636 0.881043 -0.205438)
(-0.0801145 0.816459 -0.185235)
(-0.0850314 0.737008 -0.184834)
(-0.0856329 0.500084 -0.151275)
(-0.0874398 0.469737 -0.149397)
(-0.0666267 0.523252 -0.160114)
(-0.0748924 0.533521 -0.155823)
(-0.0826963 0.648292 -0.161065)
(-0.0809093 0.634172 -0.170951)
(-0.0948078 0.501853 -0.148791)
(-0.0776854 0.528725 -0.147515)
(-0.114765 0.443308 -0.141784)
(-0.113888 0.412713 -0.13831)
(-0.0986945 0.585433 -0.162063)
(-0.120935 0.452782 -0.13293)
(-0.111932 0.427934 -0.128584)
(-0.118933 0.470247 -0.132227)
(-0.0966315 0.602423 -0.151664)
(-0.104347 0.574628 -0.151636)
(-0.105709 0.479134 -0.131766)
(-0.0924787 0.452096 -0.131091)
(-0.0757809 0.916396 -0.302614)
(-0.0478022 0.925413 -0.290801)
(-0.0529149 0.860644 -0.323245)
(-0.0516632 0.950608 -0.270986)
(-0.0830269 1.0433 -0.249959)
(-0.0720424 1.04021 -0.233325)
(-0.0865571 0.934577 -0.313398)
(-0.0779059 0.903064 -0.323618)
(-0.0611199 0.91091 -0.303635)
(-0.0364817 0.919573 -0.273796)
(-0.0654146 1.00597 -0.261635)
(-0.173964 0.802012 -0.283593)
(-0.164437 0.731789 -0.267462)
(-0.137627 0.810702 -0.259808)
(-0.136749 0.763956 -0.244033)
(-0.159291 0.916141 -0.298237)
(-0.150094 0.927498 -0.286263)
(-0.143034 0.928613 -0.274986)
(-0.141054 0.763326 -0.249713)
(-0.140975 0.72267 -0.241912)
(-0.154862 0.797996 -0.275625)
(-0.160656 0.7369 -0.258486)
(-0.154424 0.679345 -0.251609)
(-0.155107 0.818506 -0.2637)
(-0.371513 0.811781 -0.664129)
(-0.36152 0.763708 -0.647916)
(-0.322837 0.89319 -0.649381)
(-0.322955 0.901353 -0.633334)
(-0.344895 0.847308 -0.624689)
(-0.341157 0.736427 -0.630999)
(-0.372377 0.805973 -0.663938)
(-0.388588 0.900114 -0.663205)
(-0.334055 0.88319 -0.644934)
(-0.366378 0.922061 -0.676441)
(-0.340606 0.76209 -0.647715)
(-0.367858 0.879634 -0.66039)
(-0.0708726 0.954647 -0.297595)
(-0.049405 0.893178 -0.311057)
(-0.0819925 0.896595 -0.336528)
(-0.0933517 0.978314 -0.326096)
(-0.0939253 0.809433 -0.364455)
(-0.0584057 0.691722 -0.342348)
(-0.0315693 0.710399 -0.351717)
(-0.0557286 0.723325 -0.346365)
(-0.0461463 0.697508 -0.340246)
(-0.0591939 0.892223 -0.327858)
(-0.0804303 0.796056 -0.367136)
(-0.0710014 0.751635 -0.360941)
(-0.0824582 0.823955 -0.350187)
(-0.034206 0.753838 -0.354461)
(-0.0466731 0.721457 -0.351792)
(-0.358854 0.91615 -0.632807)
(-0.349662 0.792392 -0.627719)
(-0.369652 0.814692 -0.676462)
(-0.382936 0.678684 -0.654276)
(-0.366476 0.793601 -0.626097)
(-0.381377 0.673448 -0.606975)
(-0.193527 0.78185 -0.296302)
(-0.169039 0.722133 -0.276688)
(-0.153569 0.690803 -0.260314)
(-0.174996 0.681033 -0.270986)
(-0.164178 0.612228 -0.247176)
(-0.133053 0.711387 -0.252684)
(-0.149089 0.662269 -0.25026)
(-0.145691 0.711334 -0.255432)
(-0.155751 0.648602 -0.257997)
(-0.167583 0.692623 -0.266789)
(-0.16491 0.768505 -0.291289)
(-0.17308 0.857685 -0.317435)
(-0.16313 0.877369 -0.302005)
(-0.155328 0.861338 -0.299331)
(-0.134217 0.739134 -0.271104)
(-0.12301 0.75969 -0.259661)
(-0.171365 0.756048 -0.293736)
(-0.168865 0.937289 -0.314964)
(-0.158139 0.99305 -0.322609)
(-0.135559 0.876588 -0.293793)
(-0.204615 0.675897 -0.331338)
(-0.217762 0.712599 -0.355753)
(-0.199099 0.960155 -0.400567)
(-0.190977 0.899423 -0.402259)
(-0.202577 0.908376 -0.36596)
(-0.222137 0.8669 -0.375984)
(-0.218444 0.658052 -0.348892)
(-0.203076 0.621428 -0.338677)
(-0.203491 0.7213 -0.342481)
(-0.203116 0.65162 -0.354594)
(-0.200605 0.672208 -0.348142)
(-0.214187 0.698329 -0.37906)
(-0.214852 0.627416 -0.373537)
(-0.20306 0.901693 -0.398566)
(-0.217938 0.861059 -0.407316)
(-0.208499 0.872954 -0.379635)
(-0.191925 0.864923 -0.38318)
(-0.222018 0.841087 -0.38939)
(-0.219758 0.727538 -0.405507)
(-0.210299 0.672955 -0.387542)
(-0.200064 0.758393 -0.360547)
(-0.215081 0.681891 -0.372987)
(-0.337211 0.409883 -0.21328)
(-0.318136 0.361526 -0.186517)
(-0.282412 0.423146 -0.199602)
(-0.28886 0.366882 -0.17615)
(-0.296043 0.364591 -0.17784)
(-0.304822 0.419161 -0.203134)
(-0.2917 0.396946 -0.186611)
(-0.246781 0.516502 -0.218955)
(-0.281635 0.532402 -0.237337)
(-0.267801 0.461631 -0.206255)
(-0.269397 0.430057 -0.190747)
(-0.24618 0.519975 -0.222871)
(-0.270123 0.53063 -0.226926)
(-0.273951 0.441862 -0.189976)
(-0.26091 0.648273 -0.30315)
(-0.224134 0.634216 -0.296283)
(-0.235571 0.640426 -0.287071)
(-0.234704 0.783118 -0.347408)
(-0.262599 0.857481 -0.394095)
(-0.264309 0.769281 -0.355462)
(-0.235444 0.672563 -0.30472)
(-0.212415 0.68889 -0.297137)
(-0.212971 0.857747 -0.366)
(-0.255902 0.915752 -0.404927)
(-0.265755 0.825299 -0.373305)
(-0.229402 0.907606 -0.385256)
(-0.242244 0.803701 -0.356289)
(-0.220836 0.844045 -0.359781)
(-0.313961 0.912062 -0.487187)
(-0.321547 0.948498 -0.512231)
(-0.296272 0.953196 -0.474135)
(-0.288331 0.929615 -0.460132)
(-0.314642 0.894891 -0.465928)
(-0.278674 0.953976 -0.474033)
(-0.275922 0.945091 -0.463325)
(-0.266683 0.961778 -0.449016)
(-0.289136 0.944371 -0.463775)
(-0.292575 1.00993 -0.492095)
(-0.243714 1.09673 -0.503293)
(-0.273777 1.00955 -0.500316)
(-0.286838 0.999159 -0.481329)
(-0.264077 0.927231 -0.458812)
(-0.221578 1.11294 -0.466556)
(-0.25564 1.08862 -0.48676)
(-0.274222 1.1106 -0.504345)
(-0.242211 1.08396 -0.485889)
(-0.257407 1.02136 -0.467881)
(-0.256254 1.06721 -0.470064)