/*--------------------------------*- C++ -*----------------------------------*\
| =========                 |                                                 |
| \\      /  F ield         | OpenFOAM: The Open Source CFD Toolbox           |
|  \\    /   O peration     | Version:  v1612+                                |
|   \\  /    A nd           | Web:      www.OpenFOAM.com                      |
|    \\/     M anipulation  |                                                 |
\*---------------------------------------------------------------------------*/
FoamFile
{
    version     2.0;
    format      ascii;
    class       volVectorField;
    location    "50";
    object      wallShearStress;
}
// * * * * * * * * * * * * * * * * * * * * * * * * * * * * * * * * * * * * * //

dimensions      [0 2 -2 0 0 0 0];

internalField   uniform (0 0 0);

boundaryField
{
    WALL
    {
        type            calculated;
        value           nonuniform List<vector> 
1692
(
(0.000648174 -0.00808083 0.0135192)
(0.000139643 -0.00830972 0.0113507)
(-0.000516695 -0.0116212 0.00498498)
(-0.00122105 -0.0126824 0.00546162)
(0.00262678 -0.00724954 0.00607549)
(0.0016648 -0.00677171 0.00850224)
(0.00469217 0.00174227 0.0183024)
(0.0170338 0.00737789 0.0206169)
(0.0202062 0.00441415 0.0200918)
(0.00566808 -0.00887767 0.00434496)
(0.00573988 -0.0104481 0.00505169)
(0.00412384 -0.00859348 0.00536428)
(0.0049449 -0.00749422 0.00442103)
(0.0108888 -0.0109261 0.0120338)
(0.0120726 -0.0106961 0.0120972)
(0.00634188 -0.0140539 0.0164217)
(0.00585881 -0.0151552 0.0183299)
(0.00125514 -0.0127212 0.0133619)
(0.00109101 -0.0136848 0.0123001)
(0.00126444 -0.0143086 0.00842508)
(0.000942133 -0.0151235 0.00819515)
(0.00427328 -0.0107253 0.00401324)
(0.00299988 -0.010303 0.00401299)
(0.00312401 -0.0123732 0.00468711)
(0.0021473 -0.0124733 0.00455032)
(0.00265818 -0.0128848 0.0104472)
(0.00179427 -0.0134395 0.010239)
(-0.00256785 -0.0058677 0.0107049)
(-0.00337666 -0.00734432 0.0103531)
(-0.00286704 -0.00881326 0.0100464)
(-0.00353092 -0.010156 0.0094676)
(0.00520807 -0.0125678 0.00686576)
(0.00719359 -0.0134719 0.00737012)
(0.0170687 -3.63522e-05 0.01436)
(0.0175837 -0.000586655 0.0114614)
(0.000864971 -0.00620145 0.0123642)
(0.00233728 -0.00578674 0.0101342)
(-0.00146829 -0.0136075 0.0062534)
(0.00676707 -0.0106517 0.00451173)
(0.00559756 -0.0097318 0.00381727)
(0.00572357 -0.0104348 0.0044657)
(0.00911094 -0.010775 0.00485206)
(0.00971468 -0.00982612 0.00453282)
(0.00683342 -0.0103195 0.004381)
(0.00807119 -0.00997843 0.00421368)
(0.00777003 -0.0102282 0.00438622)
(-0.00175784 -0.0146435 0.00809847)
(-0.0019159 -0.0162445 0.0108511)
(-0.00114507 -0.0160967 0.0084285)
(-0.00191648 -0.0157892 0.00951333)
(-0.00130435 -0.0147062 0.00733821)
(-0.00118557 -0.0154558 0.00933411)
(0.00595367 -0.00856176 0.00608383)
(0.006247 -0.00816102 0.00549804)
(0.00329555 -0.0075659 0.00748389)
(0.00436685 -0.00743861 0.0059941)
(0.00364116 -0.00764746 0.00687682)
(0.00468724 -0.00749803 0.00525358)
(0.0103168 -0.00471781 0.0183769)
(0.0110632 -0.00151903 0.0183219)
(0.0120402 -0.00251928 0.0172518)
(0.0100921 -0.00283743 0.0194147)
(0.00904454 -0.00407812 0.0190149)
(0.0111354 -0.00340906 0.016822)
(0.00299219 -0.00597108 0.00929037)
(0.00171974 -0.013277 0.004154)
(0.00333122 -0.0127696 0.00393948)
(0.00343027 -0.0124795 0.00381038)
(0.00258238 -0.0128731 0.00375045)
(0.00156079 -0.0140864 0.00484425)
(0.00228629 -0.0134216 0.00456779)
(-0.00298156 -0.00586102 0.0106652)
(-0.00291816 -0.00727654 0.00874073)
(-0.00302956 -0.00551475 0.0108041)
(-0.00318894 -0.00621782 0.00922187)
(-0.00319844 -0.00580133 0.0101013)
(-0.00316897 -0.00690943 0.00930602)
(0.00422993 -0.00924573 0.0111331)
(-0.00337354 -0.0108992 0.00914399)
(-0.00349013 -0.010621 0.00792553)
(-0.00359986 -0.0107699 0.00814956)
(-0.00342683 -0.0100541 0.00871393)
(-0.00341292 -0.0115542 0.00782347)
(-0.000847179 -0.00672075 0.0130336)
(-0.0017287 -0.00663763 0.0124238)
(-0.000217858 -0.00585164 0.0130716)
(-0.000617017 -0.00593003 0.0127077)
(-0.00174829 -0.00738595 0.0119103)
(-0.00168646 -0.00635532 0.0125074)
(0.00724268 -0.0175164 0.00922288)
(0.00718828 -0.0170069 0.00842548)
(0.00747437 -0.0167765 0.00969979)
(0.00767921 -0.016172 0.00991846)
(0.00726223 -0.0154778 0.00888454)
(0.00679636 -0.0179618 0.008417)
(0.0054511 -0.0176371 0.00688258)
(0.00487817 -0.0176177 0.00604777)
(0.00477863 -0.0182546 0.00627073)
(0.00432177 -0.0183059 0.00604581)
(0.00579869 -0.017305 0.00728412)
(0.00557463 -0.0185378 0.00720698)
(0.00727744 -0.017658 0.00991986)
(0.00679435 -0.0187602 0.0102968)
(0.00586924 -0.0185086 0.00835861)
(0.00608247 -0.0180455 0.0089198)
(0.0067592 -0.0181589 0.0102785)
(0.00704197 -0.0175555 0.00937421)
(0.00726832 -0.0177452 0.01129)
(0.00780253 -0.0163137 0.0129776)
(0.00689094 -0.0184573 0.0131733)
(0.00692673 -0.0176589 0.0119318)
(0.00732134 -0.0179978 0.0135213)
(0.00773479 -0.0162954 0.0118819)
(0.00324248 -0.00890319 0.0180688)
(0.00416492 -0.00700528 0.0211567)
(0.00346485 -0.00595702 0.0197133)
(0.00226304 -0.00686758 0.0186302)
(0.00293305 -0.00659492 0.0159568)
(0.00327588 -0.00666697 0.0185944)
(0.00188348 -0.00930433 0.0155568)
(0.00179168 -0.0108277 0.0120823)
(0.00188924 -0.0102492 0.0137927)
(0.00218817 -0.0103695 0.0147508)
(0.00189318 -0.0109797 0.0127115)
(0.002017 -0.0111734 0.0141828)
(0.00257879 -0.0070227 0.00248675)
(0.00271938 -0.00764303 0.00237954)
(0.00271443 -0.00687047 0.00272628)
(0.0030288 -0.00736624 0.00265936)
(0.00296783 -0.00679297 0.00285358)
(0.00273584 -0.00747609 0.00239269)
(0.00291234 -0.00636466 0.00341931)
(0.00360109 -0.00589944 0.00412669)
(0.00301255 -0.00611312 0.00394154)
(0.00348027 -0.0057447 0.00462736)
(0.00364436 -0.00532871 0.00460241)
(0.00318661 -0.00595501 0.00346579)
(0.00311895 -0.0121453 0.00904335)
(0.00185399 -0.0124774 0.0124604)
(0.0026909 -0.0139098 0.00965113)
(0.00377067 -0.0131008 0.00836691)
(0.00234332 -0.0118123 0.0100956)
(0.00294674 -0.0134791 0.00891814)
(0.00554154 -0.0112442 0.011346)
(0.00585917 -0.0128079 0.00997509)
(0.00692298 -0.0114802 0.010288)
(0.00723568 -0.0122764 0.00961208)
(0.00706456 -0.0135646 0.00993842)
(0.00506478 -0.0123235 0.0116054)
(0.00857735 -0.0112951 0.00536808)
(0.00962282 -0.0112467 0.00549108)
(0.00728763 -0.012483 0.00601011)
(0.00859512 -0.0126976 0.00614355)
(0.00938444 -0.0120564 0.00595263)
(0.00763924 -0.0114622 0.00526454)
(0.0118705 -0.00875072 0.00585937)
(0.0109528 -0.00935662 0.00595597)
(0.0118983 -0.0102382 0.00634109)
(0.0103985 -0.0101856 0.00561602)
(0.0101557 -0.0103668 0.00533235)
(0.0108027 -0.00989038 0.00535648)
(0.0126144 -0.0108536 0.00680278)
(0.0110218 -0.01124 0.00620828)
(0.0132263 -0.0119508 0.00721028)
(0.01293 -0.0101076 0.00640805)
(0.0111339 -0.0111643 0.00622496)
(0.0040191 -0.0133566 0.00552285)
(0.00356169 -0.0135856 0.00566003)
(0.0051633 -0.012752 0.00477297)
(0.00464628 -0.0133868 0.00536379)
(0.00457136 -0.0132425 0.00484326)
(0.00371736 -0.0137359 0.00540831)
(0.00699034 -0.0124104 0.00450003)
(0.0089216 -0.0121402 0.00541799)
(0.0074899 -0.0131161 0.00581596)
(0.00899757 -0.0126689 0.00542797)
(0.00803348 -0.0125413 0.00482556)
(0.00675357 -0.0138065 0.00544973)
(0.00381475 -0.00732157 0.00298312)
(0.00405009 -0.00735449 0.00339953)
(0.00402958 -0.00815611 0.0031127)
(0.00439303 -0.00718659 0.0035086)
(0.00426856 -0.00753301 0.00326801)
(0.00365558 -0.00851881 0.00294282)
(0.00696926 -0.00888116 0.00457999)
(0.00727434 -0.00861119 0.00450692)
(0.00639927 -0.00960742 0.00421314)
(0.00629365 -0.0091601 0.00396862)
(0.00742412 -0.00847691 0.00477987)
(0.00593329 -0.00970102 0.00385721)
(0.00406777 -0.00559708 0.0119656)
(0.00501889 -0.00532262 0.00932456)
(0.0043272 -0.00635058 0.0115573)
(0.00510021 -0.00528512 0.0108035)
(0.00492175 -0.0057259 0.00960944)
(0.00418955 -0.00549865 0.0104055)
(0.00382447 -0.00655728 0.0125008)
(0.00334031 -0.00610879 0.0126104)
(0.00414095 -0.00590025 0.0123138)
(0.0151932 0.00460465 0.0211791)
(0.0180647 0.00759561 0.0225037)
(0.0199697 0.00392319 0.0210526)
(0.0231975 0.000735521 0.0144898)
(0.0228383 -0.000754734 0.0136172)
(0.0224748 -0.000714073 0.0132872)
(0.0215228 -0.00249862 0.0113587)
(0.0219697 -0.00366127 0.0105622)
(0.0242189 -0.0027662 0.0125752)
(-0.0028438 -0.00790342 0.00736379)
(-0.00276452 -0.00915888 0.00689896)
(-0.00194397 -0.00970786 0.00629106)
(-0.00233844 -0.00936621 0.00673028)
(-0.0032462 -0.00798388 0.00836861)
(-0.00307512 -0.00867959 0.00805826)
(0.0120643 -0.00461302 0.00189271)
(0.0109009 -0.00530831 0.0021657)
(0.0119978 -0.00594982 0.00384334)
(0.0110835 -0.00642721 0.00380993)
(0.0126209 -0.00537374 0.00413409)
(0.0121938 -0.0051629 0.00377463)
(0.0111142 -0.00635386 0.00368457)
(0.0135944 -0.00128844 0.0179405)
(0.0133769 0.000407131 0.0173274)
(0.0148282 -0.00169199 0.0159004)
(0.0135656 -0.00102935 0.0163031)
(0.0139081 0.000499481 0.0162311)
(0.0148012 -0.000402915 0.0152111)
(0.00633096 -0.011833 0.00494922)
(0.00386761 -0.0117957 0.00428221)
(0.00440146 -0.0125262 0.00467454)
(0.00538156 -0.0107445 0.00406858)
(0.00514794 -0.0121261 0.00476423)
(0.00649156 -0.012119 0.00482937)
(0.0125755 -0.00950614 0.0107255)
(0.0124608 -0.0104615 0.0112102)
(0.0123019 -0.00986103 0.00868056)
(0.0121153 -0.0109651 0.00916307)
(0.0119622 -0.0108133 0.00977752)
(0.0124573 -0.00859996 0.00944775)
(0.0100472 -0.0123932 0.00801471)
(0.010335 -0.0115187 0.00801222)
(0.00888701 -0.0120975 0.00631966)
(0.00938095 -0.0130662 0.00712014)
(0.00994811 -0.01127 0.00735973)
(0.00829854 -0.0124533 0.00631054)
(0.0166167 -0.000970999 0.0138137)
(0.0165652 -0.00133944 0.0121531)
(0.0151168 -0.00266443 0.0111927)
(0.0154963 -0.00242906 0.010343)
(0.015033 -0.00197666 0.0130245)
(0.0161879 -0.00130563 0.0102547)
(0.0142727 -0.00586276 0.0144599)
(0.0139488 -0.00619117 0.011143)
(0.0129849 -0.00663221 0.0135973)
(0.013178 -0.00731115 0.0119908)
(0.0145088 -0.00642552 0.01329)
(0.013259 -0.00691668 0.0108356)
(0.0137357 -0.00223491 0.0151736)
(0.0150565 -0.00321838 0.013124)
(0.0131576 -0.00341438 0.0152789)
(0.0152909 -0.00412418 0.0141013)
(0.0144911 -0.00242948 0.0142149)
(0.0141452 -0.00507073 0.0148946)
(-0.00252298 -0.0166238 0.0113795)
(-0.00135814 -0.0173141 0.0129753)
(-0.0011157 -0.0175554 0.01393)
(-0.00215582 -0.016736 0.0123112)
(0.00207461 -0.0149232 0.00743429)
(0.000887195 -0.0142616 0.00945582)
(0.00159361 -0.0145303 0.00752641)
(0.00242017 -0.0136901 0.00592573)
(0.00194854 -0.0140409 0.00643651)
(0.00203672 -0.0143688 0.00773401)
(0.00078278 -0.013835 0.0114482)
(0.00155976 -0.0148143 0.0110186)
(0.000931494 -0.0136278 0.0127696)
(0.000853551 -0.014143 0.0104018)
(0.00108897 -0.0134637 0.00982463)
(0.00469852 -0.0112281 0.00355021)
(0.00595323 -0.0102789 0.00377358)
(0.00591044 -0.010472 0.00364949)
(0.00456478 -0.0119205 0.00359638)
(0.00539399 -0.0106699 0.00359646)
(0.00533443 -0.0115584 0.00378314)
(0.00071133 -0.0127519 0.00423708)
(0.000888685 -0.0119407 0.00352738)
(0.00150794 -0.011837 0.00323805)
(0.00118838 -0.0124871 0.00397066)
(0.00173464 -0.0118495 0.00353253)
(0.00206706 -0.0114675 0.00326582)
(-0.000926614 -0.0119219 0.00327688)
(-0.000377921 -0.0114427 0.0028756)
(-0.00136797 -0.0121286 0.00350909)
(0.000103956 -0.010619 0.00245669)
(0.00339831 -0.00695416 0.00308704)
(0.00355648 -0.00679903 0.00311833)
(0.0039245 -0.00627891 0.00377455)
(0.00353748 -0.0063112 0.00323686)
(0.00418352 -0.00619106 0.00392232)
(0.00403549 -0.00657644 0.00362667)
(0.00206934 -0.0108057 0.00289787)
(0.0033117 -0.00934001 0.00287641)
(0.00274781 -0.0103766 0.00294445)
(0.00308982 -0.0100225 0.00276062)
(0.00227814 -0.0104349 0.00278399)
(0.00329575 -0.00919954 0.00273311)
(0.00446227 -0.0176346 0.00558498)
(0.00494088 -0.0180379 0.0063541)
(0.00503373 -0.0183499 0.00677011)
(0.00330009 -0.0187966 0.00497641)
(0.00223435 -0.0177619 0.00513933)
(0.00125057 -0.018003 0.00513666)
(0.00324021 -0.0176676 0.00531334)
(0.00215868 -0.0175983 0.0050767)
(0.00132462 -0.0177256 0.00508477)
(0.00151762 -0.0153353 0.00434256)
(-0.00310223 -0.00990824 0.0107408)
(-0.00242972 -0.00914327 0.0114949)
(-0.00219997 -0.00868025 0.0121608)
(-0.00328259 -0.00994925 0.0114226)
(-0.00261292 -0.00929407 0.0121034)
(-0.00339161 -0.0102728 0.0109243)
(-0.0032404 -0.0133578 0.0063082)
(-0.00353284 -0.0122044 0.00678483)
(-0.00387161 -0.013489 0.00743811)
(-0.00341003 -0.0139958 0.00656991)
(-0.00375907 -0.0125482 0.0073581)
(-0.00276191 -0.0141174 0.00610139)
(-0.00299462 -0.0150938 0.00579083)
(-0.00241721 -0.015006 0.00483312)
(-0.0031803 -0.0153587 0.00568362)
(-0.0016037 -0.016197 0.00514008)
(-0.00140862 -0.0172517 0.00536857)
(-0.0022347 -0.015413 0.00550241)
(-0.00151761 -0.00851409 0.012901)
(-0.0010272 -0.00808585 0.0134834)
(-2.81242e-05 -0.00709693 0.0136591)
(9.98332e-05 -0.00718435 0.0129509)
(-0.000573354 -0.00714621 0.0129549)
(-0.00168333 -0.00861777 0.0129163)
(0.00385771 -0.00582393 0.00889867)
(0.00365204 -0.00527414 0.00729737)
(0.00449815 -0.00563828 0.00801178)
(0.00396309 -0.0055861 0.00655103)
(0.00416542 -0.00531919 0.00662759)
(0.00406475 -0.00511267 0.00893233)
(0.00292774 -0.00589538 0.011152)
(0.00185534 -0.00543697 0.0116077)
(0.00325046 -0.00523455 0.0114535)
(-0.000299294 -0.0144756 0.00526501)
(0.00197529 -0.0152734 0.0051807)
(0.000984983 -0.0136973 0.0043827)
(0.00123405 -0.0140522 0.00486704)
(-0.000551058 -0.0141389 0.00526659)
(0.00200245 -0.0151144 0.00502499)
(0.000680235 -0.0159681 0.013701)
(0.000898234 -0.0161944 0.0132507)
(-9.44608e-05 -0.0160156 0.013315)
(0.0013883 -0.0152929 0.0145316)
(0.00140644 -0.0158279 0.0153878)
(0.000254583 -0.0162724 0.0121845)
(0.00256308 -0.0187117 0.015468)
(0.00159524 -0.0178054 0.0149777)
(0.00162429 -0.0181974 0.0145016)
(0.000911489 -0.0193571 0.0147838)
(0.000836434 -0.0180506 0.0148054)
(0.00240642 -0.0174853 0.0145351)
(0.0021879 -0.0171102 0.0154884)
(0.00405366 -0.0153588 0.0159719)
(0.00173434 -0.0157076 0.014895)
(0.00301094 -0.0157679 0.0151592)
(0.00406439 -0.0165354 0.0166492)
(0.0028543 -0.0161188 0.0168088)
(0.00579048 -0.0137079 0.017663)
(0.00680512 -0.0119213 0.0178776)
(0.0066186 -0.0134449 0.0173381)
(0.00320411 -0.0138658 0.016132)
(0.00736881 -0.0135548 0.0171248)
(0.0072649 -0.0122378 0.0173473)
(0.00579609 -0.00979769 0.0192014)
(0.00704237 -0.00847078 0.0172713)
(0.00876073 -0.00759229 0.019662)
(0.00762517 -0.00577366 0.0193521)
(0.00589597 -0.00668826 0.0173434)
(0.00613719 -0.00924647 0.0196147)
(0.00845191 -0.0156962 0.0118934)
(0.00857784 -0.016658 0.0112888)
(0.00863534 -0.0157848 0.0118175)
(0.00965652 -0.0154671 0.0139402)
(0.00849604 -0.0159844 0.013451)
(0.00826426 -0.0168993 0.0133941)
(0.00864899 -0.0157413 0.0104676)
(0.00598097 -0.0148497 0.00605929)
(0.00558794 -0.0142503 0.00533253)
(0.00686482 -0.0150746 0.00637005)
(0.00653148 -0.015623 0.0066891)
(0.00448538 -0.0153289 0.00554586)
(0.00451034 -0.0158323 0.00551283)
(0.0107625 -0.00603474 0.0166184)
(0.0120884 -0.00505652 0.0168532)
(0.0114801 -0.00749763 0.0191317)
(0.0117948 -0.00920636 0.0186065)
(0.0130938 -0.00679802 0.0168752)
(0.011789 -0.00794491 0.0162376)
(0.00726796 -0.0105923 0.0178366)
(0.00880776 -0.0109163 0.0168532)
(0.0098387 -0.00943746 0.0187857)
(0.00748902 -0.012 0.0186368)
(0.00805848 -0.0102263 0.0175843)
(0.00901014 -0.0107533 0.0195843)
(0.00160709 -0.00583813 0.0155284)
(0.000839649 -0.00583175 0.0137539)
(0.00146819 -0.00436223 0.0148441)
(0.0016441 -0.00374593 0.0165409)
(0.000712372 -0.00576974 0.0148858)
(0.000850648 -0.00652749 0.0136729)
(0.00413881 -2.80737e-05 0.0176775)
(0.00460761 -0.0008043 0.0182125)
(0.00579373 0.000513092 0.0176761)
(0.00580792 0.000572864 0.0188098)
(0.00281499 -0.00113588 0.0166072)
(0.00326343 -0.00142681 0.0178493)
(0.00067932 -0.00823328 0.012479)
(0.000310159 -0.00812472 0.0135875)
(0.00114777 -0.00991654 0.0110292)
(0.00102413 -0.00972302 0.0117053)
(0.00152153 -0.00967163 0.00868799)
(0.00234948 -0.0107586 0.00857911)
(0.00157924 -0.00998981 0.00901185)
(0.00126356 -0.00944464 0.00983723)
(0.000259814 -0.00582839 0.0101026)
(0.000699536 -0.00759553 0.0112381)
(0.000639384 -0.00814118 0.010269)
(0.00098869 -0.00775867 0.00901886)
(0.000913191 -0.00746158 0.00950501)
(0.000315925 -0.00621462 0.0110979)
(0.00257487 -0.00856385 0.0069089)
(0.00316671 -0.00857561 0.00585552)
(0.00557988 -0.00887449 0.00459431)
(0.00359456 -0.00826834 0.00583565)
(0.00146425 -0.00704956 0.00804)
(0.00193638 -0.00777894 0.00737529)
(-0.00253763 -0.00442024 0.013102)
(-0.0018843 -0.00503624 0.0123153)
(-0.00221738 -0.00408556 0.0131665)
(-0.00222197 -0.00548049 0.0112801)
(-0.00253335 -0.00575508 0.011878)
(-0.00210366 -0.00639553 0.0105403)
(-0.00141798 -0.00724376 0.00823291)
(-0.000184761 -0.00849982 0.00790891)
(-0.00100189 -0.00759539 0.00877007)
(3.99166e-05 -0.00846969 0.00660456)
(0.000148075 -0.00858146 0.00631538)
(-0.000662152 -0.00848874 0.00725896)
(0.00640159 0.00171162 0.0195781)
(0.00472318 0.00156871 0.0184684)
(0.00445106 0.0008975 0.0189013)
(0.00771899 0.00327593 0.0197958)
(0.00572039 0.00177809 0.0200028)
(0.00759152 0.00272987 0.021435)
(0.0109855 -0.0044797 0.0107457)
(0.0117299 -0.00187854 0.013343)
(0.0119059 -0.00174669 0.0122724)
(0.0103772 -0.00319378 0.0121599)
(0.0109036 -0.00406003 0.0114597)
(0.0112161 -0.00325256 0.0107862)
(0.00772418 -0.00467003 0.0111413)
(0.00829754 -0.0050723 0.0106726)
(0.00796622 -0.00324356 0.0129201)
(0.00793171 -0.00444565 0.0127991)
(0.00841039 -0.00365503 0.0117297)
(0.00851966 -0.00444745 0.010786)
(-0.00190307 -0.00555341 0.0117404)
(-0.0004229 -0.00489838 0.0138778)
(-0.000645964 -0.00520655 0.0131003)
(-0.0019638 -0.00441414 0.0123946)
(-0.000779417 -0.00473341 0.01324)
(-0.00168956 -0.00530855 0.0119025)
(0.00248082 -0.00500974 0.012949)
(0.00384461 -0.0057224 0.0133368)
(0.00170656 -0.00380347 0.0142415)
(0.00123563 -0.00545338 0.014129)
(0.00368904 -0.00478671 0.0124108)
(0.00165201 -0.00486935 0.0131021)
(0.00328774 -0.00409263 0.0144531)
(0.00415052 0.000385462 0.0195804)
(0.00758437 0.00163518 0.0193515)
(0.0074733 0.00125802 0.0202407)
(0.00527506 0.00111885 0.0194176)
(0.00192544 -0.00985985 0.00455707)
(0.00196929 -0.0100087 0.00461178)
(1.13465e-05 -0.00885973 0.00575572)
(6.2075e-06 -0.00917837 0.005678)
(0.000755159 -0.00996591 0.00512811)
(0.000907496 -0.00929513 0.00527268)
(0.0215674 -0.00363741 0.0118918)
(0.0197272 -0.00302617 0.0107005)
(0.0196318 -0.00452829 0.0100899)
(0.021736 -0.00121848 0.0140945)
(0.0218936 -0.00108888 0.0129125)
(0.0204694 -0.00128781 0.012159)
(0.0138404 -0.00464383 0.0101434)
(0.0129585 -0.00288345 0.0106019)
(0.015014 -0.00140668 0.0115932)
(0.0142914 -0.00120095 0.0129703)
(0.0149912 -0.00373768 0.0108753)
(0.0135463 -0.00249283 0.0124218)
(0.0158411 -0.00357271 0.00927385)
(0.0182723 -0.00125413 0.0117377)
(0.0179005 -0.00237151 0.0102212)
(0.0174965 0.000108742 0.0126577)
(0.016936 -0.00108737 0.0120062)
(0.0161969 -0.00258187 0.0104804)
(0.00710605 -0.000672668 0.0194338)
(0.00842857 0.00196677 0.0196543)
(0.0107509 0.00248974 0.0206806)
(0.010959 0.00127838 0.0216162)
(0.00856396 0.000986412 0.0203866)
(0.00702798 0.00118824 0.0196176)
(0.0131004 -0.00606745 0.0077373)
(0.0137199 -0.00544371 0.00861022)
(0.0123394 -0.0073854 0.0069888)
(0.0122509 -0.00814836 0.00699399)
(0.0121227 -0.00776437 0.00747753)
(0.0132038 -0.00663349 0.00853977)
(0.0108236 -0.00766963 0.00744822)
(0.0109828 -0.00700799 0.00747821)
(0.0115183 -0.00521651 0.00893421)
(0.0114233 -0.00597997 0.00805489)
(0.0105955 -0.00719159 0.00792915)
(0.0103828 -0.00626889 0.00838905)
(0.00941315 -0.00646102 0.00791479)
(0.00973429 -0.00536306 0.00951031)
(0.00928014 -0.00629288 0.00867877)
(0.00968524 -0.00666555 0.00811816)
(0.0090707 -0.00593966 0.00927156)
(0.00998418 -0.0062973 0.0090662)
(0.0081395 -0.00609673 0.00893607)
(0.00745112 -0.0057612 0.0102712)
(0.00773694 -0.0059697 0.00965035)
(0.00823208 -0.00565687 0.00975596)
(0.00795629 -0.00567754 0.0105186)
(0.00818739 -0.00629444 0.00914298)
(0.000478388 -0.00210272 0.0165274)
(0.000732873 -0.000944637 0.0164672)
(-0.00111015 -0.0026985 0.0150388)
(-0.00115458 -0.00344412 0.0141526)
(-0.000127034 -0.0019382 0.015586)
(-0.00025432 -0.00348626 0.0151342)
(0.00021491 -0.00267239 0.0146618)
(0.00115752 -0.00412355 0.0151985)
(0.000108652 -0.00314813 0.0145719)
(0.00266401 -0.00321218 0.015477)
(0.00127139 -0.00171965 0.0156646)
(0.00244279 -0.00238848 0.0162483)
(0.00733821 -0.000174521 0.0165309)
(0.00932695 -0.00152419 0.014443)
(0.00694911 9.23562e-05 0.0175587)
(0.00889114 0.000482331 0.0164364)
(0.00963342 0.000454084 0.0147333)
(0.00791712 -0.00100285 0.0148301)
(0.00514867 -0.0193845 0.0125194)
(0.00626441 -0.0177938 0.0116749)
(0.00584728 -0.0186279 0.0128615)
(0.00545947 -0.0184252 0.0137315)
(0.00616447 -0.0186094 0.0113289)
(0.00569795 -0.0189707 0.0118208)
(-0.000420898 -0.0158195 0.0109457)
(-0.000535336 -0.015428 0.010193)
(-0.00067146 -0.0155046 0.00955661)
(-0.000452729 -0.0153614 0.00852667)
(-0.000966605 -0.0155849 0.00898933)
(-0.000730332 -0.0157652 0.00978943)
(-0.000817029 -0.0151463 0.0067734)
(-0.000799163 -0.0146814 0.00720408)
(0.000523043 -0.0135386 0.00496702)
(0.000377745 -0.0145362 0.00569442)
(-4.65755e-05 -0.0137045 0.00543943)
(0.000111585 -0.014582 0.00626012)
(-0.00125563 -0.0134868 0.00577082)
(-0.000557791 -0.0122753 0.00452391)
(-0.00169403 -0.0143212 0.00721123)
(-0.00101546 -0.0139859 0.00557063)
(-0.00104127 -0.0138468 0.00544693)
(0.0138564 -0.00782674 0.0074759)
(0.0130096 -0.00845202 0.00632515)
(0.0135182 -0.00787868 0.00627204)
(0.0123425 -0.00942003 0.00592521)
(0.0144689 -0.00764663 0.00725919)
(0.0118959 -0.00940189 0.00568483)
(0.00927115 -0.00913599 0.00407195)
(0.0104292 -0.00880912 0.00498169)
(0.0105054 -0.00919795 0.00494186)
(0.0114999 -0.00893733 0.00547729)
(0.00906239 -0.00967865 0.00455969)
(0.00390789 -0.0111138 0.00631344)
(0.00496818 -0.0108793 0.00543013)
(0.00669955 -0.0109711 0.00492103)
(0.00464361 -0.0113262 0.00590241)
(0.0056135 -0.0109753 0.00494345)
(0.0061831 -0.010868 0.00498199)
(0.0125264 -0.00446834 0.00332157)
(0.0141808 -0.00291139 0.00410871)
(0.0126811 -0.00421271 0.0028328)
(0.0135328 -0.00288435 0.00260927)
(0.0146094 -0.00281411 0.00366121)
(0.0133972 -0.00438142 0.00407894)
(0.00249497 -0.0100329 0.0160564)
(0.00274052 -0.00838755 0.0174374)
(0.00337202 -0.00688845 0.0178321)
(0.00413192 -0.00801852 0.0174874)
(0.00271962 -0.0112159 0.0165119)
(0.00361456 -0.00957502 0.0168108)
(0.0128552 -0.0110325 0.00841435)
(0.013644 -0.00987306 0.00863222)
(0.00134771 -0.0125956 0.0150878)
(0.00208269 -0.0120072 0.0157064)
(0.00917057 -0.00867554 0.00529744)
(0.0100112 -0.00863393 0.0063153)
(0.0098479 -0.00738176 0.0065045)
(0.0088928 -0.00962402 0.00524014)
(0.0101891 -0.00827476 0.0065723)
(0.00979367 -0.00982417 0.00516616)
(0.00946657 -0.0100767 0.00528372)
(0.00932532 -0.00926608 0.00531372)
(0.0101194 -0.00895774 0.0060591)
(0.0102343 -0.0100578 0.00593623)
(0.0104905 -0.00848756 0.00607299)
(0.00617331 -0.0115259 0.00376184)
(0.00605083 -0.0126757 0.00421823)
(0.00667439 -0.0120758 0.00430359)
(0.00681135 -0.00557188 0.00959381)
(0.0068689 -0.00533204 0.00939873)
(0.00631284 -0.00542136 0.0103258)
(0.0151826 -0.00116341 0.00347087)
(-0.000715711 -0.0186544 0.0146089)
(-0.00116763 -0.0169752 0.0134149)
(-0.00185565 -0.0164234 0.0115762)
(-0.00205118 -0.0170247 0.0127003)
(-0.000886122 -0.0179976 0.0139527)
(-0.000872423 -0.0168928 0.0125885)
(-0.0013564 -0.0166567 0.0117283)
(-0.00140536 -0.0173857 0.0126077)
(-4.61494e-05 -0.0168049 0.0133948)
(2.6195e-05 -0.0180254 0.014307)
(-0.00170717 -0.0154852 0.00733709)
(-4.4443e-05 -0.0138317 0.00519697)
(4.47643e-06 -0.0151769 0.00726894)
(-0.00119161 -0.0155043 0.00836884)
(-0.000915799 -0.0162048 0.0118211)
(-0.00131065 -0.0160858 0.0110608)
(-0.000359449 -0.0170757 0.0130734)
(-0.000244558 -0.0163229 0.0126646)
(0.000480831 -0.00524702 0.0104751)
(0.000815495 -0.00576215 0.00997587)
(0.00549728 -0.00315597 0.0141745)
(0.00665463 -0.00356247 0.0137367)
(0.00703223 -0.00282101 0.0149904)
(0.00771325 -0.00209353 0.014155)
(0.0047696 -0.00298565 0.0149232)
(0.00351065 -0.00209143 0.0152941)
(-0.00167723 -0.00400269 0.0136932)
(-0.00089896 -0.00335427 0.0138826)
(-0.00230131 -0.00424012 0.0123637)
(-0.00133228 -0.0035517 0.0141225)
(-0.00183509 -0.00427394 0.0135039)
(-0.00191297 -0.00428193 0.0134688)
(-0.000533631 -0.0030652 0.0150433)
(0.00577596 0.00111888 0.0181963)
(-0.00139024 -0.00224856 0.0144839)
(-0.00154925 -0.00331413 0.014095)
(0.0031075 -0.000173322 0.018156)
(0.0019109 -0.000577887 0.0167425)
(0.0206711 0.005695 0.0174358)
(0.0185239 0.00280401 0.0186818)
(0.0197905 0.0025319 0.017792)
(0.0209516 0.0025219 0.0183503)
(0.0202881 0.00368058 0.018776)
(0.0182556 0.0039862 0.0202202)
(0.0140207 0.00493142 0.0214215)
(0.01776 0.00442541 0.0207643)
(0.0107106 0.00267079 0.0200472)
(0.0127282 0.00292242 0.0210408)
(0.014734 0.00420556 0.0212525)
(0.0169946 0.00366873 0.020146)
(0.0150595 0.00342077 0.0204403)
(0.012704 0.0030848 0.020042)
(0.0162087 0.00385651 0.0203946)
(0.00807975 -0.0086543 0.00507728)
(0.00846914 -0.00765152 0.00548878)
(0.00889789 -0.00761211 0.0062596)
(0.00867839 -0.0064576 0.00823152)
(0.00900546 -0.00697173 0.00697599)
(0.00755648 -0.00602094 0.00979333)
(0.00649327 -0.00600467 0.0103458)
(0.00656484 -0.00570597 0.0102906)
(0.00547411 -0.0059398 0.0107616)
(0.00586857 -0.00618923 0.0114569)
(0.00673247 -0.00573358 0.00848798)
(0.00643408 -0.0060089 0.00805078)
(0.00583128 -0.0049646 0.00848285)
(0.0056712 -0.00569645 0.00960398)
(0.00524549 -0.00527248 0.0117919)
(0.0100462 -0.00747749 0.00754357)
(0.0111575 -0.00809774 0.00697206)
(0.0113243 -0.00954835 0.00636431)
(0.0122969 -0.00809988 0.00633885)
(0.0122091 0.00270187 0.0216411)
(0.0144148 -0.00875896 0.00696527)
(0.0142201 -0.00763455 0.00679151)
(0.0150961 -0.00784504 0.00713175)
(0.0143212 -0.00637755 0.00729826)
(0.0144159 -0.0048949 0.00806668)
(0.0148737 -0.00391837 0.00974879)
(0.0133579 -0.00505948 0.00873947)
(0.0170903 -0.00595924 0.00866454)
(0.0167465 -0.00676553 0.00794201)
(0.0178021 -0.00431096 0.00971124)
(0.0184825 -0.00783068 0.00905357)
(0.0186292 -0.00609093 0.0088191)
(0.0203373 0.00154205 0.0159695)
(0.0202808 0.000778767 0.0152427)
(0.0198405 -0.000671767 0.0133201)
(0.0208755 0.000896132 0.0146449)
(0.0210734 0.0013239 0.0160463)
(0.0176632 0.00215087 0.0172723)
(0.0189546 0.00210846 0.0158809)
(0.0125369 0.00391069 0.0203962)
(0.0159996 0.00412992 0.0177395)
(0.0143248 0.00350238 0.0185628)
(0.0129752 0.00294501 0.0198538)
(0.0136456 0.0025738 0.019854)
(0.0168435 0.00153164 0.0134456)
(0.0165101 -0.000744276 0.0131655)
(0.0157143 0.00150131 0.0188438)
(0.0165531 0.00304915 0.0176646)
(0.0163435 0.00122479 0.0155013)
(0.016792 0.000160266 0.0152006)
(0.00284234 -0.00931609 0.00425048)
(0.00408441 -0.00999437 0.0038184)
(0.00329836 -0.00965773 0.00398785)
(-0.00156622 -0.00803054 0.00767127)
(-0.000716647 -0.00848596 0.00674379)
(-0.00196095 -0.00768674 0.00918825)
(-0.00270324 -0.00525729 0.0121882)
(-0.0026375 -0.00500182 0.0124284)
(-0.00294131 -0.00556922 0.0117408)
(-0.0027582 -0.00669161 0.0102451)
(-0.00303452 -0.00561184 0.0104174)
(-0.00272363 -0.00656957 0.00949491)
(-0.00247506 -0.00776711 0.00838976)
(-0.00158706 -0.00824372 0.00748559)
(-0.000925662 -0.00917596 0.00666119)
(0.0137863 0.00112696 0.0135929)
(0.0145604 0.00229092 0.0161679)
(0.0159888 0.00162403 0.0157257)
(0.0127746 0.000302384 0.0166312)
(0.0120413 0.00260403 0.0183392)
(0.0130513 0.000608721 0.0157306)
(0.01294 0.0034456 0.0170012)
(0.0112234 0.00142939 0.0177881)
(0.00951829 0.0011824 0.0189615)
(0.0109823 0.002766 0.0196458)
(0.00917148 0.00221847 0.0205247)
(0.00103904 -0.00425377 0.0147791)
(0.00424381 -0.00515427 0.0124578)
(-0.00238798 -0.00494519 0.0119044)
(-0.000392193 -0.00479131 0.0136103)
(-0.00189189 -0.00585041 0.0114783)
(0.00849828 -0.00519642 0.00971537)
(0.0124721 -0.000972826 0.013187)
(0.0118602 -0.000450824 0.0142856)
(0.0116648 -0.00104512 0.0153209)
(0.0114441 -0.00393383 0.00972684)
(0.00956802 -0.00195723 0.0129158)
(0.0100648 -0.00558746 0.00916202)
(0.00929808 -0.00497816 0.0102039)
(0.00714629 -0.003636 0.013165)
(0.00749473 -0.00527875 0.010983)
(0.00659701 -0.00536911 0.011527)
(0.00674155 -0.00612349 0.0110774)
(0.00582906 -0.0044934 0.0117055)
(0.00693116 -0.00417631 0.0113732)
(0.00643142 -0.00451252 0.0120439)
(0.00550222 -0.00499014 0.0128162)
(0.00382146 -0.00420017 0.0140959)
(0.00488866 -0.0034836 0.0132156)
(0.00536749 -0.00544453 0.0125757)
(0.0100988 0.00313012 0.0199869)
(0.00190341 -0.0089707 0.0048535)
(0.000722856 -0.00921576 0.0055507)
(-0.00212821 -0.00733552 0.00969163)
(0.00829263 -0.010296 0.00454116)
(0.00709758 -0.0104167 0.00465659)
(0.000449072 -0.00936937 0.00896636)
(0.00134672 -0.00922855 0.00700453)
(0.00244196 -0.0109538 0.00736137)
(0.0019921 -0.00940828 0.00528025)
(0.00101987 -0.00884271 0.0062587)
(0.000722008 -0.0101812 0.00973196)
(0.0038754 -0.000413384 0.0177268)
(0.0094859 0.00199762 0.0203163)
(0.00807032 0.00031318 0.0202243)
(0.00870458 0.0022194 0.0200429)
(0.00689939 0.00177238 0.0192475)
(0.000850381 -0.0053732 0.0109273)
(0.000644735 -0.00557407 0.0118839)
(0.000640531 -0.00764925 0.0124118)
(0.00537992 -0.00132127 0.0184348)
(0.00284783 -0.00301696 0.0176001)
(0.00445801 -0.000994725 0.0193026)
(0.00360049 -0.0028572 0.0183204)
(0.00542428 -0.0012174 0.0186517)
(0.00612386 -0.000886662 0.0210983)
(0.0015822 -0.00201842 0.0173725)
(0.00277713 -0.000458492 0.0186326)
(0.00428962 -0.00118239 0.0190352)
(0.000206827 -0.00864775 0.0103145)
(-0.000349736 -0.00773449 0.0109438)
(-0.000661204 -0.00803879 0.00912452)
(-0.00063779 -0.00774185 0.0105212)
(-0.00163284 -0.00675259 0.0106625)
(-0.00117203 -0.00741683 0.0114971)
(-0.0014738 -0.0046202 0.0130201)
(-0.00116614 -0.00605911 0.0127534)
(0.000799432 -0.00381454 0.0120552)
(0.00134388 -0.00576555 0.00999042)
(0.000789298 -0.00482198 0.0111769)
(0.0014989 -0.00561229 0.00990874)
(0.00896448 -0.00576959 0.00245558)
(0.00543231 -0.00553619 0.00321844)
(0.00864211 -0.00507475 0.0019801)
(0.0104741 -0.0055234 0.00269643)
(0.0109863 -0.00601037 0.00315616)