/*--------------------------------*- C++ -*----------------------------------*\
| =========                 |                                                 |
| \\      /  F ield         | OpenFOAM: The Open Source CFD Toolbox           |
|  \\    /   O peration     | Version:  v1612+                                |
|   \\  /    A nd           | Web:      www.OpenFOAM.com                      |
|    \\/     M anipulation  |                                                 |
\*---------------------------------------------------------------------------*/
FoamFile
{
    version     2.0;
    format      ascii;
    class       volVectorField;
    location    "50";
    object      U;
}
// * * * * * * * * * * * * * * * * * * * * * * * * * * * * * * * * * * * * * //

dimensions      [0 1 -1 0 0 0 0];

internalField   nonuniform List<vector> 
18976
(
(-0.269029 0.563863 -0.2375)
(-0.248105 0.508652 -0.214072)
(-0.28583 0.540615 -0.23565)
(-0.272414 0.541452 -0.244472)
(-0.427814 0.79171 -0.347967)
(-0.283964 0.643657 -0.252528)
(-0.312251 0.692842 -0.273617)
(-0.299843 0.662067 -0.25507)
(-0.263352 0.566346 -0.22467)
(-0.256959 0.553726 -0.218453)
(-0.329254 0.736492 -0.282327)
(-0.292555 0.668394 -0.260013)
(-0.309636 0.692252 -0.258206)
(-0.326465 0.726678 -0.270261)
(-0.289655 0.636326 -0.239872)
(-0.296611 0.658705 -0.25346)
(-0.306521 0.689217 -0.253026)
(-0.453758 0.883864 -0.364484)
(-0.445521 0.832173 -0.352174)
(-0.450479 0.83272 -0.35038)
(-0.36795 0.73331 -0.309429)
(-0.315829 0.641772 -0.269022)
(-0.360212 0.709573 -0.295771)
(-0.309243 0.638316 -0.261025)
(-0.36993 0.752323 -0.310585)
(-0.349328 0.705255 -0.294554)
(-0.288421 0.59292 -0.238163)
(-0.339316 0.694768 -0.282663)
(-0.408147 0.846259 -0.351256)
(-0.326583 0.648071 -0.258506)
(-0.348179 0.697938 -0.287006)
(-0.376198 0.748131 -0.307885)
(-0.389541 0.792207 -0.316913)
(-0.324225 0.662163 -0.260863)
(-0.366783 0.728494 -0.29776)
(-0.304611 0.615291 -0.248459)
(-0.403068 0.841252 -0.343873)
(-0.307694 0.628755 -0.266378)
(-0.291753 0.598281 -0.248915)
(-0.345212 0.698059 -0.287148)
(-0.372579 0.726732 -0.300063)
(-0.328356 0.667624 -0.27268)
(-0.328125 0.656933 -0.276311)
(-0.377059 0.735743 -0.304951)
(-0.361006 0.710983 -0.302686)
(-0.287831 0.564814 -0.243203)
(-0.269907 0.54613 -0.23932)
(-0.339017 0.696795 -0.280875)
(-0.269577 0.533679 -0.23459)
(-0.234921 0.474528 -0.207317)
(-0.279811 0.548772 -0.229873)
(-0.293831 0.581633 -0.242875)
(-0.266341 0.51923 -0.217087)
(-0.278862 0.544698 -0.227955)
(-0.238954 0.473952 -0.204572)
(-0.265167 0.528543 -0.229128)
(-0.24039 0.488825 -0.216481)
(-0.358946 0.725248 -0.298858)
(-0.352002 0.693977 -0.285153)
(-0.394601 0.784574 -0.325905)
(-0.458244 0.898902 -0.374402)
(-0.462176 0.912158 -0.379858)
(-0.456969 0.896223 -0.374603)
(-0.483882 0.941423 -0.391971)
(-0.330856 0.642547 -0.273989)
(-0.42109 0.832524 -0.354115)
(-0.355976 0.722737 -0.297039)
(-0.343016 0.661637 -0.281558)
(-0.411171 0.797239 -0.338053)
(-0.306049 0.607753 -0.241118)
(-0.284302 0.576596 -0.22627)
(-0.257142 0.509772 -0.196827)
(-0.276386 0.546822 -0.210288)
(-0.298789 0.599108 -0.236458)
(-0.282871 0.542153 -0.213354)
(-0.240065 0.469869 -0.17953)
(-0.338677 0.678923 -0.26337)
(-0.297078 0.592225 -0.231324)
(-0.343217 0.686268 -0.26863)
(-0.2843 0.563013 -0.220372)
(-0.310154 0.605856 -0.241752)
(-0.272626 0.54113 -0.214705)
(-0.255026 0.499111 -0.192226)
(-0.334697 0.670564 -0.258606)
(-0.291514 0.564262 -0.219305)
(-0.248849 0.489193 -0.186852)
(-0.307133 0.600824 -0.234418)
(-0.276977 0.579417 -0.219707)
(-0.26074 0.525628 -0.20082)
(-0.347887 0.722162 -0.280552)
(-0.28706 0.58714 -0.21605)
(-0.338739 0.68749 -0.272758)
(-0.254157 0.522158 -0.206047)
(-0.247353 0.489383 -0.18853)
(-0.330406 0.675707 -0.267262)
(-0.31128 0.663625 -0.256714)
(-0.269104 0.552438 -0.214108)
(-0.305301 0.641395 -0.24818)
(-0.28724 0.589997 -0.227921)
(-0.264575 0.541935 -0.210726)
(-0.252861 0.514558 -0.197759)
(-0.286542 0.589541 -0.23262)
(-0.318846 0.667804 -0.257021)
(-0.273607 0.553047 -0.212305)
(-0.24364 0.497634 -0.190974)
(-0.385488 0.786716 -0.333569)
(-0.362104 0.737608 -0.294716)
(-0.362301 0.746485 -0.292702)
(-0.34323 0.691157 -0.281754)
(-0.437448 0.874375 -0.360009)
(-0.448131 0.903242 -0.364446)
(-0.431004 0.875301 -0.34877)
(-0.379421 0.755578 -0.307242)
(-0.345788 0.694097 -0.269105)
(-0.356882 0.686021 -0.270173)
(-0.374541 0.761145 -0.297303)
(-0.396644 0.790402 -0.315641)
(-0.374826 0.74425 -0.299444)
(-0.357502 0.73846 -0.29958)
(-0.359226 0.70528 -0.278263)
(-0.431198 0.866516 -0.350143)
(-0.353824 0.70664 -0.278912)
(-0.349543 0.703561 -0.269977)
(-0.269078 0.533563 -0.226283)
(-0.253236 0.492619 -0.20914)
(-0.28574 0.572798 -0.236622)
(-0.308256 0.601682 -0.253236)
(-0.353246 0.708848 -0.302209)
(-0.37096 0.737923 -0.316318)
(-0.269998 0.5404 -0.223777)
(-0.299024 0.58249 -0.242651)
(-0.297112 0.58771 -0.239553)
(-0.289523 0.578 -0.241153)
(-0.338688 0.666372 -0.285811)
(-0.294572 0.59679 -0.251105)
(-0.362201 0.725826 -0.301836)
(-0.358181 0.715734 -0.29672)
(-0.3299 0.656877 -0.273526)
(-0.386445 0.758304 -0.316078)
(-0.31542 0.623921 -0.253728)
(-0.35999 0.709631 -0.301838)
(-0.377444 0.747004 -0.309982)
(-0.365593 0.719492 -0.294773)
(-0.257582 0.557143 -0.229493)
(-0.27702 0.61174 -0.247805)
(-0.306733 0.672037 -0.27646)
(-0.306826 0.681976 -0.276997)
(-0.312874 0.706748 -0.293653)
(-0.280898 0.614546 -0.255413)
(-0.265694 0.57636 -0.237397)
(-0.239096 0.513779 -0.208392)
(-0.304887 0.682222 -0.278191)
(-0.307794 0.693217 -0.284096)
(-0.271152 0.590689 -0.245086)
(-0.263696 0.5867 -0.237728)
(-0.311536 0.685519 -0.286883)
(-0.267126 0.595544 -0.243446)
(-0.261636 0.571051 -0.232936)
(-0.276718 0.60389 -0.250486)
(-0.29851 0.658977 -0.276424)
(-0.265061 0.577969 -0.234872)
(-0.241635 0.524155 -0.212381)
(-0.464302 0.93777 -0.376909)
(-0.457996 0.900982 -0.366784)
(-0.45558 0.91727 -0.372833)
(-0.438713 0.858651 -0.350101)
(-0.420271 0.793883 -0.330372)
(-0.457237 0.931677 -0.382448)
(-0.334839 0.712434 -0.270975)
(-0.265704 0.560166 -0.218555)
(-0.259949 0.554145 -0.216835)
(-0.343864 0.748593 -0.292211)
(-0.321082 0.703636 -0.26844)
(-0.32881 0.705285 -0.269302)
(-0.273737 0.609628 -0.228925)
(-0.276628 0.603629 -0.235171)
(-0.289125 0.620746 -0.242798)
(-0.327406 0.7378 -0.274265)
(-0.316542 0.708973 -0.259463)
(-0.357632 0.780791 -0.296832)
(-0.32598 0.720832 -0.268003)
(-0.301568 0.682606 -0.26241)
(-0.418096 0.880404 -0.352177)
(-0.45827 0.959881 -0.391091)
(-0.403543 0.864473 -0.353646)
(-0.365645 0.79131 -0.323302)
(-0.442123 0.93021 -0.372057)
(-0.416484 0.881783 -0.349013)
(-0.357349 0.796036 -0.314699)
(-0.374754 0.798121 -0.326123)
(-0.422548 0.885279 -0.355635)
(-0.437944 0.930867 -0.374974)
(-0.40253 0.836013 -0.331978)
(-0.411576 0.864463 -0.340786)
(-0.345744 0.739496 -0.301254)
(-0.3378 0.732217 -0.300953)
(-0.408175 0.856023 -0.345056)
(-0.368885 0.787261 -0.318606)
(-0.33726 0.725344 -0.293773)
(-0.343777 0.729834 -0.299392)
(-0.351196 0.744639 -0.301328)
(-0.334743 0.711013 -0.286529)
(-0.333832 0.723333 -0.294465)
(-0.29447 0.604075 -0.246559)
(-0.255319 0.532387 -0.226008)
(-0.249341 0.523241 -0.213767)
(-0.285633 0.592671 -0.242119)
(-0.33385 0.67094 -0.280663)
(-0.335388 0.68781 -0.286076)
(-0.280558 0.573019 -0.234976)
(-0.253074 0.512777 -0.210906)
(-0.210378 0.44692 -0.192756)
(-0.245585 0.512124 -0.213271)
(-0.215974 0.447957 -0.192811)
(-0.349586 0.714771 -0.296172)
(-0.341484 0.705201 -0.285996)
(-0.256359 0.512205 -0.223313)
(-0.229028 0.476013 -0.207169)
(-0.338297 0.682048 -0.283827)
(-0.270859 0.573872 -0.233421)
(-0.346845 0.718682 -0.303296)
(-0.248905 0.503859 -0.19405)
(-0.284613 0.58428 -0.22717)
(-0.264315 0.540143 -0.208916)
(-0.245236 0.490518 -0.190011)
(-0.230662 0.456641 -0.174618)
(-0.267138 0.543033 -0.220483)
(-0.302812 0.607832 -0.239772)
(-0.338413 0.67858 -0.266962)
(-0.338975 0.691188 -0.274436)
(-0.341179 0.695992 -0.277685)
(-0.346739 0.69454 -0.27591)
(-0.328663 0.661073 -0.258624)
(-0.243559 0.488227 -0.192116)
(-0.259299 0.524684 -0.207523)
(-0.227602 0.466251 -0.177353)
(-0.256012 0.515811 -0.19875)
(-0.275036 0.544594 -0.209594)
(-0.313204 0.644399 -0.247586)
(-0.354502 0.757264 -0.273914)
(-0.367381 0.750944 -0.275255)
(-0.378941 0.787809 -0.28758)
(-0.345417 0.72462 -0.26808)
(-0.37552 0.788985 -0.286404)
(-0.355134 0.744066 -0.279935)
(-0.333973 0.720932 -0.265729)
(-0.340202 0.709519 -0.265937)
(-0.372655 0.772833 -0.283546)
(-0.379283 0.787505 -0.288538)
(-0.345427 0.717636 -0.26976)
(-0.338077 0.710833 -0.263745)
(-0.367537 0.769902 -0.273605)
(-0.358075 0.764765 -0.278369)
(-0.331362 0.687613 -0.259435)
(-0.352161 0.753808 -0.27756)
(-0.341398 0.724898 -0.269743)
(-0.353574 0.763857 -0.277371)
(-0.381236 0.812889 -0.290152)
(-0.369475 0.797223 -0.285627)
(-0.321521 0.620803 -0.279358)
(-0.350487 0.678731 -0.310707)
(-0.327732 0.650894 -0.290594)
(-0.258653 0.515779 -0.232037)
(-0.317437 0.614508 -0.275259)
(-0.338603 0.647663 -0.302547)
(-0.326798 0.628737 -0.281036)
(-0.293596 0.56266 -0.25007)
(-0.279647 0.550017 -0.244536)
(-0.277237 0.538207 -0.245817)
(-0.272152 0.521582 -0.232382)
(-0.325849 0.631381 -0.288275)
(-0.299202 0.610836 -0.267819)
(-0.317258 0.640863 -0.286628)
(-0.278459 0.555229 -0.237395)
(-0.277939 0.567753 -0.245155)
(-0.296494 0.605225 -0.261177)
(-0.342731 0.670481 -0.294062)
(-0.314774 0.633404 -0.279294)
(-0.242377 0.472676 -0.211034)
(-0.223441 0.448983 -0.198677)
(-0.32391 0.644055 -0.285845)
(-0.311379 0.626701 -0.273295)
(-0.238093 0.487202 -0.210089)
(-0.228279 0.449415 -0.2003)
(-0.300601 0.625698 -0.274905)
(-0.303758 0.601998 -0.274729)
(-0.242817 0.492616 -0.219871)
(-0.270381 0.552457 -0.24173)
(-0.295717 0.580929 -0.250613)
(-0.231235 0.464791 -0.206835)
(-0.269814 0.524691 -0.235134)
(-0.251504 0.500618 -0.2222)
(-0.248284 0.491545 -0.217463)
(-0.391115 0.783279 -0.322566)
(-0.376239 0.752783 -0.309114)
(-0.402794 0.792442 -0.327061)
(-0.402608 0.801309 -0.329774)
(-0.469542 0.92879 -0.38264)
(-0.344315 0.702601 -0.28957)
(-0.375968 0.754373 -0.315646)
(-0.388549 0.781877 -0.328284)
(-0.477827 0.949787 -0.394601)
(-0.467632 0.941785 -0.386956)
(-0.312004 0.585569 -0.256299)
(-0.294738 0.556648 -0.248168)
(-0.28771 0.550989 -0.24067)
(-0.281788 0.547632 -0.235815)
(-0.264736 0.513568 -0.221317)
(-0.272578 0.528343 -0.229461)
(-0.348306 0.638379 -0.276873)
(-0.338918 0.632962 -0.276236)
(-0.238692 0.468331 -0.201822)
(-0.277451 0.528007 -0.229644)
(-0.261914 0.499001 -0.213178)
(-0.314211 0.595233 -0.253895)
(-0.344356 0.645315 -0.284149)
(-0.335745 0.635191 -0.280309)
(-0.283803 0.548312 -0.235777)
(-0.307282 0.579208 -0.249276)
(-0.298124 0.571024 -0.254296)
(-0.41532 0.820481 -0.335415)
(-0.427146 0.845169 -0.349579)
(-0.424894 0.838959 -0.340558)
(-0.426367 0.848159 -0.344469)
(-0.377206 0.750791 -0.308537)
(-0.353066 0.699011 -0.28471)
(-0.389721 0.770132 -0.308424)
(-0.356474 0.698199 -0.285252)
(-0.333639 0.669866 -0.271821)
(-0.381969 0.752553 -0.306527)
(-0.374237 0.734506 -0.293897)
(-0.359214 0.697869 -0.279495)
(-0.35341 0.694 -0.284989)
(-0.355163 0.698717 -0.278747)
(-0.334214 0.642576 -0.266015)
(-0.315805 0.620743 -0.248922)
(-0.274606 0.580968 -0.249408)
(-0.29436 0.625249 -0.270109)
(-0.316931 0.696952 -0.290051)
(-0.324297 0.696408 -0.297562)
(-0.261762 0.553241 -0.241895)
(-0.287897 0.605108 -0.261022)
(-0.279382 0.587322 -0.254196)
(-0.258607 0.540282 -0.232115)
(-0.27227 0.57062 -0.246508)
(-0.283548 0.604919 -0.262074)
(-0.335785 0.717449 -0.311367)
(-0.34725 0.729298 -0.319993)
(-0.333668 0.701538 -0.305016)
(-0.328102 0.699167 -0.303053)
(-0.269879 0.574836 -0.245302)
(-0.28488 0.608207 -0.261292)
(-0.322797 0.695072 -0.303768)
(-0.355303 0.659042 -0.274148)
(-0.334089 0.632181 -0.271217)
(-0.299277 0.578213 -0.24633)
(-0.288609 0.552937 -0.230531)
(-0.304688 0.585305 -0.238979)
(-0.349452 0.651959 -0.275394)
(-0.335171 0.63333 -0.269187)
(-0.304116 0.57826 -0.244747)
(-0.29222 0.55324 -0.229778)
(-0.304483 0.575195 -0.241038)
(-0.269414 0.515308 -0.215502)
(-0.278379 0.538304 -0.226508)
(-0.266743 0.51189 -0.211088)
(-0.292299 0.611112 -0.253201)
(-0.365546 0.755405 -0.317366)
(-0.358194 0.74557 -0.318638)
(-0.287364 0.605054 -0.248686)
(-0.234797 0.498872 -0.209367)
(-0.27173 0.551094 -0.22642)
(-0.350006 0.736616 -0.303994)
(-0.252964 0.5253 -0.2178)
(-0.236632 0.488957 -0.213489)
(-0.340918 0.717445 -0.301205)
(-0.260979 0.531027 -0.223448)
(-0.324916 0.677515 -0.280364)
(-0.283587 0.59543 -0.244745)
(-0.264078 0.545294 -0.23419)
(-0.275824 0.574808 -0.236674)
(-0.254318 0.53733 -0.221743)
(-0.242294 0.516603 -0.216932)
(-0.376926 0.878248 -0.343461)
(-0.382479 0.874939 -0.323296)
(-0.370723 0.848875 -0.315122)
(-0.385304 0.890231 -0.351351)
(-0.379481 0.886484 -0.342139)
(-0.390063 0.849015 -0.311909)
(-0.377589 0.848668 -0.348245)
(-0.40913 0.890167 -0.361187)
(-0.381837 0.867128 -0.323052)
(-0.414484 0.889362 -0.350466)
(-0.446879 0.875354 -0.405949)
(-0.449281 0.865715 -0.403264)
(-0.454888 0.922216 -0.416604)
(-0.468504 0.954519 -0.42785)
(-0.481441 0.942687 -0.434001)
(-0.485662 0.971582 -0.442493)
(-0.457038 0.921902 -0.420827)
(-0.452627 0.885405 -0.410731)
(-0.442506 0.861705 -0.399341)
(-0.427866 0.823897 -0.386126)
(-0.425617 0.82352 -0.38203)
(-0.481969 1.00095 -0.439702)
(-0.422434 0.813005 -0.386469)
(-0.39813 0.787003 -0.370252)
(-0.411108 0.815966 -0.380781)
(-0.442976 0.925641 -0.416877)
(-0.485612 1.01496 -0.446049)
(-0.42929 0.861975 -0.393712)
(-0.434249 0.895946 -0.401986)
(-0.419628 0.829965 -0.385317)
(-0.457972 0.955175 -0.42969)
(-0.412412 0.81909 -0.375026)
(-0.40674 0.819636 -0.375412)
(-0.443668 0.901029 -0.403228)
(-0.39248 0.764646 -0.359909)
(-0.381 0.743803 -0.349704)
(-0.411547 0.79247 -0.372439)
(-0.412985 0.791097 -0.370007)
(-0.395596 0.762458 -0.364488)
(-0.383993 0.741496 -0.347665)
(-0.385321 0.739285 -0.348448)
(-0.405577 0.761506 -0.353934)
(-0.372217 0.722496 -0.340824)
(-0.356504 0.68491 -0.319773)
(-0.353666 0.68095 -0.318723)
(-0.391561 0.74181 -0.346084)
(-0.374766 0.716177 -0.330727)
(-0.356983 0.682675 -0.315922)
(-0.34936 0.667344 -0.309561)
(-0.520639 1.0555 -0.436285)
(-0.507889 1.02314 -0.429084)
(-0.511875 1.01145 -0.420266)
(-0.521745 1.02923 -0.428418)
(-0.514607 1.04805 -0.430963)
(-0.505348 1.02159 -0.424632)
(-0.499178 1.01168 -0.418282)
(-0.497987 0.996176 -0.421876)
(-0.523985 1.0612 -0.430023)
(-0.519551 1.05297 -0.430787)
(-0.516038 1.02822 -0.434598)
(-0.494099 0.996595 -0.400951)
(-0.491897 1.00873 -0.416043)
(-0.483818 0.981639 -0.396513)
(-0.453382 0.914473 -0.375153)
(-0.354622 0.712068 -0.291419)
(-0.324598 0.661098 -0.273093)
(-0.374349 0.740777 -0.30662)
(-0.355803 0.716769 -0.293176)
(-0.380717 0.757757 -0.310115)
(-0.339899 0.685564 -0.280324)
(-0.329561 0.668866 -0.273322)
(-0.290948 0.610486 -0.254035)
(-0.328376 0.669539 -0.281765)
(-0.356522 0.718298 -0.296287)
(-0.395981 0.789646 -0.323192)
(-0.351449 0.715202 -0.295943)
(-0.330065 0.667616 -0.279273)
(-0.315478 0.642501 -0.273582)
(-0.34132 0.683666 -0.285512)
(-0.365716 0.734504 -0.298862)
(-0.381147 0.770177 -0.314121)
(-0.349253 0.7006 -0.284886)
(-0.319003 0.651328 -0.275237)
(-0.33544 0.67618 -0.285631)
(-0.473002 0.939236 -0.387389)
(-0.494092 0.981792 -0.404403)
(-0.487893 0.988566 -0.399845)
(-0.501555 0.995179 -0.403528)
(-0.47816 0.932445 -0.374867)
(-0.454502 0.922116 -0.371415)
(-0.458751 0.918559 -0.377215)
(-0.433536 0.86927 -0.342579)
(-0.462044 0.923335 -0.377072)
(-0.390231 0.794513 -0.326822)
(-0.378782 0.748921 -0.30832)
(-0.425382 0.837139 -0.33745)
(-0.48083 0.941712 -0.387523)
(-0.498557 0.997294 -0.408588)
(-0.42708 0.849279 -0.342253)
(-0.47342 0.938719 -0.3841)
(-0.399683 0.795002 -0.325397)
(-0.375163 0.745592 -0.303214)
(-0.41543 0.834312 -0.339342)
(-0.409994 0.799928 -0.316267)
(-0.405336 0.822367 -0.331587)
(-0.403907 0.835734 -0.334079)
(-0.383275 0.787624 -0.328671)
(-0.361935 0.840102 -0.326958)
(-0.355353 0.824273 -0.335698)
(-0.319732 0.723788 -0.288944)
(-0.30951 0.688806 -0.274454)
(-0.317519 0.717267 -0.276303)
(-0.313971 0.72032 -0.281205)
(-0.335146 0.770915 -0.296745)
(-0.34513 0.796999 -0.309266)
(-0.353778 0.825552 -0.326846)
(-0.349853 0.810861 -0.324547)
(-0.328328 0.739926 -0.299659)
(-0.311898 0.702138 -0.284752)
(-0.335267 0.773358 -0.301183)
(-0.33909 0.780348 -0.308594)
(-0.334332 0.756204 -0.304483)
(-0.319359 0.714169 -0.280908)
(-0.306366 0.58601 -0.239965)
(-0.296514 0.58003 -0.240744)
(-0.337754 0.636452 -0.263745)
(-0.332956 0.635539 -0.258763)
(-0.406053 0.746568 -0.31002)
(-0.411229 0.747141 -0.310337)
(-0.369583 0.685998 -0.280235)
(-0.38875 0.715459 -0.297555)
(-0.396803 0.720523 -0.306558)
(-0.393956 0.716583 -0.304176)
(-0.368993 0.677435 -0.278869)
(-0.371507 0.68446 -0.294124)
(-0.346347 0.645507 -0.272556)
(-0.528156 1.06663 -0.452512)
(-0.455431 0.921928 -0.401713)
(-0.494198 0.998164 -0.422224)
(-0.521604 1.03984 -0.439309)
(-0.476079 0.953594 -0.40875)
(-0.535846 1.07983 -0.453939)
(-0.522794 1.06257 -0.436062)
(-0.439839 0.902037 -0.372958)
(-0.425419 0.879113 -0.366339)
(-0.431496 0.898013 -0.381516)
(-0.458794 0.941752 -0.393253)
(-0.464166 0.93804 -0.393415)
(-0.459722 0.924115 -0.389179)
(-0.502486 1.03011 -0.420316)
(-0.258927 0.503388 -0.212381)
(-0.271118 0.525211 -0.217829)
(-0.373518 0.731922 -0.295981)
(-0.411288 0.80977 -0.325992)
(-0.338089 0.658086 -0.265476)
(-0.376544 0.753529 -0.306728)
(-0.304615 0.582147 -0.236018)
(-0.311809 0.60433 -0.247529)
(-0.339953 0.670477 -0.282227)
(-0.285033 0.568304 -0.225669)
(-0.29173 0.567745 -0.23875)
(-0.282403 0.548753 -0.226856)
(-0.323851 0.64713 -0.253954)
(-0.352403 0.689966 -0.285291)
(-0.396387 0.78487 -0.322812)
(-0.407361 0.802446 -0.330175)
(-0.352942 0.685901 -0.266021)
(-0.335827 0.659943 -0.264085)
(-0.38477 0.742625 -0.302666)
(-0.40542 0.787523 -0.320416)
(-0.396314 0.775571 -0.317811)
(-0.349925 0.69437 -0.274633)
(-0.348675 0.676762 -0.267886)
(-0.340101 0.676883 -0.268433)
(-0.36519 0.716902 -0.305081)
(-0.338373 0.648992 -0.271648)
(-0.346656 0.670086 -0.278888)
(-0.354911 0.689315 -0.289766)
(-0.378068 0.729205 -0.298959)
(-0.383649 0.742123 -0.318257)
(-0.398835 0.770004 -0.319164)
(-0.376464 0.725411 -0.291538)
(-0.372196 0.713137 -0.29205)
(-0.434707 0.851023 -0.352626)
(-0.46219 0.907361 -0.381812)
(-0.344403 0.674854 -0.279035)
(-0.33904 0.643202 -0.268683)
(-0.405007 0.791928 -0.333263)
(-0.450061 0.884902 -0.370767)
(-0.463979 0.912153 -0.376913)
(-0.395248 0.772132 -0.318722)
(-0.368396 0.696286 -0.280831)
(-0.342621 0.752562 -0.271206)
(-0.3346 0.719972 -0.265058)
(-0.385872 0.833028 -0.299667)
(-0.38916 0.834804 -0.299677)
(-0.337121 0.740397 -0.271001)
(-0.33166 0.71793 -0.258408)
(-0.374691 0.815212 -0.289104)
(-0.353134 0.760714 -0.278504)
(-0.312547 0.662113 -0.241126)
(-0.385565 0.815487 -0.293259)
(-0.380867 0.820917 -0.293003)
(-0.359324 0.762654 -0.271545)
(-0.338461 0.72983 -0.263695)
(-0.358271 0.737806 -0.27036)
(-0.364079 0.767887 -0.278107)
(-0.319124 0.66207 -0.252872)
(-0.32463 0.684018 -0.249849)
(-0.361809 0.759616 -0.2726)
(-0.359876 0.746306 -0.270518)
(-0.361346 0.742923 -0.269628)
(-0.365011 0.770527 -0.272682)
(-0.286428 0.5519 -0.221906)
(-0.277493 0.546893 -0.215687)
(-0.262692 0.525137 -0.219179)
(-0.300975 0.596496 -0.225783)
(-0.319696 0.62724 -0.250233)
(-0.265479 0.538724 -0.21967)
(-0.273273 0.537973 -0.213219)
(-0.268467 0.535809 -0.218518)
(-0.370171 0.728473 -0.296233)
(-0.307785 0.614425 -0.24669)
(-0.319185 0.628882 -0.247093)
(-0.335033 0.66695 -0.263086)
(-0.345649 0.671715 -0.272337)
(-0.348435 0.679108 -0.268623)
(-0.325729 0.637947 -0.25956)
(-0.310295 0.69863 -0.27422)
(-0.308926 0.689482 -0.268822)
(-0.390737 0.88084 -0.332496)
(-0.401922 0.900233 -0.348459)
(-0.326429 0.739577 -0.289931)
(-0.319982 0.719428 -0.282564)
(-0.328981 0.737397 -0.289395)
(-0.356179 0.809697 -0.316712)
(-0.354973 0.819918 -0.319513)
(-0.355114 0.810232 -0.304131)
(-0.371561 0.826629 -0.317012)
(-0.382604 0.865954 -0.343048)
(-0.382276 0.868555 -0.350417)
(-0.375773 0.846348 -0.317541)
(-0.321165 0.73307 -0.287558)
(-0.322848 0.7229 -0.286209)
(-0.334373 0.775184 -0.296889)
(-0.312109 0.727917 -0.278789)
(-0.340509 0.775877 -0.299499)
(-0.333845 0.747748 -0.293054)
(-0.347074 0.789756 -0.307403)
(-0.341712 0.772025 -0.298794)
(-0.414755 0.852383 -0.345307)
(-0.359673 0.741854 -0.293104)
(-0.383146 0.805429 -0.321717)
(-0.406484 0.827028 -0.331244)
(-0.437877 0.886865 -0.357546)
(-0.331585 0.688761 -0.267719)
(-0.385387 0.802144 -0.322321)
(-0.45873 0.932927 -0.385225)
(-0.393491 0.790138 -0.312861)
(-0.343712 0.717699 -0.28223)
(-0.416651 0.848142 -0.336716)
(-0.375383 0.79292 -0.304233)
(-0.359246 0.732344 -0.293363)
(-0.404546 0.853709 -0.349174)
(-0.405894 0.846323 -0.343638)
(-0.418796 0.865204 -0.351598)
(-0.425769 0.876402 -0.360528)
(-0.379181 0.785667 -0.326644)
(-0.325548 0.699269 -0.293631)
(-0.343757 0.723913 -0.298298)
(-0.361918 0.758439 -0.31301)
(-0.380656 0.79156 -0.323541)
(-0.347239 0.749679 -0.304225)
(-0.469967 0.957289 -0.385502)
(-0.467634 0.958271 -0.388834)
(-0.515095 1.04016 -0.419909)
(-0.511803 1.03635 -0.421492)
(-0.528479 1.06531 -0.435612)
(-0.457337 0.927613 -0.378314)
(-0.489257 0.981269 -0.392447)
(-0.453403 0.942246 -0.378229)
(-0.448368 0.920867 -0.372865)
(-0.440295 0.899924 -0.363416)
(-0.529904 1.06853 -0.433181)
(-0.513307 1.03067 -0.417235)
(-0.496637 0.987052 -0.40392)
(-0.472166 0.942397 -0.372174)
(-0.481315 0.986892 -0.40575)
(-0.463208 0.953407 -0.39179)
(-0.448192 0.924215 -0.372772)
(-0.496113 0.994813 -0.39552)
(-0.535995 1.06178 -0.430116)
(-0.281007 0.546242 -0.227861)
(-0.242837 0.483078 -0.201501)
(-0.27485 0.54549 -0.230992)
(-0.263881 0.508103 -0.215287)
(-0.394886 0.774922 -0.322925)
(-0.361441 0.727353 -0.308687)
(-0.30609 0.611745 -0.253807)
(-0.283683 0.55534 -0.238647)
(-0.282441 0.544791 -0.232939)
(-0.301127 0.601816 -0.250885)
(-0.476569 0.941136 -0.3929)
(-0.489814 0.980406 -0.412382)
(-0.448794 0.884081 -0.362993)
(-0.486026 0.960094 -0.399753)
(-0.460728 0.927971 -0.386133)
(-0.468688 0.925214 -0.383201)
(-0.465622 0.923369 -0.388505)
(-0.496721 0.981589 -0.407694)
(-0.385216 0.775189 -0.319603)
(-0.389622 0.791943 -0.331706)
(-0.397811 0.799355 -0.335335)
(-0.370928 0.753979 -0.321926)
(-0.364328 0.729795 -0.304337)
(-0.359131 0.717071 -0.295843)
(-0.481516 0.968787 -0.390036)
(-0.374282 0.742269 -0.313958)
(-0.374736 0.748712 -0.309077)
(-0.468108 0.931519 -0.379701)
(-0.379153 0.759528 -0.316188)
(-0.341026 0.680808 -0.280918)
(-0.362595 0.724984 -0.30663)
(-0.393167 0.787272 -0.333835)
(-0.326151 0.668768 -0.283769)
(-0.320904 0.655047 -0.279992)
(-0.3282 0.67099 -0.28285)
(-0.382587 0.755928 -0.315235)
(-0.418004 0.820187 -0.34789)
(-0.329861 0.655583 -0.277356)
(-0.381426 0.769121 -0.330619)
(-0.343586 0.702964 -0.29358)
(-0.310467 0.63742 -0.265752)
(-0.4043 0.792426 -0.33517)
(-0.438397 0.877051 -0.367463)
(-0.411902 0.824732 -0.351561)
(-0.336126 0.678246 -0.287204)
(-0.335328 0.677097 -0.284089)
(-0.404115 0.801214 -0.33546)
(-0.415587 0.825858 -0.345144)
(-0.368126 0.733494 -0.309284)
(-0.329189 0.636825 -0.265089)
(-0.329435 0.651313 -0.267853)
(-0.296132 0.578336 -0.234197)
(-0.263841 0.524174 -0.215098)
(-0.266374 0.526102 -0.210352)
(-0.246235 0.483953 -0.193459)
(-0.261041 0.513122 -0.208539)
(-0.281717 0.555918 -0.2229)
(-0.342817 0.655978 -0.272488)
(-0.343869 0.670045 -0.276589)
(-0.291124 0.564237 -0.229283)
(-0.283567 0.56697 -0.227609)
(-0.269918 0.540256 -0.210195)
(-0.260099 0.510909 -0.201409)
(-0.282605 0.556737 -0.22561)
(-0.286236 0.566641 -0.220942)
(-0.264607 0.514711 -0.203939)
(-0.245024 0.481905 -0.185028)
(-0.339507 0.63998 -0.266663)
(-0.325829 0.623383 -0.252089)
(-0.347001 0.65553 -0.268316)
(-0.279174 0.550838 -0.223774)
(-0.266047 0.519998 -0.209772)
(-0.233439 0.468332 -0.191248)
(-0.262314 0.518596 -0.209725)
(-0.333139 0.664077 -0.261464)
(-0.323864 0.646681 -0.25554)
(-0.283886 0.558644 -0.228403)
(-0.345574 0.676531 -0.268146)
(-0.354064 0.698458 -0.280388)
(-0.354052 0.695126 -0.280406)
(-0.277755 0.560246 -0.221898)
(-0.272855 0.546698 -0.217069)
(-0.242056 0.491908 -0.198392)
(-0.248135 0.501037 -0.196347)
(-0.262501 0.522105 -0.209002)
(-0.23987 0.473546 -0.18784)
(-0.240155 0.484996 -0.19428)
(-0.228364 0.456612 -0.184719)
(-0.332534 0.667691 -0.271807)
(-0.290297 0.569032 -0.234356)
(-0.337417 0.655136 -0.264283)
(-0.279306 0.560689 -0.222998)
(-0.25323 0.511312 -0.206747)
(-0.244026 0.493311 -0.196852)
(-0.3409 0.749469 -0.274408)
(-0.303926 0.64972 -0.250881)
(-0.290656 0.618333 -0.239829)
(-0.335204 0.728004 -0.274553)
(-0.328273 0.718001 -0.274297)
(-0.335102 0.716822 -0.272285)
(-0.285249 0.597869 -0.23494)
(-0.276642 0.586268 -0.226316)
(-0.296428 0.63269 -0.249456)
(-0.305665 0.649509 -0.250083)
(-0.338751 0.733749 -0.273917)
(-0.309889 0.652517 -0.248094)
(-0.2913 0.618866 -0.244405)
(-0.280404 0.59251 -0.235881)
(-0.285959 0.603446 -0.232437)
(-0.293955 0.621731 -0.242707)
(-0.362071 0.690652 -0.277566)
(-0.36609 0.689511 -0.278132)
(-0.321803 0.621054 -0.247385)
(-0.304716 0.590759 -0.237729)
(-0.312788 0.60351 -0.245406)
(-0.358362 0.674312 -0.268758)
(-0.359136 0.683731 -0.273838)
(-0.295443 0.572172 -0.234388)
(-0.261877 0.520144 -0.205837)
(-0.323873 0.6141 -0.251463)
(-0.300032 0.581179 -0.232032)
(-0.282644 0.552775 -0.221819)
(-0.315565 0.605779 -0.240956)
(-0.319771 0.60838 -0.248519)
(-0.297489 0.570113 -0.236926)
(-0.329664 0.622738 -0.257219)
(-0.359154 0.663601 -0.266894)
(-0.288836 0.618563 -0.245863)
(-0.272514 0.579817 -0.235767)
(-0.302362 0.658073 -0.259775)
(-0.261407 0.554723 -0.222866)
(-0.308435 0.674373 -0.265046)
(-0.307636 0.663438 -0.266241)
(-0.319784 0.710774 -0.28087)
(-0.326727 0.732574 -0.288715)
(-0.292702 0.626458 -0.248834)
(-0.280194 0.592421 -0.23442)
(-0.330189 0.739121 -0.292616)
(-0.295357 0.64253 -0.256328)
(-0.310544 0.694196 -0.272071)
(-0.311037 0.609033 -0.238434)
(-0.301488 0.579082 -0.233387)
(-0.367488 0.699433 -0.276134)
(-0.364431 0.696609 -0.27092)
(-0.358476 0.691103 -0.264073)
(-0.322735 0.627524 -0.244435)
(-0.365208 0.703083 -0.267325)
(-0.275097 0.527929 -0.212307)
(-0.300437 0.58609 -0.230051)
(-0.296801 0.57674 -0.228525)
(-0.288316 0.561361 -0.222586)
(-0.330552 0.647698 -0.250207)
(-0.313356 0.600634 -0.241347)
(-0.297828 0.583181 -0.228105)
(-0.368995 0.709537 -0.273426)
(-0.367922 0.693554 -0.275578)
(-0.37102 0.705686 -0.281146)
(-0.347989 0.761874 -0.310303)
(-0.301063 0.698826 -0.286677)
(-0.349766 0.789201 -0.328859)
(-0.367677 0.823258 -0.33537)
(-0.312952 0.683503 -0.285719)
(-0.298524 0.661168 -0.277049)
(-0.304611 0.678971 -0.283408)
(-0.293138 0.657857 -0.274161)
(-0.354769 0.805079 -0.321409)
(-0.359574 0.784734 -0.318044)
(-0.327327 0.724221 -0.299318)
(-0.325123 0.713443 -0.300111)
(-0.316787 0.708521 -0.291331)
(-0.338342 0.747713 -0.320759)
(-0.392097 0.84207 -0.31803)
(-0.352038 0.754081 -0.287887)
(-0.343887 0.746099 -0.285028)
(-0.343629 0.741635 -0.286215)
(-0.381857 0.813344 -0.309849)
(-0.377174 0.811181 -0.311099)
(-0.395858 0.824035 -0.320354)
(-0.376134 0.788772 -0.302728)
(-0.385566 0.797797 -0.317433)
(-0.385161 0.820533 -0.318701)
(-0.373612 0.799122 -0.305454)
(-0.337075 0.684999 -0.26479)
(-0.3808 0.782491 -0.300871)
(-0.355862 0.746498 -0.285647)
(-0.321294 0.687319 -0.267654)
(-0.335594 0.670229 -0.308453)
(-0.336818 0.64954 -0.296738)
(-0.327437 0.634875 -0.292058)
(-0.328144 0.648035 -0.297908)
(-0.304102 0.601603 -0.273648)
(-0.271647 0.557421 -0.245707)
(-0.32169 0.63355 -0.284947)
(-0.26065 0.520963 -0.2301)
(-0.227892 0.456421 -0.200795)
(-0.274969 0.555191 -0.250769)
(-0.27826 0.554 -0.25113)
(-0.273394 0.549758 -0.249764)
(-0.256469 0.518126 -0.231963)
(-0.235433 0.473691 -0.2121)
(-0.369107 0.768532 -0.298323)
(-0.352587 0.731976 -0.291168)
(-0.334046 0.721534 -0.280741)
(-0.36289 0.755623 -0.295808)
(-0.364242 0.748323 -0.303212)
(-0.365007 0.758576 -0.300224)
(-0.393661 0.803466 -0.318436)
(-0.444087 0.909751 -0.361809)
(-0.422616 0.865709 -0.344947)
(-0.47974 0.979976 -0.403173)
(-0.454117 0.934144 -0.37632)
(-0.346113 0.710864 -0.28584)
(-0.348143 0.709855 -0.285649)
(-0.438428 0.902765 -0.36453)
(-0.374243 0.776664 -0.314569)
(-0.351755 0.784345 -0.297048)
(-0.334679 0.736229 -0.286124)
(-0.325828 0.73816 -0.284884)
(-0.310669 0.702216 -0.27506)
(-0.361057 0.811736 -0.312088)
(-0.32368 0.716652 -0.280798)
(-0.304447 0.671766 -0.264028)
(-0.297464 0.657981 -0.263567)
(-0.325463 0.751032 -0.290863)
(-0.346261 0.780913 -0.29672)
(-0.328896 0.723441 -0.287381)
(-0.312511 0.68615 -0.272992)
(-0.267626 0.579281 -0.231304)
(-0.266526 0.577654 -0.231433)
(-0.262687 0.576272 -0.225737)
(-0.302024 0.66551 -0.264511)
(-0.268353 0.576469 -0.231101)
(-0.332494 0.65068 -0.259725)
(-0.347699 0.70212 -0.282424)
(-0.350324 0.667825 -0.281498)
(-0.366415 0.715226 -0.296597)
(-0.300577 0.592377 -0.238906)
(-0.255572 0.525915 -0.213502)
(-0.317225 0.639593 -0.254703)
(-0.344329 0.676019 -0.276818)
(-0.290422 0.560595 -0.216277)
(-0.273985 0.549908 -0.210625)
(-0.236622 0.482038 -0.189447)
(-0.267791 0.524536 -0.197732)
(-0.233449 0.469722 -0.176209)
(-0.308723 0.620221 -0.240801)
(-0.285929 0.560845 -0.218922)
(-0.255819 0.511919 -0.205638)
(-0.353497 0.714547 -0.297882)
(-0.401317 0.796232 -0.328852)
(-0.329245 0.674889 -0.27941)
(-0.363032 0.732167 -0.306496)
(-0.349628 0.708264 -0.291466)
(-0.26697 0.542845 -0.225443)
(-0.2462 0.499331 -0.208904)
(-0.362438 0.736357 -0.310769)
(-0.359937 0.71452 -0.295438)
(-0.257848 0.518368 -0.215404)
(-0.229029 0.464731 -0.195052)
(-0.286056 0.590656 -0.24171)
(-0.304513 0.603483 -0.243757)
(-0.264096 0.535875 -0.223664)
(-0.241377 0.49885 -0.207597)
(-0.264774 0.532386 -0.222756)
(-0.282299 0.568539 -0.238204)
(-0.275289 0.570541 -0.239076)
(-0.382324 0.787301 -0.32282)
(-0.393844 0.808758 -0.325685)
(-0.310474 0.648516 -0.25523)
(-0.282675 0.591507 -0.238017)
(-0.287581 0.591869 -0.233665)
(-0.258911 0.53837 -0.20922)
(-0.384596 0.795493 -0.314266)
(-0.36759 0.7621 -0.306926)
(-0.382346 0.781054 -0.315789)
(-0.375294 0.754357 -0.305301)