/*--------------------------------*- C++ -*----------------------------------*\
| =========                 |                                                 |
| \\      /  F ield         | OpenFOAM: The Open Source CFD Toolbox           |
|  \\    /   O peration     | Version:  v1612+                                |
|   \\  /    A nd           | Web:      www.OpenFOAM.com                      |
|    \\/     M anipulation  |                                                 |
\*---------------------------------------------------------------------------*/
FoamFile
{
    version     2.0;
    format      ascii;
    class       volVectorField;
    location    "150";
    object      U;
}
// * * * * * * * * * * * * * * * * * * * * * * * * * * * * * * * * * * * * * //

dimensions      [0 1 -1 0 0 0 0];

internalField   nonuniform List<vector> 
18919
(
(-0.307212 0.609302 -0.256361)
(-0.440623 0.879903 -0.367495)
(-0.436701 0.878235 -0.368167)
(-0.414094 0.819184 -0.343744)
(-0.41905 0.835903 -0.351735)
(-0.436106 0.869423 -0.362035)
(-0.437981 0.877149 -0.365876)
(-0.442948 0.886197 -0.364359)
(-0.405913 0.812186 -0.33985)
(-0.395239 0.787212 -0.328558)
(-0.435038 0.872003 -0.36237)
(-0.437364 0.872307 -0.36221)
(-0.417407 0.8376 -0.347488)
(-0.440664 0.886031 -0.364351)
(-0.430547 0.868927 -0.361914)
(-0.42261 0.847764 -0.352004)
(-0.404851 0.808222 -0.336751)
(-0.4156 0.824626 -0.346868)
(-0.340711 0.681708 -0.280639)
(-0.343541 0.681709 -0.281718)
(-0.349197 0.723313 -0.295476)
(-0.365284 0.737097 -0.305371)
(-0.308924 0.629202 -0.259288)
(-0.284449 0.56794 -0.229998)
(-0.342996 0.689001 -0.283961)
(-0.34845 0.706173 -0.287725)
(-0.319041 0.646815 -0.26678)
(-0.275248 0.55337 -0.221286)
(-0.299555 0.610069 -0.241769)
(-0.278684 0.545284 -0.217663)
(-0.272129 0.552509 -0.221315)
(-0.266898 0.532838 -0.21453)
(-0.311179 0.617659 -0.25781)
(-0.249695 0.50967 -0.203405)
(-0.250723 0.503243 -0.207746)
(-0.28395 0.579802 -0.226454)
(-0.280549 0.57056 -0.243018)
(-0.253689 0.509861 -0.215892)
(-0.289799 0.578127 -0.245085)
(-0.283537 0.556293 -0.234392)
(-0.362485 0.718483 -0.299549)
(-0.345826 0.689008 -0.290088)
(-0.294656 0.588887 -0.246609)
(-0.284409 0.567704 -0.235755)
(-0.252117 0.506028 -0.221989)
(-0.276671 0.556045 -0.229852)
(-0.299762 0.60746 -0.256013)
(-0.349216 0.68623 -0.282994)
(-0.30414 0.614713 -0.257041)
(-0.268912 0.542482 -0.232976)
(-0.342671 0.682574 -0.285058)
(-0.34858 0.706532 -0.291567)
(-0.366 0.734469 -0.307338)
(-0.346341 0.674536 -0.276189)
(-0.359259 0.713641 -0.302287)
(-0.308033 0.608738 -0.250703)
(-0.282915 0.56151 -0.239101)
(-0.305115 0.608104 -0.25755)
(-0.281011 0.560969 -0.235568)
(-0.261818 0.507598 -0.215989)
(-0.294373 0.583611 -0.246698)
(-0.266562 0.537544 -0.221899)
(-0.356395 0.715816 -0.301336)
(-0.342831 0.689837 -0.291212)
(-0.318562 0.628989 -0.257111)
(-0.301236 0.603802 -0.258096)
(-0.299609 0.611917 -0.253336)
(-0.300953 0.613363 -0.25854)
(-0.33454 0.679477 -0.288271)
(-0.33685 0.689221 -0.290661)
(-0.283868 0.57121 -0.242887)
(-0.2641 0.534474 -0.229645)
(-0.34531 0.69556 -0.297093)
(-0.270456 0.531316 -0.226501)
(-0.241418 0.480615 -0.206319)
(-0.34129 0.682279 -0.286392)
(-0.342333 0.672225 -0.282361)
(-0.289411 0.575761 -0.243076)
(-0.280399 0.564051 -0.235566)
(-0.262987 0.528173 -0.222913)
(-0.269426 0.550274 -0.235794)
(-0.232553 0.473406 -0.196493)
(-0.305313 0.603143 -0.254069)
(-0.277396 0.556434 -0.234176)
(-0.253818 0.519044 -0.220366)
(-0.272827 0.552686 -0.235857)
(-0.294721 0.585345 -0.250082)
(-0.300065 0.604933 -0.258276)
(-0.283959 0.593284 -0.248582)
(-0.317026 0.631814 -0.266511)
(-0.30453 0.60959 -0.264051)
(-0.24588 0.491599 -0.205792)
(-0.287941 0.576123 -0.246641)
(-0.302134 0.591537 -0.24864)
(-0.281685 0.566413 -0.235876)
(-0.303994 0.605556 -0.261237)
(-0.260939 0.524549 -0.210982)
(-0.299172 0.605317 -0.246933)
(-0.259499 0.531172 -0.221297)
(-0.257478 0.532686 -0.214326)
(-0.299925 0.615887 -0.248609)
(-0.271564 0.563932 -0.234539)
(-0.287036 0.575161 -0.23874)
(-0.322281 0.665518 -0.273699)
(-0.358513 0.730582 -0.30261)
(-0.321561 0.672931 -0.277169)
(-0.37187 0.755958 -0.3051)
(-0.34443 0.709769 -0.293528)
(-0.333383 0.680582 -0.275535)
(-0.338769 0.693097 -0.285276)
(-0.271826 0.555968 -0.233005)
(-0.25183 0.509577 -0.211809)
(-0.266343 0.553312 -0.226895)
(-0.272535 0.546614 -0.2186)
(-0.244442 0.488922 -0.203913)
(-0.290963 0.592784 -0.246607)
(-0.349442 0.727792 -0.297328)
(-0.464249 0.93563 -0.382655)
(-0.467306 0.950051 -0.393959)
(-0.463773 0.935018 -0.381121)
(-0.461835 0.949196 -0.387998)
(-0.471421 0.953383 -0.39338)
(-0.465112 0.944792 -0.387546)
(-0.461563 0.936257 -0.383602)
(-0.449095 0.913411 -0.37101)
(-0.445456 0.912393 -0.371693)
(-0.45097 0.924555 -0.377564)
(-0.452117 0.930479 -0.37919)
(-0.443799 0.913107 -0.370174)
(-0.445633 0.916493 -0.372768)
(-0.463518 0.947795 -0.390078)
(-0.455325 0.930596 -0.380734)
(-0.467669 0.953543 -0.388347)
(-0.415961 0.830502 -0.342948)
(-0.404863 0.804307 -0.332004)
(-0.42981 0.856774 -0.352836)
(-0.420595 0.847016 -0.348348)
(-0.41035 0.817101 -0.340022)
(-0.430951 0.861228 -0.355827)
(-0.413234 0.828114 -0.346728)
(-0.435498 0.878732 -0.363681)
(-0.435146 0.878634 -0.364903)
(-0.413077 0.825465 -0.340836)
(-0.416564 0.831142 -0.340792)
(-0.419191 0.834264 -0.344323)
(-0.419541 0.846602 -0.349901)
(-0.405234 0.811397 -0.338711)
(-0.421842 0.844506 -0.350367)
(-0.428647 0.864604 -0.358985)
(-0.447097 0.894278 -0.374695)
(-0.449375 0.900189 -0.37323)
(-0.446639 0.895018 -0.372914)
(-0.441818 0.883123 -0.366441)
(-0.436633 0.873452 -0.365018)
(-0.454223 0.913705 -0.375665)
(-0.445424 0.893289 -0.367204)
(-0.451563 0.909596 -0.373344)
(-0.345886 0.707091 -0.291844)
(-0.298917 0.615538 -0.256294)
(-0.290209 0.597092 -0.248505)
(-0.279521 0.569368 -0.237056)
(-0.342239 0.700184 -0.288587)
(-0.311729 0.641406 -0.263194)
(-0.298015 0.596681 -0.250672)
(-0.256406 0.519501 -0.218358)
(-0.321042 0.664736 -0.269441)
(-0.256923 0.540639 -0.227119)
(-0.283712 0.571553 -0.237245)
(-0.309249 0.639712 -0.265097)
(-0.355577 0.716967 -0.298609)
(-0.345662 0.701859 -0.296487)
(-0.298244 0.607858 -0.253673)
(-0.276227 0.563053 -0.238498)
(-0.357557 0.724795 -0.299633)
(-0.346732 0.707794 -0.296563)
(-0.332616 0.69656 -0.289136)
(-0.303443 0.613881 -0.25697)
(-0.398469 0.822626 -0.333134)
(-0.378234 0.776734 -0.318791)
(-0.369177 0.771118 -0.30598)
(-0.396449 0.817569 -0.332805)
(-0.391721 0.815209 -0.331456)
(-0.36397 0.740821 -0.301271)
(-0.375242 0.774051 -0.315591)
(-0.364638 0.751126 -0.309421)
(-0.349583 0.716018 -0.294236)
(-0.379211 0.791259 -0.32403)
(-0.375463 0.755594 -0.311464)
(-0.342788 0.696837 -0.287085)
(-0.352878 0.716937 -0.298946)
(-0.342257 0.699692 -0.289209)
(-0.383543 0.778895 -0.322071)
(-0.360508 0.74812 -0.308417)
(-0.348454 0.715796 -0.295916)
(-0.362892 0.75164 -0.308394)
(-0.371079 0.757299 -0.313984)
(-0.365567 0.750173 -0.312416)
(-0.39805 0.811456 -0.337214)
(-0.400749 0.824853 -0.333803)
(-0.399563 0.810805 -0.336435)
(-0.405082 0.833857 -0.34551)
(-0.414887 0.842558 -0.350709)
(-0.409034 0.840566 -0.342922)
(-0.398826 0.815637 -0.337098)
(-0.401941 0.835781 -0.341642)
(-0.391581 0.805173 -0.331986)
(-0.408174 0.841186 -0.340933)
(-0.395484 0.817403 -0.334177)
(-0.392174 0.808084 -0.333249)
(-0.373455 0.772648 -0.316232)
(-0.419874 0.864952 -0.347971)
(-0.421746 0.873958 -0.356521)
(-0.425082 0.873671 -0.3582)
(-0.42049 0.867347 -0.352679)
(-0.409879 0.850576 -0.350754)
(-0.38559 0.797993 -0.330006)
(-0.405888 0.839449 -0.338106)
(-0.373035 0.771697 -0.316284)
(-0.430471 0.885917 -0.365897)
(-0.427877 0.887313 -0.361884)
(-0.425506 0.869114 -0.35282)
(-0.392854 0.81262 -0.329643)
(-0.409332 0.846622 -0.349576)
(-0.284503 0.576541 -0.240419)
(-0.302242 0.604673 -0.244677)
(-0.276634 0.566139 -0.24576)
(-0.263564 0.52977 -0.227846)
(-0.359677 0.749727 -0.306368)
(-0.346643 0.711958 -0.282981)
(-0.306495 0.622872 -0.257733)
(-0.310055 0.609251 -0.261649)
(-0.32064 0.660655 -0.269528)
(-0.362652 0.744344 -0.305167)
(-0.362732 0.738379 -0.306759)
(-0.368554 0.758135 -0.310447)
(-0.360364 0.743434 -0.306626)
(-0.311566 0.647376 -0.264493)
(-0.291358 0.602639 -0.240333)
(-0.337521 0.691949 -0.284386)
(-0.380711 0.782155 -0.323362)
(-0.349582 0.715919 -0.294436)
(-0.323866 0.676401 -0.273044)
(-0.355269 0.724881 -0.297426)
(-0.303531 0.626691 -0.255282)
(-0.270339 0.545636 -0.229379)
(-0.281078 0.556871 -0.234317)
(-0.309208 0.606949 -0.249277)
(-0.288847 0.568143 -0.244326)
(-0.260229 0.516947 -0.218928)
(-0.29605 0.580008 -0.245413)
(-0.245839 0.493898 -0.2081)
(-0.296411 0.60111 -0.246713)
(-0.317285 0.645981 -0.270014)
(-0.266302 0.54946 -0.231845)
(-0.255699 0.52455 -0.224403)
(-0.308894 0.61976 -0.257541)
(-0.319629 0.63971 -0.265954)
(-0.27704 0.533446 -0.229824)
(-0.333936 0.678247 -0.285217)
(-0.341788 0.69409 -0.292699)
(-0.281547 0.56461 -0.24575)
(-0.288845 0.574213 -0.24871)
(-0.362773 0.718962 -0.303444)
(-0.372658 0.739623 -0.309037)
(-0.306517 0.606797 -0.256569)
(-0.345183 0.687089 -0.290361)
(-0.358529 0.708458 -0.298643)
(-0.292667 0.593558 -0.249364)
(-0.294641 0.596873 -0.251494)
(-0.349645 0.694995 -0.292589)
(-0.3013 0.608609 -0.249431)
(-0.308532 0.616812 -0.256544)
(-0.347823 0.688371 -0.288351)
(-0.360824 0.714974 -0.298462)
(-0.284117 0.580702 -0.245452)
(-0.305508 0.627966 -0.260897)
(-0.352085 0.721644 -0.305231)
(-0.356444 0.730244 -0.302483)
(-0.335901 0.687605 -0.288372)
(-0.304229 0.617412 -0.255001)
(-0.292126 0.592115 -0.248661)
(-0.259371 0.527706 -0.219087)
(-0.365222 0.744284 -0.311536)
(-0.298806 0.607531 -0.253379)
(-0.271527 0.552923 -0.227528)
(-0.349806 0.719045 -0.30188)
(-0.358586 0.730135 -0.302304)
(-0.295993 0.609922 -0.250329)
(-0.34684 0.700035 -0.287869)
(-0.320881 0.658583 -0.272565)
(-0.282451 0.57447 -0.237548)
(-0.257932 0.532087 -0.224539)
(-0.332997 0.687292 -0.292544)
(-0.309404 0.641523 -0.264426)
(-0.290103 0.594701 -0.25011)
(-0.253369 0.51555 -0.220278)
(-0.284935 0.575424 -0.240199)
(-0.276688 0.552955 -0.232007)
(-0.292128 0.578591 -0.24429)
(-0.271297 0.525483 -0.215665)
(-0.262092 0.535316 -0.225272)
(-0.273418 0.560466 -0.243047)
(-0.306662 0.622071 -0.267899)
(-0.302347 0.605195 -0.25482)
(-0.288446 0.574645 -0.240413)
(-0.272047 0.553625 -0.23123)
(-0.362702 0.714523 -0.302018)
(-0.352298 0.695988 -0.286225)
(-0.358136 0.720928 -0.301103)
(-0.346057 0.700258 -0.296952)
(-0.290217 0.586772 -0.246746)
(-0.363035 0.728705 -0.307796)
(-0.351192 0.703976 -0.29864)
(-0.332725 0.685636 -0.290851)
(-0.36654 0.7335 -0.310981)
(-0.344114 0.698663 -0.294004)
(-0.361232 0.720802 -0.304559)
(-0.354048 0.705792 -0.294614)
(-0.427337 0.875739 -0.357179)
(-0.427365 0.877282 -0.357295)
(-0.438221 0.888175 -0.362836)
(-0.434871 0.886632 -0.360404)
(-0.420612 0.858965 -0.347233)
(-0.42917 0.871998 -0.353664)
(-0.419627 0.850519 -0.344856)
(-0.406592 0.836465 -0.339326)
(-0.372881 0.759008 -0.320112)
(-0.347362 0.712159 -0.291331)
(-0.428865 0.868569 -0.353059)
(-0.41052 0.846845 -0.343732)
(-0.405246 0.837202 -0.342482)
(-0.388955 0.801547 -0.323725)
(-0.352513 0.712202 -0.285793)
(-0.366563 0.743151 -0.30478)
(-0.366226 0.749136 -0.30746)
(-0.36375 0.747862 -0.30278)
(-0.374264 0.754342 -0.308041)
(-0.384241 0.779826 -0.320134)
(-0.370341 0.755259 -0.305242)
(-0.353963 0.719131 -0.296614)
(-0.346664 0.711186 -0.290466)
(-0.399793 0.814836 -0.330823)
(-0.372622 0.754793 -0.309621)
(-0.357827 0.729284 -0.303631)
(-0.363485 0.740757 -0.309944)
(-0.338112 0.697584 -0.293029)
(-0.343023 0.701451 -0.298343)
(-0.277535 0.556603 -0.234562)
(-0.295686 0.606615 -0.255369)
(-0.34382 0.694668 -0.289538)
(-0.361112 0.72689 -0.305177)
(-0.280583 0.575006 -0.245146)
(-0.263543 0.525383 -0.222364)
(-0.286017 0.573632 -0.238383)
(-0.311578 0.639749 -0.266002)
(-0.291087 0.592287 -0.246975)
(-0.283046 0.56836 -0.235628)
(-0.270694 0.549271 -0.232832)
(-0.285075 0.57633 -0.241705)
(-0.251623 0.511593 -0.209221)
(-0.296864 0.602521 -0.253862)
(-0.335428 0.686452 -0.287801)
(-0.303657 0.629831 -0.262954)
(-0.341137 0.679331 -0.28751)
(-0.348415 0.702905 -0.292989)
(-0.356448 0.726149 -0.30253)
(-0.372428 0.757095 -0.316919)
(-0.407462 0.825416 -0.343627)
(-0.41192 0.833936 -0.351058)
(-0.411251 0.829063 -0.348919)
(-0.416186 0.839256 -0.353387)
(-0.375909 0.758588 -0.321566)
(-0.40147 0.807156 -0.339771)
(-0.363258 0.732069 -0.30929)
(-0.370892 0.7434 -0.313486)
(-0.298285 0.586118 -0.244506)
(-0.258117 0.509924 -0.212521)
(-0.340738 0.685806 -0.285916)
(-0.345047 0.681294 -0.28604)
(-0.275333 0.553906 -0.22714)
(-0.301004 0.598627 -0.249953)
(-0.347414 0.692627 -0.289266)
(-0.344719 0.689253 -0.283537)
(-0.277591 0.547327 -0.229832)
(-0.305324 0.600102 -0.246666)
(-0.258817 0.497182 -0.206229)
(-0.273865 0.544184 -0.223941)
(-0.289424 0.57064 -0.234573)
(-0.252169 0.488912 -0.204846)
(-0.313866 0.639297 -0.268268)
(-0.311775 0.632485 -0.263596)
(-0.366136 0.751413 -0.307264)
(-0.352782 0.712123 -0.292452)
(-0.357083 0.739024 -0.302016)
(-0.329759 0.690545 -0.275235)
(-0.302735 0.622163 -0.246732)
(-0.3014 0.618968 -0.25463)
(-0.293339 0.587117 -0.246355)
(-0.393144 0.79871 -0.323682)
(-0.369902 0.75661 -0.311196)
(-0.378946 0.769666 -0.318495)
(-0.392813 0.799732 -0.325708)
(-0.301446 0.619042 -0.254972)
(-0.391675 0.792747 -0.32329)
(-0.385157 0.786042 -0.324617)
(-0.347499 0.71688 -0.288753)
(-0.342829 0.711574 -0.285823)
(-0.369797 0.757102 -0.309142)
(-0.360777 0.736545 -0.300982)
(-0.359362 0.728204 -0.299384)
(-0.428113 0.861863 -0.359401)
(-0.423213 0.844749 -0.35566)
(-0.434465 0.871054 -0.362238)
(-0.427949 0.85755 -0.354999)
(-0.430508 0.863023 -0.35795)
(-0.436208 0.87983 -0.365963)
(-0.430929 0.864141 -0.359847)
(-0.418498 0.840772 -0.351649)
(-0.4355 0.87167 -0.362483)
(-0.426677 0.855634 -0.358715)
(-0.427157 0.86868 -0.361478)
(-0.405042 0.817105 -0.34485)
(-0.414506 0.829014 -0.347795)
(-0.416834 0.83133 -0.343376)
(-0.412904 0.828079 -0.345114)
(-0.431136 0.866583 -0.360914)
(-0.425721 0.852398 -0.359352)
(-0.41973 0.849505 -0.354142)
(-0.431902 0.867407 -0.3613)
(-0.428902 0.862741 -0.361204)
(-0.42618 0.857994 -0.358945)
(-0.430902 0.861333 -0.360928)
(-0.413215 0.81728 -0.343059)
(-0.401292 0.799346 -0.33641)
(-0.427823 0.859203 -0.361151)
(-0.410664 0.823064 -0.346157)
(-0.435825 0.882219 -0.362272)
(-0.439624 0.888789 -0.364905)
(-0.441229 0.889297 -0.366375)
(-0.429395 0.862374 -0.352552)
(-0.429773 0.872842 -0.356657)
(-0.429148 0.869824 -0.359401)
(-0.428493 0.869711 -0.357127)
(-0.43088 0.876655 -0.359973)
(-0.436618 0.884474 -0.362548)
(-0.43706 0.893066 -0.366014)
(-0.433607 0.886351 -0.365034)
(-0.431021 0.87213 -0.359411)
(-0.437179 0.889906 -0.366716)
(-0.440185 0.890747 -0.367272)
(-0.437234 0.892218 -0.365895)
(-0.412295 0.825098 -0.341293)
(-0.41704 0.826983 -0.342094)
(-0.423087 0.842725 -0.346288)
(-0.41929 0.836038 -0.343132)
(-0.421751 0.845459 -0.353745)
(-0.427401 0.858201 -0.354759)
(-0.413982 0.830825 -0.342327)
(-0.411829 0.825034 -0.340211)
(-0.418805 0.839434 -0.344406)
(-0.411864 0.819816 -0.34134)
(-0.436147 0.875473 -0.358855)
(-0.41912 0.839356 -0.349183)
(-0.410038 0.814484 -0.338139)
(-0.418849 0.83591 -0.345218)
(-0.436586 0.87043 -0.358646)
(-0.437238 0.871729 -0.360187)
(-0.433216 0.867843 -0.356788)
(-0.425133 0.84823 -0.351526)
(-0.463561 0.935788 -0.389331)
(-0.452321 0.918968 -0.385524)
(-0.45852 0.936971 -0.389605)
(-0.466543 0.942231 -0.391975)
(-0.465374 0.934993 -0.388696)
(-0.462688 0.935011 -0.387755)
(-0.45229 0.930466 -0.385342)
(-0.463254 0.932899 -0.385462)
(-0.463489 0.932581 -0.38703)
(-0.463878 0.933805 -0.389391)
(-0.461527 0.935015 -0.384844)
(-0.4505 0.929829 -0.381899)
(-0.462403 0.937735 -0.37961)
(-0.461228 0.941194 -0.385321)
(-0.459845 0.936663 -0.385666)
(-0.456545 0.933979 -0.377059)
(-0.460036 0.916656 -0.383026)
(-0.441954 0.897476 -0.368907)
(-0.433115 0.883644 -0.361543)
(-0.438739 0.88994 -0.366087)
(-0.44035 0.891921 -0.368597)
(-0.431583 0.877597 -0.36003)
(-0.439367 0.888086 -0.366556)
(-0.429812 0.864775 -0.354006)
(-0.431702 0.879678 -0.356276)
(-0.445878 0.893922 -0.366619)
(-0.429382 0.866877 -0.353181)
(-0.438086 0.880349 -0.360992)
(-0.42723 0.857417 -0.349188)
(-0.444389 0.898325 -0.369521)
(-0.43543 0.882633 -0.360461)
(-0.442929 0.89159 -0.367223)
(-0.381461 0.768077 -0.31571)
(-0.390118 0.796238 -0.325814)
(-0.36497 0.717989 -0.303986)
(-0.386249 0.77726 -0.320801)
(-0.374819 0.747381 -0.316281)
(-0.390201 0.768861 -0.316502)
(-0.37799 0.755205 -0.316351)
(-0.42081 0.834711 -0.354349)
(-0.410117 0.820292 -0.344957)
(-0.398986 0.797276 -0.335317)
(-0.400256 0.800227 -0.334783)
(-0.409739 0.81238 -0.34007)
(-0.430681 0.860273 -0.364766)
(-0.427667 0.854313 -0.358443)
(-0.40477 0.806043 -0.331669)
(-0.416575 0.826017 -0.34291)
(-0.419566 0.836122 -0.345625)
(-0.418406 0.831728 -0.343767)
(-0.431672 0.861731 -0.35453)
(-0.430219 0.865676 -0.356588)
(-0.404494 0.803463 -0.331503)
(-0.419878 0.837971 -0.344219)
(-0.428607 0.862749 -0.355469)
(-0.432462 0.865347 -0.358464)
(-0.42487 0.853758 -0.351829)
(-0.42686 0.849377 -0.350523)
(-0.40066 0.801135 -0.331277)
(-0.423882 0.844566 -0.353917)
(-0.423492 0.839381 -0.353354)
(-0.400096 0.795123 -0.333905)
(-0.418496 0.834846 -0.347732)
(-0.408815 0.815505 -0.340228)
(-0.415626 0.824506 -0.33841)
(-0.404841 0.806303 -0.33505)
(-0.377604 0.753108 -0.312896)
(-0.367031 0.738394 -0.303575)
(-0.38926 0.792607 -0.326737)
(-0.418899 0.843515 -0.355165)
(-0.408189 0.828272 -0.346972)
(-0.38155 0.773268 -0.321184)
(-0.3794 0.774198 -0.316411)
(-0.357843 0.720524 -0.296199)
(-0.367266 0.743223 -0.310411)
(-0.386349 0.781371 -0.32371)
(-0.384078 0.781599 -0.32378)
(-0.414239 0.836588 -0.347758)
(-0.420319 0.8523 -0.356248)
(-0.426909 0.867802 -0.358584)
(-0.419859 0.853296 -0.357176)
(-0.420279 0.842485 -0.353814)
(-0.41099 0.839716 -0.348473)
(-0.37573 0.764964 -0.322087)
(-0.367768 0.738793 -0.311525)
(-0.415218 0.836045 -0.346451)
(-0.380528 0.773199 -0.322376)
(-0.404978 0.815453 -0.340541)
(-0.349808 0.714097 -0.294003)
(-0.359229 0.74521 -0.309638)
(-0.40474 0.834201 -0.343188)
(-0.406568 0.834798 -0.345778)
(-0.375883 0.761852 -0.315032)
(-0.361971 0.745281 -0.307848)
(-0.3469 0.704736 -0.295425)
(-0.411377 0.850077 -0.351856)
(-0.421528 0.874256 -0.356728)
(-0.414328 0.853249 -0.351432)
(-0.37508 0.773628 -0.318783)
(-0.351407 0.718703 -0.295207)
(-0.404632 0.830276 -0.343505)
(-0.402682 0.827953 -0.34081)
(-0.403898 0.837397 -0.348216)
(-0.404899 0.827845 -0.340982)
(-0.41878 0.862399 -0.355504)
(-0.357533 0.729116 -0.303121)
(-0.374369 0.762182 -0.318574)
(-0.371765 0.760944 -0.315485)
(-0.350761 0.717805 -0.293182)
(-0.368807 0.755681 -0.312949)
(-0.302548 0.625737 -0.259083)
(-0.279142 0.570119 -0.24409)
(-0.280458 0.577932 -0.239685)
(-0.283558 0.580251 -0.245902)
(-0.27428 0.556705 -0.233284)
(-0.259723 0.533597 -0.22094)
(-0.349282 0.700846 -0.292877)
(-0.295018 0.608712 -0.253098)
(-0.264094 0.537972 -0.227837)
(-0.339888 0.6775 -0.28282)
(-0.353126 0.722443 -0.300477)
(-0.387898 0.794065 -0.33495)
(-0.341957 0.699079 -0.29503)
(-0.296059 0.594224 -0.254486)
(-0.261669 0.54395 -0.23362)
(-0.308238 0.632348 -0.262824)
(-0.335439 0.682531 -0.287616)
(-0.28921 0.608333 -0.253124)
(-0.286205 0.585771 -0.245175)
(-0.373748 0.76615 -0.315059)
(-0.376418 0.760738 -0.315741)
(-0.315451 0.634563 -0.2672)
(-0.308213 0.621135 -0.254402)
(-0.393828 0.806278 -0.335687)
(-0.367076 0.750431 -0.308719)
(-0.337881 0.680403 -0.279305)
(-0.401182 0.823935 -0.341564)
(-0.38906 0.790579 -0.327639)
(-0.351816 0.723855 -0.299817)
(-0.356766 0.723063 -0.299978)
(-0.394109 0.81207 -0.333539)
(-0.357847 0.730136 -0.303389)
(-0.384466 0.790396 -0.327539)
(-0.310202 0.630566 -0.262117)
(-0.36156 0.739103 -0.303926)
(-0.387159 0.795561 -0.326782)
(-0.392201 0.801862 -0.331181)
(-0.341338 0.692666 -0.287697)
(-0.294166 0.593705 -0.246702)
(-0.288395 0.588584 -0.24543)
(-0.342213 0.705368 -0.287848)
(-0.365122 0.739861 -0.302189)
(-0.307611 0.617246 -0.256817)
(-0.385041 0.771959 -0.313531)
(-0.379559 0.750473 -0.309197)
(-0.373649 0.739977 -0.304828)
(-0.360006 0.711653 -0.301211)
(-0.410262 0.819231 -0.336829)
(-0.405616 0.804114 -0.333253)
(-0.374615 0.741407 -0.307564)
(-0.387142 0.768374 -0.321491)
(-0.412985 0.82156 -0.336424)
(-0.37498 0.752116 -0.310948)
(-0.362941 0.726728 -0.301219)
(-0.378176 0.753338 -0.307452)
(-0.367573 0.72968 -0.300345)
(-0.365711 0.737524 -0.306236)
(-0.366296 0.731912 -0.302533)
(-0.385947 0.765607 -0.315396)
(-0.429152 0.876729 -0.355605)
(-0.428152 0.879959 -0.35832)
(-0.434772 0.881374 -0.35773)
(-0.427036 0.873333 -0.3535)
(-0.420674 0.863834 -0.353335)
(-0.423886 0.876458 -0.353495)
(-0.454934 0.927389 -0.376555)
(-0.461483 0.937481 -0.381621)
(-0.444589 0.909937 -0.367221)
(-0.437028 0.899169 -0.365339)
(-0.455643 0.934625 -0.385986)
(-0.436801 0.901856 -0.369588)
(-0.429225 0.883456 -0.357837)
(-0.436022 0.899892 -0.368742)
(-0.454072 0.928385 -0.378183)
(-0.449216 0.918037 -0.372916)
(-0.450735 0.921591 -0.375818)
(-0.460106 0.935898 -0.383876)
(-0.365087 0.74139 -0.302356)
(-0.333227 0.663837 -0.27248)
(-0.354189 0.723774 -0.295463)
(-0.372487 0.769095 -0.309009)
(-0.336201 0.692698 -0.27754)
(-0.330113 0.676231 -0.270857)
(-0.3818 0.782888 -0.312655)
(-0.367194 0.74231 -0.29861)
(-0.3859 0.764837 -0.316915)
(-0.349714 0.701397 -0.294305)
(-0.34387 0.681076 -0.283551)
(-0.374627 0.745599 -0.308964)
(-0.366662 0.729739 -0.302307)
(-0.40369 0.805318 -0.336215)
(-0.426925 0.853206 -0.358136)
(-0.35041 0.694563 -0.289267)
(-0.373885 0.737096 -0.309936)
(-0.352824 0.689571 -0.292582)
(-0.369768 0.712249 -0.300457)
(-0.379062 0.761676 -0.316907)
(-0.381353 0.767233 -0.32156)
(-0.407488 0.821043 -0.346408)
(-0.428702 0.852013 -0.354551)
(-0.41989 0.837558 -0.352003)
(-0.399226 0.789884 -0.329314)
(-0.361012 0.715386 -0.299677)
(-0.370393 0.738388 -0.302748)
(-0.360703 0.716004 -0.299063)
(-0.403175 0.800825 -0.337006)
(-0.40721 0.808148 -0.336986)
(-0.397668 0.795295 -0.335373)
(-0.368819 0.735319 -0.310357)
(-0.424906 0.848432 -0.351031)
(-0.409126 0.81664 -0.338891)
(-0.42486 0.852701 -0.354577)
(-0.42899 0.848586 -0.356066)
(-0.402818 0.800283 -0.328506)
(-0.403731 0.797075 -0.327529)
(-0.423242 0.848705 -0.350601)
(-0.3778 0.759809 -0.317581)
(-0.374383 0.746796 -0.315717)
(-0.425622 0.84745 -0.355573)
(-0.421652 0.842649 -0.35239)
(-0.423468 0.852168 -0.355363)
(-0.398857 0.795434 -0.332381)
(-0.399474 0.793889 -0.328958)
(-0.37749 0.7471 -0.311563)
(-0.417823 0.827151 -0.345726)
(-0.409537 0.807739 -0.33797)
(-0.395565 0.810708 -0.336161)
(-0.407299 0.835518 -0.340331)
(-0.407893 0.838216 -0.341151)
(-0.401634 0.818814 -0.33922)
(-0.351067 0.717561 -0.297189)
(-0.374854 0.76435 -0.319305)
(-0.406157 0.831949 -0.344155)
(-0.340701 0.696148 -0.290366)
(-0.375592 0.762016 -0.315515)
(-0.365997 0.746482 -0.309879)
(-0.268721 0.543387 -0.226894)
(-0.241197 0.481909 -0.205247)
(-0.272009 0.538418 -0.223593)
(-0.236889 0.474328 -0.203368)
(-0.297324 0.594581 -0.250186)
(-0.272429 0.547558 -0.230872)
(-0.302603 0.595178 -0.251171)
(-0.305924 0.606461 -0.258153)
(-0.261399 0.526163 -0.225399)
(-0.29946 0.592677 -0.255038)
(-0.339789 0.670438 -0.289659)
(-0.334933 0.652269 -0.285599)
(-0.286117 0.578384 -0.245259)
(-0.319176 0.637081 -0.269797)
(-0.326655 0.659883 -0.279167)
(-0.369551 0.7316 -0.309559)
(-0.362382 0.735146 -0.309171)
(-0.2963 0.604289 -0.253026)
(-0.284646 0.560873 -0.236316)
(-0.303744 0.618779 -0.261956)
(-0.287695 0.582392 -0.237509)
(-0.361294 0.732056 -0.307519)
(-0.258857 0.518247 -0.213376)
(-0.282606 0.563631 -0.235791)
(-0.309396 0.616134 -0.260863)
(-0.282535 0.565185 -0.241486)
(-0.305136 0.629755 -0.26002)
(-0.290745 0.583627 -0.237928)
(-0.428158 0.856277 -0.358315)
(-0.431376 0.860669 -0.360661)
(-0.403708 0.803076 -0.333773)
(-0.413127 0.83068 -0.346287)
(-0.425133 0.855287 -0.352671)
(-0.441993 0.887698 -0.368685)
(-0.407009 0.812403 -0.337297)
(-0.428715 0.857176 -0.357646)
(-0.402742 0.811316 -0.343779)
(-0.393021 0.787523 -0.327037)
(-0.447305 0.900242 -0.370527)
(-0.434501 0.87389 -0.362894)
(-0.442818 0.88984 -0.369711)
(-0.426827 0.84568 -0.351413)
(-0.416061 0.835778 -0.343187)
(-0.412787 0.821838 -0.341204)
(-0.269124 0.545895 -0.219981)
(-0.287739 0.590952 -0.236372)
(-0.265172 0.550904 -0.22371)
(-0.237516 0.489607 -0.202097)
(-0.289506 0.591988 -0.24232)
(-0.26828 0.560672 -0.236083)
(-0.275211 0.556556 -0.221226)
(-0.265226 0.539179 -0.219335)
(-0.30018 0.601637 -0.251355)
(-0.325311 0.659575 -0.272877)
(-0.297062 0.601681 -0.244217)
(-0.274061 0.573446 -0.229803)
(-0.236123 0.477495 -0.20499)
(-0.277587 0.562227 -0.235615)
(-0.400603 0.79741 -0.338934)
(-0.407268 0.813747 -0.344157)
(-0.396882 0.790275 -0.329966)
(-0.364583 0.729193 -0.30436)
(-0.362322 0.715733 -0.309616)
(-0.353825 0.696906 -0.296166)
(-0.394131 0.787726 -0.328679)
(-0.346859 0.704886 -0.292959)
(-0.368596 0.730528 -0.302782)
(-0.329462 0.650988 -0.273555)
(-0.328722 0.658681 -0.280433)
(-0.358739 0.712323 -0.306073)
(-0.374331 0.742111 -0.309515)
(-0.418462 0.825976 -0.346444)
(-0.350869 0.705917 -0.298751)
(-0.323997 0.643299 -0.27294)
(-0.319633 0.649303 -0.275323)
(-0.362706 0.724228 -0.307888)
(-0.358457 0.701731 -0.296115)
(-0.319434 0.63053 -0.263172)
(-0.412367 0.805443 -0.343953)
(-0.40337 0.78835 -0.339586)
(-0.423653 0.839836 -0.352467)
(-0.390523 0.768758 -0.327187)
(-0.388613 0.76859 -0.327565)
(-0.409644 0.810953 -0.342886)
(-0.435761 0.872628 -0.361749)
(-0.428103 0.867638 -0.362367)
(-0.426777 0.86319 -0.359029)
(-0.431138 0.864822 -0.360369)
(-0.424748 0.854866 -0.355675)
(-0.422026 0.847153 -0.356267)
(-0.434394 0.879108 -0.365338)
(-0.429831 0.866395 -0.361603)
(-0.418087 0.841865 -0.350635)
(-0.426852 0.859601 -0.360653)
(-0.374526 0.765078 -0.311559)
(-0.377723 0.77577 -0.313088)
(-0.421218 0.863192 -0.352891)
(-0.406458 0.833185 -0.343649)
(-0.409225 0.826322 -0.343634)
(-0.406486 0.816078 -0.334938)
(-0.357811 0.730078 -0.300623)
(-0.347349 0.707165 -0.291922)
(-0.360897 0.740353 -0.308371)
(-0.348183 0.705467 -0.295653)
(-0.350605 0.738908 -0.299381)
(-0.351637 0.727878 -0.29952)
(-0.365937 0.758984 -0.310686)
(-0.356219 0.72745 -0.312654)
(-0.3628 0.737289 -0.315007)
(-0.352885 0.717184 -0.304051)
(-0.340543 0.69035 -0.294449)
(-0.395794 0.798294 -0.330653)
(-0.397303 0.801425 -0.33764)
(-0.356866 0.719141 -0.305219)
(-0.369561 0.748717 -0.313286)
(-0.387185 0.783993 -0.328928)
(-0.337216 0.676353 -0.286667)
(-0.349828 0.706642 -0.298157)
(-0.35396 0.721876 -0.304652)
(-0.361245 0.724123 -0.307783)
(-0.353863 0.70887 -0.299884)
(-0.392548 0.793561 -0.331677)
(-0.340756 0.698597 -0.28926)
(-0.406878 0.822745 -0.345083)
(-0.403335 0.811293 -0.337746)
(-0.370629 0.739216 -0.311006)
(-0.400827 0.806361 -0.339096)
(-0.398652 0.79486 -0.330283)
(-0.353458 0.716244 -0.290949)
(-0.375332 0.764966 -0.315438)
(-0.36228 0.723952 -0.295623)
(-0.374663 0.766221 -0.314011)
(-0.361908 0.727277 -0.297265)
(-0.351098 0.704383 -0.288192)
(-0.395531 0.793468 -0.328017)
(-0.369414 0.755524 -0.308466)
(-0.31146 0.63116 -0.25542)
(-0.29725 0.603311 -0.247682)
(-0.337877 0.680226 -0.281075)
(-0.329449 0.669415 -0.27415)
(-0.322907 0.653032 -0.271068)
(-0.295773 0.595906 -0.246166)
(-0.314367 0.641409 -0.263513)
(-0.288165 0.591431 -0.245165)
(-0.272312 0.551703 -0.227834)
(-0.336415 0.670808 -0.279035)
(-0.292476 0.60248 -0.251778)
(-0.265223 0.549159 -0.230616)
(-0.432904 0.881833 -0.362766)
(-0.412527 0.849581 -0.341156)
(-0.43472 0.884525 -0.366679)
(-0.422024 0.86395 -0.353669)
(-0.43142 0.87721 -0.363874)
(-0.430684 0.8782 -0.361501)
(-0.418535 0.857078 -0.351289)
(-0.413072 0.843979 -0.349505)
(-0.325641 0.653504 -0.264741)
(-0.299297 0.602596 -0.251623)
(-0.366227 0.738379 -0.306046)
(-0.343189 0.704224 -0.287636)
(-0.274857 0.553969 -0.228658)
(-0.319057 0.646983 -0.266719)
(-0.374792 0.744635 -0.303667)
(-0.396665 0.790542 -0.323635)
(-0.309048 0.615083 -0.250157)
(-0.282569 0.567655 -0.235289)
(-0.323201 0.640124 -0.26183)
(-0.366938 0.734955 -0.30535)
(-0.364964 0.733146 -0.305743)
(-0.309564 0.630882 -0.250981)
(-0.262382 0.530455 -0.219895)
(-0.300174 0.61401 -0.24999)
(-0.309372 0.624266 -0.254083)
(-0.267789 0.549017 -0.228756)
(-0.365526 0.731168 -0.300614)
(-0.389191 0.781072 -0.31983)
(-0.372329 0.749891 -0.304605)
(-0.377243 0.756699 -0.312277)
(-0.348066 0.716289 -0.292538)
(-0.347407 0.716869 -0.299941)
(-0.37022 0.762624 -0.314213)
(-0.371293 0.767609 -0.312509)
(-0.368994 0.749735 -0.306926)
(-0.312958 0.639677 -0.262749)
(-0.301262 0.612251 -0.254141)
(-0.300367 0.613399 -0.257421)
(-0.390228 0.794021 -0.327525)
(-0.368842 0.762624 -0.313941)
(-0.366567 0.754639 -0.30685)
(-0.344195 0.714567 -0.292654)
(-0.310468 0.634481 -0.266175)
(-0.312056 0.640262 -0.26535)
(-0.393573 0.796452 -0.32966)
(-0.352844 0.725396 -0.299951)
(-0.366914 0.755369 -0.311914)
(-0.279756 0.569257 -0.233996)
(-0.250999 0.519567 -0.207531)
(-0.275068 0.558966 -0.231677)
(-0.261159 0.539557 -0.221429)
(-0.276696 0.56573 -0.228777)
(-0.299698 0.616083 -0.254625)
(-0.284354 0.578534 -0.239084)
(-0.303111 0.61268 -0.249382)
(-0.350653 0.71802 -0.295225)
(-0.338523 0.696493 -0.292273)
(-0.372704 0.737836 -0.30597)
(-0.386304 0.76241 -0.317245)
(-0.382518 0.777116 -0.313884)
(-0.348871 0.693257 -0.292161)
(-0.419463 0.834475 -0.343857)
(-0.368837 0.747321 -0.301426)
(-0.385775 0.756751 -0.316431)
(-0.355291 0.706086 -0.294862)
(-0.392126 0.777286 -0.322337)
(-0.419525 0.842076 -0.347754)
(-0.421052 0.836086 -0.345831)
(-0.409769 0.819203 -0.334867)
(-0.375251 0.740352 -0.306765)
(-0.354719 0.706643 -0.290886)
(-0.373203 0.746274 -0.307938)
(-0.345458 0.694379 -0.28636)
(-0.385789 0.767041 -0.316267)
(-0.378369 0.748923 -0.310075)
(-0.409876 0.82379 -0.343876)
(-0.30884 0.619914 -0.256345)
(-0.273658 0.544883 -0.229337)
(-0.273947 0.556637 -0.232153)
(-0.244902 0.469562 -0.202343)
(-0.330124 0.65583 -0.276713)
(-0.290714 0.580819 -0.245861)
(-0.245712 0.478311 -0.201982)
(-0.256988 0.517884 -0.21022)
(-0.275691 0.550227 -0.232416)
(-0.252852 0.491828 -0.210918)
(-0.299662 0.610638 -0.257325)