/*--------------------------------*- C++ -*----------------------------------*\
| =========                 |                                                 |
| \\      /  F ield         | OpenFOAM: The Open Source CFD Toolbox           |
|  \\    /   O peration     | Version:  v1612+                                |
|   \\  /    A nd           | Web:      www.OpenFOAM.com                      |
|    \\/     M anipulation  |                                                 |
\*---------------------------------------------------------------------------*/
FoamFile
{
    version     2.0;
    format      ascii;
    class       volVectorField;
    location    "150";
    object      wallShearStress;
}
// * * * * * * * * * * * * * * * * * * * * * * * * * * * * * * * * * * * * * //

dimensions      [0 2 -2 0 0 0 0];

internalField   uniform (0 0 0);

boundaryField
{
    WALL
    {
        type            calculated;
        value           nonuniform List<vector> 
1683
(
(0.00564172 -0.01105 0.0044632)
(0.00626407 -0.0119382 0.00464357)
(0.00594459 -0.0117907 0.00488251)
(0.00561668 -0.0114164 0.0051858)
(0.00577033 -0.0114565 0.00458399)
(0.00554104 -0.0115454 0.00494353)
(0.00567417 -0.0115631 0.00482078)
(0.00642542 -0.0123799 0.00531287)
(0.00564829 -0.0115562 0.004826)
(0.00584089 -0.0115193 0.0048192)
(0.00631978 -0.0122055 0.00499698)
(0.00569687 -0.011192 0.0046819)
(0.00576844 -0.0114408 0.00468771)
(0.00570493 -0.0115842 0.00493285)
(0.00578773 -0.0114733 0.00464579)
(0.0058171 -0.0114711 0.00470525)
(0.00580426 -0.0119253 0.00504085)
(0.00557156 -0.0111008 0.00460102)
(0.00592098 -0.0120065 0.00491236)
(0.00596072 -0.0122984 0.00512237)
(0.00598896 -0.0119226 0.00481063)
(0.00629029 -0.0117774 0.00565048)
(0.00674814 -0.0124348 0.00563464)
(0.00540663 -0.0112853 0.00475885)
(0.00568409 -0.0112192 0.00480672)
(0.00608468 -0.0121993 0.00490579)
(0.00588735 -0.0118537 0.00533754)
(0.00562613 -0.0113391 0.00469076)
(0.00560659 -0.0115508 0.00489907)
(0.00577607 -0.0115258 0.00475001)
(0.00558484 -0.0115457 0.0046143)
(0.00573418 -0.0115506 0.00480069)
(0.00600417 -0.0119866 0.0048594)
(0.00585721 -0.0112945 0.00474837)
(0.0059023 -0.0117323 0.00493243)
(0.00632986 -0.0123279 0.00519988)
(0.0060173 -0.0121393 0.00494555)
(0.00553001 -0.0118661 0.00526319)
(0.00565058 -0.0117405 0.0049631)
(0.00616363 -0.0121024 0.00489622)
(0.00597181 -0.0121335 0.00514461)
(0.00554804 -0.0115016 0.00490345)
(0.00616264 -0.0121888 0.00501183)
(0.00543513 -0.0113432 0.00466055)
(0.00551118 -0.0114342 0.00470829)
(0.00575917 -0.0114292 0.00476327)
(0.00595143 -0.0115956 0.00473062)
(0.00593719 -0.0120794 0.00480698)
(0.00556909 -0.0113092 0.00479044)
(0.00558574 -0.0114009 0.00488359)
(0.00573343 -0.011746 0.00496596)
(0.0055649 -0.0113587 0.00496755)
(0.00568811 -0.0116399 0.00512952)
(0.00588055 -0.0119819 0.0051428)
(0.0059592 -0.0118064 0.00488917)
(0.00597237 -0.0118782 0.00506832)
(0.00626098 -0.0123929 0.00514745)
(0.00552093 -0.0118493 0.00513783)
(0.00582134 -0.0120636 0.00491127)
(0.00684358 -0.0134068 0.00549938)
(0.00672597 -0.0125204 0.00534931)
(0.0061103 -0.0129948 0.00555723)
(0.00557517 -0.0118607 0.00490829)
(0.00573025 -0.0122535 0.00503462)
(0.00645916 -0.011887 0.00512791)
(0.0060715 -0.0122652 0.00507426)
(0.00575362 -0.0117269 0.00515387)
(0.00607144 -0.0119574 0.0050123)
(0.00658455 -0.0125967 0.00507323)
(0.00584234 -0.0116897 0.00517616)
(0.00597727 -0.0119989 0.00512211)
(0.00621323 -0.0122495 0.00507607)
(0.0058771 -0.0119977 0.00490003)
(0.0058014 -0.0118104 0.00484515)
(0.00582978 -0.0115652 0.0050586)
(0.00524156 -0.0109121 0.00487243)
(0.00593507 -0.0117867 0.00515617)
(0.00626625 -0.0122689 0.00507173)
(0.00580953 -0.0119989 0.00516845)
(0.00595685 -0.0112996 0.00468096)
(0.005658 -0.0114748 0.00501885)
(0.00578485 -0.0113853 0.0046937)
(0.00616054 -0.0121062 0.00540491)
(0.00575398 -0.0120529 0.00481083)
(0.00609048 -0.0120469 0.00523373)
(0.00564732 -0.0116081 0.0048556)
(0.00630805 -0.0127095 0.00529757)
(0.00596754 -0.0116969 0.00527887)
(0.00622526 -0.012316 0.00530371)
(0.00580335 -0.0116414 0.00500285)
(0.00581971 -0.0116132 0.00488471)
(0.00659044 -0.0122201 0.00548579)
(0.00616207 -0.0116705 0.00500721)
(0.0057227 -0.0111664 0.00487151)
(0.00572776 -0.0115406 0.00469232)
(0.00583864 -0.0114548 0.00480159)
(0.0058155 -0.0115916 0.00479754)
(0.00621342 -0.0123256 0.00494174)
(0.00531432 -0.010605 0.00457002)
(0.00616819 -0.0116958 0.00495896)
(0.00571473 -0.0118305 0.00452492)
(0.00561632 -0.0115539 0.00469331)
(0.00625361 -0.011602 0.00522326)
(0.00539478 -0.010954 0.00470378)
(0.00591121 -0.0117042 0.00477034)
(0.00582702 -0.0117643 0.00486594)
(0.00594871 -0.0121554 0.00478689)
(0.00613926 -0.0124776 0.00506277)
(0.00605123 -0.012338 0.00503967)
(0.0055523 -0.0111982 0.00505327)
(0.00561074 -0.0115728 0.00498538)
(0.00567299 -0.0115004 0.0050254)
(0.00597302 -0.0120105 0.00512845)
(0.00587936 -0.0123131 0.00512969)
(0.00609322 -0.0118271 0.00468299)
(0.00568254 -0.0117056 0.00500824)
(0.00609046 -0.0123363 0.00531346)
(0.00604074 -0.0120979 0.00502798)
(0.00561767 -0.0117943 0.00472841)
(0.00585219 -0.0121849 0.00520852)
(0.00561911 -0.0112 0.00464921)
(0.00567996 -0.0115248 0.00487356)
(0.00559683 -0.0117146 0.00483355)
(0.00586475 -0.0116217 0.00495301)
(0.00583882 -0.0118051 0.00480634)
(0.00603225 -0.0122816 0.00514411)
(0.00597963 -0.0117533 0.00450661)
(0.00558907 -0.0112232 0.00447338)
(0.00565872 -0.0113369 0.00471274)
(0.00560263 -0.0113786 0.00480646)
(0.00583497 -0.011908 0.00484655)
(0.00590999 -0.0119941 0.00478275)
(0.00563976 -0.0112799 0.00468073)
(0.00583332 -0.011779 0.00462963)
(0.00590929 -0.0117143 0.00469662)
(0.00586305 -0.0121208 0.00533761)
(0.00541973 -0.0111484 0.00428295)
(0.00573742 -0.0115297 0.00446338)
(0.00539897 -0.0110359 0.00469148)
(0.00561058 -0.0112309 0.00479289)
(0.00568467 -0.0115346 0.00453482)
(0.00583969 -0.0116258 0.00442441)
(0.00542664 -0.0114251 0.00480591)
(0.00569837 -0.011248 0.00468431)
(0.00632392 -0.0122435 0.00496691)
(0.0057987 -0.011207 0.00457655)
(0.00556016 -0.0113634 0.004936)
(0.00616034 -0.0118284 0.00487035)
(0.00562962 -0.0118759 0.0050467)
(0.00612617 -0.0122355 0.00504274)
(0.00571854 -0.0118646 0.00503357)
(0.00587161 -0.0117774 0.00479031)
(0.00595998 -0.0121385 0.00514456)
(0.00563834 -0.0116259 0.00475701)
(0.00622423 -0.0126138 0.00477542)
(0.00578957 -0.0115301 0.00509765)
(0.0063964 -0.0123615 0.00489825)
(0.00609921 -0.0121605 0.00496613)
(0.00591764 -0.0120896 0.00471174)
(0.00579144 -0.01142 0.00461165)
(0.00580902 -0.0115766 0.00479229)
(0.00578499 -0.0113852 0.00452487)
(0.00576494 -0.0114657 0.00466745)
(0.00580606 -0.0115116 0.00478476)
(0.00575091 -0.0116742 0.0048211)
(0.00610294 -0.0123071 0.00500629)
(0.00592941 -0.0116872 0.00504691)
(0.00590554 -0.0120292 0.00460136)
(0.00592018 -0.0119626 0.00509882)
(0.00577005 -0.0114877 0.0049594)
(0.00611001 -0.0122993 0.00491326)
(0.00600654 -0.0122804 0.00511727)
(0.00589391 -0.0121211 0.00516366)
(0.00588756 -0.0120583 0.00513848)
(0.00608293 -0.0122571 0.00508064)
(0.00597532 -0.0121647 0.00509726)
(0.00614742 -0.0124415 0.00516033)
(0.00569385 -0.0119198 0.00536468)
(0.00618054 -0.0121904 0.00477991)
(0.0062593 -0.012793 0.00539556)
(0.00637923 -0.0132908 0.00539463)
(0.00657342 -0.0129807 0.00491999)
(0.00590111 -0.0116864 0.00492238)
(0.00590867 -0.0118183 0.00502395)
(0.00550675 -0.0118058 0.00521696)
(0.00549025 -0.0118093 0.00517823)
(0.0063027 -0.0121747 0.00515555)
(0.00623022 -0.0120202 0.00498399)
(0.00613798 -0.0121565 0.00514261)
(0.00592873 -0.0120137 0.00504371)
(0.0059648 -0.0116347 0.0048533)
(0.0058016 -0.0117548 0.00501119)
(0.00596797 -0.011856 0.00491602)
(0.00563326 -0.0117369 0.00499092)
(0.00571809 -0.0117592 0.0049708)
(0.00588469 -0.0116079 0.00482102)
(0.00603349 -0.0118329 0.00498681)
(0.00569794 -0.0116099 0.0049446)
(0.00602025 -0.012094 0.00512798)
(0.00605212 -0.0117924 0.00480179)
(0.0060108 -0.0118716 0.00496534)
(0.00588932 -0.011795 0.00484155)
(0.00605148 -0.0120211 0.00500331)
(0.00590048 -0.0118556 0.00480604)
(0.00594614 -0.0119483 0.00480963)
(0.00590452 -0.0117444 0.00482721)
(0.0059373 -0.0118595 0.00484699)
(0.00578691 -0.0117106 0.00495194)
(0.00578434 -0.0121212 0.00488457)
(0.00586438 -0.0120816 0.0048409)
(0.00555542 -0.011351 0.00479961)
(0.00593599 -0.0118901 0.00487944)
(0.00566711 -0.0115006 0.00482762)
(0.00546143 -0.0113402 0.00475005)
(0.00579194 -0.0117144 0.00489218)
(0.00560489 -0.0116402 0.00489547)
(0.00559458 -0.0114746 0.00479611)
(0.0055635 -0.0113175 0.00475456)
(0.00607481 -0.0116126 0.00494161)
(0.00586875 -0.0119126 0.00509643)
(0.00583758 -0.0119068 0.0050389)
(0.00573565 -0.0117654 0.00506725)
(0.00587805 -0.0116217 0.00487646)
(0.0059533 -0.0112453 0.00461053)
(0.00600841 -0.0114079 0.00464291)
(0.00615956 -0.0117544 0.00473385)
(0.00612788 -0.0119237 0.00483561)
(0.00579606 -0.0111904 0.00457422)
(0.00574789 -0.0118458 0.00483297)
(0.00537451 -0.0119103 0.00507512)
(0.00564621 -0.0113846 0.00484332)
(0.00627613 -0.0119657 0.00500653)
(0.00597334 -0.0120631 0.00497919)
(0.00644951 -0.0118168 0.00513069)
(0.00604842 -0.0121435 0.00534738)
(0.00586097 -0.0115698 0.00489328)
(0.00578937 -0.0110943 0.00460436)
(0.0056357 -0.011274 0.00466711)
(0.00602902 -0.0120176 0.00515929)
(0.00662455 -0.0122766 0.00529521)
(0.00634238 -0.0116565 0.0050983)
(0.00659238 -0.0115869 0.00502854)
(0.00585457 -0.0121279 0.00510316)
(0.00603068 -0.0116874 0.00482807)
(0.00610677 -0.0116203 0.00500985)
(0.00534608 -0.0113526 0.00476761)
(0.00546656 -0.0114101 0.00468796)
(0.00575051 -0.0116945 0.00496839)
(0.00579141 -0.011726 0.0048211)
(0.00619607 -0.0116989 0.00509489)
(0.00530698 -0.0106711 0.00449621)
(0.00532236 -0.0115015 0.00482475)
(0.00603765 -0.0114988 0.00492328)
(0.00593881 -0.0113043 0.00460731)
(0.00582953 -0.0123826 0.00524947)
(0.00600007 -0.0123497 0.00515372)
(0.00560473 -0.0126706 0.00522775)
(0.0057885 -0.0121533 0.00483363)
(0.00610202 -0.011869 0.00471675)
(0.00577515 -0.011745 0.00465015)
(0.0059175 -0.0119827 0.00501035)
(0.00603527 -0.0118959 0.00505982)
(0.00611915 -0.012063 0.0052736)
(0.00591374 -0.0119625 0.00470937)
(0.00627947 -0.0125092 0.00515159)
(0.00610695 -0.0121859 0.00478715)
(0.00591808 -0.0117183 0.00482425)
(0.00621721 -0.0121042 0.00483626)
(0.00585171 -0.0117388 0.00494422)
(0.0057549 -0.0120469 0.00521058)
(0.00617503 -0.0121922 0.00521372)
(0.00559027 -0.0117021 0.00521576)
(0.00636664 -0.0117013 0.00458004)
(0.00543758 -0.0115446 0.00505143)
(0.00591101 -0.0121816 0.00522297)
(0.00639351 -0.0126099 0.00522508)
(0.00604543 -0.0121426 0.00462684)
(0.0059397 -0.0118537 0.005262)
(0.00641063 -0.0122009 0.00484199)
(0.00630512 -0.0125871 0.00493174)
(0.00586381 -0.0121926 0.00507356)
(0.0058764 -0.0117725 0.00491096)
(0.00579254 -0.0116423 0.00474634)
(0.00632518 -0.011812 0.00484494)
(0.00611205 -0.0117458 0.00480468)
(0.00608683 -0.0120049 0.00494887)
(0.00598321 -0.0115276 0.00474382)
(0.00651039 -0.0124883 0.00516056)
(0.00610969 -0.0119492 0.00483374)
(0.00612229 -0.0121797 0.0050564)
(0.00615114 -0.0118285 0.00522308)
(0.00623364 -0.0129868 0.00488035)
(0.00606167 -0.01191 0.00498867)
(0.00586095 -0.0117703 0.005199)
(0.00630845 -0.0124858 0.00532365)
(0.00605452 -0.0122318 0.00497912)
(0.00602708 -0.0118746 0.00529006)
(0.00602319 -0.0120798 0.00512071)
(0.00600405 -0.0118269 0.00494844)
(0.00590975 -0.0116991 0.00486167)
(0.00588935 -0.0117868 0.00495337)
(0.00587493 -0.011527 0.00464623)
(0.00558493 -0.0114373 0.00490473)
(0.00602836 -0.0114475 0.00460179)
(0.00589254 -0.0110818 0.00456534)
(0.00578952 -0.0114581 0.00478955)
(0.00578118 -0.0115211 0.00482508)
(0.00595746 -0.0115556 0.00467072)
(0.00596774 -0.0122677 0.00514393)
(0.00604512 -0.0120602 0.00494693)
(0.00576158 -0.0115475 0.00492701)
(0.00581985 -0.0119075 0.00491426)
(0.00588028 -0.0116485 0.0050534)
(0.00552754 -0.0114192 0.00474153)
(0.00555359 -0.0113271 0.00488272)
(0.00594954 -0.0120557 0.00469958)
(0.00630709 -0.012613 0.00504079)
(0.00624708 -0.0118547 0.00526674)
(0.00640708 -0.0120619 0.00554433)
(0.00543027 -0.0110312 0.00452144)
(0.00622545 -0.0122242 0.00546937)
(0.00605496 -0.0126817 0.00519178)
(0.00523657 -0.0108252 0.00466235)
(0.00523163 -0.0105526 0.00468955)
(0.0053203 -0.0110103 0.00492156)
(0.00584952 -0.0115135 0.00475388)
(0.00532865 -0.0107305 0.0045658)
(0.00517792 -0.0107048 0.00454442)
(0.00549463 -0.0111314 0.0046195)
(0.00555766 -0.0113266 0.00468723)
(0.00545814 -0.011207 0.00493907)
(0.00547507 -0.0111135 0.00451866)
(0.00547249 -0.0111473 0.00476784)
(0.00566039 -0.0115488 0.00496917)
(0.00629502 -0.0125876 0.00496326)
(0.00557807 -0.0111056 0.00481038)
(0.0059817 -0.0118166 0.0052771)
(0.00607913 -0.0119448 0.00522718)
(0.00609658 -0.0118471 0.0050578)
(0.00544558 -0.0110862 0.00502542)
(0.00594173 -0.0117652 0.00488866)
(0.00614129 -0.0120989 0.0046465)
(0.00611679 -0.0115351 0.00545218)
(0.00618459 -0.0124123 0.00536445)
(0.00565438 -0.0110666 0.0045745)
(0.00660796 -0.0127453 0.0052427)
(0.00626912 -0.0119458 0.00543074)
(0.00563829 -0.0123272 0.00512092)
(0.00585648 -0.0116904 0.00490062)
(0.00543215 -0.0118131 0.00484252)
(0.00574999 -0.0119851 0.00496228)
(0.00577713 -0.0122323 0.00497313)
(0.00577173 -0.0121524 0.00497113)
(0.00588424 -0.0116921 0.00517674)
(0.00622257 -0.0121769 0.00517987)
(0.00603381 -0.0122176 0.00522027)
(0.00653502 -0.0124756 0.00525232)
(0.00575877 -0.011329 0.00497265)
(0.00609305 -0.0113749 0.00502092)
(0.00602661 -0.0126289 0.00535402)
(0.00583746 -0.0124004 0.00486337)
(0.00550878 -0.011832 0.00461416)
(0.00604371 -0.0116812 0.00502528)
(0.00612543 -0.0118619 0.00505102)
(0.00607317 -0.0130167 0.00501355)
(0.0064006 -0.0121743 0.00527086)
(0.00619058 -0.0118357 0.00510827)
(0.00561141 -0.0111425 0.00489607)
(0.00580854 -0.0121919 0.00481737)
(0.00657678 -0.0120848 0.00563595)
(0.00620197 -0.0126306 0.00508524)
(0.00588207 -0.0118291 0.00492739)
(0.00564664 -0.0118953 0.00475703)
(0.00576873 -0.0115686 0.00485818)
(0.00557115 -0.0113859 0.00458552)
(0.0056931 -0.011155 0.00498005)
(0.00574415 -0.0116035 0.00460637)
(0.00558202 -0.0112997 0.00467385)
(0.00599228 -0.0117937 0.00513299)
(0.00564304 -0.0114551 0.0048719)
(0.00659462 -0.0120907 0.0055651)
(0.00591164 -0.0120135 0.00491234)
(0.00572031 -0.0121236 0.00490036)
(0.00571979 -0.0116562 0.00490003)
(0.0055705 -0.0120239 0.00512203)
(0.00567048 -0.011625 0.0049788)
(0.00601884 -0.0118936 0.0049182)
(0.00550862 -0.0114559 0.00480997)
(0.00628635 -0.0122727 0.00509974)
(0.00654521 -0.0121303 0.00534533)
(0.00624056 -0.0117158 0.00507682)
(0.00607477 -0.0121312 0.00485709)
(0.00581203 -0.0115867 0.00487787)
(0.00573735 -0.0115758 0.00484317)
(0.00542579 -0.0112131 0.00475323)
(0.00605447 -0.0116407 0.00466427)
(0.00548297 -0.011603 0.00485965)
(0.00538477 -0.0113011 0.00463584)
(0.00563476 -0.0116131 0.00486825)
(0.00585461 -0.0118704 0.00517602)
(0.00562045 -0.0121328 0.00517132)
(0.00615048 -0.0122576 0.00491736)
(0.0066392 -0.013029 0.00528386)
(0.0057271 -0.01156 0.00484225)
(0.0053663 -0.0113806 0.00480814)
(0.00558407 -0.0112218 0.00455598)
(0.00547948 -0.0111205 0.00462848)
(0.00571262 -0.0114615 0.00484463)
(0.00541391 -0.0112254 0.00469177)
(0.00563497 -0.0111734 0.00459576)
(0.00531994 -0.0112451 0.00455383)
(0.00658201 -0.0122678 0.00558211)
(0.00600867 -0.0117071 0.00522278)
(0.00639972 -0.0121666 0.00552006)
(0.00536017 -0.0113119 0.00450697)
(0.00564986 -0.0121287 0.00482993)
(0.0060891 -0.0121909 0.00513553)
(0.00605525 -0.0120244 0.00502328)
(0.00573856 -0.012207 0.00492605)
(0.00566735 -0.011472 0.00470782)
(0.00592244 -0.0116124 0.00506919)
(0.00554779 -0.0113589 0.00458235)
(0.00572599 -0.0113556 0.00489507)
(0.00570921 -0.0112783 0.00491588)
(0.00550501 -0.0107913 0.00486624)
(0.00557196 -0.0113515 0.004639)
(0.00590323 -0.0115621 0.00481724)
(0.0054695 -0.0116888 0.00453954)
(0.00567373 -0.0114535 0.00489077)
(0.0055633 -0.0119878 0.00457396)
(0.00583353 -0.0116704 0.00483045)
(0.00649654 -0.0121306 0.00550138)
(0.00560814 -0.0119199 0.00471348)
(0.00624524 -0.0119605 0.00505564)
(0.00587903 -0.0118471 0.00504174)
(0.00619994 -0.011618 0.00493266)
(0.00550813 -0.0108389 0.00463144)
(0.00650095 -0.0120334 0.00528859)
(0.00563417 -0.0116394 0.00468849)
(0.00545139 -0.0118555 0.00475324)
(0.00658758 -0.0121883 0.00556832)
(0.00609115 -0.0127272 0.0050715)
(0.00621002 -0.011832 0.00534385)
(0.00610002 -0.012246 0.00517914)
(0.00656284 -0.0131925 0.00583074)
(0.00618258 -0.0116418 0.00534754)
(0.00551971 -0.0113412 0.00438416)
(0.00642832 -0.0124382 0.00583394)
(0.00577333 -0.0119882 0.00462362)
(0.00618267 -0.0121867 0.00494757)
(0.00621865 -0.0115459 0.00529658)
(0.00560184 -0.0115804 0.00453676)
(0.0062796 -0.0119135 0.0051037)
(0.0054475 -0.0117745 0.00473592)
(0.00554422 -0.0117824 0.00480286)
(0.00563712 -0.011943 0.00489986)
(0.00555092 -0.011537 0.00450517)
(0.00554741 -0.0113608 0.00457402)
(0.00571623 -0.012505 0.00496009)
(0.00566309 -0.0118385 0.0049221)
(0.00562222 -0.0117775 0.00483635)
(0.00590426 -0.0120298 0.00524389)
(0.00621739 -0.0120293 0.00533708)
(0.0060682 -0.0117446 0.00511466)
(0.00619649 -0.0123887 0.00561986)
(0.00597181 -0.0119797 0.00541551)
(0.00589864 -0.0122329 0.00495394)
(0.006272 -0.0133426 0.0054867)
(0.00582242 -0.0125909 0.00483845)
(0.0064002 -0.012311 0.00550526)
(0.00627137 -0.0118975 0.00520655)
(0.00620465 -0.012246 0.00538508)
(0.00569641 -0.0112795 0.0044665)
(0.0060896 -0.0120902 0.00491238)
(0.00572541 -0.0113569 0.00477934)
(0.00560451 -0.0114569 0.00463783)
(0.00630006 -0.0118127 0.00507223)
(0.00576519 -0.0123679 0.00475711)
(0.00560549 -0.0112472 0.00452514)
(0.00576966 -0.0121114 0.00459119)
(0.00592919 -0.0118172 0.00477791)
(0.00568055 -0.0118784 0.00458702)
(0.00569833 -0.0123882 0.00490306)
(0.00590804 -0.0115431 0.00486806)
(0.00534496 -0.0114969 0.00455538)
(0.00651043 -0.0128753 0.00592097)
(0.0063765 -0.0118619 0.00545352)
(0.00584409 -0.0122981 0.00500828)
(0.00596529 -0.0116797 0.00517141)
(0.00589925 -0.0116892 0.00490634)
(0.00605613 -0.012705 0.00543537)
(0.00608588 -0.0121054 0.00508202)
(0.00613152 -0.0124667 0.00547182)
(0.00585158 -0.0115433 0.00497065)
(0.00582913 -0.0119472 0.00509621)
(0.00562382 -0.0109251 0.00456104)
(0.00584919 -0.0117215 0.00500948)
(0.00593064 -0.011459 0.00504959)
(0.00594585 -0.0116654 0.00489462)
(0.00557842 -0.0118555 0.00495493)
(0.00594211 -0.0123141 0.00512891)
(0.00608542 -0.0120597 0.00513621)
(0.00562636 -0.0116156 0.0048903)
(0.00588849 -0.0119214 0.00501959)
(0.00558964 -0.0117693 0.00492526)
(0.0059058 -0.0117807 0.0047703)
(0.00573539 -0.0122844 0.00537875)
(0.00587734 -0.0117282 0.0047954)
(0.00639168 -0.0122083 0.00499685)
(0.00562863 -0.0114719 0.00474504)
(0.00610363 -0.0115942 0.00471973)
(0.00590205 -0.0118728 0.00488376)
(0.00564508 -0.0122339 0.00516926)
(0.00608244 -0.0116665 0.0046062)
(0.00616957 -0.0125174 0.00533992)
(0.00608639 -0.011245 0.00496013)
(0.00601742 -0.0114854 0.00470948)
(0.00617871 -0.012219 0.00502652)
(0.00585275 -0.0114288 0.00470814)
(0.00599348 -0.0115536 0.00492091)
(0.00570816 -0.0120727 0.00495587)
(0.00588561 -0.0122114 0.00483989)
(0.00562795 -0.0113431 0.00472289)
(0.00606362 -0.0125968 0.00540214)
(0.00622798 -0.011859 0.00545291)
(0.00594863 -0.0116445 0.00481434)
(0.00589466 -0.0119086 0.00490399)
(0.00624994 -0.0122153 0.00527678)
(0.00592979 -0.0119904 0.00477928)
(0.00596196 -0.0121614 0.00494849)
(0.00592043 -0.0114438 0.00472016)
(0.00595136 -0.0123072 0.00499177)
(0.00649001 -0.0127797 0.00519923)
(0.00590115 -0.0118818 0.00509802)
(0.00573498 -0.0115173 0.00472429)
(0.00573564 -0.0118983 0.00494278)
(0.00593221 -0.0115048 0.00493818)
(0.00587718 -0.0122235 0.00515315)
(0.00591888 -0.0118055 0.00491787)
(0.00590389 -0.0114933 0.004748)
(0.00608602 -0.0117738 0.0047928)
(0.00551983 -0.011583 0.005004)
(0.00587053 -0.0116554 0.00479713)
(0.00581728 -0.011808 0.00505957)
(0.00599177 -0.0116877 0.00483032)
(0.0057754 -0.0116016 0.00469476)
(0.00576624 -0.0120283 0.00495723)
(0.00596227 -0.0116142 0.00484663)
(0.00596566 -0.0122057 0.00521339)
(0.0057981 -0.0120144 0.00489944)
(0.00598861 -0.0117685 0.00481721)
(0.00569734 -0.0113813 0.0048117)
(0.00538025 -0.0110197 0.00473807)
(0.0060475 -0.0121002 0.00519473)
(0.00588399 -0.011468 0.00472542)
(0.00574865 -0.0116765 0.00515993)
(0.0059833 -0.0118345 0.00473567)
(0.00579098 -0.0115112 0.00462105)
(0.00547889 -0.0114622 0.00504943)
(0.00617537 -0.0120469 0.00502669)
(0.00594727 -0.0121513 0.00510707)
(0.00560599 -0.0116024 0.00499012)
(0.00578826 -0.0117158 0.00532931)
(0.00529717 -0.0108956 0.00521469)
(0.00562794 -0.0116016 0.00528687)
(0.00551637 -0.0115033 0.00514984)
(0.00629841 -0.0126864 0.00502673)
(0.00568255 -0.0115904 0.00516135)
(0.00554289 -0.0113184 0.00461978)
(0.00546858 -0.0111655 0.00473248)
(0.00565309 -0.011389 0.00466642)
(0.00566685 -0.0113663 0.00462431)
(0.00575002 -0.0115926 0.00455479)
(0.00586167 -0.0115624 0.00512792)
(0.00594711 -0.0119591 0.00472195)
(0.00564994 -0.0113515 0.00504088)
(0.00532825 -0.0109244 0.00492177)
(0.00549117 -0.0113112 0.0048736)
(0.0061882 -0.0126125 0.00517182)
(0.00563477 -0.0113288 0.00516353)
(0.00587567 -0.0117619 0.00488141)
(0.00580613 -0.0114865 0.00495736)
(0.00595297 -0.0117945 0.00515881)
(0.00591682 -0.011806 0.00473192)
(0.00612945 -0.0120646 0.00498102)
(0.00561561 -0.0114188 0.00479509)
(0.0060394 -0.0120491 0.00504179)
(0.00584216 -0.0120917 0.00505682)
(0.00600481 -0.0120622 0.00501639)
(0.00597871 -0.0123674 0.00523471)
(0.0060487 -0.0121949 0.00495507)
(0.00614555 -0.0119529 0.00498952)
(0.00577423 -0.0116386 0.00492067)
(0.00610341 -0.0121408 0.00514969)
(0.00608422 -0.0120962 0.00516076)
(0.00572054 -0.01231 0.00522797)
(0.00528443 -0.011071 0.00487841)
(0.00574171 -0.0115349 0.00480679)
(0.00577626 -0.0117875 0.00485148)
(0.00633563 -0.0116993 0.00488634)
(0.00611967 -0.0117403 0.00461813)
(0.00577805 -0.0115171 0.00495344)
(0.00610793 -0.0123868 0.00522778)
(0.00599479 -0.0119673 0.00496387)
(0.0064067 -0.01265 0.00502167)
(0.00644745 -0.0127412 0.00538994)
(0.00595421 -0.0118417 0.00494001)
(0.00610663 -0.0119888 0.00505382)
(0.00588809 -0.0118941 0.00513829)
(0.00623549 -0.0123955 0.00509359)
(0.00591082 -0.0118644 0.00496437)
(0.00609257 -0.0122357 0.0050923)
(0.00627109 -0.0121404 0.00507656)
(0.00599829 -0.0121008 0.00509387)
(0.0062459 -0.0122853 0.00501308)
(0.00616897 -0.0126856 0.00536934)
(0.00648172 -0.0121558 0.00507048)
(0.00632752 -0.0124745 0.0052055)
(0.00618643 -0.0124841 0.00517619)
(0.00617144 -0.0124042 0.00512295)
(0.00629145 -0.0124783 0.00508384)
(0.00632949 -0.0125918 0.0052575)
(0.00605676 -0.0119453 0.00487204)
(0.00600224 -0.012018 0.00503644)
(0.00596711 -0.0120708 0.00497074)
(0.00604611 -0.0122456 0.00493264)
(0.00592842 -0.0119849 0.00498049)
(0.00603838 -0.012091 0.00496099)
(0.00606291 -0.0124594 0.00524256)
(0.00593937 -0.0121266 0.00512271)
(0.00603994 -0.012093 0.00508)
(0.00615671 -0.0121636 0.00502906)
(0.00613398 -0.0120731 0.00485867)
(0.00606896 -0.0123579 0.00515802)
(0.00635077 -0.0111347 0.00457645)
(0.00572306 -0.0110386 0.00501624)
(0.00542543 -0.0106702 0.00447067)
(0.00561085 -0.0122667 0.00545051)
(0.00545848 -0.0103619 0.00457092)
(0.00611928 -0.0132302 0.00534019)
(0.0056916 -0.0117914 0.00485217)
(0.00627553 -0.0121578 0.00491872)
(0.0059822 -0.0123152 0.00511579)
(0.00596712 -0.0114173 0.00470682)
(0.00569924 -0.0121934 0.00507933)
(0.00587181 -0.0122001 0.00499101)
(0.00573453 -0.0126081 0.00527802)
(0.00684101 -0.0129119 0.00540613)
(0.00650718 -0.0122109 0.005116)
(0.00534803 -0.0119433 0.00473338)
(0.00591394 -0.0113362 0.00480109)
(0.0062398 -0.0127315 0.00511299)
(0.00561376 -0.0119536 0.00493946)
(0.00596582 -0.0128937 0.0048707)
(0.00549036 -0.0122083 0.00481858)
(0.00619139 -0.0125292 0.0054008)
(0.00577975 -0.0118428 0.00484828)
(0.00565962 -0.0123252 0.00522662)
(0.00607534 -0.012137 0.00518224)
(0.00562927 -0.0125567 0.00536392)
(0.00612713 -0.0115421 0.00500857)
(0.00595191 -0.0122179 0.0052396)
(0.00633165 -0.0130736 0.0055881)
(0.00593014 -0.0119119 0.00508918)
(0.00640936 -0.0117703 0.00523056)
(0.00589769 -0.011269 0.00485239)
(0.00617675 -0.0121928 0.00536488)
(0.00580712 -0.0115827 0.00495613)
(0.00594574 -0.0117282 0.00483893)
(0.00617761 -0.0115549 0.00509394)
(0.00601855 -0.0126477 0.00517389)
(0.00569087 -0.0114443 0.00490624)
(0.00569678 -0.0114931 0.00459218)
(0.00602901 -0.0120861 0.0046259)
(0.00550139 -0.011158 0.0046741)
(0.00570488 -0.0114162 0.00461071)
(0.00571383 -0.0115321 0.00496877)
(0.0058316 -0.0115803 0.0048455)
(0.005723 -0.0118389 0.00517996)
(0.00569616 -0.0115242 0.00493822)
(0.00550723 -0.0111512 0.0046951)
(0.00567605 -0.0114148 0.00491757)
(0.00576325 -0.0112903 0.00464375)
(0.00593113 -0.0115254 0.00467088)
(0.00565026 -0.0116613 0.00495136)
(0.00545308 -0.0110134 0.00448215)
(0.00567699 -0.0112361 0.00466401)
(0.00553161 -0.0113235 0.00487702)
(0.00559947 -0.0113052 0.00478474)
(0.00565255 -0.0116148 0.00485941)
(0.00556021 -0.0113083 0.00519812)
(0.00585189 -0.0121346 0.00522119)
(0.00640291 -0.0127717 0.00581109)
(0.00597457 -0.0119912 0.00500689)
(0.00558322 -0.0116543 0.00508478)
(0.00602658 -0.0116836 0.00520078)
(0.0059103 -0.0122158 0.00489679)
(0.00562611 -0.0114724 0.00475675)
(0.00542539 -0.0110784 0.00444838)
(0.00567642 -0.0119402 0.00466955)
(0.00550716 -0.0111536 0.00508174)
(0.00540332 -0.0108992 0.00424444)
(0.00595214 -0.0117024 0.00516112)
(0.00629218 -0.0123259 0.00578883)
(0.00592379 -0.0118023 0.00432704)
(0.00573624 -0.0116798 0.00505766)
(0.00606502 -0.012031 0.00539609)
(0.00624183 -0.0120318 0.00505914)
(0.00557034 -0.0111667 0.00451756)
(0.00596341 -0.0127186 0.00501656)
(0.00616544 -0.0124562 0.00529081)
(0.00613806 -0.0121735 0.00540963)
(0.00610722 -0.0120936 0.0052988)
(0.0062739 -0.0125696 0.0054454)
(0.00618324 -0.0122543 0.00536245)
(0.00613722 -0.0124643 0.00550871)
(0.00606243 -0.0121178 0.00515687)
(0.00603664 -0.0121629 0.00508884)
(0.00597559 -0.0120933 0.00507597)
(0.0064518 -0.0122866 0.0048857)
(0.00624856 -0.0126928 0.00530654)
(0.00612697 -0.0118571 0.00496995)
(0.00636428 -0.0120712 0.00501412)
(0.00573665 -0.0119863 0.0050013)
(0.0061055 -0.0126996 0.00538866)
(0.00667841 -0.0122425 0.00520977)
(0.00577649 -0.0118338 0.00490542)
(0.00556676 -0.011753 0.00485098)
(0.00555973 -0.0114212 0.00479328)
(0.00569621 -0.0112539 0.00456619)
(0.00574004 -0.0115924 0.00480195)
(0.00539631 -0.0117217 0.0049645)
(0.00564682 -0.0118941 0.00502512)
(0.00601077 -0.0118295 0.0048937)
(0.00586024 -0.0119652 0.00501189)
(0.00579146 -0.011701 0.00479739)
(0.00545387 -0.0110716 0.00490779)
(0.00572642 -0.0115869 0.00530023)
(0.0058204 -0.0118603 0.0048864)
(0.00604768 -0.0118428 0.00501688)
(0.0059061 -0.011546 0.00468804)
(0.00593164 -0.0116529 0.00470958)
(0.00609638 -0.0110392 0.00435086)
(0.00584997 -0.0114387 0.00473156)
(0.00588048 -0.0114546 0.00481006)
(0.00576484 -0.0117534 0.00490652)
(0.00550867 -0.0116378 0.00493981)
(0.00533245 -0.0111688 0.00456153)
(0.00609556 -0.0113214 0.00444513)
(0.00567593 -0.012004 0.00523394)
(0.00590828 -0.0124084 0.00521985)
(0.0060779 -0.0126471 0.0051657)
(0.00670777 -0.0123267 0.00509711)
(0.00575405 -0.0113352 0.00463478)
(0.00598959 -0.0122968 0.00521645)
(0.00585634 -0.0115258 0.00486045)
(0.00549755 -0.0124512 0.00517509)
(0.00563723 -0.0124043 0.00499585)
(0.0058536 -0.0121726 0.00518212)
(0.00555722 -0.0111554 0.00452226)
(0.00543482 -0.0117941 0.00517831)
(0.00568309 -0.0116534 0.00472402)
(0.00541455 -0.0113964 0.00516146)
(0.00588818 -0.0116918 0.004582)
(0.00627729 -0.0123687 0.00497238)
(0.00658423 -0.0127186 0.00504363)
(0.00628613 -0.0122563 0.00450384)
(0.00633221 -0.0124221 0.00513414)
(0.00609761 -0.0119531 0.00501957)
(0.00583497 -0.01161 0.00488531)
(0.00562298 -0.0113049 0.00458612)
(0.00641882 -0.013021 0.00537637)
(0.00609852 -0.0124446 0.00521471)
(0.00615041 -0.0125714 0.00528427)
(0.00635793 -0.0130456 0.0053223)
(0.00590847 -0.0124245 0.00530243)
(0.00587629 -0.0115123 0.00474548)
(0.00618165 -0.0117786 0.00464154)
(0.00595291 -0.0125625 0.00474797)
(0.00581435 -0.0118636 0.00502138)
(0.00561058 -0.0109226 0.00446158)
(0.00616734 -0.0113414 0.00504491)
(0.00613907 -0.0124436 0.00467173)
(0.00537711 -0.0108676 0.004192)
(0.00587377 -0.0116717 0.00484265)
(0.00536215 -0.0107586 0.00460376)
(0.00559301 -0.0116907 0.00421864)
(0.00597557 -0.0116778 0.00479433)
(0.00585994 -0.0110969 0.00497511)
(0.00569207 -0.0115239 0.0045936)
(0.00601274 -0.0113891 0.00519874)
(0.0057396 -0.0116681 0.00483539)
(0.0060904 -0.011957 0.00522192)
(0.00580102 -0.011694 0.00496754)
(0.00586723 -0.011969 0.00488508)
(0.00589168 -0.0117922 0.0049619)
(0.00557718 -0.0122247 0.00456295)
(0.00585031 -0.0120462 0.00521004)
(0.00570484 -0.0123732 0.00469967)
(0.00610754 -0.0122518 0.00526179)
(0.00582942 -0.011623 0.00480558)
(0.00601712 -0.0120145 0.00471936)
(0.00607029 -0.0118354 0.00511101)
(0.00599651 -0.0123536 0.00499929)
(0.00638494 -0.0125177 0.00513768)
(0.00665157 -0.0128996 0.00546214)
(0.00641184 -0.0123304 0.00514122)
(0.00601239 -0.0126083 0.00513282)
(0.00611889 -0.0123021 0.00501958)
(0.00616758 -0.0119844 0.00502569)
(0.00593451 -0.0128493 0.00527569)
(0.00587892 -0.0124879 0.00510989)
(0.006196 -0.012439 0.00496104)
(0.00622528 -0.0122515 0.00500293)
(0.00618496 -0.0123331 0.00504488)
(0.00650238 -0.0123258 0.00541814)
(0.00608308 -0.0122349 0.00501355)
(0.00575802 -0.0114159 0.00475653)
(0.00615964 -0.0122196 0.00496643)
(0.00564415 -0.0113126 0.00466886)
(0.0061864 -0.0116798 0.00523458)
(0.00619595 -0.0119434 0.00498998)
(0.0059376 -0.0122647 0.00472007)
(0.00622207 -0.0126118 0.00502236)
(0.00650423 -0.0122124 0.00529299)
(0.00693679 -0.0136225 0.00544654)
(0.00618284 -0.0128385 0.00558306)
(0.00614071 -0.0124381 0.00514857)
(0.00619066 -0.0124202 0.00498687)
(0.00626564 -0.0135671 0.00544837)
(0.00619879 -0.0122658 0.00514737)
(0.00587473 -0.0119036 0.00489008)
(0.00577533 -0.0127764 0.00511396)
(0.00600484 -0.0125947 0.00553323)
(0.00614901 -0.0129248 0.00527694)
(0.00615722 -0.0125272 0.00511432)