/*--------------------------------*- C++ -*----------------------------------*\
| =========                 |                                                 |
| \\      /  F ield         | OpenFOAM: The Open Source CFD Toolbox           |
|  \\    /   O peration     | Version:  v1612+                                |
|   \\  /    A nd           | Web:      www.OpenFOAM.com                      |
|    \\/     M anipulation  |                                                 |
\*---------------------------------------------------------------------------*/
FoamFile
{
    version     2.0;
    format      ascii;
    class       volScalarField;
    location    "50";
    object      p;
}
// * * * * * * * * * * * * * * * * * * * * * * * * * * * * * * * * * * * * * //

dimensions      [0 2 -2 0 0 0 0];

internalField   nonuniform List<scalar> 
16930
(
1.01497
0.996476
1.58157
1.61119
0.958813
1.57367
1.5587
1.5843
1.59489
1.59964
1.57916
1.6375
1.64989
1.66379
1.68074
1.61914
1.65373
1.62395
1.59522
1.65248
1.58159
1.60494
1.57899
1.59266
1.55458
1.56108
1.59399
1.59361
1.54111
1.53497
1.54413
1.52442
1.55952
1.34664
1.3987
1.46824
1.3739
1.00623
1.00989
0.985957
0.994221
1.01339
1.02319
1.00258
1.0089
1.02876
1.0383
1.04482
1.05924
1.05747
1.00648
1.0178
1.01664
1.02221
1.04317
1.05005
1.03727
0.994981
1.00107
1.00369
1.01892
1.01174
0.976681
1.00093
1.00742
0.957359
0.986536
1.00968
1.01476
1.02508
0.991445
0.976515
0.988864
0.996594
0.998241
1.0131
0.955671
0.978001
0.958168
0.987113
0.993378
0.990488
0.987386
0.9873
1.0103
0.828136
0.844517
0.857694
0.87199
0.827498
0.835076
0.861777
0.857086
0.840828
0.845168
0.851519
0.797412
0.785906
0.834597
0.825257
0.826212
0.843877
0.852494
0.850772
0.836578
0.993384
1.00418
1.00592
1.00549
1.01331
1.00151
0.938312
0.931349
0.915787
0.926976
0.939276
0.943728
0.919507
0.929563
0.910218
0.940789
0.928712
0.940111
0.935156
1.0264
1.0123
1.02478
1.01344
1.03591
1.01416
1.0151
1.03247
1.00097
1.01971
1.00579
1.00015
1.05854
1.03092
1.06165
1.05581
1.03511
1.03927
1.02569
1.05604
1.03543
0.849093
0.859197
0.891572
0.897475
0.900486
0.865212
0.884828
0.885193
0.88068
0.894033
0.882105
0.895513
0.898164
0.884087
0.887663
0.893209
0.873599
1.01076
1.00028
1.01784
1.03847
1.01947
0.999238
0.992021
0.998481
0.993754
1.00115
1.03302
1.03728
1.01914
1.03605
1.03076
1.01068
1.03003
0.986123
1.01125
1.02176
1.02953
1.34849
1.29513
1.33094
1.41086
1.35474
1.35653
1.39769
1.33747
1.3707
1.26922
1.29341
1.36106
1.41219
1.39575
1.44386
1.336
1.35313
0.948156
0.976067
0.97548
0.957667
0.961545
0.984059
0.982968
0.961471
0.97501
0.958025
0.97384
0.969281
0.955261
0.971699
1.00629
1.08518
1.14358
1.02407
1.08011
1.13145
1.03758
0.976681
0.963788
1.1729
1.1306
1.04365
0.989351
1.09619
1.13545
1.08378
1.12291
1.0087
1.07852
1.02497
0.982336
0.969926
0.963423
0.970618
0.978533
0.961947
0.959574
0.946691
0.959362
0.949785
0.953541
0.952062
0.969631
0.955129
0.967587
0.950363
0.942222
0.949133
0.942095
0.956241
0.952547
0.960401
0.974423
0.975947
0.975818
0.959922
0.970972
0.979433
0.97559
0.94242
0.967262
0.967295
0.967111
0.958019
0.972889
0.976967
0.965864
0.95979
0.972431
0.980081
0.931358
0.931813
0.976516
0.964134
0.949778
0.947204
0.952389
0.963103
0.944238
0.94762
0.945605
0.95144
0.953784
0.945639
0.956393
0.954078
0.959466
0.957736
0.981454
0.984407
0.973336
0.999387
1.01309
1.01763
1.00059
1.01594
1.00486
1.01955
0.997112
0.994145
0.988556
1.01805
1.0012
0.99083
1.03654
1.02927
1.0496
1.04158
1.03833
1.03205
1.04455
1.04035
1.04522
1.04505
1.04547
1.04147
1.03258
1.03313
1.0479
1.05069
1.05757
1.05554
1.06039
1.04989
1.04615
1.03774
0.928633
0.918973
0.927621
0.92734
0.915645
0.926666
0.922742
0.901685
0.910624
0.927368
0.922759
0.930714
0.918141
0.936894
0.935316
0.93088
0.947903
0.95256
0.96696
0.964576
0.934712
0.952559
0.955612
0.944053
0.938871
0.954761
0.960605
0.954559
0.946424
0.915087
0.972257
0.948268
0.97758
0.879131
0.925263
0.941212
0.952358
0.950384
1.03825
1.00946
0.924012
0.898965
0.940248
0.930193
0.935846
0.953594
0.980492
0.964455
0.929459
0.996626
0.941073
0.997595
0.970913
0.93843
1.00472
1.01814
1.01681
1.11713
1.11524
1.00583
1.07902
1.04911
1.07217
1.05921
1.12526
1.12126
1.05898
1.07632
1.09376
1.06942
1.07243
1.11526
1.10116
1.12028
1.14982
1.11868
1.09597
1.08243
1.06305
1.13804
1.15889
1.13445
1.10433
1.1174
1.1373
1.13185
1.15379
1.15564
1.11812
1.13405
1.12421
0.977587
0.975611
0.973119
0.988043
0.990429
0.964235
0.968332
1.00578
0.963088
0.964517
0.986221
0.999918
0.986771
0.979985
0.982689
0.995241
1.26206
1.2927
1.22489
1.23787
1.30647
1.29366
1.25355
1.18086
1.26034
1.20094
1.21813
1.14548
1.19106
1.18814
1.20082
1.1882
1.1319
1.14569
0.965623
0.968643
0.961394
0.945425
0.980302
0.977668
0.973928
0.956717
0.984993
0.950137
0.94857
0.965697
0.96347
0.945685
0.95117
0.948447
0.972927
0.984738
0.926672
0.916296
0.871184
0.89424
0.926914
0.925197
0.940196
0.922368
0.95089
0.90904
0.885477
0.920699
0.900228
1.10094
1.07199
1.07396
1.05703
1.07751
1.09978
1.0953
1.07648
1.0673
1.07001
1.05492
1.05604
1.04338
1.04405
1.06091
0.92919
0.945434
0.963918
0.960155
0.946417
0.955189
0.979198
0.977895
0.979109
0.974413
0.964857
0.956327
0.961268
0.977512
0.97349
0.946253
0.969358
0.972554
0.969925
0.99551
1.00019
0.993092
1.00036
0.978438
0.982404
0.976885
0.932143
1.00033
1.01723
0.960676
0.979133
1.00167
1.01819
1.05005
1.00522
1.03249
1.00097
1.01415
1.05537
0.98723
0.986855
0.978068
0.971186
0.998609
0.945502
0.976751
0.970892
0.965663
0.946122
0.972032
0.978096
0.947234
0.955104
0.990598
0.975695
0.975437
0.965863
0.956774
0.975715
0.953061
0.965633
0.968372
0.971476
0.937772
0.975455
0.982016
0.964117
0.958827
0.974412
1.05427
1.07843
1.16739
1.16553
1.07099
1.09758
1.07521
1.11415
1.12989
1.13092
1.03244
1.0392
1.11473
1.14024
1.07181
1.0369
1.04284
1.04958
1.04646
1.10137
1.10279
1.14351
1.15104
1.0623
1.08495
1.11095
1.11628
1.20496
1.16734
1.16651
1.21489
1.11627
1.18753
1.1928
1.0739
1.18852
1.16792
1.14212
1.15395
0.986019
1.03482
1.06475
1.10699
1.03297
1.11691
1.14873
0.961473
0.958562
1.06128
1.13043
1.16371
1.14275
1.19631
1.03756
1.00563
0.997528
0.947234
0.957978
1.01605
0.983373
0.993694
0.970664
0.980477
0.965826
0.976302
1.01623
1.00931
0.996215
1.0212
1.02618
1.00428
0.991549
1.0091
1.01201
1.01953
1.03444
1.01167
1.00346
1.02031
1.0242
1.01567
1.02387
1.02995
1.02477
1.03085
1.02536
1.02019
1.03061
1.04281
1.03756
1.02935
1.02338
1.03209
1.03207
1.03708
1.04565
1.03526
1.03271
1.03313
1.02769
1.00097
1.01579
0.986703
1.0548
1.11242
1.08307
1.11106
1.16384
1.16
1.09075
1.12859
1.09201
1.04638
1.03525
1.02513
0.999974
1.57899
1.6139
1.74167
1.74732
1.66502
1.68355
1.76523
1.75758
1.62292
1.63328
1.68234
1.62175
1.73125
1.66523
1.71611
1.00386
1.00219
1.01034
1.00454
1.0186
1.00723
1.00524
0.985548
0.99822
1.01407
0.997244
1.0153
1.00389
1.03097
1.03534
1.00387
1.0049
0.994659
1.01846
1.01553
1.03181
1.02016
1.27848
1.25496
1.22823
1.23962
1.22273
1.14215
1.18278
1.22212
1.19408
1.22225
1.1947
1.23313
1.19336
1.04309
1.04383
1.03728
1.03595
1.05527
1.04231
1.04958
1.04496
1.04054
1.04749
1.04939
1.05485
1.04692
1.04954
1.04374
1.04862
1.05194
1.05505
1.05069
1.01108
1.00857
1.00377
1.01041
1.02485
1.01542
1.02258
1.01508
1.02372
1.01417
0.990191
1.00661
0.991971
0.994913
1.18123
1.1891
1.20787
1.1566
1.16789
1.14597
1.16376
1.14878
1.09114
1.09987
0.928158
0.933302
0.932894
0.940999
0.933879
0.941479
0.934698
0.94355
0.937962
0.935719
0.932182
0.933809
0.927829
0.914813
0.933448
0.922245
1.02127
1.01691
1.00913
1.0176
1.00604
1.01023
1.01382
1.0056
1.0134
1.00401
1.0001
1.01219
1.00475
0.992669
1.01912
1.01308
1.00339
1.01961
1.56378
1.55567
1.50397
1.524
1.52331
1.46709
1.50206
1.46568
1.47207
0.936916
0.940723
0.959532
0.95972
0.927121
0.933119
0.965484
0.982352
0.996058
0.96733
0.996294
1.0102
0.830563
0.856084
0.909849
0.878361
0.860099
0.814109
0.813939
0.877678
0.829167
0.858307
0.835107
0.890752
0.872234
0.862452
0.829658
0.852529
0.842271
0.836535
0.996014
0.992347
0.996818
0.993673
0.995202
0.963263
0.96571
0.999334
1.00389
1.00467
0.979631
0.97324
0.984275
0.987318
0.982884
0.973756
0.955826
0.970281
0.990886
0.991717
0.981811
0.987311
0.970758
0.968459
1.28127
1.29871
1.27995
1.30462
1.27199
1.27855
1.34352
1.37559
1.39978
1.33361
1.29444
1.40237
1.30315
1.25812
1.42499
1.44007
1.32882
1.38107
1.33568
1.34121
1.39827
1.41017
0.979161
0.99172
0.93997
0.962266
0.947045
0.962846
0.979868
0.986956
0.988069
0.984316
0.991013
0.966219
0.985442
0.934447
0.968616
0.970686
0.97267
0.990426
0.937936
0.953955
0.959209
0.950852
1.00228
1.00572
1.02038
1.02141
1.00585
1.02072
1.02698
0.991456
0.994403
1.01208
1.0166
1.02583
1.02037
1.01567
1.00324
1.03907
1.03998
0.836949
0.863651
0.908054
0.87178
0.858416
0.844269
0.954154
0.958689
0.949786
0.908412
0.907284
0.833344
0.893668
0.942369
0.84368
0.826222
1.09473
1.14663
1.11366
1.06632
1.13785
1.01888
1.18196
1.21303
1.13416
0.994762
1.03575
1.09163
1.01698
1.08352
0.935902
0.947059
0.94687
0.940231
0.940471
0.950265
1.12922
1.13595
1.15729
1.01801
1.02685
1.02273
1.02403
1.02099
1.02388
1.01637
1.04886
1.03987
1.05162
1.04362
0.865012
0.873955
0.876358
1.0076
1.00069
0.947222
0.933433
0.934493
0.948465
1.05168
1.05417
1.47558
1.4724
1.148
1.14989
1.05536
1.0605
1.05947
1.05133
1.06592
1.0633
1.0551
1.06149
1.04763
1.04233
1.05349
1.03788
1.03783
0.99975
0.998721
1.05404
1.07913
1.07935
1.07488
1.14144
1.1737
1.15245
0.962315
0.955859
0.963711
0.966509
0.992824
0.980367
1.02838
1.02637
1.52922
1.54071
1.02125
1.02537
1.01477
1.27268
1.31097
1.3063
0.894042
0.885628
1.6193
1.6146
1.57467
1.04041
1.0469
1.25442
1.24677
1.25846
0.986613
0.994675
0.995457
0.998445
1.0011
1.00185
0.926835
0.936146
0.938879
0.931957
0.958995
0.952148
0.950808
0.959738
1.46167
1.45566
0.94566
0.941225
0.941881
1.09002
1.11528
1.14135
1.17324
1.25454
1.23811
0.989352
0.988151
0.948927
0.963779
1.03449
1.03183
1.00721
0.994179
1.00826
1.31869
1.31733
1.35452
1.78892
1.79503
1.80189
0.960214
0.971748
0.934948
0.9665
0.967903
1.09775
1.09893
0.959228
0.965774
0.966811
1.04975
1.0479
1.03652
1.03809
1.0288
0.917889
0.926641
0.947222
0.931247
0.931643
0.935223
0.919885
0.935096
0.934804
1.02001
1.02546
0.936807
0.932243
1.13453
1.12654
1.07776
1.07579
1.06793
1.05597
1.05449
1.05135
1.10586
1.08846
1.09139
1.02809
1.02596
1.02876
0.945368
0.928757
1.03852
1.03584
0.986607
0.981152
0.981827
0.930891
0.91443
0.942269
0.932517
0.940546
0.945654
0.925576
0.993504
0.98019
1.51688
1.56307
1.52805
1.57464
0.878725
0.922598
1.0172
1.01334
0.925565
0.924638
0.917196
0.922426
0.95827
0.964262
0.964064
0.928751
0.931217
0.990127
1.01935
1.00299
0.979653
0.982501
1.2546
1.18642
1.30781
1.44715
1.41636
1.50613
1.70815
1.72795
1.71376
1.15537
1.2047
1.25456
1.60682
1.57281
1.51547
1.49915
1.29171
1.21365
1.18805
1.33794
1.36302
1.37317
1.35268
1.37305
1.33726
1.28371
1.25611
1.3238
1.50376
1.48248
1.47623
1.53182
1.42739
1.41502
1.3634
1.06402
0.970809
1.02218
1.0576
1.04309
1.31835
1.2929
1.26536
1.34546
1.37968
1.39747
1.41738
1.44344
1.20526
1.25458
1.22113
1.13732
0.964911
0.95548
0.950895
1.02625
1.00193
0.972308
0.983447
1.05241
1.02112
1.0935
1.1406
0.942976
0.968147
0.949931
0.934118
0.917433
0.960888
0.98343
1.1711
1.10658
1.11237
1.01973
1.0932
1.06278
1.10847
1.07747
1.02306
1.05768
0.943087
0.930752
0.923613
0.924045
0.92992
0.931987
0.933652
0.935956
0.933052
0.92978
0.931479
0.918
0.92319
0.917594
0.930844
0.961238
0.956405
0.968634
0.963416
0.965799
0.959158
0.986465
0.989205
0.976984
0.987201
0.980987
0.970854
0.968671
0.973596
0.972993
0.957374
0.952715
0.950941
0.949074
0.955072
0.959257
0.986571
0.979186
0.978633
0.981817
0.991636
0.977505
0.971691
0.974409
0.979813
0.964525
0.961248
0.958258
0.961592
0.956183
0.964254
0.965008
0.891962
0.914449
0.912825
0.910208
0.917393
0.903044
0.959806
0.950576
0.938973
0.893652
0.937923
0.945285
0.92818
0.940462
0.944619
0.929297
1.03282
1.0357
1.00446
1.02021
1.02286
1.02194
1.01885
1.01756
0.996332
0.991927
1.00094
1.00287
0.996666
0.980035
0.97449
0.987734
0.970431
0.992097
0.995115
0.88902
0.87685
0.875462
0.888593
0.885659
0.930261
0.899681
0.900787
0.905603
1.48629
1.46651
1.55061
1.54946
1.54872
1.53034
1.69402
1.65648
1.66013
1.61973
1.58078
1.5859
1.41274
1.36112
1.41496
1.42857
1.48037
1.45451
1.36959
1.45907
1.47361
0.902489
0.889018
0.923981
1.16398
1.11256
1.09294
0.998417
0.962411
1.00635
0.946826
1.09883
1.05187
1.06988
1.14055
1.12122
1.08807
1.05545
1.17076
1.19906
0.903867
0.861011
0.8608
0.917706
0.958119
0.964976
0.882454
0.872203
0.858203
0.935942
0.937334
0.884373
1.8462
1.85013
1.8678
1.83147
1.00004
1.00658
0.97308
0.963753
0.941522
0.967613
0.972481
0.967195
0.965398
0.973943
0.964712
1.0038
1.0035
0.997755
0.987404
0.989244
0.990143
1.00548
1.00722
1.012
1.00066
0.992358
0.976792
0.984014
0.979705
0.988952
0.976843
0.988538
0.982174
0.977565
0.986379
1.04594
1.04352
1.05043
1.04336
1.04382
1.03779
1.01749
1.01926
1.03313
1.02898
1.02618
1.035
1.03896
1.03788
1.03813
1.03404
1.05044
1.04388
1.04388
1.04086
1.04747
1.05036
1.04284
1.02341
1.02453
1.03134
1.0276
1.01998
0.956935
0.981572
0.944131
0.917139
1.0247
0.998541
0.990983
1.01106
1.02409
0.998692
0.961298
0.971884
0.983649
0.92076
0.945007
0.982829
0.961145
0.958018
0.926195
0.928724
0.942813
0.941704
0.922222
0.924704
1.03405
1.03334
1.03012
1.03588
1.00904
1.01655
1.02363
1.02439
1.01799
1.02264
1.02268
0.984264
0.990072
0.976143
0.960752
0.959655
0.966302
0.951571
0.955158
0.964742
0.964131
1.0895
1.08523
1.07481
1.14011
1.12447
1.11828
1.09755
1.11818
1.04876
1.05766
1.06594
1.07187
1.03589
1.04596
1.04307
1.04083
1.07397
1.06919
1.06801
1.04513
1.045
1.0477
1.03705
1.03443
1.06697
1.06698
1.05501
1.05538
1.07007
1.05846
1.07384
1.10187
1.08457
1.08097
1.06983
1.10992
1.09293
1.07965
1.07731
1.06963
1.09877
1.0797
1.06421
1.07673
1.06142
1.06921
1.0655
1.05577
1.06286
1.06164
1.06034
1.06644
1.1831
1.18481
1.18434
1.18472
1.11823
1.11572
1.11723
1.11646
1.12552
1.1085
1.12881
1.11028
0.954078
0.939164
0.941449
1.02404
1.01751
1.02596
1.01916
1.01941
1.02697
1.02224
1.02184
1.04003
1.03659
1.04427
1.02234
1.03985
1.02332
1.03769
1.02452
1.03902
1.02481
1.03614
1.03596
1.02593
1.03087
1.03557
0.931047
0.915329
0.950731
0.920985
0.928873
0.890073
0.902026
0.910805
0.928632
0.916993
0.93532
0.942986
0.903869
0.933421
0.94192
0.936806
0.940438
0.93311
0.936525
0.939635
0.942562
0.943901
0.925461
0.926843
0.942953
0.892964
0.91225
0.917605
0.914935
0.910233
0.916169
0.932783
0.924195
0.915293
0.924675
0.92128
0.932257
0.916277
0.919459
0.934229
0.929833
1.04068
1.036
1.033
1.03845
1.03889
1.02913
1.02717
1.04065
1.03309
1.02582
1.0372
1.02903
1.04082
1.02958
1.02944
1.03129
1.02812
1.0314
1.03514
1.02418
1.02827
1.022
1.03906
1.02087
1.04401
1.02746
1.03342
1.03379
1.02688
1.03196
1.03442
1.02949
1.03928
1.04143
1.0333
1.03531
1.03091
1.02612
1.03107
1.02763
1.04879
1.05442
1.04829
1.05482
1.04448
1.03489
1.0364
1.03001
0.962639
0.965611
0.9662
0.965582
0.953576
0.950572
0.970224
0.964146
0.942302
0.93761
0.96228
0.963884
0.937873
0.935507
0.929338
0.942927
0.947678
0.95027
0.941269
0.948105
0.945339
0.946285
0.946982
0.953841
0.94714
0.942837
1.07822
1.0657
1.0882
1.08012
1.09084
1.08507
0.969581
0.965772
0.973172
0.959864
0.966448
0.974343
0.9734
0.969623
0.983944
0.977621
0.974549
0.964525
0.96223
1.1682
1.12011
1.12474
1.07524
0.977857
0.966711
0.967433
1.02451
1.04419
1.0472
0.964087
0.950376
0.938593
0.96686
0.966171
0.951425
0.933742
1.06983
1.08504
1.02168
1.03363
1.00732
0.971285
0.960784
1.00218
0.956148
0.953014
0.955229
0.951448
0.954249
0.954992
0.953199
1.70404
1.69921
1.67395
1.73507
1.75872
1.7436
1.74416
1.70835
1.70845
1.7504
1.74656
1.7669
1.75291
1.83454
1.86299
1.84521
1.82395
1.79679
1.82041
1.84335
1.81681
1.81528
1.79419
1.32892
1.3257
1.28978
1.2622
1.20796
1.30932
1.26592
1.28059
1.23766
1.00318
1.01413
1.0057
1.01421
0.997982
1.00722
0.983126
0.985604
0.995352
0.978926
0.988468
0.989233
0.9934
1.01901
1.0055
1.01489
0.995431
1.00512
1.00322
0.947349
0.915488
0.913709
0.970757
0.946517
0.97598
0.97144
0.96829
0.971962
1.03988
1.03937
1.04034
1.04008
1.04297
1.02492
1.0173
1.0332
1.02397
1.0386
1.03075
1.03671
1.03852
1.03265
1.0304
1.03086
1.03002
1.01649
1.0296
1.02116
1.015
1.03021
1.03224
1.00929
1.02087
1.03403
1.03117
1.02592
1.02994
1.04023
1.02878
1.02783
0.943167
0.944626
0.94897
0.943598
0.934871
0.922549
0.923873
0.937865
0.945286
0.988603
0.985676
0.991163
0.997684
0.970397
0.98942
0.991219
0.982302
1.41411
1.44576
1.27529
1.23252
1.31852
1.34374
1.32922
1.36269
1.36668
1.32781
1.32384
1.28928
1.25138
1.29561
1.23184
1.21935
1.15856
1.18383
1.1912
1.166
1.27738
1.24669
1.28258
1.27999
0.96149
0.963996
0.943242
0.959301
0.957792
0.971503
0.946328
0.957188
1.22401
1.22438
1.21346
1.19542
1.18254
1.1384
1.14806
1.12867
1.16496
1.15232
1.15968
1.13333
1.13082
1.11267
1.16815
0.944799
0.931442
0.913815
0.936792
0.949028
0.923882
0.928815
0.944587
0.989635
0.986355
0.98883
0.947524
0.924132
0.907975
0.917298
0.910811
0.919342
0.911754
0.900136
0.92438
0.924975
1.46942
1.46945
1.44328
1.44767
1.43301
1.53905
1.33608
1.34939
1.3427
1.47027
1.43152
1.3838
1.37343
1.45785
1.42925
0.954693
0.950536
0.954195
0.948389
0.95414
0.95348
0.951089
0.954986
0.951256
0.9324
0.944261
0.934436
0.942291
0.936927
0.947371
0.948756
0.949241
0.941716
0.936135
0.935769
0.941622
0.944393
1.01459
1.01242
0.989487
1.04104
1.05754
1.03111
0.94917
0.963647
0.962341
0.973267
0.973634
0.963065
0.936084
1.0088
1.01999
1.01246
1.0194
1.01332
1.01254
1.01857
1.00625
1.01073
0.963319
0.970984
0.969718
0.95793
0.992473
0.988617
0.99789
0.994192
0.996172
1.00255
1.02155
1.02357
1.02137
0.994615
1.00306
1.01201
1.00169
1.26179
1.24445
1.2588
1.23828
1.24461
1.22456
1.19131
1.2327
1.23223
1.25624
1.19454
1.25248
1.0512
1.04389
1.03473
1.04571
1.0418
1.05059
1.04115
1.61491
1.62853
1.63237
1.57886
1.49881
1.54745
1.43843
1.53118
1.51724
1.53498
1.49673
0.874364
0.878151
0.876073
0.889084
0.856959
0.875171
0.879538
0.873382
0.859659
0.862036
0.933254
0.90228
0.889331
0.920845
0.927124
0.936993
0.935722
0.930657
0.923266
1.21426
1.24874
1.21306
1.23058
1.26703
1.25234
1.37904
1.38521
1.40536
1.41257
1.05031
1.0189
1.02852
1.04551
1.03158
1.02472
1.01708
1.01272
1.01405
1.01737
1.06263
1.06566
1.03516
1.03813
1.06713
1.06694
1.06508
1.05477
1.04619
1.02813
1.04995
1.03964
1.046
1.03308
1.61357
1.65313
1.6522
1.60034
1.58312
1.31936
1.29771
1.61754
1.60139
1.54892
1.57578
1.59575
1.55607
1.50093
1.49679
1.53303
1.38364
1.44674
1.43727
1.53077
1.51225
1.52492
1.53981
1.47774
1.48069
1.52656
1.50581
1.50995
1.52061
1.51164
1.53468
1.02377
1.02916
1.02262
1.00286
1.02984
1.05131
1.04628
1.0461
1.05627
1.04386
1.03748
1.02417
1.03707
1.03711
1.03318
1.00263
1.00975
1.00417
1.0091
0.996575
1.01536
1.01898
0.998099
0.994618
0.990918
0.983534
0.986542
1.02932
1.02197
0.998286
1.0151
1.03045
1.00451
1.02492
1.03771
1.04152
1.05573
1.0425
0.979404
0.970026
0.936046
0.961213
0.951337
0.936588
0.955744
0.951349
0.939658
0.957803
0.956276
1.0178
1.02203
0.997477
0.99018
0.955094
0.967632
0.98379
0.965144
0.975836
0.984896
0.956063
0.983928
0.972971
0.987809
0.991183
1.00228
0.945433
0.946795
0.950408
0.948704
0.944679
0.981088
0.962142
0.960148
0.943501
0.943281
0.952577
0.985441
0.988818
0.978444
0.964671
0.960778
0.958365
0.942788
0.959887
0.955886
0.982441
0.9706
0.951894
1.21515
1.26946
1.14786
1.19953
1.16402
1.06459
1.04319
1.05025
1.03405
1.0528
1.09163
1.11781
1.06875
1.09469
1.14376
1.25072
1.29985
1.29463
1.16254
1.17593
1.22891
1.21078
1.21133
1.19782
1.18367
1.25396
1.2504
1.23923
1.18231
1.17167
1.19206
1.14031
1.09362
1.08612
1.11641
1.15283
1.10388
1.10383
1.06977
1.05737
1.06913
1.06907
1.06484
1.06247
1.06252
1.06624
1.06801
1.07421
1.04818
1.06084
1.06018
1.06449
1.05414
1.0625
1.05067
1.04962
1.05957
1.05632
1.04967
1.05047
1.05237
1.06515
1.06954
1.05746
1.06411
1.05556
1.05554
1.0486
1.02086
1.02512
1.03401
1.02737
1.04055
1.02846
1.03138
1.03739
1.03249
1.0385
1.04493
1.0454
1.04704
1.04439
1.04156
1.04209
1.03939
1.04708
1.04567
1.04913
1.05048
1.0491
1.05138
1.04507
1.04125
1.04839
1.04053
1.04732
1.04652
1.0354
1.04972
1.04376
1.03995
1.0416
1.05046
1.05167
1.04149
1.05043
1.06076
1.06323
1.04895
1.04927
1.04553
1.05557
1.05115
1.05939
1.05901
1.06464
1.11685
1.14384
1.093
1.07929
1.12778
1.12814
1.08921
1.11749
1.1166
1.48445
1.50063
1.55462
1.51549
1.48346
1.56242
1.56735
1.37246
1.37499
1.4222
1.41373
1.36846
1.35149
1.41478
1.4624
1.43111
1.43174
1.44304
1.04958
1.05004
1.04806
1.01861
1.04138
1.03973
1.02905
1.02917
1.04189
1.04462
0.877761
0.907125
0.898263
0.893447
0.891093
0.898021
0.901875
0.871622
0.864341
0.889199
0.883903
0.892084
0.874218
0.860694
0.862361
0.906472
0.904431
0.892198
0.882143
0.882004
0.857937
0.847596
0.877589
0.881319
0.901288
0.916702
1.04051
1.03968
1.03008
1.03941
1.03124
1.04243
1.04425
1.03105
1.04909
1.03775
1.04446
1.05485
1.05728
1.05314
1.04417
1.0497
1.05166
1.84909
1.86391
1.84627
1.01455
1.01242
0.998571
0.996768
1.01883
0.994775
1.0125
1.0263
1.0185
1.02215
1.0015
1.01695
1.01841
1.0144
1.02573
1.02083
1.02114
1.01658
1.0162
1.02246
1.01961
1.09297
1.08967
1.08365
1.06234
1.05837
1.09284
1.10016
1.1005
0.958904
0.961851
0.946893
0.952001
0.948733
0.951059
1.81246
1.84262
1.83283
1.82249
1.8095
1.80928
1.83493
1.85735
1.85446
1.86073
0.877868
0.873388
0.855889
0.840921
0.88749
0.86973
0.867969
0.872986
1.06167
1.05277
1.05415
1.04528
1.05651
1.05255
1.03874
1.03959
1.03517
1.04147
1.04459
1.04898
1.04608
1.03779
1.04445
1.05714
1.04864
1.05178
1.04787
1.04541
1.03991
1.04634
1.04083
1.03904
1.04593
1.03384
1.03996
1.03119
1.02707
1.06066
1.06633
1.06815
1.06184
1.0479
1.05755
1.05106
1.04573
1.05501
1.05751
1.05399
1.06751
1.06985
1.06565
1.07639
1.07414
1.06338
1.07889
1.07143
1.16064
1.16812
1.15688
1.17108
1.15853
1.15071
1.13139
1.12501
1.19847
1.24234
1.2033
1.32254
1.28553
1.2658
1.23649
0.941067
0.937889
0.936001
0.943998
0.942029
0.935725
1.02692
1.03182
1.0209
1.03055
1.02509
0.992672
0.980129
0.988915
1.01202
1.01356
1.01147
1.01036
1.01006
1.66947
1.61623
1.65622
1.60059
1.68226
1.64499
1.05952
1.06972
1.07974
1.0736
1.06407
1.08033
1.0619
1.05943
1.67882
1.67759
1.66827
1.62631
1.67234
1.63129
1.6383
1.6706
1.62711
1.70674
1.69982
1.67022
1.69627
1.69343
1.1044
1.10707
1.08631
1.07898
1.10284
1.0947
1.11588
1.09943
1.37044
1.33982
1.39944
1.37645
1.35285
1.38682
1.35006
1.39846
1.36789
1.23026
1.20809
1.31913
1.28538
1.28621
1.25405
1.30718
1.28736
1.23878
1.19397
1.18866
1.24788
1.20871
1.23454
1.53445
1.51402
1.47245
1.44937
1.51715
1.5247
1.46687
0.92839
0.924746
0.896462
0.912655
0.901988
1.21777
1.29037
1.23019
1.32549
1.34743
1.3418
1.33783
1.29618
1.3284
1.30683
1.0128
1.01222
1.00259
1.00623
1.00321
1.00127
0.989061
0.999606
0.997788
0.994874
0.998707
0.987368
1.01208
1.01791
1.03895
1.03645
1.03364
1.04103
1.03529
1.03728
1.03605
1.03591
1.03204
1.0292
1.04186
1.00174
1.04282
1.02467
1.01858
1.01183
1.01091
1.25316
1.27249
1.28001
1.2849
1.24193
1.21031
1.77915
1.74304
1.78711
1.796
1.79383
1.78917
1.78485
1.76351
1.75787
0.906359
0.897586
0.921932
0.909747
0.913317
0.900008
0.887367
0.911335
0.908438
1.19421
1.13331
1.18064
1.25279
1.236
1.23044
1.2207
0.955549
0.95663
0.963303
0.964648
0.953331
0.943428
0.94153
0.963961
0.954558
0.960028
0.94965
0.94395
1.02322
1.02558
1.03589
1.02909
1.03406
1.03155
1.0309
1.03886
1.02636
1.14364
1.12998
1.12662
1.12679
1.0995
1.12933
1.10571
1.09846
1.06977
1.08351
1.06325
1.08592
1.0695
1.08757
1.0921
1.06662
1.05833
1.06969
1.07376
1.06218
1.07176
1.06225
1.07599
1.06029
1.05704
1.05857
1.07045
1.07035
1.06074
1.07407
1.06213
1.01577
1.01645
1.03031
1.02938
1.03413
1.01939
1.01508
1.02539
1.02269
1.03631
1.03985
1.03884
1.04407
1.04938
1.0459
1.04638
1.05342
1.04847
1.02746
1.03369
1.04213
1.0419
1.04463
1.04401
1.04715
1.0594
1.05863
1.0105
1.00403
1.01079
1.01515
1.02398
1.01864
0.981973
1.0421
1.04987
0.969336
0.954836
0.94558
0.93803
0.910368
0.942819
0.954412
0.943836
1.03207
1.02789
1.05979
1.05974
1.06057
1.05422
1.04738
1.05058
1.04591
1.05771
1.05187
1.04985
1.02872
1.04089
1.04159
1.04071
1.0319
1.03253
1.74339
1.74907
1.78968
1.78568
1.14545
1.15281
1.21831
1.16159
1.11927
1.21806
1.24729
1.24744
1.20616
1.01622
0.953373
0.936553
1.02824
0.973692
1.07017
1.09705
1.06147
1.09275
0.931865
0.917591
0.908865
0.954158
0.936675
0.94691
0.919171
0.90639
0.940236
0.97114
1.17128
1.10992
1.06684
1.0378
1.01292
1.22868
0.998758
0.961281
1.03439
1.04597
1.06577
1.11546
1.07613
1.04313
1.02492
0.992365
1.10961
1.1304
1.11519
1.07887
0.993905
1.00868
1.01669
1.00497
0.9838
0.942015
0.95214
0.928493
0.942438
0.934597
0.952717
0.957616
0.998218
0.99719
0.986985
0.990307
0.969073
0.989267
0.993808
0.970404
0.983464
0.979029
0.97284
0.89066
0.893977
0.891695
0.878368
0.917193
0.908389
0.889959
0.921641
0.9112
0.951734
0.948291
0.957254
0.962699
1.08839
1.13686
1.05828
0.944236
0.947096
0.936296
0.923593
0.931008
0.933467
0.944619
0.934358
0.955834
1.1554
1.18463
1.23218
1.11732
1.11429
1.38361
1.45743
1.26711
1.43399
1.41143
1.47068
1.47544
1.42504
1.3956
1.30091
1.22585
1.24646
1.28194
1.31299
1.34326
1.34504
1.28684
1.27483
1.25598
1.65786
1.66514
1.63446
1.57866
1.54119
1.53079
1.55096
1.51647
1.55926
1.49797
1.47725
1.59044
1.55074
1.44759
1.44243
1.47747
1.41279
1.13533
1.0327
1.07718
1.11708
1.05007
1.09214
1.02805
1.13385
1.12302
1.18286
1.1721
1.63922
1.69288
1.61942
1.66074
1.72516
1.70869
0.900208
0.885619
0.935011
0.916798
0.912471
0.896459
0.924746
0.907767
0.931573
0.923183
0.91267
0.937585
1.03406
1.03803
1.04378
1.04074
1.0421
1.04589
1.03689
1.04144
1.03862
0.947579
0.996604
1.01408
1.00489
0.989149
0.950553
1.39101
1.39819
1.3547
1.39483
1.3862
1.35216
1.32651
1.34869
1.35417
1.34959
1.32158
1.07928
1.07276
1.06678
1.07472
1.07048
1.07764
1.06387
1.06566
1.07774
1.07581
1.13582
1.08123
1.19873
1.07283
1.17304
1.22191
1.15303
1.19611
1.1506
0.914936
0.91514
0.901429
0.935334
0.930348
0.915135
0.937685
0.931088
0.942415
0.940651
0.934447
0.937738
0.933863
0.932455
0.939795
0.935225
0.974138
0.964745
0.959128
0.965903
0.961948
0.973421
0.965175
0.945433
0.952486
0.962797
0.952789
0.969985
0.963087
0.952274
0.963635
0.953616
0.955112
0.953545
0.955607
0.954414
0.952958
0.970684
0.966173
0.964388
0.957945
0.962547
0.96798
0.967209
0.978744
0.97293
0.961642
0.981039
0.987825
0.967526
0.965671
0.973268
0.973837
0.977994
0.98477
0.980278
0.9893
1.01183
0.902739
0.822505
0.902221
0.896264
0.898645
0.885366
0.88174
0.865475
0.914823
0.900522
1.48965
1.45422
1.4724
1.03509
1.03133
1.02496
1.02312
1.05538
1.08426
1.08745
1.07612
1.04621
1.02933
1.05662
1.06085
0.965741
0.963917
0.984357
0.980369
0.979366
0.956798
0.968353
0.972742
0.95147
0.964966
1.02607
1.02652
1.02961
1.02765
1.03576
1.0381
1.03207
1.0314
1.03696
1.03616
1.0755
1.07038
1.07707
1.0711
1.0764
1.08182
1.08974
1.07661
1.06309
1.09325
1.09543
1.08314
1.12874
1.10736
1.1164
1.09567
1.10951
1.09099
1.12751
1.12815
1.0406
1.04191
1.06001
1.11899
1.16831
1.13764
1.16498
1.16218
1.12277
1.15019
1.09566
1.08882
1.08136
1.09409
1.09767
1.11584
1.09471
0.961124
0.964728
0.931065
0.947404
0.944425
0.931111
0.931668
0.928823
0.931774
0.943901
1.02513
1.01368
1.04529
1.05072
1.0604
1.04567
1.03833
1.04291
1.03621
0.917702
0.937684
0.93969
0.932347
0.932809
0.94294
0.938263
0.951443
0.934462
0.975539
0.981223
0.899148
0.893712
0.91159
0.944975
0.94514
0.949883
0.949627
0.944312
0.946067
0.942238
0.945704
0.954185
0.939783
0.932128
1.01769
1.01301
1.01799
1.02892
1.03869
1.03527
1.03252
1.03566
1.0348
1.04515
1.07624
1.08291
1.09138
1.07707
1.07381
1.08461
1.08542
1.10737
1.10449
1.09772
1.0824
1.07085
1.08623
1.07844
1.10491
1.10404
1.04423
1.07225
0.976292
0.987785
0.949088
0.95657
1.00639
0.991394
0.94897
0.989522
0.931682
0.999466
0.926823
1.65429
1.64386
1.69776
1.69102
1.66532
1.7095
1.73455
1.64666
1.66349
1.71039
1.6809
1.76533
1.73309
1.70653
1.70554
1.76443
1.74067
1.73204
1.76957
1.76412
1.71213
1.73685
1.70201
1.68749
1.70603
1.75119
1.74273
1.77555
1.22041
1.24903
1.22782
1.2478
1.23574
1.27959
1.2729
1.27721
1.26476
1.02305
0.926451
0.936824
0.939809
0.940852
0.933401
0.942515
0.946231
0.94456
0.936609
0.940411
0.906875
0.892394
0.935731
0.949675
0.941679
0.947511
0.950121
0.949939
0.939241
0.932346
0.914325
0.948862
0.955245
0.929767
0.905278
0.927235
0.926388
0.987834
0.997042
0.988647
1.00871
1.01096
1.00908
1.00228
1.00983
0.978158
1.00433
1.37009
1.4769
1.45889
1.42879
1.41932
1.39417
1.40415
1.37694
1.3668
1.47657
1.4804
1.44359
1.42492
1.42679
1.38286
1.12638
1.16617
1.14623
1.16627
1.15272
1.18778
1.17026
1.14674
1.16896
1.16081
1.21228
1.21486
1.22201
1.22985
1.20787
1.21847
1.13032
1.1659
1.14008
1.14285
1.17711
1.16403
1.14065
1.16719
1.15971
1.1774
0.91402
0.882211
0.898471
0.880809
0.896203
0.906686
0.900915
0.942768
0.91724
0.885852
0.93583
0.909743
0.937527
0.888483
0.881309
0.845663
0.909438
0.910874
0.887279
0.889622
0.908087
0.908527
0.919285
0.890886
0.897745
0.908343
0.921848
0.903941
0.891443
0.904713
1.35845
1.37836
1.38862
1.38523
1.43622
1.42886
1.41871
1.43595
1.411
0.933188
0.945698
0.987073
0.977368
0.973249
0.980768
0.983504
0.936081
0.947564
0.96831
0.974152
0.960823
0.966967
0.967099
0.973224
0.975741
1.21511
1.14615
1.16268
1.1783
1.19002
1.20998
1.22475
1.1987
1.17658
1.20605
1.1965
1.16445
1.1692
1.19513
1.17353
1.19784
1.17635
1.18545
1.19527
1.19388
1.17411
1.60158
1.58837
1.59611
1.5387
1.56345
1.57368
1.54459
0.852337
1.32858
1.30276
1.30684
1.38051
1.35294
1.31415
1.34397
1.38191
1.36451
1.3816
1.38049
1.35325
1.31069
1.0177
1.02801
1.35025
1.43752
1.45626
1.47175
1.45207
1.44705
1.48194
1.38362
1.4075
1.42115
1.34695
1.3273
1.33234
1.40241
1.01126
1.02587
1.01191
0.976332
0.975917
0.967119
1.03288
1.04594
1.04601
1.04005
1.05497
1.03762
1.03147
1.05037
1.041
0.989714
0.973555
1.04664
1.0706
0.988032
0.982655
1.00375
0.917236
0.926249
0.947893
0.92469
0.93685
0.941837
0.951233
0.952037
0.956477
1.01001
1.00775
0.995219
1.0094
0.997682
1.00779
0.978298
0.986512
1.01155
0.990434
0.986206
0.987756
0.96587
0.922548