# vtk DataFile Version 2.0
HEADER
ASCII
DATASET POLYDATA
POINTS 400 double
-3.212444 30.51752 -2.752752
-3.258491 30.26258 -2.866248
-3.304538 30.00764 -2.979743
-3.350585 29.75269 -3.093239
-3.396632 29.49775 -3.206735
-3.442679 29.2428 -3.320231
-3.488726 28.98786 -3.433727
-3.534774 28.73291 -3.547223
-3.580821 28.47797 -3.660718
-3.626868 28.22302 -3.774214
-3.672915 27.96807 -3.88771
-3.718962 27.71313 -4.001206
-3.765009 27.45819 -4.114702
-3.811056 27.20324 -4.228198
-3.857104 26.9483 -4.341693
-3.903151 26.69335 -4.455189
-3.949198 26.43841 -4.568685
-3.995245 26.18346 -4.68218
-4.041292 25.92852 -4.795676
-4.087339 25.67357 -4.909172
-4.133387 25.41863 -5.022668
-4.179433 25.16368 -5.136164
-4.225481 24.90874 -5.24966
-4.271528 24.65379 -5.363155
-4.317575 24.39885 -5.476651
-4.363622 24.1439 -5.590147
-4.409669 23.88896 -5.703643
-4.455717 23.63401 -5.817139
-4.501763 23.37907 -5.930634
-4.547811 23.12412 -6.04413
-4.593858 22.86918 -6.157626
-4.639905 22.61423 -6.271122
-4.685952 22.35929 -6.384618
-4.731999 22.10434 -6.498114
-4.778047 21.8494 -6.611609
-4.824094 21.59445 -6.725105
-4.870141 21.33951 -6.838601
-4.916188 21.08456 -6.952097
-4.962235 20.82962 -7.065593
-5.008282 20.57467 -7.179089
-5.054329 20.31973 -7.292584
-5.100377 20.06479 -7.40608
-5.146424 19.80984 -7.519576
-5.192471 19.55489 -7.633072
-5.238518 19.29995 -7.746568
-5.298193 19.03347 -7.800323
-5.366754 18.75946 -7.81513
-5.443689 18.48979 -7.797273
-5.52813 18.22399 -7.750143
-5.615487 17.96074 -7.696711
-5.714127 17.70733 -7.618903
-5.812767 17.45393 -7.541096
-5.92168 17.20729 -7.45623
-6.035861 16.96412 -7.367744
-6.150042 16.72095 -7.279259
-6.281888 16.48577 -7.19382
-6.414046 16.25073 -7.108434
-6.551877 16.01784 -7.02706
-6.704395 15.79047 -6.956066
-6.856913 15.5631 -6.885071
-7.023599 15.34175 -6.830802
-7.197756 15.12357 -6.785351
-7.375988 14.90798 -6.747606
-7.570407 14.70267 -6.740476
-7.764826 14.49737 -6.733345
-7.972393 14.3108 -6.778481
-8.1802 14.12486 -6.82531
-8.3851 13.96582 -6.938103
-8.583284 13.81455 -7.067298
-8.760869 13.68708 -7.246781
-8.911866 13.57346 -7.454422
-9.044437 13.46942 -7.681577
-9.134912 13.3686 -7.929574
-9.214852 13.26359 -8.179215
-9.269319 13.1442 -8.429772
-9.314651 13.00824 -8.672643
-9.349683 12.85358 -8.906846
-9.37963 12.67267 -9.120764
-9.406802 12.47745 -9.323615
-9.433264 12.25727 -9.497709
-9.459475 12.02831 -9.661685
-9.485992 11.78423 -9.80085
-9.512639 11.53382 -9.92964
-9.537891 11.27767 -10.04616
-9.561858 11.01623 -10.15138
-9.583929 10.75389 -10.25462
-9.598927 10.48821 -10.35046
-9.613927 10.22253 -10.44631
-9.613881 9.957796 -10.54567
-9.611014 9.693243 -10.64568
-9.594412 9.432559 -10.75289
-9.563121 9.176011 -10.86779
-9.525322 8.922485 -10.98609
-9.45658 8.683328 -11.12054
-9.387837 8.444169 -11.25499
-9.283173 8.227944 -11.4035
-9.174344 8.014378 -11.55365
-9.044613 7.816451 -11.70701
-8.90052 7.629269 -11.86257
-8.750527 7.44619 -12.01679
-8.578783 7.278243 -12.16611
-8.407039 7.110295 -12.31543
-8.219234 6.948718 -12.45134
-8.026402 6.789135 -12.58305
-7.828836 6.628959 -12.7058
-7.620113 6.467389 -12.80742
-7.41139 6.305819 -12.90905
-7.193802 6.135779 -12.9687
-6.975367 5.964931 -13.02433
-6.758034 5.786878 -13.03441
-6.541199 5.605574 -13.02393
-6.339192 5.423817 -12.95728
-6.144717 5.241829 -12.8621
-5.9884 5.076561 -12.69897
-5.841919 4.915603 -12.51832
-5.754296 4.794514 -12.27874
-5.671534 4.677341 -12.03564
-5.638908 4.604311 -11.76435
-5.606281 4.531281 -11.49305
-5.610491 4.499489 -11.21214
-5.615403 4.468484 -10.93105
-5.637494 4.462455 -10.64971
-5.665605 4.465178 -10.36828
-5.698517 4.477408 -10.08796
-5.739156 4.504939 -9.809412
-5.779794 4.532469 -9.530864
-5.825276 4.575222 -9.255011
-5.870891 4.618392 -8.979231
-5.916246 4.66529 -8.704039
-5.961401 4.715049 -8.429296
-6.005663 4.764533 -8.154365
-6.046181 4.812862 -7.878645
-6.086699 4.861191 -7.602926
-6.120292 4.903111 -7.325262
-6.152745 4.943975 -7.047277
-6.179209 4.97868 -6.767937
-6.200693 5.008264 -6.48747
-6.219045 5.034667 -6.206583
-6.226924 5.050436 -5.924293
-6.234804 5.066204 -5.642003
-6.228192 5.066555 -5.359331
-6.219912 5.065131 -5.076616
-6.201512 5.051318 -4.795086
-6.174835 5.027373 -4.514527
-6.144035 4.997048 -4.235409
-6.097821 4.942882 -3.961678
-6.051608 4.888715 -3.687947
-5.9889 4.799675 -3.427252
-5.924437 4.706923 -3.167945
-5.851556 4.585982 -2.924159
-5.773894 4.449025 -2.689191
-5.69444 4.294778 -2.467456
-5.612256 4.114186 -2.265885
-5.530821 3.928488 -2.069537
-5.453981 3.711489 -1.905203
-5.377141 3.494491 -1.740869
-5.311445 3.255772 -1.605212
-5.248055 3.01256 -1.475489
-5.192751 2.762029 -1.35788
-5.147861 2.502071 -1.255874
-5.10297 2.242113 -1.153868
-5.078189 1.972911 -1.070887
-5.054097 1.703394 -0.988557
-5.039135 1.431895 -0.911664
-5.035963 1.157841 -0.84179
-5.03279 0.883786 -0.771915
-5.046196 0.608677 -0.707989
-5.062115 0.333408 -0.644965
-5.082354 0.058316 -0.582805
-5.11358 -0.216326 -0.522843
-5.144805 -0.490968 -0.462882
-5.182717 -0.764869 -0.403561
-5.223609 -1.038441 -0.344527
-5.264758 -1.311976 -0.285506
-5.308001 -1.585213 -0.2266
-5.351244 -1.85845 -0.167694
-5.390992 -2.132232 -0.10894
-5.427873 -2.40646 -0.050312
-5.464242 -2.680749 0.008283
-5.484853 -2.956906 0.065823
-5.505464 -3.233063 0.123363
-5.510782 -3.509883 0.179619
-5.504661 -3.787198 0.234914
-5.492074 -4.064063 0.289604
-5.449749 -4.33886 0.341505
-5.407425 -4.613657 0.393407
-5.330089 -4.880882 0.441981
-5.246027 -5.146654 0.489917
-5.140832 -5.404146 0.536232
-5.015828 -5.653877 0.581029
-4.8852 -5.90029 0.625722
-4.72584 -6.129751 0.669885
-4.566479 -6.359212 0.714048
-4.388211 -6.573345 0.760527
-4.203422 -6.78219 0.807805
-4.014388 -6.986462 0.856869
-3.812222 -7.176588 0.911457
-3.610057 -7.366714 0.966044
-3.399873 -7.545094 1.02834
-3.185993 -7.718063 1.094188
-2.971227 -7.889186 1.161536
-2.748832 -8.044425 1.241783
-2.526436 -8.199664 1.32203
-2.299987 -8.343085 1.411226
-2.070217 -8.476832 1.507749
-1.839998 -8.608813 1.605282
-1.602957 -8.714067 1.718117
-1.365916 -8.819321 1.830953
-1.124545 -8.89988 1.952958
-0.880966 -8.967853 2.079638
-0.636155 -9.020711 2.209316
-0.388995 -9.044734 2.344716
-0.141907 -9.065715 2.480285
0.104203 -9.045219 2.618156
0.350314 -9.024724 2.756027
0.592601 -8.974841 2.892267
0.833822 -8.916761 3.028052
1.072378 -8.846825 3.162244
1.307545 -8.761812 3.29441
1.54258 -8.676365 3.426502
1.772723 -8.574869 3.55585
2.002867 -8.473373 3.685199
2.231283 -8.36722 3.81379
2.458296 -8.257286 3.941766
2.685255 -8.147212 4.069717
2.910937 -8.033879 4.197082
3.136619 -7.920547 4.324447
3.362297 -7.806644 4.451308
3.58797 -7.692215 4.577705
3.813648 -7.577783 4.70409
4.04025 -7.462593 4.828112
4.266852 -7.347403 4.952134
4.494262 -7.231516 5.073985
4.722466 -7.114944 5.193704
4.950706 -6.998343 5.313321
5.181004 -6.880044 5.427193
5.411302 -6.761746 5.541066
5.643012 -6.642982 5.651482
5.875937 -6.523816 5.758925
6.109039 -6.40472 5.86605
6.345153 -6.286806 5.967759
6.581267 -6.168891 6.069468
6.819523 -6.053638 6.169157
7.059411 -5.940415 6.267303
7.29959 -5.827814 6.365422
7.54346 -5.723078 6.46318
7.78733 -5.618343 6.560938
8.03334 -5.521033 6.660749
8.280898 -5.429099 6.762047
8.528701 -5.338827 6.864089
8.778725 -5.263696 6.97291
9.028749 -5.188566 7.081731
9.27888 -5.126537 7.197741
9.529072 -5.071961 7.31784
9.778681 -5.02201 7.440646
10.02592 -4.990807 7.574423
10.27316 -4.959603 7.7082
10.51563 -4.947595 7.852823
10.75669 -4.941222 8.00063
10.9948 -4.943286 8.152668
11.22732 -4.961268 8.312687
11.45985 -4.979249 8.472706
11.68431 -5.017832 8.640238
11.90784 -5.058771 8.808629
12.12818 -5.10826 8.978565
12.34394 -5.169991 9.15071
12.5597 -5.231722 9.322856
12.77009 -5.310591 9.494531
12.97978 -5.391715 9.666143
13.18775 -5.479147 9.83647
13.3922 -5.579555 10.00415
13.59665 -5.679962 10.17183
13.79587 -5.795969 10.33542
13.99348 -5.9168 10.49775
14.18843 -6.042809 10.65898
14.3743 -6.186495 10.81647
14.56018 -6.330181 10.97396
14.73056 -6.493106 11.12959
14.89582 -6.662402 11.2846
15.04885 -6.841578 11.43969
15.18087 -7.037727 11.59491
15.309 -7.235851 11.7502
15.39411 -7.455813 11.90632
15.47922 -7.675775 12.06243
15.51623 -7.909006 12.21686
15.54583 -8.144279 12.37103
15.54092 -8.382989 12.52052
15.51782 -8.62351 12.66754
15.47926 -8.863826 12.81015
15.41549 -9.103806 12.94558
15.35154 -9.343782 13.08091
15.26252 -9.583271 13.20223
15.1735 -9.82276 13.32356
15.0785 -10.06385 13.43652
14.97851 -10.30627 13.5425
14.87856 -10.54889 13.64802
14.77976 -10.79801 13.73845
14.68095 -11.04713 13.82888
14.58743 -11.30057 13.91208
14.49916 -11.5583 13.98811
14.41088 -11.81603 14.06415
14.33825 -12.08147 14.12939
14.26587 -12.34703 14.19447
14.2014 -12.61504 14.25722
14.14526 -12.88561 14.31752
14.08925 -13.1562 14.37786
14.04444 -13.428 14.44203
13.99964 -13.69979 14.50621
13.95638 -13.96972 14.5784
13.91431 -14.23823 14.65671
13.87072 -14.505 14.73929
13.81977 -14.76329 14.84266
13.76881 -15.02159 14.94604
13.7004 -15.26183 15.07758
13.62834 -15.49829 15.21502
13.5409 -15.71531 15.37096
13.43836 -15.91324 15.54506
13.33243 -16.10541 15.72225
13.19834 -16.24991 15.92508
13.06426 -16.39441 16.1279
12.91857 -16.51208 16.33745
12.75973 -16.59928 16.55462
12.60088 -16.68648 16.77178
12.44203 -16.77368 16.98895
12.28318 -16.86088 17.20612
12.12434 -16.94808 17.42329
11.96549 -17.03528 17.64046
11.80664 -17.12248 17.85762
11.64779 -17.20968 18.07479
11.48894 -17.29688 18.29196
11.3301 -17.38409 18.50913
11.17125 -17.47129 18.7263
11.0124 -17.55849 18.94346
10.85355 -17.64569 19.16063
10.69471 -17.73289 19.3778
10.53586 -17.82009 19.59497
10.37701 -17.90729 19.81214
10.21816 -17.99449 20.0293
10.05931 -18.08169 20.24647
9.900467 -18.16889 20.46364
9.741619 -18.25609 20.68081
9.582772 -18.34329 20.89798
9.423924 -18.4305 21.11514
9.265077 -18.5177 21.33231
9.106229 -18.6049 21.54948
8.947381 -18.6921 21.76665
8.788533 -18.7793 21.98382
8.629685 -18.8665 22.20098
8.470838 -18.9537 22.41815
8.31199 -19.0409 22.63532
8.153143 -19.1281 22.85249
7.994295 -19.2153 23.06966
7.835447 -19.3025 23.28683
7.6766 -19.3897 23.50399
7.517752 -19.47691 23.72116
7.358904 -19.56411 23.93833
7.200056 -19.65131 24.1555
7.041209 -19.73851 24.37267
6.882361 -19.82571 24.58983
6.723513 -19.91291 24.807
6.564665 -20.00011 25.02417
6.405818 -20.08731 25.24134
6.24697 -20.17451 25.45851
6.088122 -20.26171 25.67567
5.929275 -20.34891 25.89284
5.770427 -20.43611 26.11001
5.611579 -20.52332 26.32718
5.452732 -20.61052 26.54435
5.293884 -20.69772 26.76151
5.135036 -20.78492 26.97868
4.976189 -20.87212 27.19585
4.817341 -20.95932 27.41302
4.658493 -21.04652 27.63019
4.499645 -21.13372 27.84735
4.340798 -21.22092 28.06452
4.18195 -21.30812 28.28169
4.023102 -21.39532 28.49886
3.864255 -21.48252 28.71603
3.705407 -21.56973 28.9332
3.546559 -21.65693 29.15036
3.387712 -21.74413 29.36753
3.228864 -21.83133 29.5847
3.070016 -21.91853 29.80187
2.911168 -22.00573 30.01904
2.752321 -22.09293 30.2362
2.593473 -22.18013 30.45337
2.434625 -22.26733 30.67054
2.275778 -22.35453 30.88771
2.11693 -22.44173 31.10488
1.958082 -22.52893 31.32204
1.799235 -22.61613 31.53921
1.640387 -22.70333 31.75638
1.481539 -22.79053 31.97355
1.322691 -22.87774 32.19072
1.163844 -22.96494 32.40788
1.004996 -23.05214 32.62505
0.846148 -23.13934 32.84222
0.687301 -23.22654 33.05939
0.528453 -23.31374 33.27656
0.369605 -23.40094 33.49372
LINES 399 1197
2 0 1
2 1 2
2 2 3
2 3 4
2 4 5
2 5 6
2 6 7
2 7 8
2 8 9
2 9 10
2 10 11
2 11 12
2 12 13
2 13 14
2 14 15
2 15 16
2 16 17
2 17 18
2 18 19
2 19 20
2 20 21
2 21 22
2 22 23
2 23 24
2 24 25
2 25 26
2 26 27
2 27 28
2 28 29
2 29 30
2 30 31
2 31 32
2 32 33
2 33 34
2 34 35
2 35 36
2 36 37
2 37 38
2 38 39
2 39 40
2 40 41
2 41 42
2 42 43
2 43 44
2 44 45
2 45 46
2 46 47
2 47 48
2 48 49
2 49 50
2 50 51
2 51 52
2 52 53
2 53 54
2 54 55
2 55 56
2 56 57
2 57 58
2 58 59
2 59 60
2 60 61
2 61 62
2 62 63
2 63 64
2 64 65
2 65 66
2 66 67
2 67 68
2 68 69
2 69 70
2 70 71
2 71 72
2 72 73
2 73 74
2 74 75
2 75 76
2 76 77
2 77 78
2 78 79
2 79 80
2 80 81
2 81 82
2 82 83
2 83 84
2 84 85
2 85 86
2 86 87
2 87 88
2 88 89
2 89 90
2 90 91
2 91 92
2 92 93
2 93 94
2 94 95
2 95 96
2 96 97
2 97 98
2 98 99
2 99 100
2 100 101
2 101 102
2 102 103
2 103 104
2 104 105
2 105 106
2 106 107
2 107 108
2 108 109
2 109 110
2 110 111
2 111 112
2 112 113
2 113 114
2 114 115
2 115 116
2 116 117
2 117 118
2 118 119
2 119 120
2 120 121
2 121 122
2 122 123
2 123 124
2 124 125
2 125 126
2 126 127
2 127 128
2 128 129
2 129 130
2 130 131
2 131 132
2 132 133
2 133 134
2 134 135
2 135 136
2 136 137
2 137 138
2 138 139
2 139 140
2 140 141
2 141 142
2 142 143
2 143 144
2 144 145
2 145 146
2 146 147
2 147 148
2 148 149
2 149 150
2 150 151
2 151 152
2 152 153
2 153 154
2 154 155
2 155 156
2 156 157
2 157 158
2 158 159
2 159 160
2 160 161
2 161 162
2 162 163
2 163 164
2 164 165
2 165 166
2 166 167
2 167 168
2 168 169
2 169 170
2 170 171
2 171 172
2 172 173
2 173 174
2 174 175
2 175 176
2 176 177
2 177 178
2 178 179
2 179 180
2 180 181
2 181 182
2 182 183
2 183 184
2 184 185
2 185 186
2 186 187
2 187 188
2 188 189
2 189 190
2 190 191
2 191 192
2 192 193
2 193 194
2 194 195
2 195 196
2 196 197
2 197 198
2 198 199
2 199 200
2 200 201
2 201 202
2 202 203
2 203 204
2 204 205
2 205 206
2 206 207
2 207 208
2 208 209
2 209 210
2 210 211
2 211 212
2 212 213
2 213 214
2 214 215
2 215 216
2 216 217
2 217 218
2 218 219
2 219 220
2 220 221
2 221 222
2 222 223
2 223 224
2 224 225
2 225 226
2 226 227
2 227 228
2 228 229
2 229 230
2 230 231
2 231 232
2 232 233
2 233 234
2 234 235
2 235 236
2 236 237
2 237 238
2 238 239
2 239 240
2 240 241
2 241 242
2 242 243
2 243 244
2 244 245
2 245 246
2 246 247
2 247 248
2 248 249
2 249 250
2 250 251
2 251 252
2 252 253
2 253 254
2 254 255
2 255 256
2 256 257
2 257 258
2 258 259
2 259 260
2 260 261
2 261 262
2 262 263
2 263 264
2 264 265
2 265 266
2 266 267
2 267 268
2 268 269
2 269 270
2 270 271
2 271 272
2 272 273
2 273 274
2 274 275
2 275 276
2 276 277
2 277 278
2 278 279
2 279 280
2 280 281
2 281 282
2 282 283
2 283 284
2 284 285
2 285 286
2 286 287
2 287 288
2 288 289
2 289 290
2 290 291
2 291 292
2 292 293
2 293 294
2 294 295
2 295 296
2 296 297
2 297 298
2 298 299
2 299 300
2 300 301
2 301 302
2 302 303
2 303 304
2 304 305
2 305 306
2 306 307
2 307 308
2 308 309
2 309 310
2 310 311
2 311 312
2 312 313
2 313 314
2 314 315
2 315 316
2 316 317
2 317 318
2 318 319
2 319 320
2 320 321
2 321 322
2 322 323
2 323 324
2 324 325
2 325 326
2 326 327
2 327 328
2 328 329
2 329 330
2 330 331
2 331 332
2 332 333
2 333 334
2 334 335
2 335 336
2 336 337
2 337 338
2 338 339
2 339 340
2 340 341
2 341 342
2 342 343
2 343 344
2 344 345
2 345 346
2 346 347
2 347 348
2 348 349
2 349 350
2 350 351
2 351 352
2 352 353
2 353 354
2 354 355
2 355 356
2 356 357
2 357 358
2 358 359
2 359 360
2 360 361
2 361 362
2 362 363
2 363 364
2 364 365
2 365 366
2 366 367
2 367 368
2 368 369
2 369 370
2 370 371
2 371 372
2 372 373
2 373 374
2 374 375
2 375 376
2 376 377
2 377 378
2 378 379
2 379 380
2 380 381
2 381 382
2 382 383
2 383 384
2 384 385
2 385 386
2 386 387
2 387 388
2 388 389
2 389 390
2 390 391
2 391 392
2 392 393
2 393 394
2 394 395
2 395 396
2 396 397
2 397 398
2 398 399
POINT_DATA 400
SCALARS index double
LOOKUP_TABLE default
0
1
2
3
4
5
6
7
8
9
10
11
12
13
14
15
16
17
18
19
20
21
22
23
24
25
26
27
28
29
30
31
32
33
34
35
36
37
38
39
40
41
42
43
44
45
46
47
48
49
50
51
52
53
54
55
56
57
58
59
60
61
62
63
64
65
66
67
68
69
70
71
72
73
74
75
76
77
78
79
80
81
82
83
84
85
86
87
88
89
90
91
92
93
94
95
96
97
98
99
100
101
102
103
104
105
106
107
108
109
110
111
112
113
114
115
116
117
118
119
120
121
122
123
124
125
126
127
128
129
130
131
132
133
134
135
136
137
138
139
140
141
142
143
144
145
146
147
148
149
150
151
152
153
154
155
156
157
158
159
160
161
162
163
164
165
166
167
168
169
170
171
172
173
174
175
176
177
178
179
180
181
182
183
184
185
186
187
188
189
190
191
192
193
194
195
196
197
198
199
200
201
202
203
204
205
206
207
208
209
210
211
212
213
214
215
216
217
218
219
220
221
222
223
224
225
226
227
228
229
230
231
232
233
234
235
236
237
238
239
240
241
242
243
244
245
246
247
248
249
250
251
252
253
254
255
256
257
258
259
260
261
262
263
264
265
266
267
268
269
270
271
272
273
274
275
276
277
278
279
280
281
282
283
284
285
286
287
288
289
290
291
292
293
294
295
296
297
298
299
300
301
302
303
304
305
306
307
308
309
310
311
312
313
314
315
316
317
318
319
320
321
322
323
324
325
326
327
328
329
330
331
332
333
334
335
336
337
338
339
340
341
342
343
344
345
346
347
348
349
350
351
352
353
354
355
356
357
358
359
360
361
362
363
364
365
366
367
368
369
370
371
372
373
374
375
376
377
378
379
380
381
382
383
384
385
386
387
388
389
390
391
392
393
394
395
396
397
398
399
VECTORS difference double
0 0 0
0 0 0
0 0 0
0 0 0
0 0 0
0 0 0
0 0 0
0 0 0
0 0 0
0 0 0
0 0 0
0 0 0
0 0 0
0 0 0
0 0 0
0 0 0
0 0 0
0 0 0
0 0 0
0 0 0
0 0 0
0 0 0
0 0 0
0 0 0
0 0 0
0 0 0
0 0 0
0 0 0
0 0 0
0 0 0
0 0 0
0 0 0
0 0 0
0 0 0
0 0 0
0 0 0
0 0 0
0 0 0
0 0 0
0 0 0
0 0 0
0 0 0
0 0 0
0 0 0
0 0 0
0 0 0
0 0 0
0 0 0
0 0 0
0 0 0
0 0 0
0 0 0
0 0 0
0 0 0
0 0 0
0 0 0
0 0 0
0 0 0
0 0 0
0 0 0
0 0 0
0 0 0
0 0 0
0 0 0
0 0 0
0 0 0
0 0 0
0 0 0
0 0 0
0 0 0
0 0 0
0 0 0
0 0 0
0 0 0
0 0 0
0 0 0
0 0 0
0 0 0
0 0 0
0 0 0
0 0 0
0 0 0
0 0 0
0 0 0
0 0 0
0 0 0
0 0 0
0 0 0
0 0 0
0 0 0
0 0 0
0 0 0
0 0 0
0 0 0
0 0 0
0 0 0
0 0 0
0 0 0
0 0 0
0 0 0
0 0 0
0 0 0
0 0 0
0 0 0
0 0 0
0 0 0
0 0 0
0 0 0
0 0 0
0 0 0
0 0 0
0 0 0
0 0 0
0 0 0
0 0 0
0 0 0
0 0 0
0 0 0
0 0 0
0 0 0
0 0 0
0 0 0
0 0 0
0 0 0
0 0 0
0 0 0
0 0 0
0 0 0
0 0 0
0 0 0
0 0 0
0 0 0
0 0 0
0 0 0
0 0 0
0 0 0
0 0 0
0 0 0
0 0 0
0 0 0
0 0 0
0 0 0
0 0 0
0 0 0
0 0 0
0 0 0
0 0 0
0 0 0
0 0 0
0 0 0
0 0 0
0 0 0
0 0 0
0 0 0
0 0 0
0 0 0
0 0 0
0 0 0
0 0 0
0 0 0
0 0 0
0 0 0
0 0 0
0 0 0
0 0 0
0 0 0
0 0 0
0 0 0
0 0 0
0 0 0
0 0 0
0 0 0
0 0 0
0 0 0
0 0 0
0 0 0
0 0 0
0 0 0
0 0 0
0 0 0
0 0 0
0 0 0
0 0 0
0 0 0
0 0 0
0 0 0
0 0 0
0 0 0
0 0 0
0 0 0
0 0 0
0 0 0
0 0 0
0 0 0
0 0 0
0 0 0
0 0 0
0 0 0
0 0 0
0 0 0
0 0 0
0 0 0
0 0 0
0 0 0
0 0 0
0 0 0
0 0 0
0 0 0
0 0 0
0 0 0
0 0 0
0 0 0
0 0 0
0 0 0
0 0 0
0 0 0
0 0 0
0 0 0
0 0 0
0 0 0
0 0 0
0 0 0
0 0 0
0 0 0
0 0 0
0 0 0
0 0 0
0 0 0
0 0 0
0 0 0
0 0 0
0 0 0
0 0 0
0 0 0
0 0 0
0 0 0
0 0 0
0 0 0
0 0 0
0 0 0
0 0 0
0 0 0
0 0 0
0 0 0
0 0 0
0 0 0
0 0 0
0 0 0
0 0 0
0 0 0
0 0 0
0 0 0
0 0 0
0 0 0
0 0 0
0 0 0
0 0 0
0 0 0
0 0 0
0 0 0
0 0 0
0 0 0
0 0 0
0 0 0
0 0 0
0 0 0
0 0 0
0 0 0
0 0 0
0 0 0
0 0 0
0 0 0
0 0 0
0 0 0
0 0 0
0 0 0
0 0 0
0 0 0
0 0 0
0 0 0
0 0 0
0 0 0
0 0 0
0 0 0
0 0 0
0 0 0
0 0 0
0 0 0
0 0 0
0 0 0
0 0 0
0 0 0
0 0 0
0 0 0
0 0 0
0 0 0
0 0 0
0 0 0
0 0 0
0 0 0
0 0 0
0 0 0
0 0 0
0 0 0
0 0 0
0 0 0
0 0 0
0 0 0
0 0 0
0 0 0
0 0 0
0 0 0
0 0 0
0 0 0
0 0 0
0 0 0
0 0 0
0 0 0
0 0 0
0 0 0
0 0 0
0 0 0
0 0 0
0 0 0
0 0 0
0 0 0
0 0 0
0 0 0
0 0 0
0 0 0
0 0 0
0 0 0
0 0 0
0 0 0
0 0 0
0 0 0
0 0 0
0 0 0
0 0 0
0 0 0
0 0 0
0 0 0
0 0 0
0 0 0
0 0 0
0 0 0
0 0 0
0 0 0
0 0 0
0 0 0
0 0 0
0 0 0
0 0 0
0 0 0
0 0 0
0 0 0
0 0 0
0 0 0
0 0 0
0 0 0
0 0 0
0 0 0
0 0 0
0 0 0
0 0 0
0 0 0
0 0 0
0 0 0
0 0 0
0 0 0
0 0 0
0 0 0
0 0 0
0 0 0
0 0 0
0 0 0
0 0 0
0 0 0
0 0 0
0 0 0
0 0 0
0 0 0
0 0 0
0 0 0
0 0 0
0 0 0
0 0 0
0 0 0
0 0 0
0 0 0
0 0 0
0 0 0
0 0 0
0 0 0
0 0 0
0 0 0
0 0 0
0 0 0
0 0 0
0 0 0
VECTORS tangent double
-0.1628017 -0.9013752 -0.401271
-0.1628023 -0.9013751 -0.4012711
-0.1628022 -0.9013749 -0.4012715
-0.1628021 -0.9013744 -0.4012725
-0.1628021 -0.9013744 -0.4012725
-0.1628021 -0.9013743 -0.4012729
-0.1628042 -0.901374 -0.4012728
-0.1628043 -0.9013747 -0.401271
-0.1628023 -0.9013751 -0.4012711
-0.1628016 -0.9013749 -0.4012717
-0.1628021 -0.9013744 -0.4012725
-0.1628021 -0.9013743 -0.4012729
-0.1628021 -0.9013743 -0.4012729
-0.1628044 -0.9013749 -0.4012706
-0.1628043 -0.9013746 -0.4012713
-0.1628021 -0.9013743 -0.4012729
-0.1628023 -0.9013752 -0.4012707
-0.1628026 -0.9013748 -0.4012714
-0.1628021 -0.9013743 -0.4012729
-0.1628038 -0.9013743 -0.4012721
-0.1628016 -0.9013749 -0.4012717
-0.1628021 -0.9013743 -0.4012729
-0.1628039 -0.9013749 -0.4012706
-0.1628022 -0.9013749 -0.4012715
-0.1628029 -0.9013741 -0.4012728
-0.1628022 -0.9013746 -0.4012722
-0.1628038 -0.901374 -0.4012728
-0.1628022 -0.9013749 -0.4012715
-0.1628023 -0.9013752 -0.4012707
-0.1628038 -0.901374 -0.4012728
-0.1628021 -0.9013743 -0.4012729
-0.1628025 -0.9013751 -0.4012709
-0.1628021 -0.9013743 -0.4012729
-0.1628039 -0.9013746 -0.4012713
-0.1628039 -0.9013749 -0.4012706
-0.1628021 -0.9013743 -0.4012729
-0.1628021 -0.9013743 -0.4012729
-0.1628022 -0.9013746 -0.4012722
-0.1628029 -0.9013741 -0.4012728
-0.1628022 -0.9013749 -0.4012715
-0.1628039 -0.9013749 -0.4012706
-0.1628038 -0.901374 -0.4012728
-0.1628016 -0.9013749 -0.4012717
-0.1628029 -0.9013741 -0.4012728
-0.1895656 -0.9349493 -0.299891
-0.2291125 -0.9656616 -0.1224963
-0.2585122 -0.9659928 0.005418872
-0.2866243 -0.9510643 0.1154255
-0.3039291 -0.9359364 0.1779049
-0.3294418 -0.9151136 0.2324549
-0.3487478 -0.8959346 0.275093
-0.3671424 -0.884536 0.2877539
-0.3945417 -0.8662273 0.3065734
-0.4036946 -0.8597429 0.3128463
-0.4351936 -0.8461425 0.3076516
-0.4667109 -0.8312547 0.3019877
-0.4775265 -0.8276322 0.2949464
-0.5137792 -0.8144548 0.2696188
-0.5392367 -0.8038779 0.2510058
-0.565222 -0.7945599 0.221808
-0.6031853 -0.7778333 0.1764733
-0.6236675 -0.7676968 0.1472429
-0.6607957 -0.7463357 0.07957306
-0.6873816 -0.7258587 0.02520997
-0.714416 -0.6964536 -0.06754286
-0.7345569 -0.658769 -0.1626334
-0.7355558 -0.6148359 -0.2844898
-0.7155591 -0.5508518 -0.4295784
-0.670397 -0.4972877 -0.5507021
-0.5845591 -0.4289196 -0.6887079
-0.5037783 -0.3866994 -0.7724449
-0.3958499 -0.3635766 -0.8432763
-0.3017022 -0.3643952 -0.8810176
-0.2381162 -0.3975322 -0.886154
-0.1767974 -0.4523702 -0.8741304
-0.1423944 -0.5149522 -0.8453094
-0.1152948 -0.5954022 -0.7951122
-0.1012223 -0.6665407 -0.7385645
-0.09518086 -0.7371926 -0.6689452
-0.09328837 -0.7954788 -0.5987576
-0.09343945 -0.8382697 -0.5371898
-0.09410901 -0.8753082 -0.4743197
-0.09182175 -0.8962171 -0.4340088
-0.0870766 -0.9157114 -0.3922884
-0.08139361 -0.9260382 -0.3685491
-0.06554706 -0.9336861 -0.3520425
-0.05302978 -0.9393327 -0.3388832
-0.02645005 -0.9381359 -0.3452557
0.005149481 -0.9358028 -0.3524866
0.03446065 -0.9296712 -0.3667751
0.08477654 -0.9155545 -0.3931575
0.1222625 -0.9026337 -0.4126793
0.1889395 -0.8737257 -0.4482247
0.2430427 -0.8455588 -0.475353
0.307742 -0.8081573 -0.502172
0.3777018 -0.7603657 -0.52838
0.4228084 -0.7293051 -0.5379099
0.4850302 -0.6821514 -0.5471884
0.5202431 -0.6549994 -0.5480173
0.5697595 -0.6216266 -0.5375448
0.6072134 -0.5937895 -0.527926
0.6363784 -0.5832385 -0.5048319
0.673248 -0.5680496 -0.4733464
0.6907741 -0.5657839 -0.4502441
0.7194213 -0.5697188 -0.3973079
0.7379543 -0.5712417 -0.3593136
0.7563217 -0.5883123 -0.2861225
0.7712564 -0.6029779 -0.2039143
0.7752656 -0.6207225 -0.1169052
0.7703543 -0.6376154 0.0007242304
0.7484203 -0.6487458 0.1378259
0.7056504 -0.6473862 0.288008
0.6296692 -0.6233226 0.4636654
0.5384009 -0.580057 0.611276
0.4198218 -0.5057979 0.7536033
0.3017765 -0.4219971 0.8548973
0.2058882 -0.3393821 0.9178398
0.1153535 -0.2582022 0.9591794
0.05049391 -0.1862568 0.9812027
-0.01612942 -0.1110326 0.9936859
-0.047853 -0.06562866 0.996696
-0.08885127 -0.005851064 0.9960278
-0.1079567 0.02645393 0.9938036
-0.1301573 0.07036225 0.9889936
-0.1436808 0.09733565 0.9848256
-0.1523076 0.1242988 0.9804857
-0.161043 0.1518969 0.9751884
-0.1608244 0.1592295 0.9740542
-0.1600095 0.1708764 0.972213
-0.1580718 0.1754426 0.9717166
-0.1498784 0.1729186 0.9734658
-0.1432542 0.1708699 0.974824
-0.1310376 0.1595717 0.9784508
-0.1167607 0.1463521 0.9823177
-0.1041853 0.1336319 0.9855394
-0.08478593 0.1136809 0.9898929
-0.07043827 0.09899653 0.9925917
-0.04639643 0.07459275 0.9961342
-0.02785851 0.05575073 0.9980559
-0.002243321 0.02851946 0.9995907
0.02633047 -0.001896947 0.9996515
0.04721445 -0.02696401 0.9985207
0.07975997 -0.06681046 0.9945726
0.1016874 -0.09601412 0.9901721
0.1364176 -0.1496616 0.9792812
0.1633908 -0.1915097 0.9677951
0.1931567 -0.2539583 0.9477319
0.2249413 -0.321555 0.9197847
0.2436966 -0.3791659 0.8926619
0.2668016 -0.4570619 0.8484759
0.2785889 -0.5163461 0.8097994
0.2868914 -0.5943073 0.751327
0.2895667 -0.6482456 0.704222
0.2809782 -0.7148882 0.6403015
0.2716729 -0.7672133 0.5810142
0.2527654 -0.8081447 0.5319886
0.228427 -0.8528121 0.4696091
0.2101381 -0.8741299 0.43788
0.1774336 -0.9040251 0.3889163
0.158713 -0.9190987 0.3606491
0.1233406 -0.9367722 0.3274828
0.08640483 -0.9524273 0.2922612
0.06908407 -0.9570253 0.281656
0.03208209 -0.9651687 0.2596537
0.01121623 -0.9689387 0.2470461
-0.01810107 -0.9714187 0.2366813
-0.05184851 -0.9731039 0.2244558
-0.06393149 -0.9730991 0.2213391
-0.09101091 -0.9721512 0.2159609
-0.1103996 -0.9710143 0.2119977
-0.1222351 -0.9698364 0.2108933
-0.1393192 -0.9678884 0.2092422
-0.1450312 -0.967167 0.2086957
-0.1491882 -0.966583 0.2084712
-0.1528884 -0.9660488 0.2082663
-0.1467179 -0.9670607 0.2080081
-0.1354698 -0.9688061 0.2075152
-0.1294931 -0.9696841 0.2072302
-0.1007701 -0.9734789 0.2053879
-0.0728718 -0.9763724 0.2034367
-0.04587904 -0.9784439 0.201352
0.001420594 -0.9803326 0.1973473
0.03309359 -0.980332 0.194561
0.09726836 -0.9771847 0.1888096
0.1496413 -0.971563 0.1835012
0.2121278 -0.9608721 0.1781194
0.2855597 -0.9430263 0.1707542
0.3353457 -0.9271747 0.1670038
0.4078517 -0.8986648 0.1614264
0.4522406 -0.8777323 0.1583175
0.5138814 -0.8432866 0.1574597
0.5634296 -0.8112748 0.1561414
0.5977986 -0.7854172 0.1604887
0.6422912 -0.7482982 0.1658672
0.6611509 -0.7306476 0.1703925
0.6922744 -0.6979339 0.1834244
0.7147694 -0.6722028 0.1929977
0.7295185 -0.6519524 0.2067867
0.7500014 -0.6213969 0.2266359
0.7578911 -0.6083904 0.2355044
0.7735167 -0.5774682 0.261156
0.786294 -0.5488583 0.2837186
0.7942346 -0.5284817 0.2998308
0.8071836 -0.4903907 0.3285906
0.8133326 -0.4698487 0.3431212
0.8274728 -0.4201207 0.3725418
0.8380736 -0.3721312 0.3989372
0.8476372 -0.3292182 0.4160847
0.8585103 -0.2629471 0.4402487
0.864923 -0.213987 0.4540019
0.8721292 -0.1362896 0.4699104
0.8740833 -0.0795899 0.4792117
0.8745774 -0.0008607853 0.4848851
0.8701382 0.07246275 0.4874512
0.865238 0.1246811 0.4856107
0.8554869 0.1910219 0.4813031
0.848848 0.2264938 0.4776584
0.8382583 0.2741844 0.4713235
0.8312352 0.3013432 0.467162
0.822726 0.3306324 0.4623897
0.813688 0.3588451 0.4573205
0.8107177 0.3671164 0.4560288
0.8051729 0.3820302 0.453596
0.802526 0.3889271 0.4524241
0.8001879 0.394943 0.4513528
0.7979139 0.4006947 0.4503079
0.7979087 0.4017038 0.4494171
0.7978924 0.4036424 0.4477058
0.7978908 0.4045765 0.4468645
0.7995415 0.4059262 0.4426706
0.8011657 0.4072617 0.4384877
0.8026164 0.408505 0.4346614
0.8054478 0.4109479 0.4270545
0.806896 0.4122003 0.4230954
0.8106489 0.4152794 0.412785
0.8142332 0.4182519 0.4026035
0.8167795 0.4190996 0.3965183
0.8214193 0.4206317 0.3851485
0.8238408 0.4211992 0.3793121
0.8295304 0.4190119 0.3691996
0.8347976 0.4168947 0.3595997
0.8386341 0.4122157 0.3560494
0.8452979 0.4039165 0.349747
0.8486724 0.3992159 0.3469607
0.8558106 0.3842575 0.3463156
0.8622173 0.3702991 0.3456296
0.8662131 0.3572585 0.3493439
0.872694 0.3346083 0.3555875
0.8757802 0.3221334 0.3594983
0.8805193 0.2925526 0.3729593
0.8839764 0.2656284 0.3847431
0.8848261 0.2426489 0.3977492
0.8849142 0.2062384 0.4176036
0.8839048 0.1848575 0.4295813
0.8793044 0.1436225 0.4540885
0.8741404 0.1103221 0.4729771
0.8667896 0.076486 0.4927735
0.8552282 0.03251042 0.5172309
0.8476831 0.007623249 0.5304481
0.8329113 -0.03547638 0.5522683
0.8221172 -0.06357489 0.5657575
0.8086969 -0.1000975 0.5796462
0.7921103 -0.140607 0.5939621
0.7850721 -0.1599403 0.5983984
0.7714393 -0.196742 0.6051231
0.7628452 -0.2182537 0.6086317
0.7538248 -0.2487091 0.6081875
0.7426999 -0.282873 0.6069431
0.738581 -0.298076 0.6046889
0.7294912 -0.3322531 0.5978716
0.7228463 -0.3549974 0.5928491
0.7141284 -0.3828509 0.5860426
0.7017409 -0.4188126 0.5763295
0.6942576 -0.4365472 0.5722175
0.6738958 -0.4772457 0.5640044
0.657168 -0.5080115 0.5568255
0.6307935 -0.5428876 0.5544121
0.5937798 -0.5877297 0.5495447
0.5636249 -0.6170808 0.549125
0.5051601 -0.6651356 0.5499163
0.4602192 -0.6974693 0.5493039
0.3785967 -0.7422816 0.5528858
0.3009124 -0.7776899 0.5519512
0.2169781 -0.8052607 0.5517932
0.1178916 -0.8292853 0.5462486
0.04382196 -0.841212 0.5389267
-0.04964459 -0.8493447 0.5254988
-0.1091892 -0.8514814 0.5128911
-0.1813218 -0.8510962 0.4927045
-0.2257855 -0.848476 0.4786537
-0.2707778 -0.8487017 0.454296
-0.3147386 -0.8467277 0.4289425
-0.3254472 -0.8499374 0.4143555
-0.3448248 -0.855083 0.3872065
-0.3534582 -0.8574772 0.3738985
-0.3515143 -0.8696811 0.3465437
-0.3493278 -0.8807704 0.3197085
-0.3401466 -0.8888191 0.3070846
-0.321522 -0.9040518 0.2816273
-0.3121006 -0.9112242 0.2688187
-0.2846377 -0.9254839 0.249922
-0.2563516 -0.9387261 0.230385
-0.2420221 -0.9435718 0.2260476
-0.2132988 -0.9524452 0.2176045
-0.1982549 -0.9566682 0.2132628
-0.178264 -0.9590358 0.2201645
-0.1584127 -0.9609492 0.2268969
-0.1557164 -0.9579176 0.2411354
-0.1508799 -0.9520603 0.2661136
-0.1514915 -0.9466202 0.2845355
-0.1673334 -0.9293383 0.3291354
-0.1801475 -0.9132199 0.3654808
-0.2116772 -0.8841003 0.4166046
-0.2485805 -0.8435817 0.4760017
-0.283226 -0.8052326 0.5209449
-0.3373166 -0.7367627 0.5860018
-0.3690852 -0.690635 0.6219321
-0.4274052 -0.5995088 0.6766934
-0.4740655 -0.5109056 0.7171034
-0.496861 -0.4656005 0.732356
-0.5410617 -0.3639825 0.7581353
-0.561617 -0.3083053 0.7678113
-0.5616161 -0.3083015 0.7678136
-0.5616158 -0.3083056 0.767812
-0.5616158 -0.3083056 0.767812
-0.5616187 -0.308302 0.7678114
-0.561617 -0.3083053 0.7678113
-0.5616143 -0.3083048 0.7678134
-0.5616176 -0.3083023 0.7678121
-0.561617 -0.3083053 0.7678113
-0.561617 -0.3083053 0.7678113
-0.5616176 -0.3083023 0.7678121
-0.5616143 -0.3083048 0.7678134
-0.5616158 -0.3083056 0.767812
-0.5616176 -0.3083023 0.7678121
-0.5616155 -0.3083045 0.7678127
-0.561617 -0.3083053 0.7678113
-0.5616176 -0.3083023 0.7678121
-0.561617 -0.3083053 0.7678113
-0.561617 -0.3083053 0.7678113
-0.5616149 -0.3083017 0.7678142
-0.5616158 -0.3083056 0.767812
-0.561617 -0.3083053 0.7678113
-0.5616176 -0.3083023 0.7678121