/*--------------------------------*- C++ -*----------------------------------*\
| =========                 |                                                 |
| \\      /  F ield         | OpenFOAM: The Open Source CFD Toolbox           |
|  \\    /   O peration     | Version:  v1612+                                |
|   \\  /    A nd           | Web:      www.OpenFOAM.com                      |
|    \\/     M anipulation  |                                                 |
\*---------------------------------------------------------------------------*/
FoamFile
{
    version     2.0;
    format      ascii;
    class       surfaceScalarField;
    location    "50";
    object      phi;
}
// * * * * * * * * * * * * * * * * * * * * * * * * * * * * * * * * * * * * * //

dimensions      [0 3 -1 0 0 0 0];

internalField   nonuniform List<scalar> 
37227
(
-5.28171e-09
1.13616e-08
4.15136e-09
-1.02312e-08
-4.20287e-09
3.56257e-09
-3.96902e-09
4.60931e-09
1.27988e-08
1.19153e-08
1.22025e-09
8.12468e-09
3.45384e-09
3.81624e-09
-7.84841e-09
2.54593e-08
-2.14271e-08
6.39503e-09
1.15648e-08
-2.33538e-09
-3.14163e-09
1.60468e-08
-8.08765e-09
1.98135e-08
1.89447e-10
2.52319e-08
-1.50206e-08
1.28501e-08
-3.35739e-09
9.04494e-09
-9.66818e-10
-1.78068e-09
-6.29743e-09
6.08586e-10
7.44917e-09
9.87202e-10
-3.0394e-09
4.03919e-09
4.64987e-09
-5.64967e-09
-1.98827e-10
-2.45052e-09
-3.90051e-10
-1.48568e-08
-3.39344e-09
1.06819e-08
7.56835e-09
-4.60616e-09
-1.12175e-08
-3.87509e-09
5.40519e-09
3.58486e-09
-5.11503e-09
-4.0175e-09
3.88514e-10
-2.46181e-10
-2.56406e-09
-2.28036e-09
8.26906e-10
-1.60963e-09
-4.23867e-09
4.06762e-09
4.47861e-09
-1.12379e-09
8.13985e-10
-4.16882e-09
4.47671e-09
-2.56218e-09
6.42374e-09
-2.31564e-09
-8.71429e-09
1.90652e-09
-5.61581e-11
-5.40822e-09
3.14873e-09
-2.09038e-09
-3.88792e-10
2.29955e-09
-3.96534e-09
2.30388e-10
-2.12241e-11
4.67219e-09
-9.7803e-10
-9.08402e-10
-2.78579e-09
-9.46809e-09
4.2568e-09
9.88349e-09
-7.58063e-09
-2.86552e-09
-2.6287e-09
3.05816e-09
-1.33785e-09
2.25704e-09
-3.94483e-09
-9.4094e-10
-1.56325e-09
3.07107e-09
3.39722e-09
-4.90505e-09
9.40917e-10
-2.4867e-09
-1.75417e-11
-1.89784e-09
3.04419e-09
1.91181e-09
1.05776e-09
-6.98562e-10
2.15153e-09
-1.52849e-10
-3.81482e-10
1.31118e-09
2.14158e-09
1.80805e-09
2.06738e-09
-1.17922e-09
4.29846e-09
4.0165e-09
7.61486e-09
3.95912e-10
-1.22354e-08
4.22455e-09
3.98288e-09
-8.61293e-09
1.22449e-08
1.14736e-08
-2.95008e-10
-1.83673e-08
7.18865e-09
2.30346e-09
1.00593e-08
-5.18394e-09
-7.17883e-09
1.4243e-08
-4.96075e-09
-6.97886e-09
-8.83901e-09
-6.09067e-09
1.89125e-08
5.7999e-09
4.05516e-09
-6.2313e-09
-5.21262e-09
6.5482e-10
5.6333e-09
8.28904e-09
-2.44878e-09
1.32397e-08
-1.05535e-08
2.94705e-09
9.09985e-09
-1.45788e-08
8.4964e-09
-3.47032e-09
3.26293e-09
1.56454e-08
4.16907e-10
6.95158e-09
1.00906e-08
-1.18351e-08
-5.20709e-09
8.40388e-09
-6.91769e-09
5.46536e-09
5.64167e-10
4.79535e-10
7.36018e-09
9.86475e-10
9.66831e-09
-5.35333e-09
3.87786e-10
-6.86962e-09
-6.08623e-09
5.5441e-10
-1.38588e-09
-1.02813e-09
-1.04115e-08
-6.78523e-09
3.06773e-10
7.46493e-09
-2.92026e-09
-3.47727e-09
3.19695e-09
2.71998e-09
-6.94505e-09
3.73133e-09
3.89041e-09
-4.42481e-09
4.86859e-09
-5.82842e-10
2.80823e-10
-4.09535e-09
4.29408e-09
-3.76645e-09
4.35404e-09
2.41429e-09
-2.61457e-09
-2.42358e-09
3.19682e-09
1.45689e-09
9.94261e-12
1.04725e-10
-1.02261e-08
9.96448e-09
2.92568e-08
-2.89952e-08
-2.67811e-08
2.19856e-08
1.14161e-09
3.65395e-09
-1.67076e-08
-2.87193e-08
1.86458e-08
-3.7177e-08
-9.31105e-10
2.7882e-08
-1.71357e-08
-1.60084e-08
-4.03284e-09
3.56036e-08
-2.28658e-08
-1.07038e-08
-2.03407e-09
8.80665e-09
2.58659e-08
-1.80913e-08
1.42091e-09
2.66348e-08
-4.20491e-09
8.09929e-09
-1.75083e-08
-2.24931e-08
2.26516e-09
6.52316e-09
-2.62966e-08
5.24132e-09
-1.96837e-08
1.34287e-08
-1.99033e-08
-4.22919e-09
2.58495e-08
-1.64727e-08
4.05189e-09
-7.25795e-09
1.1006e-09
2.74543e-08
-2.12969e-08
-2.06381e-08
7.14167e-09
2.75145e-08
2.55684e-08
-1.92264e-08
1.11672e-08
-1.85638e-10
-1.59739e-08
2.45364e-08
2.47669e-08
1.19687e-08
4.58813e-09
8.44276e-09
3.08869e-09
-1.68131e-08
-4.24058e-10
1.00262e-08
-1.15937e-09
1.13822e-08
1.25516e-08
-2.08451e-08
1.2932e-08
-1.97381e-09
-9.5726e-09
-1.15505e-08
1.82068e-08
2.91636e-09
-6.35878e-09
-5.2676e-09
2.05382e-09
1.47271e-08
-1.64534e-08
-4.63243e-09
-1.09629e-08
1.41396e-08
-1.37073e-08
8.82196e-09
1.6247e-08
-7.71724e-10
4.44645e-09
-1.73819e-08
4.14852e-09
-1.05757e-08
2.06311e-08
-7.66056e-09
2.04686e-08
7.24306e-09
-1.516e-08
1.42948e-08
1.91058e-08
-1.10563e-10
9.13777e-09
1.76199e-09
7.90629e-09
1.6677e-08
-5.28255e-09
1.01554e-08
7.85357e-09
1.9839e-08
6.99349e-09
-2.70275e-09
-7.88186e-12
-1.49225e-09
2.06982e-09
-7.4242e-09
5.26185e-09
9.25286e-11
3.45717e-09
1.75824e-09
-5.03152e-09
-1.83878e-10
3.66155e-09
-4.52521e-09
-4.40962e-11
9.07716e-10
-1.80981e-09
2.76859e-09
5.70097e-09
-3.63904e-09
-1.11008e-09
-5.63224e-09
-6.81869e-10
-5.36264e-09
-1.80318e-09
6.05574e-09
-1.65614e-09
2.52443e-09
-5.39352e-09
2.82766e-09
7.88578e-10
-5.27241e-09
2.52526e-11
-3.03346e-09
5.53264e-09
8.23697e-10
1.94127e-10
-2.50615e-09
-3.10084e-09
2.03598e-09
-3.86856e-09
-3.53006e-09
2.61482e-09
2.44846e-10
-5.58613e-09
5.6151e-09
8.50721e-09
5.08963e-10
-1.46312e-08
5.53192e-09
1.0883e-08
-1.07999e-08
1.08745e-08
-4.50838e-09
-8.34157e-10
-1.145e-09
9.69821e-09
2.32989e-09
6.59121e-09
7.71086e-10
6.31989e-09
-1.02154e-08
4.40446e-09
8.62181e-09
4.8369e-09
-7.13839e-09
-2.20329e-09
5.12009e-09
5.70551e-09
1.18687e-09
1.44744e-09
7.31556e-09
1.32572e-08
2.83882e-09
9.74732e-09
-7.46603e-09
5.55454e-09
2.22368e-09
1.57089e-08
5.10197e-10
-2.63447e-08
-1.30822e-09
-3.73973e-10
-1.73963e-08
8.97513e-10
-4.18983e-10
-2.28397e-08
8.77472e-10
-1.95421e-08
-1.15897e-08
-2.83468e-08
8.41107e-10
-1.1721e-08
7.32766e-09
4.94465e-09
-5.5134e-10
2.834e-09
2.30804e-09
-1.6863e-08
-1.22269e-08
8.29015e-09
1.12644e-08
4.83285e-09
-1.42258e-08
-1.76434e-09
-7.24413e-09
7.4815e-09
1.52697e-09
3.62798e-09
-9.89487e-09
8.57493e-09
1.45254e-08
-1.95123e-08
7.74858e-09
-2.76167e-09
-1.34297e-08
2.66901e-08
1.26507e-09
1.5128e-08
-1.5788e-08
-1.88523e-08
-7.31907e-09
9.01734e-09
1.29789e-09
1.14071e-08
-9.07703e-09
-9.6573e-09
-7.57821e-09
6.68774e-10
1.18541e-08
2.32372e-09
-9.09688e-09
1.53498e-08
-6.13676e-09
-1.16168e-10
-6.41292e-09
-1.32569e-08
1.05729e-08
1.46006e-08
-4.60633e-09
5.35558e-09
-1.41488e-08
7.00964e-09
1.36292e-08
-6.49003e-09
-1.68756e-08
-3.73196e-09
6.4588e-09
3.72869e-09
-1.46369e-08
4.49526e-09
5.52282e-09
1.6386e-08
-1.43043e-08
-7.60453e-09
1.33346e-08
-8.76592e-09
9.54085e-10
2.22104e-08
-1.19574e-08
6.13302e-09
1.63656e-08
1.91795e-08
-5.3197e-09
3.04473e-09
8.41865e-09
1.4076e-09
-1.51459e-08
8.14415e-09
-1.87198e-08
2.47989e-09
-3.10165e-09
2.27724e-09
2.38724e-08
-9.78413e-09
1.49752e-08
-4.55481e-09
-7.94046e-09
1.02787e-08
1.31151e-08
1.95656e-08
-7.35663e-09
-1.78415e-08
9.97333e-09
1.52247e-08
-1.31328e-08
3.06073e-09
2.71542e-09
-1.6598e-08
-4.26328e-09
3.01979e-09
-1.35183e-08
-1.62125e-08
1.0056e-08
-4.93591e-09
3.55543e-09
-8.67551e-09
-4.02062e-09
8.42449e-09
5.65209e-09
-4.90266e-10
9.60916e-09
-1.41305e-08
5.01155e-09
-8.52201e-09
-4.98446e-09
2.26261e-09
1.12438e-08
-6.57379e-09
5.41744e-09
-7.36566e-09
2.82871e-09
-1.43384e-08
-3.21486e-09
1.54458e-08
-2.25765e-09
9.12492e-09
-1.19557e-08
-1.43249e-09
6.01287e-09
7.78217e-09
-1.09663e-08
-2.08798e-09
-2.15048e-09
3.14149e-09
6.11031e-09
-7.10139e-09
5.23478e-09
-7.87556e-09
-1.84291e-09
-2.61889e-09
8.01721e-09
9.05152e-09
-6.01649e-09
-5.08886e-09
5.45063e-09
4.57353e-09
-4.9353e-09
4.35338e-09
-3.36008e-09
-3.3936e-09
2.40026e-09
-1.33801e-09
6.02549e-10
-1.27026e-08
5.56263e-09
-1.15501e-09
8.295e-09
-1.39549e-08
-1.17846e-09
2.43071e-09
-1.62172e-08
7.67097e-09
8.91587e-09
-3.69659e-10
-1.26295e-08
1.97494e-09
2.07604e-09
-3.9206e-09
7.29522e-09
4.15873e-09
-3.25578e-09
-4.26303e-09
2.61829e-09
2.02453e-10
5.09234e-09
4.50896e-09
-4.65196e-09
-4.94934e-09
7.36008e-09
-8.86247e-10
-1.3815e-09
-4.18037e-09
-1.54832e-09
7.80475e-09
-1.67518e-09
1.13144e-10
-2.84098e-09
6.59087e-09
3.61024e-09
-7.18663e-12
-9.06275e-09
-1.55132e-09
5.3017e-09
1.08677e-08
-3.45896e-09
-4.68398e-09
9.72656e-09
-2.46439e-08
-1.32214e-08
4.26734e-09
3.35979e-08
-1.09138e-08
-1.37379e-08
7.7307e-12
-2.487e-08
-6.77594e-09
1.84245e-08
-2.3465e-08
-1.23188e-08
-2.07338e-08
-7.10822e-09
3.21094e-08
-2.11218e-08
-1.33499e-08
-3.02094e-08
1.17195e-08
1.1714e-08
2.00364e-08
6.75672e-09
-1.87849e-08
-8.00819e-09
-1.48167e-09
-8.69135e-09
1.47917e-08
6.22496e-09
-5.62344e-09
-1.53932e-08
2.76956e-08
1.96838e-08
-3.25876e-08
3.23068e-08
-1.92937e-08
2.58543e-09
7.92399e-09
-3.51139e-08
8.40499e-09
-1.17347e-08
-3.16211e-09
-2.31044e-08
-3.07072e-09
-3.18326e-09
2.3879e-09
3.86607e-09
-8.43531e-11
-4.15693e-09
1.17058e-09
3.69565e-09
-5.17164e-09
1.39164e-09
2.86669e-09
-3.44556e-09
-3.57807e-09
-3.86065e-10
6.94827e-11
1.21164e-09
-4.02684e-09
-2.31045e-09
5.90997e-09
-4.61356e-10
1.01121e-11
5.1623e-09
-4.7111e-09
7.31081e-11
-3.98005e-09
-3.6102e-10
3.79146e-09
-3.42037e-09
2.60259e-09
-2.89052e-09
-2.61042e-09
-2.88797e-09
3.18792e-09
2.41992e-09
-2.42926e-09
5.54061e-09
5.26074e-09
-7.00988e-09
-3.03005e-09
3.35445e-11
-4.62452e-10
-7.22223e-09
3.65783e-09
-5.49905e-09
2.14861e-09
7.38299e-10
4.34934e-10
-6.73257e-10
7.46066e-12
1.53248e-09
5.45128e-09
3.0383e-09
3.18654e-09
4.86645e-09
9.64468e-09
-1.26405e-08
8.44714e-09
6.74799e-09
2.91301e-09
-6.62264e-09
8.1698e-09
-4.2535e-09
2.80003e-09
-6.71625e-09
-1.65394e-09
1.61913e-08
-4.89259e-09
-4.09073e-09
9.18483e-09
1.17141e-09
4.75768e-09
1.02622e-08
1.25435e-08
-1.72186e-08
5.84662e-09
5.84039e-09
2.36325e-09
4.6069e-09
-4.93007e-09
4.8999e-09
-6.86581e-09
6.89604e-09
1.60766e-09
1.63211e-09
1.04895e-08
-2.32833e-09
-3.26125e-09
-1.27174e-09
6.47249e-10
8.10818e-09
-7.48363e-09
-9.81792e-11
-8.03933e-09
2.52012e-09
-6.81998e-09
4.64434e-11
1.28133e-09
-5.39408e-09
-1.27503e-08
1.34762e-08
-2.94502e-09
-9.24985e-09
5.1988e-09
7.72607e-09
-6.89371e-09
-1.17132e-11
-2.98943e-09
-2.19312e-09
-1.00947e-08
6.24741e-09
-7.21588e-09
7.06584e-10
2.61893e-10
6.66924e-09
-3.16667e-09
-6.44758e-09
4.45693e-09
7.4111e-09
-5.07737e-09
-2.15021e-09
1.50437e-09
4.07679e-09
-7.77428e-09
-2.72536e-09
7.49224e-09
-4.09811e-09
2.48771e-09
-7.43336e-09
2.62889e-09
2.31677e-09
4.32563e-09
-5.98792e-09
3.14719e-09
-4.14776e-09
4.2193e-09
-1.08306e-09
-3.05771e-09
7.28798e-09
-4.19078e-09
-5.58654e-09
-4.62527e-09
2.11295e-09
-7.54878e-09
-3.81943e-10
4.19093e-09
-2.30091e-08
-7.23899e-10
1.8308e-09
-9.22961e-09
-2.30746e-09
1.40098e-09
-3.71884e-09
-7.64027e-09
-2.21598e-09
-6.06797e-09
7.41359e-09
-1.24272e-08
1.29198e-08
1.05998e-08
-6.41562e-09
3.22935e-09
-3.70222e-09
-3.4656e-09
9.62711e-09
-2.45933e-09
-2.2454e-09
-8.87204e-10
2.739e-09
3.9359e-10
-4.50225e-09
-1.16271e-08
-4.62811e-10
9.70996e-09
3.67269e-09
7.42007e-09
2.71695e-09
-3.88683e-09
1.65866e-09
-1.72117e-11
-9.80437e-09
-2.65345e-10
5.56748e-09
7.76143e-09
9.03873e-09
1.0628e-09
-1.7863e-08
2.37762e-09
1.38976e-08
-8.51387e-09
1.51385e-08
-3.72217e-09
9.54865e-09
-2.28537e-08
4.67469e-09
8.63029e-09
1.07155e-08
-1.80584e-08
1.68915e-08
-6.55021e-09
-3.72611e-09
-9.67099e-09
1.99472e-08
-1.15058e-08
1.5671e-08
9.47371e-09
1.12796e-08
-1.96906e-08
7.082e-09
8.82149e-09
-6.42988e-09
4.93358e-09
-1.38898e-08
-7.06139e-09
1.46472e-08
-5.03896e-10
1.2019e-08
-7.80084e-09
8.80748e-09
-1.17275e-08
-1.01451e-08
1.10936e-08
-4.22827e-10
-7.00227e-09
-2.24599e-09
-3.12119e-09
2.01974e-08
-6.44238e-09
-2.61135e-11
5.04281e-09
8.92624e-09
5.69486e-09
1.89786e-08
2.46264e-10
-1.9436e-09
-3.11794e-09
4.81529e-09
-2.83541e-09
7.47795e-09
-4.39632e-09
6.6726e-09
-3.68362e-09
-5.8244e-09
6.62614e-09
-2.1812e-09
2.22765e-09
6.4932e-09
7.6109e-09
4.13989e-10
5.82565e-10
8.77726e-09
-9.77378e-09
8.77868e-09
-2.24445e-09
-4.12822e-09
-2.40597e-09
8.70884e-10
8.32178e-09
4.55048e-09
-1.01597e-09
-7.21817e-09
2.57902e-09
-2.09754e-10
-4.73822e-09
4.29822e-09
-2.83352e-09
3.27354e-09
-3.73195e-09
-3.25073e-09
4.66491e-10
6.60929e-09
1.66141e-10
5.00297e-09
1.91299e-09
-4.87258e-09
3.06026e-09
-4.87923e-09
2.44223e-10
-1.74997e-11
-2.81675e-09
3.44938e-09
6.48711e-12
8.7921e-09
1.49329e-08
-1.92764e-08
-4.44856e-09
2.74141e-08
-2.32642e-08
4.64225e-09
-1.97211e-08
1.37244e-08
5.78847e-09
2.08338e-10
2.09811e-08
-1.32223e-08
-2.74798e-08
1.62312e-08
2.19531e-08
-1.72031e-08
2.62549e-08
3.70075e-09
6.18193e-09
1.39551e-09
7.35553e-09
1.109e-08
2.25061e-08
2.62197e-09
-1.01982e-08
-1.17001e-08
-1.09137e-08
-9.72841e-09
8.87028e-09
9.44831e-09
-3.15409e-08
-1.6202e-08
1.48945e-08
2.75626e-08
2.81424e-09
2.9369e-09
1.74269e-08
2.60348e-09
-1.72161e-08
-1.58272e-08
1.7982e-08
3.63368e-09
-1.71551e-08
1.96803e-10
2.83201e-08
9.41275e-09
9.96492e-09
2.45041e-08
5.27595e-09
-2.68845e-08
2.27502e-08
-2.32445e-08
2.74426e-09
2.57763e-08
-3.14022e-09
-2.80115e-08
4.26735e-09
-2.64698e-08
8.51389e-11
-1.78797e-08
2.47848e-08
-4.1608e-09
2.73129e-08
-8.25321e-09
-1.96058e-08
5.46094e-10
-2.65971e-08
3.60304e-08
-6.56738e-10
1.75667e-09
-2.26802e-08
2.15804e-08
-2.78552e-09
-2.43432e-09
-2.27917e-08
2.92542e-08
-4.48814e-09
-2.75515e-08
2.12772e-09
-2.14564e-08
-1.6858e-09
1.4889e-08
-4.68666e-09
-2.6467e-08
8.7067e-10
2.31399e-08
-2.84988e-08
-2.91114e-08
1.63198e-08
-6.81418e-09
-2.52724e-08
-4.66498e-09
-7.6543e-09
7.60482e-09
-9.23292e-09
-1.48528e-09
9.13266e-10
-6.1244e-09
-2.09144e-09
-5.61897e-09
-2.16867e-09
-1.31886e-08
-3.42293e-09
-5.78103e-09
-1.02566e-08
9.95249e-09
-1.7962e-08
4.20261e-09
3.80689e-09
-9.95892e-09
7.56268e-09
1.23487e-08
6.31352e-10
-7.75852e-09
-2.83175e-09
-1.32545e-08
-4.07618e-09
-8.20357e-09
-5.45503e-10
-4.50545e-09
3.17492e-09
-1.50536e-09
-9.87314e-09
-3.84136e-09
-1.19902e-10
1.15239e-08
-4.61907e-09
4.9803e-09
2.2419e-09
3.08448e-10
2.65577e-09
-5.20613e-09
2.46343e-09
4.13874e-09
-4.36025e-09
-2.56763e-09
-5.10032e-09
7.54809e-09
-2.81667e-09
2.71255e-09
7.58351e-10
-5.34195e-09
5.70344e-09
5.58939e-10
-7.76772e-09
8.62533e-09
-3.4674e-09
4.3147e-09
-5.42507e-09
2.10687e-09
3.38285e-09
-6.46222e-11
1.38984e-09
-2.1874e-09
-4.6275e-09
2.84496e-09
9.29434e-10
-2.38453e-09
4.80024e-09
1.51641e-10
2.08235e-09
-9.87096e-11
-4.86002e-09
1.84206e-09
-6.99798e-09
5.36952e-09
-3.17221e-09
7.37708e-09
-4.31576e-09
-2.24305e-09
-8.1829e-10
2.47835e-10
5.49379e-09
1.63541e-09
-3.60388e-09
-3.34252e-09
2.60489e-09
4.34145e-09
-4.62908e-09
1.27301e-09
-6.78417e-10
6.45171e-10
-4.59586e-09
2.77658e-09
-3.42298e-09
-3.20795e-11
-9.78666e-09
3.66418e-09
-7.13614e-11
6.19378e-09
8.93559e-10
-5.20563e-09
-5.47462e-09
1.48685e-09
7.67106e-09
7.73034e-09
-3.24202e-09
-3.59482e-09
2.93701e-09
4.72192e-09
-8.99959e-10
-8.32451e-10
-2.58337e-09
-5.61362e-10
-4.62203e-12
-3.77876e-09
-3.66992e-09
-2.32932e-09
6.421e-09
-3.06488e-09
3.67254e-09
3.51848e-09
-3.87333e-09
-2.8872e-09
-1.078e-10
-1.29714e-08
-1.86374e-09
6.44056e-09
8.3946e-09
-3.34406e-09
-8.61348e-09
-1.01385e-09
-6.94245e-09
1.42556e-08
-4.92125e-10
-6.82104e-09
9.06781e-09
-2.47112e-09
-1.35391e-08
1.49256e-08
-4.01399e-09
5.38616e-09
7.67569e-09
7.71252e-09
-7.25819e-09
-6.60215e-09
1.33345e-08
-7.22449e-09
-6.53952e-09
8.73443e-09
-8.79705e-09
7.69966e-09
-1.67103e-08
-7.87047e-09
5.80748e-09
8.50355e-09
2.09223e-09
-2.25018e-09
7.47185e-09
1.12488e-08
-4.97579e-09
9.94604e-09
-2.87804e-09
-1.06813e-08
1.73718e-08
-1.16663e-08
-4.85284e-09
1.51227e-08
-1.53547e-09
-7.83449e-09
1.49554e-09
2.37398e-09
6.07654e-09
6.27943e-09
1.25879e-08
2.29937e-09
5.88211e-09
-3.81608e-09
1.35873e-08
1.75861e-08
-1.76919e-08
2.6777e-08
2.83153e-08
5.55434e-09
-6.05771e-09
1.811e-08
1.05792e-08
-1.52066e-08
2.9617e-08
2.83425e-09
2.11425e-08
-5.00893e-09
1.44974e-08
1.33286e-08
1.79103e-09
1.63009e-08
1.61224e-08
-9.31691e-09
1.68385e-08
5.80705e-09
1.61046e-08
-4.27896e-09
3.57083e-08
-6.62977e-09
-7.41984e-09
-1.14699e-09
1.20254e-08
2.483e-08
8.83651e-09
1.67935e-08
4.98938e-09
1.99518e-08
-4.24022e-09
2.60682e-08
2.26914e-08
-1.30202e-08
3.04766e-08
-6.07122e-09
-1.22052e-09
-5.29256e-10
7.82102e-09
-3.45799e-09
-5.87429e-09
1.69598e-09
7.63631e-09
-4.22317e-09
8.20719e-10
3.23338e-09
1.69095e-10
-3.56656e-09
-2.99919e-10
-3.56686e-10
-5.40985e-09
5.32991e-09
9.00699e-10
6.69486e-09
-3.89001e-09
-1.8703e-09
-9.34535e-10
-4.3483e-09
5.63332e-09
3.84405e-09
-4.00628e-09
-3.72777e-09
-3.91807e-10
-1.12422e-10
6.70579e-10
-8.18234e-09
1.44054e-09
-5.74236e-09
2.90044e-09
4.25818e-09
-1.41626e-09
-3.88188e-09
-7.64702e-11
2.65802e-09
-1.56484e-08
1.38828e-08
-8.9226e-10
-1.74989e-08
2.05511e-09
1.81019e-08
-1.58321e-08
1.31177e-08
-1.06736e-08
1.3388e-08
-2.84391e-09
-3.48722e-08
2.1884e-08
-1.30139e-08
1.23958e-08
3.51682e-08
-3.45501e-08
-1.1584e-09
5.87302e-09
-1.77285e-08
1.48523e-08
-1.47389e-08
2.02366e-09
-2.1367e-09
7.32368e-10
2.34659e-08
-9.34592e-09
1.94926e-08
-2.0878e-09
-4.28699e-09
3.26208e-08
1.01853e-08
-1.26046e-08
-1.32291e-08
-4.31235e-09
-3.00118e-09
5.36708e-09
7.35738e-09
-1.11148e-08
-5.7118e-09
-8.46981e-09
-6.9573e-09
-2.39183e-08
-2.13077e-09
1.71197e-08
-1.03295e-08
-4.65942e-09
-1.44255e-08
1.84979e-08
-6.20326e-09
-1.57729e-08
-1.24961e-08
1.71507e-08
1.11183e-08
2.61486e-09
-7.17336e-09
-1.12143e-08
-1.22615e-08
-5.16822e-09
9.34975e-09
8.07997e-09
-7.86166e-10
-8.86047e-09
9.09775e-10
-1.62424e-08
1.0553e-10
1.5227e-08
1.1784e-09
-1.46942e-08
1.0746e-08
-4.50437e-09
-1.34149e-08
1.5134e-09
-3.26364e-09
-5.33889e-09
-7.99267e-09
2.75875e-09
1.05728e-08
-1.48225e-08
4.31543e-09
-4.13974e-09
-1.14689e-08
-1.65408e-08
-7.6942e-09
2.55567e-09
-2.59875e-08
1.89274e-08
-1.81249e-08
2.49083e-08
-1.63603e-08
-2.30888e-08
1.45408e-08
-4.18132e-09
1.79925e-09
2.72904e-08
2.37739e-08
-3.3143e-08
-6.99123e-09
2.08059e-08
-1.2133e-09
-2.18149e-08
2.11537e-08
-3.77844e-09
4.43973e-09
-2.66387e-08
-1.14766e-08
1.63003e-08
-1.2245e-08
1.46297e-08
-5.85338e-10
-2.10119e-08
-6.1943e-10
9.38627e-09
1.2136e-09
-6.39815e-09
-1.79043e-08
-7.39299e-09
8.35984e-09
-2.74085e-08
2.36368e-08
-4.04465e-09
-1.44947e-08
-1.80059e-08
4.72112e-09
-7.72702e-09
-1.36908e-08
2.14328e-08
1.01016e-08
-3.13923e-08
-1.41876e-10
-4.252e-09
3.44725e-08
-8.78765e-09
3.24695e-08
-8.10275e-09
-2.35207e-08
-8.46024e-10
1.61442e-08
2.34713e-08
-7.14602e-09
-2.61301e-08
2.46453e-08
1.76291e-08
-3.38705e-08
-8.69413e-09
1.64345e-08
2.59521e-08
-9.22545e-09
-2.31604e-08
6.4339e-09
-1.42545e-08
3.59546e-08
-1.14e-08
-3.05732e-08
2.51228e-08
-3.41317e-08
-2.16422e-10
-1.38789e-08
2.47472e-08
-3.66176e-08
-4.24741e-09
2.69861e-08
-1.17229e-08
-3.43474e-08
9.45274e-09
-2.12815e-08
-1.02427e-08
-2.60749e-09
-7.6041e-09
-2.54003e-08
-2.61975e-08
-1.42489e-09
4.462e-09
-3.3019e-09
-3.73584e-08
2.92604e-08
-2.53098e-08
-1.11303e-08
-3.62158e-08
1.16634e-08
-4.37482e-09
-1.05452e-08
3.2567e-09
-2.81407e-09
2.7612e-11
1.44498e-08
2.05607e-09
6.05375e-10
8.75945e-09
-1.14208e-08
1.00279e-08
3.06641e-09
-1.10381e-08
-1.65745e-08
-2.0041e-09
1.57646e-08
-2.40451e-09
-1.85448e-08
1.09961e-08
-1.34671e-08
3.0764e-09
4.5917e-09
-4.14075e-09
9.1383e-09
-5.75597e-09
1.2094e-09
-2.11546e-09
1.12814e-08
3.59936e-09
-5.95819e-10
1.06552e-08
2.97205e-09
1.66653e-08
-1.42331e-08
6.34336e-10
-1.64761e-09
1.01874e-08
1.30136e-08
-1.62087e-09
5.05144e-09
-7.20937e-09
-8.68562e-09
-5.16223e-09
1.30295e-08
-6.34757e-09
-3.23806e-09
-7.13592e-09
2.46808e-09
3.04687e-09
3.09178e-09
-1.20762e-08
1.84849e-09
7.98254e-09
-1.12384e-08
5.28837e-09
3.99048e-09
-6.33653e-09
-7.20055e-09
9.54653e-09
-2.73019e-09
-2.71118e-09
9.43181e-09
-2.23775e-09
-4.15693e-09
-7.16472e-09
-8.01838e-09
-4.82762e-09
-4.28708e-09
-1.10815e-08
-1.69665e-08
-3.51137e-09
-6.98213e-09
-3.98225e-09
1.28479e-08
4.21408e-09
-1.17077e-08
6.63173e-09
-1.06358e-08
8.21813e-09
-8.42783e-10
4.74431e-09
-7.04644e-09
-9.17034e-09
1.70444e-08
-8.27565e-10
2.0644e-08
-1.73267e-08
-1.03637e-08
-8.52785e-09
7.51084e-09
-2.02799e-08
-1.75553e-10
-2.89904e-08
1.60589e-08
-6.91015e-09
5.20215e-09
-1.43509e-08
6.73822e-09
1.50369e-10
7.36354e-09
9.05127e-09
8.66136e-09
1.57466e-08
-2.44124e-08
-1.02152e-09
2.02257e-08
-1.16933e-08
1.12237e-08
-7.04301e-09
1.40165e-08
3.94538e-09
-9.16731e-09
2.18806e-08
1.2167e-08
7.87301e-09
1.70162e-08
-5.96538e-09
1.12283e-08
2.63479e-08
-3.16108e-08
3.06947e-08
-7.61237e-09
-1.96082e-08
-3.47415e-09
6.16013e-09
1.85692e-08
-1.692e-08
8.84701e-09
-1.86235e-08
5.20179e-09
-3.49824e-09
1.39606e-08
-3.51309e-09
-2.13071e-08
1.08596e-08
-7.54737e-09
-1.86885e-08
-1.81973e-08
5.46189e-09
2.15825e-08
-1.2891e-08
-1.04402e-10
-6.13183e-09
-1.83781e-08
1.83892e-08
6.12086e-09
-1.83768e-08
-6.4602e-10
1.10279e-08
-1.04868e-08
-1.89179e-08
-7.90894e-10
-6.55927e-09
-2.08674e-08
4.54422e-09
-7.6977e-09
-2.15472e-08
2.83953e-08
6.7007e-09
1.60057e-09
-6.13709e-09
-2.16415e-09
-5.54034e-09
1.26014e-09
1.09809e-08
-4.93166e-09
9.91877e-10
-3.12506e-09
-4.1467e-09
8.53191e-09
-4.48118e-09
-6.791e-09
8.14714e-09
-2.16716e-10
-1.24714e-08
7.75645e-09
-1.17409e-08
-6.71129e-10
5.10535e-09
6.14915e-09
-1.05834e-08
4.16678e-09
5.11783e-09
-9.95574e-09
3.01159e-09
1.03575e-08
-8.26376e-09
-3.88906e-09
-5.57074e-09
-8.73279e-10
-5.10092e-10
-1.57426e-09
-8.46622e-09
3.2495e-09
-5.87495e-09
1.54008e-10
8.4007e-09
3.40735e-09
-5.65888e-09
6.61878e-09
-6.34105e-09
-9.38799e-10
3.34879e-09
8.29632e-09
-6.52726e-09
9.8986e-09
-3.14246e-09
-4.19131e-09
8.21497e-09
2.21412e-09
1.89089e-09
2.69581e-09
-1.60129e-08
7.31197e-09
3.33462e-08
-2.39263e-10
-4.50854e-10
-2.23737e-08
-6.38511e-09
-1.75865e-08
-1.70624e-08
1.2066e-08
1.78769e-08
-1.28805e-08
-6.05302e-09
-2.34412e-09
-8.66523e-09
1.86057e-09
-5.22014e-09
1.54256e-08
-4.57493e-09
1.37475e-08
8.51015e-12
-1.51266e-08
9.89794e-09
-1.36025e-08
9.03605e-09
1.24299e-08
5.566e-09
-5.59139e-09
4.41881e-09
9.73798e-09
-8.2893e-11
-1.52465e-08
-9.84243e-09
4.45381e-09
-1.77771e-08
1.63751e-08
-4.98309e-09
1.43256e-08
-9.10251e-10
-3.49051e-09
-9.92479e-09
-1.56987e-09
7.31958e-09
6.20882e-09
-3.55472e-09
-9.97361e-09
1.04094e-08
-3.41206e-10
-2.74856e-09
-1.44809e-09
9.42861e-09
2.42893e-09
4.88015e-09
-1.1937e-10
5.41348e-09
-6.78785e-09
-3.0282e-09
4.40266e-09
-6.12173e-09
-3.15119e-09
1.46865e-08
5.87158e-09
5.36703e-09
-1.47933e-08
-9.18646e-09
1.24433e-08
-3.59805e-09
1.21073e-08
-1.54222e-08
8.41583e-09
-4.31663e-09
7.80988e-10
-3.28762e-12
2.64417e-09
-8.67698e-09
2.55197e-09
-6.6758e-09
-7.24338e-09
1.0768e-08
-1.28816e-09
7.3729e-09
-6.32247e-09
1.00025e-08
1.21257e-09
1.37688e-08
1.34209e-09
8.58498e-09
1.11885e-08
-8.96975e-09
-1.08037e-08
9.29462e-09
-4.81012e-11
-6.61511e-10
4.29229e-09
3.98819e-09
2.90803e-09
6.92042e-09
6.66649e-09
6.82098e-09
-5.69111e-09
5.09195e-09
-6.22178e-09
7.34588e-09
-5.72999e-10
1.73243e-09
-1.63933e-08
-3.79659e-09
5.10265e-09
-6.02977e-09
4.72364e-09
7.37782e-09
-8.12653e-09
-3.04789e-09
-5.12185e-10
1.29926e-08
-1.12642e-08
7.12591e-09
3.61272e-09
-2.29421e-09
3.77342e-09
9.72268e-09
1.2359e-09
7.55487e-09
-1.70867e-08
1.50388e-08
-1.14984e-08
4.01443e-09
1.12254e-08
-2.21631e-09
-4.88686e-09
1.12951e-08
8.77592e-09
-3.94013e-09
-6.15274e-09
1.69312e-08
-1.20129e-08
1.23456e-09
9.76905e-09
-4.42835e-10
-1.54789e-08
1.40388e-08
2.64848e-09
-6.91815e-09
-1.22406e-08
2.75381e-09
2.35257e-08
-1.62813e-08
2.09719e-08
1.84102e-08
-3.96569e-09
-2.88148e-08
1.46699e-08
1.5936e-08
-1.59152e-08
-1.00652e-08
-1.0386e-08
2.7181e-08
-1.40412e-08
-1.30105e-08
1.51395e-08
-7.28381e-09
6.38994e-09
3.55257e-09
1.89901e-09
-1.17572e-09
-4.27595e-09
2.11284e-09
1.61961e-09
-1.80001e-10
1.75853e-09
-4.3506e-09
5.07075e-09
-2.47875e-09
3.87294e-09
-1.60027e-12
1.44773e-09
-6.00747e-09
1.67725e-09
2.88243e-09
2.53908e-09
6.09308e-09
-7.18445e-09
2.20992e-09
-1.67261e-09
-8.23793e-09
7.70057e-09
-6.12896e-10
-3.18468e-09
-2.41634e-09
3.70242e-09
-7.19895e-09
-4.70316e-09
3.1257e-09
5.45037e-09
3.69892e-10
-2.33148e-12
-1.97828e-09
7.64305e-09
3.57848e-09
-3.87953e-09
2.90047e-09
4.04548e-09
-1.65916e-08
9.6457e-09
8.80947e-09
-2.44443e-09
-2.63828e-08
2.00178e-08
-1.41551e-08
9.11303e-09
1.94636e-08
-1.44215e-08
-6.18284e-09
1.19914e-08
-1.99637e-08
5.61639e-09
6.39706e-09
-8.3948e-09
-7.12418e-09
7.28937e-10
1.47901e-08
-3.27926e-09
1.56235e-08
-6.72775e-09
-2.8931e-08
1.57569e-08
9.42896e-09
2.84077e-09
-1.47142e-08
5.96727e-10
8.70747e-09
1.248e-10
-1.13365e-08
2.25981e-08
-1.83405e-08
7.30208e-09
-2.98077e-10
-8.57028e-09
-1.08074e-08
1.03717e-09
-1.1858e-08
-5.10705e-09
7.2739e-09
-1.62912e-08
-9.9316e-09
8.2631e-09
-1.87964e-08
6.80563e-09
3.72771e-09
-1.73781e-08
8.58269e-09
1.70585e-08
-1.04367e-08
-7.42602e-09
4.84622e-10
-1.44223e-08
7.95479e-09
4.63902e-09
-3.40628e-09
-9.18752e-09
5.9057e-10
1.71962e-08
9.19714e-09
1.18108e-08
5.82232e-09
1.16626e-08
6.95383e-09
3.18223e-09
-1.02576e-08
1.50301e-08
2.86653e-08
1.37959e-08
1.52065e-08
3.0655e-08
3.35283e-08
-5.07008e-09
-1.03046e-08
1.03987e-08
4.97604e-09
7.65474e-09
-1.34051e-09
-1.13842e-08
3.96064e-09
-4.77804e-09
-9.48721e-09
-2.98818e-09
1.12605e-08
2.12644e-09
-6.91893e-10
5.3585e-09
-3.14035e-09
6.48139e-09
-3.79135e-09
4.50372e-10
4.47037e-09
-9.18207e-09
1.57139e-09
-3.87525e-09
-8.23355e-10
8.65927e-09
-2.68847e-09
2.29397e-09
-7.62595e-09
8.02051e-09
-1.01853e-08
6.80493e-09
-5.39536e-09
6.61777e-09
1.07163e-09
-5.89287e-09
6.1666e-10
-1.19145e-10
5.72955e-09
-5.13443e-09
5.40546e-09
-9.10928e-09
-1.13743e-09
-1.08308e-09
-1.30074e-09
-2.18116e-09
-5.47545e-10
1.6102e-08
-1.33733e-08
-3.39077e-09
-1.65676e-08
7.11082e-09
-1.55372e-10
-1.97395e-08
1.2784e-08
7.72036e-09
-1.18649e-09
-1.54189e-08
8.88501e-09
1.31676e-08
5.59655e-09
-1.16533e-08
1.8402e-09
-1.09314e-08
8.74874e-09
3.42465e-10
1.84489e-09
7.29174e-09
-7.29645e-09
-1.04861e-08
1.17834e-08
5.04957e-09
-1.74349e-08
2.01057e-08
4.9087e-09
-2.22723e-09
-9.35266e-09
-2.36032e-09
7.81524e-10
3.58421e-09
-5.2108e-09
1.69239e-08
1.01219e-08
5.09177e-10
-8.22609e-10
1.86076e-09
1.4708e-08
-6.44684e-09
-4.25482e-09
6.53224e-09
9.80906e-09
4.81295e-09
2.6858e-09
-4.796e-09
1.3189e-08
4.98271e-09
-4.96575e-09
5.04741e-09
-1.02889e-08
3.34855e-11
5.20794e-09
-6.07205e-09
3.6244e-09
7.49502e-09
8.12606e-09
-4.298e-09
6.12966e-09
-9.9578e-09
-2.02139e-09
7.81959e-09
2.32778e-09
-2.97081e-09
-2.7767e-09
-3.24575e-10
-4.47341e-09
-8.7863e-09
4.01034e-09
-8.27488e-09
2.28286e-09
-2.93948e-10
-8.89278e-10
6.42242e-09
2.28639e-09
3.87099e-10
4.85325e-09
1.23598e-09
2.51023e-09
-1.21801e-10
-2.98727e-09
1.88051e-09
8.60179e-09
4.6915e-09
-2.47083e-09
3.65243e-09
-1.33568e-10
1.27541e-09
6.44344e-09
-1.2964e-09
9.92844e-09
-5.74958e-09
5.12673e-10
2.00584e-09
9.00484e-09
-1.08222e-09
-7.66527e-11
5.0045e-09
7.99412e-09
-6.06493e-09
1.80471e-10
1.03552e-09
-4.90834e-09
1.24693e-09
-4.89725e-09
1.18491e-09
-8.01534e-09
-4.4732e-10
-7.56256e-09
-1.65499e-09
-7.72748e-09
-6.27739e-09
-1.2631e-08
1.11019e-08
-1.18293e-08
1.33585e-08
8.44973e-09
-7.8942e-10
1.88683e-09
-9.54703e-09
9.77059e-09
1.69714e-08
-1.82922e-08
2.78355e-09
1.10568e-08
-7.43342e-09
3.48667e-08
-7.59421e-09
1.01907e-08
-2.2487e-08
9.23659e-09
-1.22745e-09
-6.8043e-11
-6.91316e-09
-1.47902e-09
-1.05331e-08
-6.49812e-09
1.0118e-08
7.59134e-09
-6.71365e-09
-1.14108e-08
9.62891e-10
1.30297e-10
1.11747e-08
-2.9343e-09
-1.04864e-08
-1.76587e-10
-3.56517e-10
-6.31215e-09
2.92863e-10
6.19317e-09
-6.99185e-10
-8.42834e-09
-2.95578e-10
-1.0534e-08
-4.13275e-09
1.23709e-08
5.48675e-09
-1.37249e-08
5.71381e-09
1.36265e-09
-1.12092e-08
-7.75295e-09
-4.71074e-09
1.10531e-08
1.41052e-09
3.36187e-09
-5.40103e-09
1.05178e-08
-2.85766e-09
-3.71382e-09
4.93176e-09
3.49717e-09
-4.71511e-09
2.93562e-09
-5.28679e-09
5.56845e-09
1.38497e-09
-1.46666e-09
1.99096e-09
1.0341e-09
-5.75302e-09
2.72799e-09
-3.67525e-09
4.90867e-09
7.5754e-10
-4.80102e-10
3.13548e-09
2.80248e-10
4.48979e-09
-3.81291e-11
-3.5067e-09
-2.84112e-09
2.67258e-09
1.02581e-09
-4.27146e-11
-2.6637e-09
8.49037e-09
5.22647e-09
1.74135e-10
5.24024e-10
-8.32582e-09
6.39617e-09
2.96376e-09
7.76043e-09
6.01112e-09
-1.12896e-09
1.28392e-09
4.68493e-10
-8.59982e-09
3.81303e-09
8.43897e-09
-3.65214e-09
1.46811e-08
-2.09362e-08
-2.3447e-09
1.51045e-08
3.38959e-09
3.33387e-08
-6.62106e-09
-3.93129e-09
-2.27864e-08
8.70777e-09
9.61342e-09
1.50174e-08
-5.78048e-09
2.86148e-08
-1.23381e-08
-1.04962e-08
2.66992e-08
-1.73752e-08
2.74628e-08
-2.5523e-08
-8.56084e-09
2.64095e-08
-2.19019e-08
1.51366e-08
1.99806e-08
3.0919e-08
9.89027e-09
-1.33465e-08
2.09128e-08
1.96197e-08
1.90167e-08
-5.26476e-09
-3.12455e-08
1.74935e-08
1.78553e-09
3.81439e-08
1.25561e-08
1.07939e-08
1.25144e-08
2.67409e-08
1.85591e-08
-1.62955e-08
-1.46018e-08
-2.79605e-09
2.94365e-08
1.01422e-08
1.44731e-08
-1.63094e-08
-8.3059e-09
-1.52884e-08
4.25123e-09
2.11793e-08
-4.91866e-09
-8.92586e-10
6.16511e-09
-3.5387e-10
-1.11061e-10
-4.84678e-09
3.91595e-11
-9.02621e-09
8.93124e-09
-1.74665e-09
1.84163e-09
-9.64262e-09
-2.74621e-09
3.36264e-09
8.00744e-09
-8.10991e-09
-8.58444e-12
-2.27135e-09
9.38621e-09
1.97712e-08
-5.36361e-09
6.55832e-11
1.93272e-08
-1.82736e-09
-5.23365e-09
5.60624e-09
-1.5661e-08
1.89018e-09
-2.34332e-08
-7.20933e-09
-1.76703e-09
4.1296e-09
1.36078e-11
-4.04998e-09
-1.00706e-08
-3.40294e-09
-4.34897e-09
-2.84675e-09
-1.25294e-08
1.86718e-08
-3.71116e-09
-6.2378e-09
-8.7228e-09
1.3468e-08
2.3541e-08
-1.83372e-08
-5.55084e-09
-1.12607e-08
-3.76533e-09
2.05771e-08
-2.87644e-09
1.07937e-08
1.5138e-08
-1.11677e-08
-7.68134e-09
-2.31977e-09
7.36342e-09
-1.76394e-08
1.25958e-08
-3.08005e-09
5.9893e-09
-1.10672e-08
2.20161e-09
-8.76343e-09
1.09875e-08
7.10065e-09
5.1706e-09
-1.4591e-08
6.05438e-09
-1.01214e-08
-1.79991e-08
1.30581e-08
2.87648e-09
2.06456e-09
5.42538e-10
-1.11782e-08
-1.29624e-08
1.11901e-09
7.88745e-09
3.2957e-09
-6.01245e-09
9.79411e-10
-9.04433e-09
1.10353e-08
-5.20606e-09
1.54619e-08
2.32265e-08
-3.51434e-08
-3.54524e-09
1.6302e-08
-8.14249e-09
7.30235e-09
-1.13387e-09
-2.44202e-08
-1.75192e-08
2.67921e-08
1.07077e-08
6.1409e-09
1.50808e-08
-4.91978e-09
2.74387e-08
-1.8732e-08
-2.56608e-09
-6.99683e-09
1.68812e-08
-1.53345e-08
5.45001e-09
2.17424e-08