/*--------------------------------*- C++ -*----------------------------------*\
| =========                 |                                                 |
| \\      /  F ield         | OpenFOAM: The Open Source CFD Toolbox           |
|  \\    /   O peration     | Version:  v1612+                                |
|   \\  /    A nd           | Web:      www.OpenFOAM.com                      |
|    \\/     M anipulation  |                                                 |
\*---------------------------------------------------------------------------*/
FoamFile
{
    version     2.0;
    format      ascii;
    class       surfaceScalarField;
    location    "200";
    object      phi;
}
// * * * * * * * * * * * * * * * * * * * * * * * * * * * * * * * * * * * * * //

dimensions      [0 3 -1 0 0 0 0];

internalField   nonuniform List<scalar> 
36752
(
-1.27994e-08
1.39855e-08
-1.41837e-08
1.29978e-08
-1.79348e-08
3.19532e-09
1.94029e-09
1.8016e-09
-1.40522e-08
-1.72799e-09
1.39787e-08
-8.74135e-10
1.61354e-08
-1.20184e-09
-1.00694e-08
-4.864e-09
1.24357e-09
-9.81749e-11
1.49901e-08
-1.80289e-08
1.83985e-08
-1.06063e-08
-1.13375e-08
3.91518e-09
-9.15972e-09
1.28037e-08
3.88406e-10
-4.0323e-09
-1.63435e-09
7.73815e-09
-1.52634e-08
-1.17403e-08
2.13342e-08
3.2099e-09
-1.72122e-08
-1.24629e-08
-3.45576e-09
-1.44868e-08
3.62997e-09
1.81975e-08
-1.21169e-08
-7.2823e-09
1.63714e-08
-1.17247e-08
-9.68214e-09
-7.99717e-09
-3.33916e-09
6.33347e-09
-1.5965e-08
2.33106e-09
-1.1805e-08
-8.08699e-09
2.11718e-08
-1.07536e-08
1.40218e-08
-1.57753e-08
-6.82937e-09
8.73431e-09
-1.44429e-10
1.45875e-09
1.09552e-10
-8.52546e-10
-7.15029e-10
-1.05193e-09
2.5374e-10
2.25726e-09
-4.52247e-10
-4.90162e-10
2.60252e-10
-4.60493e-10
-2.51939e-10
-5.31628e-10
4.68388e-10
4.05781e-10
-3.41864e-10
-1.23664e-10
-1.47667e-10
-8.41757e-10
3.50285e-10
-3.60928e-10
3.79629e-10
-1.68191e-09
-5.32039e-10
1.25442e-09
9.65817e-10
2.31956e-10
-8.4738e-10
1.93202e-09
-1.4983e-09
-1.27697e-09
5.98828e-10
1.05786e-09
-3.8729e-10
1.47586e-10
-2.64463e-10
5.03318e-10
3.24807e-11
-2.63655e-10
-1.56177e-10
7.74676e-10
-3.57767e-10
-3.86132e-10
-2.98971e-10
1.22071e-09
-1.22456e-10
-5.79086e-11
-8.34644e-11
8.12814e-11
2.47904e-11
-2.28884e-10
-8.73639e-11
-9.61889e-11
1.26185e-09
-2.2752e-10
2.05807e-10
-1.24234e-09
-5.99785e-10
1.56204e-09
-3.20342e-10
1.90431e-10
7.14779e-11
-7.65624e-11
-2.19119e-10
-2.45593e-10
7.79629e-11
-1.70754e-10
-3.02373e-10
7.51984e-10
-3.04781e-11
-5.16248e-10
6.47035e-11
-2.77926e-10
5.62529e-09
-9.05641e-09
1.56721e-10
3.27463e-09
3.26262e-09
-3.07728e-09
5.44009e-09
7.51186e-11
-3.09249e-09
-6.0388e-09
-5.67509e-09
8.6536e-09
-2.90329e-09
5.62898e-09
2.4753e-09
-5.13239e-09
-2.97157e-09
4.42568e-09
-1.88909e-09
4.36314e-09
-6.23671e-09
6.97997e-09
-5.10644e-09
-5.97214e-10
5.19847e-09
-2.37785e-10
-4.16965e-09
3.75258e-09
6.55284e-09
-6.13565e-09
5.37411e-10
-1.64744e-09
-3.05949e-09
-5.26762e-09
-6.85149e-10
9.21545e-09
-4.69419e-09
3.85228e-09
-1.30628e-09
-9.12412e-10
4.5412e-09
-4.03115e-09
-1.10724e-09
-4.50606e-09
7.57359e-09
-1.27113e-09
1.50318e-08
-1.01206e-08
1.14602e-08
5.58135e-09
7.97511e-10
8.61136e-09
3.9583e-09
1.88877e-08
-5.40184e-09
-2.07681e-08
8.18586e-09
5.81153e-10
-2.15349e-09
3.96834e-09
-7.21671e-09
8.77926e-09
3.25292e-09
-1.41857e-08
8.88543e-09
-1.58971e-08
4.78169e-09
-1.63019e-08
2.04057e-08
6.90695e-09
1.51431e-08
-1.32708e-08
1.74157e-08
-6.54044e-09
-1.31839e-08
2.19239e-08
1.13378e-08
-1.29488e-08
3.49886e-09
-8.05818e-09
-9.79616e-09
-3.00688e-09
2.31193e-09
3.03503e-09
1.35689e-08
6.1588e-09
8.5708e-09
2.68241e-09
-1.55207e-09
-8.19008e-09
3.48874e-09
-5.3126e-09
1.00139e-08
2.90075e-09
-1.42745e-08
3.18363e-09
-7.96443e-09
-4.48983e-10
1.19022e-08
-1.00915e-08
5.02785e-09
-1.33342e-08
-1.50044e-08
1.1064e-08
1.72745e-08
-4.61013e-10
-1.49635e-08
2.09026e-09
1.20751e-08
3.94849e-09
-7.55919e-09
-8.4644e-09
1.52261e-09
-8.37687e-09
-4.92359e-10
-6.13521e-09
-7.80241e-09
-1.55379e-08
-4.4203e-09
-5.90567e-09
-1.28013e-08
-2.12296e-09
9.61173e-09
-5.78325e-09
-6.99962e-09
-1.84709e-11
5.97017e-09
7.17464e-10
4.99959e-09
-1.16872e-08
2.9047e-09
6.91413e-09
-3.84867e-09
-1.46441e-08
-6.26997e-09
-3.93357e-09
-7.58605e-09
1.18594e-08
-1.36866e-09
-8.85643e-09
9.70575e-09
-4.84593e-09
1.75805e-09
5.82478e-09
-5.00931e-09
1.56244e-08
1.03098e-08
-3.88797e-09
7.0585e-09
1.15703e-09
-4.39415e-09
-1.99927e-09
5.23647e-09
-2.74143e-09
8.89558e-10
3.91172e-09
-2.05972e-09
-1.8926e-09
3.0802e-10
-1.15032e-09
-9.33613e-10
6.17219e-10
1.46719e-09
-6.23414e-10
-6.6789e-10
1.41109e-10
-1.51345e-10
-2.46658e-09
1.68553e-09
-2.15841e-09
4.01538e-10
-1.35748e-10
-3.76609e-10
-2.62282e-10
-1.51954e-09
-4.52452e-10
-2.82273e-10
1.13567e-09
-4.26762e-10
4.95706e-10
-5.21727e-10
-1.36734e-10
-5.40372e-10
5.4081e-11
2.27707e-09
-7.70449e-10
-7.30416e-10
-4.04001e-09
-1.9661e-10
-4.92244e-10
-1.67508e-10
-1.94922e-09
1.38633e-09
-5.00809e-10
7.8027e-09
-1.04365e-08
-7.18642e-10
3.35245e-09
5.25115e-09
-1.25786e-08
1.51302e-08
-1.27372e-08
6.04404e-09
-6.92038e-09
1.36136e-08
-6.34322e-09
-7.16933e-09
7.75407e-10
1.14097e-08
-1.03896e-08
-8.90621e-09
7.8861e-09
2.27049e-08
8.04883e-09
-8.09213e-09
-1.03932e-08
-3.81735e-09
-7.12419e-10
4.29389e-09
7.86674e-09
2.95878e-09
-1.51194e-08
7.16142e-09
5.61773e-09
-8.48524e-09
1.12075e-08
-1.08929e-08
-6.65772e-09
3.56845e-09
-1.2649e-08
-4.90984e-09
4.00505e-09
1.10232e-08
-7.16149e-09
-1.48259e-09
-1.70039e-09
4.2017e-09
-9.33503e-09
-1.07345e-09
2.59879e-09
-4.81149e-09
2.46014e-09
-2.47484e-10
-5.75362e-09
6.34567e-09
2.00669e-09
1.0257e-09
-4.27503e-10
-5.40972e-09
8.25963e-10
-5.55391e-09
-5.56188e-09
3.78964e-09
3.10055e-09
-1.32835e-09
1.11232e-11
-6.00051e-09
6.11926e-09
1.30515e-10
-5.81776e-09
7.00318e-09
1.9151e-09
-3.85397e-11
-5.76813e-09
-3.71341e-10
-5.54934e-09
7.60574e-09
-1.68534e-09
7.91193e-09
-6.34901e-09
-1.93461e-09
-1.56115e-09
6.02259e-09
1.6578e-09
-5.17953e-10
-5.06993e-09
6.41074e-09
-6.10285e-09
5.41453e-09
2.74739e-11
4.76788e-09
-2.88248e-09
6.02633e-09
5.15457e-09
-5.09292e-09
5.51336e-09
6.3289e-10
1.45921e-09
1.57961e-09
8.70153e-09
2.54788e-09
-4.80875e-12
3.80243e-09
1.64856e-09
6.92188e-09
2.26721e-09
-5.81024e-09
9.0384e-09
2.37162e-10
-3.46703e-10
-7.69242e-10
1.33576e-09
-2.20306e-10
7.6575e-10
-5.29167e-10
-5.83415e-10
-1.19914e-10
2.86567e-10
-2.63107e-10
-1.22697e-10
-2.26312e-10
2.29303e-10
-1.78751e-10
-5.84143e-11
3.99903e-10
1.15351e-10
-9.52685e-11
2.54656e-11
8.35419e-10
-2.76483e-10
9.45196e-10
-2.70319e-10
-1.25186e-10
3.97123e-10
-8.01605e-10
7.78186e-11
-2.86607e-10
-5.2831e-10
4.40609e-10
9.80747e-10
-8.63329e-11
-1.13632e-10
-1.87932e-10
6.67163e-10
-1.31145e-10
1.93105e-09
-3.0849e-09
-3.81904e-09
4.97303e-09
4.98278e-09
-1.12767e-09
-1.92366e-09
-1.2024e-09
5.69348e-09
4.91714e-10
2.57682e-09
-1.68063e-09
-2.0237e-09
-8.51739e-10
2.22628e-09
-4.52849e-09
6.19676e-11
3.0973e-09
1.36937e-09
2.58557e-09
-5.50172e-09
-9.55705e-10
3.8719e-09
-2.99154e-09
1.04862e-09
2.75407e-09
1.21051e-09
-5.30991e-11
-2.2457e-09
1.91458e-09
1.20735e-09
-2.24264e-09
2.09332e-09
-2.88314e-09
1.03909e-09
-5.3334e-09
-2.37267e-09
4.20188e-10
5.43341e-10
7.71806e-09
3.12894e-09
-2.7312e-09
-8.11558e-09
9.356e-10
7.33443e-09
-5.51848e-10
-4.31929e-09
7.72124e-09
-2.46622e-09
-3.41114e-09
5.47602e-09
-6.38396e-09
-8.05199e-09
5.83338e-09
9.55313e-09
-4.3856e-09
-7.7829e-09
1.64066e-09
2.55796e-09
7.28801e-10
2.54686e-09
-5.3282e-09
5.3086e-09
2.57764e-09
-3.38543e-09
5.77852e-09
1.70921e-09
3.81496e-10
-3.05049e-09
4.9616e-09
4.64206e-09
-5.92611e-09
3.11347e-09
-2.3757e-10
-4.624e-09
4.0713e-10
-4.15468e-10
-2.25205e-10
1.64153e-10
4.76745e-10
1.12321e-09
-5.27864e-10
-1.01082e-09
4.33612e-10
-6.40707e-11
7.53551e-10
1.19587e-10
-2.66065e-10
3.9887e-11
1.06747e-10
-1.32832e-10
-2.75428e-10
-1.66556e-10
2.48123e-10
-2.14538e-10
-3.31685e-10
-1.01043e-10
2.50227e-10
-1.95109e-11
2.35279e-10
-4.66253e-10
9.66584e-12
-9.10085e-11
-1.28573e-10
3.14804e-10
3.91832e-10
-5.77602e-10
6.44639e-10
-7.92474e-10
-3.37395e-10
1.52175e-10
5.54095e-11
-3.68059e-10
-1.97282e-10
5.10429e-10
5.30371e-10
1.69658e-10
6.62726e-10
-1.79393e-10
3.94481e-10
-6.99809e-11
3.1439e-10
-2.90411e-10
-6.16491e-10
1.12551e-09
2.19486e-11
4.79906e-10
3.71419e-10
-6.15748e-09
-4.45291e-10
-7.9667e-10
7.39935e-09
-3.03135e-09
1.74073e-09
-4.86689e-09
-2.17092e-09
8.09915e-09
2.58234e-09
-8.51058e-09
-6.97405e-09
4.80686e-09
-3.80452e-12
1.55301e-09
-8.55015e-09
-6.24096e-10
7.62123e-09
9.20686e-09
-5.92804e-09
-7.98396e-10
5.92966e-09
-6.1122e-09
-2.84721e-09
-3.86788e-09
-1.24418e-08
9.33559e-09
-3.8845e-09
1.41197e-10
-7.05089e-09
5.62836e-09
1.75148e-09
-2.46509e-09
-5.3987e-09
7.18462e-09
-1.76498e-09
-3.66819e-09
-3.61802e-09
3.75174e-09
3.7163e-09
-1.00493e-08
7.35612e-09
-5.40482e-09
-1.4643e-10
-4.04189e-09
2.85848e-09
-9.05121e-10
2.08873e-09
-7.68513e-09
-1.36288e-09
5.0062e-09
1.33878e-09
7.39502e-09
-5.79459e-09
-2.93917e-09
5.65293e-09
-1.45569e-09
1.85722e-09
7.23991e-09
-3.90297e-09
-5.19366e-09
-9.39691e-09
-2.99979e-09
8.06759e-09
4.32936e-09
3.95923e-09
7.38883e-09
-3.95309e-09
-4.33316e-09
4.57479e-09
3.71751e-09
-9.35625e-10
2.25553e-09
-3.73264e-09
-3.80702e-09
2.80038e-09
1.43991e-09
-5.63528e-09
1.10995e-09
9.09997e-09
1.3476e-10
1.61875e-09
-6.71735e-09
5.52214e-09
9.26276e-09
2.20361e-09
-8.78626e-09
3.56919e-09
-5.77318e-09
1.26853e-09
-5.94396e-09
1.2576e-08
1.95465e-09
-9.23182e-09
8.91758e-09
5.20868e-09
-4.89443e-09
1.26997e-09
-8.84139e-09
-1.6604e-09
-2.59084e-10
7.69322e-09
-6.37235e-10
-6.79686e-09
9.56731e-09
-8.5565e-09
-3.79613e-09
8.43284e-09
4.93058e-09
3.39546e-09
5.01601e-10
-7.57181e-09
6.7619e-09
7.46614e-09
-6.65629e-09
4.51943e-10
-8.26068e-09
2.36899e-10
1.58011e-09
-1.98071e-09
9.31814e-09
-1.34902e-09
1.1362e-08
2.13523e-09
-5.73279e-10
-6.69834e-09
5.13634e-09
-7.63395e-09
8.42016e-09
6.86537e-09
-7.05067e-09
4.2079e-09
4.85912e-09
-4.69208e-09
6.20612e-10
6.61393e-09
1.62315e-08
-1.66876e-08
-6.15788e-09
-9.74293e-09
1.40415e-08
2.31541e-09
1.32581e-08
4.27771e-09
-4.55444e-09
-1.29813e-08
-6.77969e-11
3.58296e-09
7.80766e-09
6.0768e-10
7.81624e-09
6.32369e-09
1.55255e-08
-5.9409e-09
4.91043e-09
-2.19706e-08
2.30011e-08
-1.65922e-08
1.1259e-08
1.30361e-08
2.53354e-09
-1.12919e-08
9.64889e-09
3.3194e-09
-1.04194e-09
-1.68193e-08
2.27717e-08
-1.20926e-08
1.73744e-08
-4.41015e-10
-2.0801e-08
-1.1073e-08
-1.12511e-08
3.53581e-10
-1.67455e-08
-1.09196e-08
-1.11202e-08
1.26268e-08
8.14236e-09
2.79847e-10
-8.8665e-09
1.52349e-09
-9.89279e-10
-1.44215e-08
-8.74241e-10
1.43986e-09
-1.86263e-08
1.69348e-08
-1.52151e-08
-8.73777e-09
-2.41323e-09
-1.02573e-09
-2.37643e-09
5.81542e-09
-2.86053e-09
-3.50707e-09
3.95433e-09
7.68209e-10
7.61288e-10
-3.91496e-09
-3.10855e-09
5.99778e-09
1.93923e-09
9.36624e-10
3.07918e-09
5.17555e-09
5.78566e-09
-4.66438e-10
4.20191e-09
5.84827e-09
-3.94989e-09
3.41857e-09
5.09495e-09
4.90464e-09
7.27016e-09
-8.01702e-09
-8.30919e-09
9.05608e-09
-7.25376e-09
-2.07072e-09
1.65946e-08
9.15156e-09
-1.34705e-08
-3.69787e-09
-5.51718e-09
7.41503e-09
-7.99547e-09
-8.21083e-09
1.41356e-08
1.53436e-09
4.89761e-09
-1.19491e-08
-1.42326e-08
7.77145e-09
-1.0173e-09
-1.86483e-08
1.13563e-08
-2.01666e-08
1.09384e-08
6.84669e-09
-6.67566e-10
-1.55445e-08
9.36537e-09
1.25008e-08
-1.36467e-11
-5.64039e-09
-1.39572e-09
4.2593e-10
-6.09456e-09
-1.85654e-09
-6.28144e-09
9.63165e-09
-1.12793e-08
-1.70006e-08
-8.9132e-09
-1.62174e-09
5.70486e-09
8.98075e-09
-1.53531e-08
-5.58798e-09
-6.02697e-09
3.8777e-09
-3.08764e-09
6.70402e-09
-7.49413e-09
-2.96186e-09
-5.07552e-10
7.34709e-09
4.57178e-09
-8.95425e-09
7.26432e-09
-2.88193e-09
-3.15234e-09
6.57196e-09
1.15213e-09
-1.00997e-08
2.17557e-09
4.77172e-09
3.58954e-09
-7.91863e-09
-4.97846e-09
9.30757e-09
1.67857e-09
-3.03962e-09
4.9506e-09
-3.20268e-09
4.22021e-09
-3.9794e-09
3.47979e-09
-9.77015e-09
2.70151e-10
-2.52044e-09
2.54434e-09
7.25261e-09
-6.31722e-09
-1.15408e-09
-2.57693e-09
2.0503e-09
5.33784e-10
-6.31387e-09
3.73028e-09
-4.9399e-09
5.20554e-09
1.78463e-09
-4.11407e-09
-2.53606e-09
5.40729e-09
1.24284e-09
-7.31494e-09
5.70807e-10
2.63002e-09
2.95548e-09
-5.16717e-09
3.84313e-09
-1.63138e-09
-6.15783e-09
1.79839e-09
-5.02446e-09
1.97991e-09
3.57835e-09
-3.99363e-09
-9.36971e-10
-9.05354e-12
-3.48608e-09
-6.82109e-09
-2.08806e-09
1.12234e-09
-4.05854e-09
-5.42782e-09
-1.46015e-10
5.33968e-10
-4.54899e-09
-1.15205e-09
-4.50154e-09
-1.39995e-09
2.70743e-09
3.59455e-10
-2.69585e-09
-1.27569e-09
1.03145e-08
-5.60123e-09
-3.43774e-09
1.17905e-08
-7.60448e-09
-5.46178e-09
1.04929e-08
-1.69647e-09
1.518e-09
-1.92737e-09
3.09077e-09
9.32961e-09
8.40182e-09
-1.08601e-08
7.61697e-10
-7.77125e-09
7.62792e-09
8.54517e-09
9.46996e-09
-1.07086e-08
-9.62151e-09
-3.17016e-10
2.01568e-09
2.37218e-09
7.49098e-09
-1.14825e-09
2.63119e-09
-7.08426e-09
1.68629e-09
-1.0439e-08
1.16097e-09
9.55771e-09
1.25379e-09
-9.3312e-09
1.01542e-08
-1.1785e-08
3.31711e-09
7.86851e-09
-1.75182e-09
4.03746e-09
-1.4446e-09
-8.26133e-09
8.238e-09
1.4678e-09
1.0619e-08
6.8479e-10
-1.27483e-08
1.08452e-08
-8.05547e-09
-1.53602e-09
2.26684e-09
4.13298e-09
6.10762e-09
-1.96632e-09
1.13652e-08
1.27856e-08
8.17114e-09
1.46433e-08
-2.16249e-08
-1.18955e-09
1.33503e-08
-1.30196e-08
7.84038e-09
5.36954e-09
-3.00351e-09
1.22773e-08
1.78435e-08
8.76386e-10
-2.40744e-08
6.70492e-09
1.82546e-08
-8.85164e-10
3.11741e-09
9.8115e-10
-2.8173e-08
-1.29117e-08
-2.81352e-09
-5.89968e-09
-1.52779e-08
1.29852e-08
-1.11724e-08
1.34651e-08
5.71537e-10
-1.77841e-08
1.42092e-08
1.7638e-08
2.12617e-09
1.86143e-08
5.72864e-09
4.12069e-09
1.50652e-08
3.24946e-09
1.15251e-08
3.48011e-09
-1.70187e-08
4.20336e-09
-3.06938e-09
1.58847e-08
1.15003e-09
-1.71876e-08
-1.2992e-08
2.84104e-10
-1.4412e-08
8.97041e-09
-1.5864e-08
-6.12596e-09
7.26501e-10
-9.87449e-09
6.57722e-09
2.57074e-09
-8.99015e-09
1.78955e-09
7.92739e-09
-1.685e-09
-7.10105e-09
-1.08839e-09
-1.03665e-09
8.02155e-09
-7.33988e-09
3.54973e-10
-1.45762e-08
-4.72549e-10
1.40123e-08
-9.89355e-09
7.63165e-09
5.2573e-09
-2.99544e-09
6.27299e-09
6.36445e-11
5.92994e-09
-8.02495e-09
-5.00596e-09
-4.87602e-09
1.81577e-09
-1.2656e-09
-1.52929e-08
1.06854e-08
5.87323e-09
-8.80955e-09
2.66796e-09
-1.24154e-08
5.87565e-09
-8.03657e-09
-6.54551e-09
-1.32097e-08
-7.43925e-09
1.04999e-09
8.1791e-09
-5.99838e-09
-5.78005e-09
-3.51447e-09
-8.91508e-09
-5.89285e-09
3.60947e-09
-9.05316e-09
-3.47131e-09
-6.41285e-09
1.99739e-09
-4.55442e-09
5.36845e-10
-6.15953e-09
9.40588e-09
9.88766e-10
-1.47963e-09
-8.5621e-09
-7.13277e-10
-4.71064e-09
-1.13609e-08
6.47159e-10
-1.98147e-09
-5.27702e-09
8.06149e-09
-1.15225e-08
-9.07938e-09
-1.0606e-08
1.03408e-08
-4.64404e-09
4.90897e-09
5.84038e-09
-5.28044e-09
-1.11661e-08
-7.83102e-09
1.34997e-08
4.6718e-09
4.18123e-10
-2.4088e-09
-1.71554e-09
5.69733e-09
2.73007e-09
-6.71196e-09
-7.28516e-09
3.41169e-09
2.15789e-09
6.03763e-09
-7.26141e-09
-3.4527e-09
4.67634e-09
-2.37797e-09
1.13034e-09
-5.12693e-09
4.75756e-09
-2.00882e-09
-1.08197e-10
-8.08684e-09
-2.8347e-10
3.72631e-09
-1.7796e-09
6.95517e-09
1.9541e-09
1.75737e-08
-4.29031e-09
2.80386e-09
7.44098e-09
4.28524e-09
1.0838e-09
1.18214e-08
-7.06344e-09
-3.53497e-09
-2.41057e-09
-2.61566e-09
8.56137e-09
-3.80565e-09
5.22916e-09
-4.95821e-09
-7.47488e-09
-3.71739e-09
8.78214e-09
-2.49219e-09
-6.85638e-10
-4.29681e-09
1.85307e-09
3.44977e-09
-9.10812e-09
-6.24793e-09
5.48549e-09
7.54502e-09
-3.25727e-09
-6.55192e-09
2.26443e-09
-5.63761e-09
-3.31769e-11
1.95375e-09
-4.40345e-09
-3.72625e-09
1.26398e-09
-7.50392e-09
-8.06039e-09
-1.39656e-08
6.26891e-09
1.57571e-08
-2.68355e-08
-9.43736e-10
1.9719e-08
-8.52732e-10
-2.97359e-09
-1.01392e-08
-2.07273e-08
-6.96082e-09
1.37012e-08
-5.10574e-09
4.08298e-09
-1.26784e-08
-3.60159e-09
2.54384e-09
1.48855e-08
-1.38277e-08
1.53351e-09
1.49662e-08
-2.01012e-08
2.03237e-08
-7.44915e-09
-8.23886e-09
1.82319e-08
1.33293e-08
-1.92448e-08
8.75328e-09
-2.25968e-08
-2.53051e-08
1.34417e-08
5.79848e-09
-1.15595e-08
-9.50388e-09
-1.00026e-08
-1.48008e-08
-1.9495e-10
2.64117e-09
-4.43573e-09
1.98984e-09
3.58002e-09
-7.34351e-09
3.56859e-09
1.17805e-09
4.06239e-09
-2.59903e-09
6.50288e-09
-1.74474e-09
-1.83712e-09
-5.51544e-09
-4.47177e-09
-1.80113e-09
4.31332e-10
1.65373e-08
3.35509e-09
7.10306e-09
1.5438e-09
-7.29476e-09
-1.35216e-09
-1.38581e-09
1.72017e-10
-3.09982e-09
-1.29114e-08
1.11771e-08
2.16574e-09
-2.56048e-09
-3.70949e-09
6.44218e-09
7.19794e-09
-5.93783e-09
-3.82065e-09
-1.63044e-09
6.54931e-09
6.17971e-09
-2.69604e-09
-1.00329e-08
3.36519e-09
2.24901e-09
9.3517e-10
-5.82849e-09
4.77614e-09
4.41761e-09
-2.96293e-09
3.31415e-09
2.99134e-09
2.15406e-09
-7.84142e-09
-3.46747e-09
4.72194e-09
9.94574e-10
3.3272e-09
-3.80333e-09
2.15153e-09
4.43551e-09
-1.8651e-09
-6.41512e-09
7.88903e-09
6.77556e-10
-1.27395e-09
4.34645e-09
1.70376e-09
6.12614e-09
4.40858e-10
-7.84092e-09
5.68484e-09
3.07795e-09
-6.6087e-09
5.39662e-10
-3.62754e-09
-2.05705e-09
1.33356e-09
5.15896e-09
7.44049e-10
5.08791e-09
-1.90236e-09
7.58234e-09
-3.16061e-09
7.38445e-09
2.0699e-09
-5.81443e-10
4.19645e-09
8.3598e-09
-4.74215e-09
-7.81362e-09
5.3971e-09
2.61609e-09
9.6045e-09
-1.53561e-08
4.57084e-10
5.29483e-09
-2.18411e-09
-3.7302e-09
-5.25147e-09
1.11658e-08
-1.75105e-08
7.01389e-09
-9.77254e-09
-7.76766e-09
-1.64617e-08
4.6514e-09
4.62555e-09
7.18448e-09
-1.1004e-08
-9.18788e-09
-1.38411e-08
1.08013e-08
7.69116e-09
1.6034e-09
-1.00384e-08
-5.40611e-09
-1.21555e-08
-1.94191e-08
1.71423e-08
1.44324e-08
-6.75797e-09
-3.79407e-09
2.82101e-09
-1.29165e-08
-7.41484e-09
-1.86144e-08
-1.20271e-08
1.13968e-08
-6.9274e-09
-8.86586e-09
-6.01878e-09
-1.66701e-08
-5.86818e-09
-1.51742e-08
-1.87592e-08
-2.79983e-09
2.14007e-09
-1.2898e-08
-1.26192e-08
1.74747e-08
-1.16123e-08
-1.27897e-08
2.64781e-09
1.97047e-08
6.14603e-09
-1.80329e-08
-1.83642e-08
-1.49126e-08
-8.19386e-09
1.61872e-08
6.91925e-09
-3.2658e-09
-4.01147e-09
-7.63527e-09
1.20508e-08
-1.00122e-08
-5.30436e-09
-4.97452e-09
6.4724e-09
1.05529e-08
-3.75724e-09
7.68565e-09
-1.21223e-08
-1.56126e-08
6.21072e-09
4.42736e-09
-3.94491e-09
-4.8919e-09
-6.77578e-09
-6.42807e-09
-7.529e-09
1.31119e-08
-1.47647e-08
-3.64209e-09
5.29488e-09
-9.82499e-09
-6.67507e-09
1.52415e-08
1.25862e-09
3.62679e-09
5.72792e-09
-1.24893e-08
8.87501e-09
-7.48503e-09
1.38343e-08
-1.12411e-08
4.3445e-10
6.17694e-09
-1.40964e-08
4.20505e-09
-1.01986e-08
2.438e-09
-8.00864e-09
9.77574e-09
-4.84519e-09
-7.48147e-09
-1.14495e-08
8.40129e-09
1.7061e-09
-3.61175e-10
1.04852e-08
-9.15349e-09
7.41816e-10
1.87881e-09
8.66463e-10
-5.64186e-10
-2.18146e-09
-2.24956e-11
1.37183e-09
-2.21152e-09
1.80377e-09
-3.60238e-10
-9.8611e-10
3.78744e-10
-2.72215e-11
-9.16029e-10
6.79186e-11
-2.20596e-10
5.31288e-10
-1.47065e-10
-8.9997e-11
-1.23304e-10
-2.33039e-11
-1.51241e-10
7.29551e-11
-2.8502e-11
-2.08024e-10
1.96071e-10
-5.24776e-11
-8.41366e-11
9.43895e-11
-7.38985e-11
2.84129e-09
9.28411e-09
-6.19582e-09
-5.29328e-09
1.23325e-08
-4.19794e-09
-6.18184e-10
7.98055e-09
1.84448e-09
6.11391e-09
8.89124e-10
-2.22078e-10
7.12454e-09
4.96849e-10
7.27816e-09
4.80283e-10
6.81475e-09
-6.47968e-09
-5.39219e-09
1.99347e-09
1.26827e-08
-2.05797e-09
8.99823e-09
-2.13722e-09
1.12552e-08
-4.13494e-09
9.27591e-09
1.48327e-09
3.27345e-09
3.4622e-09
-7.76346e-09
3.86399e-09
9.14228e-09
-5.24278e-09
-1.2018e-09
8.94135e-09
-1.5503e-08
7.27111e-09
1.76114e-08
-1.24917e-08
-1.23909e-08
1.10246e-08
-4.73949e-09
9.85995e-10
7.23398e-09
-5.73485e-11
1.04349e-08
3.3952e-09
1.48634e-08
1.08477e-09
-5.11985e-09
-7.57079e-09
1.1606e-08
-6.11958e-09
1.05996e-08
8.2549e-09
7.66119e-09
-1.71179e-08
-3.72864e-10
6.50957e-09
7.19851e-09
-4.76666e-09
1.11449e-08
4.50698e-09
6.77948e-09
-3.74092e-10
-1.10246e-08
5.84748e-09
-1.81243e-09
2.47236e-09
-9.95795e-09
5.748e-10
3.86291e-09
-7.22628e-09
1.10351e-09
-3.98999e-09
-2.50464e-09
2.60063e-09
3.89399e-09
5.80941e-09
1.18026e-09
-4.95394e-09
-2.03577e-09
4.66833e-09
-4.01394e-09
5.15504e-09
3.59327e-11
2.77331e-09
3.65797e-09
-6.46718e-09
4.29519e-09
1.99289e-09
-1.02781e-08
5.2178e-09
-5.7476e-09
4.82502e-09
-5.93709e-09
2.59687e-09
3.3762e-09
4.61003e-10
-7.14231e-10
7.97944e-09
3.67573e-09
-6.63679e-09
-1.10343e-09
7.65221e-10
7.83733e-09
-5.77824e-09
1.32269e-08
8.62127e-10
-2.32639e-09
-1.17626e-08
1.08861e-08
1.94806e-09
3.92781e-10
-9.04889e-09
1.04654e-08
9.46959e-09
-1.10555e-08
1.06983e-08
2.3053e-09
-8.39186e-10
-9.35422e-09
1.28402e-08
-3.12219e-10
-1.48544e-08
6.85042e-09
-3.05906e-09
-1.0255e-09
6.99176e-09
-6.80539e-09
8.26638e-09
-9.60413e-09
2.11036e-09
5.05006e-09
3.30495e-09
5.95723e-09
-1.0629e-08
6.78209e-09
-7.64161e-10
9.58534e-09
-5.54749e-10
7.14591e-09
-9.18309e-10
-2.34145e-09
-4.56736e-09
1.19588e-08
-6.18749e-09
9.80331e-09
4.46762e-09
-4.39823e-09
8.08495e-09
8.35076e-09
-2.05361e-09
5.57121e-09
-1.00189e-08
1.77781e-09
1.59469e-09
1.12242e-08
-2.3539e-09
1.09317e-09
-9.96331e-09
1.82676e-10
6.54338e-09
4.49815e-09
-1.05386e-08
7.22687e-09
3.49445e-09
-1.23176e-08
5.17148e-10
-2.02712e-09
8.73692e-09
1.56017e-08
-3.47848e-09
8.18112e-09
-2.62315e-10
-6.82561e-09
-5.4722e-09
5.16179e-09
-5.89214e-09
6.20264e-09
4.02713e-09
-1.02899e-08
7.9067e-10
-4.41153e-09
1.32597e-08
6.75357e-09
-8.07327e-09
4.70736e-09
8.52773e-09
-4.75286e-09
7.06764e-10
-2.94676e-09
6.29205e-09
3.19812e-09
4.81516e-10
9.02587e-09
-6.81581e-09
7.50873e-09
-8.77277e-09
-1.27143e-09
2.88804e-09
4.91664e-09
1.17394e-08
-7.39968e-10
1.51061e-08
8.1246e-09
-8.33139e-09
-1.48993e-08
8.77061e-09
2.9653e-09
3.3701e-09
5.63562e-09
-5.3899e-09
6.45734e-09
-6.70308e-09
-3.94543e-10
6.44233e-09
-4.12286e-10
6.81086e-09
9.19113e-10
9.83903e-09
5.74242e-09
5.54399e-09
2.95351e-10
-1.41708e-08
-1.05957e-08
8.48419e-09
5.0766e-09
-6.77375e-09
1.72197e-09
4.14602e-09
-9.24058e-09
-5.05395e-09
6.15969e-09
1.82072e-09
-4.174e-10
4.21578e-09
-3.23631e-09
3.16645e-09
6.19255e-09
-1.56149e-10
5.69123e-09
4.91304e-09
-2.12015e-09
4.52646e-09
4.78277e-09
-3.11674e-09
1.07164e-08
-3.0401e-11
2.44856e-09
-1.02523e-09
-3.86317e-10
-1.03844e-09
-4.37184e-09
2.39962e-09
4.42029e-09
-4.48015e-09
-9.1707e-10
-4.37273e-09
1.24787e-09
2.17591e-11
1.18916e-09
-3.04493e-09
-2.51712e-09
-2.54436e-09
3.43916e-10
-3.84852e-10
-9.70365e-10
4.16093e-11
2.37839e-09
2.9334e-10
-1.33869e-11
-9.44251e-10
1.3279e-09
2.94633e-10
-1.84447e-09
-4.30531e-09
2.83771e-09
3.31214e-09
1.79691e-09
-6.45084e-09
2.8095e-09
-5.28523e-09
-3.2384e-09
6.27762e-09
2.24602e-09
-7.77961e-09
4.29131e-09
-4.20134e-09
1.50023e-09
-5.37238e-10
-4.63949e-09
-7.34146e-09
3.18174e-11
1.0618e-09
5.18406e-09
-8.0624e-09
8.30793e-10
7.26355e-09
6.46552e-10
1.20103e-09
-3.19211e-09
-4.45975e-09
-2.07587e-09
-1.02837e-09
-3.63078e-09
1.02641e-09
3.66621e-09
-9.90499e-10
-3.94185e-10
-7.42453e-09
4.43795e-10
7.81178e-09
-3.24207e-09
-3.53584e-09
2.36868e-09
-5.21442e-10
-9.13184e-10
3.59455e-09
1.28148e-10
3.41918e-09
-1.02011e-09
5.37535e-10
3.7822e-09
-9.00529e-10
3.202e-09
-2.95723e-10
3.51211e-09
-3.15952e-09
-7.77634e-11
4.03373e-09
-1.06921e-09
4.77378e-09
3.15921e-09
-1.8565e-08
8.26977e-09
9.6115e-09
6.83698e-10
-1.13744e-08
6.75884e-09
-1.39495e-08
1.17549e-08
-3.67015e-09
-1.94592e-08
1.46316e-08
-1.53236e-09
-1.34418e-09
6.46293e-09
-1.43275e-08
1.22601e-08
-4.39549e-09
-1.00887e-08
-8.11862e-10
1.73636e-08
1.4473e-08
8.42836e-09
1.43146e-08
-3.18344e-09
-4.37232e-09
9.59862e-09
-6.91282e-09
-2.07921e-09
7.45978e-09
4.18526e-09
-1.47682e-08
3.69397e-09
6.90329e-10
-7.20743e-09
1.19983e-08
-5.60276e-09
6.2685e-09
-4.86235e-09
2.77913e-09
-9.22703e-09
5.71358e-09
1.27651e-09
5.62902e-09
1.4724e-09
-8.37789e-09
4.9001e-09
-1.28506e-08
8.21747e-09
-5.13242e-09
2.11027e-09
-8.69803e-09
1.48052e-08
-5.17504e-09
1.29144e-08
5.65592e-09
-1.59974e-09
-1.01041e-08
6.04796e-09
-6.80468e-10
-5.5803e-09
1.19167e-08
3.21955e-09
-8.01145e-09
3.19235e-09
-4.74565e-09
7.28477e-09
6.31152e-09
1.0717e-09
-7.68121e-09
2.98036e-10
-1.3594e-08
1.18941e-08
-7.45647e-09
-4.6352e-09
6.51131e-09
-8.77593e-11
-1.32231e-08
3.20677e-09
-1.01421e-08
2.59792e-09
-4.30884e-09
6.34948e-10
1.12017e-08
-9.00931e-09
-9.87357e-09
-4.20767e-09
1.81538e-09
5.80776e-10
-6.18663e-09
9.70714e-10
1.93789e-09
-5.73602e-09
-9.42486e-09
-2.97827e-09
-5.22589e-09
-4.70057e-09
9.72531e-10
-4.2447e-09
8.65209e-10
-5.62982e-09
-2.90215e-09
-6.26268e-09
5.22324e-09
7.87368e-10
-1.02552e-08
-4.72042e-09
-2.11146e-09
-1.72386e-09
-4.22623e-09
2.60799e-11
4.89552e-11
-3.50403e-10
2.04288e-10
-7.13929e-11
-3.25833e-10
-1.08529e-09
3.99768e-10
-7.25773e-10
5.20582e-10
9.79259e-11
1.07042e-10
3.61269e-10
-5.43644e-10
-5.43775e-10
-6.29039e-10
-1.35119e-10
9.27845e-10
-8.28854e-10
-1.25993e-10
-5.10581e-10
3.76613e-10
6.54495e-10
-7.80125e-11
-7.12166e-11
1.26393e-10
-1.16273e-09
-3.30864e-10
2.93556e-10
-3.3325e-10
-5.41466e-10
-2.80615e-10
-6.88844e-10
1.40548e-10
-4.30471e-10
5.2634e-10
2.32729e-10
-4.1381e-10
4.7094e-10
-3.39639e-11
1.23304e-10
-6.85768e-10
-4.64036e-10
1.5681e-10
-7.10783e-11
3.87397e-09
-4.91339e-09
5.46267e-09
-4.42323e-09
6.87446e-09
-1.3427e-09
-3.21184e-09
-1.57105e-09
3.47143e-09
2.73702e-09
-7.45755e-10
7.73969e-09
2.6062e-09
2.05821e-09
-3.10493e-09
-2.16515e-09
-2.3134e-09
-5.16583e-11
9.0048e-10
-5.33377e-09
7.43361e-09
-1.54759e-09
-3.97096e-09
1.72086e-09
5.74022e-09
-2.85533e-09
4.94682e-09
-3.63911e-09
4.56905e-09
-6.52392e-09
-2.00239e-09
4.23997e-09
2.70919e-09
2.53261e-10
4.61813e-09
9.10836e-09
1.72934e-11
-1.04683e-08
1.34287e-09
1.42756e-09
-1.0999e-09
9.07846e-09
3.21158e-09
-1.53461e-08
5.86093e-09
6.27351e-09
-8.75619e-09
5.77408e-09
6.1936e-09
5.29344e-09
-1.14505e-08
-9.18912e-09
-3.0795e-09
-3.83357e-10
1.22335e-09
1.45352e-08
-1.39777e-08
-1.78067e-09
-8.79959e-09
2.58805e-09
8.80681e-09
-1.19467e-08
8.96817e-09
2.72823e-09
4.07899e-09
1.84845e-09
-9.00688e-09
7.24642e-09
6.12145e-09
-9.28883e-09
8.85004e-09
-1.26393e-08
9.65028e-09
-2.96235e-09
-3.72419e-09
1.55364e-08
-3.34692e-09
6.15859e-09
-4.97408e-09
-1.05265e-08
1.17762e-08
-8.08126e-10
4.80213e-09
-4.47997e-09
2.7604e-09
-2.58402e-09
3.09134e-09
-1.06704e-08
2.4953e-09
2.31063e-09
5.86427e-09
-4.26637e-09
2.66795e-10
-6.67094e-09
3.37973e-09
-9.70508e-09
-2.95261e-10
6.62044e-09
2.8578e-09
-4.99889e-09
5.52068e-09
-4.79888e-09
2.2683e-09
1.00888e-08
-7.5583e-09
-2.63969e-09
-2.99062e-09
8.31459e-10
9.13624e-09
-1.02669e-08
-3.13577e-09
-8.21183e-09
4.12649e-09
6.58052e-09
-5.08723e-09
8.33077e-09
3.06501e-09
-2.25959e-09
4.39797e-09
6.24337e-09
2.46222e-09
-5.70918e-09
6.07233e-10
-4.82224e-09
2.61149e-09
6.6087e-09
7.0498e-10
9.00627e-09
-3.95227e-09
1.49457e-09
8.4555e-09
-1.15321e-08
9.01853e-09
-1.90822e-10
2.70453e-09
-2.65449e-09
-5.34274e-09
-3.5349e-09
-6.81552e-09
-6.51908e-09
1.06802e-08
-1.49867e-09
-2.28445e-10
6.63179e-09
-3.50936e-09
-3.13867e-09
-5.65402e-09
7.65033e-09
-1.17544e-08
9.75807e-09
-7.47066e-09
1.78645e-10
1.63798e-09
1.74823e-10
-1.45137e-09
8.92687e-09
-6.42322e-10
3.85079e-09
-3.03359e-09
8.18839e-09
-4.00609e-09
-1.1653e-08
-3.94036e-09
3.74243e-10
-1.70991e-09
2.28967e-09
5.96975e-10
-1.17693e-09
3.6842e-10
-9.59778e-10
-1.11873e-09
-1.64963e-09
1.02928e-09
2.04543e-10
4.15502e-10
-5.10291e-10
-7.71124e-10
2.13306e-11
-1.57037e-09
9.06804e-10
-5.02039e-09
3.59037e-09
-4.22279e-09
7.29043e-09
-8.088e-09
-4.58451e-10
-3.32005e-09
2.81878e-09
-1.13427e-09
-2.27077e-09
2.89475e-09
1.7486e-09
-5.59879e-09
1.3923e-08
-1.95999e-10
-4.28716e-09
-9.43987e-09
-6.19076e-09
7.39647e-09
1.27174e-08
-1.22005e-08
-9.47739e-10
6.95751e-09
-4.30755e-09
-8.08897e-09
1.23607e-08
-6.74667e-09
5.95373e-09
-1.15678e-08
4.3034e-09
9.58788e-09
-1.53057e-09
-2.04235e-10
-1.08296e-08
1.06311e-08
-5.36985e-09
-9.56885e-09
4.24443e-09
5.43895e-09
-3.38138e-09
4.73474e-09
-6.72323e-09
4.07961e-09
-7.66522e-09
-3.59593e-09
-6.50015e-09
-3.57456e-12
1.00997e-08
-1.06093e-08
8.16051e-10
6.19732e-09
5.19975e-09
-5.93929e-09
4.9179e-09
1.92512e-09
-1.91065e-09
-2.89908e-09
7.68796e-09
-5.4112e-11
2.88831e-09
-1.70774e-09
-2.93725e-09
-3.59736e-09
6.53106e-09
-6.45798e-09
4.33678e-09
8.33504e-09
-1.64454e-09
7.16917e-09
8.95422e-09
-5.82084e-09
-1.03025e-08
7.10329e-09
1.80483e-09
-1.73889e-09
7.3794e-09
4.25712e-09
-2.68227e-09
1.00936e-08
4.38909e-09
8.38778e-09
2.22313e-11
1.6836e-09
3.40635e-09
-9.12068e-09
1.41021e-08
-3.51435e-09
6.4809e-09
-1.16169e-09
4.13562e-09
-4.69585e-10
-7.59345e-09
3.92745e-09
6.58093e-10
-3.57703e-09
-4.93997e-09
7.85898e-09
5.20247e-09
-7.83114e-09
2.65103e-09
1.53262e-08
-6.71734e-09
1.50639e-08
-3.92995e-09
-1.04758e-08
-1.4003e-09
7.52362e-09
8.94062e-09
4.00376e-09
2.91877e-09
-1.27433e-08
5.88899e-09
-5.39954e-09
-6.44758e-09
3.80786e-09
3.24941e-09
-8.65894e-09
-6.24989e-09
2.67591e-09
1.13752e-08
-1.23863e-08
3.725e-09
-5.19209e-09
8.57639e-09
5.71576e-09
6.36977e-09
1.01409e-09
-1.03537e-09
9.9668e-09
-2.39907e-10
3.71623e-09
5.7866e-09
1.51949e-09
-1.31105e-08
7.74255e-09
-1.45924e-08
-1.18677e-09
7.41513e-12
7.26258e-09
-1.263e-09
-1.181e-08
9.22136e-09
-9.3015e-09
-5.13209e-09
5.21223e-09
9.50222e-09
-2.73335e-10
-8.36092e-09
1.45592e-09
-5.29078e-09
1.65284e-11
-2.1796e-09
1.71253e-09
1.01601e-09
-4.39211e-09
-1.22614e-09
-4.10911e-09
3.15574e-09
-4.31452e-09
1.06469e-09
-2.84575e-09
-1.52235e-12
-3.10406e-09
-2.9556e-09
5.59267e-09
3.94001e-09
-6.03516e-09
1.22946e-09
1.85014e-09
4.34084e-10
-4.8069e-09
1.15853e-09
3.21525e-09
-4.2319e-09
3.19015e-09
1.47601e-09
-5.00401e-09
-2.11949e-09
-4.9312e-09
1.92877e-09
1.089e-09
5.52905e-09
1.00032e-09
-7.61821e-09
-5.53119e-09
1.68904e-09
6.0855e-09
-5.36333e-09
1.72444e-08
-7.81505e-09
-6.83568e-09
1.94894e-08
-7.36874e-09
-3.93374e-09
-8.18687e-09
6.87502e-09
2.88697e-08
-4.17639e-09
-6.13619e-09
7.73029e-09
-4.32404e-09
-6.40528e-11
7.86274e-09
-5.12073e-09
-2.67803e-09
6.66032e-09
-4.75102e-09
-1.97338e-09
2.55227e-10
1.01646e-08
-6.21652e-09
3.77288e-09
5.95963e-09
-4.26974e-09
-5.46276e-09
7.44489e-09
-3.41678e-09
9.52804e-10
7.61778e-09
-2.61098e-09
-4.18939e-09
7.65184e-09
-2.50966e-09
1.26438e-08
6.60785e-09
3.48166e-10
-5.32272e-09
-1.63338e-09
-1.5491e-09
6.43948e-09
-4.23872e-09
-6.51693e-10
5.90429e-09