/*--------------------------------*- C++ -*----------------------------------*\
| =========                 |                                                 |
| \\      /  F ield         | OpenFOAM: The Open Source CFD Toolbox           |
|  \\    /   O peration     | Version:  v1612+                                |
|   \\  /    A nd           | Web:      www.OpenFOAM.com                      |
|    \\/     M anipulation  |                                                 |
\*---------------------------------------------------------------------------*/
FoamFile
{
    version     2.0;
    format      ascii;
    class       surfaceScalarField;
    location    "200";
    object      phi;
}
// * * * * * * * * * * * * * * * * * * * * * * * * * * * * * * * * * * * * * //

dimensions      [0 3 -1 0 0 0 0];

internalField   nonuniform List<scalar> 
41652
(
-5.49658e-09
4.18799e-10
-6.55061e-10
5.73283e-09
4.8127e-09
7.22065e-09
-1.08847e-08
-1.1486e-09
-7.66438e-09
7.33015e-09
1.06729e-08
-1.03386e-08
-9.24313e-09
1.03731e-08
4.84706e-09
-5.97704e-09
-6.70248e-09
4.95467e-09
-7.49533e-09
-4.24378e-09
9.14316e-09
-1.20299e-08
8.16368e-09
1.42393e-08
-1.04677e-09
-6.02849e-09
-3.99349e-09
-3.80155e-09
1.37419e-09
6.42081e-09
-8.47898e-09
-1.34953e-09
5.83498e-09
1.26748e-09
4.16077e-09
7.21043e-09
5.36786e-09
-8.22956e-09
-4.34874e-09
9.45557e-10
-7.76873e-09
-1.65582e-09
-3.03042e-09
1.74417e-10
-4.35766e-09
-4.45784e-09
-3.69288e-09
-2.89997e-09
7.96702e-09
3.12125e-09
3.67663e-09
-6.76681e-09
-3.81038e-09
8.12084e-09
-7.92697e-10
-2.89946e-09
-1.18244e-10
-1.46489e-10
7.69524e-09
-4.84363e-10
-5.99888e-09
-1.212e-09
-3.62073e-09
5.98532e-09
5.33065e-09
-9.55872e-09
1.14111e-08
-2.33676e-09
-3.21309e-09
4.86964e-09
-1.12153e-08
-9.04629e-10
-7.21608e-09
6.61758e-09
1.50314e-09
3.33903e-09
-4.39322e-09
1.49565e-10
4.71442e-09
-4.41397e-09
-6.29933e-09
1.13409e-09
-4.03986e-11
4.79915e-09
-4.30907e-09
1.0921e-08
4.32846e-09
1.44652e-10
-3.9825e-09
1.50466e-09
-4.73825e-09
-1.81732e-09
-6.5584e-09
-9.44438e-09
-6.03205e-10
1.13877e-08
-3.97001e-09
7.69526e-09
-2.82977e-09
5.47733e-09
1.21004e-08
-5.72611e-09
4.96156e-09
7.84479e-09
1.05417e-08
-1.19598e-08
-6.4266e-09
1.12126e-08
-9.37772e-09
6.0099e-09
-9.84867e-10
2.18541e-10
1.19789e-08
9.73205e-09
-1.75263e-10
6.23752e-09
1.44302e-10
-4.43417e-09
-1.94765e-09
5.91523e-09
-3.71698e-09
4.03927e-09
-2.67898e-09
-6.55443e-09
-1.47355e-09
-1.31653e-08
6.6375e-09
-5.03723e-10
2.26601e-09
-5.67291e-09
-3.10076e-10
3.32618e-09
-6.96314e-09
-4.79146e-09
8.42844e-09
5.58863e-09
3.55987e-12
-9.88333e-09
1.44664e-09
-1.99225e-09
9.7071e-09
-1.14998e-08
3.78495e-09
2.99988e-09
3.40856e-09
3.76986e-09
5.21952e-09
8.15974e-09
-4.8603e-09
2.0684e-09
-1.4757e-09
8.84687e-09
7.8857e-10
1.09398e-08
7.80377e-09
-9.03648e-09
8.12087e-09
7.24893e-09
-4.42999e-09
8.17871e-09
-5.45409e-09
5.90427e-10
-3.31506e-09
-9.02838e-10
7.45232e-09
1.62921e-09
4.63181e-09
5.8675e-09
-8.80565e-10
-3.55134e-10
1.04357e-10
-1.23918e-08
5.85038e-09
1.46622e-08
-3.99756e-09
1.53711e-08
-1.15506e-08
1.36714e-08
-4.57494e-10
-1.66326e-09
-7.99879e-09
9.61969e-09
-1.31715e-08
1.33975e-09
4.00907e-09
-1.33476e-08
6.00076e-09
2.97458e-09
-7.63559e-09
-4.48436e-09
5.02698e-09
1.31287e-08
5.661e-10
4.56921e-09
6.90115e-09
-1.35788e-09
1.43365e-09
9.65902e-09
-7.08361e-09
7.49439e-09
-3.08615e-09
5.38309e-09
4.84203e-09
8.27765e-10
-6.01153e-09
1.05668e-08
-5.80041e-09
1.16551e-08
-7.48162e-10
1.84889e-09
7.34694e-10
5.81495e-09
7.37174e-09
-1.40205e-08
8.33864e-10
-1.70025e-08
1.07782e-08
1.20393e-08
7.95629e-09
2.86573e-10
-8.71098e-10
-4.21393e-09
9.96309e-09
2.20716e-09
6.78036e-09
-7.61166e-09
-1.31892e-08
-5.4345e-09
-4.78756e-09
9.82584e-09
-7.94149e-09
-1.59775e-09
-5.57273e-09
1.11846e-08
-1.06561e-08
1.06098e-08
-5.38821e-09
1.9186e-09
4.96614e-09
-1.75408e-08
3.84339e-09
-9.53644e-09
-1.46479e-08
1.63637e-08
4.02964e-09
-5.7454e-09
1.6876e-08
-9.78437e-09
-1.50331e-08
1.0378e-08
9.25296e-10
9.90746e-10
-5.02883e-09
-3.99942e-09
-1.94155e-09
-1.22682e-08
1.32349e-08
4.47008e-10
7.43493e-09
-2.53788e-09
-5.34403e-09
5.82447e-09
-3.9001e-09
-1.47733e-09
3.21076e-09
1.00486e-08
-9.16319e-09
1.97392e-09
3.28919e-09
8.24951e-09
-2.26465e-09
-1.5148e-08
-1.27696e-08
6.70139e-09
8.0422e-09
1.69169e-09
-6.21183e-09
-5.49117e-09
-2.82275e-09
1.15247e-08
-3.6612e-09
2.43239e-09
-4.26236e-09
-6.80302e-09
1.06817e-08
-1.00978e-08
-1.90007e-09
5.19483e-09
-1.20536e-08
5.04544e-09
4.74351e-09
-4.13706e-09
-4.26903e-09
2.11353e-09
-7.67482e-09
6.48267e-09
-4.72033e-10
-5.07964e-10
-5.5027e-09
4.64405e-10
5.25365e-09
7.64607e-10
-1.2962e-09
-5.10597e-09
-1.14831e-09
7.5505e-09
-2.97438e-09
3.54388e-09
-1.86567e-09
2.33504e-10
-4.96565e-09
-3.73801e-10
-2.7422e-09
1.31402e-12
-5.54809e-09
1.04683e-09
-9.57896e-10
-5.0622e-09
2.93858e-09
-6.06034e-10
-3.29043e-09
4.67724e-10
-2.71338e-10
-5.57282e-09
7.25573e-09
3.57075e-09
-1.10351e-09
-4.97725e-09
9.01855e-09
-2.91111e-09
5.77184e-10
-4.37719e-09
4.14767e-09
-3.47669e-10
-2.88216e-09
3.52865e-09
-1.78755e-10
3.57659e-09
-6.0572e-09
2.2689e-09
2.11735e-10
8.38745e-10
4.79169e-09
-6.23645e-09
-7.86071e-09
7.59597e-09
-1.66728e-08
-6.41544e-09
7.14918e-09
1.59391e-08
-6.60233e-09
-2.36734e-09
-7.70318e-09
8.5284e-09
-5.05652e-09
-1.00742e-08
1.0014e-08
-6.25205e-09
4.76644e-09
3.67348e-09
7.81784e-09
-1.79068e-08
2.22723e-09
8.22293e-09
-7.08947e-10
7.75411e-09
-1.52681e-08
9.52518e-09
9.43081e-10
-1.67203e-08
4.71016e-09
7.07687e-09
-8.11357e-09
-6.90832e-09
5.62862e-09
7.49528e-09
-1.5243e-08
2.11902e-09
8.24547e-09
3.26425e-09
6.0574e-09
-5.39306e-09
-3.92855e-09
5.86941e-09
-1.35725e-09
-1.24788e-09
6.20577e-09
-5.34133e-09
5.21291e-09
-6.07736e-09
-7.0682e-10
6.74681e-09
1.65794e-10
-5.31607e-09
6.89277e-09
4.29269e-09
3.44912e-11
7.91346e-10
-7.70191e-09
1.7978e-09
5.11276e-09
2.29435e-09
5.2438e-09
-9.66351e-09
-4.37659e-09
1.26747e-09
1.27726e-08
-4.8376e-09
-7.57729e-09
2.75138e-09
5.52086e-09
-1.34969e-08
3.1384e-09
5.94495e-09
-6.81298e-09
6.38891e-09
-1.09617e-09
-9.63822e-09
1.47031e-10
-2.63603e-09
1.69742e-09
7.48971e-09
-8.85132e-09
6.27252e-09
-9.83428e-09
-6.59433e-09
8.90985e-09
3.52065e-09
-6.00963e-09
-4.32396e-09
-7.92339e-09
-2.05287e-09
-5.27516e-09
-2.09168e-09
4.67215e-09
-1.10435e-08
6.62197e-09
-9.87322e-09
-3.06529e-09
-7.22365e-09
1.02646e-08
7.62903e-09
-1.067e-08
1.90309e-10
-1.27316e-08
5.31765e-09
6.16637e-09
-1.3461e-09
9.48316e-09
-1.43034e-08
9.08699e-10
1.16816e-08
-6.42396e-09
-3.21868e-09
1.17496e-08
-1.2235e-08
3.70414e-09
-1.31574e-08
6.40065e-10
9.29869e-09
1.05381e-08
4.50153e-10
7.6138e-10
5.29729e-10
1.11732e-08
-1.4384e-09
4.72374e-09
6.40535e-09
-1.24752e-08
9.33139e-09
-3.69892e-09
-4.58962e-10
9.59351e-09
3.48551e-10
3.23545e-13
1.12223e-08
4.58682e-09
-8.08505e-09
-8.73678e-09
-3.82881e-09
-4.74178e-09
-5.46519e-09
1.09678e-08
-1.00316e-08
1.09797e-08
-4.18345e-10
9.48906e-09
-1.11687e-08
7.11058e-09
-7.54872e-09
3.03699e-09
1.35626e-08
-2.62169e-09
-3.66644e-09
-1.12988e-10
-9.83659e-09
-9.46487e-09
-9.94242e-09
-2.51586e-09
5.79428e-09
3.38036e-09
4.44284e-12
-9.17908e-09
-8.36045e-10
-5.09309e-09
-7.09832e-12
-4.3647e-09
2.07914e-09
-5.63905e-09
3.55438e-09
-5.47051e-09
-3.13573e-09
-5.96713e-09
-9.07441e-09
9.72724e-09
5.31429e-09
-8.9167e-09
2.7227e-09
2.26875e-10
7.67308e-09
-7.29509e-09
-9.29469e-09
1.77837e-09
-3.1797e-09
2.26931e-10
1.01326e-08
-6.32293e-10
-1.11572e-08
4.73203e-10
-9.55039e-10
1.16391e-08
-9.97328e-09
-1.73456e-09
5.50616e-10
-9.43735e-09
1.01375e-08
-7.33768e-09
6.23022e-10
-6.99534e-09
1.16643e-09
-1.46618e-09
4.9435e-09
1.29671e-09
-1.32356e-08
-6.68631e-09
-1.2523e-09
9.71697e-09
-8.60226e-10
-9.85754e-09
7.4449e-10
-8.31637e-09
1.18452e-10
7.05576e-09
4.86651e-09
-6.97876e-09
-9.41841e-11
-1.05287e-08
9.58263e-09
-8.97053e-12
-1.04102e-08
-1.85301e-09
4.75259e-09
-1.01422e-08
4.69639e-10
-5.46068e-09
-5.188e-09
-5.33782e-09
-8.68273e-09
1.78864e-09
1.22319e-08
-1.22641e-08
-7.09456e-11
6.99724e-09
7.85419e-09
6.26538e-09
-9.5563e-09
-4.56328e-09
6.5393e-09
-4.00554e-09
5.32042e-09
2.0934e-09
-8.09214e-09
-2.95e-09
-3.63932e-09
2.84268e-09
3.62567e-09
-3.51662e-09
8.14794e-09
-3.23156e-09
5.08228e-09
3.68114e-09
-5.53185e-09
-5.90604e-09
3.13652e-09
-4.62043e-10
7.48901e-10
-4.49055e-09
-2.63891e-10
-1.18673e-08
-2.89103e-10
6.25035e-09
-3.93761e-09
5.50326e-09
-5.21829e-11
7.65797e-09
-1.32361e-10
-9.63293e-09
2.10732e-09
2.40192e-09
1.04509e-08
-6.28746e-09
1.15494e-08
-2.86001e-09
-6.37904e-09
1.23754e-09
-1.14596e-09
1.51031e-09
-8.0217e-09
-5.60509e-09
3.30307e-09
-3.70555e-09
6.00758e-09
-7.31503e-10
-5.13165e-09
2.58071e-10
9.55102e-09
2.07557e-09
-1.17572e-09
-4.94303e-09
-3.46523e-10
8.59264e-09
-5.37203e-09
-4.50022e-09
4.92923e-09
-6.18828e-09
8.47459e-11
2.70195e-09
4.34721e-09
5.06677e-09
1.59103e-09
-5.14749e-09
1.16029e-10
1.63702e-10
5.46789e-09
-9.33714e-09
5.52191e-09
6.73106e-09
-3.95883e-09
9.13423e-09
-1.00325e-08
6.23741e-09
-1.26887e-09
-7.09224e-10
-7.4435e-09
9.4216e-09
-5.92931e-09
6.25147e-09
-9.06878e-09
8.21804e-09
-9.1818e-09
-7.33648e-09
-2.44152e-09
-9.8662e-09
-3.46337e-09
8.42828e-09
4.90127e-09
-1.45538e-09
5.62093e-10
-8.97293e-09
1.1027e-08
-2.20703e-09
-1.02753e-08
2.86788e-09
4.6957e-09
-1.8509e-09
1.4903e-09
9.23706e-09
-8.87646e-09
5.19952e-09
-8.31083e-10
-6.21934e-09
1.47723e-08
-1.272e-08
6.08284e-09
4.13473e-09
4.55477e-09
9.71235e-09
4.79877e-09
-1.18345e-08
6.23275e-09
8.4696e-09
-3.96126e-10
-1.36454e-08
-5.14426e-09
9.16492e-09
5.2164e-09
1.8364e-10
-1.28363e-10
7.9191e-09
5.38055e-09
5.55979e-09
-6.78699e-09
-4.53444e-10
4.7311e-10
6.21308e-09
-5.90465e-09
5.71118e-09
-2.59976e-10
-1.61223e-10
3.64852e-09
-1.12261e-08
3.13322e-09
4.44435e-09
-1.16727e-08
4.6772e-09
1.0644e-08
-3.32323e-09
-9.56327e-09
1.21383e-09
-1.04693e-08
-4.08002e-09
-1.03654e-09
1.48553e-09
-1.00123e-08
4.29507e-09
-5.35377e-09
2.21504e-11
-3.3129e-09
-9.00087e-10
8.3362e-09
-4.12324e-09
-4.74364e-09
4.56395e-09
-4.93408e-09
8.71119e-09
-7.52976e-09
2.2039e-09
5.82205e-10
-8.31706e-10
1.9269e-10
2.95215e-09
-9.68064e-09
-3.74084e-09
-3.48065e-09
-1.09696e-09
-4.01833e-09
4.70963e-09
-6.87373e-09
6.18243e-09
4.80366e-09
-2.67872e-09
3.96039e-09
-4.63808e-11
-5.61098e-09
2.0417e-09
-4.40509e-09
7.97442e-09
-2.87227e-10
-5.54022e-09
2.16496e-10
4.27107e-11
1.05029e-08
-1.335e-08
2.80438e-09
-1.07622e-08
8.3137e-09
2.49123e-09
1.53042e-09
-1.29803e-08
6.87704e-10
7.06912e-09
-7.40273e-09
1.86405e-09
-3.25314e-09
6.3445e-10
1.09324e-08
-2.93252e-09
1.01823e-08
6.69823e-09
8.3662e-11
9.3744e-09
-7.92621e-09
-3.60591e-09
7.12707e-09
-8.60579e-09
-4.86063e-09
-6.30479e-09
2.65691e-09
-3.75482e-09
5.2645e-09
2.74151e-10
-1.18434e-08
-1.89067e-09
-4.0582e-09
3.61477e-09
-1.13306e-08
3.67178e-09
-8.46833e-09
5.07072e-09
-6.75778e-10
5.29203e-09
-8.22214e-09
-2.29606e-09
-7.43912e-09
8.55548e-09
-7.17978e-09
9.2803e-09
-9.73332e-10
2.48515e-10
5.67201e-09
1.01797e-08
-4.96533e-10
-5.35371e-09
-4.32944e-09
5.85599e-11
2.9484e-09
7.17275e-09
-9.05665e-09
6.49204e-09
2.62316e-09
-5.23792e-09
-4.31527e-09
-4.33712e-09
2.06024e-09
5.22529e-09
3.76994e-09
-4.07871e-09
-5.04493e-09
-6.1582e-10
4.86355e-11
4.19264e-10
5.72714e-09
-5.66591e-09
-4.80491e-10
-3.5041e-09
3.8693e-09
5.40607e-11
4.07875e-09
-1.51229e-09
2.46119e-09
-4.11616e-11
6.87074e-09
-3.6137e-09
-1.1968e-09
4.93307e-10
1.142e-09
4.09183e-09
1.66076e-09
6.11557e-10
-3.81629e-09
-7.39362e-09
2.11293e-09
5.77398e-09
2.62844e-09
-6.2056e-09
-4.15362e-09
5.89441e-09
-4.54383e-09
-4.94702e-09
3.59644e-09
-2.39922e-09
4.90213e-09
3.39151e-09
3.13821e-09
-1.43072e-09
-6.25128e-09
7.93414e-10
-5.44078e-11
4.15469e-11
8.32187e-10
-2.3043e-09
1.58628e-09
3.43978e-09
-4.98451e-09
-1.64455e-09
4.73087e-09
-2.25413e-09
4.83582e-09
-4.89408e-09
8.82933e-10
3.818e-09
2.01218e-10
-1.81522e-09
2.48765e-09
1.21002e-10
-4.93555e-09
1.74392e-09
4.28634e-09
-1.09468e-09
-2.79237e-09
-1.58256e-09
-5.6058e-10
1.73552e-09
-1.10948e-10
4.94672e-10
3.47306e-09
7.63132e-10
3.75493e-09
1.57556e-09
4.74536e-10
2.89605e-09
-5.22484e-09
7.96123e-10
6.17265e-09
-4.54415e-09
3.32018e-09
2.17028e-09
4.59085e-09
-2.80676e-09
-1.00925e-08
5.21477e-09
-6.43912e-09
-9.01552e-09
1.01892e-08
-9.83496e-09
4.69146e-09
4.41199e-09
-1.8119e-08
1.13668e-08
6.06738e-09
-1.27427e-08
2.36688e-09
-6.9461e-09
5.18868e-09
-9.5845e-09
-5.03845e-09
4.38834e-10
-7.81502e-09
-6.54881e-09
1.42623e-08
-9.31315e-09
1.82898e-09
-6.77828e-09
1.24642e-08
-8.54179e-09
1.03399e-08
6.98865e-09
1.44522e-08
-2.2811e-08
1.3703e-09
1.57197e-08
-1.65491e-08
7.818e-09
8.58226e-09
2.28764e-08
-1.89945e-08
-5.93554e-09
-2.49234e-08
1.87295e-08
1.21293e-08
1.16858e-08
-1.92845e-08
-7.39627e-09
4.99516e-09
-3.11211e-09
1.0168e-08
-9.06785e-09
-1.29958e-08
5.51461e-09
1.55684e-08
-3.07475e-09
-2.15614e-08
-5.15852e-09
-2.08415e-09
1.50741e-08
-2.40844e-08
1.63397e-08
-6.42408e-09
8.17108e-09
-2.57286e-09
4.10886e-10
-5.53044e-09
7.69243e-09
2.07407e-10
-1.00938e-08
7.31349e-09
-3.4246e-10
7.19275e-09
-7.17079e-09
3.20483e-10
3.78399e-09
-3.99455e-09
-1.31881e-10
1.92712e-09
5.47305e-09
-3.01539e-09
5.35342e-09
1.03768e-08
3.26773e-09
-9.15944e-09
-4.48509e-09
-5.28744e-09
1.01338e-08
-5.29012e-10
-1.49063e-09
1.9014e-09
-6.91376e-09
-5.08147e-09
-2.62598e-09
-2.64342e-09
-3.17245e-09
3.94105e-09
4.1189e-09
-3.29818e-09
-3.4467e-09
-2.80168e-11
1.52373e-10
3.83277e-09
-3.13639e-09
3.69831e-09
-4.39467e-09
3.72657e-09
7.81742e-11
-6.74932e-09
3.14749e-10
3.37788e-09
-2.08613e-10
3.93202e-09
-2.83317e-09
-6.10775e-09
5.41863e-09
3.5223e-09
-4.12855e-09
1.2939e-09
1.47745e-12
-3.8202e-09
2.75907e-10
-2.56346e-09
-2.92627e-09
-5.02247e-09
-6.41452e-09
2.86575e-09
-4.0803e-09
7.62908e-09
-7.82763e-09
-1.66012e-09
3.07324e-09
2.64466e-09
-6.85026e-09
-3.4867e-09
7.69229e-09
-2.30366e-09
1.03669e-08
-4.0513e-09
-3.67689e-09
5.42452e-09
1.08351e-10
-4.0119e-09
-2.56245e-09
-5.53104e-09
1.30513e-09
1.45621e-10
-7.64364e-09
-5.71503e-09
-8.04293e-10
4.75649e-09
-2.23848e-09
1.80583e-09
-3.57924e-09
-6.82487e-09
-8.08211e-09
3.79112e-09
-3.20304e-09
-5.19899e-09
-5.73303e-09
-3.36795e-09
1.42997e-08
-3.43588e-09
-7.54759e-09
5.78426e-09
-7.20114e-09
-4.80019e-09
6.26816e-09
-6.46058e-09
-1.18571e-09
4.45053e-10
-6.94117e-09
-5.2775e-09
8.85067e-09
-8.17695e-09
-2.20013e-09
-9.30993e-09
5.82457e-09
3.24524e-09
2.40118e-10
5.8504e-09
-6.17971e-09
-8.98055e-09
8.15685e-09
-6.06249e-09
-8.55499e-09
2.98193e-09
3.74605e-10
-5.97681e-09
-4.86453e-10
1.02275e-08
-2.0796e-09
-2.2975e-09
7.87511e-09
-5.63928e-09
2.9077e-09
3.2214e-09
-3.63313e-10
1.78202e-10
-8.0524e-09
3.48666e-09
2.8644e-09
6.50817e-09
-3.62382e-09
-9.47946e-09
-4.07678e-09
1.36165e-08
-6.02612e-11
-1.61567e-08
1.59748e-08
-9.2976e-09
5.37621e-09
1.04233e-08
-1.33087e-08
-2.49078e-09
-8.77394e-10
-9.90307e-09
-1.33371e-08
1.17321e-08
-2.47174e-09
5.34556e-10
-3.44841e-09
5.48861e-09
1.13882e-08
-1.57415e-08
-1.1353e-09
-3.0356e-09
-1.31072e-09
-8.902e-09
-1.76358e-08
-1.29273e-08
1.08903e-08
-1.55709e-08
1.28085e-08
-8.12791e-09
-1.11538e-08
2.34011e-08
-1.35702e-09
-1.63123e-08
-3.50074e-09
1.69161e-08
2.89697e-09
-3.10203e-09
-1.98575e-09
-1.12245e-08
1.47686e-08
-1.16714e-08
-6.19922e-09
1.05927e-08
6.75179e-10
4.44039e-09
-4.66576e-09
-1.53455e-08
-8.69915e-09
4.14787e-09
7.29174e-09
1.19615e-08
8.11523e-09
8.84114e-09
8.39474e-09
1.58131e-08
9.99208e-09
-2.18679e-09
-1.26756e-08
4.87032e-09
3.52446e-09
8.74644e-09
-2.2788e-09
9.87565e-09
1.81713e-09
-1.38796e-08
1.2453e-08
9.471e-10
-1.04764e-08
-4.36592e-11
1.89148e-08
-7.88342e-09
7.99977e-09
9.57398e-09
-3.6498e-09
2.19101e-09
-9.69665e-09
1.92269e-08
1.55759e-08
-4.80521e-10
-6.34886e-09
8.87897e-09
-1.17276e-08
4.70081e-09
1.18151e-08
-4.06289e-09
1.39641e-08
-3.84287e-10
1.24509e-08
-2.13662e-09
-9.57137e-09
1.23256e-08
-3.99901e-09
6.24277e-09
3.69344e-09
-9.13072e-10
8.91315e-10
1.51479e-09
-4.91451e-09
-4.59348e-09
1.63016e-08
-1.01933e-08
-1.3982e-08
-1.02132e-09
-1.02776e-09
1.60311e-08
-7.80079e-09
-1.8093e-08
1.19118e-08
1.02154e-08
-2.55591e-08
7.5429e-09
-1.56267e-08
-2.08482e-09
1.66902e-08
2.00162e-08
-2.54275e-08
1.22144e-08
9.72186e-10
-1.38607e-08
6.74106e-10
-1.1267e-08
1.43982e-08
9.08327e-09
-1.92712e-08
2.15031e-09
-6.23673e-09
-1.92679e-08
-5.44703e-11
6.92636e-09
-1.1889e-08
-8.89806e-09
1.60048e-08
-7.70344e-09
-1.37507e-09
1.73443e-08
2.31928e-09
-1.28707e-08
-6.79297e-09
-6.72638e-10
1.59322e-08
8.24802e-09
-3.51021e-09
1.39258e-08
-3.35851e-09
6.64715e-10
1.25885e-08
1.40351e-08
-5.28989e-09
-2.0218e-08
1.37667e-09
-1.85556e-08
4.99758e-09
-1.13244e-08
-1.44265e-08
6.55346e-09
-3.74688e-09
-6.69586e-09
1.368e-08
-3.23726e-09
-6.53467e-09
-6.55814e-09
9.34593e-09
-3.1045e-09
8.37018e-09
-1.19615e-08
4.90075e-09
-1.45399e-08
-3.16631e-09
-8.5502e-09
8.17334e-11
1.16347e-08
1.3493e-10
-1.57014e-08
1.24002e-08
1.12862e-08
8.0368e-09
-1.44222e-08
1.05314e-08
-1.49694e-09
2.25172e-09
-3.86062e-10
7.82013e-09
6.24587e-09
6.26767e-09
4.57285e-09
-1.12266e-08
-8.21499e-09
7.4849e-09
8.80729e-09
-8.65218e-09
2.93689e-09
-1.25884e-08
9.7863e-09
9.28626e-09
-9.54209e-11
-6.79878e-09
-1.59875e-08
1.39305e-08
-8.04607e-09
-8.2167e-09
-7.68243e-11
-3.05152e-09
1.13451e-08
2.30355e-09
-9.01808e-09
-1.50216e-09
1.16957e-08
-6.14464e-09
-3.81281e-10
-5.16976e-09
3.02914e-09
-3.05135e-09
1.17179e-08
-8.66143e-09
1.16137e-08
-7.95472e-09
1.59685e-09
2.7078e-09
-7.90503e-09
-9.47391e-10
-7.3141e-09
2.06718e-09
8.47859e-09
-1.46155e-08
6.05588e-09
8.10601e-11
-8.84514e-09
8.30565e-09
-1.14183e-09
-1.06524e-08
8.74272e-09
-1.28236e-08
8.63041e-09
-6.82068e-09
-6.38418e-09
8.81173e-09
-4.40129e-09
-1.23155e-08
2.91717e-09
-1.41954e-09
4.87581e-09
-9.85616e-09
-9.63518e-09
-1.05216e-09
-1.02458e-08
5.64925e-09
6.69002e-09
-2.09475e-08
-1.03765e-08
-1.24855e-08
2.47417e-09
-1.96041e-08
4.02146e-10
-2.40948e-09
2.16115e-08
-6.06e-09
-1.17878e-08
-1.75638e-09
-6.01755e-10
1.17303e-08
-1.13521e-08
2.23575e-10
1.10409e-08
-1.15667e-08
-7.60274e-11
-2.63592e-09
1.86856e-09
1.18083e-08
-1.26689e-09
1.03613e-08
1.1255e-08
-1.12124e-08
-6.10257e-09
1.35257e-08
-1.32718e-08
-1.66344e-09
1.25258e-08
-1.27631e-08
-1.22965e-08
-2.44541e-09
4.50636e-11
-9.16631e-09
-2.65909e-09
-1.11384e-08
-1.55727e-08
1.26424e-08
-1.81972e-08
-3.4573e-11
-9.22635e-09
-1.94104e-09
1.5727e-09
1.13008e-08
-1.06514e-09
1.05373e-08
1.44214e-10
-9.10885e-09
1.90828e-08
-1.13104e-08
-2.7103e-09
-5.06209e-09
6.70115e-09
1.97427e-08
-7.36103e-09
3.64643e-09
1.34362e-08
-1.6525e-09
-1.54301e-08
-1.13745e-08
-1.21267e-08
1.21908e-08
-1.11408e-09
1.19921e-08
4.22762e-10
1.09517e-08
-1.52845e-09
-1.64528e-08
-6.44476e-09
1.49882e-08
7.90939e-09
-7.17106e-09
1.43386e-08
-7.81693e-09
-2.35393e-08
1.70176e-08
3.57908e-09
1.77855e-09
8.98094e-09
-1.0861e-09
-6.58663e-09
-1.37998e-08
2.18995e-09
5.16511e-09
1.02554e-08
-1.31035e-08
-1.56534e-09
2.32547e-08
-1.3508e-08
7.79804e-09
7.89993e-09
3.26443e-10
9.87914e-09
-1.59594e-08
-7.64338e-10
4.42946e-09
1.22942e-08
-9.67696e-09
-1.7132e-09
-2.20356e-08
4.50795e-09
1.67633e-08
-1.50061e-08
-6.0859e-09
-9.4357e-10
4.02518e-09
-1.55233e-08
-1.35279e-08
2.49666e-09
1.55392e-08
-1.21743e-08
-1.25087e-08
-1.3866e-08
-4.25534e-09
-1.37932e-08
-6.15873e-09
-1.11139e-08
-1.7462e-08
4.95737e-09
2.76528e-09
9.7394e-09
-1.373e-08
-1.64235e-08
1.26915e-08
2.82253e-09
-1.33882e-09
-1.52768e-08
-1.81053e-08
1.1481e-08
2.369e-09
1.49747e-09
-1.67802e-08
-1.3121e-08
6.96458e-09
2.31796e-09
-1.58311e-08
-1.6551e-08
1.4911e-08
-1.76021e-09
-1.32933e-08
-1.31723e-08
3.80496e-09
6.06403e-09
-9.69746e-09
-1.71536e-10
9.92399e-09
-6.7618e-09
-3.58934e-09
4.27129e-10
4.92528e-09
9.62089e-09
-6.32814e-09
-8.21802e-09
8.50328e-09
2.26945e-10
1.59065e-09
1.99819e-08
-1.12918e-08
-1.02808e-08
9.28045e-09
-3.94938e-09
-3.74042e-09
-7.21091e-09
7.65577e-09
8.83558e-09
7.54222e-09
5.22879e-09
5.58685e-09
8.46563e-11
7.29514e-09
6.795e-09
1.65783e-08
3.24336e-10
-1.52256e-09
-1.53801e-08
4.24866e-09
-2.34132e-10
1.25637e-08
-2.75248e-09
-2.17403e-10
1.06257e-08
9.0384e-09
1.12691e-08
-1.01764e-08
-7.68477e-10
2.74124e-09
8.29376e-09
9.17187e-10
-1.16956e-09
7.17928e-09
-1.98071e-10
2.71956e-09
7.20096e-09
9.79729e-09
5.03605e-09
-2.32792e-09
-5.53079e-09
2.82271e-09
-6.88207e-09
1.15676e-08
3.50563e-10
-1.65424e-09
-7.55575e-09
8.36329e-09
1.5771e-08
-7.8178e-09
-1.63165e-08
5.0156e-09
5.07774e-10
2.84002e-09
1.52558e-08
-5.64199e-09
9.28784e-09
6.87991e-09
-1.05257e-08
1.41376e-09
6.23347e-09
-1.32892e-08
-1.34362e-08
7.03214e-09
-9.38016e-09
3.1502e-09
6.73775e-09
1.5298e-09
1.23509e-08
-4.59288e-09
-1.61689e-09
5.08354e-09
1.63345e-10
1.63302e-09
8.07208e-09
9.36239e-09
-1.56809e-09
-5.44092e-09
1.22512e-09
5.78388e-09
-7.27203e-09
-1.41449e-10
5.84538e-09
3.92178e-09
-4.47841e-09
-6.71541e-09
-1.65686e-09
1.37718e-10
-5.12677e-09
-5.75456e-10
6.92734e-09
-4.04894e-09
-5.42271e-09
4.34488e-09
-5.60066e-09
-1.05135e-10
8.16197e-10
5.61166e-10
-6.80008e-09
-1.79021e-09
-6.25545e-09
7.47019e-09
-8.84873e-09
6.91705e-09
-6.73157e-09
1.29231e-09
-1.08416e-08
4.53658e-09
-4.26545e-10
-2.0953e-09
8.2029e-09
-1.69492e-08
-4.1394e-09
-4.39495e-09
3.9603e-09
4.57404e-09
-1.25304e-08
6.29566e-09
-1.13928e-08
7.08069e-09
-4.03087e-09
8.40923e-10
-5.23311e-09
-1.28183e-09
1.25333e-10
6.38961e-09
-3.51826e-09
-1.83535e-09
1.20493e-10
-1.06516e-09
5.21466e-09
-5.43134e-09
8.04962e-09
-1.43288e-09
-6.49142e-09
-7.70383e-09
5.83576e-09
8.02889e-10
-2.45504e-10
-9.00188e-10
6.66287e-09
-5.51718e-09
-3.15746e-09
1.56146e-10
-2.36208e-09
5.36339e-09
-5.41368e-09
5.0828e-09
-2.82658e-09
-7.87065e-09
-1.60826e-09
9.23341e-09
-4.28635e-09
-3.26132e-09
1.19599e-09
-7.75125e-09
4.77049e-09
1.78478e-09
-1.0961e-08
-9.23808e-09
9.19221e-09
-3.34747e-09
3.39334e-09
-1.38592e-08
1.08933e-08
-6.27218e-09
-4.05086e-09
-1.17797e-10
-9.69054e-09
-5.74684e-09
3.85262e-09
1.10864e-08
-1.51346e-09
6.65992e-09
-9.41177e-09
5.72638e-09
3.37929e-10
-1.05062e-09
-1.2412e-08
9.67002e-09
-9.20494e-09
-6.22027e-09
5.75519e-09
5.32583e-09
2.83072e-09
-3.31537e-09
7.50111e-10
6.41786e-09
1.35312e-09
-7.8253e-09
3.15682e-09
-4.37873e-09
-3.77632e-09
8.90517e-09
-8.02498e-09
4.99936e-09
-2.79144e-09
-6.5313e-09
-4.86603e-10
-1.61232e-09
-1.67344e-09
-8.10459e-09
1.75306e-09
-4.70488e-09
4.45996e-09
-3.5314e-09
-6.34023e-09
-3.80966e-11
5.29334e-09
-9.1354e-09
-6.36958e-09
-2.22162e-09
-6.62384e-09
3.14446e-10
-3.08279e-11
-7.70008e-09
-1.06388e-08
1.09465e-10
-2.83074e-09
1.33601e-08
-2.17403e-09
-8.29024e-09
-1.74536e-10
2.12806e-09
-8.33773e-09
-3.73097e-10
6.58277e-09
2.13047e-09
-9.02095e-09
9.01855e-09
-9.33758e-09
1.15775e-08
-7.10305e-09
-9.64874e-09
7.41422e-09
-9.80097e-09
5.23889e-10
1.24966e-08
-1.00736e-08
-1.07132e-08
-2.14247e-09
1.18083e-08
3.07159e-09
-8.8459e-09
-2.56341e-09
-6.15749e-09
2.08133e-10
7.81894e-09
-1.02006e-08
-7.41936e-09
-2.02215e-09
1.92351e-10
8.80873e-09
-7.14575e-09
5.34055e-09
-7.00354e-09
-1.14721e-08
1.02072e-08
-9.58368e-09
7.06811e-09
-8.13686e-09
-4.27722e-11
-8.0742e-09
8.51307e-10
-4.2492e-09
-2.32234e-10
-1.49877e-08
-6.3513e-10
-3.60799e-09
-5.2339e-09
-4.24713e-09
-4.91778e-09
-8.45297e-09
-6.26409e-09
-3.08515e-09
-1.14141e-08
-4.55244e-09
8.80084e-09
2.12979e-08
-2.55462e-08
1.13462e-09
1.66244e-08
2.25721e-09
1.46084e-08
3.21651e-09
-2.3851e-08
3.57404e-09
1.57245e-08
-1.60031e-08
8.77648e-09
-1.50488e-08
2.00298e-08
-1.31951e-08
8.21407e-09
-1.64437e-08
3.42185e-09
2.49338e-08
-1.5494e-08
-8.35447e-09
7.40469e-09
6.36219e-09
1.18202e-08
-2.10843e-08
7.21133e-09
1.87085e-09
1.20021e-08
-6.9532e-09
-1.07093e-08
-1.44591e-08
1.1097e-08
1.61442e-08
3.81128e-10
1.95168e-08
1.10424e-08
1.57622e-08
8.54667e-09
1.85268e-08
1.529e-08
-8.61722e-10
-1.2147e-08
1.33572e-08
-8.3069e-09
8.56927e-09
-1.12417e-09
3.82614e-09
-9.89943e-09
-2.23373e-09
5.02436e-10
-8.82332e-09
1.07449e-08
-5.90219e-09
3.7264e-09
-4.28968e-09
1.68767e-09
1.33468e-08
1.51873e-09
5.43687e-09
-1.69223e-09
-9.64698e-09
3.69035e-09
-1.3928e-08
1.17563e-08
-1.15477e-08
1.69256e-08
4.67177e-09
1.18445e-08
-1.38618e-08
-2.65449e-09
1.28161e-08
-7.6419e-09
-1.16924e-08
5.58155e-09
-1.65837e-09
5.46422e-10
-1.50641e-09
-1.02699e-08
-1.42927e-08
1.34613e-08
1.11013e-08
-1.01974e-08
1.19046e-09
-1.26303e-09
1.69529e-08
-1.12104e-08
-1.59399e-08
3.43862e-09
-7.78421e-10
-1.48101e-08
8.03944e-09
2.6711e-09
4.09955e-09
5.91124e-10
-2.36962e-09
-1.30316e-08
-1.16005e-08
1.0783e-08
8.85693e-09
-1.12244e-09
-9.8869e-09
-6.05121e-09
1.89484e-08
5.64157e-10
2.88463e-09
1.1337e-08
6.32136e-09
1.38929e-08
-1.16454e-08
-8.56879e-09
-1.37905e-08
-2.45757e-09
2.25694e-08
1.76659e-08
-2.58252e-09
1.76565e-08
-6.04185e-09
-7.4271e-10
2.79204e-09
-1.58398e-08
1.53836e-09
-1.39265e-08
1.39703e-08
-1.35479e-08
1.11698e-08
5.47162e-09
-1.07945e-08
1.02839e-08
5.07629e-09
-4.19038e-09
-1.98627e-08
4.12849e-09
1.21951e-08
3.53918e-09
-1.2062e-08
-2.99897e-09
-4.80177e-09
-1.0979e-08
1.9615e-08
-1.50891e-08
6.45308e-09
-1.66332e-08
-5.05503e-09
-8.63776e-09
1.48289e-08
5.811e-09
-1.94388e-09
1.29211e-08
1.43765e-08
-1.11986e-08
-1.98111e-08
2.75e-09
-3.46257e-09
6.55302e-10
2.19275e-08
-7.75389e-09
-1.60926e-08
-1.11479e-08
1.51785e-08
1.70262e-08
-1.39051e-08
-6.12015e-09
7.00915e-09
1.41456e-08
1.29669e-08
2.18945e-09
-2.63549e-08
-3.7563e-10
1.75351e-08
-2.98047e-08
-9.56501e-09
2.38086e-08
-7.60664e-09
3.82131e-09
-6.64332e-09
1.04287e-08
3.94283e-10
-1.11246e-08
3.12365e-09
-5.28173e-09
4.56159e-09
-3.45613e-09
4.17626e-09
1.02457e-09
-6.14102e-09
-1.65277e-10
-4.20396e-09
-6.83653e-10
8.70892e-09
-5.96366e-09
2.15398e-09
6.63391e-09
-7.0801e-09
-1.06784e-08
-1.14062e-09
1.1312e-09
-6.811e-09
4.83004e-09
-4.58658e-09
6.56755e-09
-5.74934e-09
-3.7103e-11
8.70797e-09
-5.81907e-09
1.22232e-09
-5.70975e-09
-6.25034e-09
1.02844e-08
-1.00854e-08
-5.94825e-09
6.73504e-10
5.02427e-09
1.17742e-08
-8.64599e-10
-2.4347e-09
-8.47485e-09
6.484e-09
-1.63263e-09
-6.31207e-09
-1.37405e-09
-1.11461e-08
-8.71643e-09
5.19977e-09
-4.07517e-09
2.40692e-09
-3.53153e-09
6.25999e-09
2.84989e-10
-9.89602e-09
3.35105e-09
2.36565e-09
9.09411e-09
3.60018e-09
-1.09329e-09
-1.41228e-10
6.21327e-09
5.92945e-09
-3.04861e-09
6.12765e-09
3.68579e-09
-8.48647e-09
7.55895e-09
9.2075e-11
8.35443e-10
3.92294e-09
-7.24937e-09
-5.16005e-09
-3.81152e-09
7.19924e-09
4.17124e-09
4.44661e-10
-3.33239e-10
2.08333e-09
3.98605e-09
-5.7844e-09
-2.21086e-09
1.0419e-08
-6.39397e-09
-1.81412e-09
-7.37689e-09
3.12515e-09
-2.32393e-10
-7.63785e-11
-2.55557e-10
6.2614e-09
-2.6991e-10
6.32119e-09
-3.69508e-09
-1.80209e-10
3.60539e-09
-1.25258e-10
9.23757e-09
1.27349e-09
2.89875e-10
6.72915e-09
4.78075e-10
9.04937e-09
7.55411e-09
-7.33158e-09
2.7709e-09
-1.36307e-10
1.15683e-08
-1.4203e-08
5.90002e-10
1.20815e-08
-9.90058e-09
1.46336e-09
-2.01901e-09
9.96642e-09
-9.41078e-09
9.55016e-09
-7.49678e-09
1.27338e-08
-1.48891e-08
-2.75871e-09
1.48213e-08
-4.94268e-10
1.63144e-08
1.43772e-08
-1.86102e-08
1.10037e-08
4.92799e-10
4.8179e-09
1.93299e-09
1.04036e-08
-2.78647e-09
1.33029e-08
-1.40348e-09
1.27794e-08
-1.64742e-09
9.67441e-09
4.75247e-09
7.98249e-09
3.67306e-09
-7.1928e-09
-8.79404e-09
-4.52567e-09
2.05125e-08
-1.27636e-08
1.35533e-08
1.14346e-08
2.96051e-09
-1.79271e-11
1.36443e-08
9.97403e-09
5.34009e-09
1.51228e-08
6.0052e-10
-1.36931e-09
5.45633e-09
-5.52105e-09
1.43402e-09
-4.16308e-09
2.68629e-09
1.07489e-10
4.09267e-11
-4.92228e-09
-7.8917e-10
5.67049e-09
-4.13236e-09
-7.19715e-10
4.89299e-09
-6.10581e-09
6.63986e-09
-3.81372e-09
1.98672e-09
-3.69405e-09
-2.20741e-09
-5.76939e-09
-1.50659e-09
6.05155e-11
3.23798e-10
-6.55909e-09
5.44609e-09
-5.78107e-09
5.38515e-09
-3.16634e-09
-7.27365e-09
4.65892e-09
-4.43368e-09
-2.39235e-10
-5.5764e-09
-3.90659e-10
-1.30659e-09
-3.6544e-09
-6.35568e-09
7.27287e-09
5.29577e-09
-2.76987e-09
-9.79877e-09
8.75792e-09
-1.87571e-09
-1.97436e-09
-2.14474e-09
-4.72342e-09
6.92225e-09
-1.40201e-09
-8.63168e-09
-1.29639e-08
6.10033e-10
-1.16945e-09
1.35233e-08
-3.71044e-09
6.43624e-09
-1.56897e-08
-1.72857e-09
-9.28075e-09
1.02312e-08
7.78114e-10
6.75839e-09
-7.98509e-09
-5.01865e-10
-1.05732e-08
-4.07242e-10
1.15905e-08
-6.75028e-11
-3.74729e-09
1.05277e-08
-1.57949e-08
1.55674e-09
-3.91849e-10
9.75009e-09
7.85937e-09
-1.94396e-08
1.41288e-08
-2.54859e-09
-1.11949e-08
1.26469e-08
6.40731e-09
5.96421e-10
8.63876e-12
-9.88584e-09
7.97747e-10
-8.18642e-09
-1.04795e-09
1.08719e-08
-1.95582e-10
-1.41219e-08
1.51153e-08
-8.50239e-10
-1.51402e-08
-6.0027e-10
-1.96896e-08
-1.17865e-08
-1.10864e-09
1.27076e-08
1.26283e-08
-6.35693e-09
3.81573e-09
-9.88935e-09
1.24305e-08
-1.43749e-08
2.57183e-10
7.76078e-09
2.63921e-09
-3.77443e-09
-4.80814e-09
5.94337e-09
-3.6994e-09
1.01543e-08
1.65871e-09
3.62138e-09
-9.29988e-09
4.01981e-09
-6.41949e-09
4.30376e-09
5.03539e-09
-1.23116e-08
-7.09867e-09
-5.33446e-09
-9.6866e-09
5.13568e-09
-6.51362e-09
6.43561e-09
-1.02623e-09
-5.06707e-09
-3.26172e-10
-8.58343e-09
-1.74268e-09
5.46298e-09
-5.45679e-09
-1.23178e-08
-1.54897e-09
-2.6746e-09
-4.75888e-09
-1.85716e-09
4.76563e-09
-2.8739e-09
-6.65054e-09
-1.66222e-10
-9.00861e-09
2.66123e-09
-1.47884e-09
-2.33894e-09
4.12331e-09
-1.2454e-08
-7.77947e-09
-5.67929e-09
-4.80814e-09
-9.33546e-09
-9.53908e-09
-6.63119e-09
4.72768e-09
1.14426e-08
-9.47621e-09
1.39367e-10
-2.0225e-10
-1.95911e-08
2.42639e-10
1.27173e-08
-7.07786e-09
-8.33833e-09
-4.17491e-09
1.25179e-08
4.20548e-11
-7.83228e-09
1.45713e-08
-1.46304e-08
-7.01877e-09
1.58071e-08
-1.1847e-08
1.06111e-08
1.09486e-08
5.10114e-09
-8.88983e-09
-8.92472e-09
1.4054e-08
-1.09356e-08
-1.24497e-08
9.33114e-09
3.69633e-09
3.255e-09
7.10269e-09
1.23768e-08
-1.93042e-08
-7.70292e-09
2.46245e-09
-1.93261e-09
3.31074e-09
-6.21125e-09
-5.98933e-09
-1.18315e-08
5.47855e-09
1.00492e-08
-3.63849e-10
-7.26099e-09
9.17286e-11
-9.46074e-09
4.27864e-09
3.85461e-09
-9.24337e-10
-7.20892e-09
4.71011e-09
9.28635e-10
-1.36011e-09
3.08388e-10
7.02128e-09
-3.47506e-09
8.48271e-09
-3.46422e-09
4.02509e-09
2.94698e-09
-7.89641e-09
5.07252e-09
-1.18797e-10
8.63812e-09
1.33255e-08
-1.49423e-08
6.68625e-09
2.57315e-09
-7.76695e-10
4.26426e-09
1.0847e-09
-2.76443e-10
4.91163e-09
6.03887e-09