/*--------------------------------*- C++ -*----------------------------------*\
| =========                 |                                                 |
| \\      /  F ield         | OpenFOAM: The Open Source CFD Toolbox           |
|  \\    /   O peration     | Version:  v1612+                                |
|   \\  /    A nd           | Web:      www.OpenFOAM.com                      |
|    \\/     M anipulation  |                                                 |
\*---------------------------------------------------------------------------*/
FoamFile
{
    version     2.0;
    format      ascii;
    class       volVectorField;
    location    "166";
    object      wallShearStress;
}
// * * * * * * * * * * * * * * * * * * * * * * * * * * * * * * * * * * * * * //

dimensions      [0 2 -2 0 0 0 0];

internalField   uniform (0 0 0);

boundaryField
{
    WALL
    {
        type            calculated;
        value           nonuniform List<vector> 
1516
(
(-0.019848 -0.00261261 0.00742531)
(-0.0232964 -0.00130733 0.0100729)
(-0.0203265 -0.022533 0.0137012)
(-0.018362 -0.0207782 0.0149631)
(-0.00211033 -0.0136331 0.0191838)
(-0.00501506 -0.0139466 0.0200415)
(-0.0173697 -0.0123212 0.0127873)
(-0.017334 -0.0114483 0.014103)
(-0.015263 -0.00604847 0.00427829)
(-0.0169608 -0.0182887 0.00979057)
(-0.0165025 -0.0176795 0.00925378)
(-0.00382155 -0.0150691 0.0171072)
(-0.000540387 -0.0147203 0.0163918)
(-0.0219102 -0.00933317 0.00534534)
(-0.0206547 -0.00868194 0.00610821)
(-0.0201243 -0.00169721 0.0107345)
(-0.0189093 -0.00251572 0.0108929)
(-0.020712 -0.000445786 0.00673145)
(-0.02075 -0.0117353 0.00848288)
(-0.0209882 -0.0126369 0.00950481)
(-0.00328663 -0.0103586 0.000903491)
(-0.00323263 -0.0113347 0.00166055)
(-0.00128924 -0.013165 0.0181802)
(-0.0016993 -0.014494 0.0163387)
(-0.00329204 -0.0120806 0.0154387)
(-0.00392065 -0.0120835 0.0131564)
(-0.00391028 -0.0123256 0.00130514)
(-0.00389909 -0.0137221 0.00316755)
(-0.0220659 -0.0115929 0.0036704)
(-0.0202878 -0.00916423 0.00384947)
(0.00244055 -0.0173479 0.0106122)
(0.00349234 -0.0162769 0.0119326)
(-0.00406589 -0.0065301 0.000519652)
(-0.00469346 -0.00628144 0.000532798)
(-0.0175546 -0.0152534 0.0111938)
(-0.0182604 -0.0150402 0.013036)
(-0.0111759 -0.0139777 0.00831907)
(-0.00962843 -0.0112172 0.0051731)
(-0.0119604 -0.0174891 0.0118557)
(-0.0115391 -0.014918 0.00980565)
(-0.0119017 -0.0155395 0.00893971)
(-0.0125282 -0.0187601 0.0115707)
(-0.0138609 -0.0175696 0.0156857)
(-0.0146252 -0.0206188 0.0168038)
(-0.0125063 -0.0210907 0.0135281)
(-0.0131363 -0.020023 0.0145483)
(-0.0133171 -0.0147367 0.013637)
(-0.0122716 -0.0119706 0.0106016)
(-0.0074149 -0.00637311 0.00232973)
(-0.00652355 -0.00617606 0.00132124)
(-0.00452504 -0.00639411 -0.000219394)
(-0.00514114 -0.00592382 0.000490796)
(-0.0104016 -0.00638759 0.00233119)
(-0.00985239 -0.00648764 0.00100521)
(0.00272072 -0.0185372 0.0105615)
(0.00279341 -0.0159662 0.0108078)
(0.00102817 -0.0168272 0.0163155)
(-0.000305371 -0.0150765 0.0161621)
(-0.00546057 -0.0101738 0.0210245)
(-0.00822424 -0.0100465 0.0213737)
(-0.0200026 -0.00764123 0.0122001)
(-0.0194839 -0.005771 0.0140323)
(-0.0178657 -0.00991386 0.0139848)
(-0.0175203 -0.00924068 0.0155881)
(-0.0169079 -0.00773917 0.0147271)
(-0.015924 -0.0071026 0.016495)
(-0.0155563 -0.0211289 0.0151796)
(-0.016256 -0.0223856 0.0146955)
(-0.0106788 -0.00179152 0.0139377)
(-0.0132093 -0.000126604 0.0141692)
(-0.0043263 -0.00679117 0.000407633)
(-0.00484073 -0.00657954 0.000590504)
(-0.00427479 -0.0148578 0.0104804)
(-0.00528027 -0.0142611 0.0109351)
(-0.0187125 -0.00295722 0.0139894)
(-0.0171922 -0.00328802 0.014957)
(-0.0169809 -0.00178442 0.0138782)
(-0.0202215 -0.0040046 0.012644)
(-0.0183965 -0.00286243 0.0123862)
(-0.017612 -0.00361535 0.0143719)
(-0.0203965 -0.00921867 0.00412814)
(-0.022589 -0.00826274 0.00445648)
(-0.0222477 -0.00604201 0.00630725)
(-0.0221437 -0.00724706 0.00625353)
(-0.0219792 -0.00647796 0.00681751)
(-0.0219482 -0.00677556 0.00518478)
(-0.0141475 -0.00656854 0.00447277)
(-0.0132475 -0.00613311 0.00488412)
(-0.0121017 -0.00649199 0.00374738)
(-0.00823915 -0.00598268 0.00143188)
(-0.0113058 -0.00679357 0.00187746)
(-0.0128846 -0.00667804 0.00291125)
(-0.0036933 -0.0100272 0.000256258)
(-0.00406169 -0.009554 -9.34949e-05)
(-0.00454341 -0.00864703 -0.00014943)
(-0.00415477 -0.00783043 -0.000166894)
(-0.00398943 -0.010533 0.000316513)
(-0.00382836 -0.00899456 -9.11569e-06)
(-0.00518507 -0.00662747 0.000876312)
(-0.0043048 -0.00658173 0.000341093)
(-0.0043621 -0.00651775 0.000199288)
(-0.00526007 -0.00666631 0.00093423)
(-0.00518391 -0.00704198 0.000587528)
(0.00294507 -0.0165722 0.0137286)
(0.00169562 -0.0161681 0.0141296)
(2.98473e-06 -0.016439 0.01682)
(0.00135663 -0.0164681 0.0144028)
(0.000466573 -0.0153182 0.0152186)
(0.00209761 -0.0161634 0.0131052)
(-0.0198743 -0.0192493 0.00882714)
(-0.0180139 -0.0187705 0.00801615)
(-0.0167249 -0.0210915 0.00886043)
(-0.0163925 -0.0194805 0.00838615)
(-0.0176484 -0.0172405 0.00803094)
(-0.0183849 -0.0184613 0.00919428)
(-0.0185851 -0.0149265 0.0110303)
(-0.0183468 -0.0137585 0.0109886)
(-0.0184808 -0.0141539 0.0119812)
(-0.0184686 -0.0141425 0.0105347)
(-0.0188816 -0.0147645 0.0116778)
(-0.0200089 -0.0155628 0.011998)
(-0.0126048 -0.0155041 0.012744)
(-0.0128911 -0.0147699 0.0108144)
(-0.012966 -0.0145752 0.0113506)
(-0.0119773 -0.0149027 0.0119024)
(-0.0113552 -0.0124611 0.00981779)
(-0.0109415 -0.0122622 0.00946759)
(-0.0190197 -0.0221012 0.0163084)
(-0.0191407 -0.0196934 0.0151609)
(-0.017976 -0.0203379 0.016392)
(-0.0164394 -0.0200071 0.0139972)
(-0.0175401 -0.0195618 0.0137077)
(-0.0192954 -0.0214553 0.0123725)
(-0.0172457 -0.0195594 0.0128383)
(-0.0196679 -0.0209688 0.0138305)
(0.0022994 -0.0165153 0.00703084)
(0.000592696 -0.012997 0.00325224)
(0.00174022 -0.0151109 0.00585987)
(0.00137406 -0.0150703 0.00565825)
(0.000413416 -0.0138402 0.00437664)
(0.000872429 -0.0146737 0.0044348)
(-0.00874538 -0.00733619 0.00461578)
(-0.00659145 -0.00637255 0.001943)
(-0.00876342 -0.00744761 0.00450086)
(-0.00768573 -0.00678763 0.00302955)
(-0.00663342 -0.00630303 0.00226597)
(-0.00823644 -0.007469 0.00341876)
(-0.0143511 -0.0190513 0.0165212)
(-0.0146118 -0.0170901 0.0158946)
(-0.0153594 -0.0192864 0.0166807)
(-0.0158514 -0.019232 0.016581)
(-0.0161294 -0.0184774 0.0162142)
(-0.0154973 -0.0171533 0.0162109)
(-0.00849219 -0.00418955 0.0152568)
(-0.00988236 -0.00350353 0.0154444)
(-0.010661 -0.00319585 0.0169513)
(-0.0114203 -0.00237185 0.0161778)
(-0.0107084 -0.00227341 0.0156369)
(-0.00937943 -0.00420251 0.0167534)
(-0.00699543 -0.00530467 0.0120797)
(-0.00822623 -0.00540854 0.0137087)
(-0.00769402 -0.00393852 0.0136359)
(-0.00731441 -0.00612328 0.0138372)
(-0.00808331 -0.00455216 0.0123946)
(-0.0130645 -0.00274444 0.0167284)
(-0.0141126 -0.00157268 0.0160028)
(-0.0134606 -0.00178352 0.0158673)
(-0.0157264 -0.00167889 0.0148853)
(-0.0135861 -0.00264588 0.0165044)
(-0.0148786 -0.00148898 0.0149864)
(-0.00997154 -0.0028584 0.013736)
(-0.0118196 -0.00167342 0.0150961)
(-0.0114388 -0.000638223 0.0136269)
(-0.00519823 -0.0111685 0.0148627)
(-0.00531257 -0.0100522 0.0154051)
(-0.00605697 -0.0095618 0.0171406)
(-0.00459998 -0.010033 0.0164955)
(-0.00469214 -0.010947 0.0152301)
(-0.00617177 -0.00954548 0.0166783)
(-0.00703826 -0.00724908 0.0144057)
(-0.00648786 -0.00778299 0.0157642)
(-0.00749352 -0.00626901 0.0148661)
(-0.00643952 -0.00823955 0.014038)
(-0.00599003 -0.00842404 0.0146287)
(-0.00717405 -0.00644578 0.0154026)
(-0.0146723 -0.0166904 0.0149602)
(-0.0148872 -0.0174074 0.0147236)
(-0.0137731 -0.0147631 0.012566)
(-0.0125896 -0.0145571 0.0135916)
(-0.0133555 -0.0172207 0.0150799)
(0.00239991 -0.0159572 0.0125634)
(0.00138391 -0.0180366 0.0127111)
(0.00279016 -0.0172343 0.00915555)
(0.00260229 -0.0169602 0.0117014)
(0.00255131 -0.0178854 0.0121025)
(0.00308139 -0.0171211 0.0101883)
(-0.0175342 -0.0203303 0.00876601)
(-0.0178534 -0.0189477 0.00839431)
(-0.0181704 -0.0189739 0.00790662)
(-0.0194955 -0.0207899 0.00907415)
(-0.0209332 -0.0201812 0.00855378)
(-0.0199751 -0.0158066 0.00694198)
(-0.0190353 -0.0152625 0.00693449)
(-0.0223987 -0.0144524 0.00772319)
(-0.0223196 -0.015574 0.00737117)
(-0.0192808 -0.0140879 0.00712776)
(-0.0214474 -0.0134933 0.00727402)
(-0.0143152 -0.00913491 0.0179879)
(-0.0162426 -0.00922335 0.0156152)
(-0.0138462 -0.00867397 0.0183415)
(-0.0157003 -0.00929029 0.0173919)
(-0.0158686 -0.00972225 0.0169104)
(-0.00648522 -0.0103171 0.0213885)
(-0.00842475 -0.0100931 0.0214171)
(-0.00923571 -0.0088472 0.0210306)
(-0.00877378 -0.00888723 0.0214227)
(-0.00604974 -0.0104263 0.0216143)
(-0.0119303 -0.00784492 0.0200698)
(-0.0113346 -0.00758516 0.0204412)
(-0.0136226 -0.00651471 0.0185521)
(-0.012036 -0.00661391 0.0198176)
(-0.013576 -0.00767201 0.0193471)
(-0.0142027 -0.00687693 0.018138)
(-0.013135 -0.0097128 0.0204152)
(-0.01073 -0.00937699 0.020921)
(-0.0115727 -0.00849441 0.019887)
(-0.0121343 -0.00739893 0.019436)
(-0.00980969 -0.00887841 0.0204171)
(-0.0128705 -0.00807402 0.0192174)
(-0.00999232 -0.00732983 0.0203241)
(-0.00957712 -0.00641832 0.0204917)
(-0.00809716 -0.00850992 0.0207844)
(-0.00919735 -0.0076974 0.0203209)
(-0.00744039 -0.00758462 0.0201324)
(-0.0103091 -0.0113376 0.0197311)
(-0.0108263 -0.0111669 0.0187476)
(-0.00785443 -0.0105581 0.019405)
(-0.00755057 -0.0123637 0.0199023)
(-0.00851865 -0.0124896 0.0197303)
(-0.00928068 -0.0112429 0.0191263)
(-0.0118245 -0.00978247 0.0198187)
(-0.00897968 -0.0107989 0.0204829)
(-0.0103174 -0.0101454 0.0202248)
(-0.0121852 -0.00963604 0.019412)
(-0.0105223 -0.00984649 0.0197578)
(-0.00952666 -0.010613 0.0200146)
(-0.00736193 -0.0106674 0.0212968)
(-0.00684376 -0.0115163 0.0213455)
(-0.00515176 -0.0119448 0.0205998)
(-0.00484734 -0.0123628 0.0211604)
(-0.00635324 -0.0116702 0.0213594)
(-0.00821018 -0.0108605 0.0212031)
(-9.07375e-05 -0.0165163 0.0177791)
(0.0019178 -0.0164389 0.0151087)
(0.000589464 -0.0154038 0.0155231)
(-0.000216878 -0.014822 0.0165504)
(0.00174297 -0.0161405 0.0143122)
(0.000492109 -0.0162653 0.0156178)
(-0.00350572 -0.0138293 0.020107)
(-0.00626609 -0.0122551 0.0206671)
(-0.00440406 -0.0126119 0.0200652)
(-0.00679021 -0.0117838 0.0199215)
(-0.00417155 -0.0134098 0.0197262)
(-0.0025907 -0.01367 0.0193973)
(-0.00502557 -0.0121538 0.0199983)
(-0.00462583 -0.0118568 0.0196404)
(-0.0194575 -0.0160516 0.00844959)
(-0.0190332 -0.0157482 0.00882663)
(-0.0187238 -0.0165142 0.00829812)
(-0.0198078 -0.0150593 0.00930314)
(-0.0197539 -0.0154018 0.00886022)
(-0.0201781 -0.0170371 0.00923144)
(-0.0188195 -0.0114093 0.0110484)
(-0.0196412 -0.0140533 0.0103293)
(-0.01922 -0.0134004 0.0112954)
(-0.0197552 -0.0144578 0.0109158)
(-0.0198274 -0.0122118 0.0122027)
(-0.0197095 -0.0148546 0.0102983)
(-0.0201244 -0.00985252 0.0112718)
(-0.0189514 -0.00868424 0.0121723)
(-0.0189815 -0.00781651 0.0126853)
(-0.0189319 -0.00882241 0.0129976)
(-0.0192311 -0.0090713 0.0111397)
(-0.0193021 -0.00812436 0.0141786)
(-0.0200108 -0.0232386 0.0106228)
(-0.0200828 -0.0193695 0.00877156)
(-0.0187786 -0.0212718 0.0101841)
(-0.0188255 -0.0206119 0.00945802)
(-0.0216948 -0.0217843 0.00999889)
(-0.0192855 -0.0231053 0.0115333)
(-0.0219792 -0.0127404 0.00514153)
(-0.0211298 -0.0154295 0.0051315)
(-0.0197627 -0.0137923 0.0050158)
(-0.0206123 -0.0136217 0.00488429)
(-0.0213716 -0.0143399 0.004821)
(-0.0219472 -0.0187405 0.00834198)
(-0.0204138 -0.017915 0.00656002)
(-0.0209002 -0.0185388 0.0095979)
(-0.0223542 -0.014061 0.00287152)
(-0.0223808 -0.0151138 0.00336096)
(-0.0211708 -0.0164746 0.00486625)
(-0.0216642 -0.0168447 0.00443651)
(-0.0204013 -0.0155534 0.00357356)
(-0.0205405 -0.0170553 0.00533428)
(-0.00276996 -0.0088495 0.00037953)
(-0.00330385 -0.00816081 0.000678346)
(-0.0027113 -0.010333 0.000624865)
(-0.00333447 -0.00944406 0.00110781)
(-0.00308054 -0.00824635 0.000221942)
(-0.00347315 -0.00774067 0.000422534)
(-0.00168656 -0.0123514 0.00278143)
(-0.00203269 -0.0113923 0.00212472)
(-0.00276117 -0.0115019 0.00154949)
(-0.00116695 -0.0106035 0.00151184)
(-0.00224855 -0.0110019 0.00148879)
(-0.000696199 -0.0116798 0.00206106)
(-0.00168436 -0.0116051 0.00259366)
(-0.00177489 -0.0108473 0.0020618)
(-0.00272029 -0.0109133 0.00217704)
(-0.0181774 -0.0224179 0.0128043)
(-0.0201198 -0.0201254 0.009917)
(-0.0195777 -0.0226497 0.0118142)
(-0.0176813 -0.0199812 0.0103466)
(-0.0182072 -0.0218752 0.0115282)
(-0.019386 -0.021366 0.0118411)
(-0.0171975 -0.0224797 0.0153115)
(-0.0181104 -0.0226973 0.0140693)
(-0.0181955 -0.0223341 0.0142639)
(-0.018627 -0.0216601 0.0125313)
(-0.018206 -0.0222982 0.0130245)
(-0.0164397 -0.0208757 0.0135948)
(-0.0178499 -0.0210207 0.0174964)
(-0.0168175 -0.0202003 0.0157859)
(-0.0162643 -0.0189057 0.0174328)
(-0.0169354 -0.0195004 0.0163971)
(-0.0158055 -0.0201395 0.0159894)
(-0.0170305 -0.0187146 0.0170291)
(-0.0215874 -0.0130261 0.0164662)
(-0.0207095 -0.0129644 0.0168947)
(-0.0199197 -0.0103826 0.0153271)
(-0.0207669 -0.0117759 0.0167356)
(-0.0208773 -0.0102631 0.014886)
(-0.02224 -0.0120728 0.0153342)
(-0.0181384 -0.00811257 0.0118378)
(-0.0194279 -0.00832367 0.0115929)
(-0.0170119 -0.00706205 0.0076627)
(-0.0160272 -0.00655081 0.00825722)
(-0.0189809 -0.00854827 0.0101117)
(-0.0191592 -0.00788359 0.00937812)
(-0.00466706 -0.00657153 0.000214722)
(-0.00380662 -0.006924 -4.41178e-05)
(-0.00402362 -0.00644087 5.81074e-05)
(-0.00371872 -0.006813 0.000138345)
(-0.00431417 -0.00657772 0.0002194)
(-0.00367953 -0.0071083 -4.87212e-05)
(-0.00620798 -0.00619797 0.0014221)
(-0.00560978 -0.00627531 0.000670886)
(-0.00560156 -0.00609117 0.00102367)
(-0.00609575 -0.00597196 0.00126316)
(-0.00704764 -0.00629788 0.00210812)
(-0.00823633 -0.00621992 0.00325899)
(-0.00491838 -0.00658019 8.5946e-06)
(-0.00411087 -0.00761431 0.000136635)
(-0.0043931 -0.00730038 -0.000253054)
(-0.00442776 -0.00709692 -5.98677e-05)
(-0.00417499 -0.00829551 -0.000214253)
(-0.0092932 -0.00655323 0.00187245)
(-0.00690345 -0.00592096 0.00138873)
(-0.00861342 -0.0063315 0.00223317)
(-0.0063211 -0.00632912 0.000582324)
(-0.00750724 -0.00568028 0.00121116)
(-0.00711459 -0.00644542 0.000776896)
(-0.00881159 -0.00603944 0.00303246)
(-0.0104644 -0.00696582 0.0042138)
(-0.00992244 -0.00677688 0.0045326)
(-0.0082032 -0.00630255 0.00212169)
(-0.00856799 -0.00635286 0.00327581)
(-0.00381202 -0.00771551 0.000327691)
(-0.00383289 -0.00680425 0.000398919)
(-0.00312286 -0.00785538 0.000120012)
(-0.00371418 -0.00699962 0.000210726)
(-0.00353268 -0.00755022 0.000134187)
(-0.00256185 -0.00863141 0.00086696)
(-0.00186351 -0.00916008 0.000634161)
(-0.00310607 -0.00833085 0.000534214)
(-0.00279303 -0.00929701 0.000516352)
(-0.00287251 -0.00843969 0.000371009)
(-0.0139753 -0.0229483 0.0131035)
(-0.0149813 -0.0232025 0.0137733)
(-0.0140467 -0.0218127 0.0134317)
(-0.014742 -0.0234378 0.0152902)
(-0.0156123 -0.0225011 0.0147838)
(-0.0146072 -0.0234886 0.0143489)
(-0.0141295 -0.0232903 0.0142935)
(-0.0126825 -0.0223303 0.0133708)
(-0.0134762 -0.0221037 0.0146189)
(-0.0140034 -0.0209575 0.0140337)
(-0.0136127 -0.0223155 0.0149954)
(-0.013592 -0.0230321 0.0141894)
(-0.0108067 -0.0134224 0.00744345)
(-0.0125707 -0.0170702 0.0110304)
(-0.0120619 -0.0147119 0.00940541)
(-0.0120779 -0.0167536 0.0104781)
(-0.0163441 -0.0231757 0.0100862)
(-0.0149829 -0.0242475 0.010987)
(-0.0144288 -0.0234274 0.0101806)
(-0.0140839 -0.0239586 0.0113425)
(-0.0146193 -0.0235985 0.0108317)
(-0.015056 -0.0214102 0.00956677)
(-0.014798 -0.0243818 0.0134837)
(-0.0138163 -0.0241047 0.012164)
(-0.0145798 -0.0242004 0.0119)
(-0.0142988 -0.0236562 0.0124479)
(-0.0147763 -0.023504 0.0125033)
(-0.0152517 -0.0228928 0.011528)
(-0.0157285 -0.0224051 0.00857779)
(-0.0148728 -0.021977 0.00835643)
(-0.0157104 -0.0203569 0.00823868)
(-0.015927 -0.019885 0.00846675)
(-0.0154278 -0.0201285 0.00830339)
(-0.0168922 -0.0214063 0.00913494)
(-0.0159411 -0.0162537 0.00954855)
(-0.0160716 -0.0192279 0.0086116)
(-0.016495 -0.0187573 0.00914462)
(-0.0153222 -0.0192476 0.00807564)
(-0.0174374 -0.0165082 0.0086405)
(-0.0191202 -0.0172557 0.0090066)
(-0.0194592 -0.0177664 0.00928505)
(-0.0195591 -0.0158497 0.0100035)
(-0.0169437 -0.0161983 0.00830629)
(-0.0190413 -0.0160982 0.00958597)
(-0.0152933 -0.01508 0.0125838)
(-0.0155886 -0.014965 0.0134929)
(-0.0140544 -0.0146028 0.015047)
(-0.0143783 -0.0149627 0.0141669)
(-0.0147066 -0.0147874 0.0132277)
(-0.0139832 -0.0134195 0.013848)
(-0.00669331 -0.0136847 0.0196714)
(-0.0102665 -0.013007 0.0184064)
(-0.00719797 -0.0129826 0.0182653)
(-0.00686923 -0.0123976 0.0195773)
(-0.0082265 -0.0124492 0.0184036)
(-0.00969406 -0.0131172 0.0194566)
(-0.0119279 -0.0127905 0.0161155)
(-0.0129548 -0.012918 0.0165458)
(-0.0131189 -0.0129603 0.0154461)
(-0.0109836 -0.0129959 0.0167513)
(-0.0105952 -0.0129966 0.0177309)
(-0.0110847 -0.0119855 0.0170541)
(-0.0177749 -0.0136433 0.0128334)
(-0.0180342 -0.0132929 0.0140305)
(-0.0176984 -0.0114718 0.0134616)
(-0.0166288 -0.0126094 0.015847)
(-0.0163625 -0.0127503 0.0143334)
(-0.0165938 -0.0124736 0.0134131)
(-0.0162188 -0.0109505 0.0152361)
(-0.0163838 -0.0115359 0.014627)
(-0.0138577 -0.0099634 0.0179875)
(-0.0137153 -0.011032 0.0176429)
(-0.013383 -0.0108059 0.0188206)
(-0.0145228 -0.0107971 0.0170452)
(-0.0157482 -0.0108077 0.0175231)
(-0.0158861 -0.0111486 0.0163735)
(-0.0145289 -0.0121313 0.017171)
(-0.0146139 -0.0122283 0.0159169)
(-0.0122429 -0.0125121 0.0184008)
(-0.0127311 -0.0111955 0.0175135)
(-0.0133725 -0.0118066 0.0166297)
(-0.0126664 -0.0124229 0.0172934)
(-0.0165 -0.0136951 0.0137653)
(-0.0149471 -0.0133726 0.0140646)
(-0.0150026 -0.0130812 0.0154281)
(-0.0162891 -0.014159 0.0127599)
(-0.0154229 -0.0134898 0.0133768)
(-0.0151067 -0.0123152 0.0142855)
(-0.00588813 -0.00652038 0.00138405)
(-0.00652492 -0.00683043 0.00202652)
(-0.00612644 -0.00699824 0.00160672)
(-0.00522329 -0.00636933 0.000996195)
(-0.00522398 -0.00650822 0.000799557)
(-0.00649959 -0.00679288 0.00215853)
(-0.00459098 -0.00754081 9.33479e-05)
(-0.00426016 -0.00743025 2.44429e-05)
(-0.0042807 -0.00692835 0.000195449)
(-0.00398484 -0.00723324 -3.2764e-06)
(-0.00373846 -0.00759271 -0.000399652)
(-0.00442618 -0.00685765 0.00013827)
(0.00195603 -0.0179811 0.0130812)
(0.00270141 -0.0166415 0.0113221)
(0.00317579 -0.0173226 0.00971689)
(0.0019427 -0.0173092 0.012796)
(0.00270711 -0.0174001 0.0101281)
(0.00294444 -0.0154898 0.00592435)
(0.00315214 -0.0178098 0.00563054)
(0.00382341 -0.0177786 0.00681838)
(0.00198986 -0.0154387 0.00424168)
(0.00209823 -0.0161826 0.00506535)
(0.00330632 -0.0175839 0.00777052)
(0.00328423 -0.0168724 0.00309597)
(0.00247949 -0.0159968 0.00165082)
(-0.00274614 -0.00835096 -0.000727723)
(-0.00344903 -0.00842618 -0.000504985)
(-0.00245679 -0.00976776 -0.00100253)
(-0.00279299 -0.00955928 -0.000584345)
(-0.00354404 -0.00824918 -0.000228285)
(-0.00254561 -0.00788969 -0.00063677)
(0.0022145 -0.015854 0.00330695)
(0.000874393 -0.012697 0.000881068)
(0.00253157 -0.0151627 0.00238282)
(0.00155546 -0.0151534 0.00164427)
(0.00139348 -0.0149509 0.00259316)
(0.000556219 -0.0134495 0.00161831)
(-0.0222405 -0.0142575 0.00370505)
(-0.0227924 -0.01344 0.00398079)
(-0.0202881 -0.015817 0.00479561)
(-0.0233818 -0.015826 0.00489659)
(-0.0228349 -0.0128241 0.00355977)
(-0.00316633 -0.0143928 0.0047394)
(-0.00405686 -0.0134631 0.00227287)
(-0.00352088 -0.0131045 0.00244862)
(-0.00373954 -0.0144865 0.0044685)
(-0.00294507 -0.0138177 0.00358073)
(-0.00458617 -0.0140088 0.00299186)
(-0.00562505 -0.00910481 -0.000528523)
(-0.00663532 -0.00880666 -0.000376914)
(-0.00839085 -0.00834362 -0.0002556)
(-0.00737879 -0.00793069 -0.000251866)
(-0.00800469 -0.00886454 -0.000377519)
(-0.0224959 -0.0174057 0.0170553)
(-0.0211945 -0.0158664 0.0166568)
(-0.0203887 -0.0175927 0.0155106)
(-0.0194096 -0.0168751 0.0154229)
(-0.0202825 -0.0151497 0.0169238)
(-0.0219519 -0.0171533 0.015767)
(-0.0103438 -0.0075297 9.49474e-05)
(-0.010953 -0.00681882 0.00115521)
(-0.00948503 -0.0070436 0.00036945)
(-0.0122917 -0.00630066 0.00190188)
(-0.0145219 -0.00673835 0.00317142)
(-0.0044924 -0.0121278 0.0170641)
(-0.0032908 -0.0127681 0.0172379)
(-0.0045514 -0.0124283 0.0182183)
(-0.00389861 -0.013769 0.0147922)
(-0.00376634 -0.0137702 0.0155259)
(-0.00130998 -0.0131257 0.0145293)
(-0.00203458 -0.0135632 0.0173348)
(-0.00157263 -0.0151482 0.0146628)
(-0.00171247 -0.0144974 0.0134783)
(-0.00229053 -0.013279 0.0162835)
(0.000110479 -0.0150428 0.0121817)
(3.88635e-05 -0.0141138 0.0133296)
(0.000187433 -0.0162499 0.0138294)
(0.000328293 -0.0147573 0.0164852)
(-0.000147917 -0.014252 0.015154)
(-0.000272239 -0.0158772 0.0153208)
(-0.000368865 -0.0138098 0.0110429)
(-0.000538607 -0.0144418 0.00976226)
(-0.000845309 -0.0155678 0.00908632)
(-0.00195545 -0.0138713 0.00920472)
(-0.00116448 -0.013839 0.00780587)
(-0.00111774 -0.0154314 0.0116363)
(-0.00029035 -0.0147705 0.00856177)
(1.5124e-06 -0.0140043 0.00746797)
(-0.000160971 -0.0161918 0.0104236)
(0.000372476 -0.0150471 0.00868874)
(0.00102489 -0.0154663 0.0107598)
(-0.00208277 -0.0143943 0.0061394)
(-0.00252705 -0.0148933 0.00750455)
(-0.00185045 -0.0143489 0.00521193)
(-0.00269513 -0.0142603 0.00606821)
(-0.00251628 -0.0146495 0.00525273)
(-0.00241271 -0.0143588 0.00759511)
(-0.000788346 -0.0136286 0.00542735)
(-0.00207027 -0.0144798 0.00434719)
(-0.00103846 -0.01361 0.00631211)
(-0.00145574 -0.013992 0.00577942)
(-0.0018831 -0.0125045 0.00329408)
(-0.00152716 -0.0123352 0.00440215)
(-0.0178119 0.000620304 0.0110376)
(-0.0172179 0.000971282 0.0118328)
(-0.0193791 0.000178419 0.0102979)
(-0.0192988 0.00195053 0.00989655)
(-0.021284 0.000638323 0.00956475)
(-0.0203168 -0.00313406 0.0106832)
(-0.0221258 -0.00488654 0.00808605)
(-0.0210335 -0.00638483 0.00855333)
(-0.020315 -0.00601523 0.00695094)
(-0.021595 -0.00405354 0.00922848)
(-0.0209313 -0.00808558 0.0108019)
(-0.0210793 -0.00838831 0.0116673)
(-0.0198542 -0.00604142 0.0121307)
(-0.0212754 -0.00899947 0.0107694)
(-0.019013 -0.00685553 0.0130781)
(-0.0206662 -0.00634341 0.0135989)
(-0.022488 -0.0107379 0.00867402)
(-0.0221113 -0.0117164 0.00811795)
(-0.0217961 -0.00918423 0.0086387)
(-0.0214626 -0.0089591 0.00927301)
(-0.0215519 -0.0100728 0.00783818)
(-0.0205453 -0.00984143 0.00843913)
(-0.0207489 -0.00328941 0.00390441)
(-0.0206703 0.00134157 0.00879245)
(-0.0220968 -0.00048458 0.00792042)
(-0.023477 -0.00211078 0.00465206)
(-0.0211195 -0.00164001 0.00496013)
(-0.0227601 -0.00394101 0.00608484)
(-0.00542235 -0.0145461 0.0185512)
(-0.00806072 -0.0135682 0.0179655)
(-0.00853805 -0.0135566 0.0175258)
(-0.00634456 -0.0134596 0.0181823)
(-0.0062528 -0.0143849 0.0178156)
(-0.00729513 -0.0137506 0.0174761)
(-0.0124173 -0.0141887 0.0147694)
(-0.0123363 -0.0145429 0.0164862)
(-0.00970093 -0.0142791 0.0171207)
(-0.0103522 -0.0136564 0.01678)
(-0.00695755 -0.0141261 0.0167844)
(-0.00463312 -0.014816 0.0165475)
(-0.00545467 -0.0139523 0.0164098)
(-0.0168167 -0.0176224 0.00901816)
(-0.0168719 -0.0173895 0.00954159)
(-0.0169882 -0.0189783 0.00916221)
(-0.0192225 -0.0176224 0.0100146)
(-0.0179926 -0.0156338 0.00972659)
(-0.0168192 -0.0157677 0.0092538)
(-0.0181143 -0.0170154 0.0100725)
(-0.0192758 -0.0176258 0.00995223)
(-0.0203476 -0.0213905 0.0104566)
(-0.0181155 -0.017273 0.00934222)
(-0.0176253 -0.0211131 0.0086486)
(-0.0173722 -0.0183695 0.00909004)
(-0.0171463 -0.0183127 0.00880356)
(-0.0169035 -0.0190655 0.00866499)
(-0.0167696 -0.0189969 0.00824787)
(-0.0161209 -0.0183103 0.00851114)
(-0.0179998 -0.0195243 0.00934061)
(-0.0172132 -0.0180437 0.00913991)
(-0.0171537 -0.0185579 0.00885858)
(-0.0097223 -0.013171 0.0171353)
(-0.00797067 -0.01384 0.0170766)
(-0.00279659 -0.0148198 0.0161713)
(-0.00492657 -0.0145658 0.0175914)
(-0.00225191 -0.0151916 0.0167132)
(-0.0031276 -0.0139998 0.0177754)
(-0.00268768 -0.0151069 0.0174362)
(-6.70195e-05 -0.0158898 0.0152672)
(-0.000140187 -0.0162481 0.0161646)
(-0.00147486 -0.0165762 0.0162242)
(-0.0219495 -0.0047216 0.0119096)
(-0.0231987 -0.00655512 0.002503)
(-0.0233479 -0.00506706 0.00374375)
(-0.0230704 -0.00610943 0.0038328)
(-0.0218605 -0.00655819 0.00372723)
(-0.0224363 -0.00697246 0.00344363)
(-0.0218621 -0.00752738 0.00404635)
(-0.0217268 -0.00521822 0.00688802)
(-0.0218243 -0.00400756 0.00722983)
(-0.0207336 -0.002695 0.0063151)
(-0.0215276 -0.00549255 0.00539378)
(-0.0216509 -0.00619881 0.00435124)
(-0.0230316 -0.0049538 0.00503136)
(-0.0250435 -0.00510165 0.00628281)
(-0.0226234 -0.00203647 0.00695141)
(-0.0173921 0.000828456 0.0101871)
(-0.0203439 -0.00907199 0.0101975)
(-0.0202532 -0.0094845 0.00922358)
(-0.0195206 -0.00880706 0.0102335)
(-0.0218255 -0.00765347 0.00780638)
(-0.0224632 -0.00739867 0.00878941)
(-0.021091 -0.00872647 0.00742826)
(-0.0217314 -0.0087948 0.00871416)
(-0.0212091 -0.00622282 0.00982747)
(-0.019909 -0.00551416 0.00996144)
(-0.0211076 -0.00534511 0.00984005)
(-0.0215289 -0.00635907 0.0105772)
(-0.0201563 -0.00787468 0.00917213)
(-0.0114458 -0.00658054 0.0198626)
(-0.0102538 -0.00630582 0.0198088)
(-0.0126834 -0.00601716 0.0193044)
(-0.0153802 -0.00565788 0.0180933)
(-0.0144988 -0.00586474 0.0189591)
(-0.0117403 -0.00587675 0.0196821)
(-0.0133425 -0.00494758 0.017961)
(-0.0131378 -0.0044167 0.0184832)
(-0.0127965 -0.00531503 0.0186366)
(-0.0122437 -0.00507012 0.0187917)
(-0.014767 -0.00432982 0.0174048)
(-0.0146307 -0.00403427 0.01805)
(-0.00195285 -0.0153361 0.00693284)
(-0.00122256 -0.0150389 0.00813111)
(-0.00242273 -0.0147 0.00449766)
(-0.00302988 -0.0130253 0.00408784)
(-0.000163157 -0.0163246 0.0112988)
(-0.00059231 -0.0149685 0.0134132)
(-0.0157877 -0.0041613 0.0163738)
(-0.0152337 -0.00376527 0.0170781)
(-0.0130093 -0.00483673 0.0187845)
(-0.0105152 -0.00460154 0.0189652)
(-0.0127087 -0.00323072 0.0179075)
(-0.0034904 -0.0119257 0.0189105)
(-0.00476681 -0.0110064 0.0194468)
(-0.00265068 -0.012412 0.0175151)
(-0.00495551 -0.0112259 0.0191547)
(-0.00422622 -0.01037 0.01756)
(-0.00970353 -0.0079453 -0.000263983)
(-0.0081062 -0.00738586 -2.34388e-05)
(-0.00584317 -0.0102507 -0.000130012)
(-0.00474435 -0.0106305 0.000155796)
(-0.00585722 -0.0116082 0.000532778)
(-0.00418334 -0.0121436 0.000938651)
(-0.00461142 -0.0126811 0.00102518)
(-0.00236518 -0.0132821 0.00347204)
(-0.00288582 -0.0142372 0.00397943)
(-0.00222917 -0.0146354 0.00857008)
(-0.0021469 -0.0141637 0.00955811)
(-0.00163949 -0.0152109 0.0104409)
(-0.00221645 -0.0154955 0.00960605)
(-0.00203312 -0.0138787 0.0107219)
(-0.00209293 -0.0133718 0.0141257)
(-0.00180741 -0.0157695 0.0127307)
(-0.00221826 -0.0129513 0.0120525)
(-0.0033606 -0.0141277 0.0108843)
(-0.00286225 -0.0148243 0.0131429)
(-0.00285137 -0.0148213 0.0060616)
(-0.00292475 -0.0152625 0.00856474)
(-0.00302066 -0.0147703 0.00725524)
(-0.00369408 -0.0148504 0.00576055)
(-0.00345497 -0.0161424 0.00751767)
(-0.00393755 -0.016086 0.00832919)
(-0.0228554 -0.0104539 0.00366534)
(-0.0222641 -0.011312 0.00363695)
(-0.0209857 -0.0184593 0.0144257)
(-0.023254 -0.00869593 0.00232538)
(-0.0220248 -0.00819532 0.00267717)
(-0.0235419 -0.00936259 0.00248358)
(-0.021355 -0.00936371 0.00292438)
(-0.0220064 -0.0108477 0.00228395)
(-0.0216924 -0.0107238 0.00268676)
(-0.0215254 -0.0115922 0.00197205)
(-0.0218211 -0.01294 0.00295024)
(-0.0187708 -0.00157232 0.00755229)
(-0.0187125 -0.00092297 0.0074056)
(-0.0203752 -0.00272734 0.00915837)
(-0.0182026 -0.0010226 0.0099457)
(-0.0177509 -0.00109205 0.0128941)
(-0.0201454 -0.00158366 0.0126924)
(-0.0195395 -0.00248426 0.0103259)
(-0.018419 -0.0005754 0.0123161)
(-0.0183453 -0.000420908 0.0127137)
(-0.0177769 -0.00100131 0.0133726)
(-0.00471636 -0.013259 0.00190287)
(-0.0164819 -0.0219633 0.0115765)
(-0.000405799 -0.0120121 0.00119788)
(0.00155737 -0.0146579 0.00095089)
(0.000462947 -0.013815 0.000300343)
(0.00104679 -0.0155226 0.00310683)
(0.00346883 -0.0164454 0.00883272)
(0.00107803 -0.0175212 0.0155572)
(-0.00359599 -0.00836225 3.26424e-06)
(-0.00345161 -0.00807372 9.34088e-05)
(-0.00265109 -0.00794252 -0.000279556)
(-0.00194648 -0.00945378 -0.000564091)
(-0.00128913 -0.0107379 -0.000646166)
(-0.00373614 -0.00744892 0.000198332)
(-0.00343764 -0.00763382 -0.000423934)
(-0.0036671 -0.0074175 3.47048e-05)
(-0.00644995 -0.00720741 0.00193177)
(-0.00314069 -0.00737138 -5.50606e-09)
(-0.00329074 -0.00707688 0.000201665)
(-0.00358914 -0.00728316 1.10509e-05)
(-0.00350002 -0.00683633 0.00010992)
(-0.00361029 -0.00663302 9.78882e-05)
(-0.00398937 -0.00701443 0.000170451)
(-0.00434041 -0.0063474 0.000419735)
(-0.00474561 -0.0062286 0.000667678)
(-0.00526333 -0.00772455 0.000143263)
(-0.00546143 -0.00751744 0.000321363)
(-0.00539154 -0.00760515 0.000384134)
(-0.00540381 -0.00704618 0.000593532)
(-0.00649779 -0.00796074 0.000990915)
(-0.00629272 -0.00796001 0.000797585)
(-0.00645789 -0.00720841 0.00198591)
(-0.00768264 -0.00825738 0.00300252)
(-0.00820296 -0.00885982 0.00319278)
(-0.00673802 -0.00774718 0.00155687)
(-0.00672548 -0.00777544 0.00190087)
(-0.00754377 -0.0082693 0.00257152)
(-0.00785296 -0.00879759 0.00235068)
(-0.00808865 -0.00888132 0.00328867)
(-0.00750193 -0.00787163 0.00282656)
(-0.00796588 -0.00792529 0.00323471)
(-0.00826309 -0.00779488 0.0042829)
(-0.00778196 -0.00754709 0.00299548)
(-0.00833261 -0.00793598 0.00411791)
(-0.00791879 -0.00824493 0.00390696)
(-0.00794619 -0.00825466 0.00371097)
(-0.0101749 -0.00958543 0.00563222)
(-0.00949734 -0.00939184 0.00517617)
(-0.00968988 -0.00996473 0.00651544)
(-0.00956881 -0.00986023 0.00665143)
(-0.00976545 -0.010147 0.00540085)
(-0.00933916 -0.00988847 0.004473)
(-0.00978856 -0.0107531 0.00595442)
(-0.00906536 -0.0101763 0.00399241)
(-0.00938695 -0.0103078 0.00436417)
(-0.00941276 -0.0103379 0.00557933)
(-0.0160846 -0.0155704 0.0125604)
(-0.0151748 -0.01396 0.0126479)
(-0.013345 -0.0120019 0.0157613)
(-0.0122208 -0.010816 0.0183788)
(-0.0163146 -0.0129278 0.0126815)
(-0.0148234 -0.0112969 0.0163623)
(-0.0150015 -0.0119452 0.0148742)
(0.00289064 -0.018374 0.012499)
(0.00281285 -0.0173507 0.0096892)
(0.00293059 -0.0178434 0.0111654)
(0.00351234 -0.0167752 0.00999655)
(0.00195336 -0.0182045 0.0151248)
(0.0019231 -0.0150849 0.0136652)
(0.00231868 -0.0160448 0.013051)
(0.00143614 -0.0160873 0.0132426)
(0.0028733 -0.0179169 0.013191)
(-0.00280347 -0.0145546 0.0183589)
(-0.00843062 -0.0122859 0.0178799)
(-0.0107426 -0.0118344 0.017734)
(-0.00551071 -0.0131097 0.0182929)