/*--------------------------------*- C++ -*----------------------------------*\
| =========                 |                                                 |
| \\      /  F ield         | OpenFOAM: The Open Source CFD Toolbox           |
|  \\    /   O peration     | Version:  v1612+                                |
|   \\  /    A nd           | Web:      www.OpenFOAM.com                      |
|    \\/     M anipulation  |                                                 |
\*---------------------------------------------------------------------------*/
FoamFile
{
    version     2.0;
    format      ascii;
    class       volScalarField;
    location    "100";
    object      p;
}
// * * * * * * * * * * * * * * * * * * * * * * * * * * * * * * * * * * * * * //

dimensions      [0 2 -2 0 0 0 0];

internalField   nonuniform List<scalar> 
17027
(
1.32706
1.19603
1.17589
1.22536
1.18091
1.15946
1.20189
1.17046
1.20692
1.2411
1.25316
1.26975
1.14205
1.16742
1.15423
1.23626
1.15683
1.23152
1.15783
1.14484
1.13766
1.15742
1.14392
1.15468
1.13388
1.15409
1.18716
1.16883
1.21854
1.19385
1.16744
1.18139
1.199
1.16162
1.18331
1.19053
1.21348
1.19068
1.19594
1.67821
1.67858
1.67811
1.67394
1.67155
1.66536
1.66703
1.66909
1.66914
1.66121
1.66492
1.67528
1.67105
1.66809
1.67037
1.66368
1.67226
1.66902
1.4164
1.37476
1.37016
1.37555
1.43456
1.40397
1.41316
1.45382
1.39078
1.38838
1.43293
1.4159
1.40716
1.32304
1.25046
1.33104
1.2996
1.31644
1.31545
1.27304
1.30344
1.35095
1.32741
1.2225
1.27422
1.35616
1.33366
1.25729
1.29689
1.72621
1.65207
1.7076
1.7412
1.6633
1.68704
1.71266
1.66039
1.63711
1.75833
1.73885
1.7226
1.54701
1.55771
1.51117
1.53495
1.54123
1.52002
1.57485
1.57451
1.56428
1.57455
1.56281
1.49034
1.50869
1.59082
1.58946
1.57835
1.58702
1.5765
1.58934
1.58435
1.67371
1.6557
1.66368
1.63571
1.65333
1.6726
1.65409
1.67812
1.5809
1.56769
1.67004
1.6523
1.59753
1.60259
1.61678
1.63562
1.64988
1.66189
1.63779
1.61303
1.63646
1.51181
1.48973
1.43779
1.44852
1.50247
1.49962
1.43892
1.44477
1.41595
1.43361
1.47037
1.46335
1.4923
1.45754
1.42824
1.38088
1.3851
1.33738
1.36339
1.44156
1.44794
1.407
1.37928
1.36595
1.4315
1.39579
1.45293
1.50831
1.42032
1.48973
1.47289
1.62235
1.62655
1.63771
1.64024
1.61999
1.63713
1.63536
1.62982
1.6129
1.60871
1.62772
1.61931
1.50505
1.5123
1.48829
1.46163
1.41831
1.41767
1.44351
1.55408
1.569
1.51182
1.4994
1.44538
1.57365
1.47595
1.46537
1.60551
1.58244
1.46391
1.53234
1.57124
1.56208
1.52109
1.37995
1.39396
1.38125
1.38044
1.37656
1.37057
1.34514
1.36674
1.27166
1.29939
1.27009
1.26185
1.30885
1.27683
1.32277
1.32791
1.26499
1.28798
1.3331
1.34178
1.91866
1.93074
1.89278
1.9047
1.90209
1.90639
1.92287
1.87792
1.88018
1.8913
1.8775
1.84042
1.86575
1.79058
1.81768
1.75735
1.72258
1.74705
1.7845
1.83739
1.75931
1.79043
1.71139
1.80526
1.78424
1.72417
1.80706
1.07789
1.13291
1.10714
1.14157
1.13993
1.13157
1.1222
1.13733
1.07937
1.11396
1.12058
1.10972
1.08931
1.09015
1.13069
1.10083
1.08625
1.13037
1.75956
1.8069
1.8113
1.80445
1.72342
1.69051
1.7747
1.8162
1.7444
1.77933
1.78598
1.73707
1.73983
1.77711
1.68806
1.68949
1.73527
1.31729
1.32004
1.42031
1.40436
1.36138
1.33017
1.3476
1.33732
1.3681
1.33166
1.46109
1.44606
1.40936
1.42018
1.38836
1.42344
1.47026
1.48736
1.42436
1.49024
1.55316
1.55811
1.60366
1.59602
1.61762
1.61521
1.55433
1.59755
1.60646
1.61262
1.56147
1.58314
1.58534
1.61145
1.5804
1.60429
1.50394
1.5095
1.46626
1.49784
1.46797
1.49647
1.45721
1.40854
1.37947
1.36693
1.37219
1.45618
1.39053
1.36757
1.36994
1.3224
1.43644
1.375
1.40746
1.31967
1.33523
1.40975
1.45968
1.48944
1.50748
1.53526
1.54101
1.3826
1.44659
1.47759
1.50735
1.51678
1.52065
1.48293
1.43378
1.32813
1.37438
1.3486
1.42542
1.5043
1.49288
1.4942
1.51017
1.47822
1.47125
1.51832
1.52928
1.49821
1.48486
1.5167
1.52367
1.45501
1.46079
1.46747
1.49041
1.49398
1.30287
1.27243
1.34666
1.28871
1.31301
1.27262
1.32464
1.3289
1.32202
1.29322
1.47557
1.49593
1.45929
1.45351
1.47439
1.49294
1.51282
1.51821
1.43467
1.4866
1.46458
1.50466
1.47963
1.31794
1.30786
1.30963
1.26412
1.43613
1.41645
1.39833
1.42717
1.33463
1.28677
1.27678
1.34603
1.43204
1.43191
1.51009
1.53181
1.50062
1.51513
1.48832
1.51265
1.46736
1.44104
1.44217
1.49045
1.53625
1.48875
1.52381
1.46477
1.48242
1.48539
1.46653
1.48993
1.63101
1.66806
1.65224
1.63851
1.65851
1.6197
1.63439
1.6503
1.63135
1.63507
1.6339
1.60909
1.61783
1.65614
1.61927
1.62741
1.61032
1.557
1.58682
1.58102
1.53452
1.5704
1.55787
1.6308
1.63486
1.62064
1.50965
1.51124
1.54537
1.59389
1.53941
1.59375
1.66112
1.6444
1.69863
1.6875
1.6928
1.72304
1.66664
1.71138
1.67033
1.67974
1.64958
1.72149
1.70727
1.73236
1.67428
1.69926
1.69959
1.74063
1.72266
1.69912
1.62963
1.60317
1.61902
1.59567
1.60983
1.60161
1.55347
1.5731
1.57583
1.58096
1.61344
1.61195
1.64154
1.62028
1.60878
1.63023
1.55181
1.68172
1.67619
1.6757
1.66348
1.63548
1.66111
1.67893
1.63716
1.67313
1.64708
1.64789
1.64285
1.63523
1.66183
1.81942
1.82655
1.81779
1.83534
1.87787
1.85145
1.8963
1.90556
1.859
1.87961
1.90813
1.91701
1.90447
1.91136
1.87455
1.85511
1.91616
1.91542
1.60421
1.61511
1.6264
1.65563
1.61608
1.57504
1.64201
1.60379
1.61238
1.64336
1.66107
1.65893
1.65816
1.6014
1.66048
1.6273
1.62249
1.46681
1.39857
1.43298
1.40312
1.37936
1.42101
1.47131
1.36759
1.41501
1.36371
1.40916
1.30456
1.31452
1.41525
1.36979
1.32049
1.31004
1.41847
1.46858
1.48636
1.45219
1.39748
1.22622
1.13908
1.18047
1.23225
1.2391
1.21141
1.14281
1.1739
1.19919
1.12919
1.14146
1.20895
1.24419
1.13206
1.20413
1.17315
1.18769
1.15149
1.13728
1.584
1.58477
1.61084
1.62124
1.62875
1.61299
1.57508
1.61951
1.59272
1.60302
1.61219
1.62242
1.59536
1.59828
1.62235
1.61366
1.51067
1.52491
1.52924
1.49021
1.48089
1.54251
1.56487
1.55594
1.50076
1.54697
1.48649
1.5202
1.57126
1.55953
1.54258
1.55807
1.56624
1.56607
1.80881
1.75339
1.81643
1.79586
1.74875
1.79839
1.71031
1.73838
1.83253
1.75265
1.79117
1.78076
1.75901
1.71945
1.70412
1.74724
1.84849
1.8528
1.84076
1.84407
1.79508
1.81838
1.93039
1.93519
1.92383
1.94863
1.94074
1.93934
1.97092
1.96297
1.99314
1.93785
1.99138
1.95671
1.97396
1.97124
1.99886
1.95194
2.02082
1.97256
1.99977
1.57199
1.58715
1.63694
1.61179
1.66845
1.59592
1.6003
1.59137
1.61504
1.66008
1.61862
1.64303
1.69619
1.68709
1.6481
1.54999
1.5231
1.53068
1.50197
1.51589
1.49045
1.5503
1.54273
1.55477
1.54975
1.57414
1.56111
1.5857
1.56426
1.5307
1.49123
1.56161
1.5998
1.59022
1.56873
1.58536
1.60561
1.59859
1.52039
1.54565
1.48434
1.51235
1.5445
1.53393
1.56045
1.53081
1.49539
1.47819
1.55164
1.57096
1.56065
1.52427
1.55508
1.57463
1.56895
1.53706
1.5597
1.56492
1.58449
1.54198
1.51553
1.54135
1.56964
1.56936
1.52296
1.52637
1.5048
1.47732
1.48366
1.49329
1.51742
1.53347
1.57863
1.58575
1.43067
1.41306
1.51829
1.55851
1.57622
1.55369
1.49955
1.45364
1.39223
1.38104
1.36865
1.36168
1.36756
1.4012
1.42073
1.39857
1.48543
1.47795
1.4937
1.48596
1.50783
1.52262
1.57228
1.55858
1.47604
1.47349
1.47276
1.53234
1.56171
1.56424
1.4956
1.51195
1.51019
1.53433
1.52216
1.53598
1.96807
1.9886
1.93562
1.9076
1.91395
1.93226
1.89474
1.89555
1.91629
1.89128
1.95869
1.96434
1.9077
1.97525
1.96547
1.92474
1.97744
1.9274
1.9614
1.71104
1.69172
1.82886
1.82973
1.82526
1.81116
1.78912
1.79131
1.73479
1.73406
1.73008
1.81298
1.80748
1.77579
1.78466
1.7963
1.77437
1.77902
1.61527
1.63113
1.67582
1.66674
1.57966
1.61749
1.59833
1.54784
1.57999
1.53403
1.51189
1.57418
1.66508
1.66915
1.62867
1.60403
1.62014
1.54675
1.51266
1.59723
1.53793
1.5186
1.54768
1.55074
1.56089
1.56169
1.54809
1.55827
1.57082
1.5696
1.59981
1.58117
1.58155
1.59794
1.56783
1.55353
1.58595
1.10551
1.09287
1.1103
1.11337
1.10922
1.11566
1.11251
1.11074
1.11699
1.12063
1.06728
1.0776
1.08552
1.09326
1.47521
1.47562
1.10787
1.10757
1.11447
1.10731
1.07108
1.0779
1.08245
1.09776
1.09962
1.10594
1.36054
1.39077
1.37935
1.37063
1.10222
1.09392
1.09489
1.41329
1.43196
1.43422
1.0744
1.06318
1.07284
1.17003
1.19738
1.15575
1.571
1.56624
1.10273
1.06029
1.08568
1.50323
1.51784
1.48287
1.09845
1.09971
1.10826
1.10991
1.11301
1.32222
1.28708
1.27297
1.10922
1.094
1.6371
1.652
1.2058
1.18373
1.19452
1.17828
1.10738
1.16761
1.17344
1.16601
1.14982
1.13535
1.16781
1.62764
1.60802
1.27893
1.30279
1.24979
1.29229
1.28317
1.71183
1.71914
1.74024
1.69313
1.13187
1.13312
1.12544
1.32954
1.44323
1.35124
1.38874
1.17118
1.16405
1.14379
1.32764
1.26924
1.29865
1.27389
1.86193
1.86971
1.85261
1.83462
1.74609
1.73168
1.70666
1.73565
1.49332
1.48547
1.44309
1.47892
1.21052
1.19129
1.19014
1.16012
1.52879
1.56384
1.53537
1.49595
1.50985
1.81542
1.79527
1.61143
1.5959
1.45554
1.48275
1.17621
1.91665
1.90363
1.93636
1.96136
1.97124
1.41073
1.39078
1.90103
1.85368
1.88751
1.87333
1.21666
1.21661
1.72424
1.72677
1.61169
1.59307
1.60098
1.58424
1.68601
1.69142
1.68885
1.35667
1.37685
1.63978
1.64021
1.53097
1.55058
1.67355
1.67494
1.66751
1.66607
1.66605
1.64638
1.64131
1.68023
1.67599
1.67734
1.67179
1.67211
1.66883
1.93771
1.95734
1.93262
1.91797
1.90242
1.9093
1.38215
1.42101
1.40099
1.33861
1.34608
1.80879
1.78614
1.81669
1.84403
1.6543
1.60968
1.68069
1.64786
1.7167
1.82481
1.79475
1.77033
1.4059
1.41575
1.44266
1.39783
1.50163
1.53727
1.47873
1.846
1.81889
1.7787
1.73564
1.82643
1.73845
1.71213
1.65969
1.7647
1.70592
1.80761
1.79037
1.62427
1.65469
1.65242
1.69522
1.6888
1.58353
1.62492
1.64616
1.65495
1.83731
1.8354
1.81285
1.85578
1.83824
1.86009
1.82589
1.90838
1.89563
1.82195
1.91712
1.88987
1.86374
1.83388
1.73108
1.76031
1.7796
1.74869
1.77177
1.74847
1.76379
1.7596
1.77421
1.78421
1.79913
1.79961
1.72637
1.7102
1.6668
1.75794
1.76765
1.74494
1.68213
1.65684
1.80488
1.82826
1.781
1.81814
1.78574
1.76983
1.74045
1.75763
1.75028
1.32723
1.35555
1.32732
1.35396
1.21092
1.25395
1.21715
1.20268
1.64276
1.60579
1.57522
1.48341
1.4153
1.40776
1.39816
1.41749
1.38062
1.52133
1.51893
1.36955
1.32569
1.4063
1.41405
1.33177
1.33166
1.33762
1.3663
1.37251
1.38367
1.31041
1.31081
1.32094
2.00393
1.99811
1.99888
1.98006
1.9344
1.91361
1.88812
1.96686
1.97528
1.85758
1.86799
1.80192
1.77877
1.8361
1.84997
1.8558
1.81755
1.87989
1.86605
1.87389
1.84889
1.82523
1.8375
1.89516
1.87201
1.80598
1.77719
1.8646
1.82306
1.86933
1.86929
1.87515
1.91873
1.91513
1.91951
1.90323
1.92221
1.90797
1.89534
1.90754
1.8695
1.98669
1.97142
1.93956
1.96811
1.94989
1.66784
1.6677
1.6717
1.66395
1.66884
1.6602
1.66635
1.66644
1.66253
1.67485
1.67704
1.67321
1.66809
1.67066
1.67295
1.67055
1.6691
1.67136
1.67224
1.67026
1.67138
1.67306
1.67118
1.67333
1.66814
1.66354
1.66666
1.66745
1.66285
1.66669
1.66828
1.66869
1.66325
1.66365
1.67053
1.65566
1.64536
1.6523
1.59512
1.66957
1.65619
1.6573
1.66795
1.66128
1.6563
1.65948
1.66596
1.66341
1.66348
1.46139
1.45229
1.42447
1.41672
1.49352
1.48072
1.68946
1.68596
1.69182
1.67343
1.67327
1.67552
1.67938
1.67784
1.65974
1.66548
1.67657
1.67444
1.67589
1.66193
1.66414
1.66447
1.65604
1.65239
1.66679
1.65955
1.66023
1.66571
1.65938
1.65566
1.65585
1.64986
1.65705
1.65763
1.67511
1.6798
1.67397
1.67849
1.63877
1.62691
1.65148
1.65728
1.65195
1.67375
1.67407
1.66679
1.67321
1.66444
1.66511
1.66688
1.66969
1.66907
1.65864
1.66817
1.66623
1.66844
1.67393
1.67326
1.68123
1.67539
1.6694
1.67604
1.67034
1.67324
1.66918
1.67251
1.66913
1.67683
1.66638
1.69181
1.6819
1.68406
1.67696
1.66694
1.66413
1.66686
1.67252
1.66611
1.66386
1.67247
1.4695
1.47492
1.44219
1.44406
1.48587
1.49886
1.58713
1.58743
1.57822
1.57135
1.60747
1.60916
1.62807
1.47719
1.45819
1.48884
1.45208
1.44028
1.49225
1.47214
1.50259
1.51783
1.58759
1.60098
1.62373
1.61123
1.59973
1.59224
1.62877
1.61682
1.60287
1.58431
1.57152
1.62227
1.62287
1.61295
1.67254
1.66873
1.67798
1.67336
1.67166
1.44816
1.46399
1.43377
1.46742
1.45811
1.58046
1.55247
1.51789
1.48427
1.48046
1.51096
1.49274
1.29485
1.34857
1.27422
1.24991
1.2558
1.27247
1.83823
1.81458
1.78848
1.79907
1.68384
1.68307
1.67184
1.78127
1.77208
1.75443
1.67565
1.6795
1.68905
1.70436
1.6787
1.66933
1.6771
1.68881
1.68384
1.72958
1.74089
1.75082
1.70783
1.69108
1.73869
1.62342
1.61665
1.6287
1.62463
1.6033
1.60267
1.59902
1.59965
1.58001
1.58758
1.55469
1.57802
1.54701
1.54255
1.56754
1.56969
1.68126
1.69858
1.6905
1.69656
1.6988
1.63944
1.63382
1.65405
1.78862
1.79369
1.69319
1.69506
1.71005
1.72459
1.70825
1.70115
1.71348
1.69742
1.72752
1.71568
1.71491
1.7654
1.72032
1.72594
1.76488
1.76658
1.75584
1.74996
1.7366
1.72476
1.72396
1.69771
1.6902
1.74417
1.93411
1.90079
1.92459
1.8899
1.96933
1.96561
1.89575
1.86194
1.83677
1.90959
1.89011
1.8749
1.30826
1.91814
1.90628
2.01754
2.01184
1.94507
1.92535
1.95096
1.94435
1.77542
1.80187
1.99053
1.99751
1.97402
1.97482
1.94651
1.8627
1.83732
1.85734
1.84273
1.85369
1.82345
1.88704
1.46759
1.50428
1.5294
1.54841
1.54223
1.53257
1.59873
1.61864
1.60834
1.59005
1.60194
1.56747
1.619
1.5315
1.50306
1.51005
1.49471
1.53565
1.55263
1.5653
1.57669
1.60984
1.61471
1.59779
1.59139
1.62455
1.652
1.64409
1.67365
1.623
1.64142
1.63991
1.61826
1.6747
1.68397
1.63366
1.64243
1.63165
1.61213
1.64158
1.61622
1.62048
1.63639
1.63568
1.60422
1.66829
1.64131
1.68334
1.77121
1.73884
1.77576
1.74922
1.68167
1.64711
1.72382
1.71642
1.89692
1.88158
1.87327
1.91965
1.89827
1.18438
1.23344
1.25291
1.21652
1.19553
1.22777
1.28794
1.26625
1.26181
1.28252
1.29596
1.29397
1.26554
1.3004
1.36053
1.38543
1.37194
1.33707
1.39569
1.52606
1.48132
1.46391
1.49917
1.53455
1.44504
1.52395
1.54268
1.35293
1.38961
1.3848
1.41958
1.43901
1.41087
1.4351
1.47288
1.47819
1.44583
1.46689
1.5196
1.54323
1.5282
1.58595
1.59668
1.57808
1.60102
1.5244
1.53773
1.52525
1.53959
1.57969
1.5019
1.5164
1.53836
1.50948
1.50279
1.55772
1.55715
1.52182
1.49716
1.49997
1.48728
1.47396
1.44936
1.46486
1.45855
1.40138
1.4151
1.73825
1.75222
1.77941
1.57838
1.60054
1.59
1.6455
1.68116
1.77198
1.79315
1.80121
1.8065
1.80577
1.83412
1.82336
1.8632
1.85894
1.82174
1.82211
1.80534
1.80428
1.82004
1.80126
1.81819
1.82862
1.82025
1.81288
1.82303
1.79111
1.8923
1.88699
1.88186
1.84518
1.84197
1.85957
1.87845
1.84921
1.87916
1.8566
1.21061
1.19519
1.19305
1.25684
1.2326
1.16889
1.2439
1.26952
1.3583
1.38027
1.41459
1.43687
1.36263
1.3907
1.38526
1.31634
1.34954
1.34188
1.375
1.33652
1.1081
1.11107
1.15483
1.23963
1.2337
1.20524
1.27065
1.32374
1.45037
1.56183
1.5177
1.50276
1.60453
1.64046
1.29456
1.36374
1.31414
1.15439
1.18773
1.23327
1.16238
1.1953
1.15537
1.64145
1.66848
1.68254
1.66136
1.73912
1.74418
1.68384
1.70783
1.67685
1.76185
1.72958
1.62677
1.65856
1.66823
1.67353
1.63923
1.65279
1.66537
1.61238
1.62747
1.65447
1.6512
1.64308
1.66777
1.66918
1.19763
1.21149
1.22774
1.25807
1.15681
1.17305
1.20861
1.22269
1.26615
1.22524
1.24404
1.26333
1.16338
1.20853
1.22011
1.25425
1.3921
1.42902
1.47171
1.37273
1.3502
1.52017
1.50185
1.37762
1.41871
1.43484
1.46708
1.51023
1.48337
1.47988
1.50292
1.44594
1.54277
1.556
1.58471
1.57074
1.55183
1.5788
1.58313
1.53095
1.48264
1.54709
1.5329
1.47073
1.50283
1.65467
1.66073
1.68862
1.64011
1.62347
1.08669
1.11209
1.13281
1.10965
1.15851
1.11814
1.14922
1.17308
1.10529
1.11213
1.11104
1.10605
1.1222
1.129
1.15012
1.16029
1.17474
1.12758
1.12523
1.11821
1.13383
1.16373
1.1847
1.17273
1.11627
1.14737
1.11222
1.17699
1.15344
1.15101
1.1061
1.13278
1.10331
1.13541
1.11362
1.14486
1.12619
1.12554
1.27497
1.2467
1.28315
1.0912
1.11818
1.09426
1.37255
1.34101
1.23203
1.28004
1.29095
1.25571
1.54124
1.55755
1.6908
1.67089
1.68518
1.65238
1.63167
1.61602
1.59931
1.62395
1.58757
1.626
1.62987
1.63139
1.61604
1.61519
1.60095
1.70251
1.67852
1.69632
1.632
1.66798
1.68959
1.65326
1.09285
1.08372
1.10198
1.10837
1.13111
1.12472
1.13118
1.12475
1.13557
1.11262
1.11904
1.15066
1.14784
1.13334
1.08718
1.1358
1.08748
1.18826
1.27332
1.25868
1.22544
1.3071
1.34823
1.20231
1.19755
1.19481
1.37323
1.3925
1.35227
1.29853
1.25718
1.27353
1.23296
1.21616
1.28844
1.31021
1.46521
1.45009
1.47552
1.41196
1.37835
1.40552
1.3442
1.36279
1.44312
1.46576
1.38419
1.36039
1.11516
1.09987
1.09823
1.09891
1.11568
1.14131
1.14509
1.11781
1.1144
1.10701
1.10959
1.38183
1.39541
1.37273
1.41162
1.44673
1.46056
1.49185
1.4525
1.50952
1.4915
1.46982
1.47655
1.43861
1.41596
1.37903
1.35898
1.42398
1.55582
1.62012
1.61268
1.57411
1.6122
1.57295
1.5494
1.5153
1.4985
1.57769
1.60417
1.60095
1.60587
1.60904
1.58441
1.52341
1.55113
1.6127
1.60387
1.58976
1.5658
1.57602
1.54109
1.59679
1.59702
1.59619
1.62105
1.61247
1.07609
1.09454
1.08308
1.07574
1.49213
1.51108
1.51358
1.53233
1.53043
1.54554
1.53927
1.52408
1.54129
1.54293
1.62156
1.60595
1.61538
1.52056
1.53235
1.54928
1.53989
1.52851
1.5494
1.56967
1.56827
1.5381
1.09427
1.09819
1.11801
1.12458
1.12866
1.11664
1.19286
1.15983
1.17201
1.16762
1.13124
1.14084
1.10659
1.25298
1.26958
1.21455
1.24098
1.31163
1.15339
1.14953
1.19013
1.20066
1.12003
1.10696
1.1074
1.16289
1.18336
1.08235
1.07896
1.06929
1.06954
1.07987
1.08481
1.0677
1.08243
1.43493
1.26363
1.24292
1.28104
1.38671
1.44888
1.42963
1.40765
1.35962
1.3816
1.34882
1.35549
1.38283
1.38829
1.40088
1.39934
1.38113
1.39144
1.3918
1.41891
1.40214
1.37939
1.42282
1.42039
1.2937
1.3003
1.25076
1.30387
1.3662
1.39074
1.37701
1.36189
1.34572
1.30703
1.45621
1.3789
1.44619
1.47803
1.09506
1.10597
1.11289
1.10434
1.11115
1.09044
1.09878
1.09379
1.09
1.08765
1.10435
1.10461
1.1237
1.10752
1.1089
1.10977
1.09948
1.09893
1.10271
1.10887
1.45175
1.45665
1.44124
1.46593
1.10323
1.11416
1.11213
1.10266
1.10993
1.10522
1.11547
1.45941
1.49618
1.4538
1.46585
1.48895
1.49041
1.47116
1.09955
1.09714
1.10732
1.11214
1.11153
1.10967
1.10665
1.1029
1.09828
1.08423
1.08644
1.0734
1.07894
1.08157
1.11013
1.11491
1.11929
1.11275
1.11618
1.1111
1.13421
1.11837
1.08625
1.07695
1.09513
1.09777
1.09483
1.44279
1.50388
1.48344
1.48402
1.4594
1.50265
1.49115
1.48383
1.47484
1.45433
1.46349
1.48833
1.48029
1.45016
1.46145
1.45746
1.46292
1.47444
1.52675
1.5228
1.53746
1.54119
1.49788
1.48276
1.39778
1.40062
1.42153
1.41601
1.40919
1.42187
1.42825
1.44467
1.46045
1.44843
1.43217
1.41301
1.45584
1.43662
1.41686
1.42734
1.36405
1.37924
1.37375
1.25702
1.24944
1.31876
1.33167
1.27849
1.27664
1.29419
1.30612
1.54563
1.48483
1.51153
1.51098
1.54552
1.52092
1.56743
1.54387
1.4638
1.44197
1.48968
1.46936
1.14808
1.12318
1.18534
1.20312
1.22142
1.18812
1.08944
1.09891
1.09421
1.10569
1.09461
1.10567
1.11427
1.10484
1.0856
1.08894
1.09025
1.094
1.10142
1.54177
1.58644
1.56577
1.58944
1.58634
1.58408
1.56314
1.6101
1.60281
1.62261
1.62302
1.58292
1.58775
1.58626
1.56824
1.59814
1.60152
1.55319
1.60749
1.59353
1.57011
1.5558
1.56173
1.52572
1.55797
1.51355
1.52332
1.5302
1.51319
1.42124
1.4311
1.46923
1.4718
1.44238
1.43028
1.48725
1.48182
1.47828
1.52972
1.52087
1.48702
1.5292
1.50612
1.52273
1.51175
1.51192
1.53075
1.48965
1.46444
1.47426
1.46503
1.50047
1.48949
1.47638
1.48169
1.09611
1.08993
1.10039
1.09183
1.10528
1.10266
1.09429
1.06114
1.06874
1.06742
1.06582
1.07343
1.06155
1.07689
1.07982
1.07106
1.07104
1.3374
1.23135
1.19825
1.35931
1.35361
1.28586
1.2312
1.24049
1.45693
1.46271
1.43865
1.48984
1.68242
1.72956
1.6978
1.73739
1.77244
1.71969
1.69301
1.65834
1.64696
1.63816
1.64688
1.64815
1.6173
1.63007
1.60239
1.69059
1.64659
1.68195
1.67789
1.60302
1.60382
1.58556
1.59098
1.55412
1.58415
1.58634
1.57364
1.56893
1.53305
1.34531
1.32378
1.33228
1.29824
1.26601
1.33048
1.36872
1.36254
1.18215
1.19993
1.16478
1.23597
1.12659
1.14951
1.18998
1.20435
1.22706
1.21471
1.19678
1.22037
1.21874
1.09956
1.12169
1.12114
1.1153
1.11388
1.07635
1.10856
1.0767
1.14153
1.10664
1.06841
1.06595
1.07294
1.07681
1.08136
1.13153
1.08949
1.06686
1.0968
1.09032
1.13366
1.12641
1.11275
1.11729
1.09043
1.11234
1.10178
1.08599
1.08867
1.29914
1.26117
1.31957
1.28845
1.32908
1.33867
1.24643
1.25944
1.26869
1.27447
1.33417
1.35834
1.32014
1.65432
1.70042
1.67655
1.72325
1.73309
1.71032
1.6568
1.67957
1.65492
1.72297
1.69074
1.72464
1.60895
1.58873
1.58515
1.54927
1.58617
1.52537
1.61803
1.63725
1.64497
1.62888
1.65752
1.1947
1.20746
1.27704
1.24178
1.21914
1.22749
1.19369
1.18139
1.17086
1.15374
1.16016
1.29685
1.30387
1.23425
1.25319
1.22917
1.29032
1.27221
1.16989
1.20547
1.20176
1.19318
1.1735
1.20315
1.17808
1.80213
1.80518
1.81497
1.78835
1.84034
1.83335
1.72274
1.69071
1.67694
1.70344
1.76174
1.73024
1.26827
1.31692
1.33632
1.30518
1.2882
1.27151
1.31946
1.35292
1.17473
1.19981
1.17966
1.19459
1.15934
1.20147
1.22409
1.15011
1.17898
1.15973
1.14144
1.1926
1.49925
1.54358
1.49902
1.57498
1.59847
1.8271
1.83302
1.83071
1.81009
1.77894
1.75719
1.65769
1.61661
1.6897
1.66276
1.64774
1.62946
1.71727
1.72402
1.69458
1.62544
1.59296
1.72712
1.72631
1.64389
1.62371
1.65964
1.69238
1.71077
1.63013
1.68238
1.64793
1.60026
1.67614
1.65264
1.66758
1.63041
1.65542
1.63897
1.65671
1.67224
1.64668
1.68969
1.67257
1.57118
1.55291
1.5245
1.56993
1.56647
1.59061
1.59454
1.63432
1.73473
1.70442
1.75618
1.7915
1.77209
1.83527
1.80464
1.75871
1.74684
1.75214
1.80951
1.84631
1.84857
1.81293
1.77537
1.77628
1.85694
1.84523
1.62061
1.6066
1.65346
1.59228
1.60655
1.70323
1.68876
1.69682
1.98637
1.99589
1.97551
1.7893
1.79157
1.73162
1.82685
1.78684
1.86348
1.87186
1.86619
1.80569
1.82129
1.75598
1.75736
1.84746
1.84868
1.3875
1.36905
1.36346
1.34267
1.3801
1.88924
1.97271
1.95698
1.95396
1.90714
1.94055
1.91023
1.89852
1.93593
1.92589
1.90204
1.92569
1.93508
1.93191
1.97064
1.9276
1.90569
1.93759
1.97759
1.9683
1.97176
1.75688
1.71308
1.74618
1.74089
1.75329
1.72788
1.73147
1.7339
1.72793
1.71104
1.72681
1.7207
1.72455
1.73195
1.65232
1.63822
1.68889
1.69832
1.71718
1.69367
1.67469
1.67738
1.68452
1.67199
1.67376
1.69148
1.68973
1.68699
1.69367
1.67678
1.68948
1.67929
1.68781
1.62106
1.63994
1.64091
1.59568
1.59128
1.61572
1.5981
1.62404
1.62262
1.75743
1.80793
1.7838
1.79135
1.74383
1.80867
1.79124
1.68688
1.70449
1.67552
1.66958
1.68101
1.67515
1.67922
1.6696
1.67639
1.67708
1.67979
1.65989
1.69086
1.67984
1.75055
1.73056
1.71982
1.72766
1.68741
1.7056
1.7185
1.72718
1.7127
1.69274
1.69376
1.70579
1.69065
1.67442
1.67026
1.67313
1.68765
1.68029
1.66893
1.66085
1.59207
1.52848
1.56937
1.57934
1.59265
1.55699
1.57469
1.54259
1.51839
1.69253
1.68578
1.68095
1.67843
1.68557
1.67651
1.67092
1.6719
1.67726
1.67393
1.67912
1.68223
1.68256
1.68063
1.67577
1.67466
1.67858
1.67705
1.67319
1.67105
1.67568
1.67253
1.67293
1.66902
1.66829
1.67309
1.67325
1.67255
1.67264
1.67697
1.66938
1.67892
1.67853
1.68645
1.68146
1.68167
1.68207
1.68386
1.68594
1.67812
1.68665
1.68391
1.51523
1.48172
1.49118
1.50654
1.50239
1.51933
1.5359
1.64216
1.63115
1.63717
1.97348
2.01587
1.98975
1.99175
1.9621
1.94061
1.988
1.96962
1.95546
1.95668
1.86153
1.84589
1.88627
1.84026
1.84557
1.89321
1.8769
1.90011
1.8761
1.95463
1.97803
1.9566
1.93938
1.91773
1.92826
1.96283
1.95221
1.92966
1.91745
1.91785
1.89703
1.9502
1.96474
1.92091
1.90161
1.93312
1.73683
1.81883
1.74296
1.77662
1.75365
1.83503
1.83715
1.82179
1.8055
1.75311
1.84958
1.82971
1.87235
1.85562
1.86061
1.87286
1.85081
1.84592
1.86702
1.8494
1.8282
1.90015
1.93178
1.96438
1.93468
1.91621
1.9604
1.94895
1.9747
1.94701
1.94432
1.90995
1.95364
1.92646
1.92851
1.92307
1.94316
1.45632
1.50832
1.54158
1.45435
1.44908
1.4287
1.39655
1.34591
1.38738
1.36135
1.35914
1.32906
1.33022
1.32618
1.3176
1.7981
1.79236
1.77531
1.79466
1.73415
1.78642
1.79946
1.77322
1.74879
1.72909
1.71244
1.54562
1.5522
1.51173
1.49703
1.51321
1.59366
1.59413
1.93575
1.9265
1.91167
1.83798
1.88295
1.88437
1.91877
1.86766
1.38126
1.332
1.36103
1.40931
1.45759
1.41114
1.45775
1.46693
1.4929
1.47013
1.53192
1.56128
1.49377
1.45131
1.41216
1.49033
1.37888
1.4347
1.40875
1.44508
1.47514
1.78598
1.76684
1.76409
1.7337
1.76771
1.73396
1.82174
1.80235
1.82611
1.80067
1.89367
1.89869
1.8264
1.86672
1.82242
1.36158
1.42149
1.39556
1.40863
1.35299
1.32298
1.34432
1.42412
1.4141
1.36
1.33205
1.8837
1.86366
1.89956
1.89252
1.93101
1.90644
1.91797
1.94692
1.93649
1.93292
1.57741
1.67086
1.60836
1.64535
1.60199
1.55808
1.66097
1.67061
1.59521
1.53441
1.67515
1.68212
1.68751
1.68168
1.67942
1.68204
1.67725
1.68577
1.67867
1.67771
1.67734
1.6712
1.66844
1.66981
1.67048
1.66973
1.66935
1.67037
1.67146
1.67188
1.67128
1.67502
1.6693
1.90911
1.93641
1.92304
1.89642
1.90009
1.94972
1.94253
1.93127
1.919
1.91556
1.92566
1.94246
1.92275
1.95207
1.94398
1.94528
1.98519
1.95847
1.95403
1.93808
1.98063
1.97022
1.98716
1.98128
1.96051
1.96153
1.96207
1.92394
1.93208
1.90818
1.92524
1.95417
1.92772
1.97357
1.95815
1.94989
1.98604
1.95287
1.96519
1.83329
1.80767
1.76828
1.85857
1.86499
1.79958
1.84053
1.79046
1.86436
1.85048
1.82671
1.77135
1.76914
1.77621
1.73715
1.76325
1.77976
1.78064
1.77893
1.75393
1.75659
1.45534
1.42385
1.43393
1.45682
1.4692
1.46167
1.46392
1.4604
1.45857
1.48601
1.46976
1.47077
1.47674
1.49408
1.52144
1.51181
1.5043
1.5084
1.45919
1.49468
1.47616
1.46778
1.45396
1.48904
1.42458
1.43538
1.84367
1.79947
1.87079
1.87589
1.80683
1.86063
1.81737
1.77674
1.70965
1.71605
1.65082
1.76833
1.81181
1.82269
1.80741
1.81676
1.74187
1.70258
1.77051
1.77666
1.69944
1.73996
1.7612
1.86375
1.8789
1.84205
1.89647
1.8676
1.91346
1.89754
1.90151
1.89713
1.83668
1.89673
1.88927
1.87216
1.85583
1.12896
1.1303
1.11087
1.11023
1.11098
1.10259
1.10967
1.11212
1.09425
1.12324
1.10548
1.10828
1.11012
1.112
1.11232
1.07742
1.09979
1.09995
1.09561
1.11857
1.10177
1.12455
1.12742
1.11957
1.12039
1.11576
1.12805
1.12507
1.11765
1.11382
1.22066
1.21008
1.32128
1.33617
1.32151
1.25278
1.25085
1.28949
1.2942
1.34596
1.17611
1.20297
1.16903
1.16908
1.20024
1.16852
1.21783
1.20833
1.23432
1.21849
1.36138
1.42088
1.47371
1.36802
1.3836
1.41242
1.40061
1.45331
1.46176
1.4287
1.42673
1.4461
1.39834
1.30496
1.27595
1.33169
1.30584
1.32142
1.72432
1.74306
1.80281
1.89412
1.87867
1.90773
1.93731
1.91851
1.92467
1.88898
1.93598
1.9206
1.95488
1.93551
1.50458
1.4248
1.49678
1.43935
1.41272
1.55497
1.5388
1.50801
1.53989
1.48792
1.43604
1.33048
1.30488
1.37468
1.4063
1.34863
1.40512
1.38162
1.39454
1.83809
1.85447
1.83463
1.85705
1.80741
1.66805
1.5345
1.52304
1.57133
1.56108
1.54901
1.56248
1.66469
1.66975
1.66121
1.66512
1.67124
1.67168
1.67235
1.67148
1.66965
1.67042
1.67662
1.67335
1.63911
1.62351
1.63869
1.65129
1.64423
1.65131
1.64185
1.65938
1.65156
1.66852
1.57451
1.53271
1.55678
1.57888
1.58732
1.56815
1.5504
1.52575
1.51639
1.57754
1.48898
1.50582
1.47305
1.49269
1.62849
1.63794
1.65377
1.61594
1.61627
1.63671
1.63627
1.64055
1.65892
1.65522
1.66453
1.63177
1.64869
1.45527
1.5864
1.52716
1.5541
1.67501
1.6609
1.6836
1.68183
1.68067
1.68341
1.67417
1.68069
1.68906
1.68301
1.69118
1.61528
1.62319
1.74177
1.7165
1.755
1.74933
1.74336
1.72855
1.73049
1.71684
1.7031
1.70687
1.76266
1.77358
1.73784
1.68663
1.70247
1.77154
1.8157
1.76147
1.81569
1.82058
1.79281
1.78779
1.74323
1.75607
1.43059
1.45012
1.41289
1.41609
1.38013
1.37108
1.38517
1.37145
1.22691
1.25325
1.29661
1.25684
1.98127
1.95548
1.92175
1.95438
1.90465
1.89941
1.88984
1.96072
1.9536
1.94865
1.92982
1.93882
1.8981
1.96378
1.96018
1.94078
1.9406
1.58776
1.69258
1.66877
1.56886
1.59767
1.60976
1.62697
1.60312
1.74966
1.75485
1.77774
1.77544
1.78066
1.77419
1.7912
1.76904
1.26647
1.23649
1.56284
1.65127
1.59832
1.6722
1.66746
1.64334
1.70799
1.70879
1.70308
1.71164
1.29066
1.28993
1.28652
1.33034
1.30775
1.33842
1.27682
1.38211
1.34624
1.35796
1.396
1.35811
1.33416
1.20558
1.22446
1.20114
1.13314
1.14284
1.13095
1.1957
1.21004
1.18
1.17514
1.17247
1.23161
1.21344
1.15616
1.18157
1.50706
1.37368
1.36767
1.40674
1.41078
1.43325
1.34452
1.30157
1.37416
1.33761
1.44583
1.41296
1.17116
1.17719
1.18872
1.57347
1.56678
1.5322
1.54119
1.47867
1.44516
1.42246
1.12741
1.13352
1.12566
1.11607
1.12232
1.11103
1.11252
1.2918
1.24685
1.31997
1.2379
1.15053
1.17365
1.16212
1.16069
1.15004
1.19389
1.17007
1.15134
1.12229
1.13425
1.13296
1.11737
1.11696
1.11755
1.11583
1.11794
1.10754
1.11539
1.12005
1.43906
1.49394
1.3748
1.42772
1.41124
1.36871
1.37768
1.41147
1.38235
1.46929
1.50215
1.42486
1.42559
1.54344
1.5689
1.5477
1.59025
1.55239
1.5612
1.62021
1.60121
1.60927
1.10329
1.109
1.10447
1.09266
1.11221
1.1098
1.07559
1.07772
1.08669
1.11005
1.10365
1.18323
1.25743
1.16431
1.13032
1.14069
1.19493
1.21862
1.22229
1.24502
1.15315
1.1413
1.43323
1.42072
1.4546
1.46637
1.47538
1.48609
1.48637
1.46908
1.4477
1.50196
1.49183
1.49258
1.48279
1.3557
1.38242
1.37385
1.33343
1.34681
1.30959
1.34207
1.36357
1.32752
1.30373
1.34493
1.33044
1.3671
1.36725
1.11494
1.11803
1.11267
1.11431
1.11524
1.11696
1.11153
1.1177
1.11517
1.12669
1.11995
1.11589
1.11249
1.11806
1.11236
1.11585
1.11775
1.42893
1.42628
1.43979
1.51706
1.50979
1.51086
1.52025
1.49586
1.48273
1.4896
1.47706
1.47258
1.51282
1.11452
1.11976
1.1079
1.10841
1.0907
1.07789
1.0901
1.09587
1.1265
1.11214
1.0727
1.07937
1.11585
1.10331
1.10024
1.10476
1.11118
1.11726
1.10812
1.11469
1.11153
1.10345
1.11686
1.52991
1.51498
1.53892
1.56058
1.55111
1.57322
1.57525
1.58767
1.58094
1.4644
1.48202
1.49297
1.28506
1.30089
1.2382
1.22424
1.25843
1.30202
1.3342
1.29563
1.28277
1.48298
1.4482
1.43237
1.46846
1.51332
1.56852
1.49408
1.48502
1.45206
1.52947
1.57993
1.56246
1.55112
1.52348
1.60174
1.60873
1.71774
1.71993
1.71316
1.72428
1.68127
1.66678
1.59168
1.64218
1.59404
1.61542
1.63736
1.64409
1.65022
1.63452
1.63434
1.61693
1.64909
1.62259
1.61312
1.67697
1.65804
1.66826
1.66987
1.63317
1.6368
1.67879
1.66701
1.69537
1.67908
1.36305
1.26574
1.3237
1.33184
1.32197
1.29249
1.25756
1.25116
1.25566
1.27319
1.23848
1.2699
1.24573
1.1384
1.12743
1.1325
1.09272
1.07769
1.63482
1.66244
1.62096
1.70215
1.70627
1.29601
1.3331
1.37568
1.30336
1.25647
1.34418
1.38612
1.25688
1.2895
1.27508
1.26687
1.21369
1.22448
1.30804
1.24807
1.29674
1.31564
1.26812
1.23985
1.25997
1.28291
1.73184
1.69051
1.76059
1.69754
1.7064
1.77612
1.74808
1.75339
1.73998
1.73015
1.75454
1.76262
1.79434
1.82026
1.81158
1.65566
1.6743
1.65964
1.64258
1.66105
1.64684
1.64075
1.66248
1.67466
1.67337
1.64905
1.64041
1.73153
1.69515
1.63712
1.66235
1.66418
1.63232
1.59724
1.69123
1.67385
1.7346
1.70658
1.59039
1.61019
1.50711
1.44007
1.43728
1.49233
1.54455
1.49854
1.47862
1.80384
1.83307
1.82206
1.86675
1.96174
2.00503
1.99271
2.00097
1.96945
1.96895
1.97454
1.83427
1.81138
1.82393
1.8018
1.80435
1.83786
1.84704
1.8224
1.79283
1.81456
1.79312
1.67428
1.6756
1.67155
1.66567
1.67776