/*--------------------------------*- C++ -*----------------------------------*\
| =========                 |                                                 |
| \\      /  F ield         | OpenFOAM: The Open Source CFD Toolbox           |
|  \\    /   O peration     | Version:  v1612+                                |
|   \\  /    A nd           | Web:      www.OpenFOAM.com                      |
|    \\/     M anipulation  |                                                 |
\*---------------------------------------------------------------------------*/
FoamFile
{
    version     2.0;
    format      ascii;
    class       surfaceScalarField;
    location    "100";
    object      phi;
}
// * * * * * * * * * * * * * * * * * * * * * * * * * * * * * * * * * * * * * //

dimensions      [0 3 -1 0 0 0 0];

internalField   nonuniform List<scalar> 
41554
(
-2.99831e-09
7.24972e-09
-8.96443e-09
4.71303e-09
-7.12371e-09
9.09194e-09
9.99955e-09
-1.19678e-08
-5.83253e-09
-7.00653e-12
-1.93998e-10
6.03354e-09
-1.75302e-08
-8.51947e-09
1.5778e-08
-8.9292e-09
-4.91126e-09
-3.68971e-09
-2.99284e-09
-5.44806e-09
-1.99843e-09
1.04393e-08
1.51481e-08
-1.01735e-08
-7.96753e-09
1.5522e-08
1.12094e-08
-1.15833e-08
8.44627e-09
-3.37662e-09
-1.05177e-08
1.2512e-08
-9.15763e-09
-1.22835e-08
5.83253e-09
-1.84002e-09
6.04709e-10
1.70686e-09
3.38528e-09
-1.51051e-08
1.4576e-08
-2.8562e-09
1.1223e-08
-8.73166e-09
8.9398e-10
7.0392e-09
-2.42527e-09
1.01741e-08
-1.4788e-08
-1.00643e-08
5.6587e-09
-1.72416e-08
1.98247e-09
1.41587e-08
-1.86735e-08
9.78329e-09
-3.61188e-09
-3.38882e-10
1.33815e-09
-1.35513e-10
-1.60494e-08
-2.16944e-09
1.20937e-08
4.20405e-11
-1.26794e-08
5.43691e-10
-1.06251e-08
9.19833e-09
1.35205e-08
1.09326e-08
-1.14204e-08
5.29898e-10
-1.17111e-08
7.74274e-09
1.4901e-08
1.30054e-08
-8.18388e-09
4.71912e-09
-9.54065e-09
-4.8314e-10
2.86344e-09
-1.7696e-08
-3.1673e-09
-3.46819e-09
-5.70389e-09
-2.53904e-09
-7.98014e-09
-6.90849e-09
-8.95127e-09
2.58923e-08
-1.54515e-08
1.18571e-08
3.11124e-09
-2.22087e-09
-8.51148e-09
-1.43307e-08
1.72365e-08
-5.93652e-09
-1.0615e-08
-8.00336e-09
-3.63705e-09
2.68197e-09
-8.73959e-09
-2.51652e-09
8.57414e-09
-3.7093e-09
6.25835e-09
1.32918e-10
-1.04228e-09
-1.63769e-09
-4.89202e-09
7.57198e-09
-2.67591e-09
-7.10596e-09
-1.65232e-09
-5.5635e-09
4.86476e-09
2.35107e-09
-1.23696e-08
2.40332e-09
8.314e-09
-3.73325e-09
-3.46794e-09
-2.64505e-09
-1.34578e-08
1.25917e-10
8.41855e-09
-1.11895e-08
5.92033e-09
1.89432e-09
-7.68874e-09
-2.01051e-09
9.07943e-09
1.34963e-09
4.11135e-09
-2.01528e-10
5.11994e-09
-5.90152e-09
1.54788e-09
-1.37244e-10
2.91419e-09
8.56856e-09
-5.33974e-09
7.05715e-09
1.19678e-09
3.19491e-10
5.91378e-09
2.44186e-09
9.06254e-11
8.96593e-09
-6.94445e-09
-1.79115e-09
1.48855e-08
-9.58772e-09
-1.22423e-08
-2.3358e-09
-7.3756e-09
-8.35607e-09
9.56444e-09
-4.29298e-09
-1.11185e-08
5.84704e-09
7.47404e-09
1.47736e-08
-1.26832e-08
-4.57414e-09
1.67882e-08
-4.73998e-09
6.56029e-09
5.03461e-09
-1.58879e-08
-7.66658e-09
9.65273e-09
2.6019e-09
6.8987e-09
7.28755e-09
9.37211e-09
-1.08275e-08
5.2238e-09
1.06384e-08
1.11453e-08
-6.78568e-09
3.65038e-09
-2.30239e-09
-3.18084e-10
-1.02991e-09
-8.32486e-10
3.11835e-09
1.36452e-09
-1.7824e-09
1.0641e-09
-1.14184e-10
-1.32436e-09
-6.77102e-10
-1.86119e-09
3.72829e-09
-1.19e-09
-2.73732e-09
-2.38234e-09
4.44255e-09
4.62494e-10
-1.05348e-09
3.70934e-09
1.62117e-09
9.88013e-10
1.0743e-09
-1.31432e-09
2.50608e-09
-3.67682e-10
-6.58649e-10
3.62722e-09
1.43938e-09
-3.59469e-10
7.24761e-09
-8.32752e-09
4.50902e-09
-7.08658e-09
5.67362e-09
-2.69784e-09
-1.63896e-09
4.01871e-09
-1.80791e-09
-3.7941e-09
8.44592e-09
-2.84392e-09
-2.92894e-09
-5.09779e-09
6.21882e-09
-4.01453e-09
8.95244e-10
1.90351e-10
-7.54245e-10
-5.88061e-09
2.84076e-09
-5.07017e-09
9.07516e-10
3.40841e-09
-5.34626e-09
-3.34923e-09
3.5977e-09
-5.01706e-09
-6.71333e-09
6.66022e-09
-3.42488e-09
-8.00073e-10
-7.92102e-10
-9.65887e-09
-7.36771e-10
3.68231e-09
-6.84567e-09
-6.23807e-09
2.82239e-10
-4.98207e-09
-6.46426e-10
-3.56919e-09
-1.63098e-10
1.41488e-08
-2.86039e-09
-1.2682e-09
-1.00202e-08
8.86023e-09
4.55185e-09
-5.48678e-09
8.46641e-09
-9.91661e-09
1.08059e-09
-3.48044e-09
-8.88829e-10
-1.43832e-09
-8.26775e-09
-2.67981e-09
-8.50501e-09
8.30088e-10
-5.74884e-09
-6.83179e-09
2.4144e-09
-9.08791e-09
5.52501e-09
1.1485e-09
1.92632e-09
7.70811e-09
-7.22004e-09
-3.31991e-09
-4.99198e-09
-7.76023e-10
-5.69431e-09
-1.04044e-09
4.42974e-10
6.29178e-09
-8.91623e-10
-3.9751e-09
6.79304e-09
-4.108e-09
5.7595e-09
-2.54313e-09
-7.46015e-09
4.96873e-09
2.23378e-09
2.57645e-10
-4.51051e-09
3.97761e-09
-6.92725e-09
-3.27273e-09
-5.74149e-09
4.79068e-10
-9.25583e-09
4.26625e-09
-4.47075e-09
-6.77687e-10
-3.69579e-09
4.68942e-09
8.25336e-10
-5.43515e-10
3.26851e-09
-6.06217e-09
-3.7691e-10
-2.8295e-09
4.49623e-09
6.31482e-09
-7.98155e-09
4.176e-09
4.22835e-09
-1.12339e-08
4.63286e-09
5.342e-09
-5.79886e-09
6.37672e-11
4.84412e-09
-2.75026e-10
4.82453e-09
-2.6453e-10
3.98842e-09
7.2405e-09
-4.9141e-09
1.12331e-09
-2.47356e-09
6.69225e-09
-4.52694e-09
8.90891e-09
-3.93547e-10
5.97539e-09
-6.27398e-09
1.13602e-08
-2.93858e-10
-7.84569e-09
-3.22062e-09
1.19369e-09
-2.43756e-09
1.2604e-08
9.01587e-09
-1.91716e-09
-1.85124e-09
1.62203e-09
5.25323e-09
-5.02402e-09
-2.00385e-10
5.12703e-09
-6.77789e-09
1.0223e-08
-7.31576e-09
-3.20114e-09
-1.26791e-09
1.26847e-08
-6.14217e-10
5.38959e-10
4.26768e-09
-5.73669e-11
4.91511e-09
-3.85189e-09
-2.25605e-09
4.73359e-09
6.55944e-09
4.6218e-09
1.51997e-08
1.12948e-08
-1.02088e-08
-1.62858e-08
-5.8426e-09
9.39116e-09
1.16512e-08
5.00671e-10
1.81374e-09
8.98042e-09
-3.64314e-09
2.70838e-09
-4.44124e-09
5.37599e-09
4.92263e-11
-4.6148e-09
9.22431e-10
3.66597e-09
-1.71308e-09
2.74738e-09
-4.70027e-09
3.56176e-10
4.16879e-09
-8.58997e-10
2.96762e-09
-1.45999e-09
-1.17164e-08
1.59355e-10
-3.03434e-09
4.68626e-09
-5.27073e-09
1.08514e-09
-3.69749e-09
9.62113e-09
-3.21525e-09
-4.71103e-09
1.06276e-09
2.38567e-10
6.45918e-12
-4.67495e-09
2.98724e-10
-6.70918e-09
3.53611e-09
-3.47654e-09
-8.42243e-10
6.25356e-09
-3.34683e-09
5.71132e-09
-1.10818e-10
-4.62102e-09
5.21115e-09
-4.79321e-10
1.28853e-09
-3.81566e-10
3.33151e-09
-4.23847e-09
4.65698e-10
3.9208e-09
-3.09797e-09
-7.81594e-10
-4.35374e-09
5.60103e-09
-1.06011e-09
7.34152e-09
-7.06301e-09
2.9443e-09
-4.38597e-09
-1.86296e-09
4.37451e-09
1.40925e-09
2.5816e-09
-1.11305e-09
1.82673e-09
1.79285e-09
3.72194e-09
3.65151e-09
5.38164e-09
-6.08885e-09
4.24876e-09
5.21545e-10
-1.1188e-09
9.60879e-10
6.59751e-09
-3.18388e-09
-4.66285e-09
2.19532e-09
6.7163e-09
2.54552e-09
3.9468e-09
-8.43654e-10
7.103e-09
3.90862e-09
-2.35857e-09
3.76712e-09
-5.31717e-09
1.2514e-10
3.82333e-09
-3.98439e-11
-6.5394e-10
-5.24296e-09
3.53833e-09
3.77097e-09
-3.68274e-09
3.69018e-11
5.59835e-09
4.04408e-10
-2.23564e-09
4.02446e-09
5.39723e-09
-4.49513e-10
-6.70421e-09
7.89635e-09
-7.42626e-10
-7.3997e-09
8.44967e-09
-1.49948e-09
4.74242e-09
2.69601e-09
-8.09237e-09
5.03589e-09
-3.29517e-10
3.60471e-11
-4.41475e-09
-2.58054e-09
-8.42295e-09
-1.90447e-09
7.64191e-09
-1.71298e-09
4.35144e-09
-2.2592e-10
3.77083e-09
1.08966e-08
2.26759e-09
2.54238e-09
-8.83471e-09
3.19188e-09
6.28401e-09
-6.41182e-10
-2.8745e-09
3.3078e-09
-9.26802e-09
-6.21384e-09
7.33603e-09
2.0697e-09
-3.03975e-10
-8.78436e-09
-5.74768e-09
-3.19296e-09
3.83021e-09
5.11043e-09
-3.47386e-10
-5.02011e-09
-3.80189e-10
-6.38079e-09
7.50789e-09
6.51734e-09
-7.64443e-09
-6.26491e-09
-4.63266e-10
-8.36508e-09
8.98616e-09
5.66293e-09
4.67742e-10
-9.1841e-10
4.62646e-09
3.62798e-09
6.21196e-09
-5.41491e-09
-5.81715e-09
2.10059e-09
-9.69392e-11
1.1435e-08
-2.44057e-09
-6.10388e-09
2.27954e-09
1.35157e-08
-8.15946e-09
-1.22914e-08
9.98834e-11
-5.57289e-09
1.77644e-08
-2.75464e-09
-1.1724e-08
2.18723e-09
-7.053e-09
-3.22002e-09
1.03729e-08
-7.15273e-09
-2.65491e-09
-1.16078e-08
-2.6693e-09
8.70425e-09
9.43608e-09
-2.92798e-09
-2.82965e-09
-3.67844e-09
-6.50467e-09
8.78802e-09
-1.06293e-08
5.23438e-10
3.60119e-09
-6.61002e-09
-6.94726e-09
9.63547e-09
-7.60808e-09
7.20891e-09
-9.2363e-09
6.59283e-09
3.56608e-09
-6.68804e-10
-1.07291e-08
-2.09912e-10
-1.13008e-08
-1.09198e-09
-7.13789e-09
-6.99255e-09
3.98744e-10
-1.46168e-08
4.91136e-09
5.52492e-09
-3.22737e-09
8.32964e-09
3.17455e-09
-2.25177e-09
7.36139e-09
-1.09785e-08
6.05746e-09
8.31634e-09
-1.50555e-08
-2.45824e-09
-2.99537e-09
-4.87101e-09
-5.51034e-09
1.22559e-08
-1.49961e-08
8.25054e-09
8.08838e-09
-1.73368e-08
3.73811e-09
2.21563e-08
-1.41147e-08
-1.95219e-08
1.14804e-08
1.97014e-08
-4.59338e-09
-8.80804e-09
-6.29992e-09
3.78473e-09
3.4344e-09
1.49371e-08
8.54727e-09
4.22992e-09
6.92416e-09
-5.26431e-09
5.16911e-10
1.52607e-08
-1.05133e-08
6.2991e-09
2.20425e-08
-1.69936e-08
-1.1348e-08
-4.83773e-09
-5.9881e-09
1.45077e-08
-3.68189e-09
-1.22956e-08
-6.65685e-09
1.18688e-09
9.25087e-09
-2.34937e-09
1.45529e-08
-1.11013e-09
1.31311e-08
-8.47359e-09
-5.31981e-09
8.60277e-09
-9.28207e-09
-4.48566e-09
1.42846e-08
5.85225e-09
-1.13496e-08
1.05387e-08
-5.68265e-09
-5.9039e-09
1.0478e-09
-5.00889e-09
1.1062e-08
-6.39397e-10
8.45066e-09
-1.45322e-08
8.88392e-09
-5.66192e-09
-2.24154e-08
-2.204e-09
1.20204e-08
1.2599e-08
1.33813e-09
-7.29243e-09
-1.64611e-08
-9.91882e-09
-8.10422e-09
3.56815e-09
1.44549e-08
-1.00479e-08
-4.70919e-09
4.83829e-09
1.95773e-08
-4.95441e-09
-1.32848e-08
9.26909e-09
1.06774e-08
-4.60699e-09
-1.33628e-08
1.02394e-08
-3.22768e-10
7.60766e-10
6.9586e-09
1.53012e-08
-5.35812e-09
1.58849e-08
-4.53874e-09
-1.04636e-08
-3.12692e-09
-7.12951e-09
4.89832e-09
-7.48224e-09
-3.5387e-10
-7.82309e-09
3.70812e-10
4.60553e-10
-1.28906e-08
-1.15604e-08
-1.33462e-08
3.80952e-09
-6.87658e-10
1.02244e-08
3.99308e-09
-1.34651e-08
-3.87417e-09
-7.03611e-09
9.32314e-09
6.19061e-09
-8.47764e-09
-1.61247e-08
1.65582e-09
7.43272e-09
1.62509e-08
-5.4887e-09
-2.58164e-09
-8.18059e-09
-1.68542e-08
1.57418e-08
1.73634e-08
1.33704e-08
4.05447e-10
-1.53838e-08
1.60797e-09
-8.38912e-09
8.03075e-09
1.37288e-08
-1.86823e-08
2.23357e-09
-1.51539e-08
-9.01714e-09
-8.96701e-09
1.02897e-09
1.17476e-08
-7.47841e-09
2.50449e-09
4.17104e-09
1.08831e-08
5.67598e-09
-6.81648e-09
-1.42433e-08
-4.46987e-09
1.75672e-09
9.12319e-09
3.72928e-10
-1.72972e-10
9.29351e-09
2.58305e-10
-3.3612e-09
-8.88982e-09
-7.15695e-09
1.32308e-08
2.70944e-09
2.1142e-09
4.35421e-09
3.2114e-09
-8.26654e-09
2.77498e-09
2.28017e-09
-3.58622e-09
2.81317e-09
3.98444e-09
-3.93477e-09
1.06376e-09
-7.15206e-10
-2.79374e-09
-5.80107e-09
3.28267e-10
-5.49127e-10
-6.17938e-09
-2.29364e-09
6.39989e-09
-6.15899e-09
2.05274e-09
4.71399e-09
-7.55676e-09
-3.64891e-09
4.81485e-09
1.64724e-09
-2.17825e-09
-4.06909e-10
-3.59557e-09
4.89931e-09
5.09615e-09
-1.05983e-09
-2.57358e-09
3.56078e-09
1.78779e-09
-1.37367e-09
4.05096e-09
2.22203e-09
2.38009e-09
-6.32734e-09
6.08169e-09
1.38808e-09
2.16943e-09
-9.6392e-09
-9.87688e-09
3.67503e-09
-7.65052e-09
3.54409e-09
5.4945e-09
-7.51808e-09
-7.5834e-09
9.05466e-09
6.04682e-09
1.5023e-09
-7.89174e-09
-1.26108e-09
-6.70301e-09
6.87239e-10
-7.34352e-09
-5.01703e-10
2.61817e-10
5.00692e-09
6.50291e-09
-1.70615e-08
5.55166e-09
-6.76319e-09
3.87837e-09
-7.54362e-09
-6.6473e-09
1.73512e-09
-6.83233e-09
1.17445e-08
8.97952e-10
-7.40876e-09
-1.36489e-10
-6.7501e-09
5.95058e-09
9.90871e-10
-1.91357e-10
-9.57151e-09
2.57844e-10
-3.25147e-09
1.25651e-08
-7.5569e-09
-8.76471e-09
-5.73875e-09
-5.26892e-09
1.27428e-08
-6.05035e-09
1.20954e-09
-9.48826e-09
-4.06796e-09
6.72388e-09
-3.06005e-09
1.26522e-08
-9.33434e-09
-9.64438e-10
-2.57324e-09
-5.23994e-09
-3.13326e-09
4.39681e-09
3.69733e-09
-1.21621e-08
-9.36896e-09
8.49685e-09
5.84602e-09
-3.47897e-09
-8.84227e-09
6.47523e-09
-6.16961e-09
6.20307e-09
-3.28493e-09
-6.03862e-11
-1.36661e-08
4.07814e-09
6.30519e-09
-4.5373e-09
7.48641e-09
8.06117e-10
-4.21439e-09
4.33641e-09
-7.87577e-09
1.30348e-09
-2.20701e-09
-8.06162e-10
-2.35973e-09
7.5804e-09
-2.08138e-09
9.01646e-09
1.1184e-08
2.27328e-09
-5.18358e-09
-8.27375e-09
4.52229e-09
2.77937e-09
3.88239e-09
8.6224e-09
-1.49299e-09
-4.85613e-09
-8.48936e-10
4.57119e-10
-2.08084e-10
1.14778e-08
-2.63621e-09
1.51568e-09
-1.03573e-08
-5.90763e-09
6.06196e-09
2.62504e-09
8.83286e-09
-3.2627e-09
3.356e-12
-7.82315e-09
-1.98439e-09
1.11607e-08
-7.66067e-09
1.57147e-08
-8.72785e-09
1.84603e-09
-7.60966e-09
1.63301e-08
6.9942e-09
-5.179e-09
-7.54785e-09
3.91184e-09
-5.89287e-09
1.05883e-08
-8.15538e-09
8.25265e-09
-9.51981e-09
2.6514e-10
2.71346e-09
8.63543e-09
1.75296e-10
-1.26626e-08
2.24381e-09
-2.8523e-09
-1.39457e-09
1.21893e-09
3.02794e-09
-4.38506e-09
-4.33488e-09
5.86764e-09
-3.69164e-09
-7.91551e-10
6.24534e-09
-1.76215e-09
-4.53558e-10
-3.6466e-09
4.08525e-10
3.47244e-09
-5.86461e-09
1.72828e-09
6.63884e-10
-2.5243e-09
-1.84539e-09
3.57814e-09
-2.80146e-09
-1.76397e-10
1.02567e-09
-5.95567e-09
3.53543e-09
-6.05967e-09
5.23995e-09
7.24806e-09
-7.37963e-09
-5.82409e-09
-2.74957e-09
3.93795e-09
-2.6471e-09
-2.24065e-09
5.02687e-10
-2.17642e-09
2.64946e-09
-4.11965e-09
1.49979e-09
-2.03768e-10
1.24097e-09
-3.68113e-09
-3.09408e-10
-6.069e-11
-5.63821e-09
4.60617e-09
6.8261e-09
-5.79406e-09
6.10003e-09
-6.25002e-09
-4.68007e-09
4.83006e-09
-5.51299e-09
6.99073e-10
1.09139e-08
-2.23251e-09
-5.11071e-09
1.83022e-09
-7.79864e-09
-6.83883e-10
-2.93905e-09
-4.77802e-09
-8.15754e-11
4.2996e-09
-7.89958e-09
4.89162e-09
-1.29164e-09
3.96406e-09
-3.81927e-09
-5.70939e-09
5.5646e-09
-2.03556e-11
-1.65379e-09
9.60484e-09
-3.15238e-09
-1.54804e-09
-5.17661e-10
-1.27462e-09
-3.31844e-09
-3.56196e-09
-2.52946e-09
-8.89757e-10
3.85312e-09
-1.10183e-08
-5.29341e-09
8.41213e-09
-9.09827e-09
-5.32337e-09
3.40335e-09
-4.77228e-09
-1.03879e-09
-3.3455e-09
-3.38474e-09
-6.67555e-09
6.22898e-09
3.83131e-09
-5.56844e-09
2.70891e-09
-5.25206e-10
5.35541e-09
-6.31037e-09
-4.61348e-09
-9.43851e-10
-3.76288e-10
4.26416e-09
-1.45963e-09
-9.56206e-11
5.31468e-09
-1.44757e-09
-4.81096e-09
2.68559e-09
3.35903e-10
3.20748e-09
1.95617e-09
4.99359e-09
8.32489e-09
4.53473e-09
-7.54494e-09
4.67875e-09
3.98205e-09
4.90847e-09
-6.94005e-09
-2.08907e-09
4.12065e-09
-4.18762e-09
7.077e-09
-9.33214e-10
-5.60915e-09
5.73013e-10
8.48516e-10
-1.3367e-09
9.54638e-09
-3.67495e-09
4.0416e-09
-5.92764e-10
3.75547e-09
-5.32302e-09
8.84866e-09
8.31977e-09
-7.33846e-09
-9.82996e-09
9.92931e-09
-2.9156e-09
1.83495e-09
2.1924e-09
7.15994e-09
5.7697e-10
7.1666e-09
3.34558e-09
5.30308e-09
-1.10856e-08
-1.55599e-09
3.19245e-09
-8.04973e-10
-2.40657e-09
1.98417e-09
7.58234e-09
1.72942e-10
4.58709e-09
4.59967e-09
-1.60023e-09
1.93015e-10
-2.2101e-11
6.60593e-09
-3.50631e-09
2.93076e-09
1.30439e-08
-1.24683e-08
5.95116e-09
-9.28454e-09
1.94828e-09
-7.31645e-09
8.29894e-09
-4.58084e-09
6.50702e-09
2.91213e-09
-4.45665e-09
-5.57117e-11
7.30289e-09
-1.76582e-09
1.00925e-09
-6.54631e-09
1.76129e-09
-1.77485e-09
9.25816e-11
-2.11916e-08
3.86786e-09
-3.71177e-09
2.10355e-08
-7.14506e-10
-1.8429e-10
-2.02928e-08
-1.45144e-09
1.52389e-08
1.88483e-09
-1.56722e-08
-1.881e-08
1.96808e-09
2.07097e-08
-1.89808e-08
1.45495e-09
-1.81754e-08
-2.26038e-09
1.38121e-08
-1.19227e-08
-4.34524e-10
-1.6002e-09
1.67762e-08
-1.88878e-08
4.28669e-09
-1.91458e-08
-3.8145e-09
1.86737e-08
-1.95874e-08
1.6963e-08
1.17293e-09
-2.1672e-08
-1.14439e-09
3.22897e-09
6.57294e-10
1.29814e-08
1.67412e-08
-9.60978e-10
2.14178e-09
-1.60304e-08
-9.03839e-09
-7.42486e-10
2.76246e-09
1.48579e-08
1.08846e-08
-1.08327e-08
1.39865e-08
-1.40384e-08
1.01125e-08
3.53455e-09
-9.67771e-09
9.92605e-10
6.45613e-09
2.22898e-09
-6.8246e-09
-4.15453e-10
-2.43765e-09
-5.03853e-09
3.90115e-10
7.28555e-09
-2.63714e-09
-4.41754e-09
-5.26502e-09
4.64404e-09
-6.17378e-11
-6.62774e-09
-1.35127e-10
-4.46757e-09
4.49126e-09
-8.54277e-11
4.00104e-09
1.70926e-09
5.08525e-10
-3.13227e-10
-1.53307e-10
1.00132e-08
-7.35e-09
-3.07866e-09
3.04498e-09
7.96083e-09
-8.30376e-09
-3.97101e-09
1.26649e-08
-1.15334e-09
2.88633e-09
-1.00367e-08
1.62686e-09
-7.19773e-09
3.7878e-10
-5.45374e-09
-1.90059e-10
3.52744e-09
5.25382e-09
3.47268e-09
-8.21798e-09
5.1742e-09
-2.33598e-10
7.00133e-09
-7.92736e-09
1.82548e-09
-5.64804e-09
2.35508e-09
-3.34466e-09
-5.19504e-09
6.18462e-09
-4.6199e-09
8.80046e-09
-6.78761e-09
6.91563e-09
-1.2105e-08
-2.07416e-09
9.67874e-10
1.32113e-08
2.15258e-09
-8.4993e-09
-5.75829e-09
1.46269e-08
-8.27973e-09
-4.19458e-09
-7.42776e-10
1.32955e-08
-1.07561e-08
-4.95571e-10
1.22196e-08
-2.01509e-09
-2.74798e-09
-5.99306e-09
-3.85961e-09
-6.65478e-09
-1.5196e-08
-2.17656e-09
9.09283e-09
7.97061e-10
7.69736e-09
-9.2372e-09
-1.53437e-09
1.3576e-08
-1.25372e-08
-7.50134e-09
6.76403e-09
-6.25766e-09
-3.26633e-09
2.02265e-09
-1.74809e-08
1.01481e-08
-7.86316e-09
4.72168e-10
2.14244e-10
-6.94407e-09
-1.07299e-08
1.93559e-09
3.21075e-10
8.47323e-09
3.0347e-09
-1.6958e-08
3.19336e-09
2.99261e-09
-7.90328e-09
8.2986e-09
-3.38793e-09
7.43366e-09
-3.89342e-09
-5.47634e-10
3.03901e-10
-1.2647e-09
-6.94248e-09
6.02276e-09
-5.87374e-10
-5.13148e-09
4.84723e-09
-1.08258e-08
-1.1256e-09
7.10415e-09
1.85351e-09
-1.30661e-09
4.30033e-09
-8.53683e-09
1.2774e-09
9.19502e-09
6.30076e-09
-1.18029e-08
-1.66516e-09
-7.48761e-09
-7.80518e-09
1.11783e-08
-6.82067e-09
2.2368e-09
9.26254e-09
-2.33366e-09
4.51443e-10
9.31587e-09
8.20174e-09
7.40224e-09
-1.61975e-09
-3.92899e-09
5.85286e-09
-2.34403e-09
7.58171e-09
-1.00408e-09
-9.68642e-09
-9.74484e-10
1.1665e-08
-7.41821e-09
-1.61403e-09
8.02816e-09
1.14717e-10
-1.16473e-08
1.84616e-09
-8.75353e-09
1.45004e-09
-1.04026e-08
1.79566e-09
1.25627e-08
-3.95574e-09
-1.91307e-09
2.77242e-09
-1.12619e-08
1.22083e-08
3.04308e-09
-1.25517e-08
-2.69967e-09
9.92633e-09
2.29514e-09
-1.31752e-11
-1.8195e-09
1.07713e-08
2.1372e-10
-8.49278e-09
6.45955e-09
-7.16515e-09
5.76484e-09
-8.5627e-09
6.35311e-10
-8.2614e-10
8.76967e-09
7.62249e-10
-1.1445e-08
1.20787e-08
-1.51339e-09
-9.62091e-09
3.42328e-09
-6.12661e-09
9.06837e-09
1.81337e-09
9.63615e-09
-8.92367e-09
-2.52585e-09
-6.47189e-09
-2.77452e-10
1.03194e-09
-6.51884e-09
-1.09992e-11
4.97379e-09
9.78325e-10
-6.80336e-10
-9.09894e-09
-2.2695e-09
-7.3345e-09
-1.55055e-09
-7.19084e-09
-4.05474e-09
2.50969e-09
-4.84304e-09
-1.40297e-09
-1.45882e-08
-1.82081e-09
-2.56617e-09
-1.71433e-08
3.77703e-09
6.69794e-09
1.52109e-08
-1.87469e-08
-3.16192e-09
-2.70177e-10
-1.70477e-08
-3.64721e-09
-1.70736e-08
-1.66348e-08
-6.7824e-09
1.11321e-09
-2.07271e-08
-1.91688e-08
-1.08863e-08
1.16353e-08
-3.10877e-09
-1.13123e-09
-1.304e-08
3.57367e-09
-8.29265e-09
1.32158e-08
7.97806e-09
-8.36628e-09
-4.01942e-09
4.40765e-09
-7.88645e-09
1.94382e-08
-1.29445e-09
4.6371e-09
8.88255e-09
-1.35515e-08
-1.09876e-08
-1.33556e-08
1.64568e-08
-1.57131e-08
7.06005e-10
1.33547e-08
3.26412e-09
-1.77501e-08
8.43823e-09
3.62203e-09
1.39392e-09
-4.48395e-09
-4.33422e-10
-1.20683e-08
-8.12866e-09
-1.18643e-08
1.47369e-09
-1.09715e-08
5.89076e-09
3.60704e-09
7.8908e-09
-1.0559e-08
4.14187e-09
-9.51215e-09
-4.87058e-09
3.30116e-09
1.10816e-08
-2.21085e-09
5.89502e-10
-1.32508e-08
1.63616e-08
1.50311e-08
-1.81419e-08
-1.10234e-08
1.11522e-08
3.72983e-09
-3.85865e-09
-4.02208e-09
-7.51887e-09
5.17589e-10
3.44276e-09
1.06252e-09
9.2777e-09
-1.3783e-08
-9.6873e-09
8.25949e-09
-7.45975e-10
4.61084e-09
-7.74284e-09
-7.83948e-09
1.70159e-08
-3.51322e-09
-8.89179e-09
1.308e-08
9.82661e-09
-1.62426e-08
1.12666e-09
1.86511e-09
-3.85238e-09
-2.1544e-08
9.15381e-09
-4.90287e-09
-8.83874e-09
1.70428e-08
1.25212e-08
-8.04167e-09
1.45476e-08
-1.00192e-08
2.44907e-09
-1.43431e-08
-6.99724e-09
-1.13046e-08
-1.35177e-08
1.77589e-08
2.15664e-09
-8.57025e-09
5.5202e-09
9.00683e-09
-2.92389e-09
-1.16031e-08
-8.5706e-09
1.11137e-08
2.97706e-09
-5.67525e-09
-9.62221e-10
3.42213e-10
6.29526e-09
-1.29558e-09
-4.47527e-09
9.56035e-11
-4.52444e-10
7.41372e-09
-7.92349e-09
-8.536e-10
8.96217e-10
-6.7975e-09
6.75489e-09
2.65452e-10
-9.09124e-09
7.97219e-09
-3.86651e-09
-4.54835e-09
5.01705e-09
3.39781e-09
-5.12016e-09
-4.19304e-11
9.66461e-09
-8.04137e-10
-4.12715e-10
-8.44776e-09
2.10415e-09
3.0121e-09
-9.71857e-09
1.41342e-09
7.36826e-10
9.92448e-09
9.80155e-10
8.7635e-09
-4.67347e-10
5.82661e-09
-5.02808e-09
-9.07622e-09
6.41875e-09
4.76161e-09
-8.3418e-09
-1.14713e-09
6.93156e-09
-1.42261e-08
8.49153e-09
6.6006e-09
-8.66042e-10
6.81599e-09
-3.92278e-09
-1.00571e-08
7.16394e-09
-3.95505e-09
-3.45506e-09
1.57868e-09
-1.00569e-08
4.55549e-09
7.20401e-09
7.80048e-09
-1.34258e-08
9.38508e-09
-3.07344e-09
2.51265e-10
-6.56291e-09
8.62586e-09
-5.3769e-09
6.72038e-09
-2.33806e-09
3.41816e-09
7.44259e-10
3.68321e-09
4.95761e-09
4.14176e-09
5.81966e-09
-9.21716e-09
9.04627e-09
6.29997e-09
-8.8294e-09
1.91826e-09
-4.33689e-09
1.1248e-08
7.8739e-10
-8.73792e-09
-8.78866e-10
3.89653e-09
5.89261e-09
-6.10593e-09
8.72095e-09
5.57973e-10
1.45357e-08
2.1478e-09
-1.83945e-09
1.95267e-09
-3.32731e-09
1.31613e-08
-7.70944e-10
-9.06305e-09
8.78656e-09
-1.96117e-09
-1.01527e-08
-3.06419e-09
1.08076e-08
5.41792e-09
5.88103e-09
-1.58655e-10
-1.98773e-09
8.34224e-09
-7.12545e-09
6.5377e-09
-1.04866e-08
-5.77191e-09
9.89736e-09
1.75557e-09
-6.56871e-09
9.05687e-09
-1.68535e-09
-1.29957e-08
-1.64928e-09
9.57398e-09
5.07097e-09
-1.69863e-08
1.47982e-08
-1.02256e-08
1.38521e-08
-2.59455e-09
-1.38952e-09
2.20819e-10
1.58504e-08
-1.66071e-08
1.15015e-08
7.18851e-09
-1.62719e-09
2.12991e-09
-7.69123e-09
2.91374e-09
5.15157e-09
-8.76798e-10
-1.31465e-08
-2.24515e-09
2.1206e-09
1.32711e-08
-9.11413e-09
-6.03711e-09
2.00469e-09
3.83208e-09
-7.52748e-09
8.65216e-09
-4.95676e-09
7.16606e-09
-4.20242e-10
-1.01314e-08
9.76778e-10
6.7917e-09
6.36585e-10
-5.29837e-09
8.06405e-09
3.87922e-09
8.04312e-09
-7.34084e-09
-9.81641e-09
-7.87879e-09
-2.32179e-10
5.86582e-09
-9.53391e-09
-4.38199e-09
-6.90131e-09
-1.99601e-09
8.25394e-09
-1.83422e-09
1.62341e-09
-3.98284e-10
1.07728e-08
-6.38682e-09
7.2377e-09
6.31517e-09
4.3112e-10
-2.01318e-09
8.85259e-09
5.81869e-09
-3.56862e-09
-9.02479e-09
3.99216e-09
8.60125e-09
-4.67307e-09
1.76236e-09
-6.57916e-10
-1.46068e-08
1.35451e-10
5.44657e-09
-1.09735e-08
-8.3064e-09
-1.74665e-08
1.09852e-08
6.61676e-09
-7.70188e-09
-9.12469e-11
-9.67337e-09
-3.37673e-09
-9.22074e-10
6.06116e-09
-1.64163e-09
-3.63819e-09
6.85168e-09
-1.57186e-09
-5.59911e-09
3.22554e-09
7.3195e-10
-5.41893e-09
-6.17421e-09
7.95494e-09
-2.41245e-09
-3.4459e-09
4.39422e-10
-5.69443e-09
-7.23025e-09
6.75047e-09
-7.9325e-09
-1.74388e-10
-4.32216e-09
-1.43532e-08
-9.27783e-09
1.46639e-08
1.63974e-08
-7.33503e-09
-9.15357e-09
-3.03518e-09
1.01547e-08
-5.92666e-09
-8.95961e-10
-5.20773e-09
-1.80921e-09
-2.13311e-10
-5.97537e-09
-7.16486e-09
-6.70877e-09
1.86438e-09
-4.7661e-09
-2.82645e-09
-9.07558e-09
-1.19147e-08
3.9825e-09
-6.62571e-09
4.75741e-09
-4.60937e-09
8.86926e-10
7.70494e-09
1.17204e-09
-2.20339e-10
-7.57741e-09
-4.54098e-09
1.10365e-09
7.50305e-09
7.65502e-10
-4.98833e-09
-3.28023e-09
-3.19415e-09
6.15622e-09
-5.01485e-09
1.0256e-08
-8.32685e-09
3.78582e-10
4.75412e-09
-2.60376e-09
-4.95759e-09
-3.53865e-09
-7.93519e-09
6.459e-09
7.81865e-09
-6.36152e-09
-4.06089e-09
4.65858e-09
2.26491e-10
-7.78876e-09
-1.5396e-08
3.28065e-09
3.63768e-09
4.15583e-09
-3.08717e-10
1.68587e-09
-5.53299e-09
2.88357e-09
1.3763e-09
-1.04033e-10
1.95472e-09
-7.18349e-09
7.73153e-09
-2.50276e-09
4.66238e-09
1.75909e-10
2.00658e-09
5.09013e-09
-7.40543e-09
1.72531e-09
-7.22292e-09
-8.51876e-10
1.08178e-08
-8.24057e-09
8.84431e-09
-7.68961e-09
5.69735e-09
-9.92567e-11
2.13343e-09
-1.556e-09
4.05579e-09
-2.58229e-09
8.25024e-11
-4.93384e-09
-8.0876e-10
6.52941e-09
-7.86813e-10
-3.09124e-09
3.85475e-09
1.51467e-11
2.95378e-09
7.51709e-09
-5.38074e-09
4.32226e-09
7.81033e-12
-5.87586e-09
1.18972e-08
4.79645e-09
5.63347e-09
-2.66501e-09
8.67516e-09
3.12275e-09
-1.76888e-09
9.63528e-09
-1.1466e-08
9.45388e-09
2.43196e-10
4.72716e-09
-4.61822e-09
7.40815e-09
-1.10533e-09
-4.78219e-09
-3.26875e-14
2.08959e-10
4.57327e-09
-3.47325e-09
-3.89488e-10
2.29597e-10
3.63315e-09
1.60727e-09
3.22923e-09
1.99529e-09
-6.83179e-09
3.35131e-09
1.39275e-09
-3.13678e-09
-4.67268e-09
-3.58277e-09
4.41976e-09
-4.63511e-09
2.15309e-10
-1.22505e-09
4.18105e-09
1.46376e-09
-4.12128e-09
-1.8978e-09
5.01227e-09
1.0068e-09
-4.58183e-09
7.10659e-11
4.28665e-09
4.2888e-09
-5.34623e-09
1.02931e-09
4.0619e-09
-8.04548e-10
-2.15015e-09
3.66866e-09
-4.89204e-10
4.00842e-09
-2.80727e-09
6.97022e-11
-6.4311e-10
4.24731e-09
-5.08945e-10
-2.76989e-09
-5.10045e-10
4.05609e-09
-4.83069e-09
-6.96048e-10
3.04556e-09
3.98156e-09
5.53964e-10
-2.46724e-10
4.30709e-09
3.73637e-09
-2.5047e-11
2.38599e-09
-8.58515e-09
7.75335e-09
-6.68707e-09
1.07398e-08
-7.88675e-09
-3.55607e-09
7.02981e-10
3.07934e-09
9.10801e-09
-1.44751e-09
-6.50266e-09
5.85403e-10
9.64709e-09
1.4248e-09
2.57667e-09
-1.25866e-08
3.10031e-09
-1.02872e-08
8.61168e-09
-1.82797e-09
2.30944e-09
-8.43129e-09
8.69853e-09
8.50476e-09
-4.84002e-09
-1.51153e-09
-5.74477e-09
9.56573e-09
-6.29797e-09
3.50283e-10
-5.33452e-09
4.29755e-09
6.86696e-10
-5.72156e-09
5.03306e-09
-2.08368e-09
1.2672e-08
-7.56002e-09
-8.1447e-10
7.18854e-09
9.86977e-09
-4.38627e-09
-2.65585e-10
-7.27501e-09
3.06111e-09
4.47948e-09
2.52468e-09
4.39828e-09
5.37398e-09
-4.83754e-09
3.03935e-09
-3.57578e-09
1.75001e-09
-2.78636e-09
6.41032e-09
-2.77368e-09
4.24509e-09
-1.72292e-10
-2.06966e-09
-5.20976e-09
-5.71648e-09
6.04561e-09
4.88063e-09
-5.36576e-09
2.60902e-09
5.04538e-09
-2.28863e-09
-2.76819e-09
5.05711e-09
-3.11297e-09
8.76134e-09
-3.76086e-09
-1.6212e-09
-7.51745e-09
2.91799e-09
-1.11701e-09
3.7688e-09
-2.47255e-09
1.29672e-09
4.53129e-09
-6.11765e-09
7.04912e-09
-5.46276e-09
5.12561e-09
-7.59277e-10
1.6496e-10
-1.48182e-09
2.12819e-09
1.79424e-09
5.68503e-09
-8.96109e-09
2.03366e-09
8.55039e-09
-8.78981e-09
9.22172e-09
-5.05987e-09
7.33905e-09
-1.59413e-09
1.3042e-09
4.80994e-09
7.65472e-09
-2.69286e-10
-2.11884e-10
9.57981e-09
-1.16284e-09
-7.37408e-09
6.85414e-09
6.34601e-10
-5.74219e-09
-1.74655e-09
-1.70532e-09
4.05143e-10
8.15432e-09
7.32714e-09
-2.18107e-10
-6.28409e-09
-8.24943e-10
-9.92655e-10
6.61447e-09
-3.52081e-09
-5.25799e-09
6.10297e-09
2.67582e-09
-3.80266e-09
7.83923e-10
-5.02071e-10
-5.23024e-09
-9.69394e-10
6.60478e-09
-3.92033e-09
-6.75313e-10
-4.65234e-09
8.99438e-10
-1.50509e-09
-4.01535e-09
-9.1717e-10
-5.04313e-09
5.19108e-10
-5.39114e-09
3.87937e-09
4.40599e-09
-4.26461e-09
5.9616e-09
3.9557e-09
-2.69337e-09
-6.71809e-10
1.90816e-09
-3.67383e-09
-3.62546e-09
-1.98076e-09
-2.39517e-09
-2.58818e-09
-5.48231e-10
-3.63463e-09
-2.73257e-09
9.46461e-10
3.95356e-09
4.22137e-09
1.44823e-09
-8.28474e-11
-2.54214e-09
-4.11651e-09
-3.00956e-09
9.66822e-09
-5.14908e-09
-5.29355e-09
7.90049e-09
4.49071e-10
-7.60557e-09
2.00742e-09
2.13777e-09
-5.80522e-09
-4.85426e-09
-7.07107e-09
8.91577e-09
-3.50889e-09
-6.97719e-10
-6.47649e-10
-1.87895e-09
-3.14534e-09
-2.69262e-10
-8.24042e-09
-5.11656e-09
6.28591e-09
-6.24176e-09
-5.50756e-09
-5.67199e-09
-3.81253e-09
-3.22968e-09
-6.13384e-10
-3.01795e-09
-3.53844e-09
1.43983e-09
-1.13549e-10
-9.14615e-09
-1.51751e-09
-5.30969e-09
1.15521e-09
-4.86074e-09
7.43929e-09
4.56949e-09
-6.08471e-09
-5.92407e-09
4.38044e-09
1.85045e-09
1.20841e-09
-5.17105e-09
5.16156e-09
4.38993e-09
-2.68897e-10
-3.32662e-10
-4.66977e-10
-5.73619e-09
-8.16537e-10
7.01971e-09
-7.92735e-10
5.48732e-09
-7.04467e-09
3.15893e-09
7.85116e-09
-1.23733e-09
-7.02065e-12
-6.60681e-09
-4.38251e-09
5.189e-09
7.59778e-09
-8.00402e-09
-8.31081e-10
3.95637e-09
-7.41103e-10
-5.26294e-10
-7.08337e-09
6.79313e-09
-6.40152e-09
5.08249e-09
-4.84708e-09
-6.09118e-09
4.53674e-09
-4.77197e-09
-3.44004e-10
-3.28755e-10
-1.78588e-10
-5.58383e-09
-4.75569e-09
-3.45043e-10
-9.78625e-10
-5.11311e-09
7.30639e-10
-3.85763e-09
-5.0494e-09
-6.84907e-10
-1.16097e-08
1.32272e-08
-2.84068e-09
1.22317e-09
1.1003e-08
-1.31781e-08
-9.43467e-09
-1.14821e-09
9.23463e-09
5.14078e-09
6.59213e-09
7.20939e-10
-3.42962e-09
-1.04694e-08
-7.4188e-09
-5.77396e-10
3.90215e-10
7.60598e-09
-9.79645e-09
-4.63032e-10
-2.10152e-09
-6.97399e-09
5.65935e-09
-6.22806e-09
-8.68806e-12
-4.43702e-09
5.70194e-09
4.39443e-09
-1.8462e-09
-1.19407e-08
5.96646e-09
-8.81978e-09
-5.42043e-09
2.36511e-10
6.02779e-09
-2.97834e-10
5.7325e-09
-2.2155e-09
-5.61852e-09
-2.59046e-10
5.47315e-09
1.37919e-10
-9.80726e-09
-1.08974e-08
5.09289e-09
-1.74732e-09
-5.86071e-09
2.51515e-09
4.45622e-09
5.32184e-10
-4.68461e-09
-3.038e-10
-2.89216e-09
7.66265e-09
1.63204e-09
-6.40252e-09
4.65308e-09
5.89437e-10
-1.4963e-10
2.21854e-09
3.6529e-09
1.3824e-11
-5.88526e-09
5.0316e-10
5.24179e-09
-7.49227e-09
7.86699e-09
5.94198e-09
-7.03123e-10
-5.85773e-10
2.52327e-09
5.63725e-09
-9.17233e-09
4.95714e-09
6.77058e-09
-2.55539e-09
-4.02138e-09
2.51169e-09
-1.03986e-09
1.14113e-08
7.28665e-09
-3.08472e-09
1.46782e-09
1.07977e-08
-7.30839e-09
1.41931e-08
8.96575e-09
5.62365e-09
7.61567e-09
9.53831e-10
8.06112e-09
-1.47759e-09
-4.89128e-09
8.88238e-09
8.79349e-09
7.4041e-09
5.00619e-09
-1.98405e-08
7.43021e-09
4.20676e-09
-8.33577e-09
1.15331e-08
3.00656e-09
4.68017e-09
-8.15717e-10
-6.87101e-09
-5.60056e-10
7.69342e-09
-4.12681e-09
5.65911e-09
-9.77312e-09
9.12021e-09
-1.7066e-09
1.15725e-08
3.80894e-09
7.45871e-09
-6.58748e-09
-5.39828e-09
-6.85078e-09
-7.59145e-09
-3.35257e-09
7.62867e-09
-4.83615e-09
3.74716e-09
-7.91545e-09
-5.08056e-09
-7.23126e-09
6.33758e-09
5.97424e-09
1.0891e-09
-7.67656e-09
1.5069e-09
-1.16336e-08
2.94956e-09
7.88025e-09
-1.154e-09
-2.91732e-09
3.20116e-09
-2.99747e-09
-4.0847e-09
5.46012e-11
-3.7931e-09
8.57133e-09
2.9152e-09
-4.19086e-10
-1.27108e-08
-1.413e-09
5.78801e-09
-1.04804e-08
-7.2918e-09
-1.11926e-08
-4.69864e-09
-4.48297e-09
9.11395e-09
2.67536e-09
-2.28199e-09
6.07731e-09
4.70326e-09
-8.49858e-09
4.33314e-09
3.10039e-09
-9.71553e-09
-4.11793e-09
-4.90163e-09
-2.42072e-09
1.14403e-08
-5.67763e-09
-5.00211e-09
6.56181e-09
6.56099e-09
1.16468e-08
-5.73255e-09
-1.24752e-08
8.32611e-09
-1.37687e-09
-3.88258e-10
4.81332e-09
1.51596e-08
-1.7539e-09
8.43054e-09
-5.99328e-10
-3.1533e-09
5.54067e-09
1.78739e-09
-4.22766e-09
-2.17752e-09
-4.64903e-09
1.92492e-09
-6.5804e-09
-1.27475e-09
-2.95111e-09
5.34372e-09
-6.85402e-09
-1.0992e-09
-4.85226e-10
-1.3959e-09
6.86877e-09
-3.68548e-09
-8.63935e-09