/*--------------------------------*- C++ -*----------------------------------*\
| =========                 |                                                 |
| \\      /  F ield         | OpenFOAM: The Open Source CFD Toolbox           |
|  \\    /   O peration     | Version:  v1612+                                |
|   \\  /    A nd           | Web:      www.OpenFOAM.com                      |
|    \\/     M anipulation  |                                                 |
\*---------------------------------------------------------------------------*/
FoamFile
{
    version     2.0;
    format      ascii;
    class       volVectorField;
    location    "100";
    object      wallShearStress;
}
// * * * * * * * * * * * * * * * * * * * * * * * * * * * * * * * * * * * * * //

dimensions      [0 2 -2 0 0 0 0];

internalField   uniform (0 0 0);

boundaryField
{
    WALL
    {
        type            calculated;
        value           nonuniform List<vector> 
1648
(
(0.00730344 -0.0146477 0.00618065)
(0.00712832 -0.0139098 0.00588602)
(0.00830519 -0.0151946 0.00612872)
(0.00792067 -0.015627 0.00653689)
(0.0320874 -0.0687011 0.0221244)
(0.0530161 -0.14026 0.0314587)
(0.014857 -0.0321287 0.0127915)
(0.0180358 -0.0404382 0.0167521)
(0.0122913 -0.0256208 0.0105706)
(0.0119967 -0.026146 0.0108126)
(0.0121665 -0.0246698 0.0103607)
(0.0117277 -0.0240137 0.00985015)
(0.0078759 -0.0161257 0.00667163)
(0.00787215 -0.0159355 0.00670419)
(0.0082179 -0.0158261 0.00616816)
(0.00764317 -0.0160037 0.00695238)
(0.00825142 -0.0163811 0.0069525)
(0.00824073 -0.016839 0.00697969)
(0.0089867 -0.0184205 0.0072308)
(0.00938593 -0.0188266 0.00787872)
(0.00732105 -0.0146027 0.00608486)
(0.00736878 -0.0143095 0.00555282)
(0.00706589 -0.0145731 0.00637171)
(0.0063991 -0.0133963 0.00586519)
(0.00658074 -0.0132351 0.00551344)
(0.0062408 -0.0130603 0.005375)
(0.00687913 -0.01417 0.0060833)
(0.00759586 -0.0153877 0.00642)
(0.00672284 -0.0133842 0.00536727)
(0.00644943 -0.012966 0.00546927)
(0.010799 -0.0208605 0.0088623)
(0.0103098 -0.0199894 0.00885268)
(0.00822648 -0.0170174 0.00676639)
(0.00746384 -0.0159981 0.00610444)
(0.0191996 -0.0451987 0.0173426)
(0.014666 -0.031302 0.0121253)
(0.0096539 -0.0202053 0.00808416)
(0.00906338 -0.0187938 0.00723745)
(0.00978527 -0.0196782 0.00868556)
(0.0102462 -0.0197242 0.00808694)
(0.0082122 -0.0173026 0.00706757)
(0.00841479 -0.0163545 0.00686969)
(0.0931832 -0.100546 0.0654003)
(0.00658575 -0.014127 0.00594062)
(0.00646023 -0.0141187 0.00589752)
(0.00660582 -0.0146741 0.00610714)
(0.00683091 -0.0130902 0.00539932)
(0.00667463 -0.0134572 0.00546866)
(0.00685993 -0.0140233 0.00567373)
(0.0105536 -0.023211 0.00969429)
(0.0125905 -0.0253046 0.0116762)
(0.00947675 -0.0208107 0.00829582)
(0.0120749 -0.0231596 0.0104436)
(0.0095193 -0.0215283 0.00861992)
(0.0131681 -0.0261569 0.0124014)
(0.00697392 -0.014658 0.00552865)
(0.00743775 -0.0160475 0.0057908)
(0.00859214 -0.0160522 0.00749559)
(0.0078789 -0.0152432 0.00634244)
(0.00733644 -0.0163199 0.00583033)
(0.013569 -0.0283732 0.0112784)
(0.0130119 -0.026996 0.0107975)
(0.0142952 -0.0298185 0.0119761)
(0.0120311 -0.0253629 0.0105291)
(0.0123381 -0.0242606 0.00989853)
(0.0126722 -0.0271359 0.0116838)
(0.00730531 -0.0150879 0.00645772)
(0.0071568 -0.0146239 0.00605938)
(0.00686522 -0.0143842 0.00547417)
(0.00697214 -0.0142869 0.00558512)
(0.00682487 -0.0139826 0.00590811)
(0.00724703 -0.015068 0.00592304)
(0.0333385 -0.0863667 0.0542183)
(0.0304838 -0.0850486 0.047446)
(0.027878 -0.0661624 0.0353717)
(0.021892 -0.0393568 0.0213704)
(0.0338241 -0.112141 0.0745709)
(0.0273984 -0.0612513 0.0350455)
(0.00921306 -0.0182397 0.00831392)
(0.00864944 -0.0173797 0.00739295)
(0.00825361 -0.0181631 0.00685314)
(0.00931831 -0.0177706 0.00810982)
(0.00825171 -0.0192153 0.00722638)
(0.00781934 -0.0167595 0.0071666)
(0.0106521 -0.0219853 0.00886988)
(0.0110758 -0.0219094 0.00895156)
(0.0110299 -0.0233143 0.00917345)
(0.0113164 -0.0229808 0.0092514)
(0.0113791 -0.0228013 0.00938573)
(0.0108466 -0.0219461 0.00898824)
(0.00696692 -0.0135887 0.00584462)
(0.00738683 -0.0148506 0.00620401)
(0.00722828 -0.0144974 0.00634564)
(0.00701714 -0.0140742 0.00618174)
(0.00705737 -0.0142086 0.00572466)
(0.00749204 -0.0145817 0.00580019)
(0.00727267 -0.0149366 0.00639371)
(0.00711393 -0.0141378 0.00584368)
(0.00776477 -0.0152799 0.00601522)
(0.00773822 -0.0158673 0.0065115)
(0.007461 -0.0152088 0.00630099)
(0.0073742 -0.0146457 0.00579832)
(0.00976875 -0.0195552 0.00857088)
(0.0107463 -0.0205989 0.00861584)
(0.011183 -0.0212851 0.00880266)
(0.0100507 -0.0194845 0.008214)
(0.0123983 -0.0227602 0.00932007)
(0.0167181 -0.030929 0.0125704)
(0.0269483 -0.0452304 0.0193716)
(0.0123512 -0.0247648 0.0101899)
(0.0126998 -0.0252299 0.0100644)
(0.018229 -0.0332323 0.0165909)
(0.0155912 -0.0292586 0.0136034)
(0.0133084 -0.0262662 0.0111812)
(0.00705985 -0.0153493 0.00632014)
(0.00736095 -0.0152313 0.00627338)
(0.00747347 -0.0156397 0.00662964)
(0.00728448 -0.0150649 0.00630646)
(0.00674993 -0.0142188 0.0057834)
(0.00733863 -0.0146863 0.00611888)
(0.00725657 -0.0149476 0.00626552)
(0.00812752 -0.0154226 0.00642045)
(0.00777647 -0.0152008 0.00636385)
(0.00769272 -0.0153083 0.0063059)
(0.00778011 -0.0156789 0.00659094)
(0.00745551 -0.0150907 0.00628254)
(0.0123008 -0.0237151 0.0110833)
(0.0104331 -0.0219759 0.00812744)
(0.0102421 -0.0209672 0.00840717)
(0.012125 -0.024695 0.0101383)
(0.00986994 -0.0215576 0.00776794)
(0.0113384 -0.0228202 0.00947903)
(0.0218271 -0.0595393 0.0212347)
(0.0182346 -0.079319 0.0407345)
(0.022442 -0.0575546 0.0205342)
(0.034766 -0.0809593 0.0125535)
(0.019467 -0.0414404 0.0150773)
(0.0182929 -0.0394002 0.0153043)
(0.0163967 -0.0346409 0.0137064)
(0.017248 -0.0385846 0.0166633)
(0.0147411 -0.0310885 0.0130677)
(0.0160929 -0.0352509 0.0149198)
(0.0150434 -0.0316582 0.0127509)
(0.00971229 -0.0197507 0.00816252)
(0.00953106 -0.0193999 0.00794213)
(0.00926132 -0.0193121 0.0082256)
(0.0101391 -0.0204244 0.00806846)
(0.00941747 -0.0195661 0.00800894)
(0.00970095 -0.0201209 0.00860176)
(0.00949754 -0.0194671 0.00834015)
(0.0102294 -0.0202537 0.00845722)
(0.00992782 -0.0205425 0.0085231)
(0.0101122 -0.0203428 0.00852786)
(0.0112987 -0.0223475 0.00879865)
(0.00902127 -0.017513 0.00752179)
(0.00984218 -0.0192161 0.00879482)
(0.0079077 -0.0167158 0.00637038)
(0.00863899 -0.0184386 0.00657816)
(0.00781806 -0.0177119 0.0060858)
(0.00967497 -0.0191417 0.00818924)
(0.00855904 -0.0180839 0.00687911)
(0.00875766 -0.0180019 0.00725859)
(0.00836715 -0.0166594 0.00706253)
(0.00882238 -0.0175432 0.00786727)
(0.00866106 -0.017861 0.00746096)
(0.00804914 -0.0170533 0.00682048)
(0.00984478 -0.020214 0.00789054)
(0.0101359 -0.0205416 0.00850181)
(0.0102353 -0.0207499 0.00863126)
(0.00993091 -0.0204401 0.0080051)
(0.00957132 -0.0194776 0.00757285)
(0.0103195 -0.021284 0.00884668)
(0.00961147 -0.0194214 0.00760902)
(0.00905341 -0.0187389 0.0077966)
(0.00945795 -0.0190612 0.00748157)
(0.00886872 -0.0178777 0.00735846)
(0.00909945 -0.0182449 0.0072012)
(0.00868849 -0.0177622 0.00721)
(0.0257213 -0.0590859 0.0327526)
(0.0191039 -0.0424649 0.0197535)
(0.0178934 -0.0375435 0.016094)
(0.0201744 -0.0459703 0.0188913)
(0.0175684 -0.0370468 0.0169759)
(0.0273694 -0.0686483 0.0261535)
(0.0368655 -0.140515 0.0676827)
(0.0281211 -0.0893676 0.0404909)
(0.0291706 -0.10292 0.0545091)
(0.0122212 -0.0266911 0.0104508)
(0.015369 -0.0308743 0.0137014)
(0.0128305 -0.027079 0.011132)
(0.013603 -0.028507 0.0119438)
(0.015585 -0.0300537 0.0143575)
(0.0101011 -0.0238547 0.00876434)
(0.0103321 -0.0215748 0.00906699)
(0.0113234 -0.0251214 0.0103283)
(0.0113012 -0.022942 0.00982928)
(0.010694 -0.0212671 0.00936952)
(0.0107462 -0.0241484 0.00944612)
(0.00975841 -0.0204186 0.00794855)
(0.00965937 -0.0203598 0.00815911)
(0.0100649 -0.0211119 0.00880121)
(0.00980064 -0.0202681 0.00830903)
(0.0100427 -0.0214103 0.00831509)
(0.00924751 -0.0196796 0.00815992)
(0.00912914 -0.0190837 0.00739079)
(0.00947756 -0.0201057 0.0080981)
(0.00899666 -0.0193939 0.00756823)
(0.0088865 -0.0189649 0.00745401)
(0.00870089 -0.0192676 0.00752147)
(0.00939198 -0.0200985 0.00788686)
(0.00970249 -0.0211348 0.00863804)
(0.00867695 -0.0200722 0.00799228)
(0.0112826 -0.0211693 0.00894548)
(0.00871605 -0.019718 0.00771597)
(0.0104844 -0.0228344 0.00848526)
(0.010675 -0.0210672 0.00843962)
(0.00823172 -0.0172286 0.00734783)
(0.00844373 -0.0176938 0.00756913)
(0.00949918 -0.0188839 0.00783832)
(0.00799012 -0.0165487 0.00694188)
(0.00957314 -0.0199359 0.00828213)
(0.00941862 -0.019021 0.00783132)
(0.00959178 -0.0186078 0.00698158)
(0.00835325 -0.0171015 0.00668865)
(0.00838839 -0.0170158 0.00634914)
(0.00844451 -0.0168998 0.00678696)
(0.00864813 -0.0165696 0.00667642)
(0.00830083 -0.01641 0.00627662)
(0.0096527 -0.0176938 0.00809531)
(0.00920974 -0.0177346 0.00772664)
(0.00806362 -0.017745 0.00655945)
(0.00903621 -0.0174055 0.00710136)
(0.00899142 -0.0186271 0.00668547)
(0.0087099 -0.0187351 0.00723425)
(0.00785095 -0.0174049 0.00683352)
(0.00866664 -0.017441 0.00712362)
(0.00865257 -0.0175412 0.00734506)
(0.00801746 -0.0179729 0.00708876)
(0.00836999 -0.0175084 0.00720581)
(0.00818732 -0.0164454 0.0069161)
(0.00920076 -0.0197094 0.00740047)
(0.0100179 -0.0208099 0.00782986)
(0.00855947 -0.0172713 0.00731615)
(0.00853212 -0.017566 0.00724673)
(0.00908333 -0.019173 0.00712625)
(0.00836539 -0.0178735 0.00689002)
(0.00723749 -0.0140738 0.00591857)
(0.00797941 -0.0152969 0.00655125)
(0.00710978 -0.0144228 0.00590461)
(0.00741848 -0.01479 0.00635884)
(0.00745499 -0.0153807 0.0059303)
(0.00721745 -0.0151245 0.00605106)
(0.00816097 -0.0158791 0.00633253)
(0.00718037 -0.0142946 0.00567362)
(0.0070848 -0.0140536 0.00632004)
(0.00743035 -0.0147193 0.00630559)
(0.00754405 -0.0154126 0.00569865)
(0.00749545 -0.0152836 0.00643599)
(0.00717254 -0.0144257 0.0059487)
(0.00718436 -0.0149934 0.00583684)
(0.00685023 -0.0138437 0.00614306)
(0.00689965 -0.0142598 0.00572504)
(0.0072327 -0.0148125 0.00596953)
(0.00757095 -0.0155741 0.00616674)
(0.00822731 -0.0177243 0.00649371)
(0.00757162 -0.0159754 0.00630681)
(0.00741696 -0.0153201 0.00615109)
(0.00699231 -0.0146533 0.00584711)
(0.00762585 -0.0157654 0.0060309)
(0.00748131 -0.0162802 0.00591142)
(0.00791207 -0.0164839 0.00679247)
(0.00818012 -0.0158483 0.0069354)
(0.00785048 -0.0156847 0.00608271)
(0.00900714 -0.0171339 0.00719331)
(0.00813286 -0.0166642 0.00611449)
(0.00780422 -0.0151961 0.00695989)
(0.00676403 -0.0150223 0.00603872)
(0.00760047 -0.015095 0.00633518)
(0.00679575 -0.0142085 0.00582007)
(0.00726921 -0.0151514 0.00607663)
(0.00729444 -0.015401 0.00614166)
(0.00740548 -0.0150456 0.00639092)
(0.00828834 -0.0167097 0.0071771)
(0.0082633 -0.0172605 0.00735469)
(0.00825942 -0.0166562 0.00714619)
(0.00848206 -0.0174536 0.00742415)
(0.00842004 -0.0170091 0.00724794)
(0.00833014 -0.0177731 0.00760053)
(0.00817349 -0.0166463 0.00696505)
(0.00842711 -0.0179902 0.00775666)
(0.00804881 -0.0162694 0.0068305)
(0.00851541 -0.018124 0.00732358)
(0.0090649 -0.0184571 0.00739647)
(0.0067567 -0.0140008 0.00607311)
(0.00674547 -0.0140751 0.00602974)
(0.00663708 -0.0140723 0.00599357)
(0.00723104 -0.0139196 0.00572072)
(0.0070358 -0.0141002 0.00593058)
(0.00706554 -0.0145634 0.00624881)
(0.00730416 -0.0139985 0.00570881)
(0.00682621 -0.0138429 0.00577607)
(0.00720669 -0.0151348 0.00605389)
(0.0072796 -0.0154963 0.00672761)
(0.00730844 -0.0136451 0.00567041)
(0.00652954 -0.0146988 0.0061241)
(0.00648133 -0.0136258 0.00572116)
(0.00736266 -0.0138878 0.0057796)
(0.00714016 -0.0137196 0.00593267)
(0.00704803 -0.0136955 0.00578967)
(0.00707037 -0.0139263 0.00558605)
(0.00733389 -0.0149994 0.00651293)
(0.00658889 -0.0136845 0.005668)
(0.00824024 -0.0183411 0.00728648)
(0.00773122 -0.0177517 0.00703065)
(0.00922404 -0.0183469 0.00807772)
(0.0089252 -0.0191241 0.00834506)
(0.00846664 -0.0173164 0.00752433)
(0.00735354 -0.0172126 0.0067737)
(0.00782168 -0.016606 0.00655951)
(0.0090038 -0.0166588 0.00742556)
(0.00758294 -0.0153227 0.00643424)
(0.00715193 -0.0160249 0.00636908)
(0.00880893 -0.0173055 0.00719596)
(0.00725963 -0.0160747 0.00609948)
(0.00660774 -0.0144211 0.00591648)
(0.00785738 -0.0150442 0.00658739)
(0.00755466 -0.0148308 0.00625234)
(0.00708507 -0.0141792 0.00608746)
(0.00699493 -0.0145753 0.006006)
(0.00684055 -0.0145823 0.00579014)
(0.00724877 -0.0146845 0.0060736)
(0.00742335 -0.0152718 0.0063853)
(0.00773731 -0.0153868 0.00636543)
(0.0072393 -0.0146788 0.00601829)
(0.00728471 -0.0147192 0.00613815)
(0.0068635 -0.0144883 0.00588415)
(0.00687742 -0.0144352 0.00597888)
(0.0529252 -0.103164 0.0854)
(0.0656685 -0.0970432 0.0820939)
(0.0335254 -0.0510705 0.027407)
(0.0338315 -0.0535902 0.0221081)
(0.0553619 -0.0706833 0.034325)
(0.0501519 -0.0662575 0.0318919)
(0.0941504 -0.104255 0.0470477)
(0.00907142 -0.0182986 0.00750614)
(0.0104324 -0.02022 0.00846993)
(0.00862282 -0.0179976 0.00773413)
(0.0105519 -0.0217123 0.00952022)
(0.0107974 -0.0202832 0.00837638)
(0.00916421 -0.0191525 0.00795246)
(0.0106051 -0.020781 0.00941323)
(0.0589192 -0.0972512 0.0814335)
(0.0311381 -0.0514227 0.0304994)
(0.0255527 -0.04722 0.0273531)
(0.0416623 -0.0695341 0.04949)
(0.0723861 -0.0914145 0.0776362)
(0.0507413 -0.0568395 0.0373724)
(0.0173258 -0.0339943 0.0164156)
(0.0259457 -0.0515562 0.0291609)
(0.0193959 -0.0381847 0.0195933)
(0.0168881 -0.0323187 0.0155315)
(0.0147396 -0.031208 0.014606)
(0.0271644 -0.0452746 0.0253887)
(0.00643605 -0.0128599 0.00544086)
(0.00638182 -0.012697 0.00519158)
(0.00645824 -0.0130753 0.00549971)
(0.00657151 -0.013214 0.00542402)
(0.0064945 -0.0131712 0.00538669)
(0.00712302 -0.0144672 0.00560887)
(0.00695535 -0.0140591 0.00537204)
(0.00683796 -0.0136313 0.00552187)
(0.00646491 -0.0130431 0.00565669)
(0.0075587 -0.0152479 0.0065086)
(0.00788437 -0.0155907 0.00672863)
(0.00781439 -0.0152385 0.00625596)
(0.00713598 -0.01486 0.00660956)
(0.00748943 -0.014948 0.00617831)
(0.00764488 -0.0150116 0.00614155)
(0.00714213 -0.0142577 0.00593992)
(0.00746942 -0.0147283 0.00590036)
(0.00713886 -0.01427 0.00582799)
(0.00734127 -0.0146265 0.0059771)
(0.00715189 -0.0143673 0.00583699)
(0.00735619 -0.0145803 0.00582812)
(0.00668417 -0.013333 0.00550599)
(0.00625461 -0.0128212 0.00540274)
(0.00644683 -0.0130357 0.00554075)
(0.00637792 -0.0132047 0.00545198)
(0.00684032 -0.0129719 0.00503596)
(0.00678168 -0.0136842 0.00560467)
(0.00699663 -0.0137576 0.00563847)
(0.00702599 -0.013239 0.00535272)
(0.00676626 -0.0132535 0.00538676)
(0.00662071 -0.0136688 0.005586)
(0.00678671 -0.0131756 0.00534731)
(0.00701818 -0.0146818 0.00618321)
(0.00701182 -0.0135668 0.00533768)
(0.0070775 -0.013589 0.0055596)
(0.00691443 -0.013532 0.00574366)
(0.00698327 -0.0134507 0.0054845)
(0.00726795 -0.0140695 0.00568203)
(0.00700864 -0.0139646 0.00598742)
(0.00655772 -0.0135293 0.00612806)
(0.00645819 -0.0139087 0.00606479)
(0.00722278 -0.0143959 0.00615624)
(0.00719323 -0.0137449 0.00584922)
(0.00717797 -0.0139108 0.00545871)
(0.00707331 -0.0140362 0.00587831)
(0.00702284 -0.0143648 0.00613044)
(0.00678822 -0.0138658 0.00600316)
(0.00729487 -0.0143131 0.00585693)
(0.00736584 -0.0143277 0.0059259)
(0.006842 -0.0139097 0.00583474)
(0.00648279 -0.0131437 0.00558841)
(0.00645835 -0.0130694 0.00541896)
(0.00656047 -0.0133667 0.00566282)
(0.00649698 -0.0130961 0.00542019)
(0.00649579 -0.0133995 0.0057626)
(0.00690788 -0.0138738 0.00540442)
(0.00612122 -0.0128706 0.00534019)
(0.00664814 -0.013152 0.00530934)
(0.00623971 -0.0124082 0.00535118)
(0.00683456 -0.0143391 0.00597161)
(0.00628893 -0.0130625 0.00588004)
(0.00737918 -0.0143769 0.00563091)
(0.0083887 -0.0166107 0.00666564)
(0.00829386 -0.016517 0.00677197)
(0.00901816 -0.0175315 0.00680155)
(0.00867195 -0.0170388 0.00671762)
(0.00867055 -0.0171038 0.00675947)
(0.00823973 -0.0161986 0.00655788)
(0.00864383 -0.0172861 0.0070925)
(0.0093467 -0.0182768 0.00719611)
(0.0091117 -0.0179813 0.00721013)
(0.00860346 -0.0172254 0.00710377)
(0.0090021 -0.018213 0.00708497)
(0.00874697 -0.018376 0.00766756)
(0.00827932 -0.0171602 0.00723845)
(0.00831739 -0.0182559 0.00772254)
(0.0086746 -0.0181887 0.00772119)
(0.00845156 -0.0177679 0.00753664)
(0.00850134 -0.0171086 0.00714037)
(0.00673492 -0.0138881 0.0054787)
(0.00704793 -0.0146098 0.00551157)
(0.00734219 -0.0144121 0.00585595)
(0.00681405 -0.0136012 0.00568836)
(0.00740321 -0.0144168 0.00601625)
(0.00624721 -0.0129867 0.00518308)
(0.00717154 -0.01413 0.00592742)
(0.00757089 -0.0146308 0.00614949)
(0.00762195 -0.014125 0.00638956)
(0.00753385 -0.0153387 0.00616852)
(0.00778649 -0.0148966 0.00615)
(0.00762479 -0.0145456 0.00654808)
(0.00713471 -0.0144599 0.0059673)
(0.00792914 -0.0150299 0.00665577)
(0.00657529 -0.0147869 0.00552401)
(0.00721188 -0.0150657 0.00597511)
(0.00697164 -0.0144787 0.0060422)
(0.00660541 -0.0143092 0.00538456)
(0.00766711 -0.015489 0.00657227)
(0.00741408 -0.01461 0.00611395)
(0.00754117 -0.0144609 0.00619866)
(0.00782358 -0.0159756 0.00625706)
(0.00690739 -0.0145648 0.00576466)
(0.00733929 -0.0153096 0.00604887)
(0.0075037 -0.0146342 0.00638977)
(0.00800774 -0.0169952 0.00735446)
(0.00858705 -0.0151195 0.00617331)
(0.00721858 -0.0139251 0.00606888)
(0.00717722 -0.0141229 0.00571905)
(0.0074765 -0.0153531 0.0062883)
(0.00744432 -0.0155244 0.00659209)
(0.00780949 -0.0149921 0.00627414)
(0.00801788 -0.0151927 0.00589854)
(0.00817499 -0.0163495 0.006729)
(0.00791641 -0.0158123 0.00668854)
(0.00669653 -0.014719 0.00620939)
(0.00747088 -0.0156131 0.00642365)
(0.00781348 -0.0156909 0.00662032)
(0.00794902 -0.016129 0.00660955)
(0.00798825 -0.0160823 0.00659453)
(0.00753743 -0.0153925 0.00664628)
(0.00794489 -0.0161911 0.00692615)
(0.00829297 -0.0167442 0.0066233)
(0.0088578 -0.0177617 0.00730079)
(0.00904351 -0.0179409 0.00740334)
(0.00888113 -0.0180188 0.0073689)
(0.00879928 -0.0171412 0.00699275)
(0.00918072 -0.0180862 0.00737478)
(0.00868158 -0.0174594 0.00729282)
(0.00886957 -0.0181564 0.00767147)
(0.00967011 -0.0186944 0.00751373)
(0.00963173 -0.0197141 0.00816341)
(0.00917843 -0.0189601 0.00802534)
(0.00880936 -0.0177577 0.00737627)
(0.00972338 -0.019585 0.00784434)
(0.00876328 -0.0172789 0.00704191)
(0.00900115 -0.018167 0.00744917)
(0.00926598 -0.0181141 0.00677037)
(0.00910154 -0.0185309 0.00772338)
(0.00828458 -0.0166672 0.00685375)
(0.00883957 -0.0173591 0.00700931)
(0.00800293 -0.016339 0.00670803)
(0.00854427 -0.0166745 0.00674915)
(0.00766029 -0.015958 0.006783)
(0.00795695 -0.0159592 0.00649769)
(0.00807051 -0.016328 0.00680105)
(0.00797298 -0.0160739 0.00662563)
(0.00795127 -0.0159592 0.0065328)
(0.00792377 -0.0162342 0.00692243)
(0.00803428 -0.0162684 0.00665273)
(0.00685577 -0.0139998 0.00631571)
(0.00756836 -0.0154688 0.00621212)
(0.00752834 -0.0156028 0.0061656)
(0.00773184 -0.0155143 0.00644055)
(0.00775768 -0.0158561 0.00659499)
(0.00739951 -0.0153839 0.0066324)
(0.00728139 -0.0146275 0.00615868)
(0.00784267 -0.0155087 0.00604859)
(0.00728297 -0.0145382 0.00612089)
(0.00731119 -0.0145885 0.00608707)
(0.00771311 -0.0153226 0.00622993)
(0.00723903 -0.0148043 0.00595816)
(0.007351 -0.0149028 0.00596249)
(0.00713448 -0.0143987 0.0059996)
(0.0118348 -0.0244095 0.00957709)
(0.0110786 -0.0229265 0.00911275)
(0.0113698 -0.0224839 0.00889539)
(0.0115123 -0.0222915 0.0091803)
(0.0107088 -0.0228741 0.00916006)
(0.0110531 -0.0235908 0.00899216)
(0.00862967 -0.0170985 0.00662578)
(0.00829233 -0.0162851 0.00623031)
(0.00818736 -0.0163587 0.00608311)
(0.00834105 -0.0166314 0.0065256)
(0.00863233 -0.0170485 0.00692376)
(0.00858259 -0.0170468 0.00665453)
(0.0106916 -0.0228363 0.00905033)
(0.0115142 -0.0226678 0.0095484)
(0.0121412 -0.0236984 0.00975392)
(0.0109629 -0.0230766 0.0090538)
(0.0104681 -0.0220022 0.00890891)
(0.0118394 -0.0232076 0.00966111)
(0.0153796 -0.0294018 0.0120935)
(0.015701 -0.0300078 0.0123365)
(0.0158244 -0.0308113 0.0123368)
(0.013475 -0.027767 0.0113396)
(0.0125148 -0.0261235 0.0108434)
(0.0118937 -0.0243933 0.010158)
(0.0461707 -0.0669815 0.0181003)
(0.0186123 -0.0918672 0.0257658)
(0.0467902 -0.141083 0.0272747)
(0.0622344 -0.122476 0.0236295)
(0.0205968 -0.0374224 0.0152989)
(0.0490351 -0.0814363 0.0230071)
(0.0463523 -0.0728657 0.0233822)
(0.0690497 -0.104734 0.0206363)
(0.0265043 -0.052624 0.0193113)
(0.0305299 -0.0596013 0.0206473)
(0.0255339 -0.057652 0.0301316)
(0.0371545 -0.0825621 0.0530359)
(0.0289483 -0.0601908 0.0363906)
(0.0203536 -0.0433148 0.0201787)
(0.0439683 -0.110524 0.0839662)
(0.056385 -0.101275 0.0850651)
(0.0399344 -0.0831184 0.060183)
(0.00693815 -0.0138765 0.00560865)
(0.0074258 -0.0148079 0.00626092)
(0.00725398 -0.0145207 0.00601704)
(0.00757747 -0.0157703 0.00662226)
(0.00747599 -0.0147658 0.00568499)
(0.00749157 -0.0154089 0.00627976)
(0.0206726 -0.0416852 0.0163507)
(0.0554079 -0.106064 0.0233745)
(0.0227982 -0.0503485 0.0180501)
(0.0237723 -0.0493942 0.0177127)
(0.019625 -0.0411482 0.0164585)
(0.0176313 -0.0356121 0.0144829)
(0.0304746 -0.0664503 0.0233921)
(0.0437526 -0.0977674 0.030323)
(0.0102492 -0.0210882 0.00878361)
(0.00996236 -0.0208161 0.00869895)
(0.0108335 -0.0216294 0.00908159)
(0.0103259 -0.0213279 0.00891214)
(0.0108207 -0.0211817 0.00879245)
(0.010688 -0.0213917 0.00862553)
(0.0118163 -0.0228674 0.00958397)
(0.0122632 -0.0262637 0.0106468)
(0.0130642 -0.0258825 0.010431)
(0.0112834 -0.0239188 0.0102396)
(0.0130337 -0.0246491 0.00955491)
(0.00978967 -0.0198447 0.00819863)
(0.00983514 -0.0198047 0.0081385)
(0.010079 -0.020271 0.0082805)
(0.0104227 -0.020721 0.00851811)
(0.00980604 -0.019956 0.00815233)
(0.0101503 -0.0199495 0.00807388)
(0.0076964 -0.0151464 0.00644639)
(0.00685721 -0.0145559 0.00587965)
(0.00855638 -0.0158946 0.00707211)
(0.00705658 -0.0154262 0.00571459)
(0.00766158 -0.0146414 0.0065931)
(0.00775814 -0.0171517 0.00679935)
(0.00735802 -0.0159502 0.00593242)
(0.00789857 -0.0161686 0.00714222)
(0.00809845 -0.0175714 0.00685834)
(0.00769303 -0.0163056 0.00615128)
(0.00785543 -0.017746 0.00669022)
(0.00748182 -0.0167192 0.00638538)
(0.00766051 -0.0150597 0.00650694)
(0.00789264 -0.0163828 0.00668421)
(0.00776098 -0.0164096 0.00636055)
(0.00739104 -0.0149671 0.00658656)
(0.00805626 -0.0156356 0.00728774)
(0.0073378 -0.0153405 0.00623521)
(0.00746702 -0.0153903 0.00579114)
(0.00728631 -0.0150365 0.00639221)
(0.00785142 -0.0158879 0.00619873)
(0.00759543 -0.0152704 0.00635224)
(0.00803453 -0.016449 0.00724492)
(0.00808877 -0.0160622 0.00642328)
(0.0149198 -0.0302677 0.0136818)
(0.0126706 -0.0252219 0.0108547)
(0.0149167 -0.0294057 0.0127773)
(0.0142195 -0.0271621 0.0131297)
(0.0179453 -0.0348256 0.0173476)
(0.0138802 -0.0274637 0.0132917)
(0.00934672 -0.0205047 0.00807968)
(0.00898613 -0.0186658 0.007952)
(0.00867665 -0.0192031 0.00786792)
(0.00924139 -0.0192154 0.00787697)
(0.00889108 -0.0199978 0.00786479)
(0.00829344 -0.0180869 0.00721018)
(0.00833176 -0.0160409 0.0062986)
(0.00781114 -0.0167988 0.00732076)
(0.00871743 -0.016957 0.00707013)
(0.00813633 -0.0170363 0.00771196)
(0.00834235 -0.0163656 0.00698392)
(0.00810211 -0.0165851 0.00732874)
(0.00833798 -0.0161815 0.00676513)
(0.00831256 -0.0159995 0.00646749)
(0.00805173 -0.0159366 0.00672128)
(0.00801647 -0.0157871 0.00661851)
(0.00838465 -0.0161983 0.00666716)
(0.00842949 -0.0164583 0.00691327)
(0.0104499 -0.0214726 0.00804219)
(0.0107652 -0.0221357 0.00832592)
(0.00987402 -0.0195388 0.00784987)
(0.0102894 -0.0204595 0.00787118)
(0.0111062 -0.022072 0.00814126)
(0.0102375 -0.0210062 0.00806765)
(0.0156385 -0.0299915 0.0107781)
(0.0152972 -0.0287876 0.0121873)
(0.0166458 -0.0310126 0.0125004)
(0.0133696 -0.0258338 0.0102814)
(0.0127783 -0.0247957 0.00964223)
(0.0131646 -0.0256654 0.0099724)
(0.00865346 -0.0166063 0.00658264)
(0.00795077 -0.0161386 0.00669645)
(0.00844779 -0.0174243 0.0072791)
(0.00788198 -0.0163 0.00683392)
(0.00795975 -0.0162508 0.00673866)
(0.00755851 -0.0150035 0.00626717)
(0.0165404 -0.0302557 0.0136483)
(0.0147332 -0.0288131 0.0130989)
(0.018201 -0.0343093 0.0162531)
(0.0182134 -0.0341632 0.0165629)
(0.0272266 -0.0495106 0.0276698)
(0.0138079 -0.024978 0.0106881)
(0.0170248 -0.0309539 0.0136625)
(0.0132021 -0.0254319 0.0115976)
(0.0140753 -0.0262994 0.0113215)
(0.0144844 -0.0281933 0.0122402)
(0.0178975 -0.0332289 0.0152486)
(0.0208814 -0.0353638 0.0160099)
(0.0267187 -0.0454964 0.0253358)
(0.0449212 -0.0665169 0.056908)
(0.0527532 -0.0645804 0.0266921)
(0.019932 -0.0351143 0.0172238)
(0.0330998 -0.0473515 0.0221924)
(0.00715028 -0.0157661 0.00635978)
(0.0079602 -0.0161227 0.00656907)
(0.00823238 -0.0170531 0.0069286)
(0.0074469 -0.0163765 0.00662535)
(0.00776894 -0.0165606 0.00703006)
(0.0086698 -0.0176266 0.00708371)
(0.00832462 -0.0165521 0.00672582)
(0.00825115 -0.018016 0.00681678)
(0.00803749 -0.0162681 0.00667417)
(0.00854897 -0.0173512 0.00707708)
(0.00756052 -0.0163741 0.00650639)
(0.00802819 -0.0172779 0.00667281)
(0.00814213 -0.0170804 0.00630797)
(0.00762803 -0.0161398 0.00628337)
(0.00793217 -0.0168156 0.00634084)
(0.0081122 -0.0163457 0.00649744)
(0.00834795 -0.0180122 0.00655942)
(0.00821356 -0.0168411 0.00664381)
(0.00760683 -0.0166195 0.00664584)
(0.00682615 -0.0154762 0.00578475)
(0.0085402 -0.0158677 0.00676284)
(0.00828028 -0.0160083 0.00698278)
(0.00751944 -0.0166617 0.00615105)
(0.0077943 -0.0165609 0.00620749)
(0.00659407 -0.0126734 0.00523018)
(0.00669731 -0.0131514 0.00549896)
(0.0067753 -0.0137169 0.00566781)
(0.00652547 -0.0134779 0.00560901)
(0.00692013 -0.0140515 0.00601492)
(0.00672671 -0.0136187 0.00561332)
(0.00648796 -0.0130105 0.00526638)
(0.00672489 -0.0133809 0.00577251)
(0.00715584 -0.014285 0.00626246)
(0.00880408 -0.0171878 0.00716369)
(0.0079988 -0.016342 0.00645157)
(0.00705996 -0.0145713 0.00624048)
(0.00725534 -0.0146974 0.00626903)
(0.0069574 -0.0139221 0.00586311)
(0.00690368 -0.0142612 0.00600682)
(0.0164179 -0.030267 0.0136677)
(0.0146582 -0.0269211 0.0115109)
(0.0633374 -0.080743 0.0680516)
(0.026997 -0.0446467 0.0218479)
(0.0407553 -0.062486 0.0387545)
(0.0675617 -0.0774497 0.0592651)
(0.0299365 -0.04866 0.0269943)
(0.0408 -0.0642355 0.0405973)
(0.0723644 -0.0853312 0.0695571)
(0.0572731 -0.0707914 0.0395384)
(0.0852333 -0.0997821 0.0780273)
(0.00688573 -0.0144937 0.00626917)
(0.00727443 -0.0149289 0.0062179)
(0.00761522 -0.0151269 0.00625558)
(0.00712706 -0.0149898 0.00654684)
(0.00665112 -0.0135212 0.00567627)
(0.0073134 -0.0141452 0.00626443)
(0.00695367 -0.013684 0.00567613)
(0.00806985 -0.0151367 0.00664291)
(0.00721162 -0.0137191 0.00580382)
(0.00684004 -0.0139059 0.00526246)
(0.00748561 -0.0150726 0.00536851)
(0.013045 -0.026781 0.0104013)
(0.0142552 -0.0270796 0.0117931)
(0.0157598 -0.0308139 0.011988)
(0.0117497 -0.0235873 0.00961141)
(0.0116098 -0.0236837 0.00935326)
(0.0106202 -0.0220634 0.00843988)
(0.0109641 -0.0214077 0.00900616)
(0.0107565 -0.022927 0.00837002)
(0.0102365 -0.021244 0.00843012)
(0.0117817 -0.0238317 0.00947865)
(0.0118598 -0.0241084 0.00921937)
(0.0123445 -0.0243576 0.0097491)
(0.0108122 -0.0220373 0.00852234)
(0.0108538 -0.0220501 0.00862896)
(0.0104369 -0.0218071 0.00812841)
(0.0106749 -0.0208014 0.00838125)
(0.0111349 -0.0219177 0.00853983)
(0.00817653 -0.01625 0.00661927)
(0.00777905 -0.0155884 0.00642994)
(0.00790027 -0.0158334 0.00696072)
(0.00806748 -0.015771 0.00681354)
(0.00812454 -0.0162307 0.00690435)
(0.00789165 -0.0160246 0.00685867)
(0.00819086 -0.0162305 0.00662877)
(0.00855531 -0.0160449 0.00629947)
(0.00786631 -0.0156331 0.00683329)
(0.00818649 -0.01564 0.00650422)
(0.00826266 -0.0156205 0.00625119)
(0.00806729 -0.015582 0.00636241)
(0.00766683 -0.0155802 0.00649925)
(0.00797487 -0.0154785 0.00626185)
(0.00829249 -0.0171018 0.00730919)
(0.00902952 -0.017884 0.00743855)
(0.00793167 -0.0159362 0.00665603)
(0.0081245 -0.0167477 0.0071126)
(0.00810874 -0.0160541 0.00640119)
(0.00843543 -0.0168129 0.00662402)
(0.00908267 -0.0182169 0.0077458)
(0.0139902 -0.0284807 0.0116735)
(0.00709168 -0.0144758 0.00602414)
(0.00699221 -0.0143076 0.00596623)
(0.00670206 -0.0139842 0.0057136)
(0.006898 -0.0143494 0.00601056)
(0.00754544 -0.0152582 0.00649267)
(0.0111295 -0.022857 0.00943796)
(0.0109836 -0.0232838 0.00955082)
(0.0171137 -0.035506 0.0143608)
(0.0193353 -0.0401338 0.0147709)
(0.0152063 -0.0302329 0.0117469)
(0.0169331 -0.0322761 0.0123029)
(0.0161166 -0.0321957 0.0124282)
(0.0172767 -0.0348784 0.0133994)
(0.0117506 -0.0234818 0.00954431)
(0.0148932 -0.0304203 0.0117707)
(0.0138384 -0.0257077 0.0103794)
(0.0159823 -0.0335108 0.013624)
(0.0146163 -0.0310509 0.0123937)
(0.0144685 -0.0296241 0.0120302)
(0.0153685 -0.0327381 0.0131548)
(0.0159556 -0.0327039 0.0130195)
(0.0144613 -0.0278888 0.0112873)
(0.0149616 -0.0314537 0.0126463)
(0.0112077 -0.0214132 0.00889524)
(0.0107273 -0.0215498 0.00882278)
(0.0110915 -0.0217682 0.00885713)
(0.0111559 -0.0228498 0.00941597)
(0.0105972 -0.0222833 0.00957756)
(0.00848585 -0.0171685 0.00684435)
(0.00680934 -0.0147009 0.00563621)
(0.00731776 -0.0162224 0.00639471)
(0.00715611 -0.0151394 0.00602225)
(0.00774548 -0.0154459 0.00657597)
(0.00717983 -0.0142168 0.00608347)
(0.00708077 -0.0147821 0.00607567)
(0.00726536 -0.0142103 0.00604069)
(0.00737117 -0.0143507 0.0061784)
(0.00706572 -0.0139281 0.0060294)
(0.00755646 -0.0163259 0.00598627)
(0.0073122 -0.0147049 0.00630862)
(0.0392535 -0.112377 0.0774282)
(0.0161987 -0.0326478 0.0145133)
(0.019073 -0.0375832 0.0182149)
(0.0163412 -0.0336495 0.0149189)
(0.0071608 -0.0149768 0.00639944)
(0.0796421 -0.114013 0.0251366)
(0.0619501 -0.105142 0.0191358)
(0.0176617 -0.0350013 0.0137834)
(0.0180496 -0.0360871 0.0141089)
(0.0181344 -0.0351716 0.0131483)
(0.0662997 -0.131417 0.0188203)
(0.0212014 -0.0432267 0.0158704)
(0.0190516 -0.0412564 0.0153775)
(0.0288635 -0.0550697 0.0165946)
(0.0417795 -0.0740426 0.0242879)
(0.0227152 -0.0528761 0.0174255)
(0.0299755 -0.0531157 0.0200608)
(0.0183619 -0.0362858 0.0139799)
(0.0171997 -0.0356187 0.0137514)
(0.0149643 -0.0317717 0.0127986)
(0.0159653 -0.0366354 0.0131689)
(0.0122189 -0.0246076 0.0101081)
(0.0161483 -0.0336998 0.0133296)
(0.0136427 -0.029397 0.0116447)
(0.0161532 -0.0337699 0.0131929)
(0.0150412 -0.031201 0.01259)
(0.0113302 -0.0246894 0.0102607)
(0.0131202 -0.0276892 0.0114816)
(0.0118681 -0.0260039 0.0107032)
(0.0128761 -0.028521 0.0118847)
(0.0129068 -0.0262778 0.0105146)