/*--------------------------------*- C++ -*----------------------------------*\
| =========                 |                                                 |
| \\      /  F ield         | OpenFOAM: The Open Source CFD Toolbox           |
|  \\    /   O peration     | Version:  v1612+                                |
|   \\  /    A nd           | Web:      www.OpenFOAM.com                      |
|    \\/     M anipulation  |                                                 |
\*---------------------------------------------------------------------------*/
FoamFile
{
    version     2.0;
    format      ascii;
    class       volScalarField;
    location    "50";
    object      p;
}
// * * * * * * * * * * * * * * * * * * * * * * * * * * * * * * * * * * * * * //

dimensions      [0 2 -2 0 0 0 0];

internalField   nonuniform List<scalar> 
16958
(
2.45053
2.5047
2.50775
2.48491
2.52115
2.49046
2.49109
2.49541
2.49736
2.4962
2.49958
2.49143
2.49915
2.50294
2.5008
2.49638
2.49779
2.49826
2.50671
2.50426
2.49873
2.49554
2.50799
2.49967
2.49001
2.46951
2.47022
2.47593
2.4746
2.4716
2.4693
2.47188
2.47607
2.46835
2.47275
2.47272
2.47167
2.47617
2.46866
2.45641
2.46587
2.46651
2.46623
2.46815
2.48367
2.491
2.49212
2.48418
2.48833
2.49181
2.49008
2.48908
2.48798
2.49095
2.48785
2.48734
2.49147
2.493
2.48805
2.49541
2.47318
2.47294
2.46311
2.46312
2.47104
2.46796
2.46644
2.47469
2.46732
2.46193
2.46909
2.47088
2.47456
2.47473
2.46991
2.47691
2.47457
2.47563
2.47162
2.46919
2.46683
2.48577
2.48296
2.47893
2.48261
2.48141
2.48337
2.48478
2.48592
2.48959
2.49214
2.48389
2.48278
2.48455
2.48192
2.48365
2.48312
2.48694
2.48562
2.48314
2.48488
2.48522
2.49079
2.48884
2.49228
2.48466
2.4899
2.48701
2.48966
2.48968
2.48722
2.49051
2.48848
2.49066
2.48209
2.48579
2.48108
2.48741
2.48636
2.48754
2.48694
2.48604
2.51872
2.5172
2.51768
2.52088
2.52386
2.52649
2.51397
2.51454
2.51991
2.53072
2.52539
2.51393
2.51232
2.51546
2.51354
2.51341
2.52049
2.52485
2.52303
2.5256
2.49771
2.49975
2.50389
2.50652
2.50535
2.50045
2.50225
2.50065
2.50556
2.50758
2.5028
2.50869
2.5072
2.48706
2.48693
2.48716
2.48496
2.48546
2.48226
2.48813
2.4888
2.4844
2.48673
2.48634
2.48857
2.48507
2.48605
2.48777
2.48781
2.48945
2.486
2.48624
2.49103
2.49071
2.49602
2.49445
2.49448
2.48581
2.48623
2.49163
2.48694
2.49075
2.48762
2.48898
2.51882
2.51401
2.51178
2.51818
2.51614
2.51658
2.45466
2.46233
2.46127
2.45272
2.4563
2.4577
2.4569
2.45186
2.46115
2.452
2.44551
2.45171
2.46505
2.44884
2.45866
2.44928
2.52154
2.52299
2.52106
2.52319
2.53189
2.53181
2.53271
2.53094
2.52654
2.53722
2.52477
2.4622
2.45991
2.46212
2.46409
2.46391
2.46221
2.46135
2.50252
2.50504
2.50345
2.50533
2.4944
2.49918
2.49409
2.49676
2.49633
2.49649
2.50334
2.50546
2.49709
2.50016
2.50125
2.50247
2.50809
2.48125
2.47995
2.4781
2.48516
2.48165
2.48418
2.48161
2.47534
2.4748
2.47198
2.47767
2.48592
2.47382
2.47795
2.47309
2.48051
2.46865
2.475
2.48226
2.47443
2.55826
2.55364
2.5509
2.55058
2.53319
2.54045
2.54989
2.53812
2.5388
2.48908
2.49495
2.49253
2.48916
2.4941
2.48895
2.49084
2.49449
2.48867
2.49173
2.48999
2.4927
2.49796
2.49142
2.49712
2.5076
2.50614
2.51064
2.50447
2.50835
2.51121
2.50762
2.50791
2.50891
2.50558
2.50849
2.50999
2.50408
2.51302
2.5144
2.51036
2.51247
2.47731
2.47525
2.46847
2.47883
2.48269
2.47533
2.4685
2.47913
2.49092
2.50007
2.48255
2.49086
2.49542
2.49018
2.49423
2.4951
2.49814
2.49891
2.4983
2.49653
2.50371
2.49743
2.49294
2.501
2.49448
2.50107
2.49577
2.49455
2.45518
2.45701
2.45638
2.44819
2.45589
2.44982
2.44325
2.44317
2.45025
2.45558
2.44914
2.45585
2.45187
2.45277
2.44939
2.4473
2.44387
2.45078
2.44513
2.45226
2.45778
2.48055
2.47792
2.47725
2.47497
2.47439
2.48329
2.48339
2.47986
2.47857
2.47739
2.47657
2.47906
2.47561
2.47794
2.47652
2.4739
2.4822
2.51077
2.50932
2.51221
2.51202
2.5115
2.50917
2.51372
2.46103
2.46327
2.46775
2.47117
2.47201
2.46272
2.46711
2.4681
2.47126
2.4768
2.47536
2.47352
2.47906
2.46911
2.46764
2.47058
2.4783
2.47246
2.47334
2.47346
2.50222
2.50159
2.50033
2.4796
2.4935
2.4943
2.50185
2.50277
2.496
2.50602
2.49896
2.49654
2.49439
2.49558
2.49623
2.49468
2.4969
2.49814
2.49698
2.49709
2.51518
2.50603
2.51091
2.51582
2.50524
2.512
2.50926
2.5111
2.50954
2.50934
2.50233
2.50156
2.50641
2.51028
2.50662
2.50177
2.50258
2.50989
2.50694
2.50039
2.46837
2.46915
2.46121
2.46247
2.46695
2.46348
2.46926
2.46428
2.45921
2.46648
2.45457
2.4586
2.4541
2.46258
2.4613
2.4605
2.4593
2.46114
2.45995
2.46849
2.47192
2.46349
2.46855
2.4673
2.4687
2.46719
2.51171
2.51626
2.51022
2.52606
2.51677
2.51623
2.51837
2.51562
2.5019
2.51277
2.51559
2.50839
2.50278
2.52572
2.50629
2.51707
2.45473
2.45711
2.45803
2.46084
2.45898
2.46179
2.45672
2.45406
2.46166
2.45924
2.45781
2.45623
2.45771
2.45423
2.50559
2.50187
2.50948
2.50519
2.50609
2.49777
2.51034
2.50799
2.51072
2.50383
2.51002
2.50439
2.50236
2.50474
2.50371
2.50817
2.50584
2.50927
2.52743
2.52868
2.51412
2.53123
2.52151
2.52493
2.52488
2.52169
2.51983
2.52508
2.52403
2.51867
2.52166
2.49288
2.4882
2.49337
2.49811
2.49192
2.48946
2.48675
2.49245
2.48814
2.48953
2.49227
2.49359
2.49035
2.48929
2.49303
2.49145
2.49825
2.49414
2.48193
2.48193
2.4823
2.48287
2.47964
2.48285
2.48148
2.48507
2.48589
2.47676
2.48646
2.48745
2.48074
2.48345
2.47988
2.48312
2.48828
2.49123
2.49272
2.49175
2.4859
2.48372
2.50382
2.50808
2.50796
2.49798
2.50036
2.50093
2.49563
2.5001
2.49906
2.49855
2.49887
2.50231
2.49903
2.50636
2.49582
2.57344
2.57119
2.57387
2.56196
2.56242
2.56839
2.55105
2.55576
2.55364
2.55497
2.5585
2.57548
2.55345
2.56116
2.47618
2.47366
2.47192
2.47297
2.47786
2.4782
2.47452
2.47499
2.47274
2.47867
2.47519
2.47757
2.47307
2.47818
2.47648
2.4754
2.47424
2.47607
2.48938
2.4918
2.48776
2.48544
2.49185
2.4874
2.48285
2.47988
2.48174
2.47974
2.48684
2.47801
2.48218
2.48287
2.48438
2.48551
2.48774
2.48496
2.49296
2.48032
2.4855
2.49168
2.48344
2.48574
2.48902
2.4881
2.50722
2.50798
2.51147
2.5099
2.51006
2.51368
2.50213
2.51168
2.50947
2.51141
2.50746
2.51439
2.5095
2.51319
2.51887
2.52206
2.50298
2.51517
2.52103
2.52689
2.51382
2.51456
2.56402
2.56433
2.56563
2.5617
2.56058
2.56359
2.55339
2.56074
2.56841
2.55427
2.5574
2.56007
2.55291
2.55658
2.55174
2.55253
2.55833
2.55057
2.56099
2.56241
2.56288
2.48474
2.48605
2.48278
2.48559
2.48258
2.4851
2.48781
2.48678
2.48816
2.49062
2.48854
2.49405
2.49168
2.491
2.49404
2.4967
2.4757
2.49736
2.49583
2.49194
2.49023
2.49626
2.49399
2.49278
2.48748
2.47073
2.46662
2.45788
2.46856
2.47416
2.46723
2.47218
2.46702
2.46943
2.46418
2.46422
2.46604
2.47253
2.47006
2.46936
2.47076
2.46792
2.47273
2.47419
2.47097
2.46813
2.4687
2.46987
2.47051
2.46856
2.46638
2.46805
2.46738
2.4714
2.46662
2.46797
2.46537
2.46259
2.46448
2.46836
2.46548
2.4701
2.46795
2.47953
2.4809
2.47492
2.4708
2.48062
2.47347
2.4785
2.48072
2.48424
2.48013
2.48063
2.47811
2.48494
2.48125
2.48981
2.47846
2.48256
2.48083
2.48812
2.48016
2.4879
2.49681
2.49399
2.49433
2.49406
2.4931
2.49958
2.50083
2.50482
2.50282
2.50044
2.49831
2.50335
2.49674
2.50396
2.49701
2.47654
2.48048
2.48158
2.48197
2.47526
2.47375
2.47685
2.48097
2.48062
2.48012
2.4821
2.47982
2.47943
2.48015
2.48144
2.50803
2.50552
2.50923
2.49894
2.49861
2.50715
2.50761
2.50216
2.4993
2.50061
2.50281
2.50194
2.49814
2.49404
2.49811
2.49787
2.50383
2.49816
2.51579
2.51252
2.51264
2.5117
2.51686
2.51736
2.51759
2.50994
2.5102
2.47695
2.47566
2.48234
2.47844
2.48006
2.47887
2.47464
2.47827
2.48643
2.48114
2.47933
2.47601
2.47895
2.48611
2.47946
2.47663
2.48095
2.47946
2.48405
2.48287
2.47284
2.47504
2.46655
2.49953
2.50178
2.45087
2.44612
2.45683
2.4457
2.54668
2.54585
2.44451
2.44653
2.50426
2.50141
2.50412
2.50454
2.50252
2.50055
2.51614
2.5154
2.51787
2.46652
2.46454
2.47415
2.46657
2.464
2.4713
2.46418
2.5149
2.52281
2.52357
2.51764
2.4749
2.47309
2.47887
2.53939
2.53967
2.47472
2.47888
2.53075
2.52879
2.47261
2.46984
2.47075
2.45742
2.45969
2.51369
2.51226
2.48974
2.4914
2.48835
2.48712
2.50491
2.50685
2.50962
2.5028
2.48234
2.47734
2.47744
2.47646
2.47502
2.48034
2.48343
2.48961
2.48949
2.51767
2.50962
2.51214
2.46661
2.46531
2.46364
2.45911
2.4906
2.49344
2.48814
2.48244
2.48137
2.4893
2.48788
2.48977
2.49268
2.49324
2.48816
2.56386
2.56175
2.51453
2.51893
2.51871
2.50042
2.50356
2.49711
2.50001
2.49626
2.47551
2.48168
2.47469
2.48014
2.4772
2.47123
2.49714
2.48009
2.48612
2.49936
2.4989
2.51396
2.51194
2.52876
2.52181
2.52306
2.51611
2.53928
2.53058
2.53515
2.48764
2.48229
2.48129
2.48794
2.48616
2.47967
2.48
2.48156
2.49373
2.49534
2.47048
2.47381
2.46989
2.48492
2.4894
2.49226
2.4924
2.50226
2.50404
2.50835
2.49384
2.49532
2.47557
2.47795
2.50876
2.50892
2.51685
2.45681
2.45773
2.48643
2.48834
2.51214
2.51273
2.5158
2.51693
2.51751
2.50654
2.52534
2.4826
2.48254
2.46701
2.46041
2.46059
2.46325
2.45582
2.45775
2.53761
2.53721
2.52963
2.55675
2.5544
2.55099
2.57005
2.56679
2.57131
2.49616
2.49772
2.49589
2.46518
2.45986
2.48378
2.483
2.48496
2.48621
2.50051
2.50241
2.52754
2.52172
2.5223
2.51717
2.51642
2.51654
2.51656
2.5193
2.52472
2.52193
2.5293
2.53706
2.53408
2.52904
2.52759
2.5211
2.51955
2.52885
2.51568
2.51702
2.5241
2.52622
2.52255
2.5038
2.50828
2.50147
2.49391
2.50292
2.49382
2.49545
2.49554
2.5004
2.50329
2.51225
2.50391
2.50311
2.5028
2.50345
2.5045
2.50558
2.50404
2.50266
2.49543
2.50319
2.50546
2.49925
2.50844
2.50205
2.50238
2.49936
2.50003
2.5033
2.49175
2.48693
2.48759
2.48614
2.47997
2.48566
2.48396
2.48715
2.48059
2.48486
2.48256
2.48199
2.48148
2.48172
2.48178
2.47778
2.482
2.48394
2.47804
2.48304
2.47912
2.47904
2.48657
2.48231
2.48417
2.47677
2.48488
2.48193
2.47665
2.47741
2.4705
2.47439
2.47178
2.50202
2.50019
2.49671
2.49437
2.49832
2.49752
2.49632
2.50275
2.50132
2.49637
2.49507
2.49739
2.50101
2.49756
2.4944
2.49152
2.48995
2.49067
2.4951
2.49294
2.48846
2.49001
2.4875
2.49685
2.49245
2.49063
2.49029
2.56004
2.55707
2.56501
2.56
2.55622
2.5522
2.5529
2.56815
2.55938
2.57305
2.55715
2.55991
2.55536
2.54513
2.5345
2.54784
2.54538
2.53796
2.55083
2.55446
2.55995
2.54272
2.54801
2.54935
2.55019
2.54749
2.54966
2.54196
2.54953
2.54662
2.56402
2.55218
2.55695
2.5598
2.55771
2.55279
2.51998
2.52586
2.5237
2.5272
2.5333
2.52483
2.55271
2.5434
2.53877
2.54425
2.54103
2.53429
2.53009
2.54256
2.52446
2.5302
2.54404
2.53797
2.53912
2.5334
2.46084
2.45849
2.45688
2.4656
2.46168
2.46736
2.47375
2.46528
2.46253
2.46788
2.46004
2.45835
2.46121
2.46209
2.45564
2.45533
2.4517
2.45048
2.45641
2.45178
2.45527
2.47718
2.47098
2.46393
2.47519
2.4729
2.4666
2.4694
2.46301
2.47653
2.475
2.48609
2.48154
2.48327
2.48411
2.48083
2.48077
2.48093
2.48682
2.48782
2.48545
2.48485
2.48265
2.49067
2.47304
2.47464
2.48118
2.47913
2.47992
2.47833
2.47763
2.48078
2.47938
2.47755
2.47892
2.48144
2.48309
2.48738
2.48418
2.47832
2.48133
2.481
2.47692
2.47978
2.50271
2.50335
2.51015
2.5167
2.51843
2.51481
2.53666
2.53226
2.52572
2.52656
2.51991
2.511
2.52056
2.52403
2.51887
2.51387
2.5143
2.51635
2.51093
2.5087
2.50714
2.51544
2.51794
2.50753
2.50846
2.5117
2.50953
2.5111
2.51066
2.50932
2.51178
2.51629
2.51406
2.51441
2.51315
2.51339
2.44179
2.48727
2.48645
2.4968
2.49274
2.48898
2.4886
2.48808
2.48734
2.48892
2.48845
2.49015
2.48769
2.48707
2.48505
2.4862
2.48178
2.48262
2.48146
2.48321
2.4809
2.48764
2.48161
2.48023
2.48729
2.4824
2.48362
2.48549
2.48709
2.48572
2.45049
2.45318
2.448
2.45723
2.4604
2.45975
2.46001
2.45825
2.45766
2.45634
2.46195
2.45746
2.51026
2.51677
2.51363
2.51127
2.51314
2.51186
2.50615
2.50719
2.50182
2.51185
2.50491
2.50169
2.50642
2.48548
2.47921
2.48161
2.47261
2.47895
2.488
2.47899
2.47859
2.47882
2.48105
2.46635
2.47136
2.46755
2.47534
2.46911
2.47976
2.47426
2.47998
2.46883
2.469
2.46794
2.474
2.47814
2.49261
2.47965
2.47999
2.47849
2.48802
2.48311
2.49101
2.49452
2.49228
2.49852
2.48973
2.49411
2.49398
2.49493
2.50015
2.491
2.49524
2.49367
2.49237
2.49993
2.49297
2.49467
2.49307
2.48841
2.48782
2.49022
2.49012
2.49491
2.50861
2.51175
2.50863
2.50441
2.51034
2.50659
2.5079
2.50748
2.50482
2.50002
2.49682
2.50166
2.50033
2.50941
2.511
2.50643
2.504
2.50301
2.50116
2.50346
2.50389
2.49015
2.48915
2.49367
2.48784
2.49189
2.49181
2.49688
2.49013
2.48928
2.48998
2.47487
2.47099
2.47498
2.47411
2.46636
2.46207
2.46233
2.46949
2.46581
2.46932
2.46864
2.47175
2.46686
2.46884
2.47324
2.47745
2.47198
2.46942
2.5026
2.49788
2.5032
2.48799
2.48865
2.48516
2.50153
2.50617
2.50333
2.50841
2.50289
2.50003
2.49581
2.49228
2.48977
2.49725
2.49784
2.49855
2.49343
2.49559
2.48032
2.47474
2.47478
2.48203
2.48237
2.4792
2.47724
2.48163
2.48149
2.47727
2.47451
2.48109
2.48033
2.47677
2.47825
2.47847
2.48472
2.48271
2.48112
2.47787
2.4792
2.48099
2.48236
2.4774
2.48437
2.48404
2.48198
2.48027
2.48828
2.48182
2.48289
2.48209
2.47951
2.4804
2.49659
2.49566
2.49068
2.48275
2.4917
2.4848
2.4874
2.49067
2.49467
2.48999
2.48556
2.48638
2.47599
2.47965
2.48913
2.48667
2.49394
2.48871
2.49211
2.4901
2.48605
2.48361
2.47877
2.48524
2.47972
2.47722
2.48114
2.48653
2.48256
2.485
2.46475
2.46184
2.46669
2.45879
2.45553
2.45177
2.53237
2.53554
2.52696
2.53022
2.53039
2.536
2.51278
2.51312
2.51665
2.51716
2.51415
2.52248
2.52153
2.51912
2.52396
2.52376
2.51945
2.51553
2.522
2.51189
2.5092
2.51219
2.51993
2.51957
2.52554
2.52399
2.51163
2.50838
2.50976
2.50555
2.51643
2.517
2.51641
2.50342
2.50572
2.50779
2.51031
2.49853
2.5068
2.50894
2.49729
2.4994
2.51158
2.50711
2.51144
2.50839
2.50082
2.49653
2.49834
2.49877
2.49482
2.50557
2.50491
2.50802
2.51109
2.50074
2.49373
2.50122
2.50747
2.50297
2.49894
2.4998
2.49658
2.49158
2.49548
2.50409
2.49673
2.49618
2.49533
2.49951
2.49792
2.49669
2.49685
2.50004
2.49856
2.50058
2.49536
2.49737
2.47968
2.48008
2.487
2.4876
2.47814
2.47827
2.48687
2.48262
2.48273
2.48211
2.49431
2.49734
2.48105
2.48104
2.49458
2.49271
2.49041
2.49205
2.49557
2.4924
2.49708
2.499
2.49212
2.49048
2.48732
2.49469
2.49337
2.49941
2.49771
2.49868
2.47459
2.46986
2.47156
2.47705
2.47433
2.46915
2.47159
2.47501
2.47966
2.4726
2.47713
2.48449
2.48754
2.48303
2.48586
2.48556
2.47815
2.47107
2.4762
2.4793
2.47721
2.4771
2.47984
2.4793
2.47847
2.47625
2.47834
2.48027
2.46718
2.47053
2.48063
2.47978
2.47637
2.47879
2.48151
2.47909
2.47666
2.4787
2.47518
2.47928
2.47622
2.47197
2.47755
2.47307
2.50572
2.504
2.50439
2.50156
2.49932
2.49842
2.49681
2.50367
2.50098
2.50429
2.50081
2.50163
2.5024
2.49175
2.49686
2.4933
2.49247
2.49112
2.49183
2.49085
2.49658
2.4904
2.50002
2.49584
2.49969
2.50164
2.49687
2.49947
2.49651
2.49745
2.4976
2.48982
2.49427
2.49556
2.5004
2.4975
2.50509
2.50058
2.51223
2.50636
2.5036
2.51498
2.5132
2.50615
2.50364
2.51213
2.51162
2.50542
2.50615
2.51636
2.51763
2.51467
2.5188
2.50609
2.50938
2.50871
2.50116
2.52086
2.51866
2.51441
2.51371
2.50863
2.51123
2.51325
2.51057
2.50855
2.55323
2.556
2.5505
2.55812
2.54769
2.55016
2.56791
2.56978
2.46296
2.4599
2.46866
2.45809
2.45295
2.48621
2.48932
2.48548
2.49016
2.48412
2.49655
2.49319
2.48931
2.4901
2.49055
2.49071
2.49367
2.48707
2.48875
2.49453
2.48863
2.4939
2.48786
2.48682
2.48849
2.48474
2.48443
2.48265
2.48923
2.48512
2.48692
2.47497
2.49578
2.49611
2.49735
2.50002
2.48656
2.48825
2.49063
2.49198
2.49744
2.49055
2.49326
2.48998
2.49312
2.49369
2.46551
2.46592
2.46274
2.46917
2.46737
2.4658
2.46911
2.46478
2.46598
2.46154
2.46484
2.46571
2.46004
2.46237
2.51036
2.51311
2.5079
2.50451
2.51238
2.51672
2.52362
2.51465
2.51208
2.50969
2.51379
2.51282
2.51645
2.51267
2.50477
2.50929
2.50838
2.50794
2.50801
2.50639
2.50289
2.4891
2.48604
2.4861
2.4933
2.48493
2.48532
2.48625
2.48721
2.49191
2.48963
2.48446
2.49114
2.48381
2.48237
2.4835
2.47817
2.47949
2.47772
2.47365
2.47372
2.47809
2.47659
2.47452
2.47426
2.48012
2.47696
2.47908
2.47912
2.47827
2.47837
2.47346
2.47139
2.47212
2.47732
2.47267
2.47364
2.47024
2.46981
2.46968
2.47117
2.47561
2.47207
2.47344
2.47003
2.47501
2.47294
2.47659
2.47993
2.47799
2.47075
2.46731
2.46762
2.47173
2.44869
2.44275
2.43968
2.44527
2.48301
2.48576
2.4884
2.49288
2.4867
2.48674
2.48433
2.49032
2.48177
2.48373
2.48416
2.48118
2.4864
2.4831
2.48414
2.50559
2.51159
2.51033
2.49585
2.50957
2.50463
2.5042
2.50191
2.49926
2.50018
2.49701
2.5004
2.501
2.48368
2.48394
2.48222
2.48752
2.48509
2.48116
2.48137
2.48628
2.49241
2.48835
2.49193
2.49353
2.49096
2.5095
2.49971
2.50011
2.51165
2.50758
2.50836
2.51554
2.51319
2.51616
2.51755
2.51963
2.44772
2.46022
2.45846
2.46074
2.46196
2.45304
2.44753
2.45874
2.46265
2.45353
2.45391
2.44741
2.45067
2.45508
2.463
2.4661
2.45925
2.46306
2.46221
2.45295
2.45499
2.45479
2.45877
2.45336
2.4532
2.45617
2.45729
2.46012
2.45994
2.45831
2.4627
2.46897
2.46617
2.46779
2.46201
2.46172
2.46647
2.46436
2.46128
2.46477
2.46288
2.46276
2.46017
2.46137
2.46566
2.45116
2.46595
2.46206
2.45971
2.45982
2.45396
2.46158
2.47271
2.47807
2.47561
2.4733
2.46851
2.46528
2.46361
2.45858
2.46439
2.46102
2.46168
2.4656
2.4684
2.46325
2.46556
2.47366
2.46724
2.46921
2.47383
2.47005
2.46907
2.46443
2.53761
2.53644
2.54007
2.55308
2.55118
2.53854
2.535
2.52533
2.52391
2.5296
2.53269
2.53338
2.52923
2.47219
2.47864
2.46854
2.46503
2.47591
2.47581
2.4737
2.47469
2.4735
2.47446
2.48118
2.47527
2.477
2.54794
2.54579
2.5386
2.55039
2.55166
2.55038
2.55731
2.55609
2.5531
2.54157
2.54545
2.53708
2.5407
2.54947
2.54214
2.54123
2.54299
2.46817
2.47226
2.46836
2.46753
2.51204
2.51214
2.51186
2.53601
2.52692
2.52055
2.52685
2.53079
2.4627
2.468
2.46805
2.46038
2.45996
2.46049
2.45593
2.46349
2.46393
2.46557
2.46385
2.47011
2.46648
2.46738
2.46644
2.47114
2.46938
2.47179
2.46134
2.46177
2.46276
2.47187
2.47239
2.4715
2.4715
2.47582
2.4676
2.46794
2.46485
2.46979
2.46742
2.464
2.46343
2.47092
2.46389
2.47353
2.47053
2.46538
2.46579
2.46587
2.46521
2.47335
2.47404
2.47167
2.46914
2.47025
2.46661
2.4661
2.46217
2.46038
2.46239
2.51436
2.51156
2.51639
2.51781
2.5194
2.51991
2.51665
2.51431
2.50844
2.51176
2.513
2.51225
2.51117
2.51067
2.50916
2.51077
2.50874
2.50787
2.50128
2.5123
2.50838
2.49485
2.48874
2.49878
2.49954
2.49497
2.49108
2.49878
2.50539
2.49218
2.49416
2.50282
2.50455
2.50838
2.50365
2.50669
2.50169
2.49467
2.50092
2.49905
2.50288
2.49826
2.50003
2.5002
2.505
2.50048
2.50012
2.50127
2.503
2.50345
2.50004
2.50172
2.45114
2.45325
2.45741
2.45369
2.44676
2.44806
2.44995
2.44287
2.44658
2.45291
2.45148
2.44425
2.54328
2.53497
2.54058
2.54634
2.53778
2.55516
2.55541
2.55708
2.55175
2.55446
2.54869
2.54058
2.54613
2.533
2.53783
2.45726
2.45818
2.4564
2.45589
2.44757
2.44815
2.49578
2.49974
2.49999
2.49412
2.49307
2.49744
2.49764
2.50218
2.49252
2.50083
2.49872
2.49493
2.49419
2.47396
2.46524
2.46815
2.47569
2.47378
2.47004
2.47354
2.47612
2.47098
2.47327
2.47311
2.47911
2.47771
2.47106
2.47318
2.47959
2.4728
2.47601
2.47409
2.47913
2.4754
2.47409
2.47307
2.47402
2.47357
2.47143
2.46978
2.47049
2.48245
2.47651
2.47993
2.47976
2.47802
2.47661
2.47276
2.47518
2.47929
2.47537
2.46058
2.45761
2.46091
2.45744
2.45542
2.53833
2.53912
2.54348
2.54522
2.54377
2.53675
2.53094
2.52467
2.5282
2.49777
2.49413
2.49755
2.50848
2.50748
2.50212
2.50348
2.50229
2.50017
2.5029
2.50452
2.50506
2.52832
2.52457
2.52304
2.51842
2.51883
2.51784
2.52415
2.52359
2.46184
2.46579
2.46691
2.4596
2.45887
2.4666
2.46252
2.4596
2.4585
2.46631
2.4631
2.46062
2.47386
2.46823
2.46396
2.47379
2.47148
2.46822
2.46479
2.46533
2.47262
2.46714
2.47896
2.48099
2.48191
2.47579
2.47469
2.47528
2.47664
2.47928
2.48548
2.48232
2.48014
2.47658
2.47968
2.47915
2.462
2.46748
2.4761
2.47211
2.47719
2.47522
2.47639
2.47613
2.475
2.47018
2.47266
2.46768
2.46699
2.46992
2.46391
2.46809
2.46986
2.46973
2.47497
2.46942
2.47026
2.47266
2.47204
2.47166
2.48037
2.47736
2.47345
2.47169
2.47299
2.47044
2.47549
2.47543
2.46886
2.47388
2.47206
2.47632
2.46955
2.46469
2.47734
2.46899
2.46919
2.47251
2.47187
2.47239
2.43914
2.44471
2.44819
2.43894
2.44098
2.45019
2.44956
2.44692
2.48115
2.48733
2.48632
2.48833
2.48622
2.49056
2.48805
2.49098
2.48548
2.48815
2.48507
2.49083
2.47211
2.47819
2.47436
2.47586
2.47287
2.47893
2.47852
2.44608
2.44921
2.4481
2.44277
2.44259
2.44281
2.43831
2.44595
2.44479
2.44143
2.44636
2.44668
2.44828
2.45235
2.44419
2.45068
2.44614
2.46341
2.47183
2.46642
2.46463
2.46926
2.4674
2.4699
2.47235
2.46743
2.46564
2.47333
2.46838
2.48216
2.48116
2.48188
2.48923
2.48504
2.48655
2.48398
2.46567
2.46402
2.47057
2.45219
2.55379
2.54821
2.55749
2.55599
2.55314
2.55542
2.54952
2.49449
2.49375
2.49344
2.4999
2.49339
2.49593
2.49113
2.49405
2.49387
2.49009
2.48927
2.49688
2.49911
2.49719
2.48939
2.49888
2.50181
2.49833
2.49807
2.49653
2.49727
2.49528
2.50007
2.49785
2.4964
2.46741
2.46867
2.47635
2.47443
2.47659
2.47478
2.47207
2.47152
2.4703
2.47071
2.47122
2.47049
2.4655
2.4654
2.46961
2.47203
2.4671
2.4688
2.47058
2.46698
2.47046
2.47583
2.47354
2.46837
2.47603
2.48226
2.46928
2.47096
2.46991
2.47871
2.49677
2.48839
2.49093
2.48782
2.49304
2.50256
2.50139
2.49394
2.50625
2.50601
2.50232
2.50238
2.50578
2.504
2.49593
2.48244
2.4861
2.48886
2.49101
2.48992
2.49477
2.49033
2.48513
2.48965
2.49042
2.49416
2.49579
2.49959
2.50111
2.50059
2.50255
2.46099
2.45801
2.45478
2.46107
2.45836
2.4574
2.45677
2.45569
2.46217
2.46565
2.46344
2.46548
2.46219
2.46556
2.46528
2.46961
2.47149
2.46375
2.46248
2.47186
2.46944
2.47772
2.47347
2.47759
2.47932
2.47539
2.47307
2.47463
2.47165
2.47987
2.47586
2.47586
2.47361
2.475
2.48381
2.48338
2.48446
2.48326
2.48968
2.48534
2.48518
2.49079
2.48995
2.49531
2.48818
2.48094
2.48216
2.48843
2.49256
2.49147
2.47819
2.47441
2.48428
2.48713
2.4842
2.47381
2.47734
2.47891
2.47831
2.47726
2.47407
2.49719
2.50322
2.50066
2.50222
2.50606
2.5024
2.49775
2.49723
2.49639
2.50243
2.49775
2.49717
2.50663
2.50445
2.50384
2.50006
2.50702
2.50102
2.50902
2.50564
2.5055
2.5034
2.5001
2.50986
2.51347
2.509
2.50935
2.51229
2.50765
2.49197
2.48952
2.48799
2.48823
2.48982
2.48489
2.48717
2.4909
2.48802
2.48877
2.4922
2.44905
2.44311
2.44433
2.44458
2.45028
2.44432
2.44158
2.47909
2.48099
2.48435
2.48498
2.48381
2.48347
2.48615
2.48132
2.48861
2.49622
2.48917
2.48903
2.48824
2.48709
2.4844
2.48879
2.49485
2.49219
2.45571
2.45529
2.44696
2.45125
2.45573
2.45196
2.45498
2.45114
2.5051
2.51418
2.50715
2.51067
2.51054
2.5093
2.50695
2.5103
2.5096
2.50762
2.50712
2.50676
2.50127
2.51266
2.51225
2.50489
2.50812
2.50468
2.507
2.51358
2.5195
2.52746
2.51953
2.52
2.51893
2.5198
2.48326
2.48423
2.48514
2.48304
2.48151
2.485
2.49154
2.48507
2.4831
2.48517
2.49086
2.48652
2.57044
2.55796
2.55863
2.56906
2.56261
2.55657
2.55896
2.56917
2.57821
2.57155
2.56933
2.57857
2.57758
2.56402
2.57439
2.57097
2.54667
2.55441
2.55576
2.55059
2.55104
2.55943
2.5572
2.55465
2.54622
2.55898
2.5564
2.56974
2.56275
2.56195
2.5602
2.56418
2.56466
2.5669
2.56855
2.57085
2.55585
2.55404
2.56436
2.55991
2.57243
2.57952
2.58214
2.58058
2.576
2.57131
2.57506
2.57464
2.54891
2.55791
2.55857
2.54696
2.54966
2.54501
2.54623
2.54746
2.5588
2.55851
2.55973
2.55761
2.5412
2.55042
2.5422
2.54772
2.54223
2.5496
2.5431
2.53917
2.54544
2.54987
2.5483
2.54894
2.53664
2.54413
2.55497
2.56144
2.55653
2.55216
2.4862
2.48797
2.4928
2.48724
2.49036
2.48866
2.48888
2.48801
2.49562
2.49538
2.49765
2.4982
2.49852
2.49785
2.49631
2.45672
2.46504
2.46555
2.45886
2.46504
2.4624
2.47001
2.46459
2.46429
2.46406
2.47046
2.46601
2.46105
2.46952
2.46256
2.4687
2.46813
2.46888
2.46989
2.48467
2.49015
2.48547
2.48573
2.4829
2.4838
2.49163
2.48914
2.48817
2.48334
2.48261
2.52881
2.5276
2.52281
2.52977
2.52741
2.51014
2.51021
2.51465
2.51454
2.512
2.51454
2.51313
2.51156
2.51265
2.51975
2.51573
2.51894
2.51643
2.51589
2.5134
2.51699
2.51724
2.51567
2.51511
2.51833
2.51934
2.51908
2.51658
2.51261
2.51731
2.51557
2.51596
2.51618
2.51465
2.51581
2.50952
2.50958
2.51246
2.5106
2.51388
2.51764
2.51509
2.51786
2.5153
2.50898
2.51112
2.51277
2.51572
2.49653
2.49646
2.49756
2.49065
2.49562
2.49974
2.49832
2.49726
2.4974
2.45555
2.45098
2.4534
2.45423
2.45765
2.44904
2.45812
2.45657
2.4796
2.48652
2.49076
2.47545
2.48056
2.48507
2.49023
2.49293
2.48129
2.47682
2.47321
2.4778
2.48313
2.48295
2.51048
2.51205
2.5112
2.51019
2.50915
2.50913
2.51387
2.50974
2.50533
2.51048
2.50913
2.47375
2.47377
2.46877
2.47515
2.47842
2.47754
2.47233
2.46932
2.47849
2.49409
2.49095
2.49029
2.49494
2.49665
2.49861
2.49185
2.45888
2.45397
2.45116
2.45526
2.45841
2.45109
2.45053
2.45902
2.45903
2.4597
2.45333
2.51138
2.5114
2.50972
2.51994
2.51784
2.5175
2.51806
2.52241
2.51532
2.52481
2.5179
2.51828
2.51716
2.51695
2.51642
2.51405
2.50004
2.50211
2.50397
2.49936
2.49808
2.50009
2.49887
2.50291
2.49974
2.49716
2.50343
2.50799
2.50007
2.50327
2.47994
2.47351
2.46246
2.46167
2.46214
2.46272
2.46727
2.46126
2.54202
2.54752
2.54479
2.54166
2.55285
2.53443
2.53681
2.53792
2.52995
2.54066
2.53501
2.55
2.55605
2.56036
2.47674
2.47932
2.47576
2.4714
2.48124
2.47554
2.46844
2.47391
2.47733
2.47508
2.47622
2.47474
2.4469
2.45593
2.45263
2.45944
2.44445
2.45799
2.45569
2.44728
2.44832
2.48698
2.47694
2.48443
2.48845
2.48876
2.48715
2.48342
2.48484
2.48209
2.48768
2.49158
2.4903
2.51693
2.52083
2.5217
2.52477
2.51734
2.52394
2.52902
2.52628
2.52325
2.52601
2.52079
2.53468
2.52933
2.53283
2.52272
2.52292
2.49161
2.48745
2.48583
2.48549
2.48158
2.48642
2.48502
2.48388
2.4834
2.48329
2.4828
2.47529
2.48148
2.48436
2.4855
2.50004
2.47961
2.47669
2.48498
2.47857
2.4919
2.48339
2.48593
2.48791
2.48545
2.49492
2.47715
2.4734
2.47972
2.4793
2.47881
2.47736
2.48972
2.49263
2.48814
2.49168
2.49092
2.48142
2.49056
2.49321
2.49129
2.50646
2.50365
2.50732
2.50293
2.50236
2.5003
2.50973
2.50744
2.50377
2.47678
2.48006
2.48521
2.48033
2.48245
2.48353
2.4785
2.48179
2.48412
2.48387
2.48462
2.48375
2.48168
2.48322
2.48178
2.50529
2.51134
2.50957
2.50859
2.51052
2.51153
2.50721
2.5182
2.51484
2.50504
2.49992
2.4966
2.49672
2.49141
2.49503
2.49437
2.50262
2.49858
2.50246
2.49888
2.49399
2.50459
2.49699
2.47592
2.47577
2.47012
2.47748
2.47588
2.4735
2.47352
2.47512
2.47953
2.47386
2.47819
2.47428
2.4978
2.49653
2.49289
2.49933
2.49322
2.49955
2.49892
2.50405
2.49347
2.50324
2.49436
2.49386
2.4951
2.49428
2.49638
2.49647
2.48818
2.48673
2.49201
2.49495
2.49552
2.48923
2.4968
2.49652
2.49115
2.49172
2.53316
2.52335
2.52787
2.52423
2.51382
2.51963
2.5227
2.51438
2.51424
2.52274
2.5279
2.52292
2.52659
2.52166
2.50612
2.51451
2.51535
2.51687
2.52417
2.51359
2.50552
2.5188
2.52275
2.51549
2.51538
2.51031
2.51289
2.45775
2.46283
2.46064
2.46314
2.48324
2.48181
2.48655
2.486
2.48478
2.48612
2.48561
2.4889
2.48417
2.4813
2.49001
2.4834
2.4911
2.48811
2.49532
2.49242
2.49461
2.4856
2.49221
2.48746
2.48278
2.4821
2.48439
2.48381
2.48995
2.48992
2.48839
2.48785
2.48576
2.48455
2.48615
2.48979
2.48974
2.48605
2.48677
2.46975
2.47221
2.46868
2.47098
2.47164
2.4707
2.47039
2.4717
2.46542
2.46434
2.46756
2.46803
2.46755
2.46024
2.46886
2.51121
2.52026
2.52509
2.52572
2.51818
2.523
2.51606
2.47865
2.4864
2.48447
2.47851
2.48206
2.4787
2.47915
2.47748
2.47193
2.4735
2.48051
2.47791
2.48723
2.48314
2.47776
2.47786
2.47916
2.47737
2.49021
2.48722
2.4922
2.49212
2.49741
2.49929
2.48022
2.48599
2.4868
2.48834
2.49777
2.49383
2.4894
2.50045
2.49938
2.49929
2.4949
2.49791
2.5011
2.50361
2.50243
2.49193
2.48985
2.48327
2.50819
2.50615
2.51776
2.51487
2.51126
2.51226
2.51385
2.51008
2.51386
2.45103
2.44816
2.44914
2.44764
2.44627
2.44883
2.45189
2.44714
2.44919
2.45488
2.4527
2.45248
2.45337
2.45275
2.44524
2.45378
2.47248
2.46085
2.53721
2.5334
2.53529
2.53043
2.54204
2.53736
2.53648
2.54074
2.54084
2.54285
2.53876
2.53128
2.52385
2.5202
2.5291
2.5263
2.53255
2.52927
2.52209
2.47002
2.47989
2.47619
2.47107
2.47419
2.46807
2.46915
2.46488
2.46227
2.47323
2.47284
2.468
2.47221
2.47336
2.47024
2.47255
2.47235
2.51159
2.51524
2.52199
2.51961
2.46556
2.46386
2.46121
2.46137
2.46425
2.46286
2.46595
2.46406
2.46786
2.45993
2.46828
2.47057
2.47587
2.46899
2.47328
2.46725
2.4667
2.47043
2.47522
2.47001
2.47662
2.474
2.50671
2.50352
2.50156
2.50286
2.50531
2.51054
2.50799
2.50942
2.50772
2.51105
2.50787
2.51045
2.50484
2.50479
2.50529
2.50955
2.50754
2.50819
2.50793
2.50421
2.50606
2.50543
2.50567
2.50339
2.50633
2.51736
2.52814
2.52213
2.5218
2.51904
2.53597
2.53118
2.52259
2.52516
2.53471
2.53538
2.5345
2.53201
2.52891
2.521
2.52031
2.52519
2.52104
2.53358
2.53022
2.53509
2.53338
2.53247
2.52736
2.45761
2.454
2.46276
2.4536
2.45517
2.45342
2.45355
2.45473
2.45651
2.51603
2.51526
2.51839
2.51647
2.51516
2.51196
2.52399
2.52355
2.49436
2.49341
2.46274
2.46583
2.46577
2.46799
2.47662
2.472
2.46782
2.46813
2.48098
2.47788
2.48404
2.45786
2.45348
2.45625
2.45614
2.46031
2.45953
2.46038
2.46152
2.46068
2.46094
2.45883
2.46055
2.49121
2.49613
2.49005
2.49882
2.49582
2.49206
2.49734
2.49749
2.51766
2.51583
2.45652
2.4601
2.46061
2.46807
2.46606
2.46273
2.46424
2.46793
2.46718
2.47054
2.46644
2.46823
2.47035
2.48022
2.48229
2.48741
2.4907
2.48889
2.48773
2.48899
2.48497
2.48644
2.48929
2.49003
2.48212
2.48564
2.48294
2.48513
2.48419
2.48577
2.45844
2.47243
2.46223
2.46984
2.46741
2.4669
2.46899
2.46729
2.46784
2.4587
2.46266
2.46265
2.45495
2.45775
2.45582
2.4626
2.46345
2.458
2.46451
2.4683
2.45905
2.45823
2.45362
2.45596
2.4612
2.4643
2.46566
2.46883
2.46797
2.46529
2.4658
2.47062
2.4694
2.47264
2.47158
2.4639
2.4704
2.47403
2.46913
2.47609
2.46903
2.47028
2.46888
2.47505
2.47192
2.46785
2.4729
2.46871
2.472
2.4733
2.47033
2.4886
2.49051
2.49508
2.49259
2.49568
2.5014
2.50184
2.49815
2.49619
2.49874
2.49622
2.49625
2.47592
2.47286
2.47597
2.47417
2.47559
2.47846
2.47705
2.47573
2.482
2.48129
2.47596
2.48075
2.47941
2.48022
2.48189
2.4789
2.49479
2.48924
2.49436
2.49315
2.50715
2.50871
2.50578
2.50907
2.51456
2.51181
2.50924
2.5071
2.50669
2.50591
2.44597
2.44109
2.43934
2.48014
2.47833
2.48344
2.48221
2.47937
2.47901
2.47967
2.46258
2.46763
2.47057
2.46061
2.45728
2.45836
2.45761
2.46233
2.45161
2.46172
2.50536
2.49874
2.50755
2.51
2.51173
2.51301
2.50874
2.50894
2.51558
2.5052
2.5071
2.50878
2.53971
2.5378
2.53973
2.54385
2.49504
2.48952
2.49328
2.49638
2.49516
2.48861
2.49061
2.49283
2.4923
2.49249
2.49393
2.49308
2.49676
2.48349
2.48273
2.4871
2.48145
2.47804
2.48579
2.48128
2.48117
2.48709
2.48699
2.48659
2.48619
2.48805
2.49001
2.48445
2.50676
2.51643
2.51615
2.51456
2.51388
2.49267
2.49754
2.50063
2.49435
2.49441
2.48774
2.49251
2.45539
2.45619
2.45588
2.45361