/*--------------------------------*- C++ -*----------------------------------*\
| =========                 |                                                 |
| \\      /  F ield         | OpenFOAM: The Open Source CFD Toolbox           |
|  \\    /   O peration     | Version:  v1612+                                |
|   \\  /    A nd           | Web:      www.OpenFOAM.com                      |
|    \\/     M anipulation  |                                                 |
\*---------------------------------------------------------------------------*/
FoamFile
{
    version     2.0;
    format      ascii;
    class       surfaceScalarField;
    location    "50";
    object      phi;
}
// * * * * * * * * * * * * * * * * * * * * * * * * * * * * * * * * * * * * * //

dimensions      [0 3 -1 0 0 0 0];

internalField   nonuniform List<scalar> 
37228
(
7.75404e-09
-1.83268e-09
1.94048e-09
-7.86186e-09
-5.66531e-09
-3.09711e-10
6.02674e-09
-5.1637e-11
-1.81864e-10
3.80901e-09
-2.71555e-09
-9.1184e-10
1.62476e-08
-7.93747e-09
-8.99085e-09
6.806e-10
1.47585e-08
1.15634e-09
-2.16735e-09
-1.37474e-08
2.50569e-08
-4.08568e-09
-9.44085e-09
-1.15302e-08
6.83e-09
8.21706e-09
1.00098e-08
-2.75797e-08
1.34436e-08
2.09662e-08
-1.2769e-08
-1.88962e-08
-3.26703e-10
-2.42112e-09
1.0965e-08
-4.02079e-09
1.71377e-08
1.22672e-08
-1.01761e-08
-1.15318e-08
-3.43488e-09
1.32811e-08
-1.10759e-08
-3.0575e-09
3.9575e-09
5.41315e-09
6.00726e-09
-2.24961e-08
1.08085e-08
1.15853e-08
-1.42585e-08
-8.13507e-09
3.00812e-09
-3.62407e-10
8.1629e-09
1.11585e-08
1.1267e-08
1.02284e-08
-1.60821e-08
8.11156e-09
9.80226e-11
1.02927e-08
-1.70544e-08
-1.89841e-08
1.4601e-08
-1.33383e-08
7.19141e-09
7.12919e-09
-1.0239e-08
-1.56215e-09
-1.67816e-10
-1.30391e-09
-1.36541e-08
1.51259e-08
-8.36498e-10
-9.29603e-09
9.96476e-09
7.02007e-09
8.00667e-10
-1.09562e-10
-7.71109e-09
3.54679e-09
-1.91393e-10
3.6646e-09
4.45193e-09
-8.76071e-09
7.79672e-09
-3.48788e-09
7.67194e-09
3.26791e-10
-8.59949e-09
-7.89278e-09
-4.2654e-10
1.6919e-08
-1.01354e-08
3.77852e-10
1.15808e-09
8.03436e-09
-6.27879e-10
3.46386e-09
-1.08702e-08
1.47228e-08
-1.45812e-08
-8.38697e-10
-1.06005e-08
-8.79653e-09
-8.12386e-09
7.17574e-09
4.25167e-09
-4.78702e-09
9.13414e-10
-3.91275e-09
7.73793e-09
4.97136e-09
2.19753e-09
6.38306e-09
6.26029e-09
-5.18465e-10
2.98885e-09
2.42885e-09
-7.73432e-09
-6.90504e-09
-3.28192e-09
6.6195e-09
3.56768e-09
-6.99424e-11
-1.54449e-09
-9.13246e-09
1.0747e-08
1.06458e-10
4.87048e-09
1.6335e-09
-6.61031e-09
4.71984e-09
-9.72114e-09
3.21842e-09
1.78295e-09
7.03009e-09
-1.09374e-09
-6.00625e-09
-3.37085e-09
-2.67465e-09
3.55386e-09
2.49166e-09
-5.0808e-10
-4.47322e-09
1.61047e-09
-4.68187e-09
-5.85695e-09
6.93215e-09
3.60672e-09
1.84016e-09
1.15351e-09
2.80362e-09
-3.85059e-09
-6.49174e-09
6.98949e-09
4.37289e-09
-1.85734e-09
-9.99953e-10
2.69661e-09
1.60853e-10
1.87423e-09
-4.11524e-09
-2.23212e-09
-9.14856e-10
1.14528e-10
-4.05544e-09
3.14902e-11
7.95944e-09
1.16097e-08
-1.80249e-08
-1.54422e-09
1.61503e-08
-1.3329e-08
5.13814e-09
5.18666e-09
-2.95391e-09
-4.55407e-09
2.32131e-09
-3.61582e-10
-7.48735e-09
1.30356e-08
7.89283e-09
-1.61699e-09
9.8745e-09
-1.28309e-08
2.03621e-08
9.46567e-09
-1.06869e-08
-1.11158e-08
4.15151e-09
-6.36476e-09
-9.88328e-09
-8.2909e-09
1.06868e-08
-1.13223e-08
-1.51488e-09
-1.04498e-08
4.27878e-09
3.05387e-09
-1.05121e-09
-1.31184e-08
2.18993e-10
-1.519e-08
-4.58887e-09
6.36928e-10
-4.33893e-09
-9.62703e-09
-6.28413e-09
-2.61073e-09
-1.2719e-08
1.55487e-08
1.02653e-08
-6.55156e-10
-1.22208e-08
-2.48995e-10
8.87282e-10
5.41904e-09
-7.12539e-09
5.01305e-09
1.56998e-10
-1.28529e-09
7.63698e-09
1.82398e-08
-3.19525e-08
6.07575e-09
-1.84285e-08
-1.70291e-08
2.92518e-08
6.20595e-09
-1.20683e-08
-1.69744e-09
3.00134e-08
1.32218e-08
-1.83974e-08
-2.76184e-09
-2.48931e-08
1.9489e-08
1.86259e-08
-2.40116e-08
-1.15271e-08
2.34705e-08
-1.77758e-08
-2.4041e-08
1.78053e-08
-2.22328e-08
-4.53381e-09
1.11437e-08
-2.19352e-08
1.71867e-08
-2.51927e-08
1.62109e-08
-8.20483e-09
3.24943e-09
1.10937e-09
-1.48703e-08
3.26619e-08
-8.51416e-09
-7.10434e-09
4.09169e-09
-3.00796e-08
-2.47551e-09
1.48846e-08
-6.01673e-09
-8.18719e-09
-7.78198e-09
-1.903e-08
4.57917e-09
-7.38288e-09
-4.97621e-08
8.6577e-09
-2.54696e-08
9.70779e-09
-1.93501e-08
1.31375e-08
-1.86032e-08
2.5025e-09
-3.13304e-08
-6.53119e-09
1.06033e-08
-1.80627e-08
-9.47731e-09
-2.68728e-09
-1.91657e-08
-2.24315e-08
-1.75536e-08
-7.45736e-09
-1.4337e-08
2.4013e-08
-2.21859e-09
1.44001e-08
-1.48579e-08
-6.99948e-09
-2.21551e-08
-5.84451e-09
1.36627e-08
-3.50171e-09
7.37146e-09
-2.60248e-08
-2.50268e-09
8.19047e-09
1.83253e-08
2.77005e-09
9.12743e-09
-2.08352e-08
-1.03788e-08
4.84599e-09
2.90034e-08
1.01965e-08
2.48575e-08
3.13436e-09
-2.06203e-08
3.33322e-09
6.83575e-10
2.0841e-08
-2.24817e-08
2.14916e-08
4.32353e-09
-1.52555e-08
4.27504e-09
3.06971e-08
-2.67815e-08
3.06126e-08
2.39018e-09
-1.91726e-08
6.65306e-09
1.01297e-08
1.12707e-08
2.26007e-09
-2.12384e-08
7.70788e-09
7.19991e-09
6.46099e-09
-1.01275e-08
-5.54451e-09
-3.50053e-09
-1.8807e-09
1.11283e-09
4.55303e-09
-3.78512e-09
1.69453e-08
6.00391e-10
-1.91178e-09
-1.56339e-08
7.24852e-09
-2.15282e-09
-1.35367e-08
8.44105e-09
-2.43182e-09
1.23976e-08
-2.76583e-09
5.69959e-09
-8.57849e-09
7.15653e-09
7.63599e-09
-1.00144e-09
-1.19348e-08
-8.57332e-09
-4.84586e-09
1.09874e-08
-1.49889e-08
8.67572e-09
-7.12755e-09
-8.41116e-09
-1.30228e-08
-1.01815e-09
-9.47988e-10
-1.29938e-08
-1.05173e-08
1.00778e-08
-5.7864e-10
7.31794e-09
-1.01992e-08
-2.20186e-09
7.43387e-09
3.23542e-09
-2.97304e-09
-1.45684e-09
4.31241e-09
1.1747e-10
-7.13412e-09
3.17266e-10
2.34901e-09
4.46776e-09
-1.68268e-09
-7.84067e-09
2.3892e-09
-4.56373e-09
-9.20254e-11
6.67063e-09
-5.27817e-09
-5.88911e-09
4.49665e-09
4.67966e-10
1.62497e-09
4.57766e-09
-6.83809e-09
-8.13514e-09
1.23177e-08
2.65553e-09
-1.04075e-08
3.88663e-09
1.53831e-09
2.4121e-10
-6.3433e-09
2.2249e-09
-8.52728e-09
3.22575e-09
-1.0893e-08
-8.71585e-09
5.33162e-10
-6.96018e-09
1.92319e-09
-3.29734e-09
-3.38291e-09
5.1533e-09
1.52711e-09
5.14624e-10
-7.06394e-09
3.25183e-09
2.78578e-09
2.4161e-09
-4.6874e-09
-4.94307e-09
1.3953e-08
-3.13453e-09
-5.87585e-09
1.10804e-08
-5.77547e-09
-1.02484e-08
1.26412e-08
2.07658e-09
-3.63771e-09
-2.80496e-09
2.82311e-09
1.2623e-08
1.79852e-09
9.34957e-09
-4.40405e-09
6.38233e-09
8.44902e-10
-4.7958e-09
-1.0254e-09
1.41709e-09
-6.11953e-09
4.5356e-09
-1.9266e-09
-2.46229e-09
-2.67502e-09
-4.59189e-09
-3.45446e-09
-3.33705e-09
-4.38952e-09
1.55515e-09
3.24291e-11
-7.36326e-09
1.19062e-09
-6.41609e-09
6.78046e-09
1.08493e-09
-4.38962e-09
-2.88038e-09
2.32091e-09
-4.23644e-09
1.51841e-10
-1.8416e-09
-2.03772e-09
3.27435e-09
-1.48861e-10
9.34786e-09
-2.4658e-09
-6.73299e-09
8.55833e-09
-2.36805e-09
-6.33896e-09
3.65956e-09
7.62528e-09
-2.72632e-09
8.36032e-09
-7.82642e-09
-2.9018e-09
-2.08695e-09
7.10718e-09
3.03593e-09
-8.05605e-09
8.72424e-09
-3.1665e-10
-1.04944e-08
3.48647e-09
5.97928e-09
-2.35841e-09
-9.3618e-10
-6.46007e-09
1.08828e-08
-6.29597e-09
9.01945e-09
-5.32863e-13
2.06499e-09
2.26373e-09
1.96092e-10
4.89239e-09
6.50038e-10
5.7547e-09
3.39881e-10
-5.50237e-09
5.81234e-09
-4.50548e-09
5.04151e-09
-4.3503e-10
-4.04869e-10
-1.02799e-09
1.02826e-08
9.21232e-09
-6.76029e-09
-1.27346e-08
-1.81053e-09
5.10169e-09
6.99152e-09
3.25836e-09
4.14346e-09
6.73931e-09
-3.31761e-09
-4.45968e-09
1.038e-09
1.34705e-09
5.80815e-09
-4.15927e-10
7.59247e-09
-3.3435e-09
-7.56658e-09
4.27726e-09
8.4765e-10
2.46756e-09
-5.35657e-09
4.84853e-09
3.76641e-09
4.79454e-09
8.29767e-10
-9.43073e-10
2.29258e-09
-6.70607e-09
5.34257e-10
-1.01158e-08
2.82124e-09
-6.73406e-09
4.77201e-09
2.80972e-09
-9.54332e-09
-3.02208e-09
1.11663e-08
-3.29563e-09
6.85161e-09
5.6511e-09
5.90131e-09
-6.75787e-09
8.71295e-09
1.56695e-09
-5.29636e-09
1.10206e-08
-1.79814e-09
-5.09487e-10
-3.48361e-09
8.21853e-09
-3.16785e-09
-4.41765e-09
1.02554e-09
-9.14939e-11
-8.7771e-10
5.07395e-10
3.92043e-09
-4.87651e-09
4.30929e-09
-3.10418e-10
5.35685e-09
-5.54696e-10
-1.50973e-09
-3.793e-09
4.73225e-09
1.03963e-09
-3.14432e-10
-1.98867e-10
-1.40131e-09
-1.62935e-09
-7.92006e-10
-7.26217e-09
-1.28716e-09
-7.2251e-09
-1.42789e-09
8.08568e-09
-7.44988e-09
4.8776e-09
-7.5927e-09
7.8843e-09
-9.57677e-09
-3.18288e-09
-1.12479e-09
-6.17537e-09
-7.9882e-09
-6.06227e-09
6.293e-09
7.7575e-09
-8.97105e-09
-1.03933e-10
1.08685e-09
-6.62387e-09
-7.0325e-10
1.26492e-09
-8.01159e-09
-7.58331e-09
-4.67107e-10
1.45202e-08
-7.76006e-09
-1.21731e-08
-1.41744e-08
2.58805e-08
-1.73441e-08
-7.70289e-09
1.28739e-08
-1.44543e-08
-9.9344e-09
1.02144e-08
-2.22544e-08
-9.54396e-09
-1.30092e-08
-1.5043e-09
-7.74078e-09
9.09388e-09
-4.20996e-09
-1.7893e-08
-1.18619e-09
-2.67963e-09
-3.55624e-09
7.42226e-09
-9.72934e-09
1.32329e-09
-2.02666e-09
6.46045e-09
1.37592e-09
-1.20463e-08
-4.77318e-09
-1.22226e-08
5.58694e-09
-4.21921e-09
8.44049e-09
4.1914e-09
-8.41268e-09
1.87535e-09
-5.91248e-09
-1.82075e-10
-1.0404e-09
1.85519e-09
7.62569e-09
9.5582e-09
-1.4925e-09
-8.77191e-09
7.06199e-10
5.58425e-09
-1.16213e-09
-5.33861e-09
9.16478e-10
2.02737e-09
3.64093e-09
-8.4035e-11
3.04668e-09
-9.61788e-09
9.95251e-09
-3.3813e-09
5.06963e-09
4.42355e-12
1.33573e-09
7.18203e-09
-5.47057e-09
8.89146e-10
6.43661e-09
4.57234e-11
-1.34545e-10
-1.06455e-08
-8.62936e-09
7.73594e-09
5.96305e-09
-7.31219e-10
2.0544e-09
-9.17538e-09
-3.11245e-09
1.65895e-09
1.06289e-08
-1.19305e-08
2.02392e-09
-1.0738e-08
8.96124e-09
-1.17455e-08
-1.0923e-08
-1.33725e-08
1.0284e-08
-9.33122e-09
1.20838e-08
1.0238e-08
8.12525e-10
9.29192e-10
9.88102e-09
1.28365e-09
5.14632e-10
-2.13474e-09
1.3704e-08
-1.06439e-08
1.2057e-08
-8.98296e-10
-8.27783e-10
6.49645e-11
-1.3075e-09
1.4898e-08
-1.09235e-09
1.11433e-08
1.19803e-08
1.13921e-09
3.8646e-09
-1.24913e-08
1.62727e-09
5.88084e-09
-1.70072e-08
1.4991e-08
8.33363e-09
-2.98086e-11
-1.10787e-08
2.77515e-09
7.20641e-10
1.34939e-08
3.62179e-09
-4.20124e-09
-1.19118e-08
-2.22638e-09
-1.11589e-08
-5.81664e-09
-3.6197e-09
1.01571e-08
-7.85144e-09
2.00515e-09
6.41276e-09
-1.16872e-08
6.9018e-09
-7.43874e-09
1.02319e-08
-9.28836e-09
-4.01663e-09
7.299e-09
-7.13093e-09
-1.18552e-08
8.00762e-10
-9.40371e-10
-1.22422e-08
9.10117e-10
-8.52991e-10
-6.19757e-09
7.87158e-09
-1.40882e-09
-3.68992e-10
-6.09381e-09
6.4139e-09
6.53091e-10
8.04532e-10
-9.79983e-10
-6.52224e-09
6.09341e-09
3.22227e-11
-8.36086e-10
7.21778e-09
-4.02473e-09
-4.04221e-10
4.46098e-09
-3.10561e-09
-1.25691e-10
-7.93496e-10
3.36627e-09
-5.93103e-10
-3.14221e-09
9.13756e-10
-3.14687e-09
-1.05307e-10
2.84788e-09
-2.29127e-09
-9.81342e-10
-2.84045e-09
2.95944e-10
2.43922e-09
-1.89229e-09
-8.28231e-10
-1.19891e-10
5.01682e-09
-5.55691e-09
3.19024e-09
-6.3521e-11
-4.10669e-09
1.48551e-09
-1.87445e-10
-2.1593e-09
-9.60278e-10
-2.81596e-09
1.34265e-08
-1.60082e-08
-1.05367e-08
6.42426e-09
6.37529e-10
-5.91873e-09
9.70117e-09
-5.06772e-09
2.64382e-09
-5.5742e-09
-4.19498e-09
6.69702e-09
-3.80106e-10
-3.67308e-09
3.56449e-10
2.42313e-10
9.3476e-09
-9.94635e-09
-6.44618e-09
6.84457e-10
6.07296e-10
1.14207e-08
-4.47492e-09
-2.10121e-09
-4.84447e-09
1.87669e-09
8.53078e-09
1.0132e-09
-2.46535e-09
7.11498e-10
-5.35224e-09
7.106e-09
-4.62709e-09
-2.19687e-09
4.35864e-09
-3.52329e-09
4.56773e-09
-3.32944e-10
-7.01416e-09
-2.18204e-09
5.67289e-09
-1.7225e-09
1.91699e-09
4.33212e-09
-4.52657e-09
4.9198e-09
8.11277e-11
-6.72344e-09
5.00197e-09
-4.55706e-09
4.79903e-09
2.28209e-10
-2.52376e-11
6.49555e-11
-5.46039e-09
4.32329e-11
-4.63704e-09
7.49275e-11
-5.81464e-09
-7.68471e-09
1.13981e-08
4.47886e-09
6.57885e-09
4.81242e-10
-5.14308e-09
-7.66885e-11
6.633e-10
4.55156e-10
-1.23228e-09
7.37177e-09
-5.65821e-09
-6.96575e-09
1.02096e-09
-5.28489e-09
7.18386e-09
1.48512e-08
-1.67503e-08
7.26354e-09
6.29943e-09
-1.88479e-08
3.01848e-09
1.3916e-08
-9.67089e-09
1.88083e-08
-8.60592e-09
1.09228e-08
1.24795e-08
-8.5511e-09
-1.7162e-08
2.15307e-09
-1.73349e-08
-1.45388e-08
3.90608e-09
-6.52936e-09
-1.03355e-08
-1.25421e-08
1.27022e-08
8.40554e-09
-2.29947e-09
8.34269e-09
1.20444e-08
-1.40877e-08
1.57148e-08
3.55079e-09
1.99238e-08
5.25788e-09
-1.65978e-08
-9.36757e-09
8.63047e-09
-1.54218e-08
-5.18281e-09
8.41019e-09
1.66964e-08
-1.20602e-08
-1.7331e-08
1.90557e-08
-1.97321e-08
2.48908e-09
-1.32834e-08
1.95684e-09
9.50073e-09
-8.86819e-09
-8.17654e-09
3.46309e-10
-5.49965e-09
3.88031e-09
-5.94249e-09
-5.06691e-09
7.12913e-09
-1.83071e-09
-2.55523e-09
8.26629e-09
5.40164e-09
7.44849e-09
-6.28082e-09
-6.56928e-09
6.37164e-09
-2.80071e-09
-8.76884e-09
7.39078e-09
-5.36601e-09
6.74401e-09
2.30793e-10
-1.55118e-09
-4.54759e-09
1.91711e-09
1.00212e-08
1.4392e-08
-1.2043e-08
-2.11813e-09
1.8217e-09
8.02272e-09
-2.60568e-09
2.87344e-09
-6.21031e-09
2.738e-09
-1.16244e-08
6.977e-09
-1.6282e-08
-3.00926e-09
1.04318e-08
-5.50548e-09
1.82911e-08
2.18719e-09
-1.35013e-08
7.42009e-09
1.26927e-08
1.51653e-08
-1.07545e-08
-6.47393e-09
1.15346e-08
-2.95383e-09
5.34263e-10
-1.03958e-08
1.28152e-08
-8.95862e-09
-1.38183e-09
7.38664e-09
2.20853e-09
-2.28901e-09
5.83536e-09
9.66911e-09
3.36929e-09
-3.41451e-09
9.14762e-10
3.26923e-09
-5.53035e-09
-4.27045e-11
-3.90893e-09
9.48205e-09
5.88557e-10
-5.40898e-09
-7.09785e-10
7.69591e-09
-2.60439e-10
-6.84686e-09
-4.96605e-09
1.26193e-08
-4.57205e-09
8.04425e-09
-2.48308e-09
-9.89134e-10
9.62627e-09
-5.80784e-09
-8.39046e-09
8.07879e-09
9.59179e-09
-4.28419e-09
-4.06422e-09
4.43954e-09
-7.55799e-10
3.86864e-09
-2.72498e-09
-6.33685e-09
5.98936e-09
3.07257e-09
-4.02027e-09
1.26811e-09
2.72889e-11
-1.87709e-10
-1.62028e-10
-3.67046e-09
-5.28241e-10
-5.99631e-09
-2.35289e-10
-5.43058e-09
2.56921e-10
-4.49729e-09
-2.21346e-11
1.16937e-09
-3.39534e-09
1.66216e-10
-5.93944e-09
-3.96622e-10
-4.24606e-10
-3.13275e-09
-5.58463e-09
-2.70486e-10
-2.28384e-09
1.44396e-09
4.03066e-09
-3.19096e-09
1.8944e-09
4.9142e-10
-4.67014e-09
2.92441e-09
4.03965e-09
-5.07026e-09
9.25453e-09
-1.0935e-09
-5.23665e-09
8.56343e-09
9.44444e-09
-8.7538e-09
-8.14533e-09
1.19564e-08
4.75209e-09
2.47123e-09
1.58546e-09
-3.56571e-09
4.4398e-09
-5.24759e-10
-2.18807e-09
-1.91768e-09
1.06871e-09
3.38507e-11
8.34103e-09
4.39053e-10
1.2586e-08
-5.61804e-10
-4.37415e-09
3.77951e-10
4.55758e-09
-5.2414e-09
4.71318e-09
5.14918e-09
-4.6576e-09
1.9444e-09
-2.03711e-09
-2.96213e-09
5.32196e-10
4.89954e-09
-3.0571e-09
-5.26151e-09
6.07832e-09
2.14165e-09
-6.64202e-10
1.7796e-09
6.55353e-09
-5.44381e-09
4.06341e-09
-5.17313e-09
1.13667e-09
5.97742e-09
-5.60563e-10
1.86302e-09
1.2218e-09
-8.52861e-09
-1.00051e-10
4.03429e-09
1.29211e-10
3.86921e-09
2.25942e-09
-4.26555e-09
3.7601e-09
9.10664e-12
-7.77004e-09
8.10165e-09
8.05091e-10
2.66402e-09
-9.21226e-09
-6.46617e-10
5.61601e-09
1.0081e-09
3.27428e-09
1.13424e-10
-2.54663e-11
-5.41001e-09
7.69492e-09
7.52823e-10
-5.63893e-10
5.42715e-09
3.49187e-09
5.35296e-10
8.85303e-09
-8.52686e-09
8.48043e-10
-1.17418e-09
-8.18957e-10
5.7841e-10
9.09364e-09
1.00088e-08
-7.3702e-09
-7.62761e-09
-3.55243e-10
7.16397e-09
-6.1457e-09
7.18254e-09
-2.23175e-10
6.88731e-09
-6.08561e-09
2.44559e-09
-1.202e-08
1.06436e-08
-1.06919e-09
8.56267e-09
7.8948e-10
-6.90656e-09
1.56941e-09
3.00446e-09
-9.26354e-09
4.6897e-09
4.22716e-09
5.90498e-09
-1.27668e-09
1.42225e-08
-4.84988e-10
-1.24608e-08
-1.26325e-09
9.63807e-09
-9.65143e-09
-1.67822e-10
2.03376e-09
-1.38859e-08
-9.74225e-09
8.31119e-09
3.38462e-09
-1.3094e-08
1.39366e-08
4.63548e-09
-1.14304e-08
9.79943e-09
-1.59693e-08
2.39894e-08
-9.84812e-09
1.35354e-08
1.05354e-08
1.64457e-09
-1.85461e-09
1.75693e-08
-1.60205e-08
-5.44412e-10
-7.07456e-09
-4.4835e-09
2.03299e-09
-6.91931e-09
-1.76155e-08
8.56558e-09
-4.8143e-09
-4.5297e-09
1.10621e-09
-6.90062e-09
-1.03435e-09
5.52105e-09
-4.73456e-09
3.19809e-10
1.69171e-10
2.22122e-09
4.76819e-10
-9.59864e-09
-4.8063e-09
-4.19378e-09
-1.2031e-08
-1.38707e-08
-2.96471e-09
-2.19817e-08
1.09233e-08
1.40232e-08
7.40263e-09
7.09536e-09
-1.74626e-08
-7.59802e-09
3.86504e-09
-1.82489e-08
-8.26796e-09
-2.9116e-08
2.07419e-08
1.66421e-08
-1.80778e-08
-1.59192e-08
1.44201e-08
1.95771e-08
-2.29469e-08
-2.72902e-09
1.50433e-08
-5.0424e-09
-3.29476e-08
-9.2871e-09
-6.08271e-09
-2.73862e-09
1.97448e-08
-8.20522e-09
9.52529e-09
8.97977e-09
-1.05318e-08
-3.63354e-08
2.29332e-08
1.06732e-08
-1.97733e-08
3.26312e-08
-2.18888e-08
-1.40115e-08
1.7734e-08
1.32736e-08
7.12363e-09
-2.95584e-08
7.01293e-09
1.999e-08
1.42888e-08
-2.71552e-08
-1.59258e-08
-1.00818e-08
2.26729e-08
-7.63831e-09
-3.38181e-08
1.87836e-08
1.07835e-08
4.41922e-09
7.47019e-09
1.43267e-08
5.61085e-09
-2.75758e-08
1.17281e-08
1.59671e-08
-1.33685e-08
3.67145e-08
-8.09401e-09
-1.05981e-09
2.35715e-08
1.2743e-08
-2.12199e-08
-1.08175e-09
3.41389e-08
-1.709e-08
2.47848e-08
-1.31235e-08
-7.29846e-09
2.49062e-08
1.65312e-08
1.19867e-08
-1.24736e-09
-4.04658e-09
2.73432e-09
2.55935e-09
-5.93174e-09
2.83563e-09
1.84879e-09
-3.38981e-09
-4.51363e-09
1.97151e-09
-2.21625e-09
-5.22034e-09
1.89843e-09
-2.54729e-09
3.38308e-09
-4.13778e-10
5.14764e-09
-5.45726e-10
-1.42362e-09
-2.54445e-09
-5.1541e-09
6.8855e-09
-2.2776e-09
4.40256e-09
-2.08734e-09
-7.46997e-09
-1.34452e-08
4.65722e-09
-4.81086e-09
1.35983e-08
-2.69398e-09
-6.34873e-09
1.1129e-08
1.65386e-08
-7.86015e-09
-1.13725e-08
8.27029e-10
1.09008e-08
5.22514e-09
-3.29612e-09
-9.78945e-09
7.58254e-09
-1.44572e-09
-9.11775e-10
5.8623e-09
-7.90571e-09
2.52205e-09
-1.41676e-09
7.67737e-09
2.71118e-09
-8.9718e-09
3.16247e-09
-4.64947e-09
7.02696e-11
-5.93475e-09
1.01211e-08
-9.73082e-09
-8.8855e-09
1.29852e-09
4.78238e-09
2.80461e-09
4.18868e-09
-1.02497e-09
-1.19273e-12
-6.48646e-09
3.84692e-09
1.3926e-08
-1.12863e-08
-3.50353e-10
4.61574e-09
-1.07517e-08
4.49228e-09
2.83467e-09
2.66387e-09
6.0171e-09
3.66353e-09
-4.56248e-09
-1.25971e-10
6.30444e-09
-2.13935e-09
-3.05221e-09
-4.73554e-09
1.12464e-08
5.23241e-09
7.40288e-09
3.08373e-09
-4.40675e-09
-6.07973e-09
3.98705e-09
3.63192e-09
-2.15953e-10
-3.06713e-09
4.00789e-09
3.04641e-09
-3.84707e-12
2.05665e-11
-3.89192e-09
3.62635e-09
3.89758e-09
-1.32018e-08
2.73419e-09
6.5757e-09
-2.74729e-09
1.50464e-09
-1.19591e-08
3.26261e-10
7.30805e-09
5.0298e-10
-7.65695e-09
9.45546e-09
-1.26733e-09
-6.68343e-09
4.17046e-09
8.01924e-09
-1.68718e-09
4.91273e-09
-4.49259e-09
3.16409e-09
-4.34826e-09
-3.21752e-09
-3.03688e-09
6.58082e-09
-3.26502e-09
4.37408e-11
-4.72619e-11
5.19963e-09
-2.39497e-10
-1.48101e-10
6.33321e-09
-6.46317e-09
-5.00482e-09
-3.44458e-09
1.49126e-08
-4.52569e-09
3.90822e-09
-5.84561e-09
1.50226e-09
4.33301e-09
-8.75111e-09
2.91585e-09
4.83438e-09
-7.33683e-09
4.00474e-09
5.99288e-09
-6.66466e-09
-5.51954e-09
6.90934e-09
-7.02233e-09
-1.62031e-09
-6.23621e-10
9.26626e-09
-3.76153e-09
3.80896e-09
-7.06974e-09
-1.88753e-10
-5.18042e-09
-3.3819e-09
-4.45073e-09
-3.07484e-09
-3.81169e-09
4.89175e-09
9.85589e-10
-2.06558e-09
7.70646e-10
-8.34379e-09
-4.87695e-10
-4.49191e-09
4.54005e-10
-6.20147e-09
1.94319e-10
-1.90894e-09
-2.59387e-10
-2.23041e-09
6.29879e-09
3.20014e-09
3.5813e-09
-6.01073e-09
4.67336e-09
-4.87624e-10
2.48217e-09
-2.25953e-09
-3.98111e-09
2.61841e-10
3.22056e-09
-3.62033e-09
-1.53072e-09
-1.29329e-09
5.78846e-09
-4.67728e-09
-5.19684e-10
3.80865e-09
5.19946e-10
-3.55786e-09
-2.63291e-10
-7.671e-10
4.58848e-09
1.26993e-09
-1.60781e-08
4.29353e-09
1.05146e-08
-1.30392e-08
3.82394e-09
1.04847e-08
4.60267e-09
-6.59998e-09
1.06914e-08
-8.69432e-09
-3.18882e-09
-5.24799e-09
1.01038e-09
-4.31161e-09
7.125e-09
-3.39144e-09
7.25033e-09
-2.84841e-09
-8.42228e-11
-7.80916e-09
-2.24668e-09
-3.14004e-09
-5.71082e-09
6.61293e-09
-1.30928e-09
1.84808e-09
-4.85067e-09
2.8467e-09
1.13585e-09
-7.54026e-09
2.54385e-09
-5.40813e-09
-4.08531e-09
1.10044e-08
3.63205e-09
-1.05513e-08
8.837e-09
-3.82485e-10
3.38894e-09
6.69222e-09
-1.94058e-09
2.7022e-09
8.26531e-09
-1.135e-08
-8.68046e-09
2.31922e-09
9.06351e-09
1.39036e-09
-1.46615e-09
8.34113e-09
2.59453e-09
-5.70091e-11
1.05718e-08
-1.31092e-08
1.25059e-09
1.04246e-08
-9.08064e-09
2.41883e-09
8.57266e-09
-1.10483e-08
-7.31828e-09
-2.30924e-10
9.96804e-09
-3.6365e-09
7.3227e-09
8.19966e-09
-1.17075e-10
-3.66066e-09
4.68034e-09
9.02485e-10
-2.46564e-09
1.05527e-08
1.98215e-09
-1.00691e-08
5.23568e-09
-7.81438e-09
1.13074e-10
-3.04052e-10
1.57253e-08
-4.86854e-09
7.3753e-09
-2.44362e-09
-1.01346e-10
5.14424e-09
1.91218e-10
-5.23398e-09
-4.16092e-09
3.99873e-09
6.08747e-11
-2.6328e-09
-5.07655e-09
4.71437e-10
7.23807e-09
3.12389e-11
2.48039e-09
7.0793e-09
-4.53686e-09
-5.60217e-10
1.70661e-09
1.187e-08
2.14869e-09
3.85099e-09
-3.40439e-09
-4.60753e-09
-5.21529e-09
4.13747e-09
-3.03931e-09
-5.74985e-09
9.26072e-09
-6.47149e-09
3.46354e-09
2.31444e-09
8.33845e-09
1.04905e-09
-2.0122e-09
1.44587e-08
-3.15253e-10
5.83768e-09
-1.39333e-08
-5.38523e-09
1.3481e-08
-6.07494e-09
1.64092e-09
1.02718e-08
7.254e-09
1.14025e-09
-3.62489e-09
-4.76929e-09
-2.39919e-10
3.40597e-09
4.08799e-09
-4.57604e-09
1.82588e-09
2.51029e-09
-8.50265e-10
-2.58552e-09
5.2239e-09
1.5079e-08
-4.91112e-09
-1.53917e-08
1.52855e-08
-9.22545e-10
-9.13901e-09
-4.2034e-09
1.72312e-08
2.25783e-09
1.36817e-08
-2.80604e-09
1.61772e-09
1.6802e-09
-6.36612e-09
-4.81958e-09
2.31383e-09
5.91178e-09
-1.40226e-09
-8.0536e-09
4.63635e-09
6.89423e-09
-4.26135e-09
-7.4171e-09
-1.3201e-09
3.74041e-09
3.96252e-09
-6.38278e-09
-1.04926e-08
7.94915e-09
-5.05897e-09
8.78168e-09
-5.74164e-09
5.56534e-09
5.77036e-09
-3.38654e-09
4.30164e-09
3.08961e-09
-3.06983e-09
7.0246e-09
3.49978e-10
4.58062e-09
1.53974e-09
5.81242e-09
1.15781e-08
-9.67498e-09
-2.09331e-09
1.90081e-10
-1.32447e-09
1.27903e-08
1.12266e-10
-4.51325e-09
-8.16951e-09
8.20104e-09
4.48166e-09
-6.36779e-09
2.0082e-09
-1.53689e-10
-2.07732e-09
-9.79412e-09
2.19639e-09
-6.67835e-09
4.64537e-09
-4.4374e-11
-1.40491e-08
-6.98502e-10
1.34231e-08
-1.32926e-08
-2.84975e-09
-6.46374e-09
-3.79894e-10
-1.32588e-09
-6.56433e-09
-6.2672e-09
-9.3491e-10
6.08617e-10
9.80583e-09
-1.72314e-09
-8.46266e-09
-4.76622e-10
9.34755e-09
-4.48035e-09
6.96954e-10
-6.01075e-09
5.39866e-09
-3.67649e-09
-6.20255e-09
-1.40741e-09
1.27722e-10
1.02903e-08
-1.14655e-08
-5.02422e-09
-7.57142e-09
6.60008e-09
1.51735e-09
-1.17939e-08
-1.37169e-09
5.14834e-09
-1.18084e-08
8.17741e-09
-8.4128e-09
8.53693e-09
-1.04484e-08
-5.45225e-11
4.82268e-09
5.68021e-09
1.05152e-08
2.5965e-10
-2.21571e-09
-8.55929e-09
-2.57189e-09
2.6387e-09
-1.81568e-08
-4.41658e-10
1.4461e-09
1.71524e-08
2.76529e-09
-3.47903e-09
-1.74431e-08
1.40796e-08
-1.10546e-08
7.68601e-09
6.33911e-09
8.18123e-09
-1.87107e-09
5.60034e-09
9.00773e-12
-1.44219e-08
1.30388e-08
9.41605e-10
-9.79488e-10
-1.69215e-08
-9.33273e-09
1.25594e-09
1.59286e-08
-7.85186e-09
-4.25063e-10
4.13108e-09
-6.99777e-09
6.48595e-09
-6.60387e-09
7.11568e-09
-1.08297e-08
3.40682e-09
-5.41644e-09
4.57182e-09
5.66724e-09
1.57878e-11
1.68104e-10
1.23137e-08
1.01892e-08
-1.30397e-08
6.87297e-09
-7.5135e-09
2.84912e-10
-2.43042e-08
2.26839e-08
-1.02347e-08
1.18553e-08
1.13859e-08
-1.96627e-08
-1.60274e-08
-1.64123e-08
1.47735e-08
2.43227e-08
-2.52382e-09
-3.62346e-09
3.15346e-08
-1.4384e-08
2.63813e-08
-1.56206e-08
1.53538e-08
-1.12584e-08
-2.3758e-08
4.03349e-10
4.7159e-09
-1.99317e-08
2.44325e-08
1.65002e-08
-9.52279e-09
-3.14098e-08
1.49986e-08
-8.11958e-09
8.6663e-09
-3.52355e-09
1.13576e-08
3.73322e-09
-3.88439e-08
2.81944e-10
-1.11044e-09
9.63213e-09
-8.80355e-09
-6.52339e-10
-7.63202e-09
8.56638e-09
5.86054e-09
1.89532e-09
3.22823e-10
-6.89166e-09
5.91652e-09
6.94907e-09
-7.73666e-09
1.76866e-09
1.00712e-08
6.15907e-09
-5.82032e-09
-8.23949e-11
-2.50217e-10
-3.30287e-09
9.5158e-09
-4.44416e-09
7.61855e-09
5.5157e-11
-1.15421e-08
3.8684e-09
3.89251e-09
-1.02363e-08
1.39624e-08
-1.55757e-09
-3.1034e-09
8.55348e-09
-3.93602e-09
-1.89056e-09
4.26905e-09
-6.98208e-09
7.12704e-09
7.68455e-10
3.48293e-09
-8.03611e-09
-5.75021e-09
1.86935e-09
8.75484e-09
-1.2559e-08
-2.41483e-09
9.33429e-10
-7.16552e-10
-4.12102e-09
2.94703e-09
2.45747e-09
-7.10714e-09
3.9332e-09
-4.41784e-09
3.77196e-09
-2.82543e-09
4.2023e-09
1.90805e-09
-1.2505e-09
1.81292e-09
-4.90663e-09
-1.02721e-09
-6.48142e-09
1.18722e-09
-6.44567e-09
-3.86895e-10
1.16229e-10
-3.11479e-09
-2.42817e-09
-3.93698e-09
-5.88497e-09
3.0586e-09
3.08376e-09
-4.10756e-09
-2.0348e-09
-1.00153e-09
-2.7567e-09
-2.31662e-09
6.07474e-09
5.12039e-09
-3.06325e-09
6.94016e-09
-5.05532e-09
-4.64156e-09
-7.30952e-09
1.13329e-09
1.10971e-08
-4.9209e-09
1.03345e-08
-1.31121e-08
-4.53189e-09
5.98968e-09
-1.7726e-09
1.6002e-09
9.39881e-10
2.5804e-09
3.74797e-09
6.65944e-09
-4.41772e-09
5.05943e-09
2.88769e-10
7.49484e-09
1.96516e-09
8.7449e-10
8.84971e-09
8.51268e-10
-6.40735e-09
7.93003e-09
-2.37393e-09
-1.31597e-09
6.12609e-09
-3.9588e-09
2.46018e-09
5.00509e-09
-8.05832e-10
6.20363e-09
-6.99435e-09
2.51976e-10
3.35005e-10
1.91096e-09
5.97311e-09
-3.9765e-09
-2.3921e-09
3.9548e-10
7.50422e-10
3.64508e-09
1.57758e-09
-9.04252e-09
3.17684e-09
6.61607e-09
-6.42117e-09
1.2968e-09
-3.91816e-09
-5.50116e-09
-4.89651e-09
-5.27861e-09
-4.7592e-10
3.36244e-09
-1.05274e-08
2.10055e-09
1.16037e-08
-6.17966e-09
-3.05099e-09
9.82838e-10
9.79731e-09
-1.26478e-08
1.86762e-09
-7.19781e-09
2.00101e-09
8.89087e-09
-5.09254e-09
5.999e-09
1.32067e-08
-2.21529e-09
-2.72959e-09
-5.15346e-09
2.38185e-09
5.48338e-09
-2.72667e-09
-5.48631e-09
4.34763e-09
-8.90955e-09
-5.91524e-10
-5.8615e-09
-1.87481e-09
-4.91145e-09
-8.71169e-09
-8.30312e-09
-1.52649e-09
4.73709e-09
1.05274e-09
-8.47958e-10
7.59606e-09
-4.83452e-09
3.45696e-10
1.73987e-08
4.32013e-11
-1.25664e-09
-1.61855e-08
7.38499e-09
3.53401e-09
6.47956e-09
-1.00624e-08
5.76178e-09
1.16856e-08
-3.79035e-10
-9.6402e-09
7.4098e-09
-4.80486e-10
-8.18615e-09
5.8736e-09
-8.59651e-13
-5.14973e-09
5.89872e-09
2.67005e-10
-6.16666e-09
3.37571e-09
-6.67927e-10
5.8113e-09
-1.96104e-09
-4.74665e-10
-2.02654e-09
4.78055e-09
6.11835e-09
-6.23042e-09
-1.79476e-09
5.63886e-09
7.0815e-09
-2.92424e-09
3.26017e-09
-2.70747e-09
-3.41464e-09
-1.31011e-09
7.43224e-09
-3.50218e-09
-3.00187e-09
3.79659e-09
1.99311e-09
-6.63308e-09
1.13777e-09
4.00815e-09
-5.42971e-09
3.51457e-09
-2.15707e-09
-1.50749e-09
1.50022e-10
-5.20801e-09
7.41248e-09
5.59165e-09
-4.81345e-09
-2.93525e-09
4.02872e-09
-1.05192e-09
-2.07283e-09
1.22904e-10
-2.3379e-09
-2.26307e-09
-2.0321e-09
-2.66418e-09
1.0477e-10
-1.81834e-09
-2.59963e-09
-2.31346e-09
-2.09727e-09
-1.48011e-09
-3.00241e-09
-4.26947e-09
-2.84262e-09
6.06461e-09
1.95363e-09
-5.17549e-09
4.72207e-09
-7.50314e-09
-6.14711e-11
7.83184e-09
-3.24242e-09
-4.07402e-09
-5.15366e-10
-5.13226e-09
2.61504e-09
-4.41481e-09
6.93212e-09
-9.10892e-09
1.40225e-09
2.57446e-09
3.44502e-09
6.36247e-09
-5.61901e-09
-3.98585e-09
5.21808e-09
-7.96001e-09
4.1442e-09
-1.10205e-09
8.93519e-09
5.08841e-11
1.59898e-09
-3.32584e-10
9.3702e-09
-9.43268e-09
-1.94296e-08
1.94921e-08
1.03609e-08
-3.06942e-09
-2.69844e-09
-3.66476e-09
7.70864e-09
-3.61405e-09
7.05882e-09
-6.07842e-09
1.30504e-09
-2.28531e-09
1.92161e-08
-1.32593e-08
1.68113e-09
-1.24935e-10
-4.81301e-10
-6.90585e-09
7.51233e-09
-2.68502e-10
-6.47493e-09
6.61854e-09
-2.21194e-09
7.67102e-09
-3.91473e-09
-1.54421e-09
6.19435e-09
-1.71463e-09
-6.69153e-09
6.41931e-10
6.76067e-09
7.42101e-09
-7.26024e-09
-4.71082e-09
4.04089e-09
-6.23574e-09
-4.99138e-09
-1.21578e-08
2.82395e-09
7.61943e-09
1.11449e-09
4.01366e-09
-2.97462e-09
-2.15337e-09
-9.23188e-10
2.20567e-09
-1.677e-10
-1.28993e-09
5.70932e-10
-2.03875e-10
-4.08381e-09
1.41376e-09
4.87575e-09
-2.85376e-09
2.78366e-09
1.9405e-09
-2.24308e-10
-3.00601e-09
-3.5892e-09
2.09226e-09
3.88559e-09
-2.27374e-09
-3.70427e-09
7.18224e-09
-3.67637e-09
-1.59691e-09
1.9879e-09
6.79112e-09
2.39442e-09
-1.0584e-10
3.3854e-09
-2.37979e-09
-1.48805e-09
-2.1472e-10
-2.1459e-10
-7.64647e-11
-3.0398e-09
-8.79103e-10
1.73508e-09
-4.76007e-09
3.03278e-09
-2.79273e-09
6.44849e-10
-2.74799e-09
2.31817e-09
-2.15357e-10
-2.35427e-09
3.07543e-09
-7.64187e-11
3.31434e-10
2.76705e-09
-3.17466e-09
7.61828e-11
3.34668e-09
-3.13936e-09
1.24145e-10
1.63557e-09
1.70754e-09
3.68539e-12
6.10761e-10
3.62213e-09
-4.16563e-09
-6.72758e-11
4.23918e-09
-3.5828e-09
-4.56247e-11
3.94421e-10
-4.17598e-09
3.93084e-09
-1.49334e-10
-4.29482e-09
4.85378e-09
-1.64525e-10
-3.99063e-09
-2.60538e-11
-1.59309e-10
-4.05856e-10
4.3771e-09
-4.04722e-11
9.11082e-10
4.96184e-09
-5.60068e-09
-2.72225e-10
5.71126e-09
-4.75565e-09
-4.45451e-11
-1.96957e-09
4.73038e-09
-2.74256e-09
-1.82349e-11
-6.58737e-09
4.96849e-09
-3.50659e-10
6.79887e-10
1.96552e-09
-2.43824e-09
-2.07977e-10
-1.67165e-09
2.45854e-09
-1.0717e-10
8.99767e-10
-2.38919e-09
-1.82307e-10
1.89667e-09
4.15369e-09
-5.96321e-09
-8.7099e-11
6.24985e-09
-4.50869e-09
1.55504e-10
-1.86471e-09
5.9482e-09
7.02374e-11
-1.21391e-09
-2.81243e-09
-8.04647e-11
-3.88288e-09
2.82035e-09
-1.51362e-10
2.35065e-11
-3.70643e-09
-1.99929e-10
8.04152e-10
-4.79792e-09
4.0688e-09
-7.49922e-11
-4.59054e-09
5.35508e-09
3.96161e-11
-1.26942e-10
-4.746e-09
7.50366e-11
1.21956e-09
-3.5073e-09
2.48819e-09
-2.00549e-10
-2.34551e-09
3.66216e-09
-9.70624e-11
1.58374e-09
-3.90077e-09
-2.84523e-11
4.3398e-09
-2.85169e-09
9.56396e-11
-1.18319e-09
-5.25247e-09
1.68422e-10
4.70065e-09
-5.96202e-09
7.82199e-11
-6.61997e-09
-4.17003e-12
6.25311e-09
-1.74689e-09
1.94395e-10
1.00793e-09
-5.03592e-09
4.34743e-09
-3.19416e-10
-3.44258e-09
4.55024e-09
-9.97391e-11
1.86534e-09
-5.27011e-09
-3.78122e-11
1.73016e-09
-7.98804e-09
6.17324e-09
8.46406e-11
-6.71038e-09
8.11512e-09
3.25397e-10
-2.26665e-10
5.05836e-09
-4.97263e-09
1.40931e-10
5.14887e-09
-5.51845e-09
1.4291e-10
-2.17356e-10
-3.98932e-09
4.16491e-09
4.18149e-11
-4.84894e-09
4.52156e-09
1.10069e-10
2.2098e-09
3.7082e-09
-5.83788e-09
-8.01317e-11
-3.62099e-09
5.66126e-09
1.69526e-10
-1.97643e-09
5.5913e-09
9.33098e-11
-9.03382e-10
-3.97448e-09
4.18193e-10
-4.65132e-09
3.37878e-09
3.69167e-10
-7.95513e-11
4.88955e-09
-4.85222e-09
4.22373e-11
4.87311e-09
-5.0585e-09
1.05877e-10
2.53337e-09
-2.74851e-09
3.61985e-10
-1.46971e-10
3.37231e-10
2.5743e-09
-2.75795e-09
-1.53658e-10
2.89331e-09
-2.27918e-11
3.11205e-09
-4.06461e-10
-1.31213e-10
1.40826e-10
3.63938e-09
-3.62478e-09
-1.55266e-10
-2.64978e-10
3.61925e-09
-3.16713e-09
-1.87237e-10
3.16642e-09