/*--------------------------------*- C++ -*----------------------------------*\
| =========                 |                                                 |
| \\      /  F ield         | OpenFOAM: The Open Source CFD Toolbox           |
|  \\    /   O peration     | Version:  v1612+                                |
|   \\  /    A nd           | Web:      www.OpenFOAM.com                      |
|    \\/     M anipulation  |                                                 |
\*---------------------------------------------------------------------------*/
FoamFile
{
    version     2.0;
    format      ascii;
    class       volScalarField;
    location    "150";
    object      p;
}
// * * * * * * * * * * * * * * * * * * * * * * * * * * * * * * * * * * * * * //

dimensions      [0 2 -2 0 0 0 0];

internalField   nonuniform List<scalar> 
19069
(
3.82872
3.85756
3.86115
3.86144
3.85178
3.8555
3.85944
3.86073
3.85539
3.85697
3.85597
3.86092
3.85728
3.8551
3.8554
3.85768
3.85423
3.85794
3.85614
3.85766
3.85547
3.85617
3.85187
3.85378
3.85784
3.83304
3.83227
3.83298
3.83718
3.83673
3.83213
3.83585
3.83365
3.83642
3.83449
3.83336
3.83817
3.83707
3.83138
3.84239
3.84179
3.8465
3.84586
3.84191
3.84729
3.84063
3.84434
3.84097
3.83655
3.84562
3.84692
3.85016
3.84143
3.84316
3.84408
3.84311
3.84168
3.84148
3.85546
3.84915
3.85546
3.85349
3.85564
3.85474
3.85173
3.85533
3.8562
3.84875
3.84698
3.85228
3.85717
3.85301
3.84509
3.85081
3.8527
3.84864
3.85451
3.85031
3.85463
3.84784
3.84753
3.84451
3.8519
3.85258
3.84747
3.85185
3.84846
3.84802
3.8469
3.84739
3.84501
3.84643
3.81606
3.81131
3.81415
3.81099
3.82123
3.81287
3.82087
3.8119
3.81748
3.81146
3.81389
3.82027
3.83195
3.82923
3.83116
3.83042
3.82938
3.83169
3.82826
3.83168
3.83052
3.83127
3.82857
3.82851
3.8309
3.83104
3.82845
3.82919
3.83153
3.83276
3.83468
3.8358
3.83623
3.83476
3.83147
3.83689
3.83539
3.83057
3.837
3.83652
3.83818
3.83562
3.83037
3.8356
3.83363
3.83497
3.77896
3.77943
3.78902
3.78504
3.77008
3.78219
3.78616
3.79146
3.77076
3.76874
3.77393
3.78584
3.7866
3.78989
3.78289
3.78105
3.78139
3.77586
3.77569
3.78244
3.77084
3.73378
3.73442
3.74389
3.74777
3.74869
3.75802
3.73789
3.73568
3.76096
3.75332
3.74479
3.75299
3.76049
3.76183
3.77077
3.76094
3.74654
3.742
3.75829
3.77216
3.83601
3.83515
3.83656
3.83548
3.83971
3.84125
3.83398
3.84013
3.8431
3.84086
3.83837
3.83626
3.83535
3.84022
3.8388
3.83958
3.82873
3.8317
3.83211
3.83523
3.82984
3.83479
3.83489
3.83738
3.84095
3.83534
3.83459
3.83177
3.83868
3.84057
3.83834
3.84305
3.83842
3.83508
3.83599
3.84241
3.84125
3.84361
3.84194
3.84165
3.8434
3.84139
3.84474
3.75725
3.75231
3.76738
3.75561
3.7613
3.7689
3.77279
3.76457
3.75532
3.77971
3.77013
3.7562
3.76949
3.77609
3.77644
3.78405
3.7764
3.74832
3.74725
3.74777
3.74945
3.75268
3.75691
3.75555
3.74271
3.75559
3.76349
3.76801
3.76628
3.76723
3.7492
3.76127
3.75951
3.81289
3.81081
3.81721
3.80609
3.81019
3.80621
3.81133
3.80085
3.80877
3.80573
3.81106
3.80774
3.8
3.80237
3.80099
3.79925
3.86046
3.86027
3.85548
3.85952
3.86315
3.86488
3.86069
3.85614
3.85693
3.85864
3.85943
3.85547
3.8608
3.85667
3.85776
3.85254
3.86203
3.85668
3.85506
3.85686
3.85721
3.83811
3.83733
3.83869
3.83475
3.83985
3.83933
3.83514
3.8391
3.83681
3.83604
3.83482
3.8351
3.83383
3.83871
3.84592
3.84686
3.84597
3.84683
3.84637
3.85113
3.84744
3.84077
3.84987
3.84839
3.84929
3.84473
3.8482
3.85578
3.85014
3.77749
3.78021
3.78031
3.76989
3.77888
3.78309
3.78871
3.78387
3.78536
3.787
3.79007
3.78973
3.79295
3.78925
3.78969
3.79238
3.79502
3.79308
3.82909
3.82611
3.81907
3.82565
3.82966
3.83101
3.81454
3.82685
3.82503
3.82881
3.82307
3.82093
3.83534
3.83229
3.83462
3.82494
3.82209
3.80892
3.82343
3.81669
3.83123
3.83128
3.83614
3.8306
3.83681
3.84013
3.82865
3.83334
3.82996
3.83218
3.83884
3.83784
3.83698
3.83197
3.83141
3.83482
3.83708
3.83646
3.82759
3.82289
3.82445
3.82744
3.81928
3.82193
3.83005
3.82244
3.82535
3.82275
3.82526
3.82847
3.82716
3.82092
3.82264
3.82942
3.82858
3.80403
3.8079
3.80148
3.80601
3.80044
3.80237
3.80451
3.80336
3.80309
3.80027
3.80119
3.80227
3.79783
3.80304
3.80335
3.79412
3.79413
3.80168
3.80152
3.79747
3.78125
3.78226
3.78512
3.78849
3.78825
3.78659
3.77997
3.79095
3.77651
3.77359
3.77581
3.78467
3.78715
3.78705
3.78502
3.7808
3.76664
3.77125
3.78857
3.77919
3.78901
3.7715
3.77769
3.78493
3.7843
3.78024
3.79776
3.7911
3.79075
3.82106
3.81849
3.81667
3.81353
3.82032
3.82242
3.81235
3.80838
3.81546
3.81567
3.80846
3.80855
3.81605
3.814
3.81379
3.81255
3.83223
3.83347
3.83649
3.83609
3.84314
3.83571
3.84064
3.83965
3.83203
3.82932
3.83732
3.83704
3.82986
3.83245
3.83449
3.82032
3.81661
3.81817
3.81862
3.81782
3.82078
3.82024
3.81298
3.8138
3.81904
3.81775
3.81374
3.81685
3.81191
3.81461
3.82245
3.81633
3.8167
3.82013
3.76706
3.77022
3.75832
3.75154
3.74646
3.74849
3.77662
3.75705
3.74524
3.7676
3.75534
3.76603
3.76541
3.76151
3.76516
3.83218
3.83178
3.82756
3.8265
3.83314
3.83162
3.83326
3.83343
3.82785
3.82476
3.82628
3.83254
3.81981
3.83498
3.83085
3.86428
3.85967
3.86138
3.86487
3.85877
3.86003
3.86145
3.86316
3.86614
3.8648
3.86416
3.86282
3.85869
3.86481
3.85647
3.86436
3.85796
3.86553
3.86623
3.85675
3.85528
3.8537
3.85777
3.85681
3.84981
3.85599
3.85119
3.85037
3.85431
3.85371
3.85083
3.85405
3.84805
3.85373
3.84988
3.85065
3.82464
3.82757
3.82476
3.83054
3.82199
3.82092
3.82049
3.82276
3.82466
3.83028
3.82715
3.82201
3.82453
3.8485
3.84828
3.85288
3.85478
3.8426
3.85194
3.85535
3.85929
3.85306
3.84879
3.84685
3.85403
3.85396
3.84591
3.84928
3.83764
3.83258
3.83376
3.83651
3.83389
3.84104
3.832
3.84381
3.83796
3.83605
3.83857
3.83354
3.84137
3.84193
3.83577
3.85875
3.85734
3.85724
3.85417
3.85292
3.86394
3.8575
3.8558
3.8409
3.83652
3.83278
3.8342
3.83796
3.8358
3.83823
3.83908
3.83198
3.83067
3.83229
3.83425
3.83019
3.83208
3.83671
3.86441
3.86149
3.86097
3.85999
3.85737
3.85953
3.86147
3.85932
3.86127
3.8619
3.85895
3.85921
3.85109
3.84261
3.84882
3.84814
3.84718
3.85145
3.85475
3.85674
3.85592
3.85439
3.85084
3.8476
3.8498
3.85264
3.85863
3.85199
3.84819
3.85114
3.85746
3.85607
3.85748
3.85363
3.77264
3.77043
3.76312
3.77119
3.77603
3.76006
3.75835
3.76881
3.76611
3.76319
3.76854
3.7658
3.75593
3.76073
3.84847
3.84817
3.85165
3.84726
3.84738
3.84951
3.85743
3.84924
3.84744
3.84419
3.84696
3.85124
3.85017
3.84761
3.8503
3.84761
3.84675
3.84999
3.85201
3.85112
3.85931
3.85943
3.85618
3.85789
3.85811
3.85725
3.84874
3.85767
3.85571
3.8593
3.8628
3.85483
3.85579
3.8599
3.85471
3.85929
3.85568
3.85604
3.76744
3.77563
3.7714
3.76553
3.76125
3.76754
3.77764
3.77429
3.76021
3.77291
3.76914
3.74862
3.75336
3.7722
3.76592
3.80926
3.80627
3.80734
3.80278
3.81274
3.81833
3.81107
3.8069
3.80072
3.79918
3.81201
3.80909
3.80979
3.81115
3.81362
3.81834
3.80715
3.8072
3.81807
3.81751
3.81281
3.80766
3.80909
3.81313
3.80884
3.81401
3.81766
3.81368
3.81503
3.81376
3.81229
3.81084
3.8361
3.83553
3.83742
3.83342
3.83507
3.83645
3.83617
3.83549
3.83946
3.83625
3.84117
3.8361
3.83975
3.8345
3.83382
3.83814
3.83822
3.83722
3.8392
3.8291
3.82709
3.82906
3.83087
3.82891
3.82552
3.85233
3.85729
3.85072
3.84785
3.84985
3.84975
3.84529
3.84806
3.84536
3.84588
3.85158
3.85074
3.84878
3.8524
3.84428
3.85297
3.85193
3.85252
3.85477
3.83729
3.8417
3.8375
3.83749
3.84684
3.84408
3.84285
3.84736
3.84634
3.84771
3.8464
3.85099
3.85001
3.84836
3.8461
3.84646
3.84847
3.84518
3.84111
3.84332
3.80003
3.80908
3.80848
3.8088
3.82278
3.81673
3.80895
3.80093
3.80366
3.81782
3.81551
3.8182
3.82294
3.81626
3.81798
3.82286
3.8141
3.81484
3.85326
3.85293
3.84836
3.8484
3.8548
3.85545
3.85217
3.85435
3.8524
3.85116
3.84664
3.8495
3.85209
3.85084
3.85107
3.85431
3.85446
3.85342
3.85568
3.86444
3.86396
3.85378
3.85564
3.85611
3.85409
3.85653
3.85508
3.85987
3.86248
3.85798
3.85242
3.8579
3.85482
3.85515
3.85203
3.85272
3.85352
3.85224
3.84857
3.85639
3.85041
3.85583
3.8547
3.85285
3.85036
3.85263
3.84936
3.85309
3.85563
3.85746
3.84982
3.85451
3.86231
3.85925
3.85681
3.84663
3.84381
3.84019
3.85057
3.84907
3.85278
3.84735
3.8429
3.84532
3.84296
3.84693
3.85073
3.85577
3.84094
3.85026
3.84772
3.85026
3.84709
3.85707
3.85396
3.84893
3.84977
3.82196
3.82577
3.82121
3.82021
3.82568
3.82483
3.82386
3.8252
3.82629
3.82335
3.82552
3.82498
3.82456
3.82211
3.82394
3.82335
3.8198
3.82547
3.8251
3.81873
3.82627
3.81605
3.8136
3.84919
3.84671
3.8466
3.85013
3.84928
3.85146
3.84986
3.84558
3.83309
3.83025
3.82767
3.82873
3.82431
3.83087
3.83018
3.82484
3.82871
3.82783
3.82673
3.83294
3.83169
3.82746
3.82499
3.83075
3.83597
3.83441
3.82916
3.82796
3.82891
3.82874
3.83039
3.82896
3.833
3.82993
3.83151
3.82813
3.82595
3.82945
3.82732
3.83183
3.84377
3.83963
3.8434
3.84049
3.83929
3.83986
3.83767
3.84127
3.837
3.83805
3.83961
3.8438
3.84192
3.84304
3.84463
3.8407
3.8429
3.8241
3.82451
3.83115
3.8299
3.82566
3.82351
3.83053
3.82607
3.82351
3.82324
3.81524
3.82442
3.82136
3.82249
3.82738
3.82845
3.82662
3.82609
3.83092
3.82971
3.82921
3.83071
3.83269
3.83335
3.83797
3.83813
3.83365
3.83803
3.83613
3.83543
3.83499
3.83188
3.83941
3.84156
3.83279
3.83821
3.8426
3.83843
3.79537
3.80472
3.78901
3.7971
3.80527
3.78071
3.79841
3.7932
3.79756
3.80271
3.79913
3.79684
3.79778
3.79034
3.79427
3.79232
3.80326
3.80343
3.8012
3.79809
3.7875
3.78779
3.7894
3.80562
3.80978
3.81209
3.80652
3.81415
3.81435
3.81298
3.81482
3.8089
3.81352
3.80738
3.72885
3.73199
3.74153
3.74062
3.73005
3.74152
3.72113
3.72477
3.74697
3.73464
3.72786
3.81596
3.81748
3.84322
3.84628
3.8342
3.83772
3.82184
3.82158
3.83883
3.83219
3.82782
3.83068
3.84299
3.82634
3.83902
3.83811
3.84138
3.83073
3.64999
3.65507
3.67418
3.68804
3.69108
3.70758
3.71067
3.71137
3.68266
3.68438
3.86823
3.86439
3.78809
3.77961
3.78313
3.78078
3.77462
3.86857
3.86534
3.8568
3.85229
3.85434
3.8531
3.87696
3.8762
3.87618
3.87698
3.774
3.8305
3.82889
3.83588
3.73482
3.73325
3.73009
3.82104
3.82734
3.82577
3.81722
3.82124
3.85983
3.86145
3.85729
3.74383
3.7373
3.74151
3.83924
3.84278
3.79674
3.76933
3.77193
3.76805
3.78815
3.78104
3.78647
3.84644
3.84634
3.85032
3.84412
3.82231
3.81982
3.817
3.83189
3.83536
3.83226
3.76878
3.76279
3.76143
3.83647
3.83707
3.82999
3.8295
3.78281
3.7778
3.78609
3.7756
3.7888
3.78647
3.81436
3.81882
3.81889
3.83142
3.83994
3.83379
3.83957
3.80638
3.8008
3.80904
3.82495
3.82959
3.83626
3.8378
3.83303
3.82041
3.81199
3.81868
3.82189
3.79587
3.79146
3.78368
3.79639
3.79643
3.81893
3.81583
3.81269
3.80512
3.81104
3.80735
3.82475
3.82512
3.83539
3.84077
3.83553
3.83658
3.83694
3.833
3.83713
3.83939
3.83616
3.83391
3.83269
3.83278
3.822
3.81665
3.81513
3.80689
3.811
3.82699
3.82985
3.83306
3.83762
3.83896
3.82097
3.82955
3.82785
3.81987
3.82425
3.82011
3.8199
3.84711
3.84099
3.83646
3.83487
3.81712
3.81578
3.8346
3.83291
3.84006
3.83783
3.83558
3.82779
3.82423
3.82162
3.84427
3.8422
3.84631
3.84085
3.8401
3.83008
3.82484
3.83015
3.82479
3.8348
3.83126
3.82901
3.83891
3.83848
3.83365
3.83735
3.82775
3.82996
3.83867
3.838
3.83597
3.83437
3.84089
3.832
3.84394
3.84063
3.83792
3.84632
3.84335
3.85041
3.85597
3.8555
3.8472
3.84762
3.83832
3.8377
3.85026
3.84644
3.8424
3.85423
3.84988
3.84799
3.84378
3.8446
3.84735
3.84496
3.8476
3.84282
3.84315
3.84169
3.85066
3.85231
3.86066
3.85227
3.851
3.84787
3.8491
3.84756
3.84943
3.85333
3.85158
3.85156
3.84745
3.84452
3.85282
3.84778
3.85933
3.8578
3.86418
3.85879
3.85902
3.86371
3.85664
3.86452
3.85957
3.86239
3.86244
3.8563
3.85631
3.86361
3.8602
3.85822
3.86295
3.85808
3.85458
3.86167
3.86074
3.85858
3.8658
3.86345
3.86166
3.86216
3.85394
3.8625
3.86586
3.86025
3.85605
3.85625
3.85597
3.86298
3.86679
3.86003
3.85916
3.85713
3.85477
3.85261
3.85522
3.85931
3.86556
3.86371
3.86134
3.86393
3.85916
3.85741
3.86029
3.85998
3.85526
3.85546
3.85887
3.85582
3.85621
3.85556
3.85906
3.86226
3.85919
3.86503
3.86226
3.85645
3.85898
3.85158
3.86307
3.86003
3.85366
3.86108
3.85838
3.85899
3.85647
3.85664
3.8585
3.8513
3.8599
3.85814
3.85125
3.85299
3.85323
3.85466
3.84992
3.86032
3.85704
3.85358
3.85821
3.85476
3.85341
3.86029
3.8643
3.86003
3.85946
3.85792
3.85772
3.85317
3.85552
3.86062
3.85675
3.8598
3.86389
3.85767
3.85812
3.85636
3.85938
3.85536
3.85667
3.85909
3.85616
3.85425
3.85959
3.85912
3.86028
3.85662
3.8562
3.86453
3.85707
3.85768
3.85871
3.85971
3.85778
3.85266
3.84905
3.85493
3.85151
3.85182
3.85842
3.85356
3.86379
3.85968
3.84715
3.85094
3.85485
3.85534
3.84832
3.85277
3.84569
3.84663
3.84089
3.84544
3.84407
3.84907
3.84516
3.85062
3.84752
3.85393
3.85931
3.85401
3.84834
3.84777
3.8497
3.85038
3.84605
3.84469
3.85371
3.84826
3.84897
3.85029
3.84686
3.84483
3.84952
3.84662
3.84608
3.84113
3.84431
3.85099
3.85535
3.85172
3.84714
3.85585
3.84958
3.85116
3.85271
3.85147
3.85885
3.8519
3.85699
3.85591
3.85299
3.8487
3.84158
3.85017
3.84527
3.84537
3.85535
3.84716
3.84501
3.84805
3.84395
3.84514
3.84799
3.84243
3.84898
3.8544
3.84934
3.85485
3.85585
3.85375
3.84956
3.85368
3.84837
3.86033
3.85323
3.8486
3.84973
3.84912
3.85527
3.85015
3.85182
3.85656
3.85913
3.85457
3.85251
3.8541
3.8459
3.84783
3.85377
3.84851
3.8534
3.84473
3.85127
3.84914
3.84878
3.84476
3.84942
3.84879
3.85663
3.85891
3.86129
3.84864
3.85545
3.85345
3.8504
3.85111
3.85196
3.85755
3.8515
3.85412
3.85008
3.85313
3.85179
3.84926
3.84553
3.8533
3.84993
3.84909
3.84011
3.83758
3.84034
3.83908
3.84727
3.84508
3.84137
3.83681
3.83921
3.84263
3.84452
3.8429
3.84418
3.83871
3.84477
3.83895
3.84393
3.84147
3.83839
3.83675
3.84136
3.84484
3.84718
3.84337
3.84682
3.84294
3.84136
3.84808
3.84388
3.84654
3.84645
3.84644
3.84288
3.84321
3.84802
3.83854
3.84491
3.84552
3.84126
3.83994
3.84338
3.8492
3.84718
3.8445
3.84495
3.84451
3.85156
3.84651
3.84492
3.84703
3.85063
3.85345
3.85138
3.8514
3.84875
3.85627
3.85514
3.85383
3.85453
3.84977
3.84661
3.85461
3.84941
3.85042
3.83782
3.83602
3.84752
3.84589
3.8529
3.84672
3.84223
3.84329
3.84698
3.84894
3.84813
3.84876
3.84735
3.84838
3.83779
3.83576
3.83241
3.83965
3.83859
3.83642
3.83678
3.8377
3.84435
3.84143
3.84284
3.84113
3.83981
3.84915
3.84571
3.83723
3.8377
3.84047
3.84172
3.84624
3.84125
3.84846
3.84575
3.85112
3.84534
3.84666
3.84502
3.8453
3.84478
3.84836
3.84263
3.84328
3.84236
3.84368
3.84708
3.84368
3.84703
3.84678
3.8481
3.85113
3.8476
3.84509
3.8428
3.85134
3.84789
3.84028
3.83195
3.84261
3.83824
3.83908
3.84167
3.8442
3.84152
3.84636
3.84406
3.84368
3.84317
3.84076
3.84589
3.84915
3.84269
3.84059
3.83755
3.83513
3.82785
3.8324
3.8228
3.83259
3.8299
3.83537
3.83254
3.83075
3.83653
3.82678
3.8323
3.83087
3.83822
3.82959
3.84152
3.83581
3.83514
3.83549
3.83897
3.83822
3.82567
3.81721
3.81952
3.821
3.83006
3.82743
3.82327
3.81968
3.83072
3.83026
3.82527
3.82738
3.82778
3.83152
3.83956
3.83781
3.83576
3.83486
3.83512
3.8259
3.82639
3.82811
3.8266
3.83115
3.83663
3.8342
3.83593
3.83035
3.83785
3.83326
3.83362
3.83631
3.83955
3.83449
3.83305
3.83652
3.84036
3.83958
3.83975
3.8375
3.8411
3.84324
3.83773
3.83591
3.84392
3.83874
3.83812
3.83154
3.83286
3.84031
3.8337
3.83502
3.83741
3.84083
3.83818
3.84639
3.84669
3.84254
3.82414
3.83358
3.82451
3.82654
3.83264
3.83052
3.83441
3.82933
3.83387
3.83102
3.82204
3.81965
3.8195
3.82565
3.82293
3.82155
3.82037
3.81813
3.82211
3.82003
3.8224
3.82121
3.812
3.84216
3.83576
3.83026
3.82531
3.82616
3.82784
3.83048
3.84235
3.8351
3.83471
3.83894
3.84244
3.84165
3.84334
3.83422
3.83503
3.83276
3.83771
3.84056
3.83853
3.83668
3.83586
3.8443
3.84223
3.84317
3.84423
3.84304
3.8478
3.84302
3.84088
3.84879
3.82626
3.8256
3.82452
3.8193
3.81756
3.82338
3.82033
3.81786
3.81809
3.82202
3.82466
3.81882
3.82537
3.8255
3.82238
3.82253
3.82203
3.82907
3.82835
3.82688
3.83982
3.83634
3.83492
3.84265
3.83997
3.84026
3.84693
3.84143
3.84175
3.8428
3.84064
3.83754
3.83561
3.83056
3.83567
3.83261
3.83377
3.83835
3.8313
3.83527
3.84199
3.832
3.83292
3.83273
3.83712
3.83655
3.80584
3.81275
3.81033
3.81263
3.81696
3.81127
3.81241
3.80602
3.81293
3.81092
3.81021
3.82259
3.81686
3.81809
3.81563
3.81292
3.81173
3.82364
3.82285
3.82279
3.82019
3.81416
3.81565
3.81621
3.81561
3.83671
3.83445
3.84205
3.83613
3.83897
3.83707
3.83522
3.82285
3.82536
3.81997
3.82466
3.82437
3.8158
3.81119
3.81819
3.81602
3.81389
3.80992
3.81136
3.819
3.81539
3.81326
3.82835
3.82854
3.82777
3.82165
3.81662
3.81596
3.82041
3.81889
3.8184
3.82968
3.83077
3.82646
3.83552
3.83947
3.8398
3.83586
3.83512
3.8393
3.83887
3.84448
3.84071
3.8391
3.83768
3.8428
3.83743
3.84012
3.82677
3.82558
3.83128
3.82344
3.83514
3.83417
3.83561
3.83359
3.83284
3.82833
3.83742
3.83363
3.83523
3.83235
3.83465
3.83107
3.83323
3.80283
3.7997
3.79882
3.80117
3.80032
3.80656
3.80364
3.80897
3.80394
3.80374
3.80814
3.80626
3.80181
3.81033
3.80929
3.8161
3.81951
3.81888
3.81838
3.81294
3.81178
3.81608
3.81313
3.80638
3.8092
3.8134
3.80994
3.80282
3.81059
3.81265
3.82606
3.82657
3.83196
3.82567
3.82959
3.83358
3.83285
3.83343
3.83471
3.83663
3.83292
3.83349
3.8323
3.83987
3.83549
3.83372
3.83461
3.83322
3.83524
3.83229
3.83792
3.83878
3.83239
3.83521
3.82875
3.83426
3.83452
3.83691
3.83633
3.83605
3.83975
3.83824
3.83373
3.83599
3.83773
3.83461
3.83704
3.83731
3.83627
3.83637
3.83675
3.83571
3.83781
3.83226
3.83428
3.83366
3.83234
3.83753
3.83698
3.83583
3.83594
3.8304
3.83358
3.83522
3.83495
3.83002
3.82846
3.83082
3.82823
3.82638
3.81881
3.82758
3.81511
3.8178
3.81801
3.81753
3.8081
3.80834
3.82584
3.83163
3.82406
3.82042
3.82226
3.8247
3.79412
3.79719
3.79951
3.80359
3.80278
3.80049
3.79546
3.8041
3.80076
3.79651
3.79837
3.79928
3.79588
3.7999
3.80019
3.807
3.8036
3.81305
3.8135
3.8121
3.81349
3.81525
3.81923
3.81845
3.8158
3.81324
3.8085
3.81699
3.81624
3.80884
3.80906
3.80792
3.82128
3.82629
3.82524
3.82483
3.78452
3.78353
3.79305
3.79065
3.79182
3.79825
3.79054
3.79438
3.79127
3.79979
3.79863
3.79579
3.80453
3.80553
3.80472
3.80238
3.77597
3.77885
3.78019
3.77903
3.78046
3.80324
3.80058
3.80761
3.7987
3.79973
3.79423
3.80301
3.79735
3.79883
3.8232
3.82055
3.8156
3.81824
3.81034
3.81302
3.80821
3.8103
3.82727
3.82762
3.81866
3.82421
3.82247
3.81937
3.81663
3.83362
3.83022
3.83112
3.83337
3.83063
3.83416
3.83355
3.81974
3.8262
3.82606
3.82232
3.82035
3.81963
3.82431
3.82031
3.83065
3.82669
3.82967
3.82382
3.80401
3.7973
3.81082
3.80709
3.80136
3.8002
3.80379
3.81332
3.81007
3.80924
3.8091
3.81229
3.81163
3.8373
3.83531
3.84056
3.84152
3.8391
3.84008
3.84597
3.83856
3.83526
3.83819
3.80958
3.81317
3.81667
3.80959
3.8142
3.81535
3.82045
3.77965
3.77132
3.77105
3.781
3.7782
3.77628
3.77952
3.78418
3.79456
3.79907
3.78728
3.78475
3.78351
3.78371
3.79025
3.78864
3.7843
3.79247
3.79426
3.77236
3.77144
3.77403
3.77345
3.77889
3.77636
3.76758
3.77119
3.76309
3.77432
3.77144
3.76955
3.77266
3.78753
3.7799
3.79753
3.79459
3.7935
3.79369
3.79236
3.8349
3.83838
3.83911
3.84644
3.84438
3.83539
3.84327
3.83962
3.84119
3.84152
3.83904
3.84028
3.83904
3.84245
3.8386
3.84207
3.83718
3.83846
3.84003
3.84108
3.83406
3.83962
3.83533
3.84337
3.83542
3.83688
3.83552
3.7641
3.75419
3.75907
3.75706
3.73666
3.75034
3.74124
3.74198
3.8426
3.84081
3.8392
3.84165
3.8443
3.83634
3.83796
3.83375
3.83434
3.83608
3.82916
3.83742
3.83289
3.83288
3.82896
3.83573
3.83737
3.82968
3.82887
3.82024
3.8205
3.82457
3.82771
3.82253
3.81976
3.83288
3.82955
3.83178
3.82192
3.81247
3.81578
3.81751
3.8159
3.81307
3.8089
3.81023
3.83189
3.83713
3.83402
3.83538
3.83218
3.83238
3.84904
3.84914
3.85351
3.84977
3.84626
3.84741
3.84933
3.84874
3.84564
3.76961
3.77144
3.77426
3.77555
3.77478
3.77231
3.78994
3.79973
3.78785
3.78805
3.8058
3.79175
3.7977
3.80609
3.80256
3.79851
3.79359
3.79406
3.79199
3.79157
3.7941
3.77424
3.77567
3.76975
3.73776
3.7427
3.7443
3.75787
3.75915
3.75377
3.74912
3.75028
3.76204
3.76739
3.76583
3.74753
3.74581
3.75923
3.76486
3.7639
3.76292
3.75226
3.75454
3.77518
3.78672
3.77765
3.77658
3.78277
3.78149
3.78758
3.84353
3.84657
3.84076
3.84955
3.83357
3.8429
3.84039
3.84092
3.83433
3.83386
3.84002
3.84153
3.85035
3.84708
3.84878
3.84734
3.84612
3.73348
3.73454
3.73634
3.70035
3.7172
3.72016
3.72608
3.72548
3.72762
3.75347
3.74931
3.75473
3.7666
3.75341
3.74995
3.74532
3.76923
3.76888
3.85448
3.85948
3.85642
3.8611
3.85752
3.86382
3.86682
3.85784
3.85573
3.86419
3.85912
3.85875
3.85535
3.85984
3.85993
3.85066
3.85204
3.84668
3.85229
3.85356
3.85391
3.84473
3.84477
3.8497
3.85494
3.85277
3.84664
3.84664
3.84699
3.84957
3.80774
3.80964
3.81083
3.81394
3.80123
3.81194
3.80529
3.80217
3.80498
3.80997
3.81096
3.80604
3.81421
3.81641
3.82926
3.81657
3.82274
3.82088
3.81924
3.8215
3.8209
3.81685
3.81812
3.81149
3.83069
3.82968
3.83735
3.82989
3.83286
3.8396
3.84229
3.83661
3.84789
3.78453
3.79326
3.79681
3.79305
3.82201
3.80952
3.8213
3.81919
3.82352
3.82849
3.83497
3.81352
3.81525
3.80814
3.80345
3.79797
3.80361
3.79409
3.80085
3.82655
3.82949
3.81883
3.81818
3.82844
3.8176
3.81236
3.82097
3.81731
3.82604
3.82498
3.83622
3.84044
3.82064
3.8405
3.82965
3.83241
3.83035
3.70374
3.71219
3.71878
3.70742
3.71524
3.71479
3.70016
3.71755
3.72175
3.70389
3.70769
3.74209
3.75227
3.7319
3.74018
3.73725
3.75213
3.75354
3.7531
3.75497
3.73019
3.72794
3.72761
3.84596
3.84647
3.84804
3.82813
3.83397
3.82852
3.82705
3.82617
3.82884
3.82686
3.8335
3.82956
3.83056
3.75031
3.76413
3.7709
3.76875
3.76054
3.79186
3.7831
3.77796
3.77752
3.78582
3.77211
3.77148
3.77804
3.77621
3.88054
3.87701
3.88241
3.87744
3.88298
3.87497
3.8738
3.87007
3.86935
3.85812
3.86799
3.86139
3.86536
3.86913
3.86863
3.86472
3.86617
3.86036
3.85876
3.85678
3.85199
3.85944
3.85501
3.85439
3.83941
3.84286
3.8491
3.84136
3.84291
3.83798
3.8448
3.84893
3.84625
3.84288
3.84808
3.84607
3.84604
3.84495
3.84831
3.85146
3.84196
3.83777
3.84275
3.83236
3.85036
3.84634
3.84701
3.84847
3.85264
3.85146
3.84926
3.84723
3.84468
3.85173
3.85135
3.85281
3.8506
3.84992
3.85257
3.84639
3.8619
3.85881
3.85238
3.8638
3.86316
3.72303
3.73593
3.73546
3.73994
3.76773
3.75921
3.76804
3.76775
3.77633
3.78393
3.77692
3.77984
3.78536
3.78588
3.79386
3.79931
3.80044
3.79089
3.78341
3.76632
3.76373
3.75742
3.77074
3.77589
3.80627
3.80597
3.79322
3.79409
3.79219
3.81542
3.82152
3.81471
3.79443
3.80347
3.8544
3.84181
3.85591
3.8585
3.85552
3.85113
3.84488
3.8592
3.85383
3.87282
3.87639
3.8754
3.87027
3.86609
3.87098
3.87043
3.87321
3.86095
3.86101
3.87487
3.86479
3.86391
3.8652
3.86939
3.86866
3.6531
3.65822
3.65427
3.65552
3.66077
3.6717
3.67029
3.67299
3.6803
3.67475
3.68168
3.66672
3.67417
3.68332
3.67065
3.6788
3.67254
3.67242
3.67641
3.71927
3.724
3.74807
3.71167
3.71743
3.67291
3.66854
3.67014
3.68043
3.65954
3.70339
3.71467
3.72365
3.7059
3.69622
3.68837
3.70297
3.7105
3.70094
3.70551
3.71932
3.72468
3.71588
3.71141
3.71708
3.7106
3.65986
3.65012
3.65003
3.65111
3.79917
3.80668
3.78657
3.79923
3.79041
3.78338
3.77749
3.77616
3.67052
3.66818
3.66604
3.74863
3.74398
3.74703
3.74049
3.72572
3.73007
3.72484
3.72476
3.72854
3.74281
3.72915
3.7407
3.7394
3.72983
3.72116
3.73929
3.7348
3.73339
3.72351
3.72685
3.71458
3.69506
3.69248
3.68491
3.68862
3.68868
3.684
3.70212
3.71587
3.68522
3.68539
3.71813
3.70489
3.71182
3.71846
3.70395
3.72399
3.71734
3.71555
3.70247
3.70352
3.69932
3.68622
3.69703
3.68795
3.69117
3.68512
3.69132
3.6913
3.87014
3.86576
3.87284
3.83878
3.83483
3.84219
3.81716
3.80832
3.80494
3.81495
3.77744
3.78198
3.78694
3.76774
3.76775
3.76848
3.78529
3.78617
3.76157
3.75894
3.75104
3.75533
3.74947
3.76839
3.76101
3.76809
3.77383
3.7574
3.75379
3.74265
3.75356
3.75197
3.74341
3.74116
3.74737
3.7494
3.85102
3.85477
3.85881
3.85738
3.85354
3.8459
3.85266
3.85117
3.85013
3.85357
3.8474
3.86805
3.87126
3.87343
3.86834
3.80773
3.81667
3.81971
3.82188
3.81468
3.8171
3.81048
3.82389
3.83072
3.82442
3.82692
3.82889
3.81978
3.81726
3.84196
3.84225
3.83616
3.844
3.82174
3.81142
3.81356
3.8129
3.82083
3.81132
3.84355
3.84832
3.84538
3.85199
3.84268
3.84773
3.84095
3.84001
3.83802
3.84348
3.84271
3.84645
3.8367
3.86517
3.86988
3.86131
3.86659
3.86138
3.86069
3.86584
3.86402
3.86538
3.86195
3.76782
3.77964
3.77929
3.76777
3.76258
3.76445
3.76886
3.78136
3.77916
3.77753
3.78058
3.77963
3.72422
3.73169
3.73001
3.73087
3.73383
3.74046
3.74591
3.74416
3.73626
3.73196
3.75073
3.76855
3.75813
3.75618
3.75465
3.77037
3.76134
3.78691
3.79132
3.79467
3.7986
3.7802
3.78197
3.7779
3.79109
3.78186
3.78118
3.79645
3.79
3.85651
3.85521
3.85824
3.85144
3.85364
3.84668
3.85396
3.84492
3.84603
3.84493
3.83613
3.83337
3.8359
3.83563
3.83449
3.83682
3.83267
3.8306
3.83495
3.82839
3.83455
3.83256
3.83506
3.8359
3.83624
3.83605
3.83491
3.79107
3.77931
3.78753
3.78855
3.7967
3.79482
3.78626
3.78083
3.82382
3.82079
3.81528
3.81627
3.82583
3.81843
3.82275
3.82345
3.83502
3.84117
3.83745
3.83348
3.83646
3.83605
3.83392
3.83411
3.836
3.83592
3.83969
3.8407
3.84394
3.84496
3.84744
3.84209
3.84424
3.84422
3.84535
3.83842
3.83417
3.84188
3.83773
3.83613
3.83619
3.83555
3.83104
3.8365
3.83282
3.83458
3.83576
3.81952
3.81685
3.81803
3.81237
3.80986
3.81475
3.82156
3.81498
3.81938
3.81759
3.8336
3.82905
3.83155
3.83608
3.82829
3.82867
3.83162
3.82814
3.82987
3.82881
3.83097
3.82182
3.82805
3.82354
3.8202
3.82444
3.82336
3.82235
3.82654
3.82416
3.82777
3.83123
3.82601
3.82352
3.82375
3.82677
3.82496
3.82383
3.82704
3.82723
3.82525
3.82043
3.82994
3.79589
3.79423
3.79289
3.79864
3.80186
3.79668
3.78847
3.7954
3.80157
3.80098
3.79861
3.79485
3.7998
3.78173
3.79286
3.78498
3.79162
3.79008
3.79733
3.79755
3.79758
3.79909
3.81964
3.81746
3.81552
3.8181
3.82058
3.82499
3.81269
3.8184
3.81639
3.81933
3.83613
3.83493
3.83478
3.82958
3.8407
3.83383
3.83692
3.83
3.83669
3.83341
3.8389
3.83228
3.83408
3.83177
3.83376
3.83322
3.83566
3.83894
3.83149
3.83578
3.83394
3.83723
3.83513
3.8357
3.83685
3.7916
3.79626
3.7917
3.79672
3.79459
3.79655
3.83604
3.83117
3.82711
3.82598
3.82629
3.82561
3.82916
3.82691
3.83653
3.83391
3.83083
3.83335
3.8268
3.83471
3.83101
3.8494
3.84406
3.84325
3.83898
3.84365
3.83929
3.83023
3.83791
3.83303
3.8317
3.83257
3.82886
3.83307
3.83299
3.83606
3.83748
3.83512
3.8351
3.83819
3.83331
3.8404
3.84441
3.838
3.83703
3.83995
3.84655
3.84412
3.84367
3.84368
3.84703
3.83549
3.83718
3.83943
3.83442
3.83805
3.84125
3.82567
3.81537
3.81628
3.81834
3.81479
3.81308
3.82192
3.82158
3.82724
3.81998
3.82672
3.82891
3.82699
3.82828
3.8443
3.84805
3.84764
3.84432
3.83913
3.8445
3.8425
3.84668
3.84664
3.83711
3.83823
3.84235
3.84092
3.83881
3.84035
3.83854
3.84173
3.8399
3.84141
3.83927
3.83476
3.82221
3.83331
3.81938
3.82792
3.82362
3.82184
3.81746
3.83034
3.82817
3.83345
3.82822
3.83309
3.8291
3.83068
3.82865
3.83486
3.83341
3.83337
3.83571
3.82309
3.82907
3.82595
3.82366
3.82086
3.8315
3.82907
3.82647
3.82878
3.8372
3.83406
3.83179
3.83265
3.83285
3.83474
3.8314
3.83124
3.82867
3.83036
3.83959
3.83767
3.84153
3.83715
3.83484
3.83751
3.83935
3.83833
3.84097
3.85448
3.85058
3.84952
3.85121
3.84916
3.85073
3.85306
3.84511
3.84449
3.84917
3.84974
3.85057
3.85426
3.85313
3.85776
3.85221
3.85444
3.85327
3.85129
3.85348
3.84928
3.83689
3.83932
3.84415
3.8436
3.84527
3.84855
3.84428
3.84553
3.84924
3.84773
3.84916
3.84452
3.84778
3.84766
3.84422
3.84563
3.84772
3.84739
3.85503
3.8513
3.84579
3.84441
3.85165
3.8392
3.84246
3.84357
3.84337
3.84201
3.85809
3.85575
3.8609
3.85906
3.85498
3.85473
3.85561
3.85276
3.85571
3.85522
3.85207
3.85984
3.86031
3.86071
3.86059
3.86145
3.85849
3.84726
3.84792
3.84537
3.84856
3.84404
3.84439
3.84407
3.8506
3.84802
3.85497
3.85436
3.85153
3.84609
3.85719
3.85258
3.85148
3.84918
3.85439
3.85577
3.85249
3.84751
3.84991
3.85641
3.85738
3.85914
3.85505
3.85091
3.85008
3.83804
3.84619
3.84252
3.84213
3.83852
3.83605
3.83357
3.84357
3.84558
3.8402
3.84171
3.84973
3.84174
3.8442
3.84823
3.84595
3.84551
3.84627
3.8451
3.84615
3.84237
3.84307
3.83866
3.84895
3.84666
3.85442
3.8494
3.8509
3.85114
3.84967
3.84607
3.85302
3.84927
3.84965
3.85852
3.85872
3.85567
3.85174
3.85541
3.85666
3.8606
3.85534
3.8576
3.8615
3.86031
3.86026
3.86236
3.85388
3.8588
3.85668
3.86134
3.85428
3.85505
3.86063
3.86111
3.85295
3.85486
3.85483
3.85943
3.86249
3.85307
3.856
3.85234
3.85518
3.85775
3.864
3.85563
3.85563
3.85721
3.85172
3.86907
3.86137
3.86134
3.86107
3.86305
3.86112
3.8602
3.85359
3.85032
3.85733
3.86124
3.86124
3.85758
3.86031
3.8617
3.86238
3.86108
3.8466
3.85304
3.84948
3.84793
3.8568
3.84751
3.85132
3.8526
3.85162
3.85262
3.82644
3.82948
3.82777
3.82303
3.82716
3.8239
3.8213
3.83003
3.82516
3.82352
3.83964
3.84772
3.84081
3.84129
3.83725
3.84298
3.84167
3.83729
3.84774
3.84069
3.84335
3.84066
3.84307
3.81653
3.8155
3.81502
3.80892
3.80705
3.80474
3.80385
3.81349
3.81068
3.81461
3.81495
3.80673
3.80808
3.78058
3.79021
3.7792
3.77792
3.78879
3.78915
3.78388
3.78344
3.78016
3.78973
3.79102
3.83062
3.83499
3.83284
3.82869
3.83075
3.82999
3.82518
3.83425
3.82642
3.83384
3.83138
3.83267
3.83447
3.83114
3.83151
3.83171
3.80651
3.80756
3.79989
3.80433
3.79585
3.79729
3.82843
3.82459
3.82821
3.82527
3.83184
3.835
3.83089
3.8308
3.83077
3.83155
3.83292
3.82877
3.83728
3.83982
3.83566
3.83464
3.83279
3.83134
3.83205
3.83414
3.83009
3.82789
3.83495
3.83635
3.85991
3.86075
3.86476
3.86552
3.85961
3.86518
3.85741
3.8647
3.8561
3.85348
3.86131
3.85616
3.86069
3.86092
3.85328
3.86225
3.8616
3.84954
3.8522
3.85661
3.85718
3.85829
3.85228
3.85395
3.85539
3.85061
3.84559
3.85495
3.84836
3.85236
3.8497
3.85199
3.8603
3.8558
3.85948
3.85784
3.861
3.86043
3.8597
3.8613
3.84951
3.84956
3.84689
3.85098
3.84903
3.8414
3.84389
3.8443
3.84646
3.84494
3.84598
3.84292
3.84579
3.8476
3.84324
3.84374
3.85502
3.84573
3.84784
3.8438
3.84528
3.84959
3.85145
3.84597
3.84938
3.84661
3.8488
3.84859
3.85048
3.84078
3.83868
3.84335
3.84221
3.84668
3.84089
3.84924
3.8401
3.84467
3.84399
3.84261
3.84604
3.85332
3.85076
3.84478
3.85044
3.84752
3.84826
3.85012
3.85167
3.85255
3.85301
3.85206
3.85075
3.85452
3.85461
3.84297
3.84468
3.83979
3.83965
3.8434
3.84037
3.85006
3.84695
3.85088
3.84177
3.85034
3.84922
3.8463
3.8518
3.85323
3.84507
3.84308
3.84066
3.844
3.83976
3.84401
3.85061
3.84773
3.84625
3.84517
3.84696
3.84689
3.84278
3.84558
3.82527
3.83031
3.82407
3.82913
3.83457
3.82876
3.82776
3.83541
3.8072
3.81912
3.81946
3.81781
3.81331
3.80828
3.8136
3.81114
3.8157
3.81375
3.81471
3.81299
3.81552
3.8172
3.80624
3.84653
3.84832
3.84654
3.85065
3.84726
3.8463
3.84652
3.84861
3.84523
3.84823
3.84555
3.84774
3.8448
3.8426
3.8386
3.84552