/*--------------------------------*- C++ -*----------------------------------*\
| =========                 |                                                 |
| \\      /  F ield         | OpenFOAM: The Open Source CFD Toolbox           |
|  \\    /   O peration     | Version:  v1612+                                |
|   \\  /    A nd           | Web:      www.OpenFOAM.com                      |
|    \\/     M anipulation  |                                                 |
\*---------------------------------------------------------------------------*/
FoamFile
{
    version     2.0;
    format      ascii;
    class       surfaceScalarField;
    location    "150";
    object      phi;
}
// * * * * * * * * * * * * * * * * * * * * * * * * * * * * * * * * * * * * * //

dimensions      [0 3 -1 0 0 0 0];

internalField   nonuniform List<scalar> 
41951
(
-9.38783e-09
-4.23924e-09
-4.29672e-09
1.79238e-08
-3.73274e-09
-3.64106e-09
4.45857e-09
2.91524e-09
5.70427e-09
2.45118e-09
-5.35706e-09
-2.79839e-09
-7.0266e-09
1.8502e-09
2.62548e-09
2.55094e-09
-5.64039e-09
-7.1465e-09
5.7603e-09
2.08912e-09
-1.17582e-10
-1.3641e-09
1.74219e-10
4.18268e-09
9.81384e-10
-3.07493e-09
5.68995e-09
2.95131e-09
4.38497e-09
3.3238e-09
-2.01881e-09
2.8267e-09
-2.82427e-09
4.38255e-09
-1.0326e-09
-3.62641e-09
6.20513e-09
-2.05611e-09
-5.18162e-09
-2.11857e-10
-7.29507e-10
8.62689e-09
-1.34982e-09
-1.51676e-09
5.47328e-09
5.0038e-09
2.89902e-09
3.05029e-09
-9.864e-10
6.71213e-09
-3.03408e-10
3.94368e-10
-3.65095e-09
5.21549e-09
-4.7534e-09
5.1992e-09
-6.57656e-10
-3.27154e-09
3.2359e-09
-4.71776e-09
-5.44523e-09
-2.5765e-09
4.12475e-09
3.55994e-10
6.95811e-09
-5.23896e-09
2.8117e-09
-4.53085e-09
4.56257e-09
1.72396e-09
6.71579e-10
-7.08084e-10
-5.8485e-09
1.31763e-09
-3.32845e-09
4.87869e-09
5.88339e-09
-7.43363e-09
-1.13843e-08
5.53655e-09
2.51935e-09
-3.84494e-09
3.16236e-09
5.24515e-09
-1.257e-09
2.23779e-10
3.5109e-09
-4.71472e-09
4.9574e-10
-1.00797e-08
6.90984e-10
-1.99566e-09
5.74033e-09
6.95648e-09
-7.16026e-09
2.91348e-09
-9.30999e-09
6.59188e-09
-1.95372e-10
2.10956e-09
1.44345e-10
9.589e-09
-1.54795e-09
3.90146e-09
-1.95315e-09
1.6126e-10
1.0939e-09
-2.40073e-09
8.83455e-09
-7.5277e-09
7.98751e-09
-1.60351e-09
-5.29008e-09
-3.19591e-10
2.27208e-09
-4.35315e-09
1.65524e-09
1.50317e-09
-3.47798e-09
-1.77116e-10
2.36452e-09
8.47051e-11
1.51155e-09
-3.34093e-11
-6.27666e-09
4.85178e-09
9.41244e-09
6.56631e-09
-4.00843e-09
-4.83846e-10
-2.1542e-09
1.04633e-09
1.59171e-09
-1.65273e-09
1.2867e-09
-1.17805e-10
-6.96233e-10
9.06565e-10
-4.95361e-09
-1.74454e-09
5.05657e-09
1.6416e-09
9.16478e-10
3.10011e-09
1.82499e-09
-3.42193e-09
5.21763e-09
-3.72106e-09
-1.26393e-10
-1.47817e-11
-3.89869e-09
-1.32129e-09
3.91314e-09
1.30683e-09
-1.79745e-09
3.11638e-09
-9.88598e-11
6.19495e-09
1.96987e-09
-5.91688e-09
-2.24795e-09
-2.13159e-09
6.11554e-09
2.21101e-09
-7.63409e-09
1.2813e-08
-3.20901e-09
-5.82113e-09
-9.01626e-09
7.20329e-09
4.56722e-09
3.4303e-09
4.81542e-09
2.62597e-09
-2.71016e-09
-5.83269e-09
1.14925e-09
-6.5488e-10
4.69303e-09
5.98972e-09
-3.04071e-09
8.77576e-09
-5.72101e-09
-1.40552e-11
-6.47756e-09
1.76319e-09
1.81777e-09
2.89645e-09
-7.14651e-10
-1.85409e-09
-3.2524e-09
7.95421e-09
-5.69854e-09
-2.97035e-09
7.07005e-09
-5.59341e-09
1.18983e-09
2.51046e-09
-3.60886e-09
-9.14614e-11
2.61316e-09
-2.74084e-10
1.05764e-08
-5.31065e-12
-4.13643e-10
-1.01575e-08
2.01741e-09
3.73631e-10
8.18543e-09
-2.99945e-10
6.835e-09
-6.54036e-09
3.25423e-12
4.91477e-10
1.51882e-08
-1.56829e-08
1.02654e-08
2.72121e-10
-1.05343e-08
1.42463e-08
-1.41685e-08
1.33999e-08
2.86373e-09
-2.66042e-09
1.88954e-08
-1.04678e-09
1.11343e-08
-3.5293e-09
6.55592e-09
-6.58374e-09
2.47469e-09
7.65434e-10
3.59488e-09
1.69651e-09
2.46207e-09
1.47368e-08
2.2965e-09
1.05343e-08
-3.24073e-09
5.16788e-09
5.4753e-10
5.21677e-09
-1.90158e-09
2.55003e-09
1.3312e-08
2.12368e-09
5.38957e-09
3.30682e-10
6.96086e-09
1.03525e-08
-7.47177e-09
3.88642e-09
4.78139e-09
-2.28653e-09
-6.3813e-09
3.97117e-09
7.52099e-10
-8.36859e-10
3.75919e-09
-1.54766e-09
2.56985e-09
1.28574e-09
6.44461e-09
5.77863e-09
-2.35415e-09
7.39319e-09
-1.08177e-08
2.12746e-09
2.10347e-09
3.40988e-09
-8.05057e-09
-7.20603e-09
2.36027e-09
6.9732e-09
-1.36843e-09
1.55557e-09
-3.89702e-09
7.54301e-09
-3.02048e-09
-1.24459e-10
-9.79033e-10
2.33781e-09
-4.19568e-09
2.2218e-10
1.63574e-09
-6.62263e-09
2.74106e-09
6.21939e-09
-6.69877e-09
-4.11953e-09
8.60086e-10
2.68866e-09
-4.15383e-09
6.05118e-10
1.33726e-09
3.42046e-09
-3.8976e-09
2.84484e-09
3.29747e-09
-3.45363e-09
3.14166e-09
-3.01082e-10
4.28242e-12
-2.23228e-09
1.85945e-10
4.7874e-09
-2.25305e-09
1.61214e-09
3.78259e-09
1.26661e-09
5.6538e-09
-4.87281e-09
5.56307e-10
-8.00405e-10
5.22895e-09
-6.66078e-09
3.11527e-09
4.1242e-12
-1.43579e-09
3.23388e-09
1.11439e-09
3.73903e-09
2.79387e-09
1.65729e-09
-4.20896e-09
-1.23884e-09
3.79059e-09
-2.89308e-09
2.67044e-11
4.52368e-09
-2.88772e-09
-4.85428e-09
2.94391e-09
4.7981e-09
-2.73861e-09
-1.37495e-10
-1.15807e-11
7.18978e-09
-3.82227e-09
-6.10611e-09
8.92309e-10
1.4432e-09
-1.11107e-08
8.47898e-09
3.52408e-09
-4.50704e-09
3.83853e-09
-1.04422e-08
5.64759e-10
-3.90423e-09
-8.6947e-10
-2.29021e-09
-3.81074e-11
1.66942e-09
-4.42409e-09
1.51602e-09
4.64003e-09
-2.40068e-09
-2.70126e-11
1.44464e-09
-9.77394e-09
-5.27974e-09
9.33464e-09
-7.62075e-11
-1.36498e-09
2.86636e-09
-3.82239e-09
-1.11407e-09
6.77456e-09
-8.52872e-09
6.99757e-09
-5.24342e-09
9.10423e-09
-2.75368e-09
4.24003e-10
-4.1317e-09
-1.27119e-09
-3.12585e-09
5.82167e-09
-2.52004e-09
-7.43333e-09
4.00606e-09
-2.60328e-09
7.70143e-09
-9.42493e-09
8.39098e-09
-1.71974e-09
-1.54727e-09
-2.05599e-09
5.51677e-09
1.83758e-09
-9.87442e-09
5.58647e-09
1.48978e-09
-7.87087e-11
1.35347e-09
8.23906e-09
8.05833e-10
4.98185e-09
7.57274e-09
-3.60326e-09
-5.16539e-09
8.36464e-09
-4.47046e-09
9.38025e-09
-1.27081e-08
4.0778e-09
7.19589e-09
-1.89349e-09
3.72746e-09
8.71497e-09
1.02366e-08
3.70452e-09
-6.36842e-09
4.47362e-09
6.56878e-09
-1.37059e-08
2.5589e-09
1.56206e-08
-2.80552e-09
1.07041e-08
-6.79177e-09
8.74186e-09
5.449e-09
-1.72059e-08
3.01505e-09
4.06893e-09
-4.37313e-09
9.04609e-09
1.27547e-08
-1.43474e-08
7.04179e-09
1.67312e-09
1.51505e-08
-1.0507e-09
-4.8678e-09
8.82616e-09
-2.90764e-09
-8.3833e-09
1.30116e-08
-5.67901e-09
-4.84063e-09
-2.06216e-09
2.52969e-09
-1.38924e-08
-8.15408e-09
-1.37923e-08
-2.57419e-09
1.80396e-08
-7.7613e-09
-2.03784e-08
-3.13355e-09
-1.5714e-08
4.9551e-09
-6.71829e-10
-7.32951e-09
4.00544e-09
-1.30606e-08
-1.39889e-08
1.39407e-08
4.05366e-09
6.93585e-09
-1.35785e-08
-7.34627e-09
1.21888e-08
1.27331e-10
6.95524e-10
-6.14784e-10
3.40247e-09
9.40116e-09
6.14923e-09
-1.28088e-08
1.36371e-08
1.25919e-09
1.28907e-08
-1.71352e-08
-2.58705e-09
6.83155e-09
-1.90128e-08
1.77191e-08
1.41843e-08
-8.99575e-09
8.40753e-09
-9.29847e-09
9.88669e-09
2.40622e-09
-1.01723e-08
-1.22967e-09
6.17234e-09
-4.29819e-09
-1.90093e-08
3.03895e-09
-1.58794e-08
-1.0553e-08
1.9273e-08
-3.12397e-10
8.96561e-10
-9.04334e-09
-8.92984e-09
-5.54944e-09
5.18083e-09
-1.30983e-08
-6.0038e-09
-1.86933e-08
4.60521e-09
8.5387e-09
2.75289e-09
-4.05719e-09
-1.7389e-08
1.03458e-09
-2.0945e-08
1.56123e-08
2.463e-08
-1.88381e-08
1.78436e-08
1.13915e-08
-1.61209e-08
1.47013e-08
-3.26849e-09
-7.20994e-09
-4.22286e-09
-9.71077e-10
1.19965e-08
1.16227e-10
-1.11416e-08
9.72233e-09
-1.03482e-08
-7.95173e-09
8.57759e-09
1.37401e-09
7.3541e-09
9.94219e-10
-9.79349e-09
-7.84733e-09
1.12423e-08
6.39851e-09
6.84171e-09
-2.27731e-08
1.05867e-08
5.34475e-09
-1.96742e-08
1.78926e-08
8.62333e-09
-2.90901e-09
-6.23183e-09
3.33558e-09
5.8053e-09
1.27614e-09
-9.09271e-09
4.9076e-09
-5.90315e-09
-1.05737e-08
-3.19735e-09
-7.6628e-09
-2.10135e-08
-1.61801e-08
5.94946e-10
-2.29563e-09
6.12269e-09
-4.42201e-09
-3.8479e-10
3.36141e-09
-2.38166e-09
-4.95179e-10
2.7974e-09
-4.59786e-09
1.46123e-09
-2.80769e-09
8.51235e-10
-3.5568e-09
4.63326e-09
1.56931e-09
-7.07871e-10
-7.08707e-09
6.22566e-09
2.65486e-10
-3.11592e-09
4.41976e-09
2.21273e-09
-3.41388e-09
-2.21685e-09
3.41801e-09
-1.60383e-09
2.59781e-10
-2.82926e-09
1.19675e-09
2.87262e-11
6.2412e-10
-4.74586e-09
-3.11009e-09
4.17699e-09
-3.87459e-09
-1.04332e-09
6.02349e-10
-3.42214e-09
3.86312e-09
-3.24846e-09
-2.24224e-09
-2.57711e-09
1.61893e-08
-2.21649e-08
8.55271e-09
-1.94234e-08
3.79402e-09
1.30523e-08
2.32693e-08
6.16112e-10
-2.2609e-08
-1.27636e-09
-1.5071e-08
1.92759e-08
1.90644e-08
-7.61881e-09
-3.02018e-09
-8.78437e-09
-1.93335e-08
1.57858e-08
1.3114e-09
2.23631e-09
-2.01631e-08
-6.28815e-10
2.1408e-08
1.08155e-08
-2.13124e-08
-1.21122e-08
-5.538e-09
1.28254e-09
6.2017e-09
1.82544e-08
3.86765e-10
-2.48429e-08
8.32318e-09
1.28066e-08
-1.4928e-08
-1.20095e-08
-1.14737e-09
1.31946e-08
-1.86849e-08
-6.51918e-09
-6.00355e-09
4.92451e-09
-2.49791e-08
-1.18757e-09
7.17073e-10
-9.72429e-09
-1.59719e-08
-7.40071e-09
1.26563e-09
-6.43371e-09
3.7651e-09
1.403e-09
2.62403e-09
-7.16124e-09
5.80284e-09
-3.48013e-09
1.29874e-09
4.80542e-09
-1.89098e-10
-3.27038e-09
-2.06481e-11
-3.40221e-09
6.37003e-09
-1.66908e-09
-3.07118e-09
-3.80663e-09
3.47559e-09
-3.25965e-09
-6.18929e-13
-1.06728e-09
-2.71436e-09
-3.37961e-09
-3.31061e-09
-4.19037e-09
-4.50919e-11
-3.01978e-10
-3.45957e-09
-8.09263e-12
3.98696e-09
-4.02397e-09
-2.47162e-09
2.69694e-09
-2.22918e-09
2.00387e-09
7.84216e-10
-6.59479e-09
3.33898e-09
-3.28779e-09
3.53511e-09
-7.20634e-09
4.45546e-09
-2.10385e-09
2.32836e-09
2.97598e-09
2.57042e-09
3.03296e-09
-8.57936e-09
3.52251e-09
1.67411e-09
-2.22066e-09
4.9419e-09
-1.22788e-08
9.90733e-09
-1.4473e-09
1.06518e-08
-4.26264e-09
5.22497e-09
-3.14974e-09
2.5592e-09
4.12883e-09
-3.65505e-09
4.1927e-09
4.06201e-11
7.32096e-09
7.57946e-09
-4.24858e-09
-1.74786e-09
5.41805e-09
1.55477e-09
2.69254e-09
-2.47699e-10
9.71756e-10
1.34304e-09
5.00616e-09
4.86272e-09
1.52709e-09
3.86065e-09
-6.84254e-10
9.52464e-10
6.25219e-09
-5.88787e-09
9.78729e-10
7.10719e-10
-8.79098e-10
4.02904e-09
3.47814e-09
-7.48728e-11
1.25521e-08
7.4684e-09
-1.07996e-08
9.92173e-09
-2.48952e-09
5.11989e-09
-9.52431e-09
5.09714e-09
5.04063e-10
3.9232e-09
-5.43223e-09
-1.25597e-08
8.46765e-09
-3.71927e-09
8.41541e-09
5.22558e-09
3.849e-09
-9.98523e-11
1.04225e-08
-3.97794e-09
5.80242e-09
2.13067e-09
-7.31013e-09
5.52297e-09
1.23845e-08
-1.05973e-08
-9.10207e-10
-3.57987e-09
-2.82003e-09
5.89934e-09
-7.30465e-09
2.66278e-09
1.30573e-08
1.01417e-09
-4.46983e-09
7.74113e-09
3.15844e-09
1.59269e-08
-1.98893e-09
-5.44748e-09
8.132e-10
6.62323e-09
6.85451e-09
-9.26038e-10
-7.25026e-11
-6.50479e-09
-8.13181e-10
5.32906e-09
-1.48672e-09
-4.00441e-09
4.36528e-11
-4.81726e-09
5.16698e-09
-6.91736e-11
1.22097e-08
-6.9129e-09
-2.43061e-08
3.04081e-09
-6.71045e-09
7.39493e-09
-1.0786e-08
2.45521e-08
-2.1161e-08
1.82295e-08
-7.79375e-09
-1.54387e-09
1.45507e-08
-2.37928e-08
1.08692e-08
-1.9326e-08
-2.07911e-08
1.80211e-08
2.09995e-08
5.13106e-09
-1.37007e-09
6.12883e-09
1.88117e-08
-1.03898e-08
1.85725e-08
-1.57442e-09
6.90749e-10
2.19828e-08
-4.95439e-09
2.02305e-09
2.19197e-08
2.37597e-08
-5.04789e-09
1.28487e-08
3.51797e-09
2.2058e-09
4.31178e-11
-5.48453e-09
-1.2434e-10
5.5657e-09
-1.11507e-08
4.74812e-10
9.23437e-09
1.44149e-09
-3.17101e-09
-2.59012e-09
-3.7198e-09
-2.50932e-10
4.86898e-09
-8.98289e-10
-3.67698e-09
2.88436e-13
-1.99804e-09
4.55544e-09
-2.00988e-09
3.22104e-09
-1.87661e-09
-3.34249e-09
-4.13923e-09
-4.51631e-09
1.11477e-09
6.32087e-09
-2.32984e-09
3.77758e-09
3.10767e-09
9.86821e-10
-9.56344e-11
4.64141e-09
1.85797e-09
-5.63614e-09
-2.82431e-09
1.34161e-10
-5.10557e-09
1.16618e-09
-8.90745e-09
-5.81264e-10
8.32256e-09
-7.38026e-09
-4.94131e-10
9.04057e-09
-1.32893e-09
6.7588e-11
-7.64611e-09
-6.63175e-09
-2.07743e-09
-3.95331e-09
-7.53535e-09
4.8569e-09
-4.50198e-09
6.18179e-10
-6.95134e-11
-7.48688e-10
-5.66026e-09
5.91484e-09
-7.33422e-09
6.00429e-09
1.89864e-09
-2.34743e-09
-4.0532e-09
-4.56695e-09
-1.06976e-09
-5.24689e-09
-5.63211e-09
5.21876e-09
-8.02631e-09
5.56573e-09
3.93236e-09
-1.47177e-09
-4.21378e-10
-1.17093e-08
4.10442e-09
-4.76543e-09
1.36715e-10
6.36496e-10
-4.41405e-09
-1.85453e-09
-1.13198e-09
4.03702e-09
-6.80583e-09
-5.14246e-09
-4.69312e-10
6.73963e-09
-8.54637e-09
2.27601e-09
7.07938e-09
-9.244e-09
1.69529e-09
4.37676e-09
-6.98036e-09
9.68297e-09
-2.06154e-09
1.31779e-08
1.46045e-09
-9.32466e-09
-1.37978e-09
-6.16196e-09
6.42085e-10
1.18708e-08
-2.10442e-08
-1.64608e-09
1.08195e-08
-1.47562e-08
2.45654e-08
1.24689e-08
-4.41515e-09
7.13363e-09
-1.51874e-08
1.00262e-08
4.57511e-10
1.98515e-09
-9.62276e-09
4.89276e-09
-1.76998e-08
-1.29672e-08
8.32084e-11
-7.08635e-09
-1.54323e-09
-7.54873e-09
-1.69272e-09
-8.41167e-09
1.78284e-09
1.20638e-09
-1.40332e-08
-1.20929e-08
4.28493e-09
-2.80426e-09
-7.7619e-09
5.21748e-09
-1.15598e-08
-9.6797e-09
-3.33493e-09
-1.08367e-09
-2.04455e-10
4.62305e-09
-2.48708e-09
-9.45041e-10
9.72e-11
-5.50676e-09
-1.37845e-09
5.80153e-09
-4.25046e-09
-9.23422e-10
-3.32889e-10
-1.03265e-10
-4.27377e-09
1.26568e-10
-2.63753e-09
4.71762e-11
-5.75825e-09
-1.99376e-09
7.54755e-09
-7.63072e-09
6.13721e-10
5.63853e-09
-2.25996e-09
-6.79654e-09
3.29827e-09
-3.13907e-09
-6.59292e-11
-6.57014e-09
-1.98401e-09
-8.56215e-10
1.73181e-09
-3.51314e-09
1.86525e-09
-6.99525e-09
-8.56376e-09
7.18371e-09
2.54346e-09
-3.95072e-09
5.38182e-10
-4.79126e-09
2.86574e-09
-7.57063e-09
-5.15985e-09
2.79661e-09
4.76458e-11
4.85652e-09
-7.70076e-09
-4.1751e-10
-4.20893e-09
7.42304e-09
-3.05447e-09
-4.25953e-09
6.89649e-09
-7.58172e-09
4.57487e-09
1.00969e-08
-3.49792e-09
3.17607e-11
-6.63073e-09
1.28498e-08
-6.96184e-09
-6.26581e-09
-4.95143e-09
3.63549e-09
-4.93549e-09
-3.65505e-09
4.331e-09
-2.3596e-10
-4.64896e-09
-5.05753e-11
-5.09188e-09
-2.45064e-09
4.04456e-09
-4.25463e-09
-3.27646e-09
1.26523e-09
-5.15744e-09
-2.99515e-11
4.28303e-09
-5.06379e-09
-3.86821e-09
7.88978e-10
-1.60991e-10
-7.36327e-11
-1.10828e-08
6.06448e-09
-4.1406e-09
-5.27148e-09
-9.27803e-09
-1.77014e-09
5.66187e-09
1.89864e-09
-5.79038e-09
5.14991e-09
-7.44086e-09
5.20811e-10
-1.26087e-10
4.24155e-09
1.03443e-09
4.47921e-09
1.05658e-09
1.38165e-09
-7.78886e-09
-6.436e-12
6.41364e-09
-6.55011e-09
4.58625e-10
7.47313e-09
4.52284e-09
-2.90717e-09
2.82967e-10
-5.32702e-09
6.35695e-09
1.3259e-11
-1.04319e-09
5.16029e-09
-6.07351e-09
-4.41381e-09
-7.39495e-11
-2.23461e-09
-5.08657e-09
-2.77625e-09
4.29797e-09
-3.25397e-09
3.43521e-09
-7.73637e-10
5.53023e-09
-3.16873e-09
5.98164e-09
3.54402e-09
2.17153e-09
-1.79979e-10
-1.03324e-09
-3.58013e-09
3.83973e-09
4.94196e-09
1.43217e-09
-1.63304e-10
-8.76036e-10
-4.19727e-09
2.3563e-11
-3.40598e-09
-5.70812e-09
4.22106e-09
4.89302e-09
-3.95885e-09
7.00797e-10
-1.47945e-10
1.73847e-09
-1.36655e-09
-4.33078e-09
-3.53402e-10
-3.61625e-09
2.90805e-09
7.08021e-09
-7.061e-10
-9.28215e-09
7.20741e-09
-4.65277e-09
-9.68162e-09
8.28372e-09
8.60531e-09
4.83328e-09
-7.43469e-09
3.27805e-10
-3.5304e-09
-2.18345e-10
3.42092e-09
-3.66756e-09
3.85555e-09
1.39805e-10
5.31678e-09
5.85612e-10
-1.68133e-09
-2.98665e-09
1.98816e-11
2.33261e-09
-4.40526e-09
-1.97053e-10
-6.94053e-10
5.7244e-09
3.23607e-09
-3.8901e-09
-4.91379e-10
-5.11332e-09
5.85798e-09
-3.20486e-10
-4.2416e-10
5.02183e-09
-4.06982e-09
-6.06533e-09
2.94841e-09
7.17927e-10
5.99431e-09
-9.66064e-09
-4.56094e-09
1.01144e-08
-2.85096e-09
-2.70256e-09
3.00194e-09
-4.61446e-09
-5.01611e-09
2.83155e-09
8.04252e-09
1.25137e-09
-1.24567e-09
5.96927e-09
1.50594e-08
-1.09142e-08
2.03065e-09
-5.38255e-09
-2.93231e-09
1.17331e-08
7.18158e-10
6.51096e-09
-4.22719e-09
-2.1108e-09
4.85961e-09
6.59378e-09
-3.01512e-09
7.83218e-10
3.35846e-09
4.30311e-09
-8.44484e-09
2.59368e-09
1.95807e-09
-3.76854e-09
-2.59062e-09
4.9637e-09
-1.07268e-09
-1.30042e-09
5.16287e-09
-5.15981e-09
1.19407e-09
4.99174e-09
-2.82737e-09
3.09634e-09
5.57969e-11
-6.65111e-09
5.7756e-09
5.8392e-09
2.0813e-09
-3.56954e-09
5.19921e-09
-1.96881e-09
1.3635e-09
3.83173e-09
-2.03529e-10
-3.07667e-09
1.67491e-09
7.17736e-09
-9.42244e-10
-5.31389e-11
4.34032e-09
2.22237e-09
-2.28072e-09
2.19567e-09
3.91678e-09
-1.26633e-10
8.21088e-09
-1.61241e-08
3.4647e-09
8.76784e-09
3.8915e-09
-5.04134e-09
5.97246e-10
-1.168e-08
-4.13152e-09
-9.98263e-09
9.07279e-09
1.30759e-09
9.03029e-09
-6.6192e-09
-3.71871e-09
-5.10519e-09
3.4273e-09
3.18626e-09
-1.50839e-09
-7.69671e-09
-2.83293e-09
5.42444e-09
-6.58932e-10
-3.37178e-09
-3.66602e-09
-2.66771e-09
-3.32373e-09
5.33248e-09
-1.51936e-08
6.42149e-09
1.22368e-08
-4.20075e-09
-1.03956e-08
1.41643e-09
1.58008e-09
-5.66425e-09
-6.08687e-09
-3.21307e-09
1.09421e-08
-5.33731e-09
3.59944e-09
-1.47523e-09
-7.95796e-09
8.90692e-09
-3.98283e-09
1.02975e-08
-1.52216e-08
1.6705e-08
-1.23246e-09
-6.56566e-09
8.44199e-10
-8.90599e-09
-3.20491e-09
1.12667e-08
-1.01795e-08
1.4322e-08
-3.2984e-09
1.30059e-09
7.46549e-09
7.93897e-09
6.17807e-09
2.2441e-09
-1.2405e-08
-5.23386e-09
1.57917e-08
5.78006e-09
-1.12743e-08
8.72682e-09
8.36548e-09
7.26255e-09
1.4525e-08
3.25718e-09
-7.20774e-09
1.12131e-08
-7.31242e-09
-2.3942e-09
1.29638e-08
-2.7346e-09
-1.17856e-08
-1.25341e-08
1.07769e-08
1.04841e-08
-2.67103e-10
-6.48699e-09
8.74474e-09
-1.54066e-08
-1.46394e-08
2.30221e-08
-7.14492e-09
-7.7616e-09
-5.15191e-09
6.75176e-09
-7.80317e-10
8.95142e-09
-1.66923e-08
8.52123e-09
8.2983e-09
-1.7846e-08
8.76741e-09
1.00163e-08
-2.89035e-10
2.09955e-10
-9.93721e-09
1.44601e-08
-2.73103e-09
-2.06391e-09
-9.66511e-09
5.98463e-10
7.21165e-09
6.65001e-09
5.32384e-09
5.29097e-09
1.10548e-08
-5.19655e-09
2.44007e-09
1.06148e-08
-4.39444e-09
-1.06482e-08
1.31025e-08
4.75729e-09
1.05949e-08
1.70852e-10
-1.43592e-09
1.40259e-09
1.456e-08
1.22669e-09
-1.72226e-08
1.13053e-08
2.18217e-08
-1.85669e-08
1.97171e-09
-6.9525e-10
9.31845e-09
3.29589e-09
9.98107e-09
4.45081e-09
-2.47878e-09
4.79285e-09
-6.7649e-09
9.88793e-10
6.65305e-09
-3.19104e-09
-1.01814e-08
6.64517e-09
3.60707e-09
-7.08336e-11
-6.20438e-09
-2.98825e-09
9.12686e-10
1.42946e-09
4.30302e-09
-5.78863e-09
1.59583e-09
5.10551e-09
-2.53392e-09
3.39834e-09
-1.39602e-08
5.27702e-09
1.567e-10
-4.89844e-09
6.33758e-09
1.92779e-09
-7.0843e-09
6.58596e-09
-7.07732e-09
9.16181e-09
2.39113e-09
-1.32203e-10
4.79719e-09
-8.27443e-09
2.62926e-09
-2.92402e-09
-6.78255e-09
1.21951e-10
5.8577e-09
5.65082e-09
-5.26405e-09
-2.08738e-10
6.00341e-09
6.30337e-11
5.31299e-09
-2.98908e-09
2.72723e-09
5.06852e-09
3.5725e-11
-5.19818e-09
1.77218e-09
4.92102e-09
-1.49502e-09
-1.42418e-10
1.2766e-11
-3.34229e-09
3.29808e-09
6.04762e-09
2.55506e-10
2.05303e-09
5.10705e-10
5.85101e-09
1.13163e-08
-7.62708e-09
4.16305e-09
1.94347e-09
-5.28425e-09
3.40211e-09
6.0452e-09
2.81294e-09
3.21909e-09
-6.16938e-11
-3.71138e-09
6.5003e-09
2.39647e-11
5.04629e-09
4.09445e-09
1.75554e-09
-2.61907e-09
3.67648e-09
9.44713e-09
-5.41437e-09
7.1397e-09
-3.11633e-10
1.26533e-09
1.41855e-08
-2.68108e-09
-1.27698e-08
-8.06672e-09
9.83541e-09
-5.0338e-10
-1.84876e-09
-1.76566e-08
1.96099e-08
-1.04473e-10
1.28528e-08
-1.47819e-08
8.03725e-11
6.28505e-09
5.48795e-09
2.41252e-09
5.05604e-09
-4.53155e-09
-8.59123e-09
-5.97493e-09
4.81918e-09
7.4408e-09
1.1207e-10
3.74842e-09
9.10638e-09
6.3319e-09
-9.95031e-09
1.74457e-08
2.24417e-09
-6.83707e-09
2.24803e-09
1.15258e-09
1.40451e-08
1.28523e-08
3.79043e-09
-1.43946e-08
6.02498e-10
1.33231e-08
8.80605e-09
-1.50584e-09
1.96266e-08
-6.17182e-09
3.39641e-09
5.5217e-09
1.32064e-08
-8.39562e-09
8.11786e-10
-5.62255e-09
4.52676e-09
7.97407e-09
7.05594e-10
-9.40803e-09
-8.71734e-09
9.72976e-09
9.10267e-09
-1.03838e-08
2.837e-10
9.9745e-10
-7.49341e-09
6.20776e-09
5.37629e-09
-4.09064e-09
-1.59563e-09
-7.66869e-09
-1.05361e-08
2.79822e-09
3.64898e-09
-1.74532e-08
6.13558e-09
-1.53195e-08
6.64696e-09
1.31993e-08
-5.78033e-09
-8.72736e-09
-1.61429e-08
6.83247e-09
7.58435e-09
-1.95687e-08
1.10253e-08
2.45413e-09
-2.26952e-08
5.85891e-09
-2.99601e-09
1.98323e-08
8.7574e-11
-1.6892e-08
-5.8907e-09
1.35783e-08
-5.10085e-09
-1.2988e-08
4.51055e-09
3.11546e-09
1.64407e-09
8.81876e-09
1.53664e-08
-1.12996e-08
-3.97928e-09
1.82473e-09
1.94006e-08
-1.21e-08
3.9159e-09
-1.41434e-09
-1.57865e-08
1.44882e-08
-1.17357e-08
-1.96445e-08
-2.00801e-08
3.24288e-09
1.38412e-08
-6.98288e-10
-4.89358e-09
-4.37462e-09
-8.61964e-09
1.43241e-09
1.15619e-08
-1.75247e-08
-2.95347e-09
1.43154e-08
-9.53723e-09
1.05381e-08
-1.02487e-08
-6.35135e-09
-1.41819e-08
6.6834e-09
1.38499e-08
-2.16748e-09
-5.06584e-09
5.48454e-09
1.74879e-09
8.53206e-09
5.56045e-09
-1.626e-08
4.35299e-09
-1.03466e-08
-3.5775e-10
-3.76151e-09
3.8378e-09
4.2767e-09
-5.53726e-09
-9.38805e-09
7.43408e-10
-1.01618e-08
-3.84884e-09
8.94477e-09
2.6465e-09
-5.08193e-09
-7.72633e-09
9.35278e-09
-4.49928e-09
-2.20699e-09
9.95981e-10
4.50795e-09
-3.95521e-10
9.13432e-10
-5.01717e-09
-4.47066e-09
-1.14132e-08
-1.55522e-09
-5.45457e-09
2.53916e-09
-6.9976e-09
2.18235e-09
3.26003e-09
4.80982e-09
-7.57533e-09
-3.3203e-09
8.58078e-09
-8.44949e-09
3.18902e-09
-9.01497e-10
-1.57078e-09
8.80175e-09
-8.24919e-09
-1.86369e-09
8.59614e-09
-7.87253e-09
-1.10617e-09
-1.05653e-08
5.33487e-09
8.85411e-09
-1.22885e-08
-5.8728e-09
1.67678e-09
-2.88277e-09
1.0741e-08
-8.02104e-10
-7.05616e-09
8.02071e-09
-1.68663e-09
-9.21687e-09
-6.82074e-09
1.10468e-08
-1.36759e-08
9.4498e-09
7.56565e-10
-6.05815e-09
-1.51917e-09
-7.62377e-09
1.08008e-08
7.56401e-09
5.2431e-09
-4.84617e-09
-3.87617e-09
1.17841e-08
-8.71003e-09
5.39817e-09
-1.0961e-08
-3.56087e-09
1.93935e-08
-4.78578e-09
-5.76092e-09
-7.64714e-09
9.84717e-09
-1.99741e-09
8.73866e-09
-1.72608e-08
1.05195e-08
3.04243e-09
-1.64747e-09
-1.57688e-08
-7.29492e-09
-1.64288e-08
8.1369e-09
4.0515e-09
-2.81219e-09
-1.31251e-09
1.00252e-08
2.68654e-09
6.11314e-09
7.11274e-10
-4.70996e-09
1.30351e-09
-4.36831e-09
7.77477e-09
7.7173e-11
5.23812e-09
2.33506e-09
-8.80192e-10
6.36125e-09
-3.66261e-10
2.38484e-09
-5.35503e-09
9.84757e-09
-1.14183e-08
6.14048e-09
4.12967e-09
1.47851e-09
4.74248e-09
-1.10875e-09
-8.02104e-09
4.38732e-09
-8.07914e-10
7.59868e-09
-2.04827e-09
-3.57349e-09
-2.45676e-09
5.22235e-09
-7.2703e-09
2.58808e-09
-7.00388e-09
-1.86523e-09
8.48082e-10
-1.597e-09
1.57779e-09
-7.25106e-09
5.01676e-09
-2.32572e-09
-4.80248e-09
2.11145e-09
3.04123e-10
4.81027e-09
-9.76255e-11
4.50449e-09
-4.18591e-09
3.20148e-09
-3.52005e-09
4.84763e-09
-3.90127e-11
-6.93897e-09
1.11569e-09
9.06045e-10
4.91729e-09
-3.18277e-09
2.89116e-09
-2.16513e-09
3.05087e-11
-2.20085e-09
-5.02533e-09
2.22327e-10
4.89484e-11
-6.56058e-09
-8.72262e-09
2.09233e-09
5.60655e-09
1.02375e-09
-1.5841e-09
-3.93704e-09
-7.72413e-09
6.63682e-09
3.17965e-09
-4.49307e-09
-4.81516e-09
-4.14078e-09
-6.89245e-09
6.54016e-09
-6.29268e-09
3.88737e-09
3.94482e-10
-3.70625e-09
-5.75598e-10
7.47351e-09
8.02086e-10
-6.78583e-09
3.61198e-09
4.03068e-09
-1.69158e-10
6.65724e-10
-7.84939e-09
1.07574e-08
-3.5737e-09
-6.6671e-09
6.89225e-09
3.38683e-09
-5.48238e-10
2.77341e-09
-8.42397e-09
-1.81754e-09
7.46808e-09
-6.40726e-09
9.84639e-09
3.26656e-09
-3.45147e-09
7.10911e-09
1.88122e-10
-6.90969e-09
-2.39301e-09
1.4533e-09
-8.54476e-09
-9.23882e-09
1.08739e-08
6.88623e-09
2.00035e-09
-4.14716e-09
4.84899e-09
3.52077e-10
1.01441e-08
3.02255e-08
-1.43133e-08
-2.60563e-08
1.02509e-08
3.73679e-10
-4.80436e-10
2.38625e-08
6.49965e-09
-1.36763e-10
1.52489e-08
1.88645e-08
-6.19127e-09
1.06987e-08
-1.88207e-08
6.20455e-10
6.94787e-09
-1.37596e-08
6.83519e-09
6.8742e-09
-1.30889e-08
7.46233e-09
-5.89551e-09
5.26837e-09
5.61313e-09
-3.8797e-09
7.33313e-09
-9.06659e-09
-7.77552e-09
-6.39995e-09
1.97886e-08
1.47778e-08
-1.85328e-08
3.04681e-09
7.08142e-10
2.22512e-08
-1.60124e-08
-1.39779e-09
8.30988e-09
-2.75979e-09
-4.83077e-09
-8.3284e-09
6.75919e-09
2.97045e-10
-9.00754e-09
-4.92392e-10
4.68392e-09
-2.21446e-09
4.40473e-09
1.97297e-09
1.10208e-08
-3.91489e-09
1.25107e-08
2.10275e-09
1.79629e-08
-1.45593e-09
1.57498e-08
-8.04126e-09
1.02544e-08
4.73429e-09
-6.86729e-09
1.78828e-08
9.23575e-09
-6.10433e-09
-9.94024e-09
6.80881e-09
-1.81651e-09
-8.83829e-09
-5.96623e-09
-2.30915e-09
2.9154e-09
-9.44454e-09
-1.82184e-08
4.07277e-09
7.00422e-10
1.00959e-08
4.47378e-10
9.99106e-09
-6.86873e-09
-5.76112e-09
6.66365e-09
1.97672e-10
5.44571e-09
-6.88597e-09
-3.51497e-10
-2.70281e-09
-1.02799e-08
4.53244e-09
-1.29508e-08
9.86104e-09
2.3349e-09
7.54848e-10
-1.09765e-08
1.61605e-09
1.03448e-08
-9.84426e-10
1.71767e-09
4.71221e-09
-1.74064e-08
1.38872e-08
8.55904e-09
-2.07286e-08
1.57618e-08
-2.58575e-10
-2.12671e-08
5.26316e-09
2.68728e-09
1.33166e-08
1.00442e-08
-2.27522e-08
1.20125e-08
8.65024e-09
-1.59505e-08
5.66497e-09
1.51997e-08
5.82529e-09
-4.12575e-10
1.87799e-08
1.49005e-08
-6.66288e-09
-1.23441e-08
1.41042e-08
-3.57499e-10
-1.53887e-09
1.34923e-08
-1.74273e-08
1.88355e-08
1.30517e-08
1.66731e-09
7.1569e-09
-7.23547e-10
-9.50332e-09
3.06995e-09
3.71216e-09
4.763e-09
-1.31826e-09
5.54039e-09
-1.32795e-09
-3.54999e-09
-6.62464e-10
1.96125e-09
-2.58531e-09
6.16444e-09
1.32544e-09
3.48248e-09
-5.53147e-09
2.93943e-10
-1.63261e-09
5.05084e-09
-4.28939e-09
6.40699e-09
-1.82366e-09
2.91505e-09
-2.91757e-09
4.22025e-09
-2.38817e-09
1.29158e-10
8.6816e-09
-4.62755e-09
1.66197e-10
3.07833e-09
-3.88525e-09
-3.54671e-09
5.27517e-09
4.67851e-09
5.26764e-10
1.01724e-13
5.83748e-11
-1.17857e-09
-9.47169e-09
1.19588e-08
-1.30852e-09
1.17641e-08
-1.03949e-08
-2.54775e-09
-1.44039e-08
2.81741e-09
-1.41814e-09
1.30046e-08
2.36853e-09
-5.00826e-09
-1.81834e-09
1.05954e-08
-1.91721e-08
8.47793e-09
-1.9768e-08
2.16751e-08
-1.45872e-08
-4.71942e-09
1.09667e-09
2.33959e-08
1.05133e-09
9.48928e-09
1.07479e-08
-1.47397e-08
-2.76313e-08
2.78318e-09
-3.29852e-09
2.81466e-08
-1.05071e-08
-1.88154e-08
1.69114e-09
1.18169e-08
1.89032e-08
-2.22422e-08
2.69582e-08
-4.39334e-09
-2.81307e-08
3.20105e-08
-1.16796e-08
1.28541e-08
-1.27662e-08
1.06069e-08
3.19403e-09
-3.06518e-09
-4.49923e-10
3.21081e-10
-2.97372e-09
2.9547e-09
3.21304e-09
-1.04875e-09
4.19628e-09
-7.74355e-10
-2.37318e-09
-2.3186e-09
3.10646e-09
-1.83662e-09
-2.10049e-09
6.11696e-10
-8.29821e-10
1.16292e-09
-3.83132e-09
5.67934e-10
1.84219e-09
-1.80092e-09
-1.10587e-09
-2.56512e-11
3.6595e-09
8.6858e-11
1.89656e-09
1.1896e-09
-1.92326e-09
2.44197e-09
6.6284e-11
1.06895e-09
-6.29308e-10
3.21991e-09
4.19912e-09
-1.75476e-10
6.28969e-09
2.25547e-10
-3.88638e-09
-2.62884e-09
4.67618e-09
7.57478e-09
-5.96124e-09
1.40926e-09
-7.31349e-11
1.07451e-09
2.97247e-09
-3.42392e-09
-1.79708e-09
3.63209e-09
1.58893e-09
-2.00877e-09
-1.09298e-08
4.88751e-09
2.7106e-10
5.77126e-09
6.20953e-09
-1.72102e-08
1.14944e-09
-6.41892e-09
1.1479e-08
4.24768e-09
4.94284e-09
-6.04382e-09
-3.74171e-09
-4.43895e-09
1.03856e-08
-7.92499e-09
-2.03519e-08
9.79455e-09
1.84823e-08
-1.92995e-08
6.89375e-09
4.48075e-09
2.03067e-08
-2.55031e-08
-1.4103e-08
1.3796e-08
9.45363e-10
-1.16255e-08
-2.90457e-09
1.35847e-08
-2.92133e-09
1.58292e-08
-3.11334e-09
1.35185e-08
-1.04827e-08
-2.09041e-09
9.64421e-10
8.55984e-09
3.99423e-09
-1.11332e-08
4.01743e-09
8.08023e-09
-1.16149e-08
-4.85716e-10
9.67354e-10
1.20406e-09
-1.42228e-08
1.40387e-09
-1.17864e-08
2.50773e-09
-6.59351e-09
-1.96079e-08
9.60887e-09
4.43558e-10
1.0705e-08
-7.9959e-09
-2.18284e-09
-4.04411e-09
-9.26055e-09
-1.05218e-08
-3.50232e-09
-1.47167e-08
-1.62472e-08
3.48429e-09
1.62792e-09
6.22675e-09
-2.59675e-10
-7.59501e-09
7.35122e-09
1.56497e-09
-7.28827e-09
8.12529e-10
6.85336e-09
-3.14676e-10
6.48795e-09
5.51318e-10
1.6788e-09
6.5981e-09
-1.42353e-09
-6.0077e-09
7.36459e-09
3.2189e-10
-1.24828e-10
-4.31789e-09
-1.15168e-09
1.14214e-09
4.2224e-09
-4.21286e-09
5.50656e-09
-6.91792e-09
2.41836e-09
5.24704e-09
-2.15883e-09
-2.21641e-09
4.55732e-09
7.74379e-11
4.48838e-10
-1.05494e-09
7.2042e-09
8.5047e-09
-6.91268e-10
2.10986e-09
-4.29085e-09
-1.88543e-09
4.06643e-09
-2.09286e-09
4.24054e-09
-3.78106e-11
-3.27354e-09
-8.6881e-11
4.98014e-10
3.77399e-09
2.85311e-10
8.34849e-10
4.91019e-09
6.26786e-09
-1.54206e-08
-1.01404e-08
3.89061e-08
-1.3345e-08
-1.90545e-08
-9.14347e-09
1.27774e-08
8.80328e-09
-1.36511e-08
9.46315e-09
-4.6153e-09
1.99117e-08
-1.61343e-08
5.02584e-09
-2.16612e-08
-1.27554e-08
1.48566e-08
1.956e-08
-2.30247e-08
-1.47574e-08
1.61208e-08
-1.59296e-08
-6.56105e-10
-2.46884e-09
-1.56574e-08
-1.43502e-08
1.98672e-08
-4.88918e-09
8.30987e-09
-1.05273e-09
-2.09083e-08
6.96241e-09
-1.47868e-08
-9.83437e-09
3.36788e-09
-2.69683e-08
1.90229e-09
1.23107e-08
4.3851e-09
-1.52722e-08
-1.19402e-08
4.63143e-09
-1.96595e-08
-3.05798e-08
-2.64638e-08
1.40159e-08
-1.487e-08
1.23915e-09
1.39621e-08
-1.53877e-08
1.86529e-10
1.699e-08
-1.79253e-08
2.17456e-09
1.02884e-09
-5.12496e-10
-8.98269e-09
8.46635e-09
-8.5104e-09
4.9957e-10
9.03967e-09
-1.06374e-09
9.0883e-10
1.4117e-08
1.54137e-08
-2.92351e-10
-3.82821e-09
-1.38047e-08
-3.55162e-09
-1.21284e-08
3.50046e-09
-9.7675e-09
-2.71564e-09
-5.95144e-09
9.41521e-10
3.16823e-10
-8.00945e-09
8.60147e-09
-8.15035e-09
8.96676e-09
-2.83066e-09
-1.0765e-08
5.42227e-09
-9.34969e-09
-4.082e-09
-4.41898e-09
1.6909e-09
-1.01766e-09
6.96977e-09
-9.50369e-09
-1.06121e-08
6.76376e-09
-9.05718e-10
-9.46469e-09
-3.7934e-09
1.41348e-09
-1.99288e-08
1.51559e-08
9.32125e-09
-4.54831e-09
-5.82755e-10
1.26743e-08
-1.59758e-08
1.48916e-08
2.07827e-08
-1.96985e-08
-6.02511e-09
-9.40722e-09
-5.43492e-10
-1.76212e-08
-8.64073e-09
4.86467e-09
2.13973e-08
5.83002e-09
-8.29535e-09
2.68402e-08
-1.65112e-08
-4.49898e-09
-2.46281e-09
2.06623e-08
1.20976e-08
1.94061e-08
1.31512e-08
-1.37554e-08
1.27018e-08
2.00518e-08
1.25055e-08
-5.86011e-09
2.56165e-08
2.2675e-08
-1.91344e-08
5.12759e-09
1.50846e-08
1.90795e-08
-1.9812e-08
-5.21823e-09
1.49576e-09
-5.26789e-09
8.99037e-09
-7.43015e-09
3.97507e-09
1.77655e-09
-8.70575e-09
-5.00975e-10
8.21021e-09
-8.21303e-09
1.77938e-09
3.0766e-09
-3.5322e-09
-4.96661e-09
5.4222e-09
4.75514e-09
4.82535e-09
-2.96574e-09
7.53811e-09
5.78878e-10
2.36344e-09
4.33374e-11
-1.38403e-09
-7.36506e-09
-1.31078e-09
-6.85893e-09
-4.47692e-10
3.06433e-10
-3.6815e-09
-4.12101e-09
4.83677e-09
-5.02675e-09
1.92414e-09
2.8653e-11
4.66816e-09
-6.0076e-09
-6.9488e-09
-4.6338e-09
6.50891e-11
-4.99239e-09
-3.67028e-09
-3.69225e-09
3.29331e-09
-4.43018e-10
4.58748e-10
7.12613e-09
-5.26856e-09
-2.31631e-09
5.80001e-09
-4.28618e-09