/*--------------------------------*- C++ -*----------------------------------*\
| =========                 |                                                 |
| \\      /  F ield         | OpenFOAM: The Open Source CFD Toolbox           |
|  \\    /   O peration     | Version:  v1612+                                |
|   \\  /    A nd           | Web:      www.OpenFOAM.com                      |
|    \\/     M anipulation  |                                                 |
\*---------------------------------------------------------------------------*/
FoamFile
{
    version     2.0;
    format      ascii;
    class       volVectorField;
    location    "150";
    object      wallShearStress;
}
// * * * * * * * * * * * * * * * * * * * * * * * * * * * * * * * * * * * * * //

dimensions      [0 2 -2 0 0 0 0];

internalField   uniform (0 0 0);

boundaryField
{
    WALL
    {
        type            calculated;
        value           nonuniform List<vector> 
1682
(
(0.00501919 -0.0101841 0.00424269)
(0.00479357 -0.0105181 0.00464598)
(0.00505171 -0.010241 0.00438087)
(0.000614507 -0.0037981 0.00445788)
(0.0014308 -0.00492493 0.00404666)
(0.00444061 -0.00927291 0.00441513)
(0.00482319 -0.00994241 0.00423047)
(0.00561003 -0.0110098 0.00437215)
(0.00560037 -0.0113259 0.00462334)
(0.00488083 -0.0107744 0.00483455)
(-0.001157 -0.00274727 0.00487543)
(-0.00179772 -0.00240625 0.00517599)
(-0.0030862 -0.00719601 0.00612015)
(-0.00294526 -0.00524661 0.00590158)
(0.00322694 -0.0097774 0.00494958)
(0.00325597 -0.00924902 0.00462253)
(0.00395404 -0.010012 0.00468756)
(0.00412162 -0.0104871 0.00473456)
(0.00488782 -0.0101285 0.00446281)
(0.00476718 -0.0102303 0.0045187)
(0.00399746 -0.00887504 0.00423873)
(0.00445521 -0.00941458 0.00428081)
(0.0055574 -0.0136789 0.00446717)
(0.00518558 -0.0129738 0.00406518)
(0.00562515 -0.0125777 0.00641961)
(0.00526606 -0.0123826 0.00626202)
(-0.00466593 -0.0137809 0.00873116)
(-0.00240514 -0.0144698 0.0085083)
(0.00488454 -0.014202 0.00853433)
(0.00387428 -0.0136822 0.00827978)
(0.00200223 -0.0143408 0.00922944)
(0.00319781 -0.0139701 0.00925462)
(-0.00343413 -0.00622927 -0.00181055)
(-0.00573796 -0.00768073 -0.00128141)
(0.00492296 -0.0105042 0.00457271)
(0.00500091 -0.0108645 0.00466185)
(0.00571312 -0.0114632 0.00483621)
(0.00602634 -0.0119306 0.0052644)
(0.0050132 -0.0116953 0.00547315)
(0.0050106 -0.011724 0.00589082)
(0.00358374 -0.00866331 0.00451176)
(0.00307096 -0.00800679 0.00429873)
(0.00516898 -0.0103533 0.00441085)
(0.00485457 -0.0104311 0.00452578)
(0.000497824 -0.016299 0.0117254)
(0.00386936 -0.0169266 0.0117957)
(0.00584917 -0.0117969 0.00553709)
(0.00460735 -0.00983003 0.00443414)
(0.00447268 -0.0095821 0.00433924)
(0.0042842 -0.00941855 0.00442687)
(0.00430224 -0.00963972 0.00449633)
(0.00441238 -0.0097741 0.00435687)
(0.00435895 -0.00958609 0.00458914)
(0.00551386 -0.0109835 0.00459582)
(0.00515814 -0.0108269 0.00436085)
(0.00511498 -0.0108926 0.00441957)
(0.00568443 -0.0112534 0.0048456)
(0.00522029 -0.0105427 0.00446997)
(0.00525402 -0.0110954 0.00442295)
(0.000140881 -0.00148181 0.0029901)
(-0.000255415 -0.00184817 0.00374886)
(-0.00251472 -0.003966 0.00569948)
(-0.00261931 -0.0032978 0.00560138)
(-0.00416072 -0.00504176 0.00643347)
(-0.00432725 -0.00442848 0.00662876)
(-0.00367748 -0.00339148 0.00616757)
(-0.00305854 -0.00499452 0.00612938)
(0.00574545 -0.0114507 0.00506649)
(0.00551411 -0.0114807 0.00490936)
(0.0051383 -0.0108263 0.00501594)
(0.00564143 -0.0114341 0.00498636)
(0.00588992 -0.0116321 0.00522554)
(0.00551592 -0.0110188 0.00495768)
(0.00543516 -0.0108022 0.00444803)
(0.00485905 -0.00990585 0.00404964)
(0.00532499 -0.0102208 0.00463202)
(0.00481274 -0.0100805 0.00409762)
(0.00505094 -0.0107049 0.00450824)
(0.00523647 -0.0102447 0.00451982)
(0.00473763 -0.0107184 0.00480318)
(0.00503217 -0.011218 0.0046372)
(0.00502846 -0.0111444 0.00478127)
(0.00509258 -0.0109112 0.00472609)
(0.00515706 -0.0105746 0.00435583)
(0.0040598 -0.00847596 0.00404153)
(0.0042205 -0.00880625 0.00406253)
(0.00419687 -0.00862697 0.0038455)
(0.00415667 -0.00850389 0.00382263)
(0.00415 -0.00845871 0.00393467)
(0.00437093 -0.00904698 0.00384465)
(0.00107098 -0.00595904 9.19127e-05)
(0.000830236 -0.00701401 0.000495317)
(0.0013134 -0.00676619 0.000330491)
(0.00041039 -0.00621022 -0.000215214)
(0.0012411 -0.00648572 0.000291354)
(0.000138945 -0.00660583 -0.000247194)
(0.00468144 -0.0104987 0.00433325)
(0.00459779 -0.0107231 0.00458567)
(0.00408192 -0.00972214 0.00413615)
(0.00462434 -0.0106399 0.00449073)
(0.00487176 -0.0112649 0.00465587)
(0.00458578 -0.0102409 0.00402439)
(0.00549126 -0.0122154 0.00553586)
(0.00507739 -0.0117645 0.00523695)
(0.00540103 -0.0125457 0.00583261)
(0.00521816 -0.0115665 0.00506927)
(0.00490912 -0.0116279 0.00546697)
(0.00521264 -0.0122954 0.00587726)
(0.00376128 -0.0109499 0.00508083)
(0.00367725 -0.0107943 0.00477075)
(0.00359048 -0.0110676 0.00504889)
(0.00361765 -0.0119237 0.00557434)
(0.00402361 -0.011161 0.00496327)
(0.00520113 -0.0112007 0.00502169)
(0.00529293 -0.0112021 0.00496026)
(0.00533841 -0.0111813 0.00491425)
(0.00526304 -0.0111203 0.00484503)
(0.00553606 -0.0112628 0.00488035)
(0.00533367 -0.0109834 0.00469197)
(0.00514017 -0.0107116 0.0047001)
(0.00534113 -0.0111255 0.00482805)
(0.00584206 -0.0116442 0.00488504)
(0.00534781 -0.0115072 0.00519974)
(0.00511195 -0.0111029 0.00540537)
(0.00528407 -0.0107667 0.00457877)
(0.00503905 -0.0107154 0.00457684)
(0.00487868 -0.0106595 0.0048231)
(0.00504943 -0.010706 0.00461592)
(0.00518798 -0.010844 0.00464557)
(0.0052754 -0.0106382 0.00424943)
(0.00533263 -0.0111539 0.00477077)
(0.00517425 -0.0104069 0.00423172)
(0.00529473 -0.0104498 0.00436316)
(0.00452856 -0.0100726 0.00374376)
(0.00460615 -0.00985586 0.00390237)
(0.00515915 -0.0106968 0.00423594)
(0.00500575 -0.0109079 0.00445265)
(0.00500479 -0.0102534 0.00433634)
(0.00513245 -0.0110772 0.00470587)
(0.00469881 -0.0101025 0.00418301)
(0.00528043 -0.0108185 0.00434954)
(0.00493992 -0.0109311 0.00445708)
(0.00513924 -0.0110621 0.00470064)
(0.00463255 -0.0104438 0.00443618)
(0.00433152 -0.0104188 0.00457598)
(0.00470198 -0.0107361 0.00473773)
(0.00466834 -0.0104054 0.00458653)
(0.00457144 -0.0109506 0.00466421)
(0.00477211 -0.010956 0.00465071)
(0.00473536 -0.0104769 0.00450399)
(0.00500937 -0.0105532 0.00449649)
(0.00504147 -0.0108525 0.00464828)
(0.00512908 -0.0113722 0.00485198)
(0.00480876 -0.00997998 0.00420279)
(0.00193794 -0.0109121 0.0040804)
(0.00178746 -0.0116601 0.00467526)
(0.0013226 -0.0106272 0.0036154)
(0.00179652 -0.00997511 0.0033468)
(0.00137653 -0.0118658 0.00429028)
(0.00149735 -0.0105845 0.00326967)
(0.00213006 -0.011006 0.00371261)
(0.00351537 -0.0111189 0.00469875)
(0.00323573 -0.0116462 0.00449163)
(0.0031099 -0.0110024 0.00450009)
(0.00304317 -0.0105925 0.00413314)
(0.00372495 -0.0112229 0.00456263)
(0.00331965 -0.0114435 0.00417595)
(0.00176922 -0.00847863 0.00178771)
(0.00246305 -0.0083485 0.00176614)
(0.00237778 -0.0088531 0.00204671)
(0.00378072 -0.010739 0.00403876)
(0.00396818 -0.0103028 0.00393068)
(0.00391224 -0.0104026 0.00390139)
(0.00369625 -0.010938 0.00421215)
(0.00356063 -0.0104782 0.00357937)
(0.00352967 -0.0103663 0.00388014)
(0.00243156 -0.011531 0.00503196)
(0.00299858 -0.0120899 0.00524632)
(0.0035573 -0.0114364 0.00510749)
(0.00249107 -0.0113977 0.00480355)
(0.00330298 -0.0116196 0.00555937)
(0.00303006 -0.0127219 0.00599153)
(0.00645498 -0.0242289 0.017735)
(0.00722943 -0.0210379 0.0141192)
(0.00668269 -0.0203553 0.0136996)
(0.00546642 -0.0222315 0.0163717)
(0.0044133 -0.0201085 0.0156328)
(0.00582764 -0.0200642 0.0148247)
(0.00750938 -0.0272703 0.0101632)
(0.00894546 -0.0288331 0.0104557)
(0.0058058 -0.026281 0.00825504)
(0.00965373 -0.0235344 0.0124465)
(0.00857497 -0.0214539 0.0131794)
(0.00901165 -0.0192344 0.0104265)
(0.00897742 -0.0214798 0.012948)
(0.00933115 -0.0196223 0.0112527)
(0.010337 -0.0221778 0.0110602)
(0.00447779 -0.0143164 0.00870362)
(0.00465781 -0.0147349 0.00921942)
(0.00411164 -0.013747 0.0078311)
(0.00315663 -0.014056 0.0087699)
(0.00369373 -0.0144738 0.00973337)
(0.00579753 -0.0123496 0.00608184)
(0.00579579 -0.0128419 0.00665203)
(0.00575539 -0.0128958 0.00674026)
(0.00542244 -0.0129718 0.00683995)
(0.00546965 -0.0124797 0.0063294)
(0.0057308 -0.0130759 0.00699474)
(0.00433236 -0.0122688 0.00602737)
(0.00388887 -0.0126447 0.00667783)
(0.00370468 -0.0119651 0.0060383)
(0.00414123 -0.0117682 0.00563611)
(0.00402392 -0.0119141 0.00556992)
(0.00406702 -0.0123422 0.00652408)
(-0.000978018 -0.0192739 0.0155928)
(-0.00227643 -0.017959 0.0149971)
(0.00195786 -0.0173413 0.0136607)
(0.00160983 -0.0207164 0.0165091)
(3.72022e-05 -0.0199112 0.0145978)
(0.00333126 -0.0214759 0.0170671)
(-0.00220974 -0.0107867 0.00290103)
(-0.00213166 -0.0105832 0.00326622)
(-0.0031027 -0.0115594 0.0041782)
(-0.00333314 -0.0107068 0.00237583)
(-0.00195103 -0.0120661 0.00442003)
(-0.00380107 -0.0105358 0.00310716)
(-0.00186574 -0.01312 0.00650728)
(-0.00106274 -0.0116809 0.00564323)
(-0.000554922 -0.0129035 0.00684173)
(-0.00193158 -0.013936 0.00787205)
(-0.00144777 -0.0130184 0.00768829)
(-0.00177209 -0.0123963 0.00575708)
(-0.00331279 -0.0151684 0.0106933)
(-0.00098327 -0.0152284 0.0101981)
(-0.00223539 -0.0168657 0.0123838)
(-0.000820973 -0.0149221 0.010544)
(-0.0083507 -0.0127593 0.00660878)
(-0.00939138 -0.0131363 0.00581976)
(-0.00810186 -0.0138902 0.00817996)
(0.00607121 -0.0127793 0.00529333)
(0.00645903 -0.0123082 0.00590608)
(0.00640553 -0.0129888 0.00514033)
(0.00585972 -0.0120669 0.00521795)
(0.00780633 -0.0147798 0.00660418)
(0.00677058 -0.01297 0.00596197)
(0.00711741 -0.0144591 0.00697531)
(0.00631936 -0.0130768 0.00662201)
(0.00666667 -0.0137489 0.00703352)
(0.00731445 -0.0149087 0.00770599)
(0.00666285 -0.013885 0.00746401)
(0.00730077 -0.0147731 0.00759742)
(0.00639766 -0.0130686 0.0058518)
(0.00589185 -0.0122423 0.00586234)
(0.00577351 -0.0119062 0.00568829)
(0.00607816 -0.0127055 0.0059974)
(0.00589399 -0.0122116 0.00563997)
(0.00626211 -0.0129221 0.0058601)
(0.00417204 -0.010277 0.00404302)
(0.00519068 -0.0111616 0.00490616)
(0.0040995 -0.00980905 0.00426527)
(0.00400436 -0.00961024 0.00381974)
(0.0042031 -0.0102189 0.00384032)
(0.00455941 -0.0101371 0.00409061)
(0.00456828 -0.0107889 0.00486857)
(0.00463983 -0.011052 0.00498379)
(0.00463922 -0.0113339 0.00519008)
(0.00484936 -0.0113738 0.00497005)
(0.00562831 -0.0118924 0.00541278)
(0.00479857 -0.0110138 0.00480637)
(0.0047284 -0.00934651 0.004146)
(0.00454355 -0.0103653 0.0040326)
(0.0046839 -0.0112991 0.00470655)
(0.00503876 -0.0113542 0.0043652)
(0.00532924 -0.0107358 0.00461085)
(0.00430172 -0.0110433 0.00390749)
(0.00558729 -0.0127998 0.00438769)
(0.00508821 -0.0129425 0.00432745)
(0.00521445 -0.0122048 0.00428319)
(0.0049857 -0.0126491 0.00421454)
(0.0049243 -0.012124 0.00419127)
(0.010803 -0.0292858 0.0122455)
(0.00938145 -0.0239782 0.0102629)
(0.0113252 -0.0271214 0.00973452)
(0.0106952 -0.0274234 0.0109027)
(0.0107982 -0.0257623 0.00948444)
(0.00790492 -0.0165728 0.00525508)
(0.0074096 -0.0156222 0.00633034)
(0.00717785 -0.0148422 0.00661698)
(0.00764701 -0.0163875 0.00618776)
(0.00757834 -0.0155721 0.00635491)
(0.00709843 -0.0149534 0.00542588)
(0.00486908 -0.00975256 0.00427803)
(0.00468005 -0.00948305 0.00404851)
(0.00458917 -0.00938224 0.00405404)
(0.00489438 -0.00980857 0.00407129)
(0.0047783 -0.00953345 0.00406747)
(0.00469557 -0.00971067 0.00429929)
(0.00462506 -0.00910207 0.00380878)
(0.00480486 -0.00969276 0.00391408)
(0.00465789 -0.00934332 0.00410844)
(0.00465947 -0.00935025 0.00390264)
(0.00471884 -0.00949312 0.0038526)
(0.0048916 -0.00947748 0.00405341)
(-0.00108596 -0.0055119 -0.00119115)
(-0.000656093 -0.00579247 -0.000896722)
(-0.00112085 -0.00652699 -0.000471558)
(-0.00179462 -0.00611193 -0.00140414)
(-0.000895858 -0.00638017 -0.000749523)
(-0.0020467 -0.0067203 -0.00108111)
(0.000333023 -0.00391505 -0.000795593)
(0.000571382 -0.00500637 -0.000436175)
(9.32165e-05 -0.00520759 -0.000752389)
(-0.000139272 -0.00468587 -0.00100308)
(-0.000172704 -0.00355395 -0.000881613)
(0.000862818 -0.00433493 6.0397e-06)
(0.00275925 -0.00616369 0.00186669)
(0.00276043 -0.00551396 0.0021984)
(0.00238827 -0.00554422 0.0014323)
(0.00330707 -0.00686022 0.00230513)
(0.0023618 -0.00543566 0.00165264)
(0.00235942 -0.00495043 0.00181293)
(0.00437246 -0.00890162 0.0034166)
(0.00486842 -0.00969971 0.00381443)
(0.00454689 -0.00974187 0.00380574)
(0.00484777 -0.0103762 0.00391676)
(0.00481765 -0.00981662 0.00348749)
(0.00475656 -0.0102394 0.003904)
(0.00430746 -0.00874866 0.0034063)
(0.00421065 -0.00905042 0.0032496)
(0.00442832 -0.00879993 0.00355771)
(0.00433146 -0.00894358 0.00339911)
(0.00439365 -0.00936472 0.00357348)
(0.00430932 -0.00878508 0.00371968)
(0.00387843 -0.00789487 0.00284472)
(0.00402891 -0.00814728 0.00348258)
(0.00423524 -0.00856036 0.00324365)
(0.00403376 -0.0082217 0.0033926)
(0.00383663 -0.0075637 0.00319343)
(0.00372718 -0.00759375 0.00311066)
(0.00389302 -0.0078045 0.00367698)
(0.0036901 -0.00756185 0.00346317)
(0.00389597 -0.00790973 0.00392165)
(0.00338876 -0.0071769 0.00386984)
(0.00374049 -0.00738494 0.00332486)
(0.00345295 -0.0073187 0.00402495)
(0.00371758 -0.00812337 0.00396263)
(0.00383551 -0.00840853 0.00416603)
(0.00391254 -0.00840429 0.00419394)
(0.00350339 -0.00820896 0.00440675)
(0.0036923 -0.00793814 0.00398606)
(0.0049834 -0.0102121 0.00430331)
(0.00493297 -0.0105256 0.00445987)
(0.0051191 -0.0111871 0.00460702)
(0.00488584 -0.0108151 0.00462244)
(0.0049187 -0.0110025 0.00449096)
(0.00471471 -0.0101243 0.00429568)
(0.00475559 -0.0104059 0.00453098)
(0.00517885 -0.0110643 0.00480944)
(0.00537732 -0.0103694 0.00436626)
(0.00469242 -0.0103323 0.00485008)
(0.00492861 -0.0106736 0.0047076)
(0.00523924 -0.0110759 0.004804)
(0.00494497 -0.0100887 0.00430509)
(0.0050191 -0.0100208 0.00409821)
(0.00499823 -0.0103948 0.00460323)
(0.00482961 -0.0101991 0.00461976)
(0.00500753 -0.0103717 0.00452806)
(0.00497775 -0.0102161 0.00434102)
(0.00454551 -0.0094751 0.0042029)
(0.00470469 -0.00966541 0.00422503)
(0.00473258 -0.00958211 0.00411485)
(0.00459908 -0.00960548 0.00441328)
(0.00478965 -0.0098107 0.00426138)
(0.00481473 -0.01103 0.00507022)
(0.00455674 -0.0103667 0.0045122)
(0.00444051 -0.0101701 0.00450024)
(0.00495325 -0.0106613 0.00457478)
(0.00455465 -0.0107838 0.00488324)
(0.00490024 -0.0101181 0.0043408)
(0.00519225 -0.0101207 0.00416381)
(0.00485835 -0.00986051 0.00388687)
(0.00485468 -0.00968057 0.00387679)
(0.00497152 -0.0104532 0.00425288)
(0.00476208 -0.0096554 0.00431823)
(0.00537123 -0.0106768 0.00410848)
(0.00497018 -0.00992341 0.00399436)
(0.00522172 -0.0103421 0.00429288)
(0.005362 -0.0106624 0.00418232)
(0.0048304 -0.0103222 0.00400504)
(0.00520515 -0.0110129 0.00457584)
(0.00522846 -0.0109518 0.00446981)
(0.0047739 -0.00997149 0.00443196)
(0.00482931 -0.00989867 0.00447291)
(0.00505635 -0.0105775 0.00451058)
(0.00501049 -0.010089 0.00428957)
(0.00485203 -0.0100595 0.00464261)
(0.00490825 -0.00995616 0.00438604)
(0.00487064 -0.0100755 0.0045415)
(0.0052113 -0.0104731 0.0047845)
(0.00508416 -0.0103224 0.00448959)
(0.00491002 -0.00998973 0.00465026)
(0.00467641 -0.0104787 0.0045155)
(0.00448117 -0.010725 0.00476935)
(0.00457345 -0.0111333 0.00469813)
(0.0043556 -0.0109328 0.00472337)
(0.00458356 -0.0110265 0.00456311)
(0.0044243 -0.0105161 0.00446419)
(0.00306693 -0.0106121 0.0049809)
(0.00309666 -0.0104584 0.00487428)
(0.00317309 -0.0109808 0.00491075)
(0.00283135 -0.0108651 0.00491932)
(0.00300335 -0.0109547 0.00482418)
(0.00296441 -0.0103512 0.00493058)
(0.00342351 -0.00980267 0.0049112)
(0.00366435 -0.0100142 0.00486512)
(0.00338209 -0.00937711 0.00454577)
(0.00319386 -0.00978145 0.00463008)
(0.0033184 -0.00980408 0.00469474)
(0.00333601 -0.0112083 0.00453291)
(0.00336247 -0.0125045 0.00478119)
(0.00369554 -0.0113539 0.00466745)
(0.00339899 -0.0114045 0.0046322)
(0.00331899 -0.0114903 0.00431691)
(0.00400037 -0.0116281 0.00463558)
(0.00440206 -0.0109538 0.00440166)
(0.00475223 -0.0105746 0.00451579)
(0.0043024 -0.0109349 0.00454569)
(0.00432979 -0.0102969 0.00421834)
(0.00432548 -0.0107338 0.00442054)
(0.00426893 -0.0110376 0.00469055)
(0.00535091 -0.0108413 0.00514507)
(0.00580614 -0.0119568 0.00533091)
(0.00523663 -0.0108395 0.0051945)
(0.0049191 -0.010031 0.00486589)
(0.00542607 -0.0108081 0.0049828)
(0.00489713 -0.00984566 0.00463772)
(0.00511472 -0.0104317 0.00488229)
(0.00553184 -0.0107452 0.00451467)
(0.00532138 -0.0105619 0.00457319)
(0.00550961 -0.0111474 0.00439623)
(0.00572618 -0.0113845 0.00477294)
(0.0053325 -0.0105946 0.00432405)
(0.00547363 -0.0109191 0.00464069)
(0.00517537 -0.0102963 0.00440792)
(0.0059789 -0.0113129 0.00512764)
(0.00569912 -0.0114644 0.00435492)
(0.00557439 -0.0108177 0.0047056)
(0.00589315 -0.0114479 0.00520356)
(0.00483437 -0.0099497 0.003966)
(0.0053666 -0.0107047 0.00422935)
(0.00518133 -0.0103305 0.00433607)
(0.00516595 -0.0103314 0.00435111)
(0.00507405 -0.0106261 0.00416814)
(0.00467704 -0.0101261 0.00413886)
(0.00510166 -0.0103964 0.00435814)
(0.00543321 -0.0105324 0.00448335)
(0.00480807 -0.0108603 0.00468301)
(0.00461525 -0.010761 0.004609)
(0.00457884 -0.0105769 0.00450685)
(0.00451471 -0.010646 0.00459244)
(0.00486354 -0.0103061 0.00446873)
(0.00478634 -0.0107223 0.00454437)
(0.00474457 -0.0105309 0.00425516)
(0.00474792 -0.0108763 0.00465318)
(0.00513825 -0.0109136 0.0045728)
(0.00484158 -0.0104556 0.004361)
(0.00433475 -0.0107469 0.00440862)
(0.00443463 -0.0113399 0.00443926)
(0.00550456 -0.0118472 0.00454821)
(0.00562927 -0.0117049 0.00465644)
(0.00556387 -0.0117572 0.00446986)
(0.00573374 -0.0117534 0.00465431)
(0.00553192 -0.0116889 0.00458306)
(0.00588395 -0.0121816 0.0048193)
(0.00561714 -0.0117225 0.004777)
(0.0057695 -0.0118513 0.0048206)
(0.00582393 -0.0119315 0.00506155)
(0.00570993 -0.0113221 0.00504554)
(0.00561799 -0.0114481 0.00486614)
(0.00576584 -0.0117528 0.00490143)
(0.00562771 -0.0115861 0.00476721)
(0.00570372 -0.0113072 0.00500476)
(0.00528484 -0.010648 0.00474888)
(0.00552843 -0.0112159 0.00465801)
(0.00541683 -0.0110127 0.00472369)
(0.0055413 -0.010986 0.00486936)
(0.00568377 -0.0114975 0.00524683)
(0.00486456 -0.0102067 0.00481468)
(0.00521031 -0.0106266 0.00498502)
(0.00524802 -0.0105941 0.00480657)
(0.0051843 -0.0104947 0.0042876)
(0.00521851 -0.0108754 0.0046337)
(0.00530006 -0.0107367 0.00469968)
(0.00541277 -0.0109264 0.00454968)
(0.00523842 -0.0108162 0.00458164)
(0.00543172 -0.0109718 0.00475292)
(0.00543212 -0.0110821 0.00490516)
(0.00553817 -0.0111788 0.004721)
(-0.000619844 -0.0123975 0.00543605)
(0.000838618 -0.0120389 0.00523065)
(-0.000667355 -0.0109851 0.00539262)
(-1.54863e-05 -0.010439 0.00538881)
(0.000620565 -0.0105917 0.00507756)
(1.76806e-05 -0.0125528 0.00509443)
(0.00150626 -0.0134918 0.00495298)
(0.000886524 -0.0142772 0.00499956)
(0.00237189 -0.0151787 0.00463444)
(0.0010363 -0.0155328 0.00432623)
(0.000689825 -0.0151413 0.0046661)
(0.0018993 -0.0135529 0.00470517)
(-0.000336632 -0.00915068 0.00559014)
(-0.00143791 -0.00928439 0.00560911)
(-0.000827102 -0.00775728 0.00583022)
(-0.00161503 -0.00782479 0.00580371)
(-0.000481873 -0.00770836 0.00539923)
(-0.00175163 -0.00905525 0.00592805)
(-0.00667535 -0.0184738 0.00406623)
(-0.00644051 -0.0165728 0.00452861)
(-0.00519668 -0.02033 0.0039325)
(-0.00403137 -0.0161837 0.004835)
(-0.00359052 -0.0172931 0.00437797)
(-0.00276372 -0.0200442 0.00438754)
(-0.00583753 -0.00630929 0.00648468)
(-0.00768661 -0.00840406 0.00687341)
(-0.00574935 -0.00630575 0.00714557)
(-0.00632236 -0.00778762 0.00675917)
(-0.001475 -0.00215404 0.00534976)
(-0.002417 -0.00272226 0.00558774)
(-0.00225731 -0.00284033 0.00594338)
(-0.00118253 -0.0017656 0.0046858)
(-0.0013979 -0.0017298 0.00451629)
(0.0017973 -0.00917516 0.00551353)
(0.00179632 -0.0101004 0.00542387)
(0.000642985 -0.00866147 0.00560646)
(0.0011862 -0.0101976 0.00562581)
(0.00200284 -0.00907108 0.00499194)
(0.00102599 -0.00892409 0.00525394)
(0.00275413 -0.00818136 0.00494256)
(0.00242731 -0.0079212 0.00478686)
(0.00276978 -0.00872479 0.00486908)
(0.00217964 -0.00754187 0.00501595)
(0.00276594 -0.00857362 0.00488281)
(0.00272552 -0.0086152 0.00485074)
(0.000653701 -0.00513426 0.00474233)
(0.000424471 -0.00422022 0.00445823)
(0.00114495 -0.00542188 0.00461224)
(0.000452533 -0.00606842 0.00506903)
(0.00129538 -0.00565771 0.00457019)
(0.00121804 -0.0061934 0.00490092)
(0.000429819 -0.00527722 0.00472454)
(0.00140201 -0.00452798 0.00393689)
(0.000845569 -0.00270657 0.00307946)
(0.000960385 -0.00244014 0.0026479)
(0.00139942 -0.00309602 0.00244385)
(0.000924432 -0.00318383 0.00330346)
(0.00152424 -0.00346721 0.00272598)
(0.00133191 -0.00346586 0.00317917)
(0.000452362 -0.00162072 0.000311676)
(0.000629267 -0.00146942 0.000829182)
(0.000427022 -0.00125812 0.00150911)
(0.000568231 -0.001948 0.000550953)
(0.000594962 -0.00188152 0.00127807)
(0.00196523 -0.00442543 0.00137052)
(0.00190698 -0.00393739 0.00229047)
(0.00169877 -0.00359053 0.00154719)
(0.00174222 -0.00374892 0.00166494)
(0.00226335 -0.00461193 0.00205224)
(0.0051595 -0.0108177 0.00437873)
(0.00490326 -0.0109324 0.00436849)
(0.00515091 -0.0111273 0.0043646)
(0.00558381 -0.0118194 0.00458331)
(0.00513213 -0.0108584 0.00427494)
(0.00495215 -0.0111005 0.00425704)
(0.00537699 -0.0114723 0.00445345)
(0.00516199 -0.0112505 0.00466435)
(0.00505609 -0.0106821 0.00414979)
(0.00496505 -0.0108164 0.00401684)
(0.00591104 -0.0109996 0.00481378)
(0.00577645 -0.0108289 0.00445404)
(0.00597241 -0.0109169 0.00504724)
(0.00507246 -0.0110345 0.00414251)
(0.00527609 -0.0102508 0.00452887)
(0.00486676 -0.0105195 0.00403477)
(0.00515611 -0.0113088 0.00437401)
(0.00520892 -0.0105742 0.00447711)
(0.00573994 -0.0120481 0.0048862)
(0.00595148 -0.0119985 0.00479807)
(0.00512714 -0.0116167 0.00430363)
(0.00550963 -0.0106518 0.00450261)
(0.00537424 -0.0115418 0.00453981)
(0.00587905 -0.0114249 0.00487285)
(0.00544112 -0.0111516 0.00471805)
(0.00528629 -0.0109077 0.00448684)
(0.0054662 -0.0109523 0.0045116)
(0.00553569 -0.0112608 0.00452591)
(0.00509733 -0.0103747 0.0044206)
(0.00550457 -0.0109272 0.00466386)
(-0.00218579 -0.00532041 -0.00215272)
(-0.00212318 -0.00522292 -0.00189794)
(-0.00124831 -0.00469749 -0.00180021)
(-0.00142184 -0.00500138 -0.00181482)
(-0.001682 -0.00472157 -0.00195033)
(0.00499317 -0.010453 0.00476402)
(0.00476697 -0.0102143 0.00466805)
(0.00513716 -0.0107928 0.00482116)
(0.00539851 -0.0114278 0.00503615)
(0.00443065 -0.00996224 0.00452892)
(0.00435356 -0.0101047 0.00461491)
(0.00454464 -0.0102015 0.00452053)
(0.00463048 -0.00968534 0.00428446)
(0.00476288 -0.0105275 0.00465727)
(0.00422653 -0.00984452 0.00446055)
(0.00486642 -0.00998856 0.00442877)
(0.00434648 -0.00935515 0.00449976)
(0.00485253 -0.010091 0.00428352)
(0.00499428 -0.0104493 0.0040869)
(0.00506732 -0.010339 0.00418053)
(0.00506726 -0.0105551 0.0042309)
(0.00456626 -0.00937333 0.00371545)
(0.00461434 -0.00934533 0.00383326)
(0.0048574 -0.00982409 0.00373021)
(0.0030561 -0.00652962 0.00268209)
(0.00331805 -0.00727082 0.00262648)
(-0.00722715 -0.00945093 -0.000929752)
(0.00494058 -0.0108603 0.00436342)
(0.00517761 -0.0106744 0.00428654)
(0.00557962 -0.0115504 0.00472166)
(0.00484323 -0.0112693 0.00465217)
(0.00503688 -0.0105899 0.00452761)
(0.00462023 -0.0104354 0.0041646)
(0.00521584 -0.0117852 0.00412648)
(0.000783602 -0.00165998 0.0015207)
(0.000794498 -0.00150913 0.0013845)
(0.000513456 -0.00143053 0.00182576)
(0.000632961 -0.0027668 -0.000483598)
(0.00127958 -0.0027306 0.00147866)
(0.00113988 -0.00265475 0.000844631)
(0.00050624 -0.00163244 0.00185023)
(0.000496562 -0.0020262 -0.000278982)
(0.000770436 -0.00199827 0.000378376)
(0.000621148 -0.00204451 5.01639e-05)
(0.000703511 -0.0018147 0.000651675)
(0.000360038 -0.00261235 -9.10351e-05)
(0.000245919 -0.00261519 -0.000324298)
(0.000185624 -0.00313545 -0.000690425)
(0.000197353 -0.00139947 0.0021871)
(0.00153881 -0.0032372 0.00211327)
(0.000790023 -0.00192744 0.00221677)
(0.00186524 -0.00391554 0.00249778)
(0.00232136 -0.00468642 0.00254651)
(8.46023e-05 -0.00140473 0.00268069)
(0.00025084 -0.00111919 0.00227012)
(0.000392431 -0.00140707 0.00246047)
(0.00155978 -0.00410106 0.00359546)
(0.0022606 -0.00478466 0.00285563)
(0.00214403 -0.00466326 0.00304624)
(0.00188605 -0.00446998 0.0033357)
(0.00234975 -0.00493924 0.00312999)
(0.00257565 -0.00549047 0.003416)
(0.00195368 -0.00520266 0.00385285)
(0.00196872 -0.00484914 0.00364788)
(0.00253976 -0.00590586 0.00394885)
(0.00231253 -0.0059217 0.00402874)
(0.00207545 -0.00564735 0.00418827)
(0.00176677 -0.00576849 0.00447736)
(0.00245358 -0.00635134 0.00418737)
(0.00132635 -0.00639981 0.00483221)
(0.00185263 -0.00651356 0.00463118)
(0.00187045 -0.00621514 0.00453669)
(0.00261793 -0.00729104 0.004531)
(0.00260585 -0.0068283 0.0043486)
(0.00137614 -0.00756948 0.00517714)
(0.00164362 -0.00780097 0.00495074)
(0.00224895 -0.00865622 0.00487364)
(-0.000228602 -0.00131562 0.00321428)
(-0.000448916 -0.00164043 0.00388617)
(0.000649983 -0.00327345 0.00400107)
(9.18285e-05 -0.00319071 0.00430633)
(-0.000457169 -0.00131761 0.00352224)
(0.000105953 -0.00252594 0.00371956)
(-0.000575474 -0.00195384 0.00404921)
(0.000272239 -0.00207792 0.00332445)
(0.000225739 -0.00162241 0.00308074)
(-0.000231588 -0.00541118 0.00498742)
(-0.000350187 -0.00502021 0.00505323)
(-0.000184194 -0.00382042 0.00461373)
(-0.000299818 -0.00348021 0.00467202)
(-0.00470492 -0.00825139 0.00631891)
(-0.00635389 -0.00836213 0.00641336)
(-0.00682819 -0.00977113 0.00610651)
(-0.00197144 -0.00719063 0.00599393)
(-0.000786671 -0.00640151 0.00561549)
(-0.00157224 -0.00644896 0.00597563)
(0.000250879 -0.00655681 0.00525169)
(-0.000657871 -0.00661242 0.00548994)
(0.000292898 -0.00722255 0.0054842)
(9.42016e-05 -0.00761449 0.00537886)
(-0.0042329 -0.00842727 0.00578481)
(-0.00351807 -0.00814613 0.00600121)
(-0.00290728 -0.00900105 0.00583462)
(-0.00620436 -0.0108697 0.00590994)
(-0.00433655 -0.0108447 0.00624578)
(7.51663e-05 -0.00903715 0.00505272)
(-0.00111945 -0.0106756 0.005699)
(0.00153029 -0.0107296 0.00539791)
(-0.000200347 -0.0139932 0.00503948)
(-0.000909762 -0.0146297 0.00487713)
(-0.00034845 -0.0157479 0.00478956)
(0.000340147 -0.0170665 0.00473528)
(0.00140497 -0.0208117 0.00394644)
(0.000319303 -0.0199086 0.00390849)
(-0.000448808 -0.0219075 0.00282812)
(-0.000772992 -0.0231967 0.00399781)
(-0.00141957 -0.0168171 0.00411389)
(-0.0024787 -0.017038 0.00460621)
(-0.00100313 -0.0191818 0.00404687)
(-0.00222808 -0.0196645 0.00327938)
(-0.00691837 -0.0114825 0.00483743)
(-0.00631919 -0.0112135 0.00566248)
(-0.00726028 -0.015303 0.00479238)
(-0.00707398 -0.0134025 0.00503296)
(0.00510172 -0.0103635 0.00463411)
(0.00490701 -0.0101809 0.00428925)
(0.00538933 -0.0110596 0.00448308)
(0.00594849 -0.0119005 0.0050582)
(0.00530569 -0.0113127 0.00511919)
(0.00483895 -0.01025 0.00505853)
(0.00528541 -0.0107223 0.00443165)
(0.00503829 -0.0103704 0.00449323)
(0.00549388 -0.0109236 0.00479626)
(0.00546872 -0.0109742 0.00477277)
(0.00571916 -0.01146 0.00498709)
(0.00522559 -0.0117985 0.00433309)
(0.00519957 -0.0112025 0.00441311)
(0.00536103 -0.0114457 0.00443945)
(0.00506345 -0.0112245 0.00440552)
(0.00488468 -0.0112705 0.00437711)
(0.00514068 -0.0107994 0.00453121)
(0.00496485 -0.0111566 0.00448698)
(0.00503633 -0.0112286 0.0045522)
(0.00486106 -0.0108687 0.00440816)
(0.00505799 -0.0106184 0.00429543)
(0.00468454 -0.0104515 0.00424513)
(0.00439126 -0.0105557 0.00423122)
(0.00504101 -0.0112085 0.00454465)
(0.00503918 -0.0108304 0.00468595)
(0.00493352 -0.0102195 0.00422316)
(0.00447564 -0.0107692 0.00463781)
(0.00484864 -0.0103411 0.0041324)
(0.00512733 -0.010341 0.00423685)
(0.00534027 -0.0111755 0.00446114)
(0.00506744 -0.0100172 0.00415917)
(0.00445465 -0.0100027 0.00408692)
(0.00470771 -0.0104931 0.00419661)
(0.00511958 -0.0103814 0.00430206)
(0.00497786 -0.0103843 0.00416612)
(0.00508636 -0.0105288 0.00420428)
(0.00479214 -0.0103363 0.00428031)
(0.00582516 -0.0115839 0.00488594)
(0.00552692 -0.011621 0.004627)
(0.00559466 -0.0116509 0.00478074)
(0.00568143 -0.0117022 0.00482608)
(0.00563427 -0.0116451 0.00475387)
(0.00539333 -0.011466 0.00461995)
(0.00569905 -0.0116695 0.00483543)
(0.00576091 -0.011544 0.00494073)
(0.00565807 -0.0113452 0.00484674)
(0.00576034 -0.0114821 0.00443872)
(0.00547306 -0.0111316 0.00450812)
(0.00582907 -0.011896 0.004538)
(0.00533654 -0.0110768 0.0042684)
(0.00538306 -0.00990521 0.00443281)
(0.00538587 -0.0107419 0.0046936)
(0.00514508 -0.0104206 0.00480726)
(0.00520879 -0.0104751 0.00457938)
(0.00575533 -0.0113164 0.00510233)
(0.00553388 -0.0111797 0.00467592)
(0.00576223 -0.0115457 0.00502235)
(0.00562617 -0.0110326 0.00482099)
(0.00540353 -0.0111998 0.00435571)
(0.00550396 -0.0114383 0.00453199)
(0.00549261 -0.0111233 0.00462757)
(0.00524465 -0.0106073 0.00459507)
(0.00552926 -0.0113501 0.00465108)
(0.00521722 -0.010663 0.00464501)
(0.00513148 -0.0105708 0.004872)
(0.00545416 -0.0112429 0.00489938)
(0.00537549 -0.0109424 0.00453504)
(0.0054224 -0.0108077 0.00461907)
(0.00535553 -0.0108543 0.0045694)
(0.00592286 -0.0116328 0.00463258)
(0.0051173 -0.0102992 0.00432972)
(0.00487822 -0.0103007 0.00416365)
(0.00542006 -0.0112611 0.00459498)
(0.00521867 -0.0102038 0.0046671)
(0.00542102 -0.0110156 0.00491807)
(0.00495918 -0.0101845 0.0043573)
(0.00515832 -0.0102488 0.00466608)
(0.0047886 -0.00973671 0.00441422)
(0.00559592 -0.0114012 0.00508244)
(-0.00118246 -0.00346681 -0.00195417)
(-0.000593852 -0.00371217 -0.00149749)
(1.25543e-05 -0.00249802 -0.001138)
(0.000114079 -0.00267899 -0.000971336)
(-0.000305275 -0.00382892 -0.00116886)
(-0.000678239 -0.00474934 -0.00167211)
(-0.00136884 -0.00481221 -0.00190085)
(-0.00291742 -0.00562612 -0.00184678)
(-0.00168031 -0.00490787 -0.00194777)
(-0.00335427 -0.00629225 -0.0021513)
(-0.00259076 -0.00545278 -0.00205472)
(-0.0065268 -0.00935697 -0.00134658)
(-0.00411261 -0.00743519 -0.001789)
(-0.00487177 -0.00831053 -0.00168341)
(0.00519547 -0.0110488 0.00453638)
(0.00501907 -0.0112398 0.00473143)
(0.00507501 -0.0110389 0.00473749)
(0.00476711 -0.0112741 0.00426267)
(0.00447097 -0.0112545 0.00439894)
(0.00295769 -0.00990162 0.00481467)
(0.00338531 -0.0105038 0.00492434)
(0.00331398 -0.0108755 0.00468186)