/*--------------------------------*- C++ -*----------------------------------*\
| =========                 |                                                 |
| \\      /  F ield         | OpenFOAM: The Open Source CFD Toolbox           |
|  \\    /   O peration     | Version:  v1612+                                |
|   \\  /    A nd           | Web:      www.OpenFOAM.com                      |
|    \\/     M anipulation  |                                                 |
\*---------------------------------------------------------------------------*/
FoamFile
{
    version     2.0;
    format      ascii;
    class       volVectorField;
    location    "100";
    object      wallShearStress;
}
// * * * * * * * * * * * * * * * * * * * * * * * * * * * * * * * * * * * * * //

dimensions      [0 2 -2 0 0 0 0];

internalField   uniform (0 0 0);

boundaryField
{
    WALL
    {
        type            calculated;
        value           nonuniform List<vector> 
1494
(
(0.00484757 -0.00523666 0.0100021)
(0.00416364 -0.00558194 0.0099724)
(0.00520548 -0.00608249 0.0113526)
(0.00545572 -0.00617944 0.0120781)
(0.00467447 -0.00567923 0.0104292)
(0.00481665 -0.00604643 0.0110983)
(0.0052737 -0.00644703 0.011882)
(0.00529182 -0.00655436 0.0120567)
(0.00491204 -0.00622102 0.0114228)
(0.00520104 -0.00637499 0.0117247)
(0.00569406 -0.0067001 0.012519)
(0.00538662 -0.00678569 0.0125927)
(0.00498619 -0.00585994 0.0110884)
(0.0047621 -0.00579205 0.0108171)
(0.00479624 -0.00569239 0.0105116)
(0.00464882 -0.00577871 0.0106322)
(0.00566736 -0.00675784 0.012147)
(0.00605553 -0.00734516 0.012648)
(0.00552499 -0.00670756 0.0124596)
(0.00542664 -0.00656335 0.0120447)
(0.00495577 -0.00633586 0.0117015)
(0.00475867 -0.00598765 0.0108361)
(0.00497464 -0.00669217 0.0115371)
(0.00548064 -0.00650247 0.0119391)
(0.00553609 -0.00601033 0.0114072)
(0.00522744 -0.00626044 0.0117641)
(0.0051178 -0.00692623 0.0121573)
(0.00530947 -0.00617722 0.0119149)
(0.00527035 -0.00696994 0.0124269)
(0.0055877 -0.00667964 0.0124123)
(0.00543683 -0.00701804 0.0124968)
(0.0048285 -0.00525072 0.0103385)
(0.00457915 -0.00568179 0.0105342)
(0.0053597 -0.0064077 0.0119539)
(0.00527962 -0.00654012 0.011995)
(0.00448461 -0.00609907 0.0105615)
(0.0044666 -0.00618871 0.0104721)
(0.00512892 -0.00663283 0.0122959)
(0.00467692 -0.00587498 0.0104377)
(0.00452589 -0.00586461 0.0104156)
(0.00475476 -0.00567609 0.0107286)
(0.00513928 -0.00600664 0.0110082)
(0.00465763 -0.00579955 0.0107548)
(0.0047842 -0.00585507 0.0109051)
(0.00456397 -0.00556235 0.0105828)
(0.00474029 -0.00569713 0.0106696)
(0.00488343 -0.00599274 0.0111826)
(0.00459029 -0.00525754 0.0101253)
(0.00436017 -0.00531425 0.00991098)
(0.00442226 -0.00552691 0.0100164)
(0.0046423 -0.0053497 0.0103167)
(0.00449153 -0.00528325 0.0100349)
(0.0045663 -0.00564464 0.0103355)
(0.00541037 -0.00668533 0.0119153)
(0.00583054 -0.00700028 0.0121452)
(0.00541916 -0.00700308 0.0126042)
(0.00541659 -0.00658421 0.0125371)
(0.00491039 -0.00601857 0.0118105)
(0.00570599 -0.00713972 0.0129188)
(0.00596324 -0.00689815 0.013012)
(0.00471772 -0.00555589 0.0100917)
(0.00466472 -0.00562127 0.0104419)
(0.00481646 -0.00556094 0.0103116)
(0.00454296 -0.00534463 0.0101119)
(0.00469701 -0.00562914 0.0103109)
(0.00485383 -0.00568001 0.0106888)
(0.00532557 -0.00646949 0.0117363)
(0.00605103 -0.00689519 0.0125319)
(0.00563901 -0.0065542 0.0121245)
(0.00544942 -0.00662173 0.0122997)
(0.00561745 -0.00661457 0.0122006)
(0.00558377 -0.0066605 0.0119577)
(0.00589209 -0.00688233 0.0123632)
(0.0053202 -0.00645065 0.0119771)
(0.00503308 -0.0063576 0.0118975)
(0.00611417 -0.00715408 0.012922)
(0.00547824 -0.00639449 0.0119219)
(0.00529937 -0.00644033 0.0127669)
(0.00593527 -0.00700988 0.0140256)
(0.0053577 -0.00667747 0.0125351)
(0.00618745 -0.00706376 0.0130781)
(0.00640112 -0.00663939 0.0137465)
(0.00620456 -0.00718446 0.014645)
(0.00558776 -0.0067195 0.0115483)
(0.00529408 -0.00642858 0.0118088)
(0.00533871 -0.00650019 0.0120365)
(0.00517519 -0.00658183 0.0121038)
(0.00532622 -0.00649172 0.0120055)
(0.0053794 -0.00653929 0.0119853)
(0.00534819 -0.00659896 0.0120615)
(0.00475928 -0.00579489 0.0110006)
(0.00486197 -0.00618184 0.0114508)
(0.00504312 -0.00591984 0.0113885)
(0.0047727 -0.00594219 0.011118)
(0.00475772 -0.00593281 0.0112333)
(0.0050239 -0.00597497 0.0114078)
(0.00426332 -0.0054084 0.00994441)
(0.00416628 -0.00522951 0.00967619)
(0.00426835 -0.00530953 0.00987686)
(0.00419163 -0.00540473 0.00996849)
(0.00529316 -0.00680748 0.0124247)
(0.00569913 -0.00659609 0.012419)
(0.00485823 -0.00597042 0.0120204)
(0.00511069 -0.0057346 0.011886)
(0.0050968 -0.00617356 0.011258)
(0.00488723 -0.00601102 0.011857)
(0.00493766 -0.00639347 0.0111854)
(0.00554825 -0.00693873 0.0123243)
(0.00567836 -0.00706712 0.0120472)
(0.00572052 -0.00617179 0.0125415)
(0.0055834 -0.00656868 0.011388)
(0.00502598 -0.00594954 0.0112719)
(0.0050856 -0.00622592 0.0114828)
(0.00499089 -0.00610331 0.0113811)
(0.00541922 -0.00651401 0.0126606)
(0.00488772 -0.00630682 0.0116663)
(0.00525063 -0.00606675 0.0114509)
(0.00489401 -0.00601817 0.0110199)
(0.00488585 -0.00600379 0.0110083)
(0.00476771 -0.00587334 0.0107124)
(0.00503216 -0.00589864 0.0105544)
(0.00506105 -0.0060174 0.0110454)
(0.00500883 -0.00625731 0.0116721)
(0.00519526 -0.00622026 0.0118998)
(0.00565172 -0.00666987 0.0126503)
(0.00513188 -0.00636888 0.0118855)
(0.00552918 -0.0063915 0.0116937)
(0.00532763 -0.00644567 0.0119395)
(0.00523346 -0.00647203 0.0117093)
(0.00469246 -0.00572095 0.0115375)
(0.00478733 -0.00600727 0.0112209)
(0.00555678 -0.00728866 0.0114359)
(0.00624554 -0.00747182 0.0131079)
(0.00551629 -0.0067647 0.0127568)
(0.00552106 -0.00737168 0.0118637)
(0.0053522 -0.00657929 0.0118399)
(0.00567644 -0.00603533 0.0122036)
(0.00537181 -0.00626814 0.0121467)
(0.0053138 -0.00646818 0.0118878)
(0.00531623 -0.00639601 0.0118144)
(0.00584314 -0.00667784 0.0128984)
(0.00546041 -0.00668889 0.0119203)
(0.0053137 -0.00669532 0.0123081)
(0.00577229 -0.00698264 0.0120347)
(0.00550186 -0.00684954 0.0122493)
(0.00590031 -0.0071629 0.0122113)
(0.00595054 -0.00713612 0.0123159)
(0.00585756 -0.00760657 0.0133971)
(0.00561459 -0.00728731 0.0124988)
(0.0055039 -0.00675904 0.0128813)
(0.00549707 -0.00668879 0.0121626)
(0.00538914 -0.00681206 0.0124447)
(0.0054059 -0.00654218 0.01253)
(0.00537937 -0.00661064 0.0124575)
(0.005645 -0.00714721 0.0130057)
(0.00563947 -0.00701153 0.0127187)
(0.00539959 -0.00637248 0.0118589)
(0.00543658 -0.00639846 0.0122699)
(0.005886 -0.00725314 0.0125492)
(0.00536521 -0.00647587 0.0120112)
(0.00551905 -0.00662628 0.0120931)
(0.005321 -0.00639969 0.0119549)
(0.00560626 -0.00674638 0.012478)
(0.00546101 -0.00645345 0.0120854)
(0.00539752 -0.00653251 0.012355)
(0.00553453 -0.00676016 0.0123208)
(0.005287 -0.00635626 0.0121125)
(0.00519314 -0.00633218 0.0117991)
(0.00575443 -0.00681909 0.0118923)
(0.0053518 -0.00620841 0.0109836)
(0.00587789 -0.00719559 0.0119021)
(0.00515502 -0.00656002 0.0122715)
(0.00509102 -0.00585204 0.0117085)
(0.00544503 -0.00698334 0.0117517)
(0.00500498 -0.00604244 0.0111138)
(0.00490992 -0.00600595 0.0110607)
(0.00500185 -0.00614897 0.0111432)
(0.00497775 -0.00604037 0.0111343)
(0.00539501 -0.00666348 0.0112452)
(0.00494752 -0.0061477 0.0111679)
(0.00529715 -0.00632331 0.0117547)
(0.00522251 -0.00610907 0.0115751)
(0.00515296 -0.00614479 0.0113137)
(0.00525298 -0.00640416 0.0117908)
(0.00524276 -0.0063149 0.0115258)
(0.00541094 -0.00645522 0.0117194)
(0.00558354 -0.00718843 0.0130262)
(0.00546923 -0.00654434 0.012159)
(0.00553399 -0.00648972 0.0121584)
(0.00525221 -0.00654558 0.0123937)
(0.00549437 -0.00679561 0.0128391)
(0.00589716 -0.00701069 0.0127253)
(0.00545121 -0.00638893 0.0121377)
(0.00523018 -0.00630105 0.0122715)
(0.00593688 -0.00692507 0.0127571)
(0.0050501 -0.00600614 0.0115815)
(0.00604329 -0.00716789 0.0124169)
(0.00530578 -0.00617674 0.0122143)
(0.00551984 -0.00669599 0.0122277)
(0.00563513 -0.00698443 0.0125704)
(0.00528245 -0.00662279 0.0118932)
(0.00535687 -0.00675037 0.0118121)
(0.00539246 -0.00656725 0.0116021)
(0.00568425 -0.00711505 0.0119991)
(0.00522996 -0.00628464 0.0114997)
(0.00520518 -0.00644969 0.0116685)
(0.00551773 -0.00668761 0.011889)
(0.00498547 -0.00613526 0.0116416)
(0.00488926 -0.00624965 0.01139)
(0.00511061 -0.00638247 0.0113471)
(0.00533539 -0.00642518 0.0114676)
(0.00494155 -0.00605379 0.0111696)
(0.00502774 -0.00608888 0.011339)
(0.00477185 -0.00592121 0.0111071)
(0.0048214 -0.00582275 0.0111017)
(0.00489449 -0.00603888 0.0108712)
(0.00551385 -0.00658985 0.0120927)
(0.0053113 -0.00636528 0.0117268)
(0.0049941 -0.00625179 0.0117165)
(0.00537618 -0.00653436 0.0119757)
(0.00501121 -0.00616725 0.0116769)
(0.00529784 -0.00628868 0.0118608)
(0.00525456 -0.00606518 0.0116569)
(0.00552477 -0.00644483 0.0126968)
(0.00553119 -0.00596308 0.0122544)
(0.00503082 -0.00659234 0.0116176)
(0.00488848 -0.00590344 0.0109178)
(0.00531512 -0.00641761 0.0120139)
(0.00513346 -0.00654815 0.0116664)
(0.00555633 -0.00678106 0.0129945)
(0.00556884 -0.00632622 0.0123621)
(0.00553144 -0.00671154 0.0128716)
(0.00556958 -0.00640635 0.0125105)
(0.00528723 -0.00622864 0.0117173)
(0.00545918 -0.0064693 0.0122204)
(0.00499542 -0.00650338 0.0116856)
(0.00544932 -0.00594581 0.0117385)
(0.00517848 -0.00589345 0.0116127)
(0.00530342 -0.00608009 0.0118188)
(0.00559498 -0.00648193 0.0124201)
(0.0053186 -0.00636712 0.0116328)
(0.0054379 -0.00626906 0.0119879)
(0.00538403 -0.00618472 0.0116924)
(0.0053688 -0.00672943 0.0121838)
(0.0051389 -0.00611048 0.0113355)
(0.00536013 -0.00634134 0.0117426)
(0.00538979 -0.00654912 0.0119805)
(0.00535215 -0.00651729 0.0120591)
(0.00517561 -0.00672666 0.0122653)
(0.00539612 -0.00654739 0.0120221)
(0.00567852 -0.00644068 0.0120279)
(0.00538504 -0.00632134 0.0118374)
(0.00540117 -0.00706631 0.0123636)
(0.00536436 -0.00646537 0.0118556)
(0.00533646 -0.00655969 0.0120527)
(0.00540086 -0.00672469 0.0120368)
(0.00545459 -0.0065954 0.0120207)
(0.00557332 -0.00670612 0.0122473)
(0.00560533 -0.00630276 0.0122047)
(0.00556804 -0.00659104 0.0124082)
(0.00576624 -0.00707651 0.013162)
(0.00538466 -0.00684034 0.0122867)
(0.00554886 -0.00634249 0.0122855)
(0.00470064 -0.00567999 0.0105378)
(0.00474528 -0.00625586 0.0113713)
(0.00421096 -0.00595652 0.0106532)
(0.00477529 -0.00598888 0.0110281)
(0.00478377 -0.00587714 0.0112706)
(0.00504173 -0.00538694 0.0106284)
(0.00457693 -0.00573252 0.0105363)
(0.00411443 -0.00541465 0.00979475)
(0.00433125 -0.0050679 0.00952942)
(0.00453757 -0.00535625 0.0101157)
(0.00412218 -0.00560294 0.0098166)
(0.0044028 -0.00612641 0.0104185)
(0.0044583 -0.00568898 0.0103257)
(0.00460273 -0.00579931 0.0105403)
(0.00427556 -0.0058137 0.0101173)
(0.00485204 -0.00600096 0.0110365)
(0.00485585 -0.00544152 0.0104212)
(0.00422266 -0.00593157 0.00983409)
(0.00457854 -0.00601395 0.0106288)
(0.00425162 -0.00646283 0.0103938)
(0.00442283 -0.00605944 0.0104705)
(0.00457883 -0.00601137 0.0105929)
(0.00417371 -0.00568412 0.00984388)
(0.00471164 -0.00567184 0.0105361)
(0.00508128 -0.00593453 0.0111117)
(0.00481375 -0.00594718 0.011144)
(0.00466632 -0.00594386 0.0109983)
(0.00502669 -0.00587127 0.0109433)
(0.00466985 -0.0058382 0.0110911)
(0.00496212 -0.00565569 0.0105781)
(0.00512801 -0.00616662 0.011396)
(0.005226 -0.0065958 0.0119655)
(0.00528496 -0.00638159 0.0119545)
(0.00488652 -0.00619186 0.0115133)
(0.00537596 -0.00647079 0.0117773)
(0.0053706 -0.00657918 0.0122931)
(0.00531176 -0.00624578 0.011878)
(0.0053144 -0.00650326 0.011881)
(0.00566321 -0.00664765 0.012088)
(0.00550839 -0.00674265 0.0120809)
(0.00558119 -0.00706086 0.0128973)
(0.00551305 -0.00679749 0.0121754)
(0.00557676 -0.00681897 0.0128071)
(0.00573309 -0.00713459 0.0128109)
(0.00534714 -0.00652664 0.0127384)
(0.00571288 -0.0072873 0.0132216)
(0.0056749 -0.00672573 0.0129364)
(0.00557632 -0.00677788 0.0124432)
(0.00578076 -0.00725248 0.0125777)
(0.00537619 -0.00629082 0.0116058)
(0.00595511 -0.00732129 0.0127512)
(0.00551741 -0.00670457 0.0122863)
(0.00581005 -0.00705327 0.0120638)
(0.00531636 -0.00650092 0.0120213)
(0.00527209 -0.006648 0.0127903)
(0.00501352 -0.0065076 0.0120167)
(0.00547457 -0.00643201 0.0118677)
(0.00537272 -0.00676166 0.0125093)
(0.00579013 -0.00665832 0.0122185)
(0.00517267 -0.00652178 0.0122074)
(0.00561715 -0.00666798 0.0124328)
(0.00554076 -0.00684104 0.0125124)
(0.00546224 -0.00666989 0.0120525)
(0.00531408 -0.00649633 0.0118057)
(0.00553328 -0.00678374 0.0123438)
(0.00536111 -0.0069284 0.0128178)
(0.00507092 -0.00652461 0.0125072)
(0.00566807 -0.00669827 0.0120624)
(0.00534356 -0.00657007 0.0117974)
(0.00536636 -0.00665915 0.0119996)
(0.00523808 -0.00679694 0.0129213)
(0.0054156 -0.00639948 0.0113974)
(0.00545189 -0.00668255 0.0121947)
(0.00545671 -0.00659933 0.0119689)
(0.00542687 -0.00649125 0.0119624)
(0.00501574 -0.00661485 0.012022)
(0.00511016 -0.00644042 0.0124791)
(0.00526417 -0.00661557 0.0123332)
(0.0055744 -0.00674619 0.0123949)
(0.0052828 -0.00648242 0.0118905)
(0.0055043 -0.00671802 0.0123431)
(0.00523933 -0.00701856 0.0125644)
(0.00560919 -0.00653068 0.0122959)
(0.00558246 -0.00669416 0.0122024)
(0.00575971 -0.00652761 0.0123063)
(0.00527601 -0.00667334 0.012118)
(0.00516918 -0.00610464 0.0113289)
(0.00521776 -0.00576364 0.0110159)
(0.00505946 -0.00636646 0.0115016)
(0.00554529 -0.00595416 0.0115821)
(0.00488488 -0.00603193 0.0109066)
(0.00470173 -0.00629843 0.0111668)
(0.00515881 -0.00584693 0.0111705)
(0.0051634 -0.006336 0.0116361)
(0.00469427 -0.00573203 0.0105784)
(0.00459589 -0.00577807 0.0106419)
(0.00454469 -0.00574315 0.0104872)
(0.0046758 -0.00582306 0.0105937)
(0.00470963 -0.00575588 0.0106543)
(0.00510187 -0.00622787 0.0111702)
(0.00477925 -0.00600022 0.0106939)
(0.00497895 -0.00597597 0.0103787)
(0.00441626 -0.00541273 0.0102348)
(0.00476603 -0.00582914 0.0102747)
(0.00454584 -0.00556968 0.0103549)
(0.00499154 -0.00600893 0.0107025)
(0.00507095 -0.0061942 0.0110803)
(0.00497076 -0.00613175 0.0110347)
(0.00475831 -0.005755 0.0109163)
(0.00484938 -0.00597051 0.010921)
(0.00493553 -0.00601 0.0108436)
(0.00530679 -0.00651362 0.0120055)
(0.00546902 -0.00672462 0.0126928)
(0.00545203 -0.00645054 0.0122336)
(0.005311 -0.0061223 0.0116974)
(0.00541594 -0.00671615 0.0122635)
(0.00509451 -0.00605359 0.0114169)
(0.00591487 -0.00701938 0.0125368)
(0.00483135 -0.0062669 0.0116432)
(0.00534268 -0.0064385 0.0117208)
(0.00540369 -0.00611178 0.011511)
(0.00488473 -0.00580522 0.0106541)
(0.00473819 -0.00584188 0.0109496)
(0.00513262 -0.00648024 0.0117554)
(0.00556342 -0.00680536 0.0124718)
(0.00525484 -0.00656682 0.0123313)
(0.00540352 -0.00653941 0.0121372)
(0.00531616 -0.00649205 0.0121258)
(0.00550483 -0.00719004 0.0132449)
(0.00549161 -0.00670024 0.012816)
(0.00554158 -0.00666829 0.0125561)
(0.00532212 -0.00668689 0.0120223)
(0.00549359 -0.00643034 0.0120993)
(0.00563741 -0.00682801 0.012499)
(0.00534127 -0.00688819 0.0130615)
(0.00586285 -0.00686505 0.0126787)
(0.00569236 -0.00697245 0.0133417)
(0.00593408 -0.00692674 0.0124988)
(0.00521561 -0.00655372 0.0119485)
(0.00526513 -0.00646944 0.0118283)
(0.00570852 -0.00631348 0.0121249)
(0.00530706 -0.0070276 0.0123615)
(0.00551831 -0.00683655 0.0125417)
(0.00571742 -0.00668043 0.0126445)
(0.00554018 -0.00700198 0.0126414)
(0.00537603 -0.00669428 0.0121668)
(0.00575854 -0.00640442 0.01231)
(0.00513374 -0.00689108 0.0123461)
(0.00548624 -0.00647045 0.011816)
(0.00523284 -0.00680638 0.0120997)
(0.00531822 -0.00626809 0.0117937)
(0.00522869 -0.00640912 0.0119599)
(0.00508433 -0.00617748 0.011454)
(0.00527051 -0.00605884 0.01146)
(0.00526161 -0.00609136 0.0113676)
(0.00541494 -0.00620007 0.0116342)
(0.00485106 -0.00628765 0.0114035)
(0.00532656 -0.00631562 0.0118918)
(0.00570065 -0.00635123 0.0120517)
(0.00531806 -0.00630123 0.0116392)
(0.00549288 -0.00611214 0.0119164)
(0.00523115 -0.00637657 0.0114834)
(0.00485519 -0.0057167 0.0110588)
(0.00516084 -0.00569899 0.0113532)
(0.00463532 -0.00561158 0.0104764)
(0.00497837 -0.00582991 0.0109322)
(0.00505285 -0.00593724 0.0114789)
(0.00560089 -0.00663032 0.0124374)
(0.005479 -0.00634073 0.0121401)
(0.00512348 -0.00652542 0.0119131)
(0.00560941 -0.00683044 0.0126408)
(0.00546669 -0.00701704 0.0123452)
(0.00573198 -0.00644216 0.012181)
(0.00538155 -0.00651013 0.0118333)
(0.00535389 -0.00629165 0.0117168)
(0.00509393 -0.00646176 0.0116122)
(0.00540138 -0.00662126 0.0121714)
(0.00518743 -0.00643137 0.0116724)
(0.00555461 -0.00655064 0.0123797)
(0.00514836 -0.00635122 0.0117997)
(0.00520816 -0.00622431 0.0118827)
(0.00520371 -0.00634372 0.0119359)
(0.00534524 -0.006677 0.0120155)
(0.00482771 -0.00555181 0.0104406)
(0.00454908 -0.00584724 0.0104662)
(0.00460344 -0.00563531 0.0104118)
(0.0047891 -0.00569595 0.010573)
(0.00461336 -0.00580155 0.010605)
(0.00454108 -0.00586415 0.0104797)
(0.00458603 -0.00557597 0.0103262)
(0.00500635 -0.00586823 0.0110574)
(0.00494329 -0.00566454 0.0107325)
(0.00494841 -0.00558395 0.0108289)
(0.00479007 -0.00564199 0.0107546)
(0.00483779 -0.00574168 0.0107233)
(0.00512329 -0.00605882 0.0112424)
(0.00476696 -0.00572891 0.0106977)
(0.00492825 -0.00594309 0.0116472)
(0.00493729 -0.00577852 0.0111596)
(0.00495235 -0.00663889 0.0112383)
(0.00517277 -0.00619307 0.0111747)
(0.00509453 -0.00616138 0.0113567)
(0.00480015 -0.00578458 0.0107256)
(0.00499759 -0.00583586 0.0110825)
(0.0048341 -0.00611715 0.0107018)
(0.00497998 -0.00593418 0.0110595)
(0.00429737 -0.00534605 0.00982419)
(0.00442425 -0.00572026 0.0102133)
(0.00450059 -0.00590717 0.0104677)
(0.00456554 -0.00548794 0.0103016)
(0.00439726 -0.00561471 0.0100684)
(0.00436191 -0.00560311 0.00996512)
(0.00465414 -0.00552534 0.0103265)
(0.00461141 -0.00550155 0.0101345)
(0.00447288 -0.00529466 0.00991704)
(0.00478767 -0.0053657 0.0103663)
(0.0044762 -0.00555581 0.0103545)
(0.00435015 -0.00536976 0.0099771)
(0.00616184 -0.00765794 0.0129031)
(0.00556173 -0.00687106 0.0124732)
(0.00517794 -0.00632269 0.0120854)
(0.0052495 -0.00644788 0.0119987)
(0.00563972 -0.00689741 0.0124096)
(0.00524935 -0.00653326 0.0126696)
(0.00523286 -0.00629726 0.0121533)
(0.00529705 -0.0063938 0.012264)
(0.00519525 -0.0064778 0.0117546)
(0.00524539 -0.00652567 0.0118341)
(0.00506125 -0.0062003 0.0119107)
(0.00539533 -0.00651271 0.012828)
(0.00561096 -0.00656711 0.0125083)
(0.00537408 -0.00653124 0.0114807)
(0.00567224 -0.00692707 0.0121492)
(0.0056874 -0.00705304 0.0124509)
(0.00580939 -0.00684661 0.0123649)
(0.00511767 -0.00646886 0.0120553)
(0.00532142 -0.00629582 0.0116445)
(0.00580564 -0.00687305 0.0122509)
(0.00640281 -0.00723315 0.0136144)
(0.00541499 -0.00605207 0.0123417)
(0.00507631 -0.00616938 0.0119324)
(0.00500245 -0.00614376 0.0118746)
(0.00550299 -0.00651573 0.0124706)
(0.00510953 -0.00644415 0.0115613)
(0.00534555 -0.00657337 0.0120166)
(0.00570019 -0.00712291 0.0126253)
(0.00586357 -0.00748829 0.012876)
(0.00525969 -0.00732535 0.0120869)
(0.00481518 -0.00586707 0.0108058)
(0.00464522 -0.00564594 0.0105586)
(0.00463313 -0.00594945 0.010702)
(0.00455169 -0.0057833 0.0105209)
(0.00469242 -0.00599222 0.0106429)
(0.00476484 -0.00556832 0.0103429)
(0.00540631 -0.0065774 0.0121837)
(0.00530203 -0.00679524 0.0126653)
(0.0056895 -0.00666067 0.0122169)
(0.00593672 -0.00706891 0.0129785)
(0.00523003 -0.00644701 0.0119515)
(0.0058104 -0.00674469 0.0124199)
(0.00530607 -0.00632361 0.0116086)
(0.00551978 -0.00650346 0.0120664)
(0.00538032 -0.00660964 0.0120482)
(0.00534063 -0.00669525 0.012285)
(0.00523398 -0.00665931 0.0122358)
(0.00541639 -0.00644198 0.0118985)
(0.00542708 -0.00720056 0.0129229)
(0.00552531 -0.00676147 0.0124829)
(0.0049791 -0.00687826 0.012258)
(0.00541397 -0.00661633 0.0119852)
(0.00538556 -0.0069147 0.012936)
(0.0056524 -0.00642432 0.012188)
(0.00502414 -0.00608347 0.0111061)
(0.0048433 -0.00579898 0.010537)
(0.00501279 -0.00579779 0.0109903)
(0.00481651 -0.00565942 0.010465)
(0.00473935 -0.00577541 0.0108219)
(0.00483659 -0.00608461 0.0110847)
(0.00487229 -0.00589774 0.0108775)
(0.00466303 -0.00572638 0.0106577)
(0.00500026 -0.00594255 0.0109707)
(0.00461778 -0.00601546 0.0110856)
(0.00472762 -0.0059291 0.0110832)
(0.00507477 -0.00643343 0.0118303)
(0.00545963 -0.00660026 0.012099)
(0.00529465 -0.00653346 0.0118464)
(0.00540559 -0.00691203 0.0125351)
(0.00538117 -0.00678492 0.0125362)
(0.00547783 -0.00670076 0.0124305)
(0.0052225 -0.00637599 0.0117268)
(0.00540436 -0.00658314 0.0123316)
(0.00548685 -0.00655418 0.011976)
(0.00532332 -0.00646756 0.0118526)
(0.0051653 -0.00636966 0.0118856)
(0.00588657 -0.00747671 0.0128608)
(0.0057506 -0.00659043 0.0126764)
(0.0053 -0.00689018 0.0122165)
(0.00539489 -0.00701018 0.0131331)
(0.00578951 -0.00702619 0.0122231)
(0.00580793 -0.00747607 0.0129776)
(0.00547367 -0.00691742 0.012416)
(0.00535966 -0.00661766 0.0126019)
(0.00561804 -0.00672543 0.0124085)
(0.00539765 -0.00642194 0.0120546)
(0.00551523 -0.00649438 0.0124742)
(0.00539145 -0.00686722 0.012733)
(0.00500898 -0.00568713 0.0109954)
(0.00505652 -0.00656043 0.0121701)
(0.00522786 -0.00655781 0.012164)
(0.0049131 -0.0059243 0.0109133)
(0.00552102 -0.00566687 0.0112563)
(0.00487975 -0.00607845 0.0114329)
(0.00517553 -0.00596729 0.0116984)
(0.00507841 -0.00591165 0.011359)
(0.00449768 -0.00599602 0.0109689)
(0.00505313 -0.00597633 0.0111831)
(0.00541793 -0.00574812 0.0109054)
(0.0048041 -0.00594421 0.0109984)
(0.00524143 -0.00608484 0.0114683)
(0.00497169 -0.00617108 0.0117494)
(0.005254 -0.00632552 0.0115268)
(0.00495973 -0.00623405 0.0113973)
(0.00483289 -0.00627428 0.0107745)
(0.00512894 -0.00661409 0.0114234)
(0.00500338 -0.00615832 0.0113287)
(0.0048563 -0.00615992 0.0109557)
(0.00474581 -0.00568438 0.0108151)
(0.00482485 -0.00611875 0.011016)
(0.00478047 -0.00579411 0.0106823)
(0.0048185 -0.00593064 0.0111074)
(0.00465423 -0.00590813 0.0107541)
(0.00480472 -0.00550585 0.010754)
(0.00540927 -0.00633671 0.0118991)
(0.00509106 -0.0061837 0.0113851)
(0.00496504 -0.00623004 0.0115458)
(0.0049478 -0.00610937 0.0113417)
(0.00488985 -0.00600796 0.0110818)
(0.0048376 -0.00581495 0.0107319)
(0.00526196 -0.00624827 0.0114869)
(0.00500878 -0.00614558 0.0115275)
(0.00527951 -0.00608675 0.0117534)
(0.00548037 -0.00644624 0.0119215)
(0.00482585 -0.00562013 0.010288)
(0.00486902 -0.00597416 0.0107939)
(0.00485948 -0.00577251 0.010771)
(0.00522063 -0.0064993 0.0116656)
(0.00513905 -0.00605681 0.0114096)
(0.00463384 -0.00611536 0.0113948)
(0.00546882 -0.00642493 0.0120601)
(0.0057263 -0.00660741 0.0120027)
(0.00450366 -0.00585396 0.0103094)
(0.00506236 -0.00609377 0.0113766)
(0.00508425 -0.00607664 0.0110554)
(0.00519979 -0.00615481 0.011124)
(0.00513997 -0.00615171 0.0113673)
(0.00508281 -0.00610461 0.0109362)
(0.00537893 -0.00644112 0.0113457)
(0.00503358 -0.00607803 0.0111347)
(0.00498587 -0.00596557 0.0111369)
(0.00510554 -0.00586956 0.0115678)
(0.00532087 -0.00609879 0.0108259)
(0.00509756 -0.00583271 0.0110257)
(0.00561617 -0.0063298 0.0113411)
(0.00554963 -0.00662758 0.0122355)
(0.00548691 -0.00672869 0.0120838)
(0.0051488 -0.00649696 0.0114223)
(0.00543826 -0.00678268 0.0122146)
(0.00545943 -0.00706562 0.0123347)
(0.00604717 -0.00685367 0.01322)
(0.00543742 -0.00690158 0.0124092)
(0.00559219 -0.00614828 0.0121781)
(0.00551848 -0.00647473 0.0120621)
(0.00543017 -0.00646276 0.0117907)
(0.00561717 -0.00667822 0.0123119)
(0.00556194 -0.00645085 0.0122343)
(0.00516222 -0.00643874 0.0120591)
(0.00531668 -0.00651491 0.0119188)
(0.00506667 -0.00627597 0.0120934)
(0.00530034 -0.00671566 0.0120148)
(0.00569779 -0.00717116 0.0131233)
(0.00503568 -0.00602037 0.0118862)
(0.00553092 -0.0062839 0.0129009)
(0.00558774 -0.00656345 0.0132243)
(0.00516612 -0.00632892 0.0125475)
(0.0051583 -0.00619216 0.0119691)
(0.00553401 -0.00705197 0.0130757)
(0.00531173 -0.00638842 0.012337)
(0.00625597 -0.00755791 0.0125422)
(0.0057689 -0.00652534 0.0126658)
(0.00605091 -0.00748351 0.0123146)
(0.00633053 -0.00734412 0.0128312)
(0.00670411 -0.00749138 0.0128414)
(0.00498993 -0.00639323 0.0120001)
(0.00536487 -0.0064863 0.0128367)
(0.00556184 -0.00716925 0.0123931)
(0.00584569 -0.00699628 0.0119146)
(0.00554802 -0.00665676 0.0121382)
(0.00455859 -0.00550736 0.0102078)
(0.00470582 -0.0055347 0.0101388)
(0.00450411 -0.0058928 0.0104694)
(0.00441921 -0.00554195 0.0100923)
(0.00463523 -0.00537235 0.0100837)
(0.00468453 -0.00554804 0.0103768)
(0.00473477 -0.00584614 0.0107954)
(0.00450198 -0.00573914 0.0102046)
(0.00461923 -0.00597756 0.0104711)
(0.00460372 -0.00584828 0.0104009)
(0.00428723 -0.00562242 0.00999451)
(0.00449904 -0.00571855 0.0102038)
(0.0045505 -0.00567649 0.010401)
(0.00480003 -0.00561727 0.0107744)
(0.00455692 -0.00595986 0.0104745)
(0.00451058 -0.00589 0.0103068)
(0.00466469 -0.00587961 0.010589)
(0.00468687 -0.00568077 0.0104165)
(0.00458383 -0.00568262 0.010313)
(0.00465762 -0.00574979 0.0104466)
(0.00534257 -0.00682438 0.0119517)
(0.00514501 -0.00624642 0.0113423)
(0.00504118 -0.00603356 0.0111477)
(0.00477607 -0.0061403 0.0105403)
(0.00454367 -0.00613956 0.0107678)
(0.00486703 -0.00593247 0.0109023)
(0.0054932 -0.00693711 0.0119071)
(0.0054508 -0.00639138 0.0119843)
(0.00522736 -0.00658238 0.0119782)
(0.00506164 -0.00641994 0.0116474)
(0.0052778 -0.00636561 0.0118465)
(0.00539807 -0.00637493 0.0119163)
(0.00527832 -0.00657657 0.0119699)
(0.00540791 -0.00658306 0.0121366)
(0.00528713 -0.00661201 0.0120728)
(0.00537799 -0.00619209 0.0117077)
(0.0054677 -0.00638959 0.0119206)
(0.00540401 -0.00638849 0.0118733)
(0.005405 -0.00635474 0.0118566)
(0.0051227 -0.00614742 0.0115709)
(0.00546961 -0.00658493 0.0121849)
(0.00582161 -0.00689073 0.0127538)
(0.00555476 -0.00669701 0.012386)
(0.00536324 -0.00702295 0.0128092)
(0.00582328 -0.00651993 0.0121283)
(0.00548342 -0.0072576 0.0127872)
(0.00585022 -0.00650488 0.0126571)
(0.00533543 -0.00652595 0.0120668)
(0.00549055 -0.00656471 0.0120982)
(0.0053472 -0.00667534 0.0121513)
(0.005636 -0.00633646 0.0122787)
(0.0058048 -0.00688903 0.012679)
(0.00531617 -0.00664688 0.012257)
(0.00585477 -0.00672085 0.0121297)
(0.00542617 -0.0067448 0.0122934)
(0.005441 -0.00651214 0.0121235)
(0.00544148 -0.00699969 0.0126867)
(0.00537009 -0.0065949 0.0123454)
(0.00576755 -0.00679903 0.012652)
(0.0056996 -0.00662896 0.0123676)
(0.00542357 -0.00635591 0.0118367)
(0.00596597 -0.00703569 0.0130137)
(0.00607666 -0.00762633 0.0132557)
(0.00562399 -0.00667756 0.0124462)
(0.00571535 -0.00722338 0.0132039)
(0.00539841 -0.00676893 0.0127299)
(0.00563324 -0.00692067 0.0128168)
(0.0054711 -0.00672086 0.0125761)
(0.00544534 -0.00677651 0.0128554)
(0.00617662 -0.0072864 0.012834)
(0.00576478 -0.00667615 0.0121265)
(0.00562688 -0.00671825 0.0120018)
(0.00557522 -0.00669507 0.01229)
(0.00549874 -0.00687904 0.0128026)
(0.00592733 -0.00686214 0.0127948)
(0.00568946 -0.00665286 0.0122405)
(0.0057216 -0.0073168 0.0131723)
(0.00461569 -0.00586439 0.0108289)
(0.00503494 -0.00617259 0.0114348)
(0.00505518 -0.00627165 0.0115619)
(0.00513389 -0.00622553 0.0115812)
(0.00491857 -0.00599121 0.0112217)
(0.00490473 -0.0063051 0.0113412)
(0.00495735 -0.00590105 0.010955)
(0.00526406 -0.0063416 0.0118789)
(0.00545007 -0.00662513 0.0120953)
(0.00542069 -0.00645081 0.0118828)
(0.00499455 -0.00617023 0.0114006)
(0.00506196 -0.0061743 0.0112708)
(0.00530581 -0.00632603 0.0120677)
(0.00489752 -0.0059564 0.0112357)
(0.00556099 -0.00691497 0.012396)
(0.00501715 -0.00649322 0.011858)
(0.00519274 -0.00633971 0.0114831)
(0.00503772 -0.0062232 0.01151)
(0.00506779 -0.00602997 0.0111337)
(0.00513725 -0.00633642 0.0119766)
(0.00543853 -0.00650837 0.0118207)
(0.00542308 -0.00642039 0.0117515)
(0.0046086 -0.00572562 0.0110111)
(0.00565493 -0.00633069 0.0115242)
(0.00504302 -0.00627011 0.0110329)
(0.00488485 -0.005942 0.010674)
(0.00477203 -0.00590497 0.0105055)
(0.00481484 -0.00593609 0.0106968)
(0.00500742 -0.00615185 0.0111108)
(0.00490515 -0.00580461 0.010757)
(0.00479038 -0.00608378 0.0107592)
(0.00431681 -0.00550076 0.010346)
(0.00477767 -0.00586113 0.0109217)
(0.00479093 -0.00577235 0.0104234)
(0.00478365 -0.00560796 0.0101609)
(0.00452698 -0.00548906 0.0100354)
(0.00485464 -0.00581513 0.0107643)
(0.00478059 -0.00555604 0.0105524)
(0.00524221 -0.00665661 0.0111173)
(0.00525227 -0.00650742 0.0107676)
(0.00501907 -0.00620295 0.0113173)
(0.00475147 -0.00578279 0.010672)
(0.00452545 -0.0054854 0.0101799)
(0.00457094 -0.00595995 0.0107466)
(0.00467662 -0.00611052 0.0108082)
(0.00487593 -0.00594921 0.0108515)
(0.00457472 -0.00571656 0.0103903)
(0.00457839 -0.00565862 0.0105061)
(0.00448842 -0.00589446 0.010511)
(0.00489403 -0.00598131 0.0110308)
(0.00476056 -0.00582639 0.0106684)
(0.00472323 -0.00587191 0.0106699)
(0.00476598 -0.00596881 0.0108385)
(0.00472986 -0.00582284 0.0106258)
(0.00458636 -0.00565316 0.0104949)
(0.00497483 -0.00606006 0.0111759)
(0.00483375 -0.00603716 0.0110475)
(0.00506394 -0.00608785 0.0112931)
(0.00531577 -0.00598953 0.011549)
(0.00539159 -0.00616344 0.0115222)
(0.00511202 -0.00620766 0.0113948)
(0.00519124 -0.00605927 0.0113794)
(0.0052364 -0.00639005 0.0116582)
(0.00484878 -0.00640017 0.0114168)
(0.00502111 -0.00617128 0.0112641)
(0.00479279 -0.00577261 0.0106449)
(0.00529955 -0.00618752 0.0114584)
(0.00482455 -0.00603206 0.0111107)
(0.00506564 -0.00622873 0.0114617)
(0.00474722 -0.00603968 0.0108926)
(0.00502712 -0.00633381 0.0113159)
(0.00533494 -0.00600851 0.0112687)
(0.0051709 -0.00602563 0.0113608)
(0.0050559 -0.00641535 0.0115374)
(0.00473459 -0.00570728 0.0103855)
(0.004733 -0.00568076 0.0105636)
(0.00475392 -0.00542203 0.00998223)
(0.00469047 -0.00534565 0.0100907)
(0.00441254 -0.00564738 0.0103944)
(0.00466662 -0.00589058 0.0107584)
(0.00463344 -0.00591169 0.0107278)
(0.00452116 -0.00576894 0.0105825)
(0.00442516 -0.005511 0.0100946)
(0.00470929 -0.00546812 0.0102601)
(0.004657 -0.00575233 0.010641)
(0.00464335 -0.00560437 0.0102818)
(0.00469966 -0.00562249 0.0104373)
(0.0044451 -0.0056018 0.0105005)
(0.00478914 -0.00584806 0.0106155)
(0.00443886 -0.00538341 0.0100893)
(0.00467509 -0.00551451 0.0103217)
(0.00468137 -0.00557331 0.0105332)
(0.00454106 -0.00580884 0.0108791)
(0.004479 -0.00541538 0.0103119)
(0.00471205 -0.00542857 0.0102015)
(0.00471234 -0.00567289 0.0104981)
(0.00457775 -0.00563173 0.0103607)
(0.0048045 -0.00574022 0.0105736)
(0.00453242 -0.00577597 0.0106621)