/*--------------------------------*- C++ -*----------------------------------*\
| =========                 |                                                 |
| \\      /  F ield         | OpenFOAM: The Open Source CFD Toolbox           |
|  \\    /   O peration     | Version:  v1612+                                |
|   \\  /    A nd           | Web:      www.OpenFOAM.com                      |
|    \\/     M anipulation  |                                                 |
\*---------------------------------------------------------------------------*/
FoamFile
{
    version     2.0;
    format      ascii;
    class       volScalarField;
    location    "150";
    object      p;
}
// * * * * * * * * * * * * * * * * * * * * * * * * * * * * * * * * * * * * * //

dimensions      [0 2 -2 0 0 0 0];

internalField   nonuniform List<scalar> 
16914
(
2.80934
2.81202
2.8065
2.79976
2.79376
2.79358
2.79545
2.80224
2.79889
2.79866
2.79423
2.79502
2.7978
2.79731
2.79452
2.79453
2.80843
2.81101
2.80592
2.8141
2.82443
2.82132
2.82427
2.82262
2.82295
2.8284
2.82649
2.82146
2.81503
2.82103
2.82156
2.81771
2.81956
2.82046
2.81744
2.81912
2.82776
2.83407
2.83139
2.83036
2.82779
2.82441
2.82924
2.82235
2.82497
2.8219
2.82528
2.83423
2.81844
2.81953
2.81902
2.81853
2.82238
2.81562
2.81534
2.81468
2.82465
2.81896
2.82589
2.82083
2.81859
2.82297
2.82432
2.82342
2.82089
2.8146
2.82148
2.82717
2.81893
2.82276
2.82944
2.83389
2.83213
2.83296
2.83285
2.83285
2.83029
2.84033
2.83451
2.83815
2.83454
2.82466
2.81125
2.81633
2.82051
2.82525
2.82384
2.82394
2.82403
2.81861
2.82119
2.81634
2.80212
2.79947
2.80061
2.80175
2.79795
2.80205
2.79829
2.79682
2.79923
2.79864
2.79465
2.80679
2.80893
2.80819
2.80827
2.81038
2.81309
2.81182
2.81882
2.81894
2.80599
2.80486
2.81164
2.81658
2.80741
2.81408
2.81415
2.81217
2.81405
2.81136
2.81299
2.81458
2.81533
2.80976
2.81174
2.80873
2.81061
2.81151
2.81061
2.8059
2.81108
2.8098
2.80789
2.80843
2.81175
2.81157
2.81313
2.81409
2.811
2.81466
2.81344
2.76781
2.76515
2.7679
2.76461
2.76846
2.76966
2.76898
2.77035
2.7758
2.77429
2.7695
2.77822
2.77108
2.77638
2.77936
2.7769
2.84717
2.8458
2.83966
2.84476
2.84533
2.83742
2.8396
2.83463
2.83232
2.83365
2.83612
2.83642
2.83296
2.83382
2.83121
2.83179
2.83106
2.83288
2.83125
2.8315
2.82899
2.82761
2.83347
2.82891
2.82854
2.82968
2.81302
2.8176
2.80983
2.81782
2.81667
2.82106
2.81622
2.82137
2.82328
2.82258
2.81912
2.82958
2.82912
2.83025
2.8256
2.82359
2.82709
2.8296
2.8255
2.83328
2.82858
2.83286
2.82978
2.82951
2.83474
2.83385
2.83313
2.82448
2.82717
2.82967
2.82708
2.83467
2.79087
2.79077
2.7888
2.79225
2.78389
2.78295
2.78845
2.78722
2.78452
2.78876
2.78309
2.78457
2.79037
2.79846
2.78946
2.78536
2.78586
2.78353
2.79096
2.79138
2.79805
2.79588
2.79312
2.80028
2.79922
2.79933
2.80181
2.78942
2.79227
2.78968
2.796
2.80656
2.79409
2.79363
2.8262
2.82628
2.82868
2.82689
2.82788
2.82603
2.82684
2.83403
2.82784
2.83145
2.82729
2.8351
2.8346
2.82842
2.83502
2.83627
2.8359
2.83683
2.83001
2.83626
2.82953
2.83236
2.83241
2.82597
2.83481
2.83279
2.82535
2.82916
2.82283
2.82442
2.82146
2.82446
2.82922
2.82807
2.82459
2.81805
2.82464
2.82363
2.83163
2.82587
2.8164
2.82277
2.82505
2.73528
2.73298
2.74005
2.73812
2.73562
2.7425
2.73494
2.73874
2.74049
2.74017
2.7394
2.73356
2.7345
2.74434
2.73866
2.74307
2.74124
2.7419
2.73994
2.74064
2.74132
2.7412
2.78416
2.78539
2.78993
2.78319
2.79147
2.78624
2.78503
2.78796
2.79275
2.78809
2.78918
2.79416
2.79579
2.78926
2.78878
2.79584
2.79863
2.79619
2.74072
2.73812
2.74529
2.8181
2.81425
2.82046
2.82034
2.81856
2.81817
2.82413
2.82199
2.82528
2.8284
2.81798
2.81962
2.82405
2.82021
2.81586
2.81297
2.81595
2.81689
2.81871
2.81903
2.81974
2.81123
2.8173
2.81567
2.81822
2.8229
2.8143
2.81671
2.8202
2.82318
2.82443
2.82369
2.8197
2.82269
2.81903
2.82822
2.83236
2.82441
2.8269
2.82886
2.82589
2.83555
2.83228
2.8313
2.83829
2.83281
2.83106
2.83082
2.82622
2.74811
2.7414
2.73686
2.73205
2.73479
2.73172
2.74216
2.73538
2.73537
2.73608
2.73137
2.73242
2.73883
2.73731
2.7324
2.84209
2.84331
2.84521
2.83882
2.84514
2.8421
2.83773
2.83876
2.84261
2.84483
2.8416
2.84566
2.84284
2.8463
2.84528
2.8081
2.80716
2.79667
2.80921
2.81342
2.80253
2.80569
2.8078
2.81077
2.81307
2.80157
2.809
2.81242
2.81086
2.7956
2.81083
2.8091
2.80664
2.78726
2.78042
2.78536
2.78983
2.77073
2.77742
2.78298
2.77951
2.77612
2.77627
2.77601
2.77764
2.77515
2.77589
2.78184
2.78906
2.78627
2.77466
2.78002
2.78062
2.78143
2.7837
2.78167
2.78138
2.79007
2.78145
2.78062
2.78006
2.78522
2.77998
2.74801
2.74626
2.74686
2.74898
2.74354
2.74528
2.74873
2.77847
2.7877
2.7816
2.77944
2.77856
2.77751
2.77283
2.77428
2.77764
2.78073
2.77799
2.7848
2.78334
2.7813
2.77902
2.81885
2.81916
2.82117
2.82157
2.81873
2.82069
2.81865
2.81754
2.82035
2.82316
2.82469
2.81942
2.82061
2.82348
2.82445
2.81902
2.846
2.8455
2.85073
2.84555
2.8446
2.84602
2.84386
2.84785
2.84841
2.85135
2.8454
2.84914
2.8463
2.72026
2.72803
2.73234
2.72834
2.72394
2.72454
2.72539
2.72849
2.734
2.71982
2.72506
2.72932
2.72651
2.73243
2.73167
2.72994
2.73163
2.72794
2.72893
2.72988
2.73947
2.7323
2.74115
2.73926
2.73586
2.73924
2.73002
2.73905
2.7376
2.73302
2.73199
2.73877
2.73294
2.73501
2.73491
2.73742
2.73734
2.73338
2.73323
2.77389
2.77522
2.77928
2.77813
2.77332
2.78333
2.7766
2.78455
2.78665
2.76591
2.75947
2.76795
2.76466
2.76299
2.76173
2.76988
2.76803
2.77228
2.7701
2.76209
2.76719
2.76576
2.7634
2.76556
2.77105
2.7713
2.77018
2.77023
2.75886
2.76436
2.76761
2.77014
2.81354
2.81159
2.8158
2.81532
2.81533
2.81733
2.81484
2.81004
2.81244
2.80921
2.81178
2.81388
2.81578
2.81456
2.81638
2.81805
2.81452
2.81655
2.8193
2.76195
2.76047
2.75941
2.75815
2.76344
2.76725
2.76058
2.75786
2.75954
2.7582
2.76113
2.75819
2.75754
2.75846
2.76553
2.76142
2.76477
2.76184
2.7625
2.76486
2.71886
2.7244
2.72588
2.72911
2.72305
2.72491
2.72186
2.72449
2.72109
2.76978
2.76764
2.76605
2.76814
2.77457
2.77253
2.78001
2.77605
2.7749
2.77283
2.77041
2.77134
2.77539
2.77632
2.76468
2.76366
2.76645
2.76651
2.76477
2.75963
2.76222
2.76112
2.76347
2.76328
2.77535
2.76542
2.76619
2.77713
2.76422
2.76939
2.77057
2.7721
2.76866
2.77093
2.77237
2.77224
2.76949
2.77484
2.77256
2.76893
2.78238
2.78274
2.77637
2.76889
2.77115
2.77574
2.78047
2.78191
2.77868
2.78587
2.78334
2.77556
2.78085
2.78187
2.77588
2.82096
2.82529
2.82747
2.82527
2.83194
2.83163
2.82333
2.82177
2.82809
2.82838
2.82592
2.83486
2.82341
2.82423
2.82248
2.82827
2.82748
2.83056
2.82502
2.78856
2.79087
2.78709
2.78821
2.78389
2.78681
2.78414
2.78796
2.78764
2.78123
2.78424
2.78222
2.78729
2.7789
2.78037
2.78845
2.78311
2.78377
2.80122
2.80134
2.80726
2.80532
2.80321
2.80355
2.80369
2.80626
2.80181
2.80259
2.8112
2.8151
2.8041
2.80441
2.8065
2.81084
2.8132
2.81524
2.80586
2.82476
2.82841
2.82622
2.82996
2.82599
2.8316
2.82715
2.82997
2.83109
2.83314
2.83145
2.82864
2.82897
2.83377
2.83181
2.83099
2.83008
2.83488
2.8306
2.8316
2.76285
2.76043
2.76408
2.76103
2.77067
2.76881
2.76128
2.76849
2.76548
2.76415
2.7598
2.75661
2.76364
2.77054
2.76339
2.76227
2.75808
2.75838
2.76769
2.75943
2.81081
2.81361
2.80925
2.81259
2.80354
2.80832
2.8095
2.80362
2.80552
2.80742
2.82708
2.82488
2.82514
2.82502
2.82158
2.82708
2.81981
2.82077
2.82455
2.82024
2.82054
2.82474
2.8175
2.82397
2.80421
2.8041
2.79813
2.80002
2.8034
2.8055
2.80605
2.80868
2.80699
2.80113
2.8041
2.80313
2.80758
2.79958
2.79792
2.79876
2.79688
2.80604
2.79743
2.79986
2.80549
2.80114
2.81157
2.80635
2.80718
2.80741
2.8136
2.80992
2.81043
2.81123
2.81442
2.81296
2.81636
2.81384
2.81592
2.81676
2.8158
2.81964
2.80337
2.8132
2.81826
2.82221
2.8073
2.81319
2.80482
2.80687
2.80656
2.81097
2.80395
2.79306
2.79342
2.79012
2.78924
2.78906
2.78778
2.79643
2.78177
2.78913
2.79645
2.78879
2.7851
2.82096
2.82038
2.82333
2.82339
2.82467
2.8146
2.81898
2.82074
2.82342
2.81784
2.81797
2.82868
2.81138
2.81942
2.82029
2.82171
2.81925
2.81973
2.82057
2.82004
2.79718
2.79752
2.79949
2.79622
2.80134
2.79882
2.79493
2.79792
2.78935
2.80863
2.80006
2.79882
2.79605
2.79392
2.79193
2.80324
2.79323
2.7954
2.79289
2.79172
2.77361
2.76973
2.77094
2.76911
2.77942
2.78045
2.7753
2.77037
2.77571
2.77224
2.78049
2.77196
2.77728
2.77921
2.77061
2.776
2.77982
2.77943
2.80765
2.8116
2.80931
2.80406
2.80597
2.81023
2.80669
2.80572
2.80861
2.81127
2.80552
2.81097
2.80781
2.81163
2.81291
2.81599
2.82232
2.80841
2.81445
2.81524
2.8142
2.81822
2.8103
2.81662
2.78952
2.7921
2.78863
2.78333
2.78349
2.78715
2.78544
2.78515
2.78198
2.7864
2.78135
2.78952
2.77923
2.77685
2.77891
2.79198
2.78392
2.7792
2.7851
2.78137
2.7627
2.76607
2.76768
2.7708
2.77274
2.76653
2.76003
2.75546
2.7661
2.76269
2.76158
2.76554
2.76163
2.76
2.76042
2.76695
2.76417
2.79586
2.79492
2.78351
2.78851
2.79061
2.79274
2.78958
2.79855
2.79082
2.78588
2.78478
2.7868
2.78749
2.79223
2.79435
2.79203
2.794
2.79915
2.7906
2.79064
2.78899
2.78818
2.79045
2.78429
2.79175
2.79573
2.79584
2.79358
2.79189
2.79942
2.78435
2.78752
2.78472
2.78873
2.78929
2.85302
2.85477
2.85367
2.85719
2.83927
2.84071
2.84619
2.85112
2.85031
2.84947
2.85262
2.84113
2.84507
2.84489
2.85009
2.84123
2.84562
2.84201
2.84564
2.84222
2.84191
2.78099
2.78944
2.78158
2.7819
2.83339
2.8369
2.84021
2.80768
2.81149
2.82873
2.82997
2.77094
2.77411
2.77633
2.84892
2.85475
2.85044
2.83206
2.8296
2.82703
2.79667
2.79236
2.79806
2.82212
2.8214
2.8076
2.8121
2.80246
2.79983
2.79852
2.77781
2.77098
2.77605
2.78666
2.78781
2.83594
2.83081
2.83401
2.73767
2.7397
2.79322
2.80026
2.79157
2.7928
2.75759
2.76339
2.75695
2.8439
2.84634
2.8439
2.73805
2.74249
2.73133
2.76758
2.81602
2.81542
2.81917
2.72846
2.72806
2.84954
2.84259
2.84508
2.79371
2.79487
2.80294
2.84061
2.83468
2.83831
2.81575
2.81643
2.7964
2.79524
2.7999
2.80346
2.75914
2.75626
2.80369
2.80012
2.79094
2.79357
2.78623
2.78818
2.78919
2.82662
2.82844
2.83447
2.76647
2.76752
2.76302
2.76908
2.75426
2.75029
2.74554
2.77942
2.78079
2.79436
2.7943
2.83107
2.83214
2.82699
2.82249
2.82355
2.81825
2.73726
2.74168
2.7419
2.773
2.77523
2.82139
2.82284
2.80707
2.80772
2.8046
2.80341
2.80353
2.80039
2.8047
2.7597
2.75868
2.82894
2.83205
2.82653
2.82778
2.77649
2.77642
2.80537
2.80437
2.79302
2.80036
2.82788
2.82525
2.819
2.81425
2.81219
2.81851
2.82031
2.78204
2.7756
2.81218
2.8141
2.80867
2.8137
2.81373
2.84072
2.84305
2.84437
2.84663
2.84378
2.84474
2.8213
2.82474
2.82713
2.81474
2.80063
2.80524
2.80013
2.81398
2.80587
2.8159
2.81514
2.81535
2.8145
2.81301
2.80945
2.80944
2.80055
2.8184
2.81627
2.81266
2.81797
2.81616
2.81133
2.82234
2.81194
2.80419
2.81537
2.81408
2.81864
2.812
2.80646
2.80267
2.80953
2.80383
2.80665
2.80374
2.80953
2.80241
2.807
2.81602
2.82505
2.81769
2.82143
2.82033
2.82768
2.81603
2.81303
2.81369
2.81435
2.8198
2.77308
2.78096
2.77495
2.77025
2.77214
2.77496
2.77092
2.78333
2.797
2.79445
2.78285
2.79179
2.78117
2.77538
2.77633
2.79144
2.79044
2.78838
2.77272
2.77174
2.78199
2.78256
2.77526
2.78007
2.77319
2.78
2.77592
2.78451
2.78203
2.78585
2.78547
2.78508
2.79016
2.77846
2.7782
2.77696
2.77861
2.78026
2.78459
2.79152
2.78784
2.81542
2.82137
2.82179
2.8156
2.82032
2.82021
2.82254
2.8164
2.83009
2.82215
2.82259
2.82248
2.83193
2.82741
2.83023
2.82736
2.81063
2.82228
2.81874
2.81063
2.81919
2.81397
2.80738
2.81089
2.81141
2.81594
2.81464
2.81074
2.81646
2.81543
2.81173
2.82286
2.82686
2.83325
2.82954
2.83073
2.82712
2.82925
2.83984
2.84482
2.83526
2.82929
2.83146
2.82863
2.82571
2.83164
2.81199
2.82229
2.81678
2.81904
2.83044
2.81874
2.82492
2.82653
2.82095
2.81659
2.8232
2.81525
2.79421
2.79609
2.80338
2.79724
2.80355
2.80317
2.81059
2.80404
2.81103
2.79906
2.79605
2.78805
2.78938
2.79586
2.79023
2.79534
2.78873
2.78446
2.7813
2.77437
2.77785
2.7751
2.78001
2.76912
2.77508
2.77252
2.77445
2.76973
2.76893
2.77077
2.77281
2.78174
2.77436
2.78067
2.77813
2.77014
2.77051
2.77198
2.77803
2.8245
2.82152
2.83446
2.83901
2.83081
2.83307
2.83167
2.82931
2.82576
2.83118
2.82642
2.82367
2.81682
2.8209
2.82018
2.82977
2.8257
2.83018
2.7476
2.75277
2.75602
2.7545
2.76568
2.77031
2.76591
2.75362
2.74549
2.75122
2.75856
2.76964
2.75766
2.75925
2.75432
2.75616
2.75826
2.76084
2.76293
2.7658
2.76515
2.81239
2.81198
2.8036
2.78677
2.78959
2.79238
2.80064
2.80575
2.81102
2.80172
2.79674
2.79991
2.79166
2.79748
2.80177
2.79326
2.79776
2.79071
2.79044
2.7881
2.78714
2.79593
2.79545
2.79324
2.79538
2.79519
2.81013
2.80771
2.80097
2.80223
2.80124
2.80248
2.80738
2.81144
2.81198
2.81651
2.8151
2.81195
2.80934
2.81221
2.81119
2.80765
2.81622
2.81017
2.80432
2.81162
2.81553
2.80961
2.81406
2.81756
2.79311
2.79181
2.78086
2.76923
2.76776
2.77507
2.77289
2.77821
2.78235
2.7718
2.77208
2.78992
2.78473
2.78496
2.77661
2.79073
2.78003
2.77634
2.77921
2.77397
2.77468
2.7776
2.77575
2.76253
2.76824
2.77479
2.77479
2.78008
2.772
2.76952
2.7695
2.77061
2.75197
2.74569
2.74938
2.74392
2.73559
2.74154
2.73514
2.73714
2.72539
2.73687
2.7333
2.73598
2.74377
2.73676
2.74086
2.74233
2.74955
2.7416
2.74411
2.83363
2.82843
2.83047
2.82816
2.82458
2.81796
2.81886
2.81694
2.82189
2.81926
2.81964
2.81783
2.81992
2.81757
2.81998
2.82638
2.82578
2.82193
2.81986
2.82406
2.82494
2.83985
2.83385
2.84387
2.83385
2.8317
2.83506
2.83306
2.8327
2.83176
2.82429
2.82491
2.82417
2.8177
2.82782
2.82991
2.84353
2.84001
2.83193
2.83391
2.82987
2.83056
2.8331
2.83175
2.83278
2.82906
2.79322
2.79483
2.79785
2.79406
2.78826
2.79678
2.79692
2.80463
2.80063
2.80752
2.80402
2.80377
2.79527
2.79766
2.79692
2.77631
2.77138
2.77252
2.79129
2.78148
2.78729
2.78448
2.77737
2.78055
2.78511
2.77984
2.78465
2.75105
2.75591
2.75477
2.77385
2.77143
2.76797
2.76518
2.73699
2.73699
2.74404
2.74359
2.75147
2.74097
2.74811
2.74365
2.75658
2.7471
2.75268
2.75107
2.74512
2.74482
2.74762
2.74138
2.75949
2.7484
2.74971
2.76296
2.7538
2.75621
2.76015
2.76465
2.77653
2.78017
2.77047
2.78247
2.75661
2.76413
2.75814
2.77368
2.77279
2.77408
2.76996
2.76385
2.76255
2.76873
2.76645
2.75431
2.75897
2.76987
2.76624
2.77342
2.77491
2.77666
2.77481
2.77327
2.7689
2.7674
2.76169
2.76346
2.76238
2.77041
2.7729
2.77647
2.77442
2.76945
2.822
2.83139
2.82842
2.82331
2.8254
2.81609
2.82064
2.82459
2.83571
2.83737
2.84067
2.84346
2.83373
2.83044
2.83873
2.79017
2.78339
2.80081
2.79432
2.79065
2.78532
2.78523
2.78592
2.78491
2.80434
2.80667
2.80395
2.78785
2.79142
2.78674
2.7922
2.79743
2.79073
2.79259
2.7931
2.79165
2.79416
2.79726
2.79956
2.79395
2.79366
2.79213
2.80518
2.80834
2.81475
2.80696
2.80846
2.80289
2.80638
2.80606
2.80663
2.81369
2.80647
2.81077
2.80479
2.8156
2.81238
2.79629
2.7941
2.79721
2.79842
2.79521
2.74964
2.75603
2.75416
2.75604
2.75685
2.76206
2.75732
2.7522
2.74792
2.75401
2.76255
2.752
2.75315
2.75569
2.75083
2.75023
2.74812
2.76831
2.77367
2.77601
2.76983
2.76413
2.77608
2.77125
2.76548
2.76971
2.75875
2.76841
2.76809
2.76106
2.78833
2.79571
2.7907
2.79431
2.788
2.80263
2.79922
2.79517
2.80202
2.79198
2.78914
2.78907
2.79263
2.7991
2.81711
2.81625
2.80818
2.82229
2.81775
2.82656
2.81223
2.81206
2.81583
2.81617
2.81203
2.81431
2.81712
2.81764
2.81711
2.82802
2.8234
2.83727
2.83494
2.84364
2.84248
2.84577
2.84437
2.83897
2.83936
2.84295
2.84024
2.83822
2.84011
2.84399
2.84362
2.83916
2.84569
2.84321
2.8052
2.79824
2.80356
2.80607
2.80838
2.80825
2.80249
2.80194
2.7999
2.79351
2.80747
2.80566
2.79489
2.79321
2.78161
2.78606
2.78791
2.79356
2.80248
2.83528
2.84349
2.84121
2.84576
2.84358
2.8476
2.84588
2.85269
2.85097
2.83356
2.84326
2.84256
2.83907
2.84805
2.85411
2.85147
2.84822
2.72938
2.73677
2.7332
2.73181
2.73182
2.72613
2.73507
2.73093
2.72747
2.72089
2.72071
2.72714
2.72468
2.72302
2.72483
2.72727
2.82381
2.81764
2.82202
2.81067
2.8201
2.82267
2.82191
2.81397
2.81266
2.81823
2.81448
2.81754
2.82029
2.80932
2.80832
2.81263
2.81191
2.81377
2.77849
2.78151
2.78759
2.77551
2.77771
2.76517
2.76647
2.75363
2.75839
2.75843
2.75867
2.75784
2.75465
2.75602
2.77576
2.76827
2.77202
2.76974
2.74877
2.74029
2.74571
2.72717
2.7312
2.73458
2.73693
2.73751
2.7406
2.74476
2.74205
2.73842
2.74186
2.83368
2.84368
2.84401
2.84105
2.84358
2.83864
2.84181
2.84213
2.84269
2.83682
2.83635
2.83693
2.83514
2.84042
2.84028
2.7539
2.75842
2.75488
2.75198
2.75007
2.75808
2.76052
2.7642
2.773
2.76996
2.7567
2.75458
2.74878
2.75227
2.75614
2.74393
2.7553
2.75313
2.75342
2.75439
2.75875
2.75579
2.7544
2.75664
2.75381
2.76698
2.75925
2.76056
2.76043
2.75778
2.7608
2.7925
2.79762
2.79153
2.79615
2.7984
2.78999
2.78702
2.79525
2.7937
2.80021
2.80705
2.80657
2.80693
2.80079
2.79991
2.7992
2.79609
2.78983
2.79044
2.78836
2.78778
2.7862
2.7935
2.74694
2.75096
2.7525
2.74558
2.7437
2.73925
2.73788
2.73997
2.74934
2.74461
2.74321
2.74082
2.74116
2.74877
2.74494
2.74295
2.82511
2.82625
2.8243
2.81846
2.82349
2.83136
2.82562
2.82798
2.82941
2.82986
2.83582
2.83289
2.83783
2.83923
2.84045
2.83205
2.82978
2.83262
2.82663
2.82645
2.83054
2.82842
2.82945
2.83885
2.83809
2.83177
2.83284
2.83539
2.83137
2.83541
2.83581
2.77361
2.78007
2.78507
2.77722
2.78308
2.78335
2.77966
2.77873
2.7801
2.78264
2.77569
2.77157
2.7766
2.76957
2.78591
2.78254
2.7803
2.78
2.78083
2.7919
2.78725
2.77718
2.78014
2.77847
2.77545
2.78448
2.77612
2.78396
2.78692
2.78473
2.76888
2.77161
2.75663
2.7652
2.76798
2.78942
2.79024
2.79399
2.80066
2.79585
2.79408
2.7974
2.79896
2.80007
2.80416
2.79918
2.79929
2.80352
2.80095
2.79669
2.79621
2.79299
2.78752
2.78834
2.79464
2.79364
2.79373
2.79385
2.81682
2.82572
2.81905
2.81917
2.8249
2.82166
2.80945
2.81067
2.81096
2.81015
2.81136
2.81134
2.82199
2.82676
2.82727
2.82485
2.82856
2.82773
2.81989
2.81758
2.81717
2.80971
2.80646
2.80887
2.81389
2.81799
2.81404
2.81858
2.80997
2.82067
2.81667
2.78372
2.80063
2.79563
2.7943
2.80709
2.79842
2.80216
2.80178
2.79151
2.79358
2.78558
2.79163
2.79361
2.78701
2.79753
2.7852
2.77991
2.83354
2.82986
2.83327
2.83042
2.83114
2.83272
2.82974
2.82586
2.85191
2.84689
2.85243
2.8475
2.84828
2.85633
2.84754
2.85029
2.76795
2.77288
2.77095
2.77006
2.77212
2.83711
2.82996
2.82734
2.82706
2.83025
2.82972
2.82861
2.83279
2.83345
2.8249
2.83338
2.83291
2.83747
2.83223
2.82412
2.82652
2.81698
2.83018
2.82255
2.82544
2.82391
2.8257
2.83405
2.83016
2.8272
2.83162
2.83058
2.82381
2.82299
2.82234
2.81923
2.83133
2.82397
2.82668
2.82985
2.8263
2.81448
2.81394
2.81268
2.81841
2.81787
2.81595
2.81057
2.80732
2.80827
2.80585
2.80701
2.80488
2.79566
2.79539
2.80646
2.80679
2.80523
2.80555
2.8034
2.79909
2.80086
2.8194
2.82015
2.82062
2.81891
2.81326
2.81302
2.81546
2.80659
2.81032
2.81183
2.81263
2.84226
2.8467
2.84025
2.8392
2.83788
2.77362
2.77552
2.7761
2.7811
2.78223
2.7829
2.78769
2.79367
2.79559
2.77874
2.78326
2.78309
2.79673
2.78925
2.78494
2.79357
2.78965
2.78749
2.78695
2.78409
2.78713
2.78062
2.78216
2.76654
2.77363
2.7696
2.77619
2.77526
2.77522
2.77248
2.7738
2.77409
2.77416
2.77109
2.77636
2.77508
2.77658
2.77825
2.78096
2.779
2.77546
2.78108
2.84332
2.84124
2.84396
2.8408
2.83895
2.83531
2.8366
2.84754
2.84146
2.84306
2.84521
2.84264
2.81511
2.81937
2.8113
2.81662
2.81657
2.81336
2.83294
2.83943
2.83207
2.83477
2.83754
2.83595
2.83813
2.8368
2.83322
2.84035
2.83389
2.83182
2.8299
2.83738
2.83489
2.72272
2.72491
2.72997
2.72455
2.72306
2.76947
2.7732
2.77072
2.76877
2.76812
2.76288
2.76512
2.77224
2.77009
2.84176
2.85069
2.84744
2.8434
2.83939
2.84378
2.83928
2.742
2.8244
2.82312
2.82046
2.8234
2.84301
2.83919
2.83353
2.83039
2.8346
2.8362
2.83285
2.83345
2.79088
2.78386
2.78964
2.78559
2.79053
2.79316
2.79076
2.79963
2.79484
2.77921
2.78289
2.77674
2.77706
2.78539
2.78068
2.78297
2.78601
2.80745
2.80867
2.80564
2.83212
2.83993
2.84047
2.82979
2.82793
2.8257
2.82817
2.82046
2.825
2.82141
2.82406
2.81783
2.82708
2.82491
2.82287
2.81535
2.81431
2.81562
2.8199
2.8173
2.8158
2.8153
2.82188
2.81898
2.80725
2.80605
2.80196
2.80497
2.79939
2.80735
2.80124
2.8025
2.80405
2.79891
2.80133
2.80312
2.8049
2.80262
2.80059
2.78083
2.77915
2.7877
2.78703
2.78824
2.79045
2.78778
2.78608
2.78766
2.78954
2.78685
2.78962
2.786
2.78718
2.79936
2.7972
2.79713
2.7967
2.79407
2.79269
2.79756
2.79401
2.79102
2.79253
2.79076
2.75864
2.76439
2.76514
2.7678
2.7577
2.75188
2.75591
2.76635
2.76322
2.76314
2.76318
2.7526
2.75111
2.7702
2.7654
2.76604
2.76128
2.77487
2.77797
2.76948
2.77987
2.77478
2.77706
2.77098
2.83226
2.83895
2.83814
2.84139
2.84178
2.83754
2.83889
2.83562
2.84153
2.83648
2.8362
2.83977
2.8386
2.83927
2.84241
2.84301
2.84233
2.83964
2.83998
2.83647
2.83908
2.83968
2.78088
2.78706
2.7839
2.78572
2.78276
2.8018
2.80257
2.79917
2.80724
2.80901
2.81209
2.80233
2.80164
2.79846
2.79887
2.7967
2.80824
2.80944
2.79877
2.79132
2.80365
2.79757
2.84559
2.84871
2.75074
2.7457
2.75044
2.75112
2.7525
2.74645
2.74773
2.74081
2.74773
2.73937
2.73655
2.73546
2.73568
2.73611
2.73561
2.72453
2.72993
2.73416
2.73467
2.76877
2.77551
2.77337
2.76792
2.76212
2.76287
2.76643
2.76969
2.75834
2.75207
2.75286
2.75243
2.75905
2.75425
2.7583
2.76107
2.77369
2.77644
2.77148
2.77786
2.77347
2.76961
2.77132
2.7726
2.77565
2.78438
2.77998
2.7766
2.78324
2.78599
2.78162
2.78308
2.7836
2.78579
2.77714
2.77685
2.77718
2.77881
2.74876
2.75749
2.74778
2.75108
2.75068
2.75181
2.75069
2.74068
2.75157
2.74744
2.74973
2.74346
2.74401
2.74904
2.75288
2.77399
2.75855
2.76112
2.76
2.76496
2.76322
2.7632
2.76292
2.76731
2.8153
2.82429
2.82955
2.82582
2.8185
2.82208
2.81686
2.81453
2.81864
2.82036
2.81407
2.8133
2.81119
2.80707
2.8139
2.81511
2.81038
2.81213
2.80692
2.80788
2.82483
2.81568
2.8175
2.74517
2.74289
2.74317
2.75088
2.7502
2.74339
2.73597
2.73847
2.85172
2.84037
2.84473
2.84101
2.8331
2.83736
2.84423
2.83952
2.83501
2.83532
2.82951
2.83909
2.84404
2.85265
2.84704
2.84563
2.84209
2.84658
2.84732
2.84233
2.84758
2.8438
2.84401
2.84725
2.83793
2.84659
2.84124
2.84194
2.84279
2.84512
2.83862
2.83904
2.83381
2.83038
2.84153
2.84206
2.83372
2.83669
2.8336
2.79351
2.80137
2.79644
2.80187
2.79408
2.80011
2.79194
2.80223
2.80827
2.80225
2.81039
2.797
2.79978
2.81238
2.80763
2.8023
2.80928
2.80755
2.80438
2.80877
2.80561
2.85151
2.84671
2.84954
2.84586
2.84754
2.80839
2.81735
2.81429
2.81454
2.81376
2.81567
2.81055
2.8093
2.81464
2.81409
2.81167
2.81239
2.81113
2.81193
2.80881
2.75734
2.75549
2.75642
2.76705
2.75743
2.7435
2.76343
2.76292
2.7714
2.77443
2.76916
2.76472
2.76466
2.76505
2.76723
2.759
2.76589
2.76169
2.74304
2.7446
2.74541
2.74997
2.75214
2.74364
2.74868
2.78499
2.79382
2.78821
2.75873
2.76003
2.75867
2.76416
2.76314
2.75994
2.75961
2.77312
2.77173
2.76368
2.77691
2.76515
2.75939
2.76933
2.76569
2.77252
2.77778
2.76932
2.7727
2.77461
2.77313
2.78085
2.77737
2.78544
2.77637
2.7722
2.76972
2.77055
2.78023
2.78128
2.73038
2.74013
2.73769
2.76059
2.75497
2.75945
2.75583
2.75075
2.75607
2.75386
2.75684
2.75504
2.76194
2.75188
2.7474
2.74539
2.74871
2.75004
2.76582
2.76993
2.76642
2.78786
2.78188
2.77758
2.78607
2.78246
2.78952
2.79177
2.78078
2.7774
2.77415
2.77839
2.77669
2.77856
2.78691
2.77905
2.78936
2.78917
2.79618
2.79125
2.79261
2.78484
2.78703
2.80242
2.80866
2.8076
2.79225
2.79053
2.79753
2.796
2.7942
2.79982
2.79683
2.78558
2.79305
2.79035
2.78967
2.7977
2.79198
2.79144
2.79088
2.83495
2.83423
2.83568
2.83905
2.84071
2.83178
2.83026
2.83964
2.84042
2.83544
2.83081
2.83433
2.82957
2.8293
2.8281
2.83212
2.83474
2.74004
2.73957
2.7385
2.73818
2.73449
2.73861
2.73389
2.73423
2.76062
2.7528
2.75148
2.74363
2.74175
2.74792
2.75445
2.75246
2.74006
2.74039
2.74606
2.73972
2.74385
2.74546
2.8326
2.8355
2.77531
2.7756
2.78122
2.77096
2.77037
2.77452
2.76939
2.76866
2.77024
2.77135
2.77163
2.77169
2.76664
2.76706
2.80927
2.8033
2.81492
2.80694
2.80619
2.80509
2.79441
2.80016
2.79479
2.80126
2.80133
2.79625
2.79768
2.80749
2.80111
2.7964
2.80865
2.72344
2.72691
2.7256
2.72893
2.72959
2.72943
2.79918
2.79795
2.80518
2.79958
2.80501
2.79999
2.80517
2.79953
2.81336
2.80818
2.81092
2.80689
2.80618
2.8047
2.78772
2.78678
2.78325
2.78821
2.78826
2.78905
2.78234
2.78747
2.79031
2.78519
2.78095
2.78224
2.78131
2.78049
2.7844
2.78539
2.78791
2.7872
2.78516
2.78738
2.78615
2.77976
2.78031
2.78223
2.78295
2.73145
2.74221
2.74541
2.73364
2.73572
2.74756
2.74204
2.74124
2.74211
2.74363
2.74504
2.74636
2.8116
2.81219
2.8154
2.81277
2.81555
2.82087
2.81753
2.82284
2.8134
2.82046
2.81556
2.81041
2.8232
2.82646
2.82026
2.82213
2.8121
2.81299
2.82273
2.82628
2.82648
2.81718
2.82068
2.8179
2.81473
2.82741
2.82568
2.77644
2.77157
2.77221
2.77332
2.76984
2.76752
2.76912
2.7597
2.76063
2.77062
2.77241
2.77255
2.7739
2.8008
2.79622
2.79906
2.79766
2.79754
2.80346
2.80048
2.79378
2.79634
2.79766
2.79381
2.7969
2.78996
2.80791
2.80871
2.80101
2.80015
2.80835
2.80097
2.80695
2.80108
2.7981
2.79842
2.79834
2.80387
2.8003
2.80277
2.80215
2.79777
2.78958
2.81147
2.80129
2.80627
2.82434
2.81632
2.81887
2.81369
2.82609
2.82271
2.82553
2.82107
2.81527
2.82641
2.81859
2.82289
2.82573
2.83058
2.81805
2.82718
2.82881
2.82185
2.81332
2.81846
2.82212
2.82109
2.80643
2.81379
2.80851
2.82425
2.81266
2.81224
2.81758
2.81374
2.80908
2.81146
2.80939
2.80459
2.80564
2.81031
2.7879
2.79149
2.79267
2.78411
2.77956
2.78372
2.78832
2.78725
2.78078
2.7854
2.79459
2.79121
2.80285
2.79764
2.79245
2.79287
2.80294
2.79645
2.79097
2.80157
2.80631
2.76828
2.77055
2.7597
2.7706
2.77251
2.76862
2.77005
2.77445
2.77242
2.77043
2.77086
2.77124
2.77245
2.77242
2.7762
2.78374
2.78034
2.77394
2.77719
2.80266
2.79986
2.79515
2.79408
2.8001
2.79758
2.79749
2.79857
2.8178
2.81937
2.81184
2.80669
2.81353
2.81441
2.80403
2.81067
2.80732
2.80712
2.81582
2.8094
2.81484
2.81854
2.81349
2.81176
2.82469
2.81809
2.81621
2.81518
2.80717
2.80927
2.80884
2.80982
2.8108
2.81492
2.81356
2.81387
2.81224
2.82807
2.8284
2.83075
2.83957
2.83981
2.82719
2.82642
2.83136
2.83906
2.83928
2.84305
2.8378
2.84166
2.83796
2.83475
2.84184
2.84513
2.80174
2.80427
2.79798
2.80104
2.8034
2.80055
2.80292
2.80672
2.80803
2.80326
2.81086
2.8099
2.81892
2.81538
2.81104
2.81926
2.81839
2.81518
2.81645
2.81693
2.79892
2.80227
2.79751
2.80226
2.80625
2.80294
2.80127
2.80081
2.80562
2.82566
2.82638
2.83661
2.82685
2.82296
2.8263
2.84046
2.83897
2.83511
2.83928
2.84501
2.84254
2.78145
2.77743
2.78567
2.78759
2.78603
2.78634
2.7883
2.78149
2.78198
2.84214
2.84094
2.84463
2.8495
2.79714
2.79884
2.80335
2.80148
2.80989
2.81896
2.81977
2.82297
2.79049
2.7855
2.78208
2.78995
2.7843
2.78902
2.78408
2.78013
2.77728
2.785
2.7903
2.7828
2.77897
2.78497
2.7903
2.78294
2.79004
2.78825
2.78217
2.79007
2.81147
2.81341
2.81206
2.81497
2.81746
2.821
2.82374
2.82273
2.8214
2.81955
2.81231
2.80452
2.80161
2.81063
2.80633
2.80183
2.80654
2.80921
2.807
2.81147
2.81297
2.80765
2.81349
2.80948
2.81059
2.80859
2.81247
2.78371
2.78583
2.78266
2.77984
2.78932
2.7897
2.78211
2.78175
2.78484
2.79588
2.8162
2.80827
2.81032
2.81598
2.8027
2.81565
2.81372
2.80872
2.81287
2.81494
2.81243
2.81135
2.77351
2.77646
2.83109
2.82808
2.82691
2.82881
2.82268
2.82684
2.82311
2.82248
2.82407
2.82323
2.81915
2.82546
2.8198
2.81881
2.80988
2.828
2.82346
2.81894
2.82738
2.83108
2.82237
2.82237
2.83121
2.83831
2.82474
2.82179
2.82744
2.81687
2.83156
2.82703
2.83251
2.83378
2.82679
2.83237
2.83236
2.82822
2.83006
2.77257
2.75296
2.75365
2.75237
2.75263
2.75698
2.75835
2.75962
2.76634
2.74964
2.751
2.75994
2.75773
2.76717
2.82503
2.82833
2.82465
2.82461
2.81546
2.81615
2.82232
2.82111
2.82122
2.82016
2.82441
2.82139
2.8184
2.82326
2.82257
2.82278
2.83039
2.82786
2.83048
2.82866
2.82759
2.82762
2.8336
2.79599
2.78943
2.79667
2.79154
2.7974
2.80203
2.80328
2.79439
2.7933
2.80102
2.80138
2.80309
2.81318
2.81641
2.8151
2.8166
2.81364
2.81069
2.81
2.80305
2.81646
2.81254
2.81484
2.8069
2.80967
2.78917
2.78092
2.78273
2.78569
2.78191
2.78276
2.79005
2.78984
2.78665
2.78776
2.79806
2.80606
2.8041
2.79914
2.79767
2.80466
2.80484
2.80616
2.80408
2.80346
2.80036
2.79827
2.80153
2.80537
2.80139
2.79933
2.80567
2.81082
2.80769
2.80652
2.80259
2.84823
2.84669
2.83505
2.84016
2.84855
2.84722
2.84502
2.84603
2.84473
2.84049
2.844
2.84698
2.84688
2.84661
2.83986
2.84795
2.84622
2.84039
2.83788
2.84486
2.84282
2.83466
2.76776
2.76823
2.76621
2.77096
2.76778
2.76776
2.75915
2.75826
2.76006
2.76376
2.75274
2.7454
2.76
2.75713
2.75162
2.74857
2.75556
2.75864
2.75271
2.75865
2.78615
2.78231
2.78793
2.7928
2.789
2.79218
2.79273
2.7913
2.79848
2.82398
2.82697
2.82484
2.83283
2.8297
2.82997
2.83605
2.82212
2.81649
2.81862
2.81427
2.81854
2.82272
2.82252
2.82043
2.82066
2.82105
2.82472
2.82454
2.82435
2.82379
2.83809
2.83829
2.84016
2.84164
2.84265
2.83882
2.83575
2.84252
2.83977
2.8375
2.84225
2.84252
2.8427
2.84131
2.79421
2.79692
2.79588
2.79237
2.79327
2.79011
2.79663
2.7957
2.7927
2.78813
2.78952
2.79518
2.79314
2.78486
2.79308
2.80808
2.79967
2.80553
2.80309
2.80405
2.80277
2.80105
2.79801
2.80041
2.80521
2.80035
2.80771
2.80754
2.80551
2.80623
2.81469
2.81204
2.81551
2.8173
2.82044
2.82134
2.81765
2.82529
2.82147
2.8289
2.82213
2.77081
2.77401
2.77282
2.80144
2.79589
2.78666
2.78811
2.8011
2.79039
2.79247
2.79675
2.7943
2.79529
2.79775
2.79748
2.79894
2.7953
2.79808
2.77611
2.77892
2.78888
2.78191
2.79006
2.78361
2.7907
2.78863
2.79213
2.82781
2.82298
2.82926
2.83152
2.82787
2.8243
2.82311
2.82588
2.825
2.82872
2.82774
2.82445
2.82486
2.82826
2.82774
2.85213
2.77122
2.77496
2.77787
2.76611
2.77059
2.77585
2.77592
2.77603
2.77937
2.77439
2.77972
2.81947
2.81331
2.82026
2.82798
2.8151
2.81307
2.8241
2.82672
2.81507
2.81628
2.81661
2.81277
2.8143
2.81814
2.81498
2.82284
2.82137
2.82214
2.82273
2.82283
2.82239
2.81584
2.81746
2.81956
2.81831
2.81991
2.78643
2.79885
2.79367
2.77353
2.77882
2.77966
2.77954
2.78142
2.73396
2.72622
2.73325
2.73667
2.73949
2.74024
2.73242
2.72951
2.72715
2.72933
2.72845
2.72446
2.73247
2.73042
2.77799
2.78372
2.78183
2.78716
2.78901
2.79208
2.78451
2.78094
2.79016
2.78592
2.79153
2.79907
2.78796
2.78622
2.79258
2.79719
2.80046
2.79617
2.7843
2.79595
2.8199
2.82057
2.82791
2.82538
2.8202
2.8062
2.79691
2.79988
2.79576
2.79554
2.76556
2.77179
2.76947
2.7679
2.76692
2.7654
2.76439
2.77024
2.76816
2.77778
2.76917
2.77749
2.83888
2.83746
2.83291
2.83193
2.83818
2.83083
2.83312
2.83581
2.83642
2.83603
2.83585
2.83602
2.834
2.78663
2.78597
2.77595
2.77731
2.78234
2.77379
2.77299
2.7799
2.78467
2.7784
2.77849
2.77947
2.78945
2.84729
2.852
2.8508
2.74361
2.75044
2.74046
2.74913
2.75377
2.75018
2.73717
2.74505
2.74542
2.74491
2.78335
2.78174