/*--------------------------------*- C++ -*----------------------------------*\
| =========                 |                                                 |
| \\      /  F ield         | OpenFOAM: The Open Source CFD Toolbox           |
|  \\    /   O peration     | Version:  v1612+                                |
|   \\  /    A nd           | Web:      www.OpenFOAM.com                      |
|    \\/     M anipulation  |                                                 |
\*---------------------------------------------------------------------------*/
FoamFile
{
    version     2.0;
    format      ascii;
    class       surfaceScalarField;
    location    "100";
    object      phi;
}
// * * * * * * * * * * * * * * * * * * * * * * * * * * * * * * * * * * * * * //

dimensions      [0 3 -1 0 0 0 0];

internalField   nonuniform List<scalar> 
41722
(
1.83426e-09
5.39588e-09
-1.20339e-08
4.80367e-09
-7.14681e-09
7.23486e-09
7.15445e-10
-8.0357e-10
6.56665e-09
-2.89045e-10
-6.59618e-09
3.18558e-10
6.55653e-09
-1.16723e-08
-8.23132e-09
1.33474e-08
-9.56532e-11
4.55733e-09
-1.359e-09
-3.10188e-09
-2.8545e-09
-2.13338e-10
1.7234e-09
1.34547e-09
-2.37484e-09
-2.91321e-09
2.43374e-09
-3.62347e-09
1.1941e-09
2.21687e-09
-3.67645e-09
4.58929e-09
-4.53625e-09
-1.03072e-09
5.26459e-10
-1.87066e-09
6.07446e-10
-5.31452e-09
3.3473e-09
-2.63723e-09
-3.49208e-09
2.7822e-09
1.07079e-09
6.30394e-10
1.64648e-09
-1.33099e-09
-3.734e-09
4.96943e-09
5.59436e-09
-9.29175e-10
-7.58297e-11
5.4575e-09
1.50155e-09
3.71864e-09
-4.61261e-09
-6.09182e-10
-4.31265e-09
1.64955e-09
-1.52319e-09
-7.14319e-09
6.31092e-09
-8.78152e-09
9.61383e-09
-6.62388e-09
-5.90056e-10
7.07608e-11
-6.21862e-09
9.68128e-09
2.84828e-09
-5.47878e-10
-5.81363e-09
1.42909e-10
1.4465e-08
-1.30002e-08
-8.08863e-09
-2.59072e-09
8.2742e-09
-5.24415e-09
-1.16889e-08
7.08786e-09
9.84523e-09
-5.86292e-09
7.09151e-11
-6.42302e-09
1.93464e-11
3.28977e-09
-2.22439e-09
-1.40656e-08
1.10297e-08
-9.23482e-09
-7.65778e-09
7.10515e-10
-1.36973e-09
-7.38471e-09
-1.34954e-08
1.36134e-08
7.26672e-09
1.63939e-08
-1.12971e-09
-1.19744e-08
6.41845e-09
2.35383e-10
-8.88279e-09
-1.16529e-08
-1.132e-09
3.17536e-09
-1.21748e-08
-9.60725e-09
8.28235e-10
1.50645e-08
-1.48445e-08
-1.04819e-09
-1.43511e-08
1.57023e-08
-5.22911e-10
-1.52762e-09
2.41026e-09
-1.52337e-08
8.92965e-10
-1.49339e-10
1.43208e-08
-9.77852e-10
1.23303e-08
-1.21458e-08
7.93308e-10
1.56174e-08
6.73551e-09
-8.35174e-09
8.86066e-11
6.9419e-09
-7.29317e-10
3.89529e-09
8.84844e-09
-4.13386e-10
3.22205e-09
1.62906e-08
9.97927e-09
-3.51291e-10
-9.48434e-09
-1.43632e-10
2.43745e-10
5.3419e-09
9.48852e-09
-7.88375e-09
-6.94671e-09
-2.1322e-10
5.56508e-09
-9.98241e-12
-6.0821e-09
4.41227e-09
1.11583e-08
3.20785e-09
2.04844e-09
-1.31401e-08
-1.26886e-08
7.00924e-09
-4.02794e-10
3.62891e-09
-1.31097e-08
5.53612e-09
3.98724e-09
-7.47493e-09
5.5095e-09
-1.86636e-10
-1.89275e-10
5.51672e-09
1.68179e-09
-1.29187e-08
2.82283e-09
9.90657e-09
-5.71986e-10
-8.71782e-09
-5.44366e-09
-1.15112e-09
7.52098e-09
-9.26217e-10
-1.54734e-11
8.1292e-11
-6.81025e-09
1.02255e-08
1.19455e-08
-1.02738e-08
-8.22338e-10
-1.81778e-09
4.71296e-09
-2.07287e-09
-1.35081e-09
3.12101e-09
-2.59257e-09
-8.39846e-10
5.13935e-09
-6.11727e-09
3.46481e-09
2.3899e-09
4.80786e-09
-3.73301e-09
-4.32333e-10
3.22195e-09
-3.99715e-10
3.17395e-09
-4.85301e-10
-3.4061e-09
3.69636e-09
2.93169e-09
1.4296e-09
-2.7819e-11
-7.60604e-09
8.17378e-09
8.61896e-10
5.50181e-09
-7.96855e-09
2.29037e-09
7.61373e-10
1.66118e-09
1.20988e-09
4.25449e-09
-2.78743e-09
1.27825e-09
9.68305e-09
3.47569e-09
6.18449e-09
-1.10198e-08
1.7238e-08
2.00324e-09
-8.22167e-09
-3.97559e-09
9.16739e-09
-1.76127e-08
1.24207e-08
5.24269e-09
-2.26283e-09
-1.39998e-08
1.00023e-08
2.47987e-09
-2.6293e-08
1.38106e-08
9.61637e-09
8.17764e-09
-7.79177e-09
1.04036e-08
2.84485e-09
-1.02191e-08
-3.02947e-09
-5.08637e-09
1.39589e-08
8.37465e-09
-1.72474e-08
9.47686e-09
-7.88546e-09
8.81215e-09
-4.96853e-09
8.45224e-09
5.99305e-09
-1.21334e-08
1.91986e-09
5.24491e-09
8.03222e-09
-1.66916e-08
7.73694e-10
5.2943e-12
-9.29391e-09
1.15702e-09
-9.46944e-09
1.41249e-08
-5.81268e-09
1.21811e-08
-3.87879e-09
-8.29712e-09
-2.0883e-08
1.33439e-08
-3.14931e-09
1.06884e-08
5.23548e-09
-1.13675e-08
-1.47511e-08
2.67914e-09
-3.133e-09
-7.82401e-09
8.27779e-09
-2.9125e-09
-7.14112e-09
1.27327e-08
3.1551e-09
-7.41648e-09
1.12828e-09
-6.31262e-09
6.55521e-09
7.05171e-09
-5.00214e-10
-1.31605e-09
1.32545e-08
1.44681e-08
-1.01103e-08
3.40522e-09
-7.76311e-09
-5.43472e-09
1.14864e-08
8.41644e-09
1.45258e-08
-3.08042e-09
-2.28129e-08
7.63473e-09
3.74172e-09
-6.56344e-09
-2.49401e-10
1.27397e-08
-6.98164e-09
-1.58684e-08
-1.20356e-08
3.73356e-11
-5.89069e-09
-2.73973e-09
8.66515e-09
3.27327e-09
8.01244e-10
1.2735e-08
3.08397e-09
2.9388e-09
3.61208e-09
-1.26763e-09
-5.28332e-09
4.66541e-09
2.18398e-09
-3.91064e-09
7.83793e-10
2.91879e-09
-9.05351e-11
5.04566e-09
4.03527e-10
1.78697e-09
-2.04671e-09
-5.43107e-09
5.69078e-09
7.52786e-09
-3.55691e-09
3.09816e-09
-6.41252e-09
1.31255e-09
2.06514e-09
1.66795e-09
1.79768e-09
4.04324e-09
1.68694e-09
5.45418e-09
3.04453e-09
-6.70103e-09
9.64089e-09
-5.88576e-10
-5.18713e-09
-3.86518e-09
1.92971e-09
-9.32014e-10
8.64317e-09
-2.90972e-09
2.32988e-09
1.89237e-09
-2.96436e-11
3.87116e-11
2.7007e-09
3.40768e-09
8.43773e-10
6.54013e-09
-8.10869e-09
6.87069e-10
6.48958e-09
-3.78311e-09
-4.91417e-09
3.69957e-09
-4.38453e-09
3.63071e-09
3.91995e-11
-4.66628e-10
4.0111e-09
9.21119e-10
3.39665e-09
2.78437e-09
1.34785e-08
-5.36694e-09
-2.65788e-09
-5.45383e-09
-8.74387e-11
1.11033e-08
1.96531e-10
-1.12123e-08
-7.69517e-09
8.2673e-09
-6.59471e-10
1.0674e-08
-8.81383e-09
-9.55526e-09
-1.07175e-08
1.2162e-08
6.82264e-09
3.55078e-09
-3.59428e-09
1.938e-09
-1.53248e-09
1.06977e-08
1.45144e-08
9.02043e-10
7.02121e-09
-1.22383e-08
6.79827e-09
-1.58165e-09
8.21461e-09
1.09685e-08
2.81474e-09
-9.17755e-09
-2.45117e-09
-7.69926e-09
-9.8831e-10
-6.77971e-09
2.74121e-09
1.85527e-08
-1.41e-09
8.95841e-11
8.11829e-09
8.58321e-09
-1.77884e-09
1.04855e-08
-5.41589e-09
-2.25498e-09
4.13771e-09
-1.35146e-09
8.67894e-09
-3.18336e-09
-1.22756e-08
-9.78905e-09
1.20994e-08
-2.22104e-09
3.02755e-09
-7.84314e-09
1.88434e-08
-4.8066e-09
-6.1937e-09
1.01273e-08
-5.55315e-09
-1.24173e-08
1.61419e-09
1.70728e-08
1.56398e-10
9.76067e-09
1.98081e-09
4.34551e-09
-1.2199e-08
2.30034e-09
7.35878e-09
-7.81991e-09
-1.40075e-09
8.625e-09
2.53632e-09
1.40187e-09
-7.42235e-09
4.61965e-09
-8.65895e-09
4.55389e-09
1.273e-08
4.55303e-09
3.8608e-09
1.75134e-09
-6.84464e-09
-6.08679e-09
1.118e-08
8.11261e-09
-1.42375e-08
1.06779e-08
1.94116e-08
-6.74512e-09
-5.12738e-09
7.12934e-09
-1.74751e-08
2.15324e-08
-1.11867e-08
1.75254e-08
1.0053e-09
-1.14014e-08
1.24782e-09
-1.47259e-08
-3.9972e-09
7.63365e-09
9.51679e-09
4.38182e-09
2.70682e-09
1.26058e-08
1.89619e-09
4.99311e-09
1.26163e-08
1.69356e-08
-1.06948e-08
1.95883e-08
9.81227e-09
-1.2465e-08
-6.07759e-09
1.25799e-08
1.30859e-08
1.35361e-09
2.38105e-09
8.00511e-09
1.17514e-08
-7.15074e-09
-3.26633e-09
1.10297e-08
2.41713e-10
7.7311e-09
1.24824e-08
-1.29826e-08
8.50365e-09
1.39957e-08
1.70965e-09
2.83302e-09
9.3236e-10
3.43953e-11
6.7643e-09
-2.78331e-10
9.71432e-09
9.91354e-09
-5.63621e-10
1.55262e-09
-8.70463e-09
7.18638e-09
-9.6407e-09
1.0915e-08
-1.06497e-08
1.20387e-08
2.81132e-09
2.56252e-09
2.30531e-08
-6.01917e-09
-5.63672e-09
-1.13973e-08
2.17078e-09
1.33784e-08
7.50385e-09
-9.90647e-09
-1.27408e-08
1.6628e-08
-2.00292e-09
1.71655e-08
-6.76987e-09
-8.39275e-09
-2.2668e-08
8.85393e-09
1.59849e-08
2.18216e-08
-1.22341e-08
-1.52244e-08
-8.19661e-09
7.3502e-09
-3.358e-09
-6.09765e-09
-2.27539e-09
1.17309e-08
-1.09812e-08
-7.90554e-09
1.55287e-08
-9.73149e-09
1.65825e-08
-1.4833e-08
9.47421e-09
-2.83797e-09
-4.87609e-09
-2.2191e-08
-1.36169e-08
-5.41574e-09
9.3011e-09
-2.5225e-11
-4.11747e-09
-4.95252e-09
-1.59353e-08
1.42522e-08
-8.97076e-09
-5.30666e-09
2.73877e-09
-1.87994e-08
1.82086e-08
-1.07314e-08
-4.33034e-09
-3.14701e-09
1.14834e-08
8.73207e-09
-2.00694e-09
4.00128e-09
2.75211e-09
-1.90585e-08
1.23049e-08
2.62077e-09
1.28638e-08
-5.6846e-09
2.7743e-09
-8.01964e-09
1.09299e-08
-1.17831e-08
8.85052e-09
3.49346e-09
-6.73646e-10
-1.35514e-08
-5.15402e-09
1.0549e-08
7.73846e-09
-1.26895e-08
-6.83207e-09
-2.26076e-09
1.97954e-09
-1.30627e-08
1.48722e-08
1.6839e-09
-3.80842e-09
-1.059e-08
1.70882e-09
-6.94724e-09
8.76328e-09
-6.97013e-09
1.3473e-09
-1.05553e-08
1.27516e-08
7.98659e-09
7.78777e-10
1.23077e-08
-1.08592e-08
1.13031e-08
-9.34345e-09
5.03683e-09
9.49451e-09
-2.02169e-09
5.01519e-10
6.19826e-09
8.36593e-09
1.08506e-09
1.74209e-08
2.95832e-09
-4.46667e-09
-1.02761e-08
1.6398e-08
-1.08476e-08
-1.45023e-09
-2.93275e-09
5.2419e-09
-5.80178e-09
5.15826e-09
-4.59843e-09
-4.41211e-09
1.37716e-08
-4.11766e-09
8.14621e-09
-4.28057e-09
-8.81735e-09
-7.46729e-11
3.09023e-09
-2.19191e-10
-2.41425e-09
9.98846e-09
-7.35506e-09
-7.97029e-09
1.0835e-08
5.89233e-09
-3.64724e-09
-4.65936e-09
-5.63283e-09
2.7078e-09
7.6364e-09
7.34839e-09
-1.38565e-08
9.64787e-09
-1.24939e-08
-2.59489e-09
6.60991e-09
-4.50942e-09
-7.53238e-09
1.6454e-08
-1.11853e-08
6.65109e-09
6.36838e-09
-6.80403e-09
-8.89067e-09
-3.51691e-09
1.16439e-08
-5.03002e-09
-3.09712e-09
-1.17633e-08
9.33807e-09
4.73772e-09
-2.31262e-09
-6.56478e-09
-1.30235e-08
7.82492e-09
1.03971e-08
-6.10197e-09
1.22158e-09
1.22717e-08
-5.39162e-09
4.62652e-09
5.84755e-11
-8.53386e-10
-3.83142e-09
6.67279e-10
1.09426e-09
2.86501e-09
-3.34043e-09
1.49783e-09
2.51008e-09
-4.87118e-10
-2.79453e-09
1.4862e-09
-6.1801e-10
-1.355e-09
1.95596e-09
-4.76563e-10
6.9617e-12
-3.29199e-09
1.46457e-09
2.92165e-09
-1.05e-09
-3.09541e-09
2.37244e-09
1.08141e-09
1.76218e-09
-7.54081e-10
-1.62612e-09
1.32613e-09
-4.03946e-11
-1.81454e-10
3.05869e-09
-3.92727e-09
2.54933e-09
-3.48488e-09
-6.5296e-10
-2.29185e-09
3.32386e-09
-3.78981e-10
-4.66288e-10
3.06325e-09
4.61723e-10
2.28355e-09
-2.00455e-10
3.8749e-09
7.5864e-10
-7.66876e-10
2.03903e-09
4.58314e-11
-3.08208e-09
1.18777e-08
6.15099e-10
-9.41071e-09
-7.19766e-09
-2.27748e-09
-2.47458e-09
1.19497e-08
1.38375e-08
-2.27024e-09
-5.8585e-09
-5.70878e-09
4.06994e-09
-7.74301e-09
1.75106e-08
-1.40226e-08
1.08178e-08
4.49569e-09
-1.2909e-09
8.93487e-09
-7.25206e-09
-1.57054e-08
-1.09894e-08
1.30753e-08
8.73191e-09
-4.32474e-09
-1.07849e-08
-7.99509e-09
1.15824e-08
-1.47877e-09
-1.23883e-08
1.40959e-08
-1.23956e-08
-4.34622e-09
1.56133e-09
-8.8171e-10
1.63899e-08
-5.8446e-09
-1.64038e-08
7.57846e-10
7.88898e-09
9.82154e-09
-1.6317e-08
6.50875e-10
-1.39195e-08
-6.81784e-09
1.63911e-08
1.73779e-09
1.27641e-08
-2.32753e-09
6.70412e-09
9.22101e-09
-9.87423e-09
-1.06595e-08
1.13129e-08
-1.0287e-08
1.4248e-09
1.80831e-08
-1.61547e-08
8.69472e-09
-1.30476e-09
8.76471e-09
-8.9847e-09
-1.58418e-10
-7.01156e-09
-1.03911e-08
8.79881e-09
-2.20011e-08
1.73579e-09
-2.11864e-08
9.18928e-09
1.06923e-08
-1.17573e-08
-1.84138e-08
-1.27916e-08
-9.36788e-09
1.97134e-08
-1.71305e-09
-4.41985e-09
-1.35805e-08
-3.58535e-09
1.12779e-08
1.20209e-08
-1.9123e-08
7.7103e-09
7.82748e-09
-4.64427e-09
-1.61917e-08
5.59408e-09
1.48732e-08
-6.01693e-09
1.30358e-08
-9.27633e-09
7.35696e-10
2.52378e-09
-9.40115e-09
-1.6541e-08
1.31506e-08
-2.66962e-09
-1.35075e-08
-1.30577e-08
1.14917e-08
-3.51814e-09
-1.41837e-08
-1.55889e-08
1.80501e-09
9.39839e-11
-6.63991e-12
-2.26141e-09
1.63452e-09
4.63799e-09
5.1296e-12
1.14114e-09
2.06624e-09
2.52312e-09
1.45467e-09
2.72111e-09
-2.50783e-09
1.55627e-09
-7.62071e-12
-1.08959e-09
4.79034e-09
1.83766e-09
8.88573e-10
2.30434e-09
-3.77007e-09
-1.66225e-09
1.00871e-08
-4.65485e-09
1.61258e-08
-1.4459e-08
-5.43692e-09
1.31234e-09
9.63875e-09
-2.18731e-09
-8.76385e-09
8.37296e-09
-6.97369e-09
-8.69483e-11
7.67487e-09
-4.5883e-09
-4.74885e-09
-1.18575e-08
1.23508e-08
-1.02239e-08
9.73053e-09
-1.44899e-08
1.0036e-08
-7.40363e-09
-1.84386e-08
1.40358e-08
8.37956e-09
2.45152e-09
1.08076e-08
-5.58424e-09
7.30275e-09
-3.93379e-09
-9.17462e-10
9.52011e-09
-1.81168e-09
3.71864e-09
1.81523e-08
7.51711e-09
4.96053e-09
9.85936e-09
-2.09645e-09
2.52053e-10
5.27165e-09
-8.32498e-10
-7.05871e-09
1.57379e-08
7.81834e-09
-2.76058e-10
6.0313e-09
-7.06788e-09
7.40528e-09
-2.81198e-09
1.53236e-09
-1.10608e-08
-1.87596e-09
1.14044e-08
-5.65108e-09
1.1556e-10
5.02865e-09
-7.82082e-09
-9.59611e-09
-2.52957e-09
-4.36877e-10
-5.77929e-09
-1.45258e-08
9.24432e-09
-2.60944e-09
-1.11241e-08
5.91268e-09
-2.87689e-09
2.61496e-09
-5.51733e-09
4.97725e-09
-1.04636e-08
7.50139e-09
9.08274e-11
-6.79256e-10
1.08915e-08
-7.88777e-09
5.56786e-10
-3.56046e-09
-1.39392e-08
9.37518e-09
1.54555e-08
-7.22434e-09
-1.46026e-08
1.24979e-09
4.97465e-09
3.15065e-09
-8.63726e-09
6.49773e-09
3.38926e-09
6.79874e-10
-9.35035e-09
-9.81229e-10
9.6517e-09
-8.78073e-09
1.21871e-09
8.24186e-09
-7.8087e-09
-9.84881e-10
1.66151e-09
7.01566e-09
-1.64859e-08
7.80623e-09
-1.33691e-08
1.04441e-08
1.40713e-08
-1.74997e-08
5.26298e-09
4.15038e-09
1.0307e-09
1.05535e-08
3.31933e-09
-6.46066e-09
-6.03573e-09
4.70661e-09
7.78975e-09
-5.21091e-09
2.82849e-11
-1.27806e-09
3.18504e-10
-8.98215e-09
6.92244e-09
1.74122e-09
6.98328e-09
-4.64454e-09
-7.54967e-09
1.26606e-09
1.87134e-08
-8.03727e-09
-5.96949e-09
-4.80804e-09
6.04492e-09
-1.20861e-09
4.11211e-09
-1.21711e-08
3.41447e-09
-6.96171e-09
-4.18772e-09
1.21126e-08
-9.63233e-10
-7.65764e-09
1.10788e-08
-8.03548e-09
-1.27714e-08
9.72812e-09
2.25478e-10
-1.74847e-09
1.26018e-08
7.65913e-09
2.45985e-09
-1.81545e-08
7.99019e-09
7.28408e-09
-7.61513e-09
8.0436e-09
-1.03741e-08
1.00597e-08
-7.72923e-09
-5.8686e-10
8.65006e-09
-1.95966e-11
8.92183e-09
-7.06143e-10
7.00975e-09
-3.1252e-10
3.77046e-10
9.17201e-09
-6.27221e-10
7.56564e-09
-1.78834e-10
9.86688e-09
-1.77811e-08
5.70935e-09
-8.40957e-10
5.19133e-09
5.06454e-09
9.29488e-09
6.18292e-09
-4.79814e-09
3.21167e-09
-4.59638e-09
1.48858e-09
1.52068e-08
-1.05124e-08
3.95969e-09
8.67048e-09
1.46203e-08
4.22779e-09
2.71283e-09
-1.22898e-08
5.18093e-09
4.39607e-09
1.02596e-09
-1.05376e-08
-1.15004e-09
1.06616e-08
-4.86266e-09
5.74308e-09
1.45529e-10
3.83031e-09
-6.46284e-09
5.34537e-09
-2.60854e-09
8.98838e-09
-2.54955e-09
1.03519e-09
-1.1316e-08
-2.009e-09
-8.87643e-09
-6.25943e-10
6.80608e-10
-8.67101e-09
-8.86062e-10
-4.94568e-09
5.60412e-09
2.21502e-11
1.87752e-09
-1.32768e-08
4.93645e-09
-6.03098e-09
-6.49704e-09
9.91947e-09
-1.0035e-08
5.88156e-09
-5.33696e-09
2.16806e-09
-8.14712e-09
3.18215e-09
9.3787e-10
-9.06572e-09
-1.08258e-08
8.68376e-10
-1.2694e-10
-4.73108e-09
-6.37765e-09
5.6552e-09
-6.97052e-09
-8.71972e-09
2.65411e-11
-1.07637e-08
-9.74977e-09
2.3649e-09
9.3313e-09
-1.94645e-09
-7.04836e-09
1.05316e-08
-1.85898e-09
-1.62431e-09
6.34323e-09
-1.04353e-08
-2.95633e-09
-8.43059e-09
-4.10822e-09
2.78902e-09
-8.29286e-09
-9.67592e-09
9.53818e-09
4.21893e-09
-8.302e-09
5.5522e-09
-1.46917e-09
1.42179e-09
-5.96936e-09
8.76649e-09
-3.76053e-09
7.54721e-09
-2.57717e-09
7.81127e-09
5.29751e-09
3.94288e-09
-1.7683e-10
-4.89329e-09
-5.25858e-09
5.10297e-09
-1.39993e-09
6.48101e-09
-9.55584e-09
-5.22719e-09
-7.49581e-12
5.19135e-10
-3.7738e-09
5.11623e-09
1.6158e-10
6.91346e-09
1.43119e-09
-4.00828e-09
-4.33634e-09
-3.4413e-09
6.70782e-09
3.64698e-09
-1.09668e-08
1.15274e-09
1.41382e-09
8.4003e-09
-4.46675e-09
-5.06889e-09
3.83064e-09
2.28558e-09
-9.26416e-09
3.148e-09
5.31471e-09
2.85214e-09
-4.33617e-09
4.21697e-09
-5.93963e-09
1.20358e-09
-4.27844e-10
1.37658e-09
6.48399e-09
1.14119e-09
1.05542e-08
-1.02816e-08
5.37715e-09
-1.80072e-09
1.73834e-09
4.40589e-09
-3.50115e-10
-5.37556e-09
7.89339e-09
4.4075e-09
-2.41633e-09
2.01253e-09
2.57319e-09
-2.16937e-09
-2.33878e-09
1.6727e-10
-2.44837e-10
-6.91928e-09
-2.19168e-09
2.40341e-09
6.70758e-09
-1.4541e-09
-5.97503e-09
5.09909e-10
-2.44696e-09
8.23132e-10
-7.14985e-10
-6.16987e-11
-1.8532e-09
3.92743e-09
-2.5581e-09
4.81077e-09
-2.3144e-09
-4.48618e-09
3.31572e-09
-1.02116e-09
-5.57618e-09
-3.64114e-10
-2.29595e-09
-1.5308e-09
1.97351e-09
-1.91778e-09
-2.10891e-10
-3.27556e-10
1.08514e-09
2.48784e-09
-2.1116e-09
-2.29411e-09
6.29362e-10
-2.00275e-09
6.55386e-09
-3.34247e-09
-1.2086e-09
-3.98503e-09
-3.73233e-09
5.71454e-09
2.22788e-09
1.08386e-09
2.10569e-09
-5.41735e-09
3.04261e-09
-4.79977e-09
8.69581e-11
8.66036e-10
5.60085e-09
-2.0924e-09
-3.19316e-09
6.55734e-09
-1.27178e-09
2.84543e-09
-5.10405e-09
-4.75603e-10
3.59064e-09
-7.23966e-11
1.94176e-09
-3.11642e-10
-1.9347e-09
-2.22809e-09
2.07044e-09
6.43789e-10
1.01214e-09
-4.43024e-09
-2.5158e-09
3.75293e-09
-4.53035e-09
1.87102e-10
2.31611e-09
-4.001e-09
6.67773e-11
-2.66421e-10
-2.19518e-10
3.82176e-09
-1.21244e-09
-6.20364e-09
-6.4642e-09
7.23845e-09
-1.4336e-09
4.64693e-09
-1.21952e-08
1.08411e-09
-1.50258e-10
-5.82665e-10
7.55558e-09
2.58282e-10
9.629e-09
-1.00375e-08
-7.39788e-09
9.01254e-09
-7.43764e-09
5.82288e-09
-8.06356e-09
2.29042e-09
-1.62479e-09
-5.94215e-10
-6.78036e-09
6.79178e-09
8.67662e-09
6.04284e-09
-9.4595e-09
-2.56522e-09
1.17043e-09
-6.68229e-10
-1.21221e-08
1.57157e-09
3.38901e-09
7.16151e-09
-5.04289e-09
1.49424e-09
-8.57344e-09
-9.08947e-10
1.10746e-08
-2.41988e-09
-7.7458e-09
1.43044e-08
-4.2904e-09
-1.09229e-08
-1.58887e-08
6.50618e-09
1.09541e-08
-1.56715e-08
-5.26012e-09
3.80753e-09
-1.48925e-08
1.53955e-09
9.5454e-09
9.91158e-09
-2.53577e-09
4.92023e-09
8.38036e-09
-7.39071e-09
-1.68766e-09
2.0153e-08
1.34198e-08
8.05675e-09
-6.78498e-09
6.42155e-09
1.33952e-09
2.95676e-10
9.65413e-09
3.12142e-09
-1.36121e-08
8.67164e-09
1.81903e-09
7.99567e-09
-8.19641e-09
3.32214e-09
-5.51111e-09
2.25015e-09
-8.69273e-09
1.19536e-08
-3.25691e-09
5.74149e-09
3.11112e-09
-1.03348e-08
3.96666e-09
-6.54447e-09
-8.97034e-09
1.77648e-08
-1.02786e-08
6.84518e-09
-5.4825e-09
-9.77703e-09
4.9247e-09
-1.44359e-08
7.5699e-10
7.33729e-09
-1.26574e-08
-4.9586e-09
9.0836e-09
-1.07167e-08
1.00413e-08
5.43424e-09
-9.77469e-09
-5.70093e-09
-5.44933e-09
2.83318e-09
-5.87722e-09
2.32735e-09
-1.00623e-08
-4.26743e-09
-1.60458e-08
1.23413e-08
2.29788e-09
-1.89067e-08
-2.88505e-09
-5.17792e-09
5.15683e-09
-7.18332e-09
3.90387e-10
1.22271e-08
3.87813e-09
-1.1355e-08
-9.8479e-09
1.60639e-09
3.06355e-09
1.76633e-09
-5.07156e-09
-5.75423e-09
1.1133e-08
6.96951e-09
-1.01058e-08
-7.99674e-09
8.72937e-09
1.70754e-09
6.96105e-10
1.37504e-08
-8.87817e-09
2.09726e-09
-1.32786e-08
5.96473e-09
1.60432e-08
1.10763e-09
-6.35831e-10
-8.51619e-09
3.08842e-09
-3.4504e-09
-1.68862e-08
8.98296e-09
-9.34815e-09
1.47277e-09
-5.00066e-09
1.99483e-08
1.23067e-08
1.60176e-09
4.17461e-09
1.83974e-08
-1.10915e-08
-1.27381e-08
4.99169e-09
-8.50848e-10
-6.22664e-09
3.49945e-09
1.43727e-08
-1.16454e-08
6.55758e-09
-9.34611e-09
7.34514e-10
2.054e-09
6.13576e-09
-7.63749e-09
8.05932e-09
2.38323e-10
4.57091e-09
-1.10358e-08
-5.05345e-09
1.46886e-08
5.64606e-09
8.17226e-09
-9.61037e-11
-1.37222e-08
4.89789e-09
2.90206e-09
-2.1539e-09
-1.02471e-09
-4.89485e-09
-3.42655e-09
-3.76431e-09
5.67504e-09
9.16905e-09
-6.67185e-09
8.07289e-09
5.04223e-10
6.74363e-09
2.66376e-09
9.76307e-09
-1.23621e-08
7.37112e-09
-7.80086e-09
2.13886e-08
5.22151e-09
-1.88091e-08
-2.03775e-08
1.66971e-08
-4.1204e-09
-3.01256e-09
-1.38721e-08
-3.49286e-09
-3.77031e-10
2.69475e-09
1.90709e-08
1.59216e-09
1.4728e-08
1.53092e-08
-1.51063e-08
6.4631e-11
-2.67509e-10
7.98411e-10
1.6103e-08
6.82678e-09
-3.58179e-09
5.05648e-09
-8.3014e-09
-1.12921e-08
6.3176e-09
-1.42984e-08
4.39907e-09
1.32405e-08
1.03069e-08
-1.72297e-08
1.77761e-08
-2.5349e-09
-2.00067e-09
-1.73317e-09
1.7984e-08
-1.54524e-08
3.90261e-09
-1.72249e-08
1.6017e-08
-1.76463e-08
1.98158e-08
2.97785e-09
1.99707e-08
-1.26417e-08
1.49236e-08
-6.88926e-09
9.39871e-09
-8.84753e-09
-8.7476e-09
5.00014e-10
7.08591e-10
1.05145e-08
7.62815e-09
3.66556e-09
4.12185e-09
-1.54154e-08
7.14252e-09
-3.28161e-09
3.76744e-09
-1.80549e-08
7.21502e-09
2.34579e-09
8.49415e-09
-2.4136e-09
-8.49875e-09
1.09203e-08
-2.69077e-09
-1.50143e-08
6.78469e-09
-1.19092e-08
7.04926e-09
1.57802e-08
-1.44834e-08
9.78924e-09
-1.99675e-08
7.83033e-09
-2.34627e-09
3.96675e-09
-4.73453e-09
1.09614e-08
-1.01937e-08
6.21476e-10
-6.91538e-09
1.74206e-08
-1.11267e-08
1.08714e-08
-6.2832e-09
9.71518e-09
-1.2965e-08
1.07068e-08
9.62846e-09
-1.79893e-08
1.01347e-08
-1.25208e-08
-1.07543e-08
1.31406e-08
-1.26659e-08
-4.62344e-09
-8.88183e-09
2.05544e-08
-7.23247e-09
1.06771e-08
-8.06827e-09
1.26923e-08
7.03321e-09
-2.30504e-09
1.38263e-08
9.73726e-09
3.90305e-09
-1.50805e-10
7.26569e-09
6.33467e-09
3.11116e-09
-1.67116e-08
6.8781e-09
-2.48392e-09
1.5037e-09
-4.84451e-09
5.82451e-09
-1.27946e-08
2.6024e-09
7.70823e-09
-7.80823e-09
-7.26172e-09
9.07997e-09
-1.08879e-08
-6.00043e-09
-3.55255e-09
-2.64162e-09
7.69783e-09
-1.13582e-08
1.04077e-08
-1.21562e-08
7.63322e-09
-2.40625e-09
1.27748e-10
1.0456e-08
-1.1776e-08
-1.08656e-09
8.82445e-09
-4.39278e-09
6.02405e-09
1.16512e-08
3.14221e-09
-2.69797e-09
-1.20955e-08
-5.81172e-09
-3.45809e-09
6.24672e-09
-2.20038e-10
-7.52569e-09
-4.32804e-09
1.05108e-08
4.57464e-09
-9.02617e-09
-7.32464e-09
-1.73492e-10
3.54595e-10
-1.11964e-08
8.03301e-09
-2.64836e-09
1.22724e-09
-1.51218e-08
-4.94416e-09
4.42356e-10
-1.18488e-08
1.30634e-09
7.08415e-09
8.03878e-10
-4.61974e-09
-2.91545e-09
-6.33079e-09
-1.24385e-08
8.80051e-09
-7.49447e-09
-4.14018e-09
-9.18272e-09
1.73975e-08
-9.34164e-10
-9.93023e-09
-6.53344e-09
7.82054e-09
2.51287e-09
7.06402e-09
-1.80301e-09
1.30657e-08
-2.72616e-09
-8.53667e-09
1.18882e-08
-4.11144e-09
-9.57989e-09
-1.81631e-09
3.84102e-09
1.10409e-08
8.59061e-09
1.48119e-09
-1.08586e-08
9.97904e-09
8.70014e-09
-7.55199e-09
2.47403e-09
-5.78084e-09
1.42957e-08
-8.7454e-09
-6.48455e-09
8.25289e-09
8.55556e-09
-5.63321e-09
-1.18488e-08
4.08135e-09
1.37066e-09
-1.10852e-08
-7.39011e-09
7.27314e-09
-1.00141e-08
-5.81241e-09
5.2253e-09
-6.56467e-09
1.11278e-08
-2.35883e-09
-1.73215e-09
-8.98344e-10
-2.2295e-09
-2.98973e-09
1.0376e-08
-4.95631e-09
5.95328e-09
-3.22648e-09
-6.88068e-09
8.56281e-09
-4.67188e-09
3.91414e-09
-7.26407e-09
-8.56645e-09
3.5048e-09
-8.08734e-09
3.75e-09
-1.41693e-09
-7.48371e-09
-1.08289e-08
5.17682e-09
1.31358e-08
-1.0815e-08
-4.89787e-09
8.2292e-09
4.38026e-09
-8.23315e-09
-4.71357e-09
-2.65437e-09
-2.60848e-09
-9.10302e-09
7.58264e-09
-1.7097e-08
9.34536e-09
1.69024e-10
-1.37333e-08
1.29363e-08
8.37955e-09
-1.30684e-08
-1.82733e-09
1.37976e-08
1.09796e-09
-7.5557e-09
-6.53443e-10
-4.85924e-09
-1.61951e-08
-1.0887e-09
1.54565e-08
1.06173e-08
-6.05932e-09
-1.21137e-08
-2.89081e-09
-2.68699e-09
-7.67288e-09
-6.71395e-09
-5.77434e-09
-1.89956e-08
-7.46543e-09
9.9058e-10
1.94112e-08
8.16817e-09
-6.2883e-09
2.28782e-08
-8.08993e-09
-1.48323e-08
-5.54944e-09
1.74909e-08
1.72323e-11
-2.09089e-08
-2.11334e-08
1.53763e-08
3.88828e-09
-3.52265e-09
-1.38737e-08
1.3508e-08
1.43788e-09
9.11303e-09
-9.58533e-09
-9.65598e-10
3.84254e-11
1.19187e-08
-1.05193e-08
-8.72339e-09
1.50043e-08
6.55084e-09
-1.28318e-08
3.55339e-09
2.58299e-09
2.97661e-09
5.70112e-09
-1.08712e-08
4.34517e-10
-6.13159e-09
1.11766e-08
3.50593e-09
-1.82053e-08
6.94802e-09
-4.06322e-09
-6.25864e-09
1.60229e-08
-8.12187e-09
9.83327e-09
-5.77469e-09
-8.54411e-09
-9.80221e-11
4.5859e-09
4.05615e-09
1.57601e-08
-1.754e-08
8.26052e-09
7.40151e-09
-7.695e-09
1.50857e-08
-4.42804e-10
-1.27525e-08
3.83931e-09
-9.6225e-09
5.94684e-09
1.0727e-08
-6.45315e-09
5.69035e-09
-7.4845e-09
3.4887e-09
7.6485e-11
-4.48032e-12
1.08429e-08
7.38952e-09
-1.26673e-10
-1.86844e-10
2.41659e-09
3.81282e-09
7.63284e-09
-1.68082e-08
5.25255e-09
8.38928e-09
3.16623e-09
-1.05422e-08
2.50931e-09
-8.77541e-09
-1.03093e-09
8.23934e-09
-9.47003e-09
2.26151e-09
1.58429e-09
8.27275e-09
-1.08881e-08
-8.28196e-09
-9.10497e-09
-6.77289e-09
7.51537e-11
-1.20325e-08
3.07667e-09
1.42083e-08
-7.31828e-09
-2.20501e-09
-7.29588e-09
-4.71111e-09
1.28689e-08
-8.62016e-10
9.54411e-09
-8.60069e-09
-3.75667e-09
-6.67204e-09
1.26947e-08
-2.94605e-09
-9.99039e-09
1.61872e-08
9.55577e-10
-8.16952e-09
-4.44051e-09
8.8481e-09
3.76176e-09
-5.28007e-09
4.0695e-09
-6.95936e-09
-3.57471e-10
1.7176e-09
-6.64048e-09
5.33047e-09
1.67297e-09
-7.36107e-09
-2.7084e-09
3.59822e-09
-2.19926e-09
2.8991e-09
8.14789e-09
7.38888e-10
1.12987e-09
-1.61761e-09
2.42013e-09
-6.41368e-11
-3.29659e-09
4.14715e-09
-2.46831e-09
7.62571e-11
3.39877e-09
-1.80232e-09
-1.50277e-09
-3.73238e-09
-2.09622e-09
2.99251e-09
2.83483e-09
-1.03891e-09
-2.93479e-09
2.41164e-10
-3.32641e-09
2.61489e-09
3.13156e-09
-2.18213e-10
-3.34336e-09
2.84992e-11
1.21671e-09
-2.87937e-09
-2.92881e-10
7.50082e-09
-4.30912e-09
-2.94934e-09
1.71634e-09
1.26547e-08
-1.14218e-08
1.28203e-08
-5.71539e-09
1.7123e-09
-8.8173e-09
-3.79956e-10
1.02509e-08
1.36249e-08
-1.10499e-09
-7.32245e-09
-5.19738e-09
2.29969e-09
1.09452e-08
-1.16363e-08
1.07404e-08
-6.183e-09
7.07892e-09
-7.28687e-09
-5.45443e-09
-4.31612e-09
-8.72173e-09
1.08535e-09
1.19548e-08
2.8596e-10
-7.63436e-09
9.06475e-09
-6.12219e-09
7.49349e-09
5.77212e-09
-6.29055e-09
-6.76843e-09
-4.70883e-10
5.99733e-11
2.65314e-10
-7.36103e-09
-5.38664e-10
-5.73088e-09
-1.26024e-10
-1.28756e-08
2.2689e-09
-5.3533e-09
3.87609e-09
-5.88384e-09
-6.19506e-09
-6.69123e-12
3.60142e-09
5.7615e-10
-6.88837e-10
-3.48896e-09
-3.64284e-09
3.09952e-09
4.14466e-09
-5.28298e-10
-2.53845e-09
5.79807e-10
1.99012e-09
-1.11364e-10
-2.45884e-09
2.20275e-09
-2.31184e-09
-3.1026e-09
-2.22935e-09
2.71721e-09
2.6147e-09
-2.24312e-10
-2.30938e-09
-5.69006e-10
3.16083e-09
-7.69476e-10
-2.91976e-09
3.65951e-09
-7.22976e-10
3.25104e-10
-9.48701e-10
4.28306e-09
-1.43385e-09
2.33634e-09
1.30015e-09
5.89152e-10
-3.3015e-11
2.15032e-09
-3.03127e-09
1.62141e-09
-1.78056e-09
-1.88017e-11
-7.81493e-10
3.82378e-09
1.2374e-10
2.02699e-09
1.67856e-09
6.37568e-09
7.47208e-09
1.44843e-09
-1.52963e-08
8.35147e-09
-2.77292e-09
4.33117e-09
-9.90986e-09
1.18259e-08
3.88142e-09
-9.33177e-09
-1.94365e-09
7.2501e-09
-9.13674e-09
3.83017e-09
2.5914e-09
3.21438e-09
-7.74967e-09
3.11924e-09
-5.62545e-09
5.09747e-09
-9.2022e-09
6.64066e-09
1.00336e-08
-2.08734e-11
-8.29913e-10
1.16015e-08
-7.75576e-09
-1.58044e-08
1.19583e-08
-1.03441e-08
9.85333e-09
7.7407e-09
-6.39554e-09
6.31884e-10
1.7365e-08
-1.90933e-08
-1.9442e-09
1.46417e-08
-6.31721e-09
-2.82087e-09
-9.95535e-09
9.56849e-09
-1.24084e-08
-9.30509e-09
1.21449e-08
3.18661e-10
9.22893e-09
-4.15838e-09
-5.13089e-09
8.16915e-09
-9.11327e-09
1.31634e-08
-5.89095e-09
1.20843e-08
-1.02325e-08
7.8271e-09
2.31292e-09
-1.40996e-08
-3.55186e-10
-2.77494e-09
-1.14614e-08
-1.69366e-08
1.63276e-08
-1.22719e-08
-4.41081e-09
5.83828e-09
-2.15233e-09
-4.19956e-09
-5.21747e-09
1.84408e-09
7.573e-09
-1.38009e-08
-2.76804e-09
1.23694e-08
-1.76112e-08
5.81263e-09
6.58107e-09
-1.94845e-09
-3.92475e-09
-1.17379e-08
4.8948e-10
4.0274e-09
-1.59783e-08
5.41606e-09
-1.71984e-08
1.47359e-08
-1.26569e-08
1.22471e-08
-1.23096e-08
2.73275e-09
9.05242e-09
-1.38928e-08
2.10764e-09
-1.08567e-08
9.55178e-09
4.03768e-09
-1.47629e-09
-1.03713e-08
9.90889e-10
1.22965e-10
-4.7374e-09
1.36668e-08
-4.46426e-09
1.4139e-08
8.76244e-09
-1.06141e-08
3.75323e-10
-5.31709e-09
9.61528e-09
-3.65256e-10
-1.26584e-08
-8.692e-10
-9.57832e-09
-1.15824e-09
1.81065e-10
-1.39718e-09
-9.39792e-09
-9.2336e-10
-8.47389e-09
1.50521e-08
-1.44357e-08
-2.01357e-09
-1.18028e-09
1.09153e-08
-1.57889e-08
8.53257e-10
2.27729e-09
-2.26356e-09
-1.44487e-08
5.53692e-09
9.89282e-09
-1.66101e-08
1.64833e-08
-5.80368e-10
-1.81665e-08
1.41731e-08
3.1634e-09
1.49726e-08
1.54588e-09
1.00825e-08
-8.12362e-09
1.09674e-08
-6.0994e-09
-1.70154e-10
2.34243e-09
3.56913e-09
4.14818e-09
6.64904e-09
1.98205e-09
-1.05537e-08
1.27198e-08
2.80006e-09
1.1496e-08
-9.36391e-09
1.4146e-08
-1.46997e-09
9.98799e-10
7.07821e-09
1.46291e-11
8.09035e-09
-8.61047e-10
1.22925e-08
-1.21881e-08
7.56578e-10
1.01891e-08
-1.09305e-08
-1.19653e-10
-5.70066e-09
-9.52306e-09
-1.66249e-09
-6.2445e-09
-4.62304e-09
5.16686e-09
1.21285e-08
1.91863e-09
-1.75467e-09
-4.99606e-09
4.53397e-09
1.25906e-08
7.28701e-09
-2.09399e-09
6.82004e-09
-5.44091e-09
-1.35672e-08
-6.66673e-09
2.55623e-09
-7.29436e-09
-1.15966e-08
-1.06635e-09
-1.24725e-08
-1.09354e-08
1.46185e-08
-1.35188e-08
3.21698e-10
-6.95957e-09
-4.91755e-10
7.12963e-09
-8.63348e-09
-6.18191e-09
4.63481e-09
1.01806e-08
-8.10115e-09
-2.10632e-10
-3.04715e-09
-3.39779e-09
1.55737e-08
-9.12878e-09
-8.7496e-09
9.64199e-09
-3.93954e-09
2.20146e-09
-3.45693e-09
-6.84569e-09
-4.90365e-11
-3.93142e-09
4.56848e-10
-7.32236e-09
-9.40414e-11
1.67613e-08
2.8263e-09
-1.37493e-08
1.00204e-08
7.44949e-09
-8.01731e-09
6.78498e-09
-2.16545e-09
-9.31932e-09
1.15924e-09
-5.89483e-10
-3.53827e-10
-8.50865e-09
-8.3871e-09
-2.39219e-09
-6.66446e-09
8.66752e-09
-3.88719e-09
-8.69532e-09
-7.59622e-10
7.25808e-10
-2.86434e-09
5.74498e-10
-6.40555e-09
3.9759e-09
-2.08923e-09
-4.75101e-09
3.33785e-09
-1.21581e-10
4.34632e-09
3.18832e-09
-1.24043e-09
-6.29418e-09
4.3888e-09
6.52048e-09
-6.563e-09
-8.91819e-09
6.2419e-09
1.34566e-10
-3.18817e-09
2.43759e-09
5.98941e-10
-3.81418e-09
3.35802e-09
-1.42792e-10
-5.42855e-11
2.31812e-09
-5.64778e-09
3.07787e-09
-4.57395e-09
-3.14683e-09
6.35929e-09
1.07832e-08
8.16931e-09
-1.0699e-08
-8.25353e-09
1.13991e-08
-2.90456e-10
-3.25499e-10
-7.51466e-09
1.1683e-08
7.23069e-09
9.99753e-10
-3.45107e-10
1.38635e-08
-8.72406e-10
-1.18931e-08
1.46452e-08
-1.07222e-09
1.19345e-08
9.55564e-10
-1.39788e-08
-1.11369e-09
2.93314e-09
1.01151e-08
3.99816e-09
-2.92743e-09
2.18074e-08
7.13163e-09
-7.5199e-09
7.49681e-10
-3.61442e-10
-8.19765e-09
2.69553e-09
-3.09144e-09
8.59354e-09
-6.62725e-11
-1.70869e-09
-9.8627e-09
-7.69417e-10
1.5148e-08
1.7874e-08
-8.27303e-09
8.86782e-10
1.27038e-08
-1.6518e-08
8.47443e-09
-1.06791e-08
-9.67253e-09
-3.33747e-09
1.15994e-08
1.41059e-09
7.40245e-09
-8.06996e-09
-9.00502e-09
1.37908e-08
-9.2196e-10
-5.46647e-09
1.25931e-09
2.60658e-09
9.92489e-09
6.95595e-09
-2.214e-09
-1.28119e-08
5.2297e-09
-1.61129e-09
2.70748e-09
1.01513e-08
-9.16509e-09
3.39988e-09
8.37175e-09
-5.01015e-09
-5.0769e-09
5.85447e-09
-8.11557e-10
1.86848e-10
1.0736e-09
7.48837e-09
-9.02778e-09
3.22752e-09
3.58622e-09
4.45522e-09
3.37317e-09
-3.28411e-09
-4.54427e-09
2.99635e-09
6.47307e-10
-4.17014e-09
1.79769e-09
5.77234e-09