/*--------------------------------*- C++ -*----------------------------------*\
| =========                 |                                                 |
| \\      /  F ield         | OpenFOAM: The Open Source CFD Toolbox           |
|  \\    /   O peration     | Version:  v1612+                                |
|   \\  /    A nd           | Web:      www.OpenFOAM.com                      |
|    \\/     M anipulation  |                                                 |
\*---------------------------------------------------------------------------*/
FoamFile
{
    version     2.0;
    format      ascii;
    class       volVectorField;
    location    "100";
    object      U;
}
// * * * * * * * * * * * * * * * * * * * * * * * * * * * * * * * * * * * * * //

dimensions      [0 1 -1 0 0 0 0];

internalField   nonuniform List<vector> 
18946
(
(0.74661 0.762594 -0.446553)
(0.553129 0.739425 -0.327551)
(0.686507 0.679175 -0.539446)
(0.428834 0.638537 -0.226964)
(0.220121 0.253284 -0.0650189)
(0.196954 0.278923 -0.0706283)
(0.196879 0.26641 -0.0671273)
(0.21423 0.312055 -0.0591059)
(0.222178 0.320909 -0.0476909)
(0.215298 0.268094 -0.0626403)
(0.230637 0.28358 -0.0614661)
(0.237737 0.239424 -0.0725657)
(0.247654 0.24705 -0.0694481)
(0.252816 0.295703 -0.0567559)
(0.249825 0.328347 -0.0447084)
(0.238341 0.333193 -0.0470259)
(0.26777 0.27784 -0.067106)
(0.246906 0.260997 -0.0701429)
(0.285656 0.295545 -0.0670826)
(0.281691 0.310543 -0.0619981)
(0.724735 0.909483 -0.437879)
(0.704694 0.876576 -0.434782)
(0.702093 0.905414 -0.440591)
(0.67236 0.875668 -0.437876)
(0.729595 0.9077 -0.441708)
(0.729921 0.922754 -0.436126)
(0.668239 0.922787 -0.457404)
(0.660335 0.896073 -0.44435)
(0.698933 0.904626 -0.443692)
(0.723329 0.925073 -0.445065)
(0.672746 0.9248 -0.454408)
(0.663135 0.919885 -0.455292)
(0.680199 0.916258 -0.423643)
(0.693244 0.911624 -0.423566)
(0.699307 0.917639 -0.416338)
(0.698592 0.915097 -0.445433)
(0.655513 0.890055 -0.423001)
(0.731055 0.991328 -0.468131)
(0.678338 0.90684 -0.421031)
(0.6293 0.892568 -0.439696)
(0.640132 0.901343 -0.474305)
(0.639782 0.916963 -0.481152)
(0.640036 0.910538 -0.464756)
(0.626491 0.889781 -0.497588)
(0.646731 0.922737 -0.467139)
(0.632716 0.877754 -0.472922)
(0.648277 0.893523 -0.466057)
(0.629343 0.895224 -0.497285)
(0.629912 0.905246 -0.482155)
(0.616874 0.884093 -0.499836)
(0.624087 0.88754 -0.496907)
(0.76173 0.7364 -0.488381)
(0.743267 0.703265 -0.516716)
(0.730524 0.735108 -0.455523)
(0.729562 0.727581 -0.459992)
(0.679908 0.746656 -0.36544)
(0.697353 0.735273 -0.403409)
(0.712594 0.687289 -0.510226)
(0.712493 0.681195 -0.514354)
(0.67957 0.74245 -0.388479)
(0.650628 0.725374 -0.405345)
(0.631962 0.706823 -0.388269)
(0.700316 0.681626 -0.519981)
(0.69216 0.654737 -0.538518)
(0.672411 0.689337 -0.477807)
(0.675969 0.689404 -0.486756)
(0.189616 0.460407 -0.20608)
(0.153489 0.405731 -0.18644)
(0.195835 0.466713 -0.156852)
(0.161059 0.422253 -0.149327)
(0.156404 0.381484 -0.132046)
(0.148668 0.354141 -0.13925)
(0.142927 0.361958 -0.164659)
(0.155374 0.36268 -0.129261)
(0.164457 0.382378 -0.125852)
(0.208789 0.464187 -0.125627)
(0.214915 0.49861 -0.143628)
(0.198492 0.488268 -0.209543)
(0.165756 0.416713 -0.182526)
(0.214931 0.480051 -0.137479)
(0.222523 0.503343 -0.142336)
(0.176484 0.406688 -0.140289)
(0.440022 0.695556 -0.297135)
(0.423499 0.63769 -0.276913)
(0.394544 0.694803 -0.221467)
(0.37116 0.628389 -0.174202)
(0.329598 0.60054 -0.155823)
(0.499572 0.689515 -0.368794)
(0.362292 0.606161 -0.16014)
(0.455894 0.633238 -0.266612)
(0.509715 0.689282 -0.368731)
(0.496351 0.71838 -0.395173)
(0.435373 0.625433 -0.21276)
(0.500897 0.71596 -0.373555)
(0.489862 0.763508 -0.415633)
(0.434983 0.735674 -0.328693)
(0.491123 0.624623 -0.136233)
(0.441602 0.612185 -0.101606)
(0.579446 0.668749 -0.221935)
(0.537231 0.649522 -0.208656)
(0.629899 0.713359 -0.2758)
(0.586636 0.693803 -0.261024)
(0.452295 0.608994 -0.145893)
(0.468631 0.598078 -0.116272)
(0.6425 0.722108 -0.32393)
(0.620885 0.721938 -0.299007)
(0.533043 0.666664 -0.160459)
(0.521331 0.657305 -0.149493)
(0.494903 0.632408 -0.196406)
(0.57744 0.708094 -0.220604)
(0.567323 0.678857 -0.237533)
(0.558164 0.683011 -0.238297)
(0.611681 0.716589 -0.267237)
(0.610037 0.718593 -0.281852)
(0.558257 0.67556 -0.197413)
(0.544605 0.675125 -0.131951)
(0.271187 0.418769 -0.266709)
(0.246627 0.414285 -0.246769)
(0.256022 0.395263 -0.246023)
(0.247066 0.406448 -0.239663)
(0.321965 0.524619 -0.317821)
(0.292447 0.480934 -0.270736)
(0.291226 0.46384 -0.299047)
(0.245844 0.415257 -0.239954)
(0.299488 0.491008 -0.273527)
(0.32612 0.557148 -0.325648)
(0.375947 0.589413 -0.381216)
(0.366724 0.569162 -0.365412)
(0.25256 0.392103 -0.232256)
(0.256398 0.371799 -0.233501)
(0.274566 0.459942 -0.256242)
(0.339849 0.553165 -0.34246)
(0.319632 0.484353 -0.321898)
(0.316253 0.474502 -0.32243)
(0.293254 0.448614 -0.286091)
(0.267332 0.402217 -0.247364)
(0.296135 0.485648 -0.287804)
(0.283156 0.431385 -0.271615)
(0.272581 0.420039 -0.258186)
(0.361009 0.542684 -0.105421)
(0.375165 0.575842 -0.143273)
(0.335398 0.563712 -0.165292)
(0.298315 0.543485 -0.142737)
(0.311397 0.560998 -0.152694)
(0.272206 0.526437 -0.109772)
(0.415583 0.582422 -0.186564)
(0.389522 0.550526 -0.141077)
(0.266089 0.476762 -0.0420833)
(0.283524 0.51549 -0.0912009)
(0.301584 0.518043 -0.0903435)
(0.269079 0.490637 -0.0751371)
(0.37683 0.549786 -0.121386)
(0.277473 0.493747 -0.0626307)
(0.304396 0.518641 -0.0998332)
(0.266232 0.479352 -0.0628506)
(0.253376 0.461656 -0.0400647)
(0.281802 0.487858 -0.0642122)
(0.292622 0.49767 -0.070727)
(0.258663 0.474141 -0.0423122)
(0.568475 0.864217 -0.39097)
(0.540015 0.833905 -0.395595)
(0.559051 0.855876 -0.391613)
(0.551111 0.855651 -0.403651)
(0.475423 0.752491 -0.29536)
(0.514403 0.807171 -0.325379)
(0.541335 0.827225 -0.39412)
(0.513234 0.794713 -0.360289)
(0.562172 0.862696 -0.401477)
(0.566765 0.870591 -0.422406)
(0.433721 0.691501 -0.262855)
(0.489278 0.745504 -0.308011)
(0.545639 0.795495 -0.350163)
(0.481855 0.739519 -0.279029)
(0.459721 0.710871 -0.108043)
(0.451762 0.737599 -0.129072)
(0.447665 0.698078 -0.102925)
(0.43081 0.656951 -0.0995293)
(0.523038 0.791029 -0.165395)
(0.549531 0.810698 -0.194525)
(0.550029 0.777224 -0.17757)
(0.530648 0.753403 -0.148395)
(0.55959 0.763254 -0.171742)
(0.52224 0.705935 -0.177085)
(0.538427 0.860034 -0.197771)
(0.589454 0.872449 -0.244956)
(0.518005 0.739373 -0.13686)
(0.453144 0.708929 -0.124214)
(0.47838 0.73582 -0.14382)
(0.527118 0.725064 -0.150936)
(0.501225 0.734926 -0.156233)
(0.562126 0.818349 -0.209681)
(0.552417 0.784834 -0.220049)
(0.54218 0.818911 -0.219492)
(0.541231 0.853583 -0.226464)
(0.492124 0.796229 -0.192561)
(0.561361 0.817202 -0.223015)
(0.497639 0.706153 -0.181035)
(0.504298 0.713356 -0.177312)
(0.418254 0.644554 -0.128264)
(0.399025 0.588017 -0.117979)
(0.500096 0.681985 -0.159997)
(0.525823 0.723638 -0.170366)
(0.488127 0.649645 -0.154769)
(0.331241 0.517679 -0.0700842)
(0.336046 0.550487 -0.0780116)
(0.449984 0.606774 -0.129401)
(0.422856 0.569639 -0.11407)
(0.436134 0.615755 -0.11316)
(0.404169 0.558711 -0.088155)
(0.464079 0.591856 -0.127543)
(0.365338 0.55674 -0.0790177)
(0.356871 0.545183 -0.0754522)
(0.348283 0.548511 -0.0799453)
(0.35747 0.565354 -0.0535593)
(0.484708 0.646818 -0.368978)
(0.498097 0.667183 -0.388236)
(0.494611 0.676349 -0.393959)
(0.499041 0.669142 -0.391962)
(0.589355 0.729647 -0.53475)
(0.573465 0.738144 -0.51071)
(0.515211 0.674353 -0.415702)
(0.568023 0.704813 -0.488343)
(0.57733 0.754236 -0.532838)
(0.590918 0.744356 -0.547741)
(0.575468 0.677721 -0.495782)
(0.558799 0.733115 -0.501437)
(0.59948 0.683608 -0.53252)
(0.607107 0.698138 -0.56007)
(0.588397 0.951483 -0.272761)
(0.601416 0.977199 -0.333083)
(0.632674 1.01252 -0.400262)
(0.607289 0.996738 -0.418119)
(0.61378 0.98197 -0.304117)
(0.604045 0.954732 -0.31879)
(0.589964 0.955975 -0.314067)
(0.611401 0.996505 -0.398512)
(0.595687 0.988978 -0.400406)
(0.606218 0.99133 -0.388476)
(0.660543 0.758951 -0.315346)
(0.650577 0.736908 -0.300638)
(0.603518 0.707721 -0.26253)
(0.716491 0.778721 -0.343419)
(0.660394 0.782804 -0.270402)
(0.561328 0.702118 -0.217235)
(0.685958 0.78259 -0.288422)
(0.681902 0.767308 -0.324708)
(0.613422 0.705475 -0.285795)
(0.647835 0.753178 -0.302177)
(0.721035 0.772049 -0.374969)
(0.737557 0.761643 -0.424003)
(0.731993 0.782924 -0.386521)
(0.709354 0.781232 -0.351037)
(0.706254 0.74001 -0.410993)
(0.577179 0.683198 -0.262249)
(0.60079 0.704747 -0.265463)
(0.667924 0.731444 -0.398599)
(0.63133 0.718411 -0.347929)
(0.65853 0.738988 -0.326181)
(0.185677 0.267453 -0.10666)
(0.194026 0.274216 -0.100097)
(0.17295 0.243852 -0.0989696)
(0.159677 0.229076 -0.095918)
(0.160031 0.192879 -0.0805365)
(0.154156 0.170639 -0.0764957)
(0.212191 0.285881 -0.0877447)
(0.217437 0.273702 -0.0889826)
(0.165927 0.209202 -0.0888903)
(0.16845 0.182784 -0.0762702)
(0.157801 0.170692 -0.0739372)
(0.231179 0.252396 -0.090289)
(0.202725 0.209984 -0.0764128)
(0.211931 0.226632 -0.081292)
(0.247494 0.26353 -0.0905936)
(0.217103 0.223216 -0.0782686)
(0.232268 0.26653 -0.0881048)
(0.205374 0.205145 -0.0763721)
(0.176312 0.178312 -0.0745758)
(0.726639 0.79256 -0.427039)
(0.675926 0.718427 -0.411633)
(0.638914 0.769886 -0.362669)
(0.653288 0.788524 -0.359795)
(0.661895 0.721 -0.416696)
(0.710258 0.769659 -0.433024)
(0.702674 0.762583 -0.437022)
(0.747306 0.819181 -0.462168)
(0.686044 0.728942 -0.40218)
(0.720962 0.775299 -0.416987)
(0.716016 0.776139 -0.423717)
(0.693613 0.778611 -0.421005)
(0.701644 0.771727 -0.439459)
(0.65945 0.773504 -0.339872)
(0.675031 0.800256 -0.36985)
(0.742869 0.822046 -0.404092)
(0.720728 0.786629 -0.42294)
(0.703875 0.764215 -0.428182)
(0.747486 0.826898 -0.410495)
(0.740287 0.827191 -0.402618)
(0.580715 0.784231 -0.251766)
(0.64369 0.816819 -0.304796)
(0.712878 0.852389 -0.369398)
(0.710977 0.862904 -0.363045)
(0.695749 0.85687 -0.33819)
(0.628214 0.822907 -0.302352)
(0.700424 0.832134 -0.353996)
(0.680104 0.820436 -0.338979)
(0.637113 0.819507 -0.299244)
(0.606275 0.741633 -0.301791)
(0.565594 0.716379 -0.249448)
(0.448702 0.668126 -0.174966)
(0.456241 0.656743 -0.175313)
(0.610729 0.763564 -0.284767)
(0.534744 0.687308 -0.205482)
(0.428456 0.635596 -0.138532)
(0.548782 0.744426 -0.23799)
(0.614004 0.74867 -0.268831)
(0.45746 0.646798 -0.173038)
(0.421859 0.612923 -0.134314)
(0.546253 0.733511 -0.225684)
(0.224132 0.348571 -0.198737)
(0.289717 0.46948 -0.27702)
(0.265125 0.44516 -0.238027)
(0.255096 0.394005 -0.238671)
(0.237466 0.379319 -0.216138)
(0.219201 0.334535 -0.188238)
(0.25857 0.415136 -0.238665)
(0.241199 0.393445 -0.220813)
(0.236481 0.369064 -0.200567)
(0.7454 0.821511 -0.427686)
(0.755378 0.858321 -0.425528)
(0.721282 0.800343 -0.398169)
(0.705658 0.787222 -0.402235)
(0.758787 0.819129 -0.445319)
(0.753294 0.861975 -0.398839)
(0.745493 0.853348 -0.39879)
(0.738545 0.841611 -0.407214)
(0.748695 0.8704 -0.383882)
(0.715066 0.761295 -0.40981)
(0.654268 0.701657 -0.3594)
(0.740359 0.834244 -0.40429)
(0.750025 0.847578 -0.406644)
(0.7274 0.791612 -0.417885)
(0.677027 0.726763 -0.379446)
(0.73442 0.852484 -0.385768)
(0.68731 0.747776 -0.376858)
(0.723766 0.801918 -0.389736)
(0.724233 0.828946 -0.400085)
(0.701425 0.782342 -0.384241)
(0.65242 0.684847 -0.416511)
(0.66001 0.694848 -0.439637)
(0.634754 0.65372 -0.399256)
(0.703852 0.747319 -0.408925)
(0.637089 0.674908 -0.376534)
(0.676992 0.697134 -0.442468)
(0.734414 0.774004 -0.436712)
(0.691994 0.702148 -0.435384)
(0.695976 0.729899 -0.420067)
(0.680152 0.702224 -0.432682)
(0.667383 0.684827 -0.40766)
(0.406323 0.670284 -0.24203)
(0.421446 0.679163 -0.26562)
(0.425865 0.676584 -0.26849)
(0.428202 0.685247 -0.264292)
(0.500534 0.719642 -0.365394)
(0.447202 0.705515 -0.391572)
(0.511598 0.716206 -0.460715)
(0.466031 0.704956 -0.365758)
(0.493078 0.716117 -0.415916)
(0.490768 0.724693 -0.357599)
(0.530484 0.696436 -0.46863)
(0.517427 0.704878 -0.467998)
(0.52988 0.704035 -0.456628)
(0.533585 0.740296 -0.411035)
(0.753786 0.807835 -0.418081)
(0.70979 0.760068 -0.401545)
(0.775767 0.87814 -0.425114)
(0.765193 0.833825 -0.433283)
(0.786765 0.868602 -0.443518)
(0.756053 0.81213 -0.423905)
(0.723572 0.758851 -0.405726)
(0.78008 0.844953 -0.435224)
(0.784017 0.820696 -0.45144)
(0.787154 0.819207 -0.443374)
(0.607004 0.703048 -0.502705)
(0.60848 0.691227 -0.490771)
(0.60602 0.697222 -0.515464)
(0.58551 0.645289 -0.495066)
(0.581936 0.724566 -0.512725)
(0.561251 0.679873 -0.490671)
(0.58552 0.649417 -0.502868)
(0.576631 0.648104 -0.494737)
(0.582817 0.631682 -0.487135)
(0.555725 0.59987 -0.469454)
(0.597602 0.733018 -0.510872)
(0.601738 0.739134 -0.51789)
(0.576978 0.711199 -0.501352)
(0.609115 0.722644 -0.494317)
(0.614884 0.707027 -0.494783)
(0.573177 0.653471 -0.490828)
(0.583073 0.648043 -0.484652)
(0.599693 0.742616 -0.521848)
(0.681658 0.916115 -0.41865)
(0.658209 0.881386 -0.433366)
(0.635495 0.82965 -0.408488)
(0.679082 0.904996 -0.408492)
(0.685518 0.890167 -0.409488)
(0.665477 0.903893 -0.415721)
(0.67169 0.896972 -0.434901)
(0.665204 0.883558 -0.431766)
(0.661934 0.863647 -0.422027)
(0.678266 0.87418 -0.39555)
(0.694374 0.868072 -0.411539)
(0.711146 0.884709 -0.417647)
(0.660106 0.897719 -0.411114)
(0.673868 0.875131 -0.423172)
(0.672185 0.893876 -0.430788)
(0.659619 0.855081 -0.411456)
(0.670506 0.876264 -0.393707)
(0.701741 0.873081 -0.412888)
(0.661316 0.833212 -0.398302)
(0.701486 0.883574 -0.421141)
(0.593944 0.79256 -0.561345)
(0.588117 0.762534 -0.596803)
(0.57141 0.762482 -0.595421)
(0.584567 0.781027 -0.55616)
(0.570488 0.804399 -0.517589)
(0.59009 0.797847 -0.583145)
(0.57948 0.790101 -0.583956)
(0.586308 0.764291 -0.579657)
(0.578197 0.768238 -0.599428)
(0.572308 0.735745 -0.597519)
(0.60011 0.815479 -0.587612)
(0.597647 0.754698 -0.607622)
(0.579889 0.812884 -0.588314)
(0.570563 0.787943 -0.589727)
(0.576106 0.738604 -0.601786)
(0.545542 0.723295 -0.578391)
(0.568413 0.371346 -0.291253)
(0.529177 0.338384 -0.270744)
(0.585055 0.420047 -0.253079)
(0.595588 0.441822 -0.286246)
(0.530063 0.348204 -0.224291)
(0.4888 0.321118 -0.201581)
(0.523423 0.33142 -0.259589)
(0.463726 0.294156 -0.220748)
(0.549698 0.362914 -0.259671)
(0.552208 0.401631 -0.215474)
(0.479366 0.3267 -0.177804)
(0.438823 0.282187 -0.201726)
(0.506686 0.349473 -0.200273)
(0.451824 0.299437 -0.183737)
(0.150383 0.307732 -0.170913)
(0.133635 0.24736 -0.134594)
(0.191744 0.412846 -0.170354)
(0.19192 0.424418 -0.193729)
(0.148959 0.293422 -0.157119)
(0.148868 0.293448 -0.143493)
(0.167952 0.344752 -0.13443)
(0.174609 0.349439 -0.130509)
(0.168945 0.343674 -0.14036)
(0.136998 0.242174 -0.112869)
(0.127893 0.230141 -0.114809)
(0.16437 0.317457 -0.115725)
(0.132785 0.253554 -0.119623)
(0.140878 0.262368 -0.11457)
(0.23202 0.474552 -0.250683)
(0.210619 0.425102 -0.208064)
(0.204669 0.398528 -0.24453)
(0.180149 0.384717 -0.233244)
(0.23529 0.493285 -0.268062)
(0.205707 0.396558 -0.249605)
(0.221834 0.451597 -0.271384)
(0.177072 0.356157 -0.214591)
(0.183002 0.343194 -0.209913)
(0.182124 0.341545 -0.202916)
(0.179327 0.362955 -0.20203)
(0.212352 0.416322 -0.287764)
(0.230813 0.451814 -0.297918)
(0.212637 0.417543 -0.285184)
(0.1895 0.348108 -0.240565)
(0.179772 0.308717 -0.204344)
(0.262893 0.523865 -0.136537)
(0.339616 0.614441 -0.221458)
(0.313148 0.621099 -0.244711)
(0.318786 0.576583 -0.172793)
(0.339665 0.620922 -0.24215)
(0.304666 0.598126 -0.309411)
(0.269101 0.543732 -0.258367)
(0.281419 0.553523 -0.193566)
(0.310642 0.610656 -0.275063)
(0.292116 0.582507 -0.285634)
(0.308694 0.605395 -0.316133)
(0.230363 0.484354 -0.168789)
(0.717003 0.83285 -0.408564)
(0.712558 0.842508 -0.409703)
(0.686662 0.848138 -0.343144)
(0.73102 0.868519 -0.384306)
(0.760971 0.894549 -0.421891)
(0.755107 0.872498 -0.41765)
(0.688765 0.865941 -0.376134)
(0.705355 0.874249 -0.394905)
(0.713723 0.858966 -0.40834)
(0.691503 0.855294 -0.359002)
(0.755806 0.885428 -0.418863)
(0.677661 0.862997 -0.378066)
(0.670233 0.875167 -0.354284)
(0.696219 0.868802 -0.376682)
(0.523699 0.776457 -0.419601)
(0.504715 0.76328 -0.399215)
(0.51862 0.771871 -0.415706)
(0.469303 0.708105 -0.336574)
(0.398546 0.630814 -0.273829)
(0.398217 0.650116 -0.30626)
(0.377647 0.61197 -0.253739)
(0.417934 0.644149 -0.26758)
(0.47375 0.718428 -0.324619)
(0.369453 0.609643 -0.238077)
(0.426426 0.644808 -0.328039)
(0.395748 0.617766 -0.27029)
(0.397883 0.618737 -0.265768)
(0.51743 0.772744 -0.424742)
(0.46934 0.723592 -0.33899)
(0.403213 0.635492 -0.276964)
(0.353539 0.574326 -0.208933)
(0.522135 0.776065 -0.434367)
(0.420315 0.640748 -0.331711)
(0.391786 0.617751 -0.272432)
(0.534306 0.767474 -0.455704)
(0.468984 0.69198 -0.394665)
(0.51692 0.759512 -0.429403)
(0.672585 0.904276 -0.388728)
(0.676677 0.901931 -0.369859)
(0.68558 0.901976 -0.380701)
(0.687132 0.905536 -0.375444)
(0.68335 0.888891 -0.383829)
(0.683493 0.883722 -0.378359)
(0.688259 0.906759 -0.373665)
(0.700349 0.880201 -0.35702)
(0.696044 0.882522 -0.361793)
(0.672665 0.844354 -0.316438)
(0.664412 0.847678 -0.318089)
(0.700383 0.872393 -0.350935)
(0.700352 0.867731 -0.360658)
(0.438093 0.686073 -0.371249)
(0.381469 0.638717 -0.401334)
(0.398295 0.626313 -0.450133)
(0.455783 0.681041 -0.363898)
(0.453174 0.672434 -0.449329)
(0.465051 0.675385 -0.454902)
(0.445133 0.657608 -0.465222)
(0.396972 0.626311 -0.43271)
(0.420958 0.623586 -0.477817)
(0.514089 0.679865 -0.482102)
(0.475378 0.640828 -0.488565)
(0.497614 0.695462 -0.459189)
(0.487396 0.675247 -0.47968)
(0.449304 0.678832 -0.416469)
(0.455167 0.697985 -0.237807)
(0.421787 0.702023 -0.26682)
(0.447029 0.711639 -0.292361)
(0.483797 0.725316 -0.275315)
(0.438442 0.723121 -0.274548)
(0.494011 0.72131 -0.397534)
(0.525766 0.737498 -0.405712)
(0.519985 0.734481 -0.403487)
(0.511067 0.736961 -0.397343)
(0.588569 0.752341 -0.369604)
(0.579071 0.74346 -0.366509)
(0.560904 0.753432 -0.334856)
(0.568509 0.751106 -0.434233)
(0.573721 0.753125 -0.316816)
(0.590426 0.757522 -0.384976)
(0.600233 0.744178 -0.437988)
(0.5632 0.72847 -0.458717)
(0.597815 0.754487 -0.339213)
(0.629114 0.76632 -0.425887)
(0.608326 0.750307 -0.452259)
(0.478441 0.639191 -0.243684)
(0.453296 0.625131 -0.216194)
(0.452596 0.669475 -0.304427)
(0.469677 0.666454 -0.284088)
(0.629163 0.751821 -0.408989)
(0.573162 0.731235 -0.385959)
(0.536035 0.701419 -0.370527)
(0.579168 0.721306 -0.408858)
(0.481701 0.621371 -0.210827)
(0.629042 0.730338 -0.366955)
(0.594864 0.682469 -0.290846)
(0.582033 0.723808 -0.322678)
(0.448539 0.662957 -0.283643)
(0.441219 0.68417 -0.347124)
(0.563235 0.708487 -0.383817)
(0.510273 0.656981 -0.262148)
(0.557061 0.672535 -0.272537)
(0.66711 0.760003 -0.405542)
(0.609699 0.710829 -0.332868)
(0.628684 0.721827 -0.346373)
(0.613069 0.743082 -0.433221)
(0.445296 0.610326 -0.167201)
(0.46419 0.657199 -0.241627)
(0.319989 0.516157 -0.0674)
(0.312172 0.495407 -0.0735093)
(0.30298 0.497435 -0.0624652)
(0.27262 0.484744 -0.0475126)
(0.289857 0.49431 -0.070701)
(0.270681 0.480592 -0.0524705)
(0.329046 0.516309 -0.0694432)
(0.257374 0.473525 -0.0522174)
(0.238636 0.448984 -0.0442291)
(0.244446 0.454162 -0.0464561)
(0.312284 0.511136 -0.0652127)
(0.315728 0.51459 -0.0664681)
(0.351546 0.540863 -0.0781623)
(0.264131 0.472538 -0.0416119)
(0.267034 0.494139 -0.0682777)
(0.241479 0.459491 -0.0499151)
(0.270693 0.486834 -0.0811811)
(0.342882 0.552476 -0.0634467)
(0.320262 0.545458 -0.0794917)
(0.314591 0.530225 -0.105524)
(0.363107 0.578432 -0.108445)
(0.372659 0.572925 -0.117201)
(0.265638 0.478223 -0.0577867)
(0.319816 0.53342 -0.104517)
(0.302034 0.541056 -0.121654)
(0.273177 0.502913 -0.0647681)
(0.260297 0.44978 -0.051249)
(0.253396 0.470043 -0.0406169)
(0.325582 0.541946 -0.126191)
(0.287062 0.535385 -0.126573)
(0.331905 0.545569 -0.133053)
(0.312099 0.55565 -0.139874)
(0.247679 0.428572 -0.0358011)
(0.234135 0.398322 -0.0405895)
(0.273759 0.486023 -0.0620232)
(0.27286 0.479165 -0.0479601)
(0.240845 0.429638 -0.0350237)
(0.227715 0.441397 -0.0469956)
(0.269121 0.461106 -0.0473439)
(0.259645 0.503442 -0.0885487)
(0.274757 0.514891 -0.101831)
(0.22372 0.412376 -0.0337082)
(0.216718 0.418114 -0.0531667)
(0.237475 0.463968 -0.0758112)
(0.55016 0.784102 -0.472888)
(0.575044 0.812195 -0.53046)
(0.580188 0.829519 -0.511562)
(0.553831 0.77852 -0.485861)
(0.566495 0.812241 -0.46578)
(0.545612 0.778393 -0.476172)
(0.588691 0.843393 -0.554596)
(0.588061 0.809658 -0.567331)
(0.59083 0.845508 -0.513951)
(0.600886 0.859827 -0.555987)
(0.598929 0.881227 -0.550469)
(0.561602 0.716192 -0.292157)
(0.588826 0.727767 -0.337244)
(0.713325 0.77202 -0.462243)
(0.696844 0.768952 -0.446658)
(0.730601 0.782956 -0.454195)
(0.726105 0.785413 -0.448663)
(0.728654 0.789774 -0.429806)
(0.615043 0.737447 -0.338773)
(0.59267 0.73027 -0.312536)
(0.612763 0.736218 -0.3257)
(0.613293 0.731392 -0.324564)
(0.698901 0.770792 -0.440672)
(0.728618 0.809798 -0.40123)
(0.69136 0.773231 -0.366682)
(0.614331 0.719421 -0.328132)
(0.668044 0.810953 -0.27126)
(0.695589 0.865484 -0.298462)
(0.718564 0.849174 -0.317933)
(0.692695 0.813989 -0.31725)
(0.705394 0.861042 -0.318065)
(0.680434 0.819178 -0.280433)
(0.680152 0.862794 -0.28645)
(0.541408 0.720055 -0.188725)
(0.535187 0.693704 -0.175469)
(0.652903 0.801733 -0.278359)
(0.56158 0.723511 -0.223223)
(0.519008 0.700636 -0.186055)
(0.530968 0.738832 -0.166954)
(0.546847 0.743604 -0.191331)
(0.523243 0.70145 -0.182652)
(0.541407 0.743891 -0.19657)
(0.540119 0.736806 -0.183978)
(0.633378 0.801035 -0.262631)
(0.535319 0.722446 -0.181764)
(0.666213 0.852114 -0.273106)
(0.596883 0.793196 -0.229946)
(0.525045 0.733158 -0.190413)
(0.559811 0.834861 -0.243063)
(0.56842 0.82413 -0.254351)
(0.477219 0.717086 -0.169208)
(0.549598 0.781337 -0.242619)
(0.377146 0.624468 -0.225853)
(0.383336 0.62097 -0.23018)
(0.483267 0.749075 -0.345939)
(0.415848 0.693045 -0.313937)
(0.407092 0.66293 -0.251879)
(0.412132 0.674911 -0.2685)
(0.422785 0.665479 -0.294956)
(0.439687 0.684915 -0.317833)
(0.493062 0.74975 -0.401051)
(0.518565 0.806398 -0.42282)
(0.446002 0.701642 -0.335231)
(0.469525 0.721874 -0.354304)
(0.504159 0.779562 -0.418242)
(0.538257 0.830636 -0.440046)
(0.256657 0.367542 -0.0442727)
(0.290717 0.362794 -0.0469872)
(0.241785 0.317871 -0.0573705)
(0.221896 0.31696 -0.0519917)
(0.215583 0.355449 -0.0423551)
(0.275675 0.364281 -0.0371691)
(0.303973 0.352109 -0.049155)
(0.290453 0.31268 -0.0597127)
(0.2361 0.270557 -0.0677594)
(0.216874 0.29027 -0.0615406)
(0.228534 0.286522 -0.0643209)
(0.195901 0.272614 -0.0647162)
(0.203094 0.255554 -0.0665323)
(0.256626 0.280662 -0.0667523)
(0.221606 0.254676 -0.0666366)
(0.191708 0.28594 -0.0634545)
(0.198363 0.268869 -0.0643954)
(0.2282 0.330984 -0.0435955)
(0.226104 0.285241 -0.063031)
(0.609392 0.868568 -0.424576)
(0.607759 0.880186 -0.394834)
(0.611461 0.887784 -0.405049)
(0.641806 0.892144 -0.410981)
(0.636909 0.888817 -0.406618)
(0.600896 0.831131 -0.395994)
(0.622547 0.856141 -0.398325)
(0.629935 0.896646 -0.418115)
(0.614407 0.855458 -0.400935)
(0.579693 0.813306 -0.408867)
(0.576955 0.821628 -0.412356)
(0.601168 0.838046 -0.403833)
(0.569145 0.796639 -0.386584)
(0.572133 0.801713 -0.424834)
(0.551183 0.783282 -0.399029)
(0.609366 0.870437 -0.417805)
(0.581384 0.819047 -0.429077)
(0.582831 0.826489 -0.418395)
(0.232811 0.266319 -0.0944247)
(0.226615 0.301704 -0.113293)
(0.224096 0.320737 -0.112907)
(0.170444 0.208733 -0.0912114)
(0.195382 0.227232 -0.0891213)
(0.172583 0.246466 -0.116986)
(0.186813 0.276471 -0.127516)
(0.218191 0.326661 -0.133416)
(0.225386 0.337975 -0.13814)
(0.22072 0.314118 -0.130948)
(0.185913 0.210387 -0.0830812)
(0.16128 0.193566 -0.0846916)
(0.177161 0.240148 -0.0999385)
(0.165284 0.230862 -0.0998973)
(0.155937 0.199291 -0.0854671)
(0.189814 0.260083 -0.116375)
(0.218421 0.29623 -0.111718)
(0.191477 0.235728 -0.0935289)
(0.476991 0.4471 -0.146008)
(0.545338 0.480934 -0.223238)
(0.46267 0.412721 -0.158144)
(0.406665 0.499307 -0.114372)
(0.394147 0.51191 -0.123275)
(0.48248 0.545414 -0.195056)
(0.541988 0.509765 -0.213359)
(0.540181 0.514839 -0.232859)
(0.305777 0.420677 -0.0514396)
(0.328509 0.423489 -0.077609)
(0.340378 0.482172 -0.105758)
(0.321217 0.518403 -0.115916)
(0.314706 0.496914 -0.0952682)
(0.486504 0.5768 -0.254187)
(0.514803 0.569956 -0.262175)
(0.419091 0.542961 -0.169184)
(0.400708 0.568399 -0.172146)
(0.469585 0.534384 -0.200544)
(0.38343 0.558298 -0.170891)
(0.35924 0.577614 -0.163197)
(0.575118 0.743637 -0.385056)
(0.56334 0.744198 -0.369631)
(0.637715 0.752808 -0.468403)
(0.617835 0.745327 -0.500684)
(0.528937 0.688399 -0.470385)
(0.562792 0.682688 -0.48623)
(0.503269 0.693061 -0.467725)
(0.516281 0.693429 -0.460185)
(0.570739 0.729579 -0.445558)
(0.611673 0.738438 -0.500004)
(0.503143 0.728514 -0.399992)
(0.501413 0.71222 -0.440849)
(0.57781 0.708193 -0.48255)
(0.629164 0.931973 -0.35959)
(0.672883 0.957768 -0.391853)
(0.68365 0.955665 -0.382121)
(0.628573 0.913968 -0.347085)
(0.672042 0.93479 -0.365104)
(0.682228 0.934983 -0.368869)
(0.668429 0.909257 -0.354831)
(0.627032 0.927271 -0.357478)
(0.668888 0.960876 -0.378349)
(0.666378 0.921229 -0.341689)
(0.678317 0.960583 -0.360549)
(0.642449 0.872429 -0.299585)
(0.626655 0.847902 -0.293842)
(0.607486 0.920818 -0.338148)
(0.619335 0.930893 -0.338442)
(0.555842 0.787335 -0.260954)
(0.562286 0.832703 -0.264275)
(0.571882 0.846522 -0.287013)
(0.574824 0.833549 -0.278667)
(0.598362 0.874576 -0.486488)
(0.556049 0.840296 -0.428903)
(0.474076 0.718573 -0.368573)
(0.554834 0.821471 -0.425504)
(0.591135 0.864515 -0.494098)
(0.487493 0.731067 -0.373489)
(0.556682 0.802711 -0.464636)
(0.607782 0.875022 -0.50844)
(0.600301 0.845883 -0.531973)
(0.563293 0.813992 -0.497676)
(0.696404 0.828142 -0.375084)
(0.664492 0.798844 -0.362524)
(0.682327 0.898626 -0.388035)
(0.69736 0.905291 -0.387832)
(0.708368 0.835267 -0.37523)
(0.683973 0.811947 -0.369358)
(0.674338 0.821874 -0.371627)
(0.710307 0.840061 -0.380336)
(0.690195 0.827487 -0.38094)
(0.683639 0.889826 -0.359569)
(0.702807 0.897679 -0.372683)
(0.716188 0.846923 -0.378147)
(0.731231 0.86887 -0.38091)
(0.736044 0.898217 -0.388876)
(0.499058 0.595308 -0.446421)
(0.516903 0.587192 -0.438437)
(0.494022 0.566689 -0.426666)
(0.553542 0.687888 -0.473921)
(0.528543 0.679477 -0.474347)
(0.534576 0.602299 -0.455231)
(0.535191 0.605878 -0.438407)
(0.51783 0.617084 -0.466051)
(0.658771 0.734465 -0.493716)
(0.665054 0.755552 -0.496039)
(0.578923 0.662414 -0.462325)
(0.525004 0.692043 -0.477465)
(0.53572 0.671032 -0.4823)
(0.51976 0.616179 -0.468351)
(0.628788 0.706466 -0.481614)
(0.569448 0.63779 -0.459044)
(0.522364 0.47925 -0.333307)
(0.553574 0.51564 -0.354404)
(0.503822 0.448781 -0.307015)
(0.500695 0.441895 -0.298713)
(0.580918 0.520754 -0.322297)
(0.608719 0.550328 -0.321941)
(0.610657 0.571439 -0.353627)
(0.540294 0.486095 -0.280819)
(0.576136 0.518009 -0.302136)
(0.473915 0.421963 -0.268166)
(0.445549 0.405456 -0.266152)
(0.54157 0.473024 -0.293822)
(0.501629 0.440833 -0.284388)
(0.515498 0.446001 -0.272081)
(0.682698 0.686948 -0.482059)
(0.676237 0.682561 -0.481636)
(0.673422 0.68834 -0.479901)
(0.645661 0.652015 -0.445323)
(0.701616 0.751231 -0.48306)
(0.695743 0.756896 -0.489647)
(0.725328 0.74036 -0.461928)
(0.729903 0.745238 -0.459986)
(0.717151 0.77931 -0.438052)
(0.694322 0.699342 -0.45482)
(0.675328 0.677976 -0.441747)
(0.655218 0.663601 -0.434898)
(0.703854 0.716152 -0.483347)
(0.672572 0.684497 -0.467792)
(0.692224 0.742251 -0.484356)
(0.697324 0.705293 -0.456902)
(0.728842 0.775759 -0.443946)
(0.724397 0.740736 -0.467188)
(0.490506 0.426436 -0.160582)
(0.527714 0.420186 -0.190132)
(0.571849 0.445715 -0.258298)
(0.561687 0.434474 -0.241387)
(0.493082 0.365514 -0.170297)
(0.460433 0.388875 -0.152318)
(0.51386 0.419631 -0.181029)
(0.562091 0.367472 -0.2467)
(0.55066 0.336301 -0.251105)
(0.424312 0.347237 -0.131222)
(0.469936 0.372645 -0.151799)
(0.53635 0.329087 -0.192577)
(0.426003 0.267857 -0.158385)
(0.421554 0.277561 -0.149036)
(0.483319 0.31001 -0.201979)
(0.429069 0.269375 -0.172172)
(0.41323 0.269101 -0.14971)
(0.396753 0.248882 -0.157651)
(0.447714 0.297947 -0.166328)
(0.584246 0.629067 -0.421475)
(0.702165 0.774511 -0.432254)
(0.65997 0.7297 -0.448634)
(0.601951 0.639193 -0.425451)
(0.603774 0.659077 -0.438992)
(0.626352 0.724217 -0.470047)
(0.637415 0.749589 -0.478428)
(0.604093 0.652106 -0.434784)
(0.672543 0.780368 -0.46932)
(0.646589 0.751863 -0.481869)
(0.663643 0.735045 -0.477983)
(0.689614 0.760632 -0.467487)
(0.684482 0.782372 -0.462038)
(0.617498 0.719142 -0.398541)
(0.605496 0.729697 -0.404003)
(0.707597 0.723563 -0.498732)
(0.704416 0.705257 -0.515826)
(0.557061 0.684372 -0.344746)
(0.57343 0.687169 -0.347121)
(0.596941 0.694895 -0.447306)
(0.56886 0.681978 -0.415884)
(0.629427 0.70048 -0.465923)
(0.665002 0.741813 -0.423798)
(0.684307 0.751437 -0.449423)
(0.617432 0.657079 -0.516189)
(0.600686 0.694503 -0.471198)
(0.603895 0.700894 -0.485925)
(0.595282 0.697047 -0.440707)
(0.613184 0.70198 -0.397343)
(0.631323 0.707011 -0.423178)
(0.181165 0.381876 -0.229201)
(0.159081 0.336507 -0.207279)
(0.185474 0.37911 -0.236629)
(0.155079 0.319041 -0.2065)
(0.251016 0.4945 -0.355971)
(0.215067 0.41403 -0.307623)
(0.171904 0.38223 -0.23305)
(0.195331 0.438184 -0.250146)
(0.170937 0.357494 -0.240564)
(0.235158 0.480172 -0.312824)
(0.247151 0.536551 -0.32177)
(0.209273 0.422015 -0.307461)
(0.175036 0.367017 -0.255649)
(0.187879 0.400318 -0.261809)
(0.212649 0.468163 -0.295178)
(0.233555 0.499822 -0.298404)
(0.338028 0.496625 -0.373336)
(0.342971 0.508252 -0.380638)
(0.303775 0.458846 -0.331075)
(0.295845 0.466979 -0.339165)
(0.285984 0.423659 -0.317556)
(0.343104 0.533758 -0.398175)
(0.287888 0.449502 -0.324446)
(0.282617 0.465097 -0.32814)
(0.365327 0.58209 -0.408996)
(0.367269 0.606165 -0.4192)
(0.378178 0.638831 -0.405236)
(0.37601 0.621601 -0.40058)
(0.329636 0.504514 -0.370326)
(0.327506 0.483019 -0.360141)
(0.413839 0.629508 -0.440509)
(0.393511 0.594106 -0.419533)
(0.340185 0.568226 -0.395246)
(0.330375 0.582468 -0.359097)
(0.325619 0.57391 -0.362983)
(0.29419 0.46707 -0.328191)
(0.239723 0.37641 -0.0520164)
(0.204992 0.341821 -0.0530525)
(0.330547 0.354195 -0.070198)
(0.21902 0.327626 -0.0470988)
(0.219741 0.297555 -0.052605)