/*--------------------------------*- C++ -*----------------------------------*\
| =========                 |                                                 |
| \\      /  F ield         | OpenFOAM: The Open Source CFD Toolbox           |
|  \\    /   O peration     | Version:  v1612+                                |
|   \\  /    A nd           | Web:      www.OpenFOAM.com                      |
|    \\/     M anipulation  |                                                 |
\*---------------------------------------------------------------------------*/
FoamFile
{
    version     2.0;
    format      ascii;
    class       volVectorField;
    location    "100";
    object      wallShearStress;
}
// * * * * * * * * * * * * * * * * * * * * * * * * * * * * * * * * * * * * * //

dimensions      [0 2 -2 0 0 0 0];

internalField   uniform (0 0 0);

boundaryField
{
    WALL
    {
        type            calculated;
        value           nonuniform List<vector> 
1690
(
(-0.0146916 -0.00984301 0.0145183)
(-0.0142656 -0.00858379 0.0122735)
(-0.0143455 -0.0191754 0.00804852)
(-0.0135477 -0.0184879 0.00808029)
(-0.0141375 -0.0185572 0.007925)
(-0.0167875 -0.0149382 0.0140887)
(-0.015196 -0.0137974 0.0140336)
(-0.0117354 -0.0111623 0.00879418)
(-0.0128375 -0.0130531 0.0101424)
(-0.00356339 -0.00463003 0.00239289)
(-0.00453907 -0.00551993 0.00278504)
(-0.0036197 -0.00460188 0.00250708)
(-0.00355947 -0.00418524 0.00197238)
(-0.0159015 -0.01474 0.0112144)
(-0.0156151 -0.0156309 0.0113862)
(-0.00397395 -0.00433458 0.00186688)
(-0.00431117 -0.00501288 0.00224076)
(-0.00494469 -0.00599645 0.00275868)
(-0.00483141 -0.00570975 0.00259)
(-0.0153376 -0.00685695 0.0185469)
(-0.0153829 -0.008626 0.0231908)
(-0.0182719 -0.0256115 0.0162505)
(-0.0184825 -0.0263961 0.0182147)
(-0.0155677 -0.0289153 0.0199946)
(-0.0174159 -0.0316311 0.019213)
(-0.0147722 -0.0211286 0.0188425)
(-0.014306 -0.0188145 0.0189564)
(-0.0164115 -0.0212197 0.0104018)
(-0.0165028 -0.0207026 0.00992458)
(-0.0178609 -0.0258806 0.0151455)
(-0.0161882 -0.0230123 0.0130269)
(-0.0143475 -0.0197604 0.0165354)
(-0.00347456 -0.00544583 0.00302866)
(-0.00415445 -0.00668465 0.00412708)
(-0.00364831 -0.00470297 0.00221067)
(-0.00360845 -0.00477538 0.00269371)
(-0.0081996 -0.00979396 0.0103118)
(-0.0104831 -0.0110659 0.0115537)
(-0.0055948 -0.0084643 0.0075676)
(-0.00447863 -0.00690779 0.00505158)
(-0.0134357 -0.0125323 0.0192238)
(-0.0150606 -0.0114754 0.0198158)
(-0.0196435 -0.0258088 0.0138878)
(-0.0174523 -0.0252391 0.0152798)
(-0.00496658 -0.00592595 0.00238142)
(-0.00462445 -0.00538641 0.00207943)
(-0.00406271 -0.00564984 0.00326263)
(-0.00379346 -0.004703 0.00220847)
(-0.0135545 -0.0176198 0.0069979)
(-0.0136323 -0.0177742 0.00720651)
(-0.0164202 -0.0219104 0.0118443)
(-0.0164961 -0.021676 0.0112854)
(-0.00907668 -0.0118085 0.00529489)
(-0.0102118 -0.0131087 0.00619996)
(-0.00956362 -0.00462617 0.00511157)
(-0.00893097 -0.00478325 0.00487428)
(-0.00979257 -0.00490526 0.00586397)
(-0.0106041 -0.00515149 0.00632503)
(-0.0111388 -0.00516305 0.00736242)
(-0.0109258 -0.00515628 0.00685107)
(-0.00852434 -0.00489303 0.0044424)
(-0.00390032 -0.00473267 0.00233821)
(-0.00362199 -0.0045033 0.00220082)
(-0.00426822 -0.00569789 0.00302436)
(-0.00385919 -0.0049144 0.00256965)
(-0.00390682 -0.00551003 0.00319732)
(-0.00350984 -0.00426123 0.00208263)
(-0.0109602 -0.0128208 0.00741037)
(-0.00986254 -0.0121108 0.00699523)
(-0.0115721 -0.0132178 0.00808378)
(-0.0102814 -0.0126373 0.00691589)
(-0.00988772 -0.0120098 0.00697044)
(-0.0103289 -0.0121025 0.0073034)
(-0.0168165 -0.018516 0.0100433)
(-0.0158939 -0.0183415 0.0099789)
(-0.0159072 -0.0178496 0.00961623)
(-0.0166892 -0.0180399 0.0108564)
(-0.0164983 -0.0170876 0.00986842)
(-0.0160494 -0.0163963 0.0102629)
(-0.00574528 -0.00762165 0.00348336)
(-0.00599626 -0.00751869 0.00388708)
(-0.00594494 -0.00788855 0.00410575)
(-0.00688265 -0.00916027 0.00384242)
(-0.0054623 -0.00677555 0.00272483)
(-0.00608231 -0.0074263 0.00312334)
(-0.00901184 -0.0119483 0.00507984)
(-0.00880876 -0.0117705 0.00478851)
(-0.00874981 -0.0117528 0.00482403)
(-0.00819218 -0.0106605 0.00471299)
(-0.0155954 -0.0285302 0.0275105)
(-0.0147152 -0.0307254 0.0284038)
(-0.0165925 -0.0250033 0.0170574)
(-0.0182127 -0.0252951 0.0147465)
(-0.0186937 -0.0257964 0.0162613)
(-0.0184387 -0.0258157 0.0147014)
(-0.0171312 -0.0236842 0.0141546)
(-0.0163609 -0.0231246 0.0141959)
(-0.0193436 -0.0297595 0.0178021)
(-0.0184804 -0.0283253 0.0176962)
(-0.0182062 -0.0281113 0.0175586)
(-0.0195888 -0.0285646 0.0159447)
(-0.0198625 -0.0307765 0.0178157)
(-0.0202791 -0.0293766 0.0168335)
(-0.017172 -0.0111371 0.0204502)
(-0.0173392 -0.00945389 0.0181114)
(-0.0155847 -0.00986222 0.0166138)
(-0.0173754 -0.0120747 0.021117)
(-0.0162816 -0.00807035 0.0189438)
(-0.0159316 -0.00994081 0.0196237)
(-0.0166871 -0.0126211 0.0256367)
(-0.0159803 -0.00864127 0.0233603)
(-0.016374 -0.0103081 0.0254044)
(-0.0158666 -0.0126709 0.0269627)
(-0.0154541 -0.0132835 0.0261386)
(-0.0151508 -0.0195357 0.00800906)
(-0.0142562 -0.0180899 0.00734278)
(-0.0126669 -0.0173208 0.00738066)
(-0.0142835 -0.0196341 0.00832032)
(-0.0134349 -0.0179613 0.0073873)
(-0.0143174 -0.0111695 0.0127539)
(-0.0133184 -0.00842058 0.010948)
(-0.014207 -0.00825912 0.0120794)
(-0.0154356 -0.0105493 0.0141151)
(-0.0144008 -0.0101006 0.0140239)
(-0.0149118 -0.00879663 0.0129552)
(-0.013916 -0.0100273 0.0117183)
(-0.014307 -0.00882064 0.0131008)
(-0.00352558 -0.00500535 0.00226498)
(-0.00349587 -0.00471136 0.00207489)
(-0.003503 -0.00347606 0.0016221)
(-0.0034592 -0.00364231 0.00162159)
(-0.00429322 -0.00394561 0.00196756)
(-0.00444628 -0.00412779 0.00208444)
(-0.00404148 -0.00392777 0.00195978)
(-0.00400802 -0.00394615 0.00189008)
(-0.0264309 -0.0324606 0.0143428)
(-0.0266693 -0.0349729 0.0154461)
(-0.0257484 -0.035408 0.0160184)
(-0.0231328 -0.0352813 0.0168642)
(-0.0226348 -0.0324715 0.0148652)
(-0.0238682 -0.0311938 0.0139887)
(-0.00637174 -0.00441027 0.00331527)
(-0.00447815 -0.00426732 0.00216553)
(-0.00524499 -0.00433232 0.00274543)
(-0.00664339 -0.00456738 0.00339134)
(-0.00609921 -0.0045849 0.00297109)
(-0.00565428 -0.00439352 0.00255331)
(-0.00376131 -0.00414177 0.0019287)
(-0.00366028 -0.0042727 0.00188201)
(-0.00351148 -0.00451503 0.00195767)
(-0.00358881 -0.00421991 0.00186378)
(-0.00372936 -0.00402894 0.00182122)
(-0.00360134 -0.0041263 0.00182576)
(-0.00370017 -0.00395854 0.00190464)
(-0.0038354 -0.00395974 0.00197328)
(-0.00428079 -0.00416239 0.00228729)
(-0.00424283 -0.00440486 0.00220991)
(-0.00418985 -0.00396449 0.00207205)
(-0.00381394 -0.00403961 0.00196347)
(-0.00433889 -0.00406707 0.00209289)
(-0.00417293 -0.00394557 0.00201393)
(-0.0037642 -0.00362999 0.00176509)
(-0.00423728 -0.00395454 0.00209565)
(-0.00386597 -0.00376606 0.0018425)
(-0.0106693 -0.0117464 0.00874759)
(-0.0107582 -0.0120139 0.00891056)
(-0.0110805 -0.011605 0.00942373)
(-0.0118597 -0.0120486 0.0104619)
(-0.00954958 -0.0107983 0.00790658)
(-0.00959245 -0.0110141 0.00791043)
(-0.0128968 -0.0126784 0.0110631)
(-0.0125805 -0.0135527 0.0110033)
(-0.010994 -0.0106851 0.0110588)
(-0.0140964 -0.012879 0.012948)
(-0.0132397 -0.0131556 0.0123649)
(-0.010659 -0.0107575 0.0110515)
(-0.0173557 -0.0175329 0.0105954)
(-0.0186382 -0.018378 0.0113704)
(-0.0184532 -0.0172218 0.0117539)
(-0.0179181 -0.0177984 0.0113933)
(-0.0194698 -0.0186501 0.0116221)
(-0.0195593 -0.0184089 0.011759)
(-0.0220898 -0.0163178 0.01896)
(-0.0227327 -0.0163947 0.0186104)
(-0.0198203 -0.0145484 0.0187472)
(-0.0204925 -0.0144763 0.0201265)
(-0.0213181 -0.014269 0.0196829)
(-0.0244977 -0.0164661 0.0208765)
(-0.0266312 -0.0210073 0.0168412)
(-0.0234811 -0.0202246 0.0140992)
(-0.023125 -0.0190696 0.0145382)
(-0.0243656 -0.0197637 0.015998)
(-0.0220838 -0.0209949 0.0135025)
(-0.0245569 -0.0205331 0.0164677)
(-0.0271316 -0.0207801 0.0169309)
(-0.0271423 -0.0215878 0.0161937)
(-0.0262983 -0.0220984 0.0149616)
(-0.0256956 -0.0209324 0.0154669)
(-0.0295856 -0.0243701 0.0173172)
(-0.0275931 -0.0226453 0.0159743)
(-0.027475 -0.0195072 0.018682)
(-0.0271277 -0.0189912 0.0174214)
(-0.0252764 -0.0186876 0.0190011)
(-0.0261821 -0.018563 0.0190814)
(-0.0274333 -0.0194534 0.0177946)
(-0.0256877 -0.018435 0.0179493)
(-0.0100492 -0.0126346 0.00596098)
(-0.0114357 -0.0147787 0.00698592)
(-0.0104404 -0.0133476 0.00634611)
(-0.00954805 -0.0133897 0.00483164)
(-0.00903544 -0.012542 0.00479859)
(-0.0104962 -0.0144169 0.00538695)
(-0.0153171 -0.0173925 0.009214)
(-0.0148205 -0.0170476 0.00908446)
(-0.0148531 -0.016507 0.00920861)
(-0.0131349 -0.0150939 0.00780739)
(-0.014444 -0.0171746 0.00851601)
(-0.0124831 -0.0157448 0.00690555)
(-0.0130008 -0.0165092 0.00706707)
(-0.0132973 -0.0166756 0.00738333)
(-0.0128545 -0.0181065 0.00742612)
(-0.0142314 -0.0194962 0.00790173)
(-0.0134207 -0.0168231 0.00776326)
(-0.0126408 -0.0184192 0.00760729)
(-0.0159338 -0.0183147 0.00931361)
(-0.016541 -0.0183946 0.00931655)
(-0.0158004 -0.0179181 0.00963303)
(-0.0159301 -0.0185871 0.00935469)
(-0.0155499 -0.017444 0.00922262)
(-0.0162603 -0.020451 0.0102692)
(-0.00489511 -0.00568661 0.00208969)
(-0.0044305 -0.00519168 0.00210463)
(-0.00492281 -0.00593866 0.00225029)
(-0.00439017 -0.0053383 0.00221445)
(-0.00480709 -0.00592966 0.00217781)
(-0.0049203 -0.00606597 0.00251994)
(-0.00494015 -0.00562636 0.00242974)
(-0.00487311 -0.00590077 0.00245456)
(-0.00479996 -0.00547101 0.00228707)
(-0.00504889 -0.00596673 0.00249274)
(-0.00500314 -0.00615381 0.00259012)
(-0.00545621 -0.00704665 0.00303073)
(-0.00570612 -0.00671007 0.00297584)
(-0.00550583 -0.00641604 0.0027445)
(-0.00557332 -0.00646918 0.00282477)
(-0.00513568 -0.0064826 0.00268809)
(-0.005923 -0.00729687 0.00305057)
(-0.0165549 -0.0188225 0.00912369)
(-0.0172312 -0.0194521 0.00965855)
(-0.0171264 -0.020383 0.00959906)
(-0.0175354 -0.021233 0.010363)
(-0.01614 -0.019018 0.00894462)
(-0.0224563 -0.0269731 0.0136592)
(-0.0212005 -0.0274363 0.0138601)
(-0.0206785 -0.0284312 0.0154885)
(-0.0205869 -0.0289252 0.015255)
(-0.0216406 -0.0292947 0.015838)
(-0.021324 -0.0301194 0.0165782)
(-0.0219241 -0.0226715 0.0123374)
(-0.0230768 -0.0248983 0.0127761)
(-0.0257543 -0.022036 0.0136593)
(-0.0224142 -0.020255 0.0118472)
(-0.0274851 -0.0276951 0.0156125)
(-0.0261924 -0.0256757 0.0140275)
(-0.0203148 -0.02265 0.0123447)
(-0.0252344 -0.0235878 0.0137492)
(-0.0219216 -0.0190651 0.0123659)
(-0.0231409 -0.0199488 0.0127991)
(-0.0206171 -0.0232776 0.0120479)
(-0.0248994 -0.0249563 0.0144708)
(-0.0179056 -0.0215046 0.0106708)
(-0.0191754 -0.0226961 0.0112673)
(-0.0185248 -0.0223318 0.0111389)
(-0.0189734 -0.0222682 0.0107664)
(-0.0179503 -0.0219862 0.010882)
(-0.0189995 -0.0241877 0.0124035)
(-0.0196186 -0.0214988 0.0107942)
(-0.0188736 -0.0204109 0.0105412)
(-0.018876 -0.0204026 0.0105238)
(-0.019015 -0.0209399 0.0105527)
(-0.0198877 -0.0234021 0.011848)
(-0.0184799 -0.0214404 0.0108541)
(-0.0056246 -0.0065186 0.00305038)
(-0.00535785 -0.00628541 0.00279894)
(-0.00494242 -0.00550197 0.00246887)
(-0.00617273 -0.00712937 0.0033721)
(-0.00564646 -0.00665368 0.00298377)
(-0.00554374 -0.00568981 0.00246015)
(-0.00547028 -0.00637196 0.00283541)
(-0.00562557 -0.00453595 0.00246452)
(-0.0055202 -0.00496717 0.0025733)
(-0.00674395 -0.00557673 0.00325102)
(-0.00630097 -0.00508787 0.00296249)
(-0.00643636 -0.00545355 0.00303379)
(-0.00552245 -0.00521272 0.00270126)
(-0.00483125 -0.00506216 0.00240351)
(-0.00443905 -0.00407396 0.0018707)
(-0.00466655 -0.00438547 0.00213478)
(-0.00435161 -0.0044681 0.00200544)
(-0.00545361 -0.00515957 0.00260367)
(-0.00529711 -0.00505642 0.00254492)
(-0.00337585 -0.00377846 0.00169764)
(-0.00345681 -0.00375737 0.00161434)
(-0.00373446 -0.00363773 0.00165284)
(-0.00356919 -0.00423047 0.00198158)
(-0.00371104 -0.00385718 0.00183226)
(-0.00362446 -0.00407737 0.001951)
(-0.00884063 -0.00555464 0.00500842)
(-0.0109885 -0.00592803 0.00659893)
(-0.00946124 -0.00488204 0.00478208)
(-0.00928032 -0.00546231 0.00520824)
(-0.00984956 -0.00579806 0.00633082)
(-0.00816567 -0.00456272 0.0043754)
(-0.0072163 -0.00550633 0.00351766)
(-0.00500568 -0.00484147 0.00254608)
(-0.00515641 -0.00448981 0.00262282)
(-0.00656026 -0.00470657 0.00316558)
(-0.00557126 -0.00454497 0.00239247)
(-0.00590041 -0.00501159 0.00273458)
(-0.00546997 -0.00465722 0.00246821)
(-0.00674401 -0.00729475 0.0038624)
(-0.0063944 -0.00722235 0.00369638)
(-0.00672321 -0.00708946 0.00363021)
(-0.00776664 -0.00767138 0.00428416)
(-0.00701006 -0.00682468 0.00362348)
(-0.00710336 -0.00729252 0.00396681)
(-0.0253703 -0.0150149 0.0225808)
(-0.0271947 -0.0177344 0.0208772)
(-0.0251723 -0.0159016 0.0233562)
(-0.0232143 -0.015281 0.0204847)
(-0.0259993 -0.0175997 0.0204003)
(-0.0249948 -0.0148991 0.0209421)
(-0.00636642 -0.00898426 0.00946252)
(-0.00530733 -0.00833857 0.00738179)
(-0.00565494 -0.00816172 0.0085145)
(-0.00524662 -0.00768144 0.00686595)
(-0.00484258 -0.00736162 0.00633317)
(-0.00682544 -0.00922833 0.0101533)
(-0.00942848 -0.0110406 0.0104495)
(-0.00715409 -0.00962049 0.00897078)
(-0.00922498 -0.010789 0.0108242)
(-0.00893108 -0.0103992 0.0117965)
(-0.00799605 -0.0104174 0.00939049)
(-0.00683885 -0.00909479 0.0080622)
(-0.00976568 -0.0110268 0.0124734)
(-0.00841675 -0.0102166 0.012154)
(-0.0107002 -0.0114562 0.0141754)
(-0.00762326 -0.00956676 0.0108721)
(-0.0089987 -0.0109458 0.0115186)
(-0.00318822 -0.0039277 0.00188434)
(-0.00324415 -0.0037505 0.0016561)
(-0.00319392 -0.00420939 0.0021344)
(-0.0034727 -0.00446475 0.00219113)
(-0.00319459 -0.0037903 0.00175428)
(-0.00329426 -0.00377362 0.00171236)
(-0.00521234 -0.00756236 0.0060914)
(-0.0051041 -0.00745776 0.00608794)
(-0.00681896 -0.00928045 0.00881627)
(-0.00585814 -0.00817148 0.0077358)
(-0.00699739 -0.00942719 0.00885566)
(-0.00522205 -0.00774583 0.00675752)
(-0.00366582 -0.00458773 0.00234159)
(-0.00397183 -0.00568566 0.00372595)
(-0.00400537 -0.00525753 0.00278103)
(-0.00434903 -0.0057332 0.00324077)
(-0.00426021 -0.00599149 0.00354628)
(-0.00347033 -0.00459157 0.00258206)
(-0.00358466 -0.00522867 0.00277366)
(-0.00382158 -0.00516058 0.00260211)
(-0.00375545 -0.00491319 0.00236722)
(-0.00353056 -0.00441213 0.0021106)
(-0.00361703 -0.00450301 0.00215777)
(-0.00358126 -0.00479527 0.0024021)
(-0.00341416 -0.00391954 0.00176133)
(-0.00346714 -0.00410432 0.00192743)
(-0.00339905 -0.00407546 0.00187813)
(-0.00333322 -0.00402419 0.00190151)
(-0.0033153 -0.00462212 0.00234031)
(-0.00340607 -0.00353813 0.00165687)
(-0.00345982 -0.00382434 0.00172738)
(-0.00339374 -0.00375842 0.00176897)
(-0.00348457 -0.00380278 0.00184541)
(-0.00323884 -0.00358475 0.00170227)
(-0.0034592 -0.00382403 0.00178555)
(-0.00519715 -0.00822707 0.00876529)
(-0.00688899 -0.00936232 0.0128276)
(-0.00692435 -0.00999207 0.0111188)
(-0.00586904 -0.00890765 0.00954893)
(-0.00650919 -0.00885051 0.0112974)
(-0.00491778 -0.00781729 0.00795131)
(-0.0097145 -0.0100565 0.0159417)
(-0.00925572 -0.00991098 0.0153718)
(-0.0133924 -0.0105745 0.0205657)
(-0.0134085 -0.0104464 0.0206114)
(-0.0113666 -0.0110011 0.0179587)
(-0.00888039 -0.0101131 0.0134974)
(-0.0108812 -0.0110961 0.0155203)
(-0.00976771 -0.0112381 0.0148546)
(-0.0117387 -0.0113149 0.0164052)
(-0.00869593 -0.0104865 0.0133114)
(-0.0109526 -0.010985 0.0153466)
(-0.00425269 -0.00771654 0.00727041)
(-0.00459511 -0.00778129 0.00606816)
(-0.0211374 -0.0372138 0.0196841)
(-0.0210437 -0.0366206 0.0199543)
(-0.028827 -0.0215473 0.0181837)
(-0.0294835 -0.0229066 0.0169321)
(-0.0279186 -0.0180628 0.0186188)
(-0.0271093 -0.0171189 0.0182026)
(-0.0344847 -0.0211805 0.0201272)
(-0.0308013 -0.0207692 0.0191159)
(-0.0299277 -0.0314576 0.0149848)
(-0.0301295 -0.0321679 0.0149491)
(-0.0228584 -0.029584 0.0149519)
(-0.0248416 -0.0317709 0.0164942)
(-0.025248 -0.0305191 0.0156255)
(-0.0228089 -0.0332887 0.0180882)
(-0.0220129 -0.0312323 0.0168969)
(-0.022635 -0.0311767 0.0160081)
(-0.0244155 -0.0275204 0.0139727)
(-0.0219057 -0.0242561 0.0119046)
(-0.0245724 -0.0294134 0.0151012)
(-0.0250949 -0.0281188 0.0149341)
(-0.0223075 -0.0279633 0.0139879)
(-0.0260571 -0.0284578 0.013748)
(-0.0272445 -0.0288908 0.0139799)
(-0.0291111 -0.0282186 0.0143473)
(-0.0296309 -0.0261044 0.0149888)
(-0.0269395 -0.0276515 0.0143571)
(-0.0285204 -0.0262565 0.0145761)
(-0.0300458 -0.0224314 0.0156361)
(-0.0274512 -0.0207108 0.0156133)
(-0.0305071 -0.0245453 0.0167511)
(-0.0283881 -0.0212273 0.0159689)
(-0.0305497 -0.0230509 0.0160958)
(-0.0270663 -0.0208639 0.0152975)
(-0.0109475 -0.00631942 0.00700079)
(-0.0125877 -0.00753824 0.00844953)
(-0.0133289 -0.00740124 0.0101609)
(-0.012947 -0.00740053 0.0101842)
(-0.0115211 -0.00636094 0.00813536)
(-0.011952 -0.00733703 0.00893041)
(-0.0138644 -0.00684607 0.00961608)
(-0.0139613 -0.00654926 0.0116382)
(-0.0135787 -0.00753007 0.0103519)
(-0.0118837 -0.0060975 0.00778235)
(-0.0134604 -0.0067668 0.0112632)
(-0.0123504 -0.00668983 0.00920977)
(-0.0151265 -0.00791255 0.0157084)
(-0.0148958 -0.00891419 0.0142159)
(-0.0160408 -0.0106919 0.0171475)
(-0.0153765 -0.010171 0.0159561)
(-0.0156064 -0.00861049 0.0150651)
(-0.0157552 -0.0113763 0.0168764)
(-0.0130597 -0.0142905 0.0109831)
(-0.0128954 -0.0142689 0.0106913)
(-0.0130354 -0.0146591 0.0102742)
(-0.0122107 -0.0128778 0.0101405)
(-0.0124205 -0.0132103 0.00965909)
(-0.011708 -0.0131508 0.00860213)
(-0.0140029 -0.0177286 0.01263)
(-0.0133272 -0.0170445 0.0109643)
(-0.013557 -0.0165633 0.0117152)
(-0.0131663 -0.0155407 0.0115519)
(-0.0133722 -0.0155722 0.0115079)
(-0.0139224 -0.0168828 0.0106841)
(-0.0138241 -0.0168103 0.0128687)
(-0.0144068 -0.0176618 0.0144724)
(-0.0148262 -0.0189572 0.0147549)
(-0.0142636 -0.0171187 0.0141135)
(-0.0146525 -0.0182577 0.0135754)
(-0.0146864 -0.0188231 0.0139753)
(-0.0136503 -0.0155318 0.0154539)
(-0.0161541 -0.0162114 0.0179804)
(-0.0166492 -0.0187533 0.0186405)
(-0.0155072 -0.0183465 0.0165705)
(-0.0149462 -0.0159871 0.0155773)
(-0.0148925 -0.015312 0.0177394)
(-0.0160036 -0.0193993 0.0153762)
(-0.0159265 -0.0201493 0.0158456)
(-0.0164361 -0.0193137 0.0166654)
(-0.0136622 -0.017011 0.0161787)
(-0.0151346 -0.0195216 0.0158338)
(-0.016078 -0.0209349 0.0154863)
(-0.0162503 -0.0208049 0.0168513)
(-0.017045 -0.0210144 0.0182609)
(-0.0176404 -0.0238854 0.0187591)
(-0.0180253 -0.0244383 0.0221134)
(-0.0145336 -0.0191857 0.0185302)
(-0.0142853 -0.019262 0.0158894)
(-0.0142099 -0.0174495 0.00733748)
(-0.014172 -0.0186283 0.00820946)
(-0.0138098 -0.0196144 0.00879223)
(-0.0144718 -0.0177954 0.00788475)
(-0.0147162 -0.0188564 0.00818409)
(-0.0157129 -0.0192718 0.00839559)
(-0.0148303 -0.0180585 0.00689052)
(-0.0133093 -0.0172915 0.00691254)
(-0.0140637 -0.0197128 0.00882709)
(-0.0133111 -0.0175456 0.00729149)
(-0.0137187 -0.0182236 0.00734491)
(-0.0136623 -0.0184158 0.00833575)
(-0.0119638 -0.0146397 0.00887985)
(-0.0128722 -0.0154389 0.00966865)
(-0.0142386 -0.0172975 0.0120381)
(-0.0136924 -0.0171336 0.010468)
(-0.0135646 -0.0163215 0.0104038)
(-0.0133167 -0.0167302 0.00993793)
(-0.0139492 -0.0183157 0.00978753)
(-0.0149418 -0.0191599 0.0106545)
(-0.0161314 -0.0210205 0.0125139)
(-0.0150644 -0.0199479 0.010301)
(-0.0139255 -0.0180953 0.0110627)
(-0.0151151 -0.0191474 0.0114396)
(-0.0140632 -0.0185177 0.00782679)
(-0.0119595 -0.0159406 0.00742619)
(-0.0128016 -0.0174885 0.00820253)
(-0.0132921 -0.0185633 0.0092555)
(-0.0144538 -0.0194828 0.00932688)
(-0.0120311 -0.0169469 0.00820128)
(-0.0136825 -0.0183385 0.00772855)
(-0.0134918 -0.0182824 0.00821208)
(-0.0180093 -0.0213119 0.00980335)
(-0.0177335 -0.0218329 0.0105361)
(-0.0175097 -0.0216906 0.0104001)
(-0.0172078 -0.0204941 0.00959832)
(-0.0170697 -0.0216002 0.0104819)
(-0.0187284 -0.0242319 0.0119631)
(-0.0138846 -0.0185006 0.00821621)
(-0.0163194 -0.0212675 0.00982915)
(-0.0149289 -0.0200079 0.00904536)
(-0.0146339 -0.0200987 0.00914626)
(-0.0153674 -0.0201402 0.00904784)
(-0.0153796 -0.0198503 0.00897063)
(-0.0150951 -0.0202334 0.0136435)
(-0.0155942 -0.0213821 0.0137161)
(-0.0165312 -0.0226045 0.0146584)
(-0.0154994 -0.0206435 0.0148861)
(-0.015378 -0.0206816 0.0147517)
(-0.0150362 -0.0204809 0.013478)
(-0.0141617 -0.0189898 0.0113915)
(-0.0148256 -0.019494 0.013336)
(-0.0145024 -0.0191169 0.0123304)
(-0.0150694 -0.0202512 0.0117892)
(-0.0149047 -0.019724 0.0131307)
(-0.0158387 -0.0212459 0.0136964)
(-0.0171739 -0.0243518 0.0131807)
(-0.0168295 -0.0219255 0.0109251)
(-0.017842 -0.022274 0.0110476)
(-0.0168387 -0.0223332 0.0113343)
(-0.0163798 -0.0219376 0.0116003)
(-0.015918 -0.0214665 0.0110325)
(-0.017195 -0.0226723 0.0115821)
(-0.0151646 -0.0203018 0.0103621)
(-0.0166297 -0.0213872 0.0105219)
(-0.0168234 -0.0223564 0.0113668)
(-0.0119364 -0.0139109 0.0085493)
(-0.0115974 -0.0140862 0.0078084)
(-0.0108085 -0.0118763 0.00824403)
(-0.00986694 -0.0113119 0.00664248)
(-0.0115091 -0.0136835 0.00750695)
(-0.0124308 -0.0135779 0.00902791)
(-0.0110713 -0.0141259 0.00696438)
(-0.0122123 -0.0159105 0.0078998)
(-0.0116448 -0.0155547 0.00735266)
(-0.0116983 -0.0144873 0.00738025)
(-0.0111986 -0.0145558 0.00691977)
(-0.0114363 -0.0143188 0.00764613)
(-0.00936381 -0.0115264 0.00533192)
(-0.00912119 -0.0106679 0.00516776)
(-0.00902718 -0.0104573 0.00514941)
(-0.00922722 -0.0114328 0.00529008)
(-0.00846575 -0.0108409 0.00473668)
(-0.00892588 -0.011559 0.0049516)
(-0.0107096 -0.0100798 0.00745636)
(-0.0115527 -0.0113776 0.00817014)
(-0.0107168 -0.010466 0.00723254)
(-0.0114754 -0.0111805 0.00858437)
(-0.0110456 -0.0106127 0.00807072)
(-0.0124622 -0.0127298 0.00848428)
(-0.0103887 -0.0110937 0.00677416)
(-0.0104808 -0.0114822 0.00681018)
(-0.00980963 -0.0108061 0.00602)
(-0.0092873 -0.0109251 0.00573659)
(-0.00992911 -0.0107707 0.00617148)
(-0.00942291 -0.0112928 0.00584377)
(-0.00919974 -0.00919356 0.00560943)
(-0.0097242 -0.00916812 0.00615873)
(-0.00954141 -0.00931301 0.0061065)
(-0.00846521 -0.00786106 0.00518058)
(-0.00832603 -0.00803013 0.00493086)
(-0.0097166 -0.00863932 0.00598863)
(-0.00725189 -0.00823225 0.00424416)
(-0.00833447 -0.00943732 0.0049105)
(-0.00825902 -0.009607 0.00487109)
(-0.00869593 -0.00907881 0.00534478)
(-0.00793794 -0.00873474 0.00450093)
(-0.00799371 -0.00872128 0.00470793)
(-0.0160983 -0.016095 0.0266581)
(-0.0140618 -0.0193017 0.0244647)
(-0.0148827 -0.0169301 0.0256645)
(-0.0148673 -0.0207033 0.0253967)
(-0.0150763 -0.0156533 0.0242605)
(-0.0141785 -0.0161218 0.0242445)
(-0.0154841 -0.0206578 0.0274503)
(-0.0157277 -0.0106748 0.0211469)
(-0.0161054 -0.0116315 0.024071)
(-0.0156479 -0.00953176 0.0209591)
(-0.0146789 -0.0113197 0.0219214)
(-0.0155246 -0.00829365 0.0197668)
(-0.0154493 -0.00801131 0.0193183)
(-0.0161899 -0.0282893 0.0208541)
(-0.0202571 -0.0317428 0.0211722)
(-0.0170517 -0.0269253 0.0191261)
(-0.0194938 -0.0308575 0.021465)
(-0.0168821 -0.0288168 0.0235832)
(-0.0185528 -0.0302187 0.0246727)
(-0.0192017 -0.0279577 0.0163569)
(-0.0187585 -0.0277204 0.017272)
(-0.0169476 -0.024781 0.0149923)
(-0.0174087 -0.0263894 0.0170557)
(-0.0184621 -0.0261995 0.0152748)
(-0.0189157 -0.027047 0.0155439)
(-0.0166381 -0.0301392 0.0232116)
(-0.0178841 -0.0320421 0.0206969)
(-0.0171752 -0.0311848 0.0212191)
(-0.015799 -0.0281783 0.0198452)
(-0.0173474 -0.0313593 0.0200311)
(-0.0155131 -0.0276891 0.0190596)
(-0.0184232 -0.0333403 0.0203382)
(-0.0211893 -0.0335533 0.0174972)
(-0.0197891 -0.0329899 0.0180869)
(-0.02031 -0.0333914 0.0174285)
(-0.0194638 -0.0347873 0.0204346)
(-0.0181457 -0.0318916 0.0186434)
(-0.0132812 -0.0245066 0.0264994)
(-0.0157089 -0.0288038 0.0258007)
(-0.01537 -0.0277071 0.0252943)
(-0.0154976 -0.0289075 0.0250672)
(-0.0154421 -0.0251893 0.0272012)
(-0.0153772 -0.0254779 0.025385)
(-0.0138546 -0.019721 0.0276791)
(-0.01447 -0.0187469 0.0304659)
(-0.0147632 -0.0235322 0.0283437)
(-0.015643 -0.0181158 0.0299046)
(-0.014156 -0.0173811 0.0270372)
(-0.0160007 -0.0240167 0.0321435)
(-0.0048611 -0.00598066 0.00294301)
(-0.00531357 -0.00672108 0.00319435)
(-0.00534102 -0.00669569 0.00317847)
(-0.005656 -0.00714416 0.00350227)
(-0.00541298 -0.00717267 0.00386965)
(-0.00488358 -0.00588315 0.0023933)
(-0.00346745 -0.00361948 0.00170119)
(-0.00346451 -0.00350454 0.00168218)
(-0.00317016 -0.0033324 0.00157857)
(-0.00330985 -0.00345253 0.00160896)
(-0.00357128 -0.00364852 0.00177279)
(-0.00333321 -0.00361709 0.00167951)
(-0.00763208 -0.00974657 0.00540361)
(-0.00629945 -0.00828877 0.00410822)
(-0.00673588 -0.00882135 0.0039995)
(-0.00708099 -0.0090265 0.00450057)
(-0.00621466 -0.00791276 0.00398501)
(-0.00615754 -0.00809115 0.00404657)
(-0.00577136 -0.00703199 0.00306884)
(-0.00479351 -0.00586757 0.00260315)
(-0.0054915 -0.00699564 0.00303247)
(-0.00506123 -0.00601415 0.00266995)
(-0.00503401 -0.005615 0.0023098)
(-0.0049737 -0.00619597 0.00278113)
(-0.00755963 -0.0101781 0.0048128)
(-0.00771409 -0.0100348 0.00447449)
(-0.0069008 -0.0088492 0.00405195)
(-0.00748929 -0.00963227 0.00454676)
(-0.0083551 -0.0114171 0.0047946)
(-0.00692814 -0.00925646 0.00412314)
(-0.0169962 -0.0163397 0.0115503)
(-0.0139908 -0.0142753 0.0098639)
(-0.014837 -0.0142391 0.0104171)
(-0.0153984 -0.0159744 0.0103885)
(-0.0160986 -0.0162848 0.0104727)
(-0.00627021 -0.00801219 0.00338151)
(-0.00661212 -0.00833096 0.00311315)
(-0.00566186 -0.00757844 0.00316662)
(-0.0068268 -0.00909079 0.00339628)
(-0.00626409 -0.00836421 0.00345126)
(-0.00564871 -0.00724968 0.00295694)
(-0.00763097 -0.0100803 0.00349709)
(-0.00737574 -0.00973313 0.00364773)
(-0.00909264 -0.0106296 0.00704683)
(-0.0105651 -0.0124175 0.00795342)
(-0.00901817 -0.0114906 0.00752058)
(-0.00852048 -0.0105197 0.00730714)
(-0.00901139 -0.0110906 0.00639238)
(-0.0101327 -0.0125855 0.00767605)
(-0.0133302 -0.0156208 0.00837442)
(-0.0124051 -0.0140305 0.00824012)
(-0.015682 -0.0155894 0.0104236)
(-0.012772 -0.0142768 0.00869351)
(-0.0134489 -0.0154594 0.00857801)
(-0.0139454 -0.0151887 0.00920447)
(-0.00725658 -0.00911651 0.00505271)
(-0.00774995 -0.00952325 0.00547344)
(-0.0071891 -0.00925675 0.0044409)
(-0.00819892 -0.0106183 0.00471453)
(-0.00893385 -0.0109371 0.00633626)
(-0.00854827 -0.010789 0.00529554)
(-0.00891159 -0.0110833 0.00554679)
(-0.00968829 -0.0116625 0.00645248)
(-0.00823706 -0.0108835 0.00476101)
(-0.00948566 -0.0127144 0.00554932)
(-0.00916405 -0.0118073 0.00588404)
(-0.00837609 -0.0105844 0.00499244)
(-0.012058 -0.0144677 0.0074398)
(-0.0105895 -0.0135155 0.00639832)
(-0.0114973 -0.0136691 0.00772974)
(-0.0118193 -0.0149288 0.00734416)
(-0.0110556 -0.0134997 0.00723582)
(-0.0154099 -0.0204102 0.00939282)
(-0.0161433 -0.0207057 0.010133)
(-0.0153529 -0.0206628 0.0102016)
(-0.0146059 -0.0202552 0.0101259)
(-0.0156073 -0.0202492 0.00963026)
(-0.0138333 -0.0186091 0.0100074)
(-0.0148767 -0.0145151 0.0152024)
(-0.0147815 -0.0149394 0.0157195)
(-0.0158963 -0.0170548 0.0166801)
(-0.0153287 -0.0173323 0.014929)
(-0.0137899 -0.0144012 0.0134441)
(-0.0145784 -0.0161664 0.0144101)
(-0.0135649 -0.0135747 0.0115975)
(-0.0134215 -0.0142472 0.0121233)
(-0.0137331 -0.0153312 0.0128366)
(-0.0140215 -0.0152101 0.0120049)
(-0.013904 -0.0138997 0.0123444)
(-0.0132521 -0.0150087 0.0118815)
(-0.00883608 -0.00754807 0.00471515)
(-0.00752721 -0.00686001 0.00389353)
(-0.00823616 -0.00675319 0.00447068)
(-0.00708378 -0.00713595 0.00398067)
(-0.0077216 -0.00641482 0.00391064)
(-0.00884793 -0.00747671 0.00479856)
(-0.01225 -0.0172542 0.00697492)
(-0.0134409 -0.0194355 0.00785082)
(-0.0130024 -0.0191384 0.00754711)
(-0.0141841 -0.0162116 0.00672584)
(-0.0145402 -0.0163999 0.00732689)
(-0.011724 -0.0165459 0.00646786)
(-0.0203584 -0.0143909 0.0158994)
(-0.024012 -0.0168267 0.0178031)
(-0.021918 -0.0148143 0.0169524)
(-0.0255828 -0.0182587 0.017653)
(-0.023264 -0.0177692 0.0155881)
(-0.0227323 -0.018373 0.016556)
(-0.0172784 -0.0141652 0.0174794)
(-0.0201227 -0.0147779 0.0185331)
(-0.0169675 -0.0141214 0.0156912)
(-0.0202772 -0.0144521 0.0186875)
(-0.0183788 -0.0144722 0.0162954)
(-0.0178515 -0.0134133 0.0176605)
(-0.0146419 -0.0126048 0.01459)
(-0.0132575 -0.0124646 0.0127377)
(-0.0138653 -0.0126025 0.0141786)
(-0.0161074 -0.0138221 0.0141027)
(-0.0156929 -0.0139865 0.0136256)
(-0.0135223 -0.00533642 0.0104038)
(-0.012722 -0.00529882 0.00987267)
(-0.0137026 -0.00692392 0.0127435)
(-0.0151935 -0.00696997 0.0141779)
(-0.0140791 -0.00735699 0.0115203)
(-0.0135952 -0.0062199 0.0113864)
(-0.017857 -0.0181786 0.00980902)
(-0.0175368 -0.0180333 0.00999807)
(-0.0176728 -0.0195721 0.010271)
(-0.0190494 -0.0186641 0.010192)
(-0.0168205 -0.0147868 0.013659)
(-0.0149164 -0.0133746 0.013459)
(-0.0150057 -0.0130236 0.0149857)
(-0.020382 -0.0153822 0.016455)
(-0.0193781 -0.0162502 0.0130646)
(-0.0214117 -0.0180403 0.0138354)
(-0.0220954 -0.0179201 0.0179603)
(-0.0223722 -0.018138 0.0174323)
(-0.0170187 -0.0143404 0.014028)
(-0.0195021 -0.0149156 0.0159384)
(-0.0201789 -0.0166343 0.014799)
(-0.0185173 -0.0159356 0.0130356)
(-0.0176862 -0.0161553 0.0132314)
(-0.0175301 -0.0138936 0.0137199)
(-0.0170403 -0.0146528 0.0138104)
(-0.0212933 -0.0173326 0.0151728)
(-0.0234245 -0.0188018 0.0160064)
(-0.0235672 -0.0177577 0.0170342)
(-0.0235274 -0.017494 0.0175337)
(-0.0127141 -0.0183629 0.00744074)
(-0.0124668 -0.0111849 0.0110993)
(-0.0131493 -0.0116013 0.01216)
(-0.014636 -0.0131371 0.0144774)
(-0.0144409 -0.013552 0.0131716)
(-0.0143032 -0.0131009 0.0126986)
(-0.0137019 -0.0130895 0.013052)
(-0.0139473 -0.0141326 0.0130134)
(-0.0137828 -0.0158026 0.0133364)
(-0.0150509 -0.0190898 0.00821109)
(-0.0152075 -0.020136 0.00941215)
(-0.0154587 -0.0203045 0.00945933)
(-0.0147827 -0.0199971 0.0089428)
(-0.0139442 -0.0187424 0.00818333)
(-0.0150954 -0.0200311 0.00936059)
(-0.0143694 -0.0198006 0.0108635)
(-0.0159216 -0.0214466 0.0107393)
(-0.0152452 -0.0202736 0.00983917)
(-0.00444568 -0.0057089 0.00269636)
(-0.00537515 -0.00693438 0.00417209)
(-0.00396937 -0.00527069 0.00272862)
(-0.00373843 -0.00458739 0.00245754)
(-0.00448912 -0.00573152 0.00345528)
(-0.00299744 -0.00340342 0.00156773)
(-0.00316799 -0.00394923 0.00195286)
(-0.00525532 -0.0068632 0.00514375)
(-0.00530684 -0.0072713 0.00559093)
(-0.00540429 -0.00695272 0.00389684)
(-0.00439708 -0.00626165 0.00413215)
(-0.00504193 -0.00686716 0.00394519)
(-0.00538442 -0.00701731 0.00448467)
(-0.00607312 -0.00796327 0.00512056)
(-0.00573314 -0.00786758 0.00512387)
(-0.00441223 -0.00583657 0.00385767)
(-0.00538369 -0.00693155 0.004481)
(-0.0103916 -0.0123799 0.00696707)