/*--------------------------------*- C++ -*----------------------------------*\
| =========                 |                                                 |
| \\      /  F ield         | OpenFOAM: The Open Source CFD Toolbox           |
|  \\    /   O peration     | Version:  v1612+                                |
|   \\  /    A nd           | Web:      www.OpenFOAM.com                      |
|    \\/     M anipulation  |                                                 |
\*---------------------------------------------------------------------------*/
FoamFile
{
    version     2.0;
    format      ascii;
    class       volScalarField;
    location    "118";
    object      p;
}
// * * * * * * * * * * * * * * * * * * * * * * * * * * * * * * * * * * * * * //

dimensions      [0 2 -2 0 0 0 0];

internalField   nonuniform List<scalar> 
21110
(
1.18351
1.33441
1.39366
1.32848
1.19595
1.23919
1.37293
1.31528
1.40998
1.33059
1.38101
1.38202
1.3048
1.33884
1.30917
1.34431
1.33422
1.4098
1.38571
1.39423
1.38807
1.20229
1.35255
1.3227
1.21343
1.28943
1.39828
1.39115
1.403
1.38407
1.23593
1.42269
1.21871
1.32339
1.317
1.34344
1.4086
1.3098
1.39101
1.39906
1.19808
1.37306
1.38322
1.39146
1.37474
1.30639
1.36951
1.38759
1.29395
1.28127
1.26196
1.32688
1.40082
1.36768
1.36905
1.3914
1.34858
1.36182
1.38582
1.3799
1.30151
1.36062
1.38083
1.3753
1.35433
1.38911
1.40188
1.37625
1.37381
1.35078
1.3513
1.36736
1.38799
1.39076
1.37414
1.38014
1.40354
1.34269
1.35386
1.33711
1.38607
1.39895
1.31621
1.37377
1.34812
1.34933
1.39197
1.38287
1.29214
1.26479
1.36955
1.28976
1.36506
1.32799
1.20649
1.4084
1.2003
1.36718
1.40314
1.40411
1.38048
1.38031
1.40144
1.2177
1.28815
1.2755
1.38666
1.37404
1.36227
1.36587
1.36219
1.36332
1.42504
1.40209
1.40585
1.28718
1.24874
1.27489
1.2752
1.35498
1.33224
1.37267
1.37539
1.31113
1.17977
1.31037
1.28992
1.28942
1.36627
1.37998
1.1796
1.30201
1.31261
1.35857
1.39764
1.38928
1.2225
1.16301
1.22184
1.23671
1.23902
1.38433
1.26862
1.21967
1.3811
1.40001
1.39707
1.39888
1.39987
1.39847
1.31989
1.17586
1.1692
1.36846
1.37041
1.26198
1.3323
1.36367
1.38206
1.39032
1.36315
1.37425
1.38051
1.40116
1.37726
1.38433
1.36985
1.36284
1.37543
1.32164
1.27487
1.27481
1.36
1.35508
1.37714
1.39161
1.39937
1.3677
1.36493
1.37299
1.38848
1.37252
1.39388
1.33339
1.32564
1.33593
1.32642
1.40589
1.31077
1.28163
1.30011
1.40063
1.35613
1.35049
1.21252
1.3945
1.40053
1.39538
1.39636
1.39465
1.36563
1.39849
1.38844
1.39469
1.38772
1.39447
1.37927
1.38293
1.38652
1.405
1.31009
1.32889
1.32477
1.38718
1.13074
1.3355
1.27452
1.39636
1.39185
1.31359
1.34533
1.40827
1.40217
1.3898
1.33512
1.35732
1.36469
1.34556
1.2943
1.33102
1.36908
1.31911
1.3233
1.26651
1.29545
1.34074
1.36536
1.36013
1.38054
1.38581
1.36921
1.33973
1.29664
1.2841
1.29591
1.27244
1.28726
1.39562
1.36534
1.35599
1.35838
1.33741
1.32052
1.31758
1.29696
1.29337
1.28968
1.36925
1.35246
1.36071
1.32412
1.31036
1.31965
1.37968
1.30657
1.31682
1.31619
1.41499
1.17035
1.32447
1.33199
1.31723
1.35722
1.31421
1.40061
1.39232
1.17268
1.37824
1.39903
1.36761
1.3109
1.2575
1.25147
1.31823
1.29573
1.30033
1.33121
1.33443
1.33978
1.33456
1.35313
1.33824
1.32335
1.33326
1.33526
1.41728
1.40689
1.37503
1.37647
1.36868
1.39422
1.34448
1.34835
1.26963
1.35206
1.33946
1.34975
1.35368
1.19861
1.38226
1.39965
1.26022
1.25825
1.28934
1.32771
1.30702
1.36846
1.39816
1.39044
1.41219
1.34294
1.34947
1.37109
1.3916
1.18136
1.37683
1.37247
1.25321
1.24595
1.23244
1.32903
1.35524
1.27773
1.25694
1.3626
1.36851
1.36783
1.36945
1.37483
1.39015
1.34447
1.34315
1.41576
1.38893
1.38089
1.3856
1.36169
1.38678
1.38601
1.31306
1.33189
1.1961
1.3805
1.37846
1.37608
1.37716
1.39227
1.38842
1.37086
1.36255
1.35804
1.39834
1.39751
1.32896
1.34405
1.33968
1.36925
1.36662
1.27233
1.283
1.39808
1.39535
1.39864
1.39191
1.39683
1.38481
1.39563
1.38709
1.25986
1.32298
1.32315
1.3153
1.22555
1.20777
1.36287
1.37774
1.38783
1.37596
1.3794
1.37588
1.38014
1.37489
1.3813
1.38355
1.36588
1.37741
1.37567
1.37547
1.3746
1.3905
1.3808
1.37639
1.36768
1.35744
1.13431
1.38262
1.15511
1.15216
1.16408
1.15782
1.20672
1.18828
1.38312
1.38897
1.24667
1.39964
1.39606
1.40673
1.17364
1.29461
1.26184
1.21123
1.35743
1.35559
1.35679
1.34683
1.30097
1.30863
1.22749
1.38259
1.38435
1.3832
1.37488
1.38109
1.36556
1.34364
1.35191
1.40004
1.31916
1.39044
1.38871
1.3018
1.4064
1.28203
1.33114
1.30065
1.24411
1.39363
1.29727
1.27926
1.29579
1.3758
1.3353
1.37388
1.36422
1.36962
1.37529
1.38274
1.13196
1.31427
1.28971
1.32381
1.32295
1.34822
1.36516
1.3947
1.35868
1.37921
1.38823
1.38635
1.38453
1.38429
1.37867
1.27896
1.26076
1.3739
1.35798
1.3819
1.37176
1.18169
1.18727
1.32252
1.29016
1.1607
1.16883
1.26884
1.29842
1.27084
1.29588
1.32682
1.38536
1.31606
1.33477
1.34004
1.37761
1.37051
1.37687
1.32248
1.31821
1.30148
1.31452
1.32974
1.371
1.36562
1.313
1.4036
1.37073
1.38447
1.37965
1.31145
1.17503
1.32614
1.3222
1.3464
1.37576
1.38717
1.39105
1.40068
1.39276
1.39086
1.34411
1.32643
1.27445
1.3754
1.4068
1.32326
1.1624
1.1777
1.37232
1.41026
1.37431
1.32754
1.38224
1.3903
1.3664
1.38115
1.38186
1.3754
1.31502
1.24858
1.34666
1.3516
1.32706
1.33282
1.36284
1.3943
1.16438
1.37625
1.39616
1.35711
1.39258
1.39854
1.39375
1.38902
1.3757
1.36016
1.36477
1.36848
1.35679
1.34816
1.20444
1.19181
1.31846
1.26914
1.25176
1.27773
1.38898
1.33475
1.39094
1.39781
1.21355
1.25305
1.38593
1.38423
1.33479
1.40266
1.38326
1.37716
1.3666
1.38335
1.35682
1.35222
1.39209
1.35243
1.39423
1.39399
1.39684
1.39839
1.33776
1.3994
1.31263
1.26647
1.22697
1.36286
1.36328
1.29707
1.39268
1.38843
1.23827
1.38453
1.38021
1.38447
1.32317
1.36059
1.30477
1.36984
1.28749
1.32713
1.36966
1.40225
1.35101
1.35339
1.3869
1.35919
1.34082
1.33843
1.38292
1.35118
1.31777
1.38696
1.36999
1.37751
1.3878
1.25104
1.38638
1.38277
1.34612
1.23432
1.25571
1.35026
1.37392
1.32539
1.35213
1.31695
1.33183
1.2267
1.27282
1.33678
1.30487
1.34666
1.27187
1.37981
1.38372
1.36828
1.39257
1.38379
1.35276
1.38104
1.38358
1.30414
1.24424
1.30825
1.18296
1.22539
1.21048
1.23404
1.20048
1.24078
1.21538
1.376
1.35596
1.36081
1.23077
1.1802
1.19174
1.19425
1.37005
1.39265
1.37928
1.36309
1.41479
1.31795
1.3131
1.33935
1.37447
1.35355
1.3377
1.35029
1.35865
1.30579
1.29443
1.28357
1.32441
1.25362
1.27108
1.32031
1.35401
1.369
1.39503
1.33651
1.39098
1.3383
1.33329
1.29244
1.32341
1.33795
1.3391
1.30313
1.29399
1.36055
1.32432
1.32039
1.31966
1.33283
1.23477
1.20424
1.22009
1.15884
1.36139
1.3016
1.29221
1.31049
1.32501
1.26588
1.29434
1.24913
1.23813
1.34605
1.35909
1.3115
1.33271
1.29469
1.34139
1.33059
1.33596
1.30795
1.3477
1.34035
1.31725
1.31139
1.26015
1.28814
1.27073
1.27788
1.33998
1.32472
1.35012
1.35331
1.31575
1.27865
1.32979
1.31273
1.24879
1.31567
1.30908
1.27797
1.30434
1.39877
1.39026
1.40139
1.40867
1.36161
1.38934
1.38983
1.35457
1.35609
1.38434
1.3701
1.38545
1.3732
1.38563
1.38403
1.37723
1.40004
1.37098
1.39434
1.40081
1.36946
1.38908
1.3885
1.38959
1.37257
1.38792
1.37425
1.37401
1.3692
1.35302
1.36163
1.35602
1.35494
1.35153
1.36344
1.36805
1.37643
1.37662
1.36612
1.36371
1.36592
1.38372
1.37892
1.36074
1.36903
1.38469
1.39072
1.40612
1.32355
1.31802
1.22362
1.2888
1.28357
1.36569
1.34208
1.27164
1.26368
1.36647
1.29851
1.29836
1.31446
1.32808
1.23047
1.3396
1.293
1.26898
1.27788
1.25939
1.26257
1.25824
1.26485
1.35392
1.34411
1.35616
1.35989
1.35509
1.39303
1.36948
1.37858
1.37602
1.38068
1.33196
1.34101
1.34505
1.34143
1.32312
1.32051
1.34048
1.35297
1.32702
1.3393
1.32717
1.34759
1.34199
1.32538
1.33421
1.32647
1.32962
1.31788
1.32845
1.32398
1.32166
1.34596
1.33902
1.34819
1.33958
1.33535
1.33591
1.33968
1.2403
1.221
1.3317
1.31332
1.30585
1.27862
1.30727
1.36049
1.32926
1.35811
1.33649
1.34975
1.3458
1.34344
1.28607
1.2861
1.27817
1.26815
1.27373
1.30145
1.30463
1.25548
1.2744
1.34797
1.32607
1.35151
1.33934
1.34661
1.35024
1.34128
1.35883
1.32657
1.35276
1.33112
1.3436
1.36766
1.38497
1.36707
1.38134
1.37572
1.38695
1.37695
1.39256
1.39445
1.3988
1.35321
1.35306
1.36472
1.36644
1.36786
1.3641
1.36059
1.37086
1.36301
1.37627
1.39046
1.39574
1.39712
1.389
1.38991
1.39248
1.38402
1.38725
1.3881
1.38688
1.38891
1.36024
1.36248
1.36062
1.36467
1.35797
1.3609
1.3616
1.384
1.36741
1.37014
1.36443
1.36869
1.37357
1.36808
1.37042
1.36669
1.36715
1.36396
1.36798
1.36641
1.36392
1.38612
1.37873
1.3865
1.38132
1.28523
1.30156
1.27471
1.26511
1.31534
1.28818
1.27903
1.30437
1.29538
1.30277
1.26916
1.26404
1.30598
1.34843
1.31913
1.33445
1.31715
1.32766
1.32429
1.32461
1.27615
1.36948
1.36066
1.15737
1.22734
1.20318
1.23697
1.20696
1.22266
1.20519
1.24652
1.21004
1.22592
1.20469
1.24076
1.25358
1.2128
1.24915
1.25209
1.21703
1.17498
1.19042
1.22863
1.22412
1.16404
1.18838
1.19816
1.20233
1.18807
1.20766
1.25177
1.19786
1.20654
1.19639
1.19035
1.3536
1.34751
1.33914
1.33407
1.34087
1.3359
1.21792
1.19679
1.21277
1.23344
1.23322
1.3638
1.36079
1.34647
1.35738
1.35847
1.34668
1.34879
1.35445
1.38499
1.36193
1.36523
1.35949
1.36524
1.36377
1.3723
1.35779
1.35865
1.2156
1.18163
1.19542
1.29056
1.24834
1.23035
1.26536
1.25242
1.24674
1.15521
1.13514
1.16086
1.15811
1.1946
1.21261
1.16481
1.1834
1.18424
1.15526
1.19555
1.22238
1.18567
1.226
1.21996
1.18303
1.14746
1.15122
1.16985
1.3753
1.35802
1.35546
1.37292
1.37331
1.35632
1.36876
1.36637
1.37319
1.37078
1.37403
1.35476
1.38281
1.37389
1.37434
1.37318
1.37899
1.38866
1.38206
1.34276
1.39132
1.33589
1.37498
1.36385
1.37628
1.3638
1.39488
1.38509
1.36969
1.38743
1.40354
1.40534
1.39379
1.39977
1.39456
1.36903
1.37473
1.3803
1.30444
1.3102
1.34965
1.34705
1.33419
1.31673
1.31926
1.27207
1.30782
1.29331
1.29545
1.30232
1.33303
1.34401
1.34283
1.34304
1.33476
1.33763
1.3434
1.34931
1.36798
1.36556
1.371
1.35718
1.35451
1.35855
1.37346
1.35136
1.37165
1.36964
1.35833
1.32665
1.33057
1.33879
1.3397
1.31735
1.32349
1.34441
1.34901
1.34894
1.33985
1.33989
1.33592
1.33376
1.34006
1.36563
1.36827
1.32843
1.35131
1.36716
1.34437
1.29865
1.31919
1.30619
1.28883
1.31712
1.31453
1.28353
1.24918
1.23563
1.29051
1.29132
1.25314
1.26131
1.25886
1.27588
1.23666
1.24115
1.27163
1.27116
1.32113
1.3135
1.30134
1.30603
1.3098
1.29647
1.31128
1.26596
1.25538
1.28258
1.28024
1.2766
1.28563
1.32567
1.29282
1.27014
1.28391
1.3056
1.30058
1.28972
1.26569
1.31411
1.29433
1.30131
1.27858
1.29003
1.28648
1.34368
1.34602
1.35685
1.35412
1.34297
1.34308
1.35141
1.36623
1.37588
1.38324
1.40454
1.38083
1.34554
1.349
1.34814
1.36936
1.35855
1.35293
1.34326
1.36548
1.36783
1.35826
1.35975
1.36307
1.33881
1.36679
1.36328
1.3605
1.35745
1.35769
1.37416
1.34945
1.34505
1.34953
1.38821
1.35873
1.36373
1.35042
1.33576
1.35057
1.34847
1.34933
1.34414
1.34824
1.31531
1.29593
1.30225
1.29698
1.35925
1.35601
1.34687
1.36967
1.32993
1.3109
1.3373
1.33167
1.32768
1.3267
1.3382
1.33429
1.3349
1.35542
1.34228
1.34457
1.34366
1.34463
1.32246
1.31179
1.31784
1.3326
1.31212
1.3075
1.33054
1.34737
1.34487
1.35421
1.34025
1.35693
1.35203
1.34112
1.34263
1.31738
1.30966
1.31496
1.3246
1.31919
1.32161
1.25812
1.29941
1.24863
1.28763
1.2843
1.29645
1.27554
1.36627
1.35634
1.39318
1.36971
1.38128
1.37562
1.3826
1.3248
1.32116
1.33981
1.33737
1.33459
1.32989
1.33529
1.31772
1.30146
1.34885
1.32972
1.33201
1.32126
1.3335
1.32118
1.31499
1.29262
1.32971
1.30212
1.30309
1.31748
1.34423
1.33959
1.34313
1.33518
1.35602
1.35039
1.3333
1.39072
1.38976
1.40481
1.38988
1.39914
1.39123
1.42174
1.29598
1.28454
1.24566
1.26903
1.25406
1.25989
1.14368
1.20281
1.23095
1.18925
1.2036
1.204
1.21309
1.24
1.19925
1.24122
1.24025
1.19553
1.1776
1.15334
1.15901
1.15456
1.39153
1.34571
1.37369
1.37291
1.37957
1.37274
1.37686
1.4096
1.38801
1.37818
1.38513
1.33887
1.30707
1.30753
1.32017
1.32308
1.31651
1.32008
1.31965
1.29666
1.31004
1.35113
1.34998
1.30796
1.31242
1.34311
1.32047
1.32469
1.30252
1.30574
1.3108
1.31914
1.29954
1.32016
1.33309
1.2303
1.25388
1.28518
1.24241
1.28835
1.25093
1.26181
1.29399
1.25526
1.29325
1.28144
1.33617
1.33113
1.34735
1.32559
1.3215
1.35249
1.36077
1.36377
1.36666
1.36558
1.34556
1.35678
1.15036
1.28624
1.27337
1.27014
1.37492
1.3669
1.35335
1.34607
1.34679
1.32347
1.34522
1.32436
1.34836
1.33838
1.29785
1.29481
1.31783
1.35082
1.34685
1.32043
1.34243
1.33004
1.3408
1.33642
1.35299
1.32589
1.32781
1.34782
1.32987
1.33628
1.26217
1.25573
1.29556
1.29326
1.27947
1.29804
1.34467
1.27736
1.35127
1.33921
1.34025
1.34079
1.32735
1.3401
1.34317
1.35154
1.35665
1.3427
1.34959
1.31305
1.34981
1.33926
1.34839
1.33056
1.3547
1.34893
1.34471
1.33736
1.35168
1.34775
1.34364
1.35197
1.34036
1.33832
1.34031
1.3454
1.36059
1.35029
1.37096
1.34972
1.37276
1.36647
1.35444
1.33548
1.30872
1.31511
1.32803
1.32244
1.32242
1.33202
1.32936
1.34713
1.35598
1.34584
1.34957
1.35571
1.34383
1.31265
1.33036
1.34376
1.33916
1.33055
1.32861
1.33571
1.35129
1.3192
1.35037
1.33415
1.34808
1.34219
1.33888
1.30829
1.30886
1.34503
1.31999
1.32956
1.32907
1.32269
1.2512
1.25257
1.27618
1.23038
1.24127
1.23375
1.25492
1.24758
1.25796
1.29989
1.29297
1.28478
1.27456
1.30377
1.30426
1.27813
1.27325
1.28893
1.26037
1.29035
1.27302
1.23923
1.29356
1.2707
1.25668
1.25273
1.27347
1.28993
1.32126
1.33631
1.34575
1.32986
1.3372
1.34088
1.32748
1.35484
1.33931
1.33205
1.33036
1.34515
1.34494
1.33487
1.32945
1.31767
1.32924
1.32935
1.33646
1.32827
1.3181
1.32666
1.33021
1.31768
1.32833
1.32642
1.31188
1.31303
1.28798
1.29234
1.33244
1.30915
1.34079
1.32708
1.33265
1.32668
1.33639
1.28172
1.27223
1.2622
1.25361
1.27131
1.26612
1.25835
1.33679
1.30541
1.33731
1.32027
1.33818
1.32819
1.32848
1.27617
1.28507
1.29098
1.30678
1.31148
1.33563
1.30532
1.32077
1.32034
1.30744
1.27658
1.29877
1.28777
1.26857
1.26595
1.29275
1.30264
1.32624
1.30179
1.31667
1.31651
1.30681
1.39844
1.40842
1.40204
1.40404
1.39165
1.41544
1.39564
1.39932
1.38904
1.40186
1.39474
1.3806
1.39978
1.38314
1.38354
1.3986
1.40947
1.41039
1.4062
1.39672
1.39934
1.3809
1.40467
1.39721
1.37334
1.38017
1.38789
1.37504
1.38393
1.38301
1.36287
1.35672
1.36258
1.36385
1.36296
1.40423
1.3833
1.3878
1.347
1.3423
1.34928
1.34802
1.3554
1.35408
1.34922
1.37664
1.37104
1.39748
1.36812
1.3744
1.35528
1.38328
1.39069
1.38166
1.38016
1.38236
1.3586
1.384
1.37926
1.39104
1.37543
1.38321
1.37887
1.36075
1.35708
1.37434
1.36745
1.36545
1.37765
1.37239
1.38721
1.39587
1.39108
1.37569
1.35773
1.37284
1.36959
1.37868
1.37924
1.37078
1.37805
1.39433
1.36663
1.39182
1.40223
1.39914
1.39181
1.37805
1.37424
1.38104
1.38017
1.38838
1.37679
1.37122
1.37396
1.35817
1.36784
1.36553
1.37438
1.36308
1.38685
1.39768
1.39285
1.39498
1.38501
1.37553
1.37133
1.3793
1.39484
1.38336
1.38868
1.38656
1.36429
1.36458
1.35868
1.38373
1.37299
1.36938
1.37788
1.37179
1.36601
1.36458
1.37715
1.42053
1.39951
1.39012
1.39191
1.38525
1.3996
1.38771
1.39362
1.38979
1.39759
1.39028
1.38813
1.38384
1.39994
1.38486
1.36862
1.38782
1.38305
1.38464
1.37735
1.37902
1.37641
1.37225
1.40012
1.38414
1.38963
1.37568
1.37952
1.37666
1.38626
1.36908
1.37906
1.38578
1.38107
1.37701
1.39189
1.39095
1.38202
1.38848
1.37789
1.37771
1.36949
1.37346
1.38067
1.37763
1.37849
1.39459
1.37888
1.38299
1.3859
1.37331
1.36827
1.3646
1.37289
1.36832
1.36817
1.37245
1.37044
1.39058
1.38264
1.37575
1.37766
1.38391
1.37491
1.38242
1.38562
1.37333
1.36856
1.3737
1.37067
1.36992
1.38925
1.38978
1.39315
1.37297
1.37115
1.36684
1.38208
1.37172
1.37218
1.37137
1.37615
1.36853
1.35841
1.35904
1.35757
1.36059
1.38919
1.36376
1.38533
1.37789
1.40025
1.40139
1.35877
1.34419
1.35614
1.34651
1.35528
1.3547
1.34881
1.3826
1.35732
1.37965
1.37783
1.37797
1.3752
1.38475
1.34625
1.3551
1.36073
1.35632
1.35161
1.35323
1.36074
1.36115
1.36004
1.38506
1.35782
1.3699
1.36953
1.36081
1.35809
1.35131
1.3537
1.35308
1.35511
1.35502
1.35108
1.36069
1.36794
1.38086
1.35948
1.37331
1.37261
1.35689
1.36566
1.36742
1.36084
1.36008
1.36876
1.367
1.35575
1.3495
1.35834
1.36131
1.35898
1.34488
1.3447
1.35773
1.37628
1.36117
1.34641
1.36811
1.35889
1.35894
1.36847
1.37281
1.36007
1.37601
1.36206
1.37334
1.3616
1.36378
1.36343
1.38635
1.38811
1.36956
1.37948
1.37673
1.37928
1.38093
1.38175
1.38684
1.37579
1.37992
1.36361
1.3646
1.37586
1.37295
1.37019
1.35786
1.36252
1.36916
1.36802
1.35948
1.34955
1.36494
1.3523
1.36403
1.35981
1.36606
1.36435
1.37242
1.37639
1.3858
1.38772
1.3856
1.36842
1.37776
1.38178
1.37648
1.38078
1.38261
1.37662
1.37095
1.35875
1.36159
1.36806
1.36176
1.36041
1.37001
1.38124
1.37553
1.36015
1.369
1.36892
1.36837
1.3677
1.37017
1.38429
1.37845
1.37501
1.38277
1.37592
1.37131
1.40286
1.3842
1.36288
1.39465
1.352
1.38445
1.37941
1.38424
1.37744
1.39995
1.39624
1.39691
1.40426
1.37366
1.37157
1.38003
1.36943
1.35451
1.36336
1.37139
1.30464
1.30788
1.30789
1.35305
1.36669
1.31624
1.36564
1.34302
1.35102
1.33024
1.23505
1.23362
1.20689
1.23834
1.1973
1.25015
1.26847
1.23817
1.22364
1.24113
1.23839
1.24223
1.28459
1.23386
1.27286
1.29493
1.25577
1.25313
1.3648
1.35155
1.37311
1.33993
1.33889
1.37412
1.37684
1.35818
1.38406
1.40977
1.36773
1.36541
1.39047
1.35796
1.35831
1.35387
1.36494
1.36063
1.37387
1.37533
1.35865
1.29124
1.30773
1.32654
1.32133
1.28632
1.35473
1.29632
1.29459
1.25902
1.27888
1.28394
1.26459
1.27307
1.35746
1.39114
1.38644
1.37887
1.3179
1.29125
1.35278
1.32569
1.32464
1.31482
1.3371
1.29891
1.29582
1.29324
1.30161
1.31203
1.27196
1.31066
1.33978
1.35683
1.34065
1.33353
1.25714
1.25093
1.37999
1.3973
1.35808
1.38012
1.38646
1.37481
1.39596
1.1911
1.30069
1.25157
1.21546
1.21941
1.19124
1.21585
1.21991
1.22231
1.20888
1.21571
1.21701
1.33068
1.31932
1.22344
1.20424
1.24178
1.2207
1.38802
1.39728
1.39643
1.39942
1.39674
1.39678
1.3537
1.35108
1.36436
1.37578
1.35957
1.37464
1.37065
1.37902
1.3668
1.33479
1.33881
1.33182
1.32712
1.33486
1.32678
1.32252
1.35273
1.34038
1.34082
1.34393
1.34393
1.34588
1.34259
1.29322
1.30179
1.30906
1.31522
1.29922
1.30352
1.30747
1.31998
1.33085
1.32379
1.33161
1.32464
1.32831
1.32592
1.19008
1.22285
1.20283
1.34559
1.28064
1.29054
1.29585
1.28294
1.28557
1.28542
1.28641
1.3361
1.34051
1.2877
1.30541
1.28467
1.30036
1.30408
1.30182
1.29689
1.30505
1.34346
1.34873
1.35211
1.35152
1.36645
1.32452
1.33411
1.31886
1.32913
1.31146
1.32554
1.32371
1.38216
1.37903
1.38958
1.37994
1.38473
1.38238
1.39133
1.37849
1.3887
1.38482
1.38286
1.39096
1.38333
1.36019
1.37639
1.36233
1.36088
1.36344
1.3728
1.37286
1.37017
1.36861
1.39527
1.4057
1.38901
1.34862
1.35132
1.35515
1.35234
1.35327
1.35239
1.35481
1.37533
1.38236
1.37026
1.37326
1.36521
1.3829
1.38449
1.38145
1.38435
1.38763
1.38268
1.38181
1.39816
1.39548
1.39341
1.29778
1.29583
1.28363
1.28897
1.25514
1.2632
1.25466
1.27654
1.29177
1.2883
1.2972
1.28711
1.29649
1.29351
1.36958
1.35266
1.22479
1.22601
1.21977
1.22159
1.22216
1.20148
1.21677
1.21185
1.23937
1.2091
1.22978
1.22842
1.23287
1.22382
1.2335
1.16612
1.18003
1.15643
1.15131
1.17103
1.17153
1.16804
1.16499
1.19094
1.17599
1.19391
1.17221
1.18585
1.17903
1.19631
1.2035
1.22819
1.22404
1.21525
1.20701
1.2217
1.35243
1.18811
1.22211
1.21085
1.24082
1.23628
1.23573
1.22718
1.23517
1.35375
1.35512
1.3493
1.34919
1.35196
1.34497
1.37718
1.35277
1.35683
1.35683
1.35516
1.35753
1.36287
1.35882
1.37946
1.18304
1.18869
1.20227
1.21103
1.22293
1.19456
1.20727
1.21081
1.1824
1.1456
1.16779
1.16615
1.1647
1.15641
1.1614
1.16287
1.19234
1.16388
1.20531
1.18821
1.18315
1.15021
1.15941
1.15624
1.141
1.15682
1.15147
1.35403
1.3548
1.36163
1.3509
1.35467
1.39815
1.40113
1.38233
1.3974
1.35166
1.36128
1.36508
1.38128
1.38066
1.38454
1.40941
1.37821
1.35137
1.35647
1.39756
1.38757
1.39329
1.37151
1.40003
1.37373
1.35697
1.38895
1.36846
1.37607
1.36485
1.38361
1.37634
1.40243
1.40404
1.39427
1.40758
1.39341
1.40135
1.3973
1.33797
1.34712
1.34589
1.34293
1.3537
1.33511
1.34209
1.34233
1.28941
1.30913
1.30794
1.30904
1.30189
1.30617
1.30803
1.35008
1.34487
1.34501
1.33868
1.34782
1.34286
1.34603
1.37605
1.35651
1.34773
1.34469
1.35244
1.35272
1.35159
1.35116
1.34484
1.34322
1.34517
1.34511
1.35161
1.34011
1.34502
1.34803
1.35099
1.35316
1.3425
1.34544
1.34345
1.34247
1.33866
1.34932
1.34321
1.35354
1.33684
1.34627
1.34587
1.29742
1.28477
1.28718
1.29206
1.28765
1.29011
1.29287
1.30915
1.28672
1.2903
1.30533
1.29734
1.28228
1.28939
1.3034
1.28674
1.28812
1.2819
1.28981
1.32039
1.30701
1.32669
1.32123
1.31975
1.31911
1.32431
1.25052
1.27312
1.24323
1.25512
1.25366
1.25877
1.24975
1.25879
1.27854
1.24888
1.26657
1.25716
1.27416
1.25337
1.31337
1.30503
1.32569
1.31544
1.31267
1.30763
1.32221
1.36178
1.35704
1.36175
1.36018
1.35827
1.36449
1.37585
1.37189
1.3692
1.39683
1.3768
1.38393
1.38443
1.38426
1.38234
1.38663
1.33525
1.34521
1.33114
1.33576
1.33612
1.34076
1.33319
1.38966
1.37696
1.38703
1.3675
1.37027
1.38776
1.39155
1.3882
1.38024
1.39026
1.33697
1.34267
1.33337
1.336
1.33673
1.33788
1.33494
1.3414
1.34479
1.32818
1.33553
1.33726
1.34762
1.32573
1.28939
1.26227
1.30557
1.28469
1.28313
1.27615
1.29856
1.36479
1.36094
1.35559
1.36155
1.33379
1.33312
1.33146
1.33254
1.33636
1.33228
1.33082
1.34686
1.33939
1.339
1.328
1.32411
1.32726
1.33233
1.33962
1.34596
1.34038
1.33648
1.3359
1.33921
1.33831
1.33634
1.29603
1.31253
1.28194
1.29773
1.29585
1.30718
1.28609
1.30628
1.28686
1.31201
1.29633
1.30107
1.29131
1.3079
1.37386
1.36667
1.37302
1.36588
1.39352
1.36786
1.33248
1.32566
1.32729
1.32786
1.33245
1.32923
1.33293
1.35288
1.32796
1.33441
1.32858
1.33388
1.33481
1.33405
1.31053
1.326
1.32614
1.32351
1.3206
1.32464
1.32708
1.33031
1.32767
1.32987
1.33336
1.32923
1.33698
1.33188
1.39395
1.37715
1.39644
1.41458
1.42226
1.19142
1.21949
1.21084
1.22771
1.19925
1.21559
1.21036
1.1679
1.17683
1.17434
1.18944
1.17531
1.19122
1.18137
1.18321
1.19725
1.1916
1.21741
1.21048
1.21258
1.18513
1.14035
1.1635
1.15939
1.164
1.15566
1.16182
1.15848
1.34668
1.37036
1.3583
1.36197
1.35523
1.36563
1.40961
1.41495
1.29985
1.31513
1.29062
1.30373
1.30462
1.31102
1.29956
1.29268
1.31526
1.33304
1.33138
1.31728
1.34203
1.33382
1.32199
1.3416
1.3297
1.27364
1.26716
1.25004
1.27037
1.28417
1.25636
1.29287
1.22772
1.25156
1.21094
1.2341
1.24389
1.27591
1.3417
1.35477
1.3616
1.34805
1.34698
1.34793
1.34583
1.37833
1.17518
1.18147
1.22334
1.24846
1.23107
1.22573
1.23169
1.36949
1.35549
1.36803
1.35983
1.36799
1.3616
1.3651
1.32911
1.32176
1.30953
1.318
1.31781
1.32239
1.3178
1.34106
1.34106
1.31399
1.32137
1.31167
1.32481
1.31247
1.32117
1.31745
1.3115
1.31808
1.31329
1.30554
1.32791
1.3142
1.308
1.25558
1.2511
1.29429
1.29048
1.28885
1.29522
1.30839
1.29544
1.30117
1.30004
1.29075
1.30033
1.33145
1.31791
1.33983
1.34953
1.35898
1.35076
1.35223
1.34972
1.35389
1.34595
1.34387
1.34673
1.3518
1.34198
1.32173
1.33162
1.33529
1.3306
1.32647
1.32739
1.33481
1.33811
1.34156
1.34052
1.34156
1.34274
1.31083
1.32455
1.30773
1.316
1.31648
1.31811
1.31155
1.35241
1.34307
1.34908
1.35451
1.35165
1.34569
1.35206
1.34488
1.34237
1.34788
1.34196
1.34238
1.3454
1.34185
1.33493
1.33398
1.31602
1.32085
1.32566
1.3289
1.31676
1.33383
1.31779
1.31972
1.31851
1.33259
1.32313
1.32265
1.25865
1.24868
1.23014
1.24646
1.28069
1.28865
1.28676
1.28964
1.26428
1.26325
1.24344
1.26227
1.26243
1.26328
1.25869
1.27234
1.2665
1.23879
1.24923
1.25378
1.25581
1.24338
1.29044
1.27583
1.29407
1.27947
1.28858
1.27704
1.28807
1.33718
1.34345
1.33089
1.34309
1.34053
1.33824
1.3411
1.34142
1.31706
1.30599
1.30633
1.32027
1.32322
1.31564
1.31376
1.33095
1.33221
1.33259
1.33687
1.32795
1.3446
1.34705
1.33636
1.34021
1.30532
1.31317
1.30338
1.31425
1.30482
1.3119
1.3049
1.29328
1.30101
1.31649
1.32911
1.30759
1.30674
1.31374
1.31054
1.31352
1.32305
1.29621
1.32636
1.32573
1.32971
1.32801
1.31843
1.31562
1.32821
1.32256
1.31752
1.23421
1.24889
1.24868
1.26131
1.32346
1.31471
1.31732
1.31257
1.31888
1.28371
1.28731
1.29074
1.28813
1.29301
1.28586
1.27909
1.32404
1.30531
1.30757
1.30323
1.31202
1.30683
1.30886
1.2986
1.29333
1.29349
1.28088
1.29411
1.28835
1.28763
1.31362
1.29897
1.29828
1.30035
1.30338
1.30186
1.30377
1.39636
1.40044
1.39533
1.40584
1.40905
1.40307
1.40672
1.40123
1.41038
1.40404
1.41239
1.38934
1.3915
1.40277
1.40338
1.39653
1.38595
1.3945
1.394
1.39413
1.38057
1.38153
1.37455
1.38363
1.37927
1.39323
1.40412
1.39246
1.40285
1.40831
1.39894
1.41005
1.41746
1.41052
1.40821
1.40982
1.4205
1.41409
1.40887
1.39108
1.40092
1.4112
1.38291
1.37971
1.38416
1.3825
1.37646
1.38252
1.38121
1.36554
1.36006
1.35402
1.35914
1.36032
1.36314
1.3592
1.38726
1.40279
1.39887
1.39098
1.38676
1.38551
1.38363
1.36713
1.36954
1.35377
1.35945
1.36851
1.36933
1.35534
1.3533
1.36864
1.35368
1.35643
1.35378
1.3564
1.35444
1.39692
1.38915
1.39782
1.36791
1.37118
1.36389
1.36395
1.37235
1.36435
1.40368
1.38192
1.38802
1.39468
1.38957
1.3842
1.39152
1.39123
1.38175
1.38908
1.38087
1.36809
1.36542
1.36265
1.36404
1.37549
1.36745
1.36563
1.3697
1.39115
1.38949
1.39488
1.39853
1.39128
1.38684
1.39018
1.36565
1.36313
1.37294
1.36715
1.36579
1.36329
1.37352
1.38311
1.38355
1.38584
1.37345
1.38205
1.3767
1.376
1.40974
1.39987
1.39889
1.38727
1.39277
1.39445
1.40094
1.37027
1.3724
1.36176
1.37075
1.37139
1.373
1.37113
1.39347
1.3897
1.39865
1.39574
1.39681
1.40282
1.3939
1.38883
1.40988
1.39931
1.3956
1.36513
1.37305
1.36305
1.36964
1.36248
1.37169
1.36549
1.38406
1.38719
1.39534
1.39088
1.38259
1.37777
1.38453
1.38077
1.37777
1.37807
1.38548
1.40568
1.38648
1.39368
1.38265
1.38388
1.40019
1.38907
1.38573
1.36745
1.37335
1.37397
1.37473
1.37314
1.37251
1.37251
1.37486
1.38214
1.37696
1.36863
1.37032
1.36574
1.36518
1.36597
1.36786
1.36511
1.37471
1.37012
1.36449
1.37266
1.36669
1.36896
1.36743
1.37192
1.37506
1.38633
1.38735
1.38852
1.35737
1.3787
1.37644
1.37232
1.383
1.37925
1.37758
1.34828
1.34988
1.34713
1.35334
1.35179
1.35215
1.35128
1.37314
1.37452
1.36703
1.3711
1.37515
1.3728
1.36907
1.35784
1.35355
1.35727
1.35924
1.36166
1.35725
1.36012
1.36754
1.3566
1.35598
1.35509
1.36094
1.35548
1.35542
1.35116
1.35502
1.35436
1.35038
1.34718
1.35041
1.34931
1.36903
1.35955
1.36289
1.36178
1.359
1.36058
1.36239
1.35934
1.34812
1.35818
1.34954
1.35777
1.36597
1.36754
1.37476
1.36565
1.36515
1.36136
1.36676
1.37413
1.36511
1.37459
1.37079
1.34507
1.35134
1.34779
1.35043
1.35283
1.35561
1.35315
1.35667
1.35088
1.36534
1.35195
1.371
1.37051
1.37552
1.37353
1.37071
1.3765
1.37654
1.38584
1.37754
1.37736
1.37856
1.38159
1.37407
1.3775
1.37825
1.37269
1.36906
1.37166
1.37308
1.35552
1.35992
1.35147
1.35743
1.35498
1.36076
1.3564
1.37374
1.36396
1.37278
1.36702
1.36963
1.3677
1.37351
1.39332
1.38684
1.37708
1.3826
1.37495
1.37999
1.38013
1.37844
1.37854
1.36047
1.36558
1.36106
1.35932
1.36227
1.36149
1.36252
1.36235
1.36889
1.3624
1.36657
1.36168
1.36814
1.36285
1.374
1.37606
1.38055
1.37539
1.37612
1.37632
1.38778
1.40071
1.39084
1.37419
1.40838
1.39424
1.3902
1.38394
1.40109
1.41075
1.41055
1.41517
1.40577
1.40079
1.35099
1.33808
1.3379
1.35853
1.33621
1.34571
1.32063
1.33014
1.31479
1.32995
1.36033
1.34699
1.34141
1.34614
1.34099
1.23134
1.24366
1.24475
1.23631
1.24711
1.24253
1.24282
1.27943
1.25517
1.30367
1.27107
1.27803
1.2623
1.3015
1.2447
1.21342
1.21828
1.21661
1.202
1.29198
1.28053
1.25604
1.37092
1.3839
1.36669
1.37677
1.37266
1.37631
1.34509
1.32579
1.38161
1.39506
1.34504
1.37575
1.33692
1.3067
1.28546
1.33046
1.27109
1.32895
1.31793
1.33541
1.33076
1.26191
1.25014
1.28405
1.26644
1.26625
1.25993
1.26792
1.39982
1.37785
1.37108
1.37399
1.33942
1.32794
1.31996
1.3057
1.30754
1.32217
1.32915
1.3554
1.32842
1.33512
1.31817
1.34067
1.31299
1.32715
1.32723
1.31724
1.32145
1.3109
1.31926
1.33182
1.34176
1.33677
1.34914
1.18854
1.20237
1.21389
1.19989
1.20829
1.20649
1.17162
1.16037
1.42059
1.42117
1.41162
1.42266
1.32061
1.33685
1.28426
1.30292
1.26226
1.29519
1.27479
1.30728
1.29368
1.29591
1.28802
1.29716
1.27168
1.28395
1.24677
1.2695
1.27132
1.27542
1.26449
1.23993
1.26553
1.26253
1.26668
1.25497
1.26312
1.26135
1.25062
1.23691
1.2329
1.24318
1.23843
1.24286
1.24
1.27001
1.28525
1.28205
1.2766
1.28065
1.28098
1.27936
1.266
1.2442
1.28198
1.2602
1.26427
1.24929
1.27565
1.25685
1.23961
1.27759
1.26031
1.25699
1.24543
1.2715
1.26281
1.20619
1.21292
1.24986
1.22871
1.22793
1.22163
1.23731
1.40101
1.40484
1.3976
1.40323
1.39872
1.39663
1.40595
1.39968
1.39851
1.39509
1.40036
1.40615
1.39976
1.40591
1.40463
1.40844
1.35012
1.35993
1.35537
1.35809
1.35615
1.35682
1.3534
1.33051
1.33918
1.34317
1.34325
1.32021
1.33687
1.35352
1.35974
1.35849
1.34527
1.35034
1.35125
1.34997
1.35026
1.35455
1.35052
1.3502
1.35367
1.35419
1.33639
1.348
1.35838
1.35092
1.34349
1.35753
1.35679
1.35661
1.35563
1.38477
1.37709
1.37888
1.35128
1.36802
1.35587
1.3676
1.36023
1.36469
1.36053
1.39237
1.37813
1.37541
1.36328
1.39587
1.37881
1.37586
1.37324
1.38414
1.39026
1.38618
1.36026
1.37533
1.37251
1.37218
1.37028
1.37521
1.37927
1.39394
1.39565
1.39023
1.38577
1.32414
1.32098
1.32003
1.32267
1.31757
1.32085
1.32264
1.33384
1.32923
1.33541
1.33347
1.32853
1.33103
1.33401
1.35024
1.34767
1.35493
1.34523
1.34842
1.34347
1.34787
1.32631
1.33271
1.34073
1.34302
1.33256
1.33178
1.33639
1.3376
1.32654
1.33301
1.32544
1.33692
1.32817
1.33087
1.33596
1.32799
1.323
1.32795
1.3329
1.32907
1.32772
1.32596
1.3399
1.33598
1.34223
1.33721
1.33769
1.3364
1.34824
1.35995
1.36798
1.35583
1.34905
1.35053
1.3569
1.33104
1.33394
1.33488
1.32699
1.33155
1.33242
1.33002
1.33392
1.32455
1.32548
1.33682
1.3283
1.32814
1.32865
1.34495
1.33506
1.33368
1.33276
1.33834
1.33476
1.33347
1.33385
1.34092
1.3455
1.3397
1.3354
1.33594
1.33663
1.32884
1.33488
1.33474
1.34085
1.32989
1.33537
1.33473
1.34896
1.33519
1.34108
1.33004
1.34511
1.33734
1.33795
1.3351
1.32872
1.35259
1.33336
1.33712
1.33399
1.34132
1.32974
1.33148
1.32151
1.32594
1.3261
1.3302
1.32429
1.31213
1.32492
1.32581
1.32362
1.31312
1.31716
1.31938
1.32253
1.31376
1.30566
1.31593
1.31721
1.31686
1.31257
1.32562
1.33413
1.33137
1.32714
1.32906
1.3289
1.32638
1.32063
1.31941
1.3305
1.3261
1.32484
1.32543
1.33017
1.32173
1.31129
1.32651
1.32067
1.32203
1.31949
1.32587
1.34136
1.3387
1.35017
1.34245
1.34066
1.33962
1.34213
1.33238
1.33647
1.32819
1.3332
1.33346
1.33558
1.33234
1.34304
1.34563
1.3528
1.3484
1.34774
1.34565
1.34669
1.33478
1.32797
1.33497
1.33521
1.33512
1.33047
1.33593
1.34183
1.33748
1.34284
1.33861
1.34218
1.33723
1.34172
1.33921
1.32987
1.33704
1.33404
1.33633
1.33358
1.33655
1.33518
1.33721