/*--------------------------------*- C++ -*----------------------------------*\
| =========                 |                                                 |
| \\      /  F ield         | OpenFOAM: The Open Source CFD Toolbox           |
|  \\    /   O peration     | Version:  v1612+                                |
|   \\  /    A nd           | Web:      www.OpenFOAM.com                      |
|    \\/     M anipulation  |                                                 |
\*---------------------------------------------------------------------------*/
FoamFile
{
    version     2.0;
    format      ascii;
    class       volScalarField;
    location    "239";
    object      p;
}
// * * * * * * * * * * * * * * * * * * * * * * * * * * * * * * * * * * * * * //

dimensions      [0 2 -2 0 0 0 0];

internalField   nonuniform List<scalar> 
16986
(
0.0803748
0.162041
0.146942
0.0789613
0.0815688
0.0784471
0.0806089
0.0798523
0.0821228
0.0803948
0.0813985
0.0835814
0.0813236
0.079888
0.0833998
0.143881
0.142124
0.148047
0.141536
0.144536
0.142282
0.147639
0.145159
0.148159
0.148177
0.150292
0.146319
0.142905
0.144427
0.142273
0.149877
0.145813
0.146213
0.126291
0.122315
0.125979
0.125995
0.130478
0.132635
0.131207
0.130228
0.126222
0.1286
0.13064
0.126855
0.127291
0.125958
0.123905
0.131107
0.100448
0.101111
0.094856
0.0946918
0.101276
0.094417
0.0985805
0.0954365
0.100651
0.103829
0.0952445
0.0900029
0.0900008
0.0914718
0.0954463
0.09731
0.0935582
0.092031
0.0921849
0.0932737
0.132673
0.133354
0.133787
0.133287
0.135572
0.133208
0.13301
0.129908
0.131848
0.133179
0.133897
0.136714
0.133873
0.137098
0.139975
0.134889
0.145501
0.147536
0.149275
0.147766
0.143505
0.14525
0.149452
0.1443
0.149537
0.146389
0.14791
0.146547
0.155972
0.155222
0.157445
0.159846
0.157068
0.103798
0.096925
0.0956823
0.0961646
0.0989432
0.096328
0.0982397
0.159132
0.157176
0.156712
0.157774
0.158343
0.154961
0.153622
0.156282
0.162246
0.157088
0.161915
0.158878
0.158834
0.157145
0.157637
0.154532
0.151447
0.140788
0.143358
0.139296
0.140862
0.149379
0.147204
0.144933
0.145178
0.143684
0.142506
0.144754
0.143612
0.142252
0.146479
0.13543
0.135677
0.145865
0.142168
0.144402
0.146105
0.144578
0.143807
0.141248
0.141448
0.141842
0.144636
0.143856
0.143369
0.146219
0.137301
0.0763253
0.0779447
0.0782287
0.0736884
0.0781318
0.0718876
0.0740588
0.0747738
0.0746285
0.0683983
0.0727814
0.0828632
0.0808163
0.0712538
0.077396
0.0737357
0.0788299
0.0806294
0.074689
0.0821946
0.14475
0.145987
0.14479
0.140539
0.143985
0.143203
0.144483
0.141979
0.144036
0.140968
0.143704
0.142564
0.14876
0.143242
0.149731
0.117696
0.117978
0.119101
0.119259
0.118993
0.118345
0.11717
0.117799
0.118359
0.117042
0.119433
0.122038
0.124408
0.111974
0.114953
0.112822
0.121608
0.116733
0.121059
0.135803
0.135529
0.13135
0.131297
0.132957
0.133016
0.131797
0.132441
0.136411
0.135531
0.133017
0.135698
0.132706
0.130381
0.136844
0.131826
0.132147
0.131759
0.131702
0.128465
0.129648
0.128704
0.136744
0.131495
0.0901156
0.0936612
0.0936277
0.0942532
0.0877752
0.0937322
0.0908833
0.0909061
0.091256
0.0849871
0.091264
0.0909661
0.0915517
0.0910466
0.0906947
0.0910339
0.0895897
0.0914846
0.0901624
0.09443
0.0925087
0.0867105
0.0944688
0.0935703
0.0861848
0.0919849
0.0924583
0.0912682
0.0973525
0.154809
0.151908
0.155824
0.157782
0.154118
0.156227
0.154242
0.157105
0.155213
0.151355
0.154272
0.153515
0.157703
0.159467
0.151649
0.153738
0.158747
0.155884
0.155667
0.151884
0.149435
0.149932
0.152063
0.158041
0.145001
0.15225
0.153857
0.155995
0.155139
0.154354
0.154076
0.156101
0.157159
0.0800779
0.0751517
0.0729626
0.0741526
0.0725222
0.080025
0.0788249
0.0768505
0.0769949
0.0737106
0.072348
0.0739213
0.0695945
0.0670932
0.0717381
0.0704854
0.0734575
0.0739669
0.0766204
0.0715778
0.0788239
0.15598
0.156206
0.154164
0.151118
0.155514
0.15224
0.15251
0.15785
0.162037
0.155097
0.152259
0.155793
0.155841
0.157363
0.159622
0.159339
0.15452
0.155864
0.158708
0.160071
0.15608
0.157074
0.157653
0.158739
0.153119
0.151475
0.151256
0.149423
0.155862
0.152436
0.144975
0.149843
0.149552
0.148325
0.162281
0.159383
0.159556
0.162307
0.159323
0.158755
0.158887
0.162427
0.164377
0.158687
0.159046
0.159927
0.164341
0.164102
0.156741
0.163775
0.160681
0.15011
0.147609
0.146948
0.148045
0.142037
0.149469
0.151706
0.139355
0.150045
0.146611
0.150849
0.147239
0.151193
0.151579
0.152105
0.141942
0.143123
0.163411
0.159143
0.157694
0.164265
0.166368
0.157463
0.164435
0.160973
0.163788
0.161093
0.161513
0.170911
0.161762
0.117966
0.119422
0.124469
0.120009
0.124775
0.121746
0.120145
0.125064
0.118899
0.120623
0.116544
0.117611
0.11771
0.121226
0.117237
0.117232
0.114963
0.13069
0.133903
0.133324
0.132272
0.136983
0.13029
0.130438
0.132646
0.133122
0.132016
0.136952
0.131956
0.133733
0.136636
0.135924
0.13849
0.131599
0.134547
0.133161
0.0992226
0.0977775
0.0949371
0.0994101
0.0954236
0.0942311
0.0974366
0.0901519
0.0932876
0.0931427
0.0949082
0.094813
0.0900046
0.0925795
0.125834
0.126049
0.129042
0.125569
0.128583
0.130368
0.129968
0.130631
0.124833
0.125655
0.128698
0.125441
0.128806
0.130866
0.128896
0.122927
0.119335
0.126577
0.127271
0.0738426
0.0802961
0.0803773
0.0782417
0.0774881
0.0754308
0.075929
0.0789109
0.0753043
0.0827511
0.0772691
0.0716016
0.0790423
0.072621
0.0765049
0.0754116
0.0754361
0.0759512
0.072065
0.0755282
0.0753221
0.0730074
0.0719929
0.0797557
0.079608
0.0816288
0.0846867
0.0806654
0.0736057
0.0755759
0.0765298
0.0753672
0.0805448
0.0793808
0.0754889
0.072129
0.0754346
0.0842561
0.0825508
0.0790591
0.0787724
0.069937
0.0714523
0.0757633
0.0771052
0.137956
0.134388
0.139041
0.142076
0.138512
0.13917
0.140258
0.135199
0.133573
0.130987
0.133385
0.135106
0.131323
0.131491
0.139703
0.138739
0.129904
0.125766
0.133104
0.131855
0.133648
0.134878
0.0872597
0.0812607
0.0874336
0.0828589
0.0856468
0.0934907
0.0853997
0.0892992
0.0910386
0.089484
0.0879129
0.088104
0.0935865
0.0915106
0.0921412
0.0899162
0.0883305
0.0843871
0.0913766
0.0864041
0.145949
0.144455
0.146466
0.138357
0.148688
0.141244
0.140405
0.136419
0.143935
0.146618
0.142435
0.157917
0.151822
0.152974
0.148587
0.152937
0.155462
0.156032
0.155555
0.120228
0.123287
0.125484
0.12331
0.115033
0.121031
0.124049
0.121452
0.12476
0.125628
0.123891
0.11754
0.117344
0.123614
0.12414
0.120934
0.125766
0.126347
0.117005
0.118933
0.117736
0.121649
0.147596
0.145013
0.148221
0.149057
0.141614
0.142099
0.145469
0.141281
0.14553
0.150975
0.143838
0.14912
0.146447
0.144816
0.140492
0.144941
0.147529
0.148405
0.144583
0.146513
0.0802569
0.078574
0.0801564
0.0794768
0.0816167
0.0849725
0.0789204
0.0782817
0.0797449
0.0815594
0.0806595
0.0859163
0.0807491
0.0822557
0.107987
0.107768
0.10991
0.111282
0.10745
0.105999
0.104522
0.104726
0.109226
0.107454
0.107122
0.103359
0.101304
0.106526
0.10144
0.0991493
0.10288
0.103013
0.099744
0.107287
0.106105
0.099817
0.100595
0.10421
0.135703
0.135784
0.134684
0.132952
0.126959
0.127605
0.131589
0.133156
0.134947
0.139123
0.135818
0.138638
0.130727
0.128285
0.138256
0.132516
0.133164
0.132274
0.0873891
0.0836152
0.084293
0.0854949
0.0877915
0.0936833
0.0825495
0.0820726
0.0832212
0.0864297
0.080475
0.0835336
0.0852526
0.0814676
0.160748
0.163946
0.162522
0.163263
0.162362
0.159577
0.157773
0.159087
0.158106
0.157098
0.157507
0.165719
0.161465
0.156551
0.152722
0.150737
0.161957
0.161601
0.157557
0.163106
0.15742
0.160532
0.163058
0.158669
0.166363
0.160723
0.164434
0.160586
0.163177
0.151078
0.149773
0.152789
0.153826
0.16041
0.156027
0.162115
0.152185
0.157055
0.146614
0.148644
0.148388
0.143644
0.146052
0.151718
0.149008
0.151993
0.140851
0.143213
0.139292
0.138281
0.132798
0.149383
0.14751
0.153705
0.13907
0.138506
0.138935
0.143656
0.13586
0.133734
0.139231
0.137386
0.135121
0.136528
0.140579
0.140879
0.142256
0.137118
0.140048
0.138625
0.134848
0.130807
0.127317
0.131019
0.129789
0.12927
0.130647
0.130826
0.119798
0.139992
0.132655
0.138178
0.132367
0.126531
0.125646
0.124543
0.121178
0.126267
0.128744
0.124703
0.122843
0.128117
0.12498
0.129123
0.118046
0.111943
0.112882
0.120721
0.121944
0.123478
0.121855
0.119065
0.119207
0.122188
0.118134
0.114693
0.117836
0.11873
0.123807
0.116725
0.112198
0.107593
0.108456
0.10892
0.11035
0.105614
0.108658
0.105915
0.1101
0.111999
0.111296
0.101114
0.106696
0.104487
0.100549
0.108918
0.10358
0.107178
0.10245
0.104856
0.105981
0.107409
0.100304
0.106227
0.10542
0.109825
0.103577
0.101781
0.0981848
0.104711
0.102775
0.109174
0.103749
0.0968084
0.102562
0.0981362
0.0964313
0.0982697
0.0929968
0.0907654
0.0899591
0.0994913
0.0987911
0.0855429
0.0909791
0.0920147
0.0943984
0.0926626
0.0916169
0.0888257
0.0894701
0.0934199
0.0884185
0.0912497
0.0886155
0.08578
0.0841362
0.0801119
0.084532
0.0865511
0.0818442
0.0787345
0.0791531
0.0826639
0.0820602
0.0871566
0.0831699
0.085044
0.0795788
0.0831178
0.083017
0.0830649
0.0795685
0.0799218
0.0781894
0.0745197
0.078193
0.0807801
0.0728445
0.0742667
0.0802414
0.0815982
0.0788217
0.0763863
0.0731226
0.0719185
0.0742361
0.0698531
0.0757032
0.0712164
0.0785101
0.0741588
0.0742706
0.0710842
0.0823409
0.0755055
0.0755251
0.0792134
0.077083
0.0705838
0.0828661
0.0860234
0.080332
0.0818355
0.0822431
0.0799685
0.0839157
0.0786651
0.0800946
0.0802781
0.0800616
0.0885357
0.0816956
0.079182
0.0777407
0.0770347
0.0854207
0.0826847
0.0758525
0.0733265
0.0700776
0.0738149
0.0772467
0.0833493
0.0798186
0.0731842
0.0728699
0.0825575
0.0803989
0.0799885
0.0800685
0.0763929
0.0794286
0.0785222
0.077896
0.0773107
0.0744252
0.0885788
0.0860868
0.0805375
0.0776382
0.0839439
0.0809712
0.0840056
0.0822387
0.075822
0.0789823
0.0774232
0.077397
0.0736549
0.07243
0.0903855
0.0875008
0.0804667
0.0856185
0.0891299
0.0826728
0.0836051
0.0774449
0.080366
0.0890345
0.0854964
0.0850642
0.087606
0.0910721
0.0885554
0.0843038
0.0896347
0.0819168
0.0871646
0.0840096
0.0807423
0.0843576
0.0833012
0.0803895
0.0870965
0.0753913
0.0807522
0.0847555
0.0851442
0.0848724
0.0779262
0.0782511
0.0789855
0.0810631
0.0847547
0.0788466
0.0756825
0.0830224
0.0850837
0.0817476
0.0788301
0.0903529
0.0865064
0.0867728
0.088291
0.085467
0.0906516
0.0891109
0.0806447
0.0761944
0.0773438
0.0790839
0.0726033
0.0848184
0.0811401
0.0778394
0.0768378
0.093635
0.0908037
0.0909894
0.0912691
0.0912382
0.0857355
0.0818958
0.0887635
0.0861982
0.0805471
0.0801832
0.0778466
0.0772925
0.0858228
0.0777689
0.0812931
0.0819721
0.0810893
0.0895421
0.0863366
0.0788068
0.0909221
0.0850068
0.0819292
0.0816336
0.0746806
0.0730573
0.0751187
0.0756514
0.0821597
0.076183
0.076035
0.0817667
0.081703
0.0838595
0.0791549
0.0732818
0.0709857
0.0766043
0.0798696
0.0827573
0.0821108
0.0778951
0.084449
0.0807657
0.0813947
0.0821744
0.0797101
0.0890693
0.084695
0.0817416
0.0893544
0.0838644
0.081937
0.080281
0.0831567
0.0816279
0.0791784
0.0850908
0.0838309
0.0988819
0.0962962
0.092897
0.0884886
0.0897
0.0910987
0.0846615
0.0875899
0.0903777
0.08819
0.0853335
0.0987609
0.0954906
0.0942609
0.093455
0.100096
0.0870909
0.092118
0.0941856
0.0899447
0.0895213
0.0895522
0.0858722
0.0946538
0.0972925
0.0946313
0.0847666
0.0831967
0.0912682
0.0957835
0.0957789
0.0915789
0.0915203
0.0943067
0.0914724
0.0906332
0.107331
0.104106
0.0979889
0.0926244
0.0921772
0.0975868
0.0866213
0.097335
0.0951046
0.0947017
0.102768
0.0989221
0.0988973
0.093658
0.0921817
0.0975673
0.0919575
0.0900916
0.0904611
0.0908492
0.0860277
0.0980662
0.0943289
0.0934459
0.0948767
0.0971655
0.0952372
0.0922831
0.0974155
0.0977419
0.104934
0.0975741
0.103683
0.0997479
0.10183
0.0919419
0.0983949
0.09262
0.0933424
0.0953308
0.0963826
0.0949092
0.0923037
0.0924194
0.0884201
0.103088
0.0961238
0.0985261
0.101653
0.0848444
0.0870263
0.0942715
0.0871551
0.0835527
0.0906959
0.0894258
0.0972318
0.100584
0.0903905
0.105267
0.105138
0.0972204
0.0979441
0.099795
0.0954922
0.0962918
0.0968657
0.0996068
0.0968646
0.0959383
0.0913984
0.0960326
0.0981338
0.101139
0.0982975
0.0902932
0.0915169
0.0906183
0.0858755
0.0904339
0.0925999
0.0895511
0.089398
0.0876946
0.0872372
0.101934
0.0993825
0.104022
0.0914526
0.0913453
0.0966454
0.0935731
0.0930822
0.0941368
0.0834468
0.113401
0.102623
0.103975
0.102791
0.0995563
0.100615
0.0978788
0.0957985
0.0928143
0.0946176
0.0887824
0.0973715
0.0926129
0.104407
0.10436
0.109844
0.106789
0.11275
0.110479
0.101391
0.103466
0.109207
0.0973281
0.0982897
0.0924981
0.0950852
0.100982
0.0968381
0.0959779
0.0946395
0.105908
0.101886
0.0991749
0.097609
0.101992
0.101481
0.104435
0.107021
0.101674
0.0983118
0.103204
0.0970627
0.0983002
0.0948335
0.0901823
0.096743
0.0923518
0.0931663
0.100758
0.0965465
0.0905501
0.0948277
0.0964247
0.0971783
0.0943025
0.112387
0.115957
0.110602
0.11426
0.108754
0.106637
0.112874
0.107387
0.105103
0.10093
0.102
0.106008
0.100567
0.0998491
0.115057
0.108432
0.109387
0.112143
0.106079
0.104348
0.106688
0.110006
0.106002
0.109676
0.10465
0.0982013
0.101066
0.110354
0.107647
0.105965
0.102953
0.0957503
0.0983484
0.100784
0.108189
0.103445
0.103712
0.105366
0.106008
0.105076
0.103645
0.117391
0.114591
0.114245
0.106362
0.104307
0.109957
0.115729
0.113937
0.105079
0.106797
0.103688
0.0995941
0.100036
0.100094
0.101344
0.0999899
0.0993874
0.105952
0.104544
0.10052
0.0994181
0.105539
0.101374
0.101515
0.102791
0.103936
0.113843
0.11488
0.107296
0.105951
0.109946
0.109634
0.109538
0.111717
0.107896
0.105639
0.104131
0.103951
0.102461
0.11009
0.104335
0.110488
0.113834
0.118832
0.102622
0.105826
0.0961771
0.102035
0.106958
0.106172
0.102553
0.110141
0.106275
0.104696
0.103723
0.110481
0.103153
0.107157
0.114014
0.103093
0.107996
0.106743
0.10639
0.102886
0.112401
0.114592
0.110508
0.110824
0.11024
0.114661
0.112941
0.110234
0.109877
0.104463
0.112813
0.114037
0.116458
0.111097
0.113857
0.114668
0.111519
0.111778
0.109408
0.115477
0.115292
0.105309
0.101845
0.107522
0.112644
0.110201
0.107301
0.114582
0.119837
0.109794
0.104453
0.105043
0.110403
0.107961
0.104013
0.100552
0.109294
0.112695
0.106264
0.109355
0.106495
0.106528
0.103164
0.102796
0.118457
0.12501
0.118685
0.112297
0.122989
0.117279
0.111549
0.109506
0.109896
0.119805
0.125724
0.119806
0.120667
0.112128
0.117559
0.105588
0.109215
0.113748
0.117722
0.115632
0.1142
0.117413
0.11859
0.114844
0.117558
0.111661
0.116211
0.112654
0.110915
0.110854
0.113875
0.110334
0.115199
0.123612
0.119706
0.117757
0.121991
0.121224
0.120793
0.123394
0.125617
0.114865
0.118007
0.117818
0.114919
0.112801
0.125908
0.122753
0.119394
0.112526
0.112623
0.107994
0.117586
0.116705
0.125084
0.122102
0.117738
0.122349
0.123477
0.118829
0.122036
0.117714
0.119976
0.118657
0.118341
0.124221
0.121252
0.119095
0.115811
0.118212
0.119207
0.129724
0.123917
0.116604
0.121896
0.122666
0.120781
0.121543
0.130293
0.119297
0.12653
0.129696
0.126165
0.12374
0.125018
0.124561
0.121788
0.128849
0.12783
0.126668
0.127602
0.12388
0.125096
0.126522
0.127566
0.131939
0.127876
0.125757
0.126044
0.127039
0.11678
0.122333
0.122736
0.123386
0.124153
0.120188
0.127687
0.126964
0.127278
0.130184
0.124801
0.122265
0.118497
0.126887
0.124537
0.119313
0.118845
0.127651
0.124783
0.119439
0.119234
0.111921
0.120868
0.11562
0.118016
0.118821
0.118029
0.123534
0.119858
0.122224
0.116144
0.128647
0.120437
0.122156
0.123883
0.118337
0.117229
0.11747
0.116731
0.118441
0.113848
0.115964
0.114116
0.117256
0.137184
0.132484
0.127331
0.131428
0.135851
0.134972
0.127888
0.129945
0.1387
0.133743
0.128342
0.127012
0.12059
0.120654
0.127667
0.125539
0.122859
0.131409
0.128535
0.123716
0.123953
0.125195
0.125178
0.130225
0.128899
0.133397
0.125872
0.125796
0.126579
0.12658
0.12658
0.131265
0.124521
0.127271
0.127685
0.132797
0.124563
0.126032
0.118406
0.121472
0.121263
0.119052
0.131355
0.1237
0.121012
0.12557
0.118652
0.117692
0.115416
0.120237
0.117304
0.113834
0.112815
0.119236
0.128513
0.124009
0.123056
0.125234
0.124904
0.126622
0.135532
0.132963
0.125576
0.129164
0.132842
0.137559
0.127845
0.125933
0.130505
0.130239
0.12033
0.123107
0.122427
0.123305
0.119673
0.129941
0.130812
0.127059
0.125087
0.127382
0.13586
0.134785
0.12959
0.130206
0.126709
0.126543
0.147507
0.143918
0.145553
0.13924
0.137006
0.133911
0.142903
0.13801
0.138656
0.141478
0.134386
0.137948
0.129429
0.138091
0.134929
0.129222
0.131625
0.126833
0.123605
0.130522
0.134826
0.128869
0.132668
0.128567
0.126976
0.129204
0.137445
0.129368
0.131507
0.12942
0.132434
0.131166
0.132005
0.132463
0.139681
0.140245
0.133898
0.128131
0.128863
0.127086
0.134339
0.126353
0.123738
0.129238
0.125227
0.127134
0.119013
0.128073
0.145824
0.144616
0.141856
0.138934
0.131151
0.137148
0.135777
0.143819
0.142065
0.142404
0.132697
0.140152
0.141593
0.144277
0.140961
0.138378
0.141669
0.15049
0.143406
0.135282
0.144443
0.13978
0.138153
0.135861
0.13872
0.136194
0.134018
0.135231
0.141074
0.134325
0.139946
0.138213
0.131593
0.13148
0.131849
0.131949
0.140734
0.139252
0.143667
0.13411
0.145117
0.141436
0.141296
0.14191
0.146567
0.14659
0.142109
0.1376
0.145942
0.127782
0.135577
0.134375
0.132799
0.129929
0.141837
0.139919
0.134597
0.136599
0.141122
0.146745
0.14017
0.138773
0.140928
0.134539
0.136011
0.138566
0.140955
0.126585
0.133782
0.129154
0.125107
0.127615
0.123933
0.131096
0.129149
0.125559
0.126057
0.126925
0.132643
0.130738
0.147941
0.151294
0.149678
0.14708
0.14369
0.134262
0.138565
0.141858
0.144357
0.137753
0.135686
0.136642
0.136959
0.143435
0.144742
0.142245
0.14473
0.141307
0.139206
0.140185
0.138798
0.140907
0.129464
0.13516
0.131143
0.132677
0.141406
0.137231
0.13049
0.133638
0.16392
0.155773
0.153474
0.150195
0.15821
0.155587
0.152979
0.150196
0.14435
0.150829
0.14865
0.14455
0.154328
0.145644
0.157631
0.140722
0.142883
0.143918
0.128272
0.129213
0.126892
0.126047
0.137893
0.136973
0.131973
0.147288
0.142567
0.136576
0.147696
0.136515
0.140581
0.135235
0.143321
0.14782
0.149618
0.149749
0.136815
0.14249
0.139756
0.137722
0.138034
0.139347
0.156529
0.153328
0.152324
0.151805
0.152071
0.145474
0.15104
0.15134
0.1474
0.150505
0.146706
0.148973
0.145231
0.144564
0.14127
0.139926
0.147285
0.146006
0.141616
0.144345
0.142458
0.148924
0.153428
0.149511
0.154073
0.146569
0.150925
0.143947
0.15101
0.152331
0.148832
0.144737
0.146892
0.150105
0.148546
0.151585
0.152307
0.151769
0.149626
0.161343
0.156787
0.14819
0.153931
0.156887
0.153733
0.142934
0.146007
0.142889
0.149682
0.148418
0.145849
0.148132
0.150337
0.150283
0.155726
0.15408
0.151196
0.150621
0.147515
0.147067
0.15022
0.14916
0.161969
0.16327
0.157462
0.154514
0.148399
0.161266
0.164484
0.152893
0.16159
0.152544
0.151127
0.153141
0.156931
0.158051
0.161634
0.157409
0.161359
0.151481
0.152657
0.160194
0.155973
0.155671
0.157544
0.155497
0.156608
0.153369
0.155836
0.159265
0.154471
0.151129
0.154264
0.154333
0.151456
0.154337
0.154607
0.162828
0.158393
0.160092
0.15078
0.15335
0.152097
0.14974
0.159054
0.159834
0.161094
0.149361
0.153859
0.158115
0.161139
0.156525
0.151329
0.160805
0.159872
0.159059
0.159623
0.159845
0.156786
0.15508
0.154239
0.157425
0.153017
0.154997
0.154887
0.153856
0.143128
0.138162
0.140691
0.151609
0.139129
0.141138
0.150098
0.152316
0.150685
0.148837
0.149008
0.161853
0.160752
0.157736
0.158354
0.157756
0.155988
0.161971
0.158604
0.160224
0.161481
0.158693
0.160403
0.152257
0.152038
0.162262
0.160112
0.156804
0.155202
0.165307
0.161545
0.163525
0.162304
0.16574
0.159306
0.15956
0.161732
0.161826
0.160627
0.157658
0.154293
0.148954
0.15212
0.150434
0.151935
0.150627
0.159058
0.158996
0.166775
0.162504
0.156022
0.160642
0.159828
0.163534
0.165053
0.166792
0.163488
0.169208
0.161708
0.158745
0.156717
0.157236
0.15517
0.147303
0.144326
0.158531
0.159766
0.160743
0.156191
0.153348
0.152752
0.156908
0.161953
0.160249
0.161679
0.166456
0.159878
0.158075
0.160022
0.164128
0.156498
0.154447
0.157937
0.154816
0.150463
0.150314
0.150954
0.154778
0.153672
0.153355
0.16362
0.162625
0.163801
0.158069
0.16223
0.160231
0.158972
0.164039
0.160781
0.159872
0.162589
0.168713
0.159831
0.161842
0.163403
0.167979
0.165389
0.162745
0.15728
0.161878
0.161917
0.163002
0.165252
0.163682
0.169216
0.167695
0.159431
0.15774
0.151319
0.153077
0.155885
0.162594
0.160035
0.163209
0.164512
0.163783
0.160654
0.157518
0.163404
0.155121
0.155173
0.149411
0.152595
0.149884
0.148531
0.152073
0.154978
0.154762
0.152891
0.155489
0.156832
0.15274
0.14525
0.149717
0.15446
0.146689
0.14568
0.151297
0.148311
0.147465
0.145834
0.148563
0.145183
0.162678
0.15885
0.163558
0.167107
0.165447
0.15416
0.159275
0.160615
0.160964
0.164754
0.161235
0.15878
0.155804
0.16189
0.152848
0.153842
0.152732
0.148178
0.15465
0.160189
0.15775
0.156751
0.15687
0.154599
0.156493
0.137315
0.138343
0.147127
0.147655
0.149375
0.145881
0.14262
0.148801
0.158147
0.151371
0.151944
0.147086
0.152316
0.153253
0.157462
0.153986
0.156034
0.153037
0.15693
0.153763
0.153026
0.156123
0.133086
0.132187
0.134204
0.137265
0.137465
0.137845
0.136139
0.134735
0.135239
0.131636
0.138792
0.1284
0.129591
0.154216
0.153291
0.152838
0.150446
0.147234
0.146402
0.143307
0.14799
0.150156
0.148816
0.149821
0.145263
0.142339
0.151394
0.147612
0.14908
0.143215
0.142206
0.137363
0.13429
0.14528
0.144885
0.128366
0.130944
0.125325
0.126018
0.126799
0.13692
0.137995
0.142257
0.134307
0.134286
0.15267
0.152834
0.152253
0.157935
0.150302
0.14527
0.146402
0.154787
0.147828
0.150358
0.151355
0.151565
0.145197
0.146298
0.144442
0.146425
0.145091
0.148276
0.144332
0.147312
0.14389
0.147731
0.150614
0.148954
0.14028
0.141562
0.149119
0.145243
0.144817
0.145206
0.141585
0.131267
0.13707
0.139763
0.132402
0.136848
0.136216
0.138324
0.132989
0.138722
0.138331
0.137068
0.137617
0.147095
0.144111
0.14074
0.137844
0.14812
0.143234
0.138559
0.146447
0.144105
0.146522
0.142267
0.145288
0.143196
0.145579
0.14047
0.145933
0.135031
0.134364
0.136971
0.146613
0.137953
0.142791
0.148818
0.134634
0.134828
0.150213
0.153512
0.1316
0.131773
0.133651
0.13465
0.131991
0.126293
0.128353
0.130699
0.142996
0.139525
0.136522
0.13329
0.136762
0.130462
0.136364
0.146341
0.147069
0.145737
0.140069
0.125951
0.124613
0.124007
0.128587
0.128148
0.125639
0.127971
0.130391
0.133054
0.129089
0.137773
0.135146
0.133092
0.127714
0.139476
0.145588
0.148389
0.144177
0.143744
0.14392
0.139842
0.141393
0.141287
0.136472
0.138009
0.140336
0.134683
0.139771
0.141111
0.140751
0.143175
0.14649
0.140689
0.13982
0.143466
0.144757
0.147035
0.144011
0.146774
0.139184
0.134876
0.136716
0.131985
0.13839
0.130491
0.13414
0.134423
0.133314
0.129732
0.118527
0.121735
0.126946
0.126708
0.131956
0.123974
0.126607
0.126786
0.127052
0.126525
0.125665
0.124267
0.130569
0.125308
0.111903
0.112197
0.110017
0.120577
0.117577
0.121016
0.109788
0.10996
0.119249
0.117329
0.124229
0.124379
0.121642
0.120174
0.118913
0.114311
0.1159
0.120785
0.116993
0.112022
0.111853
0.118551
0.123808
0.127656
0.133092
0.127067
0.128703
0.127657
0.1297
0.133764
0.132808
0.128605
0.124839
0.128225
0.131605
0.129269
0.123848
0.1274
0.126455
0.126839
0.127254
0.123364
0.125289
0.12373
0.122714
0.107249
0.109763
0.106678
0.105134
0.107725
0.111038
0.110357
0.107762
0.101943
0.10216
0.10407
0.106837
0.129538
0.127858
0.127886
0.121671
0.125576
0.126211
0.128376
0.127264
0.126394
0.12516
0.122958
0.122135
0.119474
0.120628
0.122739
0.119178
0.118073
0.118214
0.119518
0.120766
0.116017
0.127921
0.120001
0.122184
0.133205
0.12461
0.119804
0.129782
0.133132
0.128133
0.121082
0.126294
0.123338
0.108837
0.10888
0.112101
0.114513
0.112688
0.109931
0.108852
0.109453
0.107181
0.107056
0.116235
0.117586
0.113179
0.11405
0.112953
0.117578
0.115967
0.114094
0.113125
0.101256
0.100008
0.103078
0.107644
0.103054
0.109017
0.10095
0.103913
0.103291
0.105921
0.105801
0.107006
0.111895
0.117535
0.121201
0.113938
0.114336
0.109016
0.110702
0.0943304
0.0969226
0.0933559
0.0960167
0.0975477
0.0993397
0.097481
0.116865
0.118163
0.114982
0.112963
0.113142
0.116771
0.115684
0.118944
0.1177
0.107914
0.106607
0.10657
0.110258
0.11186
0.107484
0.10741
0.105877
0.106448
0.10225
0.108546
0.105849
0.10133
0.106341
0.096346
0.0997266
0.103648
0.106507
0.10621
0.114784
0.113404
0.113116
0.110848
0.10938
0.108265
0.11358
0.116731
0.112222
0.112402
0.113321
0.111161
0.118352
0.120427
0.112777
0.111226
0.119796
0.113837
0.120001
0.114331
0.111673
0.114547
0.115253
0.112857
0.117644
0.117506
0.115376
0.118581
0.110419
0.106771
0.108518
0.109081
0.105535
0.110637
0.107389
0.112202
0.104717
0.109644
0.106465
0.108221
0.102642
0.114838
0.117867
0.118146
0.121578
0.115653
0.114011
0.117747
0.115493
0.113829
0.117214
0.116928
0.0900639
0.0900073
0.0971266
0.100441
0.0965953
0.0980898
0.0943724
0.0966061
0.0989876
0.101911
0.0966988
0.0920999
0.104218
0.105488
0.100906
0.101399
0.0955961
0.0979406
0.0908108
0.0843806
0.0967947
0.0907721
0.0865747
0.104558
0.104585
0.106102
0.107256
0.106669
0.103729
0.111672
0.110604
0.106214
0.0808095
0.0854916
0.0925265
0.0901518
0.0872825
0.0922805
0.0940657
0.0895573
0.0775076
0.0844827
0.0912974
0.0849182
0.0861122
0.0844227
0.0823019
0.102631
0.103822
0.10234
0.101244
0.0973374
0.103942
0.0919187
0.102599
0.100809
0.0999364
0.107651
0.11045
0.100319
0.102991
0.103757
0.10586
0.0928532
0.0921151
0.0944933
0.0964701
0.0946638
0.103265
0.100126
0.0978688
0.0933199
0.0939026
0.100029
0.0969782
0.0955876
0.0969352
0.0962668
0.093805
0.0915437
0.0953729
0.101614
0.0916348
0.0937389
0.103403
0.0972087
0.0985178
0.100962
0.0961676
0.0971513
0.0977356
0.0971605
0.0936601
0.104122
0.102013
0.0957371
0.0928758
0.0889677
0.0977288
0.0925407
0.0912415
0.0815922
0.0936127
0.0873123
0.0862796
0.0948761
0.0938837
0.0962054
0.0912995
0.0918697
0.093152
0.0917083
0.093298
0.0910008
0.0901082
0.0877256
0.0817557
0.0945362
0.0854579
0.08905
0.0931965
0.0958612
0.0960679
0.0879277
0.0860167
0.0864142
0.0901217
0.0838316
0.0918155
0.0860051
0.0748066
0.0808858
0.0786364
0.0751865
0.0778689
0.0774347
0.0736614
0.0858797
0.0803005
0.0876545
0.0865832
0.0814014
0.0838074
0.0747109
0.0774274
0.0898543
0.0851673
0.0827159
0.0903406
0.0935821
0.082251
0.0845576
0.0864452
0.0893321
0.0816787
0.0869325
0.0869746
0.0848363
0.0771435
0.0819187
0.0794744
0.0772287
0.0806037
0.0815428
0.0842946
0.0843653
0.0945542
0.0921976
0.0909752
0.0913712
0.0904252
0.0871514
0.0921674
0.0933635
0.0768462
0.0790922
0.0772369
0.077297
0.0751782
0.0837859
0.0799659
0.0747861
0.0783052
0.0876596
0.0849783
0.0834999
0.0831537
0.0812387
0.0866032
0.0868238
0.0834393
0.0799166
0.0857035
0.0838668
0.0813803
0.0867845
0.0888307
0.0876123
0.086669
0.0828559
0.0892789
0.0853297
0.0881592
0.0863122
0.0737325
0.0776308
0.0751288
0.0740313
0.0757387
0.0775593
0.0795489
0.0778762
0.0790822
0.0746327
0.0783485
0.0764106
0.0785266
0.0791699
0.074447
0.0745328
0.0824267
0.0703313
0.0762145
0.0799859
0.0743604
0.0742271
0.0764803
0.0810422
0.0817527
0.0742242
0.0736855
0.0746984
0.0737132
0.0784585
0.0714021
0.0688045
0.0754358
0.0778256
0.0760899
0.0793481
0.0747565
0.076435
0.0740113
0.0694859
0.0653036
0.0712702
0.0720224
0.0750818
0.0688311
0.0710333
0.0689893
0.0696728
0.072686
0.0741521
0.0715648
0.0652351
0.0696216
0.086605
0.0863331
0.0852663
0.0777595
0.0838862
0.0830825
0.0866763
0.0830705
0.0842673
0.0827279
0.100114
0.0983169
0.101232
0.100939
0.104762
0.102503
0.100711
0.10211
0.0899028
0.0925614
0.0943999
0.0896451
0.0934887
0.106893
0.106924
0.107474
0.0995236
0.100147
0.112467
0.109964
0.105409
0.104146
0.103875
0.103528
0.101221
0.100647
0.115939
0.112584
0.116891
0.11145
0.109392
0.115654
0.118438
0.115809
0.114191
0.0939038
0.0975767
0.0969254
0.100648
0.0995495
0.10004
0.0994765
0.0920652
0.0985257
0.0907486
0.0886713
0.0893113
0.0937538
0.0868095
0.0925833
0.0884811
0.092154
0.0869816
0.0870405
0.0982931
0.0952983
0.0932844
0.0960454
0.108039
0.107925
0.112935
0.114274
0.110578
0.104414
0.116793
0.115494
0.113845
0.109691
0.104683
0.111136
0.10993
0.109591
0.113643
0.112674
0.113253
0.113895
0.117516
0.11633
0.120091
0.123417
0.122096
0.125929
0.123083
0.122348
0.121703
0.12305
0.122347
0.139307
0.140865
0.137405
0.142565
0.138522
0.137959
0.139587
0.137688
0.150494
0.147834
0.144429
0.140308
0.14174
0.148424
0.149685
0.145017
0.14533
0.161257
0.145098
0.144941
0.146656
0.144669
0.142239
0.142281
0.143416
0.142875
0.141983
0.144126
0.145206
0.149768
0.152034
0.150183
0.0752022
0.0823294
0.0752067
0.079428
0.0764393
0.074452
0.0746457
0.0799034
0.077488
0.0817371
0.0745429
0.0803025
0.0791914
0.0729326
0.076477
0.0700204
0.0787731
0.0813234
0.08785
0.0727553
0.0741932
0.0744053
0.0716366
0.0753503
0.0729352
0.0730996
0.0701085
0.0801622
0.0726717
0.0761741
0.0691957
0.0664079
0.0730672
0.0720246
0.0767447
0.0729477
0.0884027
0.0857546
0.0835335
0.0803523
0.0828169
0.0800847
0.0903583
0.0822264
0.0805323
0.0869484
0.0852872
0.0881654
0.0870395
0.0820035
0.0789434
0.0768859
0.0778561
0.0812217
0.0771165
0.0787542
0.0744255
0.07924
0.0766929
0.0792514
0.0791357
0.0767602
0.085206
0.085518
0.0791829
0.085114
0.086252
0.0787234
0.0777797
0.0882197
0.0885135
0.0870446
0.0782681
0.0814142
0.0756486
0.0841622
0.0780167
0.0780476
0.0832092
0.0791451
0.0843683
0.0909169
0.0880044
0.0881384
0.0895066
0.0873059
0.084972
0.0809813
0.0810425
0.0873072
0.081675
0.0793307
0.0831683
0.0832738
0.09196
0.0900107
0.0852059
0.0828661
0.0882042
0.0911939
0.08453
0.0797679
0.0823973
0.0816246
0.0903235
0.0898342
0.0882831
0.0881706
0.0904572
0.0817409
0.0782374
0.0988374
0.0981402
0.0900563
0.0988186
0.0998718
0.0974623
0.095859
0.0962801
0.0976632
0.094839
0.0943833
0.0912672
0.087677
0.0913509
0.0904176
0.0888995
0.0841978
0.0896137
0.085609
0.0920953
0.0926632
0.0869961
0.0852539
0.0872321
0.0886296
0.0906874
0.0972193
0.0988331
0.0986363
0.0990576
0.10641
0.105666
0.101499
0.100725
0.0991749
0.0974697
0.100415
0.089483
0.099128
0.0887702
0.0896847
0.0899539
0.0912984
0.0930307
0.0930318
0.0883531
0.0932423
0.0966828
0.0878366
0.0901182
0.0970249
0.0967478
0.103878
0.100538
0.0873362
0.0922698
0.100097
0.0993545
0.0977969
0.0926764
0.0983896
0.0936598
0.0962468
0.100685
0.0996426
0.0950534
0.0928593
0.101718
0.101153
0.10121
0.100539
0.0996063
0.107963
0.109713
0.106468
0.104174
0.106189
0.11152
0.10937
0.10522
0.103034
0.101997
0.107256
0.101877
0.101324
0.107284
0.105559
0.107534
0.105018
0.106582
0.1026
0.110121
0.104221
0.102868
0.111083