/*--------------------------------*- C++ -*----------------------------------*\
| =========                 |                                                 |
| \\      /  F ield         | OpenFOAM: The Open Source CFD Toolbox           |
|  \\    /   O peration     | Version:  v1612+                                |
|   \\  /    A nd           | Web:      www.OpenFOAM.com                      |
|    \\/     M anipulation  |                                                 |
\*---------------------------------------------------------------------------*/
FoamFile
{
    version     2.0;
    format      ascii;
    class       volVectorField;
    location    "239";
    object      wallShearStress;
}
// * * * * * * * * * * * * * * * * * * * * * * * * * * * * * * * * * * * * * //

dimensions      [0 2 -2 0 0 0 0];

internalField   uniform (0 0 0);

boundaryField
{
    WALL
    {
        type            calculated;
        value           nonuniform List<vector> 
1506
(
(-0.00966188 -0.0106927 -0.00255314)
(-0.00942383 -0.0103274 -0.00262779)
(-0.00997761 -0.011029 -0.00443003)
(-0.0101211 -0.0117963 -0.00423297)
(-0.0101669 -0.0123459 -0.00437267)
(-0.00999213 -0.0127309 -0.00415483)
(-0.00767388 -0.00888507 -0.00251356)
(-0.00793269 -0.00950427 -0.00291031)
(-0.00757694 -0.00824419 -0.00258515)
(-0.007674 -0.00842072 -0.0024736)
(-0.00984068 -0.0121003 -0.00343531)
(-0.00916164 -0.011035 -0.00303813)
(-0.00962912 -0.0119628 -0.00366721)
(-0.00909638 -0.0120402 -0.00297283)
(-0.0104745 -0.0115465 -0.00272162)
(-0.00959701 -0.0111085 -0.00303698)
(-0.00978118 -0.0109395 -0.00252461)
(-0.00917598 -0.0103359 -0.00245967)
(-0.00771982 -0.0082823 -0.00231707)
(-0.00969608 -0.0129205 -0.00354616)
(-0.0093745 -0.0122555 -0.00364167)
(-0.00949792 -0.0120707 -0.00380733)
(-0.00814676 -0.00972859 -0.00247534)
(-0.00858903 -0.0114206 -0.00309991)
(-0.00854476 -0.0110941 -0.00338355)
(-0.00978134 -0.013051 -0.00348564)
(-0.0101984 -0.0124966 -0.00393186)
(-0.0076107 -0.008862 -0.00265571)
(-0.00795698 -0.00948517 -0.00287218)
(-0.00812982 -0.00979752 -0.00301766)
(-0.00850888 -0.0100181 -0.00281156)
(-0.00897609 -0.0106264 -0.00299448)
(-0.00871172 -0.0104475 -0.00304015)
(-0.0088629 -0.0109378 -0.00324425)
(-0.0088598 -0.0110032 -0.00359609)
(-0.00984724 -0.0128493 -0.00299928)
(-0.00958058 -0.0124968 -0.00346798)
(-0.00984495 -0.0127707 -0.00275068)
(-0.0100521 -0.0123986 -0.00380033)
(-0.00873148 -0.0113123 -0.00342694)
(-0.00919516 -0.0120596 -0.00360265)
(-0.00825785 -0.0100808 -0.00338808)
(-0.00788242 -0.00955618 -0.00327206)
(-0.0101844 -0.0127203 -0.00418457)
(-0.00986744 -0.0116033 -0.00279588)
(-0.00986916 -0.0119937 -0.00363296)
(-0.0101538 -0.0114436 -0.0024593)
(-0.00761033 -0.0098852 -0.0037543)
(-0.00767113 -0.00928613 -0.00295993)
(-0.008383 -0.00853156 -0.00325274)
(-0.00862317 -0.00920056 -0.00343893)
(-0.0105343 -0.0128325 -0.00426813)
(-0.0101334 -0.0126606 -0.00376925)
(-0.00969775 -0.0106376 -0.00422647)
(-0.00957966 -0.010522 -0.00405733)
(-0.0109471 -0.0139257 -0.0044252)
(-0.0107125 -0.0127005 -0.00476969)
(-0.00948783 -0.0103456 -0.00326377)
(-0.00907279 -0.010015 -0.00311867)
(-0.00916959 -0.00980953 -0.00257226)
(-0.0100728 -0.0109285 -0.00268584)
(-0.00786508 -0.00944702 -0.00288074)
(-0.00880349 -0.0106971 -0.00316505)
(-0.0075136 -0.00873776 -0.00249786)
(-0.00741534 -0.00843571 -0.00240129)
(-0.00847112 -0.0104492 -0.00303151)
(-0.00906113 -0.0116756 -0.00342349)
(-0.00931924 -0.0113274 -0.00325743)
(-0.00942923 -0.011501 -0.00337065)
(-0.0095069 -0.0117047 -0.00288989)
(-0.00903074 -0.0109752 -0.00325716)
(-0.00916756 -0.0112613 -0.00353948)
(-0.00919117 -0.0113893 -0.00328812)
(-0.00913675 -0.0112521 -0.00340806)
(-0.00966134 -0.0115743 -0.0027193)
(-0.00935548 -0.0116718 -0.00302373)
(-0.00994889 -0.0119389 -0.00308371)
(-0.00927964 -0.011372 -0.00330654)
(-0.0095194 -0.0114789 -0.00280661)
(-0.00862371 -0.0105727 -0.00333528)
(-0.00856369 -0.0105611 -0.00315951)
(-0.00904505 -0.0109195 -0.00305782)
(-0.00750463 -0.0082996 -0.00241561)
(-0.00752898 -0.00839079 -0.00249463)
(-0.00777501 -0.00850173 -0.00251285)
(-0.00778915 -0.00876649 -0.00253898)
(-0.00722083 -0.00839166 -0.00256187)
(-0.00735426 -0.00805414 -0.00243012)
(-0.0102741 -0.0125191 -0.00334134)
(-0.0105571 -0.0133166 -0.00381684)
(-0.00949752 -0.0117575 -0.00392872)
(-0.00988043 -0.0121745 -0.00369955)
(-0.00971983 -0.0118992 -0.00303058)
(-0.00950935 -0.0121125 -0.00331357)
(-0.00916564 -0.0107458 -0.00319859)
(-0.00892855 -0.0109041 -0.00313133)
(-0.00892854 -0.0105991 -0.00318419)
(-0.00756197 -0.00967203 -0.00314967)
(-0.00752811 -0.00961319 -0.00310259)
(-0.00760757 -0.00978594 -0.00307919)
(-0.00781072 -0.0103099 -0.00324762)
(-0.00757465 -0.0101241 -0.00322412)
(-0.00765867 -0.0100088 -0.003288)
(-0.00865398 -0.0117358 -0.00350662)
(-0.00843709 -0.011385 -0.00326035)
(-0.00852239 -0.0117686 -0.00335424)
(-0.0088509 -0.0119182 -0.003392)
(-0.00839255 -0.0117495 -0.00309464)
(-0.00900859 -0.0118867 -0.00346198)
(-0.0104499 -0.0129915 -0.00453687)
(-0.00977851 -0.0117327 -0.00409471)
(-0.00893063 -0.00961321 -0.00308015)
(-0.00916728 -0.0101715 -0.00320951)
(-0.0085818 -0.00991729 -0.00317616)
(-0.00884387 -0.00966636 -0.00314583)
(-0.00884678 -0.00952836 -0.00306438)
(-0.00887009 -0.0102826 -0.00336904)
(-0.00873099 -0.00954905 -0.00317413)
(-0.00826364 -0.00916493 -0.00287061)
(-0.00855745 -0.00956494 -0.00309653)
(-0.00811072 -0.00939235 -0.00324453)
(-0.00776679 -0.00902902 -0.00307548)
(-0.00925079 -0.00995381 -0.00282924)
(-0.00972636 -0.0103805 -0.00273491)
(-0.00946205 -0.0103816 -0.00305919)
(-0.00957975 -0.0106754 -0.00298945)
(-0.00991133 -0.0105578 -0.00295456)
(-0.00976966 -0.0104248 -0.00270282)
(-0.00969322 -0.0109327 -0.00309141)
(-0.00972967 -0.0109952 -0.00298546)
(-0.0079089 -0.00813603 -0.00251535)
(-0.00815894 -0.0087452 -0.00285443)
(-0.00758722 -0.0080131 -0.0024116)
(-0.00767508 -0.00788932 -0.00246559)
(-0.00864915 -0.00897088 -0.00281504)
(-0.0076515 -0.00840846 -0.0026751)
(-0.00849256 -0.00822397 -0.00285408)
(-0.00779133 -0.00826373 -0.00286805)
(-0.00894656 -0.00932062 -0.00312221)
(-0.00858317 -0.0086256 -0.00286026)
(-0.00842216 -0.00893005 -0.00306413)
(-0.00841047 -0.00847999 -0.00302325)
(-0.00925234 -0.00919319 -0.0035109)
(-0.00881943 -0.00942335 -0.0035751)
(-0.00957332 -0.0102457 -0.00381936)
(-0.00958858 -0.0101376 -0.00404981)
(-0.00958043 -0.00965855 -0.00377236)
(-0.00916787 -0.00963091 -0.00373034)
(-0.00787394 -0.00865577 -0.00272564)
(-0.0077844 -0.0087699 -0.00265995)
(-0.00781838 -0.00875316 -0.00266534)
(-0.00770722 -0.00848047 -0.00259493)
(-0.00759786 -0.00843709 -0.00267229)
(-0.00777447 -0.00877722 -0.00279755)
(-0.00777204 -0.00794806 -0.00270908)
(-0.00747277 -0.00818767 -0.0026726)
(-0.00776031 -0.0084598 -0.00278446)
(-0.0081121 -0.00896896 -0.002859)
(-0.00846127 -0.00845381 -0.00276928)
(-0.0077972 -0.00834014 -0.00268263)
(-0.00825587 -0.00891688 -0.00302681)
(-0.00867302 -0.00960313 -0.00337836)
(-0.00849132 -0.00908827 -0.00318188)
(-0.00823129 -0.00901468 -0.00302489)
(-0.0113464 -0.0139106 -0.00455603)
(-0.0103235 -0.0128673 -0.00343744)
(-0.011048 -0.0137219 -0.00440674)
(-0.0114987 -0.0141507 -0.00431251)
(-0.0103509 -0.0128433 -0.00412365)
(-0.0106341 -0.0129631 -0.00465618)
(-0.0106304 -0.0134154 -0.00347812)
(-0.0100935 -0.012526 -0.00372213)
(-0.0106373 -0.0129636 -0.0047803)
(-0.00960748 -0.00991604 -0.00406337)
(-0.00928179 -0.00998943 -0.00380248)
(-0.00907794 -0.00995248 -0.00382336)
(-0.00840145 -0.00858536 -0.00331005)
(-0.00939964 -0.0100724 -0.00357628)
(-0.0106403 -0.0128255 -0.00459219)
(-0.0100459 -0.0123299 -0.00435197)
(-0.0106466 -0.012591 -0.00493168)
(-0.010562 -0.0123323 -0.0049138)
(-0.0109916 -0.0134427 -0.00450635)
(-0.00874112 -0.00925511 -0.00331578)
(-0.00780607 -0.0082476 -0.002867)
(-0.00863595 -0.00876724 -0.00312885)
(-0.00853755 -0.0089759 -0.0030772)
(-0.0085351 -0.00884324 -0.00318775)
(-0.00857773 -0.00882544 -0.00313136)
(-0.0102176 -0.0110265 -0.00435562)
(-0.0101559 -0.0115801 -0.00452678)
(-0.00985952 -0.0108642 -0.00428792)
(-0.0103345 -0.0118125 -0.00437819)
(-0.00994787 -0.0110008 -0.00435183)
(-0.0100457 -0.0112301 -0.00439936)
(-0.00979962 -0.0107537 -0.00415362)
(-0.00982243 -0.0102397 -0.00392469)
(-0.00964792 -0.0100019 -0.00402056)
(-0.0101036 -0.0113176 -0.0045667)
(-0.0096321 -0.0110453 -0.00420875)
(-0.00968399 -0.0102191 -0.00422173)
(-0.00982174 -0.0109516 -0.00425741)
(-0.0102068 -0.0111116 -0.00439854)
(-0.0101099 -0.0124664 -0.00400526)
(-0.0102441 -0.0121426 -0.00435597)
(-0.0104409 -0.0122791 -0.0044087)
(-0.0106838 -0.0129828 -0.00451728)
(-0.0102667 -0.011961 -0.00470576)
(-0.0102037 -0.0120539 -0.00462789)
(-0.00991896 -0.0120279 -0.00436784)
(-0.010534 -0.0121768 -0.004616)
(-0.00821151 -0.00841909 -0.00308555)
(-0.00791953 -0.00832473 -0.0027963)
(-0.00807233 -0.00832594 -0.00270398)
(-0.00829136 -0.00866527 -0.00310453)
(-0.00876916 -0.00906678 -0.00302462)
(-0.007772 -0.00797259 -0.00269331)
(-0.00778797 -0.00831758 -0.00257229)
(-0.00787752 -0.0083442 -0.00284382)
(-0.00807054 -0.00871485 -0.00276263)
(-0.00788532 -0.00835652 -0.00251347)
(-0.0079017 -0.00833608 -0.00262344)
(-0.0100462 -0.0109057 -0.00301991)
(-0.00949723 -0.0103176 -0.00298345)
(-0.00970882 -0.010401 -0.0023688)
(-0.0100554 -0.0109655 -0.00256565)
(-0.00896387 -0.0102611 -0.0029365)
(-0.00757045 -0.0108605 -0.00352071)
(-0.00752193 -0.0106951 -0.00348806)
(-0.00812937 -0.0111076 -0.00343375)
(-0.00756927 -0.0108056 -0.00348418)
(-0.00740941 -0.0101747 -0.00334335)
(-0.00765999 -0.0106529 -0.0033056)
(-0.00773883 -0.0105924 -0.0036919)
(-0.00781033 -0.0104299 -0.00350217)
(-0.00732956 -0.0103093 -0.00347491)
(-0.00758858 -0.0101433 -0.00355976)
(-0.00746975 -0.0101069 -0.00358779)
(-0.00772935 -0.011311 -0.00332143)
(-0.00830368 -0.0121983 -0.00343149)
(-0.00809057 -0.0115306 -0.00350556)
(-0.00831669 -0.0116412 -0.00349556)
(-0.00752752 -0.0114137 -0.00310414)
(-0.00806613 -0.0119027 -0.00327236)
(-0.00903131 -0.0111103 -0.00352583)
(-0.0090099 -0.0106922 -0.00279485)
(-0.0092739 -0.0108879 -0.00320875)
(-0.00873074 -0.0111509 -0.00349072)
(-0.00827032 -0.0103264 -0.00332189)
(-0.00758292 -0.00995792 -0.00343383)
(-0.00750357 -0.0102449 -0.00367354)
(-0.00768659 -0.0101691 -0.00371212)
(-0.00756839 -0.00968118 -0.00338143)
(-0.00742155 -0.0101205 -0.00350591)
(-0.00752107 -0.0100069 -0.00359165)
(-0.00872535 -0.0115434 -0.00345425)
(-0.00879305 -0.0117522 -0.00333075)
(-0.00910072 -0.0121492 -0.0034381)
(-0.00886011 -0.0115226 -0.00335121)
(-0.00877155 -0.0115798 -0.00327298)
(-0.00912513 -0.0119944 -0.00343013)
(-0.00803275 -0.00973126 -0.00302484)
(-0.00789421 -0.0099704 -0.00333263)
(-0.00729547 -0.0095904 -0.00314818)
(-0.00773378 -0.00978854 -0.00309959)
(-0.0078833 -0.0101641 -0.00343369)
(-0.00848488 -0.0111097 -0.00342824)
(-0.00819517 -0.0112547 -0.00329016)
(-0.00808358 -0.0111378 -0.0032969)
(-0.00770222 -0.0102325 -0.00320308)
(-0.00818228 -0.0107745 -0.00342525)
(-0.0090291 -0.0106016 -0.00308455)
(-0.00886845 -0.00956342 -0.00245976)
(-0.00922488 -0.0107902 -0.00346574)
(-0.00910772 -0.0102144 -0.00311402)
(-0.00888468 -0.0103226 -0.00332188)
(-0.00894275 -0.010388 -0.0033842)
(-0.00987292 -0.0110796 -0.00260284)
(-0.00926453 -0.0111033 -0.00323497)
(-0.0089084 -0.0105852 -0.00303844)
(-0.0100032 -0.0115617 -0.00341581)
(-0.00907564 -0.0102027 -0.00293076)
(-0.00997111 -0.0115362 -0.00277286)
(-0.00815045 -0.0100315 -0.00328549)
(-0.00822442 -0.00972754 -0.00324214)
(-0.00829573 -0.010086 -0.00330727)
(-0.00811806 -0.00982193 -0.0032647)
(-0.00777498 -0.00959583 -0.00327415)
(-0.00847661 -0.0101534 -0.00326272)
(-0.00911765 -0.0102029 -0.00263704)
(-0.00895446 -0.0109153 -0.00376034)
(-0.00905798 -0.0103669 -0.00290358)
(-0.00927173 -0.010737 -0.00316694)
(-0.0095468 -0.0107767 -0.00334596)
(-0.00931609 -0.0114894 -0.00365873)
(-0.00940145 -0.0107751 -0.00281822)
(-0.00962047 -0.0107091 -0.00274976)
(-0.00891655 -0.0107407 -0.00336888)
(-0.00916492 -0.0107668 -0.00345208)
(-0.00892197 -0.0105182 -0.00291242)
(-0.0093367 -0.0113365 -0.00330141)
(-0.00887335 -0.0113293 -0.00350925)
(-0.00845592 -0.011237 -0.00342128)
(-0.00913879 -0.0120276 -0.0037382)
(-0.00907202 -0.0114951 -0.00354713)
(-0.00859967 -0.0112292 -0.00342183)
(-0.00922359 -0.0117644 -0.00361754)
(-0.00769617 -0.00964198 -0.0031174)
(-0.00845684 -0.0108893 -0.00330889)
(-0.00803096 -0.0101892 -0.00334676)
(-0.008054 -0.0101318 -0.00316417)
(-0.00791452 -0.010058 -0.00349468)
(-0.00861351 -0.0106779 -0.00367645)
(-0.00774869 -0.00983767 -0.00331524)
(-0.0081494 -0.0104354 -0.003323)
(-0.0083331 -0.0108827 -0.0032735)
(-0.00810187 -0.0099563 -0.00333439)
(-0.00818183 -0.0107596 -0.00330395)
(-0.00854734 -0.0111165 -0.00337792)
(-0.00886803 -0.0113035 -0.00360468)
(-0.00863317 -0.0111218 -0.00345656)
(-0.00798199 -0.0102865 -0.00320723)
(-0.00846446 -0.0108938 -0.00335456)
(-0.00876488 -0.0106751 -0.00368005)
(-0.00827999 -0.0106187 -0.00340403)
(-0.00773499 -0.00957778 -0.00317686)
(-0.00794185 -0.00955616 -0.00309404)
(-0.0074526 -0.00952794 -0.00317676)
(-0.00798707 -0.00953198 -0.00317951)
(-0.00794027 -0.00973712 -0.00312338)
(-0.00855896 -0.0100559 -0.00325053)
(-0.0080562 -0.00965536 -0.00315979)
(-0.00857596 -0.00995394 -0.00316097)
(-0.00858111 -0.0102551 -0.00335815)
(-0.00824841 -0.0102613 -0.00341585)
(-0.00829811 -0.00998747 -0.00322709)
(-0.00889314 -0.00988273 -0.00307466)
(-0.00877398 -0.0101004 -0.00320638)
(-0.008775 -0.0101172 -0.00316551)
(-0.00861505 -0.0100429 -0.00325707)
(-0.00872265 -0.00995563 -0.00309051)
(-0.00848225 -0.00963171 -0.00310448)
(-0.00910046 -0.0119824 -0.00348647)
(-0.00917939 -0.012327 -0.00302994)
(-0.00903024 -0.0122292 -0.00340023)
(-0.00954904 -0.0125592 -0.00364151)
(-0.00958777 -0.0126152 -0.00339705)
(-0.00912493 -0.0120815 -0.00335671)
(-0.0107697 -0.0130942 -0.00357954)
(-0.0100146 -0.0125919 -0.00337134)
(-0.00917807 -0.0112612 -0.00366831)
(-0.00953266 -0.0116257 -0.00320702)
(-0.0100923 -0.0122577 -0.00416397)
(-0.00952022 -0.0119847 -0.00297755)
(-0.00918872 -0.0122669 -0.00321929)
(-0.00958328 -0.0127136 -0.0034386)
(-0.00953434 -0.012337 -0.00329604)
(-0.00873507 -0.0116873 -0.00288254)
(-0.00956761 -0.0120211 -0.00346199)
(-0.0103021 -0.012758 -0.00396298)
(-0.00986454 -0.011949 -0.00389426)
(-0.010416 -0.0130694 -0.00300407)
(-0.00988816 -0.0124143 -0.00405178)
(-0.00917748 -0.0117361 -0.00291157)
(-0.0106175 -0.0134413 -0.00391003)
(-0.0107163 -0.0133637 -0.00429787)
(-0.00978737 -0.0123692 -0.00372438)
(-0.00997151 -0.0127069 -0.00336761)
(-0.0102317 -0.0129563 -0.00297097)
(-0.0104637 -0.0141719 -0.00335975)
(-0.00923862 -0.0125133 -0.00259407)
(-0.0107437 -0.0138304 -0.00360329)
(-0.00986079 -0.0120897 -0.00377373)
(-0.00936333 -0.0115238 -0.0027491)
(-0.0101002 -0.012554 -0.00417667)
(-0.00932531 -0.0113778 -0.00287632)
(-0.00924984 -0.0116573 -0.00386206)
(-0.00982423 -0.0121528 -0.00318354)
(-0.00943646 -0.0113437 -0.00298511)
(-0.00963054 -0.0117659 -0.00387351)
(-0.00959865 -0.0119036 -0.00388035)
(-0.00946523 -0.0113389 -0.00325407)
(-0.00765684 -0.00962025 -0.00292491)
(-0.00813903 -0.00934084 -0.00238068)
(-0.00811171 -0.00987857 -0.00305018)
(-0.00851375 -0.0103915 -0.00338282)
(-0.00799691 -0.0096981 -0.00302407)
(-0.00850654 -0.0102476 -0.00248237)
(-0.00743709 -0.00895771 -0.00277243)
(-0.00802652 -0.00943209 -0.00259468)
(-0.00787508 -0.00920138 -0.00272598)
(-0.0074575 -0.00842204 -0.00235129)
(-0.00740508 -0.00876202 -0.002668)
(-0.00788911 -0.00930894 -0.00277653)
(-0.00762797 -0.00888395 -0.00241274)
(-0.00798821 -0.0092763 -0.00258711)
(-0.00764971 -0.00851025 -0.00263211)
(-0.00763091 -0.00869817 -0.00257591)
(-0.00758992 -0.00850883 -0.00261737)
(-0.00752294 -0.00856089 -0.00268055)
(-0.00742631 -0.00857817 -0.00262018)
(-0.00764713 -0.00853336 -0.00251463)
(-0.00823991 -0.0102317 -0.00336051)
(-0.00775178 -0.00955347 -0.00277519)
(-0.0084136 -0.0098145 -0.00238237)
(-0.00818368 -0.00976295 -0.0029069)
(-0.00823692 -0.00919536 -0.00251829)
(-0.00800294 -0.0096565 -0.0031362)
(-0.00774168 -0.00928964 -0.00295397)
(-0.00794689 -0.00886169 -0.00257405)
(-0.00780903 -0.00894275 -0.00252505)
(-0.00802693 -0.00936931 -0.00263413)
(-0.00740806 -0.00815539 -0.00255537)
(-0.00744648 -0.00857523 -0.00265806)
(-0.00751342 -0.00821671 -0.0025315)
(-0.00741049 -0.00829802 -0.0025269)
(-0.00756354 -0.00890043 -0.00267849)
(-0.00751386 -0.00874365 -0.0026607)
(-0.00775179 -0.00869455 -0.00243949)
(-0.00751161 -0.00869397 -0.00264397)
(-0.00925627 -0.0111326 -0.0029735)
(-0.00891848 -0.0112577 -0.00381266)
(-0.00976336 -0.0116999 -0.00345584)
(-0.00912336 -0.0111214 -0.00308606)
(-0.00900149 -0.0108895 -0.00333368)
(-0.0091023 -0.0114259 -0.00389218)
(-0.00894794 -0.0107966 -0.00306155)
(-0.00873263 -0.0106594 -0.00345927)
(-0.00763805 -0.00905754 -0.00282318)
(-0.00794948 -0.00912951 -0.00276318)
(-0.00798882 -0.00935379 -0.00270182)
(-0.00776609 -0.00919054 -0.0027821)
(-0.00801897 -0.00961417 -0.00296942)
(-0.00805302 -0.0094528 -0.00280394)
(-0.00766151 -0.00947795 -0.00309195)
(-0.00790017 -0.00948456 -0.00281662)
(-0.00769899 -0.00891502 -0.002596)
(-0.00791029 -0.00951537 -0.00287045)
(-0.008307 -0.0096632 -0.00263929)
(-0.00937626 -0.0116156 -0.00406509)
(-0.00892311 -0.0118501 -0.00296623)
(-0.00984058 -0.0118149 -0.00425317)
(-0.00910726 -0.0116854 -0.00289797)
(-0.00989027 -0.0131122 -0.00366722)
(-0.00930574 -0.011827 -0.00326391)
(-0.0101508 -0.0129136 -0.00367465)
(-0.0100448 -0.0126839 -0.00328681)
(-0.00935613 -0.0114815 -0.00314919)
(-0.00909044 -0.0113436 -0.00315203)
(-0.00928835 -0.0115543 -0.00323423)
(-0.00953984 -0.0117272 -0.0034069)
(-0.00956101 -0.0120353 -0.00337487)
(-0.00929679 -0.0124353 -0.00353146)
(-0.00903907 -0.0118299 -0.00349951)
(-0.00914097 -0.0120385 -0.00334654)
(-0.00917386 -0.0118818 -0.00351269)
(-0.00899425 -0.0116536 -0.00342068)
(-0.00938576 -0.0114929 -0.00366271)
(-0.010015 -0.0124543 -0.00390234)
(-0.00885676 -0.0115149 -0.00280091)
(-0.00874372 -0.0111151 -0.00358521)
(-0.00880137 -0.0113598 -0.00304714)
(-0.00981401 -0.0123917 -0.00329931)
(-0.00859405 -0.0103694 -0.00239472)
(-0.00880874 -0.0102278 -0.0025801)
(-0.00848368 -0.0103819 -0.00270405)
(-0.00813807 -0.00990439 -0.00308964)
(-0.00777044 -0.00953306 -0.00267203)
(-0.00872236 -0.01064 -0.00315089)
(-0.00761817 -0.00797674 -0.00227569)
(-0.00813573 -0.00888478 -0.00242445)
(-0.00715697 -0.00841115 -0.00253841)
(-0.00769516 -0.00845505 -0.00246079)
(-0.00757318 -0.00816608 -0.00231842)
(-0.00790646 -0.00924325 -0.00264408)
(-0.00788918 -0.00946738 -0.00261354)
(-0.00804614 -0.00988358 -0.00307182)
(-0.00884009 -0.0109084 -0.00305737)
(-0.00876398 -0.0103688 -0.00266469)
(-0.0082385 -0.0107354 -0.00323431)
(-0.00875308 -0.0109597 -0.00360861)
(-0.00835619 -0.010685 -0.00329507)
(-0.00866039 -0.0108318 -0.00341673)
(-0.00879885 -0.0112438 -0.00351874)
(-0.00857563 -0.0112137 -0.00346285)
(-0.00920473 -0.0121123 -0.00357818)
(-0.00865516 -0.0115099 -0.0031682)
(-0.00923498 -0.0116128 -0.00365889)
(-0.0089398 -0.0117219 -0.00359521)
(-0.00867347 -0.0115276 -0.00344259)
(-0.00931637 -0.0120872 -0.00341824)
(-0.00947257 -0.0119521 -0.00306269)
(-0.00913864 -0.0109894 -0.00274783)
(-0.00984584 -0.0119882 -0.00350013)
(-0.00853864 -0.0108565 -0.00323539)
(-0.00952349 -0.0122938 -0.00332303)
(-0.00839676 -0.0106346 -0.00343187)
(-0.00872386 -0.0106077 -0.00315352)
(-0.00921822 -0.0122056 -0.00271888)
(-0.00959618 -0.0121689 -0.0036161)
(-0.00863625 -0.0111323 -0.00331738)
(-0.00914643 -0.0115387 -0.00329898)
(-0.00946434 -0.0117524 -0.00361368)
(-0.00947174 -0.0120357 -0.00289126)
(-0.00820843 -0.00997443 -0.00312624)
(-0.00894336 -0.0111118 -0.00332836)
(-0.00838381 -0.0102325 -0.00343404)
(-0.00905201 -0.010926 -0.00327935)
(-0.00913422 -0.0112242 -0.00297326)
(-0.00862081 -0.0104329 -0.00331798)
(-0.00947195 -0.0110941 -0.00263287)
(-0.00910264 -0.0106213 -0.00242838)
(-0.00913395 -0.0107604 -0.002478)
(-0.00952126 -0.0109402 -0.00319987)
(-0.0100476 -0.011318 -0.00287282)
(-0.0100928 -0.0111474 -0.00313197)
(-0.00962461 -0.0103651 -0.00272858)
(-0.00946049 -0.0107764 -0.00322188)
(-0.00985544 -0.0107525 -0.00305862)
(-0.00814644 -0.0102219 -0.00313412)
(-0.00809707 -0.0103598 -0.00302064)
(-0.00824023 -0.0103167 -0.00291927)
(-0.00816907 -0.00898321 -0.00323491)
(-0.00880508 -0.00999747 -0.00339052)
(-0.00890994 -0.00936633 -0.00332671)
(-0.00854185 -0.00885061 -0.00311183)
(-0.00867068 -0.00952756 -0.00360187)
(-0.00826265 -0.0093698 -0.00327898)
(-0.00858352 -0.0103015 -0.00351892)
(-0.00830707 -0.0101888 -0.00345174)
(-0.00847968 -0.0100121 -0.00343812)
(-0.00933679 -0.0103444 -0.00398828)
(-0.00900462 -0.0100919 -0.00386302)
(-0.00937887 -0.0106826 -0.00399511)
(-0.00858472 -0.00978656 -0.00369398)
(-0.00891146 -0.0102562 -0.00385931)
(-0.00918029 -0.010104 -0.00388481)
(-0.00996022 -0.01226 -0.00404086)
(-0.00959354 -0.011873 -0.00339778)
(-0.00992551 -0.0124214 -0.0037377)
(-0.00958796 -0.0115796 -0.00367819)
(-0.00938435 -0.0118222 -0.0033286)
(-0.0100686 -0.012111 -0.00408205)
(-0.00943058 -0.0113895 -0.00399967)
(-0.00952095 -0.0119899 -0.0038586)
(-0.00914945 -0.0110279 -0.00376787)
(-0.00971865 -0.0113992 -0.00428488)
(-0.00990093 -0.0114958 -0.00440604)
(-0.0100331 -0.011632 -0.00443844)
(-0.0105598 -0.0129354 -0.00354503)
(-0.00957771 -0.0121723 -0.0038961)
(-0.0105265 -0.0127742 -0.00454866)
(-0.00964598 -0.0115724 -0.00439029)
(-0.0107274 -0.0123401 -0.00493358)
(-0.0092089 -0.0108495 -0.00252321)
(-0.0102462 -0.0115423 -0.00275334)
(-0.00930509 -0.0111362 -0.00301835)
(-0.00973108 -0.0115683 -0.00250721)
(-0.0091323 -0.0108832 -0.00315722)
(-0.00947985 -0.0113015 -0.00277297)
(-0.00882936 -0.0107373 -0.00273391)
(-0.00889832 -0.0110014 -0.00272233)
(-0.00846988 -0.0104307 -0.00286885)
(-0.00921128 -0.0112064 -0.00318651)
(-0.00904832 -0.0111143 -0.00293596)
(-0.00937745 -0.011551 -0.00398441)
(-0.00943945 -0.0116762 -0.00315765)
(-0.00978269 -0.0122158 -0.00328712)
(-0.00889651 -0.0110965 -0.00295641)
(-0.00961134 -0.0115756 -0.00397336)
(-0.010053 -0.0122231 -0.00314732)
(-0.00934237 -0.0117042 -0.00354702)
(-0.00917246 -0.0111069 -0.00343794)
(-0.0103283 -0.0120082 -0.00283812)
(-0.00923417 -0.0107652 -0.0024957)
(-0.0101061 -0.0124486 -0.00269182)
(-0.00935325 -0.011348 -0.00261293)
(-0.00809604 -0.0101289 -0.00272755)
(-0.00922562 -0.0111882 -0.00318174)
(-0.0083405 -0.0106409 -0.00280919)
(-0.00860619 -0.0106115 -0.00365499)
(-0.00905993 -0.0116964 -0.0032755)
(-0.00843949 -0.0100064 -0.00365245)
(-0.00874772 -0.0111273 -0.00256529)
(-0.00932969 -0.0115664 -0.00364222)
(-0.00934255 -0.0117547 -0.00340676)
(-0.00900769 -0.0113428 -0.00249467)
(-0.00975465 -0.0117876 -0.00369361)
(-0.00866791 -0.0108974 -0.00339873)
(-0.00961663 -0.0109291 -0.0040948)
(-0.00912652 -0.0112216 -0.00372501)
(-0.0091668 -0.0111557 -0.00401197)
(-0.00851529 -0.0102209 -0.0035652)
(-0.00923803 -0.0110749 -0.00375381)
(-0.00884497 -0.0105462 -0.00383601)
(-0.00908786 -0.010835 -0.00393087)
(-0.00893961 -0.01098 -0.00340428)
(-0.00883956 -0.00988105 -0.00240129)
(-0.0097337 -0.0115287 -0.00269765)
(-0.00968325 -0.0120086 -0.00404848)
(-0.00875019 -0.010986 -0.00288927)
(-0.00931439 -0.0114866 -0.00345617)
(-0.00865206 -0.0111048 -0.0027962)
(-0.00877799 -0.0109952 -0.00377367)
(-0.00916447 -0.0117478 -0.00313705)
(-0.00842969 -0.00964708 -0.00268767)
(-0.00779629 -0.00955492 -0.00301891)
(-0.00831752 -0.00997205 -0.00286339)
(-0.00752963 -0.00898761 -0.00268482)
(-0.00740691 -0.00870696 -0.00229157)
(-0.00777562 -0.0090754 -0.00230565)
(-0.00875516 -0.0104331 -0.0031436)
(-0.0106429 -0.012543 -0.0034871)
(-0.00963154 -0.0118815 -0.0042193)
(-0.00765691 -0.00831384 -0.00261474)
(-0.00785562 -0.00817504 -0.002581)
(-0.0112314 -0.0136017 -0.00438043)
(-0.0102081 -0.0123708 -0.00392611)
(-0.0104462 -0.0129789 -0.00415033)
(-0.0104749 -0.0127001 -0.00461736)
(-0.00958881 -0.0121277 -0.00374642)
(-0.00917031 -0.0117636 -0.00323765)
(-0.00957721 -0.0121123 -0.00375112)
(-0.00912457 -0.0118907 -0.00337335)
(-0.00953621 -0.0126223 -0.00351761)
(-0.00945937 -0.0121125 -0.00366624)
(-0.00977236 -0.0121869 -0.00386007)
(-0.00928005 -0.0118736 -0.0034034)
(-0.0094913 -0.0124553 -0.00352288)
(-0.00933912 -0.0115055 -0.00343233)
(-0.00958704 -0.0121041 -0.0029531)
(-0.00918673 -0.0120373 -0.00289632)
(-0.00873574 -0.0112998 -0.00316093)
(-0.00807798 -0.0089409 -0.00248)
(-0.0078792 -0.00955309 -0.00304621)
(-0.00746748 -0.00948179 -0.00318313)
(-0.00809138 -0.00930336 -0.0025204)
(-0.00763913 -0.00897644 -0.00274008)
(-0.00737361 -0.00899303 -0.00262743)
(-0.0076734 -0.00855914 -0.00228155)
(-0.00792727 -0.0092965 -0.00228022)
(-0.00837293 -0.0101764 -0.00266165)
(-0.0080015 -0.00959441 -0.00310867)
(-0.00839924 -0.0102589 -0.00323724)
(-0.00770655 -0.0093752 -0.00265896)
(-0.00834003 -0.0103365 -0.00355872)
(-0.00874027 -0.0102762 -0.00373987)
(-0.00817585 -0.00999216 -0.00326227)
(-0.0084375 -0.0102454 -0.00332175)
(-0.00962104 -0.0118458 -0.00317272)
(-0.00907552 -0.0112343 -0.0035071)
(-0.008807 -0.0109957 -0.00356066)
(-0.0088755 -0.0106857 -0.00385047)
(-0.0101276 -0.0121369 -0.00276533)
(-0.00987356 -0.0112611 -0.00239396)
(-0.00923956 -0.0112289 -0.00338756)
(-0.00982486 -0.0120211 -0.00367365)
(-0.00963112 -0.0115485 -0.00323629)
(-0.00968331 -0.0105057 -0.00240718)
(-0.00973807 -0.0114545 -0.00316042)
(-0.0101953 -0.0114179 -0.00236905)
(-0.00880578 -0.010871 -0.00259173)
(-0.00873964 -0.0108736 -0.00270159)
(-0.00930825 -0.0113347 -0.003483)
(-0.00956229 -0.0109517 -0.0026538)
(-0.0100046 -0.0111533 -0.00239901)
(-0.00879567 -0.0106097 -0.00268349)
(-0.0101295 -0.0117806 -0.00314334)
(-0.00906929 -0.0111918 -0.00356391)
(-0.0099148 -0.0123776 -0.00353726)
(-0.00938699 -0.0118551 -0.00342936)
(-0.00977889 -0.0123823 -0.00349635)
(-0.00945347 -0.0113993 -0.00409665)
(-0.0087109 -0.0108609 -0.00341285)
(-0.00902556 -0.0113638 -0.00327794)
(-0.00890672 -0.0108893 -0.00352344)
(-0.00975333 -0.0120795 -0.00360581)
(-0.00927197 -0.0114063 -0.00373092)
(-0.00976314 -0.0118471 -0.00274981)
(-0.0107979 -0.0126284 -0.0027261)
(-0.00949372 -0.0117887 -0.002855)
(-0.00927357 -0.0118541 -0.0030802)
(-0.00955828 -0.0113238 -0.00422043)
(-0.00893676 -0.0110739 -0.00297532)
(-0.0103004 -0.0123666 -0.00371193)
(-0.0101641 -0.0127774 -0.00378805)
(-0.00914593 -0.0114985 -0.00351698)
(-0.0106901 -0.0129013 -0.00439332)
(-0.00972167 -0.0126317 -0.00354784)
(-0.00972698 -0.0117746 -0.00386207)
(-0.0109519 -0.013107 -0.00371295)
(-0.00886628 -0.010379 -0.00379725)
(-0.00902944 -0.0104052 -0.00387333)
(-0.0087676 -0.0105534 -0.00359939)
(-0.00910688 -0.0109908 -0.00359242)
(-0.00957304 -0.0115007 -0.00400529)
(-0.00931074 -0.010871 -0.00399443)
(-0.00922756 -0.0101939 -0.00392595)
(-0.00949928 -0.0106507 -0.00405453)
(-0.00950506 -0.0108614 -0.00401316)
(-0.00959242 -0.0110742 -0.00417827)
(-0.00987748 -0.0114121 -0.00429899)
(-0.00947002 -0.0110479 -0.00396576)
(-0.00938102 -0.0111728 -0.00410035)
(-0.00970727 -0.0114054 -0.00418655)
(-0.00950693 -0.0118024 -0.00373986)
(-0.00949634 -0.0105968 -0.00412166)
(-0.00900867 -0.0102766 -0.00399461)
(-0.00926911 -0.0106751 -0.00384264)
(-0.00851608 -0.010013 -0.00359281)
(-0.0086472 -0.0100438 -0.00380792)
(-0.00854685 -0.00968416 -0.0035315)
(-0.00857874 -0.0103476 -0.0034281)
(-0.00830995 -0.009666 -0.00349798)
(-0.00859866 -0.0101436 -0.00361226)
(-0.00864685 -0.0105139 -0.00348125)
(-0.00867851 -0.0100506 -0.00361893)
(-0.00848858 -0.00980216 -0.00365119)
(-0.00857665 -0.0098122 -0.00342094)
(-0.00825933 -0.00991754 -0.00341081)
(-0.00886956 -0.0111999 -0.00328737)
(-0.00945487 -0.011034 -0.00337249)
(-0.00977961 -0.0109026 -0.00328764)
(-0.00951338 -0.0105642 -0.00305083)
(-0.00966193 -0.0112684 -0.003097)
(-0.00997208 -0.0106539 -0.00246496)
(-0.00860977 -0.0103754 -0.0028612)
(-0.0101391 -0.0117326 -0.00335975)
(-0.00890723 -0.0100041 -0.00258631)
(-0.00878186 -0.0105431 -0.0030496)
(-0.00977231 -0.0114677 -0.00260088)
(-0.00907937 -0.0112155 -0.00343403)
(-0.00909413 -0.0111534 -0.00307344)
(-0.00933315 -0.0114579 -0.00366811)
(-0.00974822 -0.0120492 -0.00356467)
(-0.00984552 -0.0122166 -0.00400661)
(-0.00829785 -0.0103894 -0.00334193)
(-0.00870906 -0.0107696 -0.00288848)
(-0.00859923 -0.0109934 -0.00290615)
(-0.0092318 -0.0113817 -0.00385088)
(-0.00705602 -0.0084646 -0.00243719)
(-0.00951338 -0.0124413 -0.00307402)
(-0.0103647 -0.0137006 -0.00414585)
(-0.00936042 -0.0116957 -0.00299158)
(-0.00905866 -0.0109016 -0.00367619)
(-0.00914001 -0.0122955 -0.00311685)
(-0.00849916 -0.0111 -0.00303421)
(-0.00935305 -0.011743 -0.00378437)
(-0.00951399 -0.0118769 -0.00370491)
(-0.00918127 -0.0121543 -0.00362127)
(-0.0094388 -0.0133035 -0.00332961)
(-0.00937711 -0.0118621 -0.00372177)
(-0.00882174 -0.0117401 -0.00295919)
(-0.00907019 -0.012051 -0.00330938)
(-0.00885821 -0.0116059 -0.00331357)
(-0.00837937 -0.0100889 -0.00282823)
(-0.00789921 -0.00886278 -0.00201339)
(-0.00802333 -0.00941306 -0.0024332)
(-0.00763738 -0.00894101 -0.00280082)
(-0.00787954 -0.00932671 -0.00253448)
(-0.00850796 -0.0100844 -0.00255936)
(-0.00838569 -0.00992485 -0.00245123)
(-0.00849281 -0.00967803 -0.00284815)
(-0.00736649 -0.00808878 -0.00221082)
(-0.00780322 -0.00808708 -0.00195443)
(-0.0076647 -0.00880151 -0.0026428)
(-0.00716218 -0.00890181 -0.00265957)
(-0.00770921 -0.00821217 -0.00227336)
(-0.00778985 -0.00874045 -0.0021361)
(-0.00747142 -0.00842569 -0.00231848)
(-0.00842163 -0.0103645 -0.00300737)
(-0.00922993 -0.011312 -0.00338063)
(-0.00876107 -0.0105508 -0.00259775)
(-0.00896036 -0.0110374 -0.00353135)
(-0.0086179 -0.0106118 -0.0031463)
(-0.00907974 -0.0114448 -0.00281999)
(-0.00844374 -0.0104818 -0.00340546)
(-0.00776839 -0.00885859 -0.0025047)
(-0.00742811 -0.00834838 -0.00235336)
(-0.00775962 -0.00861532 -0.00249468)
(-0.00957359 -0.011762 -0.00403089)
(-0.0100308 -0.0129461 -0.00382159)
(-0.00864084 -0.0107921 -0.00282078)
(-0.0100164 -0.0126359 -0.00400978)
(-0.00911463 -0.0122386 -0.00338958)
(-0.00963601 -0.0120955 -0.00371828)
(-0.00918749 -0.0122555 -0.00348463)