/*--------------------------------*- C++ -*----------------------------------*\
| =========                 |                                                 |
| \\      /  F ield         | OpenFOAM: The Open Source CFD Toolbox           |
|  \\    /   O peration     | Version:  v1612+                                |
|   \\  /    A nd           | Web:      www.OpenFOAM.com                      |
|    \\/     M anipulation  |                                                 |
\*---------------------------------------------------------------------------*/
FoamFile
{
    version     2.0;
    format      ascii;
    class       volVectorField;
    location    "100";
    object      U;
}
// * * * * * * * * * * * * * * * * * * * * * * * * * * * * * * * * * * * * * //

dimensions      [0 1 -1 0 0 0 0];

internalField   nonuniform List<vector> 
16994
(
(-0.11025 0.641488 -0.228022)
(-0.106932 0.656072 -0.231019)
(-0.104251 0.646604 -0.234585)
(-0.130611 0.788258 -0.290319)
(-0.094722 0.606611 -0.216149)
(-0.098025 0.617431 -0.228244)
(-0.0847995 0.568668 -0.205386)
(-0.107095 0.625433 -0.229386)
(-0.0803441 0.534153 -0.199734)
(-0.0921931 0.579822 -0.214312)
(-0.119519 0.697273 -0.257166)
(-0.0907428 0.575696 -0.201979)
(-0.0911514 0.558484 -0.193434)
(-0.07488 0.512685 -0.190122)
(-0.0784164 0.538973 -0.205583)
(-0.142175 0.888617 -0.318238)
(-0.141139 0.891846 -0.314935)
(-0.14423 0.912383 -0.318457)
(-0.146403 0.936082 -0.32723)
(-0.1444 0.927226 -0.32894)
(-0.135964 0.861683 -0.304234)
(-0.129208 0.851711 -0.30936)
(-0.128601 0.834401 -0.30115)
(-0.160491 0.984941 -0.351059)
(-0.159302 0.982062 -0.348282)
(-0.147066 0.917002 -0.328346)
(-0.135858 0.886343 -0.316459)
(-0.15149 0.978514 -0.344697)
(-0.153428 0.980528 -0.347097)
(-0.136002 0.836217 -0.295826)
(-0.139557 0.930814 -0.332743)
(-0.144728 0.919938 -0.330534)
(-0.143299 0.918952 -0.32522)
(-0.146633 0.957335 -0.336905)
(-0.144299 0.926173 -0.330644)
(-0.145269 0.954728 -0.335267)
(-0.138966 0.925778 -0.333098)
(-0.104586 0.656477 -0.246334)
(-0.0965645 0.593105 -0.217189)
(-0.0975709 0.618666 -0.23297)
(-0.0883754 0.586615 -0.226589)
(-0.111682 0.669714 -0.254058)
(-0.0951101 0.617048 -0.23172)
(-0.0993863 0.643818 -0.247727)
(-0.123809 0.779436 -0.299907)
(-0.117128 0.777633 -0.29767)
(-0.123594 0.796072 -0.308425)
(-0.122519 0.771638 -0.294325)
(-0.104487 0.664745 -0.25183)
(-0.0970386 0.618886 -0.231073)
(-0.095291 0.580324 -0.216861)
(-0.105464 0.662997 -0.247514)
(-0.106338 0.677935 -0.259072)
(-0.106953 0.655228 -0.248259)
(-0.0983134 0.592837 -0.227984)
(-0.119156 0.77007 -0.296687)
(-0.124638 0.778295 -0.300588)
(-0.0913392 0.573673 -0.20432)
(-0.080754 0.504141 -0.176688)
(-0.0809117 0.544269 -0.192403)
(-0.0975543 0.599602 -0.214171)
(-0.120871 0.731522 -0.274589)
(-0.112583 0.740365 -0.269366)
(-0.0822127 0.482936 -0.165052)
(-0.084322 0.54746 -0.198007)
(-0.118735 0.739402 -0.270818)
(-0.0994729 0.612605 -0.222477)
(-0.106828 0.656568 -0.239758)
(-0.104878 0.591916 -0.214058)
(-0.12461 0.735036 -0.26444)
(-0.0845532 0.582284 -0.209421)
(-0.109086 0.723184 -0.263194)
(-0.108317 0.721249 -0.263169)
(-0.105907 0.716073 -0.25567)
(-0.106036 0.718866 -0.257559)
(-0.0938537 0.638114 -0.232077)
(-0.0887942 0.592515 -0.216512)
(-0.0931333 0.624925 -0.225794)
(-0.089837 0.579314 -0.210913)
(-0.0822189 0.52738 -0.193077)
(-0.0912095 0.608426 -0.221083)
(-0.098 0.638506 -0.230436)
(-0.0901565 0.581566 -0.216174)
(-0.0826008 0.537152 -0.199558)
(-0.113244 0.67397 -0.256983)
(-0.125 0.725164 -0.273835)
(-0.138872 0.786191 -0.30031)
(-0.129507 0.744566 -0.280599)
(-0.104868 0.608388 -0.225232)
(-0.105451 0.591079 -0.220396)
(-0.0937084 0.515405 -0.191663)
(-0.111093 0.664519 -0.252505)
(-0.102625 0.584668 -0.220474)
(-0.0965238 0.527916 -0.200776)
(-0.100105 0.568243 -0.21763)
(-0.0979485 0.526156 -0.203015)
(-0.100558 0.591209 -0.223836)
(-0.108904 0.638975 -0.238231)
(-0.11164 0.626816 -0.23983)
(-0.110999 0.634277 -0.24413)
(-0.115317 0.647605 -0.24731)
(-0.132756 0.765964 -0.283799)
(-0.136649 0.744308 -0.289997)
(-0.131336 0.760092 -0.290909)
(-0.102484 0.606752 -0.218082)
(-0.0915064 0.546496 -0.191962)
(-0.102269 0.632437 -0.22575)
(-0.108192 0.644967 -0.231489)
(-0.0993952 0.586381 -0.205288)
(-0.122629 0.750047 -0.260516)
(-0.126278 0.741595 -0.26347)
(-0.0985214 0.595202 -0.210181)
(-0.0980066 0.544623 -0.192909)
(-0.119497 0.728778 -0.256493)
(-0.124315 0.760392 -0.267842)
(-0.116293 0.730796 -0.262199)
(-0.0971089 0.575694 -0.207416)
(-0.11188 0.663676 -0.235365)
(-0.116791 0.65171 -0.23312)
(-0.103284 0.597024 -0.210669)
(-0.102643 0.587528 -0.205499)
(-0.133799 0.739093 -0.283654)
(-0.131652 0.727259 -0.278568)
(-0.11108 0.605917 -0.233103)
(-0.114612 0.630743 -0.241227)
(-0.139424 0.743929 -0.282913)
(-0.11671 0.652365 -0.246095)
(-0.127303 0.64892 -0.248531)
(-0.107237 0.593666 -0.228099)
(-0.100702 0.555855 -0.213971)
(-0.0996964 0.603535 -0.2381)
(-0.0889584 0.566955 -0.225931)
(-0.116937 0.641546 -0.243881)
(-0.105493 0.614301 -0.232811)
(-0.108512 0.604097 -0.226726)
(-0.115707 0.651312 -0.251541)
(-0.106629 0.63128 -0.232411)
(-0.0997542 0.605216 -0.228366)
(-0.0942276 0.554344 -0.205404)
(-0.183843 1.06593 -0.380044)
(-0.1835 1.08853 -0.401946)
(-0.179314 1.09787 -0.400833)
(-0.179119 1.0505 -0.385912)
(-0.195891 1.06689 -0.379933)
(-0.190853 1.10435 -0.408538)
(-0.193508 1.09386 -0.403555)
(-0.199471 1.07659 -0.393378)
(-0.182565 1.08965 -0.39224)
(-0.189978 1.0631 -0.371697)
(-0.188836 1.09898 -0.390109)
(-0.0974093 0.616947 -0.227893)
(-0.121188 0.665563 -0.252666)
(-0.115167 0.649075 -0.247794)
(-0.142416 0.790723 -0.306577)
(-0.153734 0.827052 -0.311903)
(-0.135206 0.748629 -0.291929)
(-0.146554 0.80664 -0.307443)
(-0.100702 0.599529 -0.228913)
(-0.126679 0.67836 -0.248333)
(-0.122757 0.65808 -0.248874)
(-0.145991 0.800641 -0.308089)
(-0.143733 0.776524 -0.297617)
(-0.152202 0.77722 -0.300206)
(-0.154836 0.90542 -0.342629)
(-0.151522 0.86993 -0.32148)
(-0.152511 0.861415 -0.317566)
(-0.132409 0.740417 -0.276281)
(-0.136457 0.777515 -0.29037)
(-0.166923 0.968945 -0.363235)
(-0.166875 0.960144 -0.364456)
(-0.139738 0.827472 -0.312987)
(-0.143147 0.856686 -0.328098)
(-0.166948 0.951895 -0.361764)
(-0.166031 0.961706 -0.360007)
(-0.169224 0.948835 -0.361801)
(-0.181404 1.05 -0.402937)
(-0.181058 1.04268 -0.395155)
(-0.182049 1.0173 -0.391589)
(-0.179126 1.05319 -0.398744)
(-0.185072 1.05707 -0.39353)
(-0.177936 1.04915 -0.396305)
(-0.173808 0.995685 -0.380614)
(-0.186408 1.02092 -0.388294)
(-0.188353 1.04092 -0.391719)
(-0.182738 0.991643 -0.380462)
(-0.175849 0.97144 -0.377601)
(-0.178739 1.03747 -0.393711)
(-0.172283 0.975507 -0.376138)
(-0.185015 1.00151 -0.381678)
(-0.186403 1.04203 -0.393263)
(-0.125281 0.789023 -0.293624)
(-0.11517 0.744578 -0.280718)
(-0.134014 0.841079 -0.315048)
(-0.138497 0.867081 -0.327481)
(-0.13677 0.885215 -0.334316)
(-0.128211 0.794512 -0.301098)
(-0.112093 0.729819 -0.274955)
(-0.133508 0.848689 -0.314991)
(-0.130615 0.829785 -0.307484)
(-0.139511 0.837361 -0.315358)
(-0.129835 0.847638 -0.316328)
(-0.134847 0.870755 -0.322873)
(-0.116948 0.716746 -0.267315)
(-0.122344 0.786152 -0.290658)
(-0.11917 0.837123 -0.314959)
(-0.131232 0.842131 -0.319953)
(-0.121887 0.828306 -0.309939)
(-0.124886 0.849078 -0.316185)
(-0.133953 0.875705 -0.329284)
(-0.138375 0.939496 -0.345456)
(-0.141217 0.950268 -0.352496)
(-0.155565 0.991696 -0.367279)
(-0.151565 0.984399 -0.366634)
(-0.129327 0.861652 -0.319156)
(-0.138136 0.915792 -0.342093)
(-0.136793 0.941142 -0.351691)
(-0.141691 0.930505 -0.354544)
(-0.145689 0.954702 -0.361287)
(-0.128784 0.679577 -0.260565)
(-0.111194 0.606886 -0.219055)
(-0.11852 0.679259 -0.249499)
(-0.104805 0.580316 -0.212519)
(-0.121794 0.639584 -0.243407)
(-0.12795 0.67716 -0.245791)
(-0.119796 0.646607 -0.242115)
(-0.11555 0.604913 -0.218876)
(-0.131463 0.70415 -0.25921)
(-0.11366 0.59121 -0.212857)
(-0.119747 0.679309 -0.253918)
(-0.113207 0.595443 -0.217112)
(-0.101638 0.564404 -0.211923)
(-0.104858 0.530119 -0.188456)
(-0.113115 0.580321 -0.213903)
(-0.103049 0.604011 -0.216934)
(-0.0967716 0.522065 -0.189795)
(-0.0970877 0.5147 -0.191598)
(-0.17349 1.0025 -0.351581)
(-0.193496 1.07063 -0.379422)
(-0.175397 1.05493 -0.382577)
(-0.188189 1.05064 -0.3708)
(-0.172253 1.01887 -0.35802)
(-0.178337 1.03099 -0.360939)
(-0.181909 1.06087 -0.377426)
(-0.187711 1.08207 -0.37971)
(-0.149537 0.903199 -0.33991)
(-0.149306 0.912162 -0.341963)
(-0.153692 0.921727 -0.35037)
(-0.150837 0.904557 -0.348268)
(-0.146206 0.899895 -0.341859)
(-0.144179 0.887273 -0.340292)
(-0.151995 0.9135 -0.34589)
(-0.148099 0.887196 -0.339696)
(-0.154074 0.916568 -0.349533)
(-0.163152 0.960748 -0.366125)
(-0.161986 0.956033 -0.365895)
(-0.15385 0.949065 -0.357496)
(-0.156092 0.953337 -0.353922)
(-0.159435 0.95499 -0.354988)
(-0.15896 0.932822 -0.359866)
(-0.159991 0.950758 -0.358353)
(-0.16239 0.943175 -0.359826)
(-0.154997 0.925549 -0.355029)
(-0.103092 0.639718 -0.243901)
(-0.094463 0.574148 -0.21521)
(-0.110137 0.653001 -0.253981)
(-0.100956 0.616623 -0.232434)
(-0.10891 0.658528 -0.251031)
(-0.100909 0.616117 -0.227481)
(-0.0931437 0.585684 -0.221499)
(-0.126009 0.7591 -0.288493)
(-0.103894 0.639662 -0.244432)
(-0.0944985 0.566645 -0.213052)
(-0.124082 0.797655 -0.303576)
(-0.125549 0.785358 -0.299516)
(-0.116123 0.681851 -0.261976)
(-0.108663 0.667916 -0.250664)
(-0.101751 0.627399 -0.234133)
(-0.1175 0.686375 -0.258721)
(-0.135968 0.803966 -0.301479)
(-0.130519 0.773666 -0.29355)
(-0.129588 0.765475 -0.286272)
(-0.103011 0.580693 -0.230318)
(-0.0945799 0.554414 -0.21305)
(-0.114255 0.605012 -0.234503)
(-0.123122 0.748065 -0.282988)
(-0.123897 0.751678 -0.280389)
(-0.119214 0.708258 -0.267409)
(-0.0970275 0.537567 -0.199391)
(-0.103827 0.61316 -0.23444)
(-0.0795605 0.49074 -0.179915)
(-0.104807 0.638486 -0.245253)
(-0.111053 0.59958 -0.223664)
(-0.0919994 0.550994 -0.21354)
(-0.0864997 0.484627 -0.182437)
(-0.134199 0.78548 -0.289403)
(-0.123045 0.737371 -0.286722)
(-0.116987 0.695847 -0.249048)
(-0.102453 0.620736 -0.230446)
(-0.0999836 0.5889 -0.215914)
(-0.10895 0.638876 -0.244403)
(-0.115106 0.662891 -0.24699)
(-0.103496 0.6258 -0.226495)
(-0.14561 0.817047 -0.304946)
(-0.111839 0.63834 -0.236951)
(-0.098334 0.573927 -0.21673)
(-0.110396 0.649849 -0.248935)
(-0.0986661 0.597481 -0.228732)
(-0.129039 0.724947 -0.267261)
(-0.142177 0.804373 -0.305485)
(-0.144326 0.836999 -0.307081)
(-0.14068 0.820437 -0.311009)
(-0.0982624 0.560761 -0.216956)
(-0.125894 0.725699 -0.275648)
(-0.101831 0.617603 -0.241254)
(-0.114508 0.657834 -0.251676)
(-0.100531 0.640666 -0.246788)
(-0.107466 0.615717 -0.235654)
(-0.0893372 0.5451 -0.210382)
(-0.127403 0.761044 -0.293161)
(-0.105668 0.661781 -0.252017)
(-0.0970175 0.603654 -0.235602)
(-0.110509 0.671432 -0.256795)
(-0.126677 0.751382 -0.287555)
(-0.126958 0.761458 -0.292302)
(-0.119508 0.62829 -0.231302)
(-0.109555 0.593766 -0.224615)
(-0.122891 0.636986 -0.241386)
(-0.122239 0.658979 -0.246165)
(-0.146266 0.780232 -0.28717)
(-0.14861 0.784478 -0.28433)
(-0.139503 0.756785 -0.286126)
(-0.132432 0.738569 -0.274196)
(-0.12505 0.661221 -0.248009)
(-0.111816 0.612579 -0.23151)
(-0.136744 0.740108 -0.280268)
(-0.137294 0.74445 -0.28386)
(-0.147929 0.77226 -0.290958)
(-0.104793 0.595349 -0.224645)
(-0.10173 0.566427 -0.211859)
(-0.145797 0.762345 -0.281518)
(-0.144445 0.771193 -0.285184)
(-0.116557 0.638185 -0.236053)
(-0.113371 0.623094 -0.237401)
(-0.179043 1.03132 -0.3815)
(-0.174526 1.01646 -0.37292)
(-0.184736 1.05478 -0.3869)
(-0.192213 1.05578 -0.380445)
(-0.193522 1.03254 -0.37244)
(-0.19068 1.03621 -0.384075)
(-0.187516 1.02292 -0.381658)
(-0.198317 0.994015 -0.3579)
(-0.193041 1.04025 -0.374417)
(-0.190204 1.02702 -0.371799)
(-0.189962 1.02904 -0.364868)
(-0.185089 0.975536 -0.350348)
(-0.194639 1.02439 -0.378237)
(-0.195557 1.01255 -0.372194)
(-0.171785 0.90532 -0.346509)
(-0.172415 0.925525 -0.344011)
(-0.179591 0.982691 -0.369181)
(-0.177148 0.940507 -0.356205)
(-0.174156 0.916555 -0.349871)
(-0.17428 0.903349 -0.344142)
(-0.164928 0.899194 -0.339091)
(-0.180967 1.00172 -0.37733)
(-0.168748 0.96698 -0.362956)
(-0.185305 1.00336 -0.381186)
(-0.167591 0.922605 -0.356542)
(-0.165307 0.907798 -0.346986)
(-0.182521 0.946047 -0.358053)
(-0.169218 0.961658 -0.375078)
(-0.168847 0.90306 -0.34247)
(-0.167283 0.912267 -0.35289)
(-0.162708 0.86726 -0.331853)
(-0.176519 0.891297 -0.337706)
(-0.169245 0.966172 -0.372706)
(-0.184724 0.991095 -0.391592)
(-0.170661 0.925701 -0.35767)
(-0.174551 0.922592 -0.357049)
(-0.183635 0.990325 -0.382387)
(-0.15628 0.855237 -0.311855)
(-0.145212 0.790718 -0.28915)
(-0.16325 0.845026 -0.304994)
(-0.148895 0.7999 -0.2879)
(-0.1308 0.725346 -0.26854)
(-0.169491 0.860327 -0.317412)
(-0.160243 0.839543 -0.309578)
(-0.169189 0.855852 -0.314725)
(-0.161106 0.84082 -0.309828)
(-0.14725 0.787779 -0.295294)
(-0.163992 0.862372 -0.319788)
(-0.138659 0.763815 -0.283947)
(-0.161957 0.850945 -0.315486)
(-0.159944 0.834506 -0.308388)
(-0.1459 0.774298 -0.289264)
(-0.134321 0.746344 -0.269009)
(-0.160911 0.931221 -0.349144)
(-0.163866 0.951736 -0.354824)
(-0.125822 0.774919 -0.291838)
(-0.130493 0.779786 -0.297085)
(-0.156669 0.914069 -0.346124)
(-0.164368 0.955585 -0.36065)
(-0.174008 0.979555 -0.373361)
(-0.165969 0.968266 -0.36258)
(-0.170557 0.978136 -0.374547)
(-0.126152 0.765198 -0.290449)
(-0.126553 0.757625 -0.286762)
(-0.134582 0.789078 -0.299478)
(-0.13496 0.826826 -0.308049)
(-0.139553 0.818863 -0.310532)
(-0.156052 0.895802 -0.332612)
(-0.163211 0.94793 -0.362052)
(-0.165474 0.948066 -0.358417)
(-0.158354 0.932914 -0.351467)
(-0.164975 0.960731 -0.366378)
(-0.132922 0.780171 -0.294797)
(-0.131444 0.787976 -0.298524)
(-0.131691 0.744386 -0.279383)
(-0.141554 0.845335 -0.316867)
(-0.129009 0.806534 -0.302551)
(-0.135374 0.836557 -0.303104)
(-0.133281 0.84696 -0.309745)
(-0.130983 0.824248 -0.299444)
(-0.146135 0.905335 -0.330283)
(-0.146317 0.914499 -0.332112)
(-0.129499 0.811596 -0.290635)
(-0.136113 0.859886 -0.314268)
(-0.139312 0.841997 -0.307557)
(-0.13951 0.882293 -0.319409)
(-0.147881 0.915068 -0.334314)
(-0.139535 0.858361 -0.308898)
(-0.128797 0.81061 -0.290251)
(-0.137052 0.866341 -0.309718)
(-0.151564 0.928967 -0.335018)
(-0.139008 0.866744 -0.316755)
(-0.133189 0.841007 -0.302893)
(-0.136795 0.846233 -0.307289)
(-0.140546 0.882658 -0.317789)
(-0.140118 0.799248 -0.286346)
(-0.136931 0.784522 -0.283219)
(-0.1672 0.953046 -0.334491)
(-0.15956 0.934359 -0.327871)
(-0.164837 0.922473 -0.322755)
(-0.158258 0.911784 -0.317848)
(-0.140405 0.823943 -0.291065)
(-0.141376 0.836006 -0.294579)
(-0.144251 0.814894 -0.283525)
(-0.165106 0.93632 -0.332424)
(-0.162475 0.903476 -0.326334)
(-0.138776 0.798496 -0.284132)
(-0.147105 0.826334 -0.293139)
(-0.163286 0.910636 -0.324278)
(-0.147813 0.859877 -0.299027)
(-0.146211 0.830653 -0.291335)
(-0.140174 0.821195 -0.292923)
(-0.150137 0.819399 -0.287726)
(-0.185206 1.09518 -0.411705)
(-0.1803 1.05435 -0.393186)
(-0.177966 1.06517 -0.408037)
(-0.173532 1.01658 -0.379631)
(-0.169163 0.974079 -0.367317)
(-0.154959 0.922254 -0.349831)
(-0.175045 1.00936 -0.381799)
(-0.172036 1.00859 -0.37619)
(-0.179339 1.05881 -0.396238)
(-0.183805 1.07866 -0.40485)
(-0.153222 0.911295 -0.344414)
(-0.166847 1.00119 -0.379204)
(-0.159271 0.948993 -0.351846)
(-0.146577 0.866229 -0.335033)
(-0.163654 0.938237 -0.356706)
(-0.140152 0.853709 -0.315773)
(-0.143302 0.855769 -0.320622)
(-0.166016 0.961612 -0.36771)
(-0.166572 0.962395 -0.365999)
(-0.139285 0.849805 -0.321771)
(-0.143858 0.863417 -0.325241)
(-0.166711 0.965786 -0.367528)
(-0.168904 0.960522 -0.359659)
(-0.179243 1.00368 -0.376746)
(-0.168823 0.971886 -0.366953)
(-0.160952 0.921797 -0.341975)
(-0.172016 0.975717 -0.366099)
(-0.172017 0.985364 -0.370534)
(-0.191103 1.0641 -0.398789)
(-0.18913 1.04911 -0.396353)
(-0.160713 0.907295 -0.349245)
(-0.174688 0.957051 -0.365425)
(-0.171532 0.976735 -0.368239)
(-0.188817 1.06303 -0.400359)
(-0.169606 0.96067 -0.361611)
(-0.183824 1.01413 -0.38428)
(-0.169148 0.955695 -0.358497)
(-0.166516 0.932544 -0.353506)
(-0.170937 0.933612 -0.356549)
(-0.166069 0.960666 -0.358486)
(-0.151575 0.856996 -0.330658)
(-0.155113 0.87772 -0.338198)
(-0.162442 0.920416 -0.350967)
(-0.148305 0.937548 -0.347514)
(-0.146776 0.933085 -0.349932)
(-0.148819 0.949958 -0.350273)
(-0.143033 0.921034 -0.340248)
(-0.141725 0.901169 -0.336001)
(-0.164952 0.985788 -0.36504)
(-0.153531 0.954753 -0.348707)
(-0.1559 0.971927 -0.359381)
(-0.156116 0.965607 -0.359464)
(-0.14698 0.935301 -0.336825)
(-0.146556 0.912283 -0.338806)
(-0.155504 0.970557 -0.355037)
(-0.149059 0.95215 -0.337722)
(-0.155329 0.961577 -0.354924)
(-0.15265 0.946765 -0.352966)
(-0.15247 0.97499 -0.354277)
(-0.147675 0.934116 -0.344858)
(-0.146811 0.917692 -0.340037)
(-0.14066 0.906026 -0.331229)
(-0.146375 0.946744 -0.337514)
(-0.109882 0.642804 -0.235261)
(-0.0979524 0.586449 -0.218028)
(-0.112629 0.65551 -0.234845)
(-0.111414 0.606558 -0.223857)
(-0.146485 0.821695 -0.288993)
(-0.138258 0.759448 -0.265366)
(-0.170871 0.92738 -0.337218)
(-0.160065 0.906628 -0.322481)
(-0.157145 0.903626 -0.320182)
(-0.15803 0.942181 -0.335609)
(-0.142156 0.788422 -0.283123)
(-0.115382 0.675102 -0.23771)
(-0.111377 0.606214 -0.222553)
(-0.111008 0.636477 -0.225046)
(-0.158008 0.859895 -0.300163)
(-0.149522 0.826524 -0.291339)
(-0.132469 0.746969 -0.266574)
(-0.145183 0.823528 -0.2973)
(-0.158545 0.930655 -0.33562)
(-0.162192 0.937943 -0.3347)
(-0.141739 0.825828 -0.278652)
(-0.142976 0.781696 -0.28059)
(-0.138947 0.750619 -0.261976)
(-0.139151 0.772271 -0.278139)
(-0.146968 0.804685 -0.284696)
(-0.191695 1.10641 -0.413346)
(-0.193288 1.12249 -0.418423)
(-0.19365 1.09161 -0.408333)
(-0.195345 1.12354 -0.420773)
(-0.187276 1.0693 -0.396535)
(-0.180693 1.11623 -0.410607)
(-0.184426 1.06593 -0.39932)
(-0.190256 1.10119 -0.408744)
(-0.177065 1.02866 -0.380609)
(-0.176565 1.03026 -0.384378)
(-0.191453 1.13354 -0.422149)
(-0.171796 1.00375 -0.37004)
(-0.170322 1.00447 -0.375259)
(-0.178802 1.02499 -0.384534)
(-0.164284 0.979782 -0.369617)
(-0.174651 1.02539 -0.382499)
(-0.166544 0.958828 -0.355966)
(-0.172207 1.02862 -0.377443)
(-0.188309 1.12275 -0.420161)
(-0.165332 0.869096 -0.329466)
(-0.165426 0.871905 -0.331967)
(-0.163376 0.87673 -0.326069)
(-0.152582 0.792223 -0.295876)
(-0.163764 0.866726 -0.327175)
(-0.15151 0.806993 -0.308357)
(-0.141316 0.729953 -0.27796)
(-0.160804 0.827725 -0.313294)
(-0.153106 0.818902 -0.30973)
(-0.148454 0.784967 -0.300238)
(-0.136637 0.772954 -0.294421)
(-0.131651 0.754201 -0.289763)
(-0.110818 0.662962 -0.251503)
(-0.118563 0.688618 -0.264093)
(-0.156571 0.799324 -0.306524)
(-0.142378 0.812403 -0.314988)
(-0.160981 0.876572 -0.340738)
(-0.158344 0.848538 -0.319476)
(-0.156013 0.834648 -0.315442)
(-0.148918 0.826687 -0.325059)
(-0.14324 0.751949 -0.295103)
(-0.154455 0.816845 -0.31515)
(-0.143589 0.941566 -0.344816)
(-0.14505 0.950993 -0.345148)
(-0.157112 1.00675 -0.359171)
(-0.148547 0.968441 -0.358696)
(-0.157609 1.01473 -0.368357)
(-0.158653 1.00325 -0.364849)
(-0.144165 0.943322 -0.343827)
(-0.149672 0.977656 -0.347823)
(-0.150385 0.987288 -0.367304)
(-0.164576 1.03737 -0.372229)
(-0.165091 1.02565 -0.374046)
(-0.145174 0.945503 -0.337282)
(-0.157382 1.02017 -0.368191)
(-0.149064 0.98445 -0.356022)
(-0.138897 0.944066 -0.346017)
(-0.158036 1.01746 -0.364346)
(-0.152969 0.990485 -0.351157)
(-0.140102 0.950788 -0.346879)
(-0.161495 0.92023 -0.344964)
(-0.170681 0.916165 -0.346328)
(-0.1673 0.910117 -0.341901)
(-0.136158 0.76162 -0.28929)
(-0.132436 0.725856 -0.275357)
(-0.146594 0.811869 -0.298397)
(-0.139698 0.755243 -0.285162)
(-0.152792 0.871117 -0.326487)
(-0.1451 0.795333 -0.298589)
(-0.16659 0.913565 -0.346647)
(-0.172129 0.945028 -0.356063)
(-0.158469 0.895963 -0.337443)
(-0.141927 0.775256 -0.290082)
(-0.145912 0.781827 -0.296951)
(-0.149575 0.834413 -0.309969)
(-0.146853 0.777853 -0.290516)
(-0.170093 0.929576 -0.353375)
(-0.145892 0.792665 -0.296586)
(-0.163325 0.985162 -0.355125)
(-0.160918 0.981845 -0.353525)
(-0.142155 0.870417 -0.310001)
(-0.159299 0.932592 -0.337848)
(-0.16308 0.984518 -0.362046)
(-0.163094 0.993777 -0.356552)
(-0.159733 0.951425 -0.339734)
(-0.127616 0.793945 -0.285943)
(-0.153958 0.941308 -0.339602)
(-0.121215 0.770854 -0.272399)
(-0.120656 0.790046 -0.278882)
(-0.127513 0.817762 -0.289676)
(-0.132426 0.800074 -0.28748)
(-0.133669 0.848871 -0.304946)
(-0.130305 0.760682 -0.277451)
(-0.126999 0.800749 -0.300112)
(-0.135611 0.809726 -0.296265)
(-0.13279 0.794495 -0.297933)
(-0.127629 0.719412 -0.264452)
(-0.135738 0.835482 -0.316617)
(-0.138383 0.836971 -0.314911)
(-0.145189 0.838928 -0.314578)
(-0.135947 0.82013 -0.293304)
(-0.134984 0.823891 -0.300896)
(-0.139488 0.830598 -0.301279)
(-0.125117 0.786008 -0.284368)
(-0.110729 0.714382 -0.265333)
(-0.130623 0.802307 -0.284159)
(-0.11529 0.76886 -0.273863)
(-0.127552 0.762652 -0.267)
(-0.135628 0.855988 -0.304198)
(-0.111866 0.750692 -0.264357)
(-0.137472 0.856925 -0.31023)
(-0.120928 0.764302 -0.278972)
(-0.120837 0.770883 -0.280175)
(-0.10343 0.668923 -0.248402)
(-0.107579 0.667386 -0.239604)
(-0.125497 0.774116 -0.283617)
(-0.0997217 0.646192 -0.241703)
(-0.109405 0.692887 -0.254578)
(-0.121768 0.776768 -0.284679)
(-0.130155 0.790284 -0.285715)
(-0.106168 0.635877 -0.225374)
(-0.0999879 0.644188 -0.241495)
(-0.0913823 0.57882 -0.214667)
(-0.110889 0.67849 -0.24195)
(-0.109076 0.634231 -0.223524)
(-0.0865909 0.58444 -0.214712)
(-0.110866 0.68427 -0.251641)
(-0.117104 0.766242 -0.277801)
(-0.118057 0.709176 -0.255661)
(-0.109565 0.691402 -0.250333)
(-0.0897315 0.588688 -0.216425)
(-0.0990655 0.615551 -0.233124)
(-0.0934181 0.572672 -0.219916)
(-0.105784 0.671704 -0.252601)
(-0.102411 0.661021 -0.249321)
(-0.0879223 0.608962 -0.22723)
(-0.0951276 0.578741 -0.223822)
(-0.0816005 0.517427 -0.19389)
(-0.113136 0.760576 -0.289679)
(-0.0813762 0.545301 -0.207765)
(-0.119592 0.767638 -0.285694)
(-0.0935277 0.580268 -0.225918)
(-0.0949489 0.629218 -0.2381)
(-0.10342 0.644735 -0.245757)
(-0.10782 0.670467 -0.257517)
(-0.12152 0.669693 -0.255662)
(-0.123861 0.705729 -0.268996)
(-0.107007 0.615642 -0.223059)
(-0.118421 0.649285 -0.243244)
(-0.135432 0.758667 -0.295195)
(-0.13422 0.796164 -0.313917)
(-0.132837 0.771344 -0.297739)
(-0.155767 0.872162 -0.34097)
(-0.166098 0.894066 -0.34298)
(-0.13427 0.761167 -0.29116)
(-0.115274 0.639776 -0.245214)
(-0.140135 0.794819 -0.309638)
(-0.142806 0.821179 -0.314287)
(-0.143111 0.81491 -0.313844)
(-0.164986 0.944965 -0.358015)
(-0.152715 0.897015 -0.341342)
(-0.159965 0.938289 -0.358815)
(-0.166628 0.907623 -0.346065)
(-0.143087 0.823734 -0.314841)
(-0.13069 0.742207 -0.285437)
(-0.162811 0.914024 -0.352951)
(-0.132299 0.766052 -0.293893)
(-0.139701 0.795857 -0.305024)
(-0.122839 0.820045 -0.314748)
(-0.124097 0.819055 -0.30983)
(-0.128576 0.844619 -0.324578)
(-0.130008 0.825215 -0.314661)
(-0.121153 0.762225 -0.293659)
(-0.117636 0.773376 -0.294294)
(-0.120831 0.798794 -0.304699)
(-0.107302 0.686073 -0.260086)
(-0.105476 0.667333 -0.252148)
(-0.0928335 0.641748 -0.245524)
(-0.0995523 0.633846 -0.236474)
(-0.100767 0.63713 -0.240379)
(-0.111098 0.699426 -0.265368)
(-0.101474 0.649528 -0.243071)
(-0.0977613 0.60792 -0.22583)
(-0.0899848 0.608173 -0.223444)
(-0.126253 0.778991 -0.301942)
(-0.114731 0.757049 -0.278352)
(-0.123627 0.789562 -0.300041)
(-0.110306 0.669125 -0.254131)
(-0.10347 0.607201 -0.232627)
(-0.107528 0.665499 -0.257393)
(-0.0956015 0.626099 -0.23928)
(-0.103643 0.630002 -0.241943)
(-0.0996997 0.589178 -0.224994)
(-0.0995311 0.633406 -0.236771)
(-0.091368 0.586952 -0.220941)
(-0.0878794 0.552267 -0.201816)
(-0.123749 0.75272 -0.292046)
(-0.113045 0.671172 -0.259704)
(-0.102861 0.607689 -0.232315)
(-0.189121 1.07102 -0.39468)
(-0.188085 1.07903 -0.395963)
(-0.186803 1.03375 -0.382771)
(-0.188299 1.05821 -0.396465)
(-0.169687 0.9346 -0.340219)
(-0.170066 0.941088 -0.34846)
(-0.18599 1.07142 -0.395423)
(-0.182448 1.06001 -0.392444)
(-0.188682 1.06883 -0.390552)
(-0.159184 0.882214 -0.323473)
(-0.167465 0.911374 -0.334029)
(-0.168833 0.93388 -0.339791)
(-0.170737 0.942358 -0.34506)
(-0.17238 0.955699 -0.355797)
(-0.166238 0.925283 -0.344466)
(-0.165663 0.909017 -0.331834)
(-0.137386 0.836484 -0.313248)
(-0.136645 0.829716 -0.312898)
(-0.136627 0.832983 -0.305782)
(-0.134192 0.853823 -0.318755)
(-0.141909 0.856729 -0.314527)
(-0.12813 0.80713 -0.294284)
(-0.131428 0.830807 -0.314266)
(-0.130109 0.811872 -0.307928)
(-0.10701 0.654755 -0.240275)
(-0.0759787 0.543758 -0.204146)
(-0.123757 0.738531 -0.280934)
(-0.122272 0.721115 -0.268075)
(-0.109775 0.639311 -0.236691)
(-0.0906242 0.577657 -0.215942)
(-0.106006 0.638522 -0.234663)
(-0.0927464 0.564792 -0.213308)
(-0.131643 0.820614 -0.302271)
(-0.125776 0.822523 -0.299399)
(-0.0917507 0.599941 -0.219285)
(-0.115993 0.697656 -0.261703)
(-0.0952551 0.588018 -0.226636)
(-0.114358 0.686392 -0.25506)
(-0.124937 0.772901 -0.291249)
(-0.11365 0.690943 -0.259583)
(-0.108192 0.633714 -0.225213)
(-0.118071 0.652202 -0.235297)
(-0.117005 0.648193 -0.23934)
(-0.103346 0.585172 -0.213519)
(-0.124405 0.693641 -0.255775)
(-0.125796 0.680825 -0.250065)
(-0.121474 0.671916 -0.244643)
(-0.142718 0.781878 -0.29054)
(-0.153654 0.81732 -0.296762)
(-0.156049 0.842195 -0.310873)
(-0.143986 0.793653 -0.294224)
(-0.143443 0.781713 -0.283482)
(-0.126944 0.690991 -0.249206)
(-0.123885 0.710646 -0.265423)
(-0.144539 0.791824 -0.292626)
(-0.140975 0.778674 -0.280231)
(-0.147607 0.798835 -0.292523)
(-0.118696 0.66277 -0.250332)
(-0.113584 0.64566 -0.250453)
(-0.143218 0.834887 -0.311685)
(-0.133528 0.755306 -0.28382)
(-0.128818 0.758206 -0.280666)
(-0.107848 0.638446 -0.251437)
(-0.108454 0.61529 -0.228036)
(-0.111272 0.653728 -0.248601)
(-0.109446 0.63732 -0.239402)
(-0.102033 0.595051 -0.214266)
(-0.113994 0.661137 -0.25177)
(-0.101247 0.602552 -0.222429)
(-0.115159 0.63813 -0.24014)
(-0.125428 0.668094 -0.262738)
(-0.132596 0.777053 -0.287142)
(-0.133363 0.764096 -0.290862)
(-0.134924 0.787055 -0.293647)
(-0.125387 0.777166 -0.293064)
(-0.0989524 0.62474 -0.2298)
(-0.0987902 0.611602 -0.222569)
(-0.0985753 0.592761 -0.22251)
(-0.0911009 0.542664 -0.207117)
(-0.1021 0.578949 -0.215893)
(-0.0930047 0.552439 -0.204321)
(-0.0985619 0.577956 -0.216986)
(-0.094285 0.551001 -0.203003)
(-0.102089 0.623304 -0.231306)
(-0.0947757 0.588879 -0.219746)
(-0.119109 0.716447 -0.264098)
(-0.120668 0.740859 -0.275138)
(-0.12432 0.742336 -0.27588)
(-0.124044 0.759093 -0.282248)
(-0.106779 0.640392 -0.233112)
(-0.104242 0.618503 -0.230617)
(-0.104876 0.624282 -0.233742)
(-0.114117 0.692437 -0.25365)
(-0.112261 0.685332 -0.258947)
(-0.112283 0.688114 -0.251621)
(-0.160922 0.943154 -0.324701)
(-0.145691 0.885205 -0.309148)
(-0.165718 0.985653 -0.347663)
(-0.167018 0.990092 -0.348898)
(-0.149927 0.90855 -0.315727)
(-0.154929 0.892854 -0.309918)
(-0.155564 0.906516 -0.320257)
(-0.15994 0.937741 -0.330748)
(-0.161537 0.954422 -0.330891)
(-0.155279 0.933119 -0.326748)
(-0.160158 0.91307 -0.317548)
(-0.177832 1.06387 -0.370579)
(-0.171067 0.950288 -0.332082)
(-0.172322 0.953047 -0.332539)
(-0.168255 0.960094 -0.332548)
(-0.126667 0.821131 -0.298457)
(-0.12092 0.75856 -0.271936)
(-0.131948 0.871684 -0.310566)
(-0.11311 0.728608 -0.260839)
(-0.131287 0.810726 -0.294474)
(-0.111808 0.734587 -0.265698)
(-0.129516 0.838678 -0.300216)
(-0.121202 0.790969 -0.285095)
(-0.141111 0.897239 -0.315746)
(-0.14035 0.887332 -0.316172)
(-0.113899 0.758677 -0.272173)
(-0.110462 0.633504 -0.226009)
(-0.112216 0.697191 -0.25784)
(-0.104572 0.63835 -0.227458)
(-0.093568 0.587442 -0.208592)
(-0.105946 0.738955 -0.275072)
(-0.11577 0.710312 -0.261342)
(-0.101286 0.641484 -0.237945)
(-0.0869478 0.578761 -0.208974)
(-0.108573 0.663776 -0.241552)
(-0.0950938 0.612041 -0.222655)
(-0.0925075 0.61081 -0.220732)
(-0.10122 0.645582 -0.238283)
(-0.1042 0.665253 -0.23989)
(-0.102692 0.698105 -0.252186)
(-0.100044 0.631924 -0.229516)
(-0.175368 0.900393 -0.324224)
(-0.184935 1.00763 -0.365324)
(-0.189825 1.00203 -0.36666)
(-0.176648 0.963217 -0.333238)
(-0.171216 0.909878 -0.331315)
(-0.166094 0.865966 -0.310578)
(-0.170039 0.925425 -0.325097)
(-0.179924 0.96626 -0.347935)
(-0.109686 0.635193 -0.241806)
(-0.101213 0.599074 -0.225248)
(-0.108929 0.650047 -0.252289)
(-0.105301 0.620099 -0.234075)
(-0.110889 0.646773 -0.249941)
(-0.103898 0.610146 -0.228359)
(-0.111533 0.647438 -0.254648)
(-0.109538 0.623381 -0.238441)
(-0.135331 0.805152 -0.30679)
(-0.125686 0.785846 -0.296999)
(-0.113608 0.655558 -0.248239)
(-0.13635 0.793789 -0.303459)
(-0.143427 0.826359 -0.312961)
(-0.13017 0.77404 -0.288701)
(-0.129085 0.76461 -0.287106)
(-0.131529 0.781081 -0.29831)
(-0.110855 0.67617 -0.255349)
(-0.131926 0.800167 -0.286318)
(-0.151212 0.904176 -0.313273)
(-0.148014 0.903031 -0.319923)
(-0.137709 0.832759 -0.289157)
(-0.12141 0.793672 -0.283112)
(-0.143155 0.865187 -0.309586)
(-0.131407 0.862043 -0.307353)
(-0.13542 0.851365 -0.298176)
(-0.130681 0.799788 -0.288038)
(-0.144159 0.86841 -0.30536)
(-0.128479 0.780545 -0.28041)
(-0.127046 0.770818 -0.278601)
(-0.131986 0.792396 -0.278599)
(-0.13616 0.820381 -0.291748)
(-0.130242 0.775492 -0.27366)
(-0.126103 0.746408 -0.27001)
(-0.134413 0.736471 -0.270448)
(-0.138018 0.763889 -0.286022)
(-0.133656 0.720301 -0.274083)
(-0.154353 0.819018 -0.30963)
(-0.150295 0.773518 -0.291019)
(-0.133184 0.671452 -0.253769)
(-0.163716 0.848908 -0.319959)
(-0.144243 0.78182 -0.290854)
(-0.137676 0.735097 -0.275735)
(-0.149605 0.797665 -0.300114)
(-0.117959 0.705979 -0.258302)
(-0.0971792 0.621753 -0.231154)
(-0.114156 0.652422 -0.246214)
(-0.0898677 0.566018 -0.208309)
(-0.125763 0.722542 -0.271847)
(-0.127465 0.755536 -0.282031)
(-0.114393 0.694816 -0.260241)
(-0.0863974 0.588398 -0.215173)
(-0.10778 0.584339 -0.215995)
(-0.0797559 0.514791 -0.172121)
(-0.113398 0.638983 -0.23662)
(-0.12697 0.775104 -0.288614)
(-0.125285 0.748882 -0.282304)
(-0.0957787 0.575079 -0.208632)
(-0.107379 0.591972 -0.224252)
(-0.0796316 0.521222 -0.192425)
(-0.0896756 0.544608 -0.188844)
(-0.116778 0.674908 -0.254846)
(-0.0951734 0.567968 -0.215126)
(-0.0932192 0.55459 -0.201328)
(-0.143694 0.779189 -0.289398)