/*--------------------------------*- C++ -*----------------------------------*\
| =========                 |                                                 |
| \\      /  F ield         | OpenFOAM: The Open Source CFD Toolbox           |
|  \\    /   O peration     | Version:  v1612+                                |
|   \\  /    A nd           | Web:      www.OpenFOAM.com                      |
|    \\/     M anipulation  |                                                 |
\*---------------------------------------------------------------------------*/
FoamFile
{
    version     2.0;
    format      ascii;
    class       volScalarField;
    location    "50";
    object      p;
}
// * * * * * * * * * * * * * * * * * * * * * * * * * * * * * * * * * * * * * //

dimensions      [0 2 -2 0 0 0 0];

internalField   nonuniform List<scalar> 
17062
(
1.81205
1.76221
1.73353
1.77312
1.76684
1.7684
1.76639
1.77609
1.77575
1.77324
1.76818
1.77158
1.77448
1.77644
1.77538
1.77739
1.77439
1.773
1.74282
1.74436
1.75065
1.7527
1.75111
1.74994
1.75575
1.7548
1.75806
1.75114
1.74798
1.75618
1.75276
1.75468
1.75148
1.75183
1.81606
1.81995
1.8213
1.79755
1.81097
1.82585
1.82863
1.794
1.81089
1.79552
1.83248
1.82896
1.82461
1.83392
1.83624
1.82216
1.81324
1.82369
1.82739
1.81086
1.78069
1.78436
1.77589
1.77339
1.77083
1.77376
1.78126
1.78913
1.79531
1.78739
1.77468
1.78047
1.80417
1.80039
1.77455
1.79028
1.79184
1.84148
1.84438
1.84925
1.83168
1.82838
1.84612
1.83513
1.83123
1.85086
1.8405
1.84729
1.84557
1.85153
1.82948
1.82992
1.82761
1.81791
1.83121
1.93755
1.92518
1.96131
1.95903
1.947
1.9469
1.92709
1.97603
1.98621
1.95007
1.9461
1.97583
1.96732
1.94168
1.75422
1.75292
1.74244
1.74594
1.73063
1.74238
1.75359
1.75853
1.77913
1.77658
1.72802
1.76687
1.74767
1.76693
1.77856
1.76382
1.76454
1.75609
1.77098
1.76916
1.7825
1.78657
1.76468
1.7603
1.78499
1.76694
1.76787
1.76973
1.77471
1.77015
1.78155
1.78435
1.7653
1.77929
1.76717
1.75345
1.77078
1.82296
1.8298
1.83506
1.83139
1.81768
1.82752
1.80406
1.80441
1.78158
1.7894
1.79905
1.79972
1.79228
1.76598
1.91672
1.94073
1.92465
1.88354
1.94849
1.92379
1.89085
1.91483
1.89421
1.91481
1.88933
1.92931
1.73187
1.74001
1.72942
1.72471
1.72092
1.74502
1.73752
1.71874
1.71682
1.72394
1.72364
1.72313
1.71813
1.7321
1.71094
1.72305
1.72266
1.70706
1.73355
1.81367
1.81791
1.81759
1.80535
1.80343
1.81322
1.8056
1.78075
1.78665
1.81107
1.81482
1.80825
1.81166
1.78013
1.77454
1.80023
1.7826
1.76487
1.76173
1.77102
1.76734
1.75516
1.74891
1.75193
1.76428
1.77192
1.76462
1.76947
1.76774
1.77166
1.75837
1.76648
1.78219
1.78234
1.7835
1.78092
1.78695
1.78464
1.78559
1.78422
1.78058
1.78274
1.78384
1.78903
1.7878
1.78805
1.78716
1.79056
1.79369
1.78919
1.78632
1.79491
1.7916
1.78784
1.79008
1.79014
1.78257
1.79327
1.79112
1.79279
1.79089
1.79557
1.78907
1.7842
1.78574
1.79396
1.79095
1.7895
1.92464
1.93902
1.92459
1.94509
1.94614
1.95197
1.95622
1.91328
1.91165
1.93846
1.95611
1.96241
1.96287
1.96799
2.04473
2.04806
2.01976
2.03667
2.02769
2.03681
2.01219
2.01053
2.02197
2.02513
2.02152
2.0106
2.00452
2.00683
1.77762
1.77255
1.77785
1.77594
1.77478
1.78021
1.78038
1.77391
1.78149
1.78036
1.77849
1.78063
1.77511
1.95292
1.9439
1.95518
1.96821
1.95562
1.95704
1.96238
1.94216
1.95559
1.94527
1.95503
1.94612
1.92985
1.93008
1.93709
1.91957
2.00323
2.00248
1.9974
2.03312
2.04163
2.02562
2.02238
2.02864
2.01664
2.04068
2.05203
2.01018
2.02737
2.03687
2.04201
1.90456
1.87773
1.88587
1.91212
1.89705
1.87597
1.86981
1.8595
1.86593
1.88282
1.85681
1.86914
1.86335
1.88792
1.8861
1.88209
1.90159
1.91585
1.89883
1.90795
1.91784
1.76807
1.7668
1.76414
1.7742
1.77177
1.76756
1.77541
1.77963
1.76689
1.77458
1.77888
1.78127
1.77727
1.82185
1.83353
1.81805
1.82685
1.83572
1.83982
1.82561
1.69945
1.7046
1.70721
1.71308
1.71191
1.70532
1.7084
1.70645
1.70928
1.70854
1.71333
1.89154
1.90023
1.86674
1.86757
1.88303
1.90273
1.91468
1.89569
1.91583
1.9112
1.89485
1.81941
1.81821
1.78871
1.7822
1.81448
1.81954
1.83528
1.8722
1.86244
1.81484
1.8184
1.82268
1.83974
1.85596
1.86909
1.87107
1.83976
1.85511
1.84911
1.83989
1.74625
1.74044
1.73187
1.73726
1.74806
1.72804
1.74056
1.74194
1.74565
1.73415
1.72219
1.72469
1.73361
1.73969
1.72486
1.73176
1.73447
1.73145
1.72017
1.72914
1.73088
1.73349
1.72978
1.73325
1.81515
1.7869
1.78937
1.81481
1.80902
1.8192
1.81347
1.81918
1.82101
1.7749
1.77524
1.78876
1.82103
1.79694
1.81686
1.82734
1.83268
1.8311
1.86272
1.876
1.83671
1.82258
1.86244
1.85954
1.83359
1.84818
1.82876
1.84218
1.85392
1.85233
1.84902
1.84221
1.84246
1.83461
1.87738
1.84878
1.85548
1.70783
1.70491
1.70722
1.70615
1.71278
1.70147
1.70514
1.70695
1.69907
1.70184
1.69872
1.70151
1.70363
1.70919
1.78108
1.78263
1.80428
1.77233
1.78107
1.8243
1.80071
1.7916
1.82214
1.79052
1.78874
1.82626
1.82691
1.78594
1.82278
1.82142
1.8327
1.83873
1.83446
1.83872
1.84766
1.8153
1.81007
1.80814
1.80899
1.82535
1.82199
1.84368
1.83768
1.82412
1.8488
1.84657
1.84329
1.82949
1.8441
1.84488
1.77918
1.76845
1.78176
1.76554
1.76436
1.76307
1.75829
1.76827
1.74956
1.75414
1.75902
1.76078
1.75494
1.75118
1.75121
1.76794
1.77376
1.76976
1.76738
1.77356
1.76634
1.77146
1.77403
1.75979
1.75392
1.75923
1.75716
1.75403
1.74769
1.75771
1.77139
1.75663
1.75921
1.76028
1.7465
1.75991
1.76196
1.75809
1.75945
1.75559
1.75959
1.75684
1.76542
1.75988
1.75707
1.76524
1.76449
1.76771
1.76986
1.77023
1.77105
1.76718
1.93524
1.94998
1.95145
1.92709
1.93426
1.93548
1.94627
1.93699
1.92401
1.9087
1.90671
1.95574
1.93175
1.93108
1.95219
1.94432
1.78892
1.8063
1.81955
1.84231
1.81927
1.82205
1.82143
1.827
1.79536
1.79223
1.81777
1.77972
1.77373
1.79076
1.79662
1.79078
1.81207
1.77544
1.78058
1.79175
1.78428
1.76937
1.75952
1.74987
1.77071
1.75849
1.75184
1.7281
1.75173
1.72241
1.76902
1.76635
1.74935
1.74084
1.72956
1.72795
1.99854
2.01074
1.98439
1.99893
2.01547
2.02916
2.0092
2.02093
2.03026
1.97411
1.98886
1.99328
2.02997
2.02629
1.97159
1.98214
1.98521
2.0139
2.00582
1.90322
1.90875
1.92606
1.91783
1.87956
1.7828
1.82417
1.81565
1.80967
1.79961
1.81085
1.78912
1.8023
1.79214
1.82315
1.82073
1.81029
1.80575
1.78575
1.80038
1.80844
1.81868
1.80889
1.81622
1.81948
1.80048
1.79412
1.79143
1.7918
1.79
1.79095
1.79022
1.78812
1.78962
1.79369
1.79417
1.7942
1.79019
1.78939
1.78763
1.87811
1.87689
1.92013
1.91901
1.91471
1.89151
1.87836
1.93441
1.92647
1.8807
1.90945
1.89127
1.91726
1.94102
1.94813
1.94389
1.95261
1.92531
1.91024
1.93969
1.9378
1.94993
1.95183
1.93725
1.93101
1.91183
1.91551
1.94263
1.92922
1.92524
1.94449
1.92035
1.92857
1.95526
1.98807
1.98994
1.97092
1.95822
1.9884
1.99487
2.00761
1.98409
1.98224
1.99761
2.01101
1.9829
2.00653
1.97771
1.98976
2.02113
2.01127
1.99174
2.00909
1.91036
1.91118
1.9275
1.92268
1.9237
1.92386
1.92697
1.99715
1.97014
1.96614
1.97132
1.95559
1.9906
1.97989
1.94417
1.91777
1.95852
1.95245
1.98494
1.97831
1.95646
1.85887
1.87921
1.87597
1.88711
1.8726
1.88788
1.90216
1.86882
1.86308
1.87262
1.88681
1.86652
1.87201
1.8839
1.89557
1.89855
1.8788
1.88938
1.82013
1.80392
1.82362
1.82398
1.81177
1.81682
1.81649
1.80317
1.79646
1.81109
1.73998
1.73865
1.73069
1.73397
1.72762
1.7394
1.74669
1.73342
1.7356
1.72727
1.74023
1.745
1.74419
1.74361
1.74522
1.84881
1.8173
1.81075
1.81129
1.81981
1.80372
1.85425
1.82083
1.82273
1.85809
1.82542
1.8352
1.84732
1.83482
1.79295
1.76863
1.77776
1.79244
1.80164
1.79344
1.78437
1.79745
1.7852
1.81107
1.80828
1.81457
1.81881
1.81577
1.81414
1.85972
1.86351
1.86209
1.86704
1.86988
1.87046
1.85031
1.88332
1.8877
1.87247
1.8739
1.87789
1.85625
1.86
1.86497
1.87924
1.88264
1.88859
1.86237
1.86743
1.7438
1.74704
1.74848
1.74679
1.76042
1.75741
1.7431
1.75103
1.74537
1.75005
1.75191
1.75335
1.75584
1.75692
1.75018
1.75697
1.74962
1.74872
1.75867
1.73342
1.73605
1.75149
1.74663
1.73505
1.74866
1.73742
1.75592
1.76051
1.71881
1.734
1.72464
1.72997
1.74375
1.75053
1.74729
1.74181
1.73917
1.74588
1.74813
1.74123
1.75586
1.75862
1.75039
1.74741
1.74826
1.75704
1.74595
1.74956
1.75231
1.75246
1.75007
1.74354
1.74864
1.74734
1.86665
1.86875
1.84502
1.85624
1.85401
1.8612
1.87713
1.86949
1.86622
1.87049
1.8521
1.86672
1.88183
1.88729
1.87803
1.86878
1.86018
1.87126
1.87855
1.88445
1.88542
1.88399
1.88121
1.8836
1.85919
1.87456
1.87523
1.78091
1.78779
1.76879
1.77757
1.78219
1.7812
1.77505
1.7791
1.78993
1.79162
1.77953
1.78191
1.76776
1.77211
1.77823
1.78212
1.77702
1.77754
1.78249
1.78537
1.77253
1.78132
1.78246
1.78492
1.78342
1.78107
1.78041
1.77736
1.77832
1.7729
1.7764
1.78702
1.78764
1.78442
1.77847
1.77918
1.78033
1.73717
1.73403
1.7329
1.73684
1.73787
1.73891
1.72815
1.74015
1.74118
1.7304
1.73281
1.73188
1.74301
1.72944
1.73552
1.73795
1.73136
1.73641
1.73312
1.73291
1.72285
1.71762
1.72694
1.80774
1.80429
1.70174
1.70484
1.70066
1.8556
1.85311
1.74243
1.74306
1.73623
1.77713
1.77339
1.77946
1.71642
1.71657
1.71004
1.71266
1.71577
1.84822
1.84779
1.84269
1.83021
1.72333
1.71956
1.72317
1.71405
1.86165
1.86481
1.8619
1.73633
1.72735
1.72716
1.73836
1.7297
1.72226
1.72297
1.71926
1.72307
1.7193
1.79632
1.80769
1.72451
1.72183
1.717
1.73939
1.74642
1.74851
1.73691
1.73035
1.73022
1.76172
1.76225
1.83979
1.84668
1.72504
1.72355
1.72924
1.72684
1.73112
1.72547
1.87728
1.8772
1.73021
1.73222
1.73246
1.73675
1.73173
1.73264
1.73257
1.88205
1.8817
1.78108
1.78269
1.89489
1.8947
1.74244
1.74132
1.74353
1.74055
1.73416
1.73644
1.73808
1.74162
1.74043
1.74461
1.74438
1.80728
1.79312
1.7939
1.79236
1.782
1.76695
1.75747
1.75066
1.8582
1.86116
1.76034
1.77962
1.77143
1.77497
1.79521
1.80643
1.80718
1.90659
1.90608
1.89579
1.90682
1.90281
1.74442
1.75016
1.74341
1.75495
1.75476
1.75375
1.75088
1.75186
1.75632
1.75648
1.76087
1.84405
1.84401
1.83891
1.82044
1.83444
1.89005
1.86661
1.86103
1.87085
1.75616
1.75882
1.75485
1.75582
1.81508
1.80871
1.82071
1.75752
1.75208
1.74887
1.92368
1.92524
1.92491
1.92176
1.91583
1.91598
1.90072
1.90183
1.75932
1.76191
1.7512
1.75497
1.8534
1.84689
1.85652
1.84914
1.86243
1.78317
1.78282
1.76947
1.76861
1.76158
1.76405
1.76519
1.77109
1.76638
1.77048
1.7674
1.93731
1.93673
1.93844
1.92063
1.77263
1.76805
1.76566
1.76369
1.76422
1.77506
1.77285
1.81395
1.80922
1.81593
1.89714
1.90381
1.91331
1.91076
1.87506
1.87908
1.80483
1.79673
1.80753
1.76422
1.75855
1.77022
1.77631
1.97987
1.97506
1.96518
1.96979
1.77383
1.77183
1.77941
1.77551
1.95312
1.95376
1.87566
1.87651
1.92688
1.93655
1.93529
1.80266
1.79045
1.79716
1.80264
1.76897
1.77752
1.77364
1.98434
1.98338
1.9678
1.97347
1.96424
1.78308
1.78069
1.77946
1.78405
1.78159
1.78297
1.85468
1.86572
1.77981
1.77662
1.82087
1.80975
1.81221
1.7871
1.98692
1.99136
1.78103
1.77514
1.77854
1.80782
1.80817
1.93467
1.93188
1.93233
1.95991
2.01067
2.00791
1.78607
1.78594
1.77732
1.78044
1.97743
1.96899
1.7948
1.79139
1.82651
1.83082
1.82471
1.85808
1.84469
1.84547
1.98757
1.97422
1.97486
1.79236
1.79237
1.79647
1.79064
1.79054
1.79145
1.78976
1.9445
1.95467
1.95389
1.83723
1.82576
1.82546
2.04736
2.03504
2.03707
2.02254
1.99574
1.97258
1.97869
2.05904
2.05457
2.02361
2.00629
2.00008
2.02567
1.97135
1.94555
1.96559
1.87604
1.87844
1.84361
1.8466
1.85856
2.01881
2.01966
2.03277
2.03951
2.03667
2.03071
2.03183
2.04756
2.03265
2.03613
2.02683
2.05011
2.064
2.03708
2.03299
2.0419
2.04649
2.04131
1.86018
1.88063
1.85371
1.85131
1.86898
1.88596
1.84923
1.83667
1.84662
1.84871
1.79318
1.79329
1.79595
1.79574
1.79781
1.96491
1.9744
1.96766
1.99113
1.96649
1.94287
1.94013
1.91983
1.95608
1.955
1.95532
1.95762
1.81322
1.81054
1.7949
1.79841
1.78953
1.81353
1.80987
1.80722
2.03477
2.01606
2.03421
2.01342
1.97627
2.01843
2.00276
1.99755
1.99793
2.01975
2.01066
2.00713
1.99526
2.02187
2.02114
1.78937
1.80029
1.8099
1.80354
1.78595
1.78563
1.80194
1.8
1.90877
1.9032
1.92014
1.92986
1.94275
1.91866
1.92741
1.91994
1.92983
1.93549
1.97718
1.96888
1.97258
1.99578
1.9374
1.93816
1.95691
1.95166
1.78666
1.78819
1.78997
1.78247
1.77615
1.77986
1.78591
1.78898
1.78507
1.78166
1.78289
1.78594
1.78954
1.79465
1.80043
1.79083
1.79327
1.81555
1.79615
1.79415
1.78988
1.79111
1.79194
1.78918
1.7868
1.79313
1.79242
1.78741
1.78797
1.89198
1.89403
1.91125
1.83927
1.83195
1.8134
1.81749
1.82363
1.86438
1.8523
1.83459
1.86216
1.87604
1.78605
1.78908
1.78915
1.79626
1.7948
1.7969
1.79617
1.79036
1.78831
1.78895
1.79403
1.79542
1.94491
1.94754
1.96367
2.00821
2.00306
1.99037
1.99815
2.0102
1.96418
1.97034
1.9867
1.9755
1.98227
1.99449
2.00116
1.97765
1.99668
1.98446
1.7819
1.78772
1.78225
1.78574
1.78449
1.77984
1.78762
1.93206
1.9624
1.92393
1.95252
1.9516
1.88294
1.88367
1.91458
1.91022
1.90261
1.91521
1.9175
1.77439
1.76371
1.761
1.77706
1.98637
1.9803
1.99991
2.01088
2.01345
2.00126
1.99155
1.9958
1.98923
1.79914
1.80793
1.81268
1.79469
1.78448
1.88822
1.8808
1.8869
1.90876
1.89763
1.91481
1.87442
1.87182
1.77915
1.78062
1.78455
1.78472
1.77756
1.78129
1.78482
1.77921
1.78416
1.78192
1.78214
1.78462
1.78408
1.78361
1.78749
1.79039
1.79176
1.78802
1.78865
1.78823
1.9253
1.97609
1.96173
1.98452
1.97583
1.98701
1.98732
1.9984
1.99058
1.98991
1.96314
1.96568
1.95007
1.95008
1.93536
1.92285
1.95984
1.91615
1.92419
1.95748
1.96115
1.76476
1.77178
1.77016
1.76636
1.76033
1.85205
1.86557
1.8746
1.88365
1.93268
1.93127
1.9216
1.89457
1.88191
1.89658
1.9009
1.88337
1.87025
1.96646
1.9605
1.96052
1.94526
1.93815
1.95826
1.94787
1.76515
1.76601
1.77122
1.76833
1.77211
1.9284
1.94835
1.9489
1.95719
1.9466
1.96308
1.95899
1.96671
1.97133
1.75519
1.76056
1.75004
1.75321
1.80161
1.82212
1.81668
1.84442
1.83356
1.85153
1.85167
1.90841
1.91775
1.90959
1.89919
1.88601
1.88484
1.8932
1.87752
1.86299
1.83452
1.84685
1.92099
1.93707
1.89995
1.90303
1.92821
1.91244
1.91324
1.90777
1.89887
1.78542
1.78549
1.77577
1.76893
1.83721
1.84842
1.84362
1.81351
1.81308
1.83694
1.82391
1.8207
1.7558
1.74992
1.76576
1.76212
1.76205
1.75278
1.76571
1.75303
1.75952
1.77161
1.77193
1.80603
1.81943
1.8335
1.80823
1.77258
1.75736
1.76853
1.77447
1.7704
1.75695
1.76881
1.77191
1.76957
1.76609
1.92017
1.91518
1.93439
1.92355
1.93693
1.75912
1.76363
1.76165
1.75506
1.77018
1.76817
1.76755
1.76908
1.77067
1.77135
1.77411
1.7795
1.77282
1.77378
1.77625
1.77859
1.77518
1.75816
1.75583
1.75196
1.7557
1.75559
1.76048
1.82964
1.8331
1.83352
1.8277
1.83601
1.81619
1.81237
1.74811
1.74208
1.75018
1.7636
1.76257
1.7541
1.76349
1.75391
1.75157
1.7454
1.75011
1.75782
1.74958
1.88011
1.89639
1.91151
1.89697
1.89122
1.90423
1.8873
1.90831
1.91395
1.91921
1.92671
1.91897
1.91586
1.92877
1.91573
1.92996
1.91942
1.9205
1.91552
1.88564
1.89547
1.89108
1.89266
1.88974
1.90336
1.90125
1.91342
1.90552
1.90273
1.90204
1.91249
1.89763
1.90546
1.91003
1.94803
1.91455
1.93876
1.93632
1.95034
1.92833
1.93064
1.92722
1.91522
1.92111
1.91663
1.92556
1.92043
1.91735
1.92107
1.9215
1.75458
1.74947
1.75042
1.7501
1.74608
1.74121
1.74277
1.74041
1.7432
1.74511
1.74642
1.74954
1.75146
1.75324
1.7974
1.80778
1.79258
1.8085
1.80222
1.84813
1.86437
1.84408
1.84436
1.83447
1.8251
1.76009
1.75825
1.77624
1.77994
1.7832
1.76098
1.75879
1.75764
1.76272
1.80867
1.81587
1.80167
1.78638
1.78463
1.78294
1.78458
1.77432
1.78335
1.75215
1.75625
1.76783
1.76878
1.77173
1.76392
1.74728
1.84678
1.85358
1.84965
1.88236
1.88545
1.89973
1.88919
1.89521
1.89348
1.88282
1.8751
1.84776
1.85009
1.85488
1.84499
1.81071
1.83601
1.84034
1.82227
1.83716
1.83916
1.82415
1.82443
1.84079
1.82845
1.84153
1.83204
1.82994
1.82329
1.84819
1.86886
1.85615
1.83926
1.84988
1.83908
1.83124
1.868
1.86872
1.84142
1.84218
1.74402
1.74895
1.75208
1.7503
1.75232
1.74644
1.74977
1.75118
1.74354
1.75116
1.75264
1.74605
1.75137
1.75473
1.7556
1.75522
1.7575
1.74576
1.74265
1.75038
1.7536
1.87417
1.8785
1.884
1.89867
1.8902
1.8994
1.88899
1.9134
1.90711
1.91862
1.91354
1.90434
1.89768
1.88773
1.9094
1.89916
1.9137
1.91298
1.90778
1.91003
1.90506
1.8964
1.90024
1.89519
1.89984
1.89137
1.90626
1.8994
1.90915
1.89871
1.90867
1.90118
1.90033
1.9071
1.91303
1.9061
1.91045
1.91824
1.90352
1.90496
1.91093
1.91348
1.90758
1.7835
1.77107
1.78005
1.78134
1.78418
1.82512
1.81641
1.81772
1.82846
1.81138
1.82493
1.83341
1.81952
1.83552
1.83556
1.80403
1.81405
1.76697
1.77034
1.77532
1.7626
1.75731
1.7564
1.85885
1.85335
1.89985
1.88173
1.89347
1.87389
1.87937
1.86665
1.80396
1.80192
1.79383
1.79061
1.79859
1.78709
1.78361
1.78135
1.81031
1.82197
1.81964
1.82576
1.80152
1.80802
1.73873
1.7277
1.73533
1.73846
1.7403
1.73266
1.73796
1.73616
1.73596
1.74126
1.74187
1.73536
1.73527
1.73544
1.73526
1.72127
1.72695
1.73346
1.73142
1.73065
1.73093
1.7508
1.75647
1.7525
1.75438
1.74021
1.74151
1.74905
1.75317
1.73042
1.7352
1.73056
1.72848
1.73386
1.73533
1.73707
1.88279
1.89484
1.89334
1.90198
1.89656
1.89094
1.89471
1.89372
1.89988
1.89405
1.88312
1.88662
1.8887
1.86973
1.87811
1.87744
1.89125
1.84614
1.8592
1.84098
1.85326
1.87207
1.86918
1.8769
1.87398
1.88584
1.8862
1.87956
1.87658
1.87269
1.88419
1.87638
1.89357
1.88502
1.89574
1.72899
1.73394
1.72634
1.72854
1.73015
1.72711
1.73377
1.73418
1.74147
1.74507
1.74407
1.74735
1.74038
1.72911
1.74581
1.87595
1.88503
1.87745
1.87454
1.86781
1.85269
1.87643
1.86658
1.87407
1.86337
1.87576
1.86783
1.8792
1.87067
1.87948
1.87319
1.72405
1.72452
1.71268
1.71756
1.72734
1.81582
1.82736
1.81214
1.80578
1.81979
1.82095
1.80498
1.82524
1.81934
1.8227
1.82905
1.85611
1.86039
1.86818
1.86299
1.84793
1.84259
1.76335
1.75312
1.75524
1.74476
1.72113
1.73499
1.72308
1.7396
1.74224
1.73255
1.71714
1.7383
1.72882
1.73137
1.73892
1.74281
1.81793
1.8188
1.80104
1.77562
1.78381
1.78836
1.76915
1.7631
1.72573
1.73023
1.72468
1.72822
1.72924
1.72724
1.72864
1.7225
1.73655
1.74225
1.73537
1.73879
1.7327
1.77636
1.76796
1.77373
1.75927
1.76152
1.75336
1.73952
1.73285
1.74747
1.74878
1.72948
1.74163
1.7264
1.7256
1.73135
1.73217
1.71854
1.72639
1.72367
1.72307
1.72038
1.71547
1.72269
1.71956
1.72598
1.72591
1.72697
1.72256
1.72127
1.72302
1.71938
1.722
1.72132
1.72769
1.72996
1.72785
1.7231
1.7274
1.72569
1.80046
1.80946
1.80311
1.80777
1.81824
1.82223
1.82649
1.82144
1.81361
1.83385
1.84241
1.81874
1.82335
1.82815
1.8481
1.84122
1.82325
1.81594
1.84399
1.84063
1.78215
1.78084
1.76767
1.77049
1.7969
1.79815
1.71371
1.72143
1.71263
1.71741
1.71603
1.71536
1.71591
1.71696
1.70955
1.72056
1.71576
1.71339
1.83467
1.87422
1.86839
1.86684
1.86558
1.85813
1.86085
1.86222
1.86989
1.85517
1.87063
1.87209
1.88611
1.72239
1.71849
1.73208
1.71399
1.72396
1.72529
1.72412
1.71973
1.72056
1.71642
1.84039
1.84237
1.85035
1.86261
1.83501
1.84132
1.85033
1.84637
1.86185
1.8492
1.85032
1.85527
1.84079
1.8563
1.84906
1.8415
1.82793
1.86488
1.85733
1.85054
1.85191
1.87208
1.86202
1.87383
1.86786
1.86254
1.86025
1.85963
1.848
1.85309
1.8666
1.86003
1.85795
1.85169
1.71016
1.70843
1.71441
1.70701
1.71505
1.71268
1.71335
1.71014
1.71628
1.71091
1.7135
1.79043
1.77839
1.78769
1.77281
1.76688
1.71275
1.70991
1.71356
1.72229
1.72067
1.8635
1.86956
1.86015
1.8679
1.86297
1.85794
1.8517
1.84021
1.84088
1.85967
1.85042
1.85612
1.85852
1.85442
1.84598
1.83954
1.84843
1.84935
1.84881
1.69005
1.71717
1.71061
1.71615
1.72311
1.71772
1.71842
1.72056
1.71006
1.7074
1.69489
1.69864
1.7051
1.70331
1.70218
1.70777
1.71047
1.71056
1.71135
1.71353
1.71007
1.69971
1.69984
1.70463
1.70511
1.70414
1.70916
1.71092
1.71804
1.71772
1.71517
1.70989
1.71073
1.70801
1.70956
1.7129
1.71312
1.71153
1.70924
1.71097
1.71428
1.71157
1.71199
1.76272
1.766
1.75054
1.74515
1.74816
1.75618
1.76075
1.76274
1.7638
1.76072
1.7721
1.8194
1.82881
1.80065
1.81177
1.80692
1.82712
1.82922
1.82646
1.82983
1.83764
1.83706
1.81547
1.82095
1.82196
1.81562
1.74424
1.72353
1.745
1.7487
1.73343
1.7268
1.72221
1.7291
1.73195
1.7274
1.77591
1.76707
1.76731
1.74155
1.74476
1.75758
1.75223
1.75428
1.7515
1.83109
1.81225
1.80549
1.80366
1.81067
1.81737
1.82035
1.81441
1.80307
1.80108
1.81702
1.82897
1.75126
1.69327
1.69485
1.69693
1.69951
1.85436
1.85072
1.73146
1.73371
1.72368
1.71607
1.71838
1.71428
1.86631
1.86425
1.8682
1.86601
1.85695
1.86098
1.87017
1.85517
1.85079
1.85722
1.8601
1.86524
1.86157
1.85824
1.8587
1.86361
1.85951
1.85172
1.85555
1.84136
1.84343
1.85179
1.8496
1.85438
1.71085
1.70036
1.70719
1.70358
1.70479
1.69922
1.71603
1.70749
1.70972
1.69852
1.70401
1.71285
1.70701
1.71668
1.71643
1.71394
1.81069
1.79656
1.81863
1.81101
1.83905
1.8242
1.81753
1.79444
1.80621
1.83345
1.83782
1.75235
1.77358
1.77723
1.76966
1.76136
1.74342
1.75448
1.75048
1.74493
1.74988
1.75186
1.74816
1.83319
1.82335
1.80932
1.83827
1.83774
1.80533
1.81151
1.80252
1.77534
1.78303
1.80498
1.78986
1.78434
1.85471
1.84354
1.85764
1.83329
1.84966
1.85775
1.84563
1.84451
1.83614
1.83455
1.7565
1.75856
1.75126
1.75341
1.7444
1.76168
1.76368
1.76063
1.76261
1.77027
1.73785
1.74456
1.73602
1.74042
1.7376
1.74346
1.74583
1.73789
1.74751
1.74628
1.74432
1.74003
1.74318
1.73869
1.74512
1.73988
1.81491
1.79941
1.8121
1.80653
1.83401
1.82492
1.82358
1.81404
1.82062
1.80694
1.83672
1.83991
1.84275
1.82712
1.82232
1.81602
1.81673
1.83124
1.83905
1.81455
1.8163
1.80262
1.80131
1.79372
1.793
1.78493
1.77045
1.75782
1.77842
1.76787
1.82947
1.82621
1.82207
1.81357
1.84286
1.81889
1.82142
1.8421
1.82989
1.82976
1.85192
1.88074
1.89944
1.8859
1.90386
1.89409
1.89743
1.88362
1.87965
1.88617
1.88475
1.89897
1.89634
1.90546
1.83585
1.86161
1.84496
1.8598
1.86019
1.86245
1.86321
1.86845
1.86871
1.84979
1.84267
1.82819
1.83356
1.74828
1.75316
1.75214
1.75109
1.75271
1.74666
1.74027
1.75521
1.75227
1.73316
1.74328
1.74631
1.74253
1.74762
1.74995
1.74514
1.74506
1.74545
1.7407
1.74389
1.74995
1.7473
1.74715
1.74716
1.74605
1.73751
1.74356
1.74303
1.73989
1.7424
1.86361
1.86291
1.85873
1.8544
1.86876
1.87301
1.87655
1.87235
1.87358
1.83352
1.83849
1.81693
1.84956
1.85035
1.85657
1.85467
1.85342
1.85324
1.76192
1.78331
1.77294
1.77301
1.76979
1.78289
1.78274
1.78364
1.88643
1.87086
1.88998
1.89136
1.88388
1.75756
1.76073
1.7657
1.76374
1.76744
1.75838
1.76127
1.76085
1.75967
1.76165
1.76254
1.76229
1.7643
1.87138
1.87909
1.85992
1.85606
1.85195
1.8539
1.86055
1.8479
1.85564
1.86765
1.87085
1.88437
1.9483
1.94748
1.93833
1.94359
1.92725
1.92996
1.9208
1.93635
1.92889
1.9389
1.92434
1.75663
1.76414
1.76071
1.76195
1.75691
1.76413
1.764
1.75769
1.76755
1.76326
1.76518
1.84709
1.84312
1.86587
1.87109
1.85438
1.8156
1.83904
1.82741
1.83864
1.83572
1.83164
1.81453
1.80899
1.83461
1.82525
1.83615
1.84418
1.84793
1.82166
1.81952
1.94483
1.94917
1.94347
1.93322
1.93081
1.9124
1.93824
1.91894
1.93083
1.91421
1.90623
1.8977
1.90831
1.91245
1.92726
1.93657
1.93949
1.93181
1.92316
1.77168
1.77137
1.7676
1.77237
1.77508
1.77929
1.77345
1.7727
1.77834
1.77594
1.7751
1.77642
1.77924
1.7838
1.77362
1.76576
1.76356
1.76373
1.76724
1.77178
1.83938
1.82726
1.85311
1.84173
1.85685
1.85781
1.8417
1.84931
1.81528
1.80584
1.8385
1.82476
1.81985
1.82308
1.83275
1.84864
1.85317
1.81954
1.81335
1.85086
1.84986
1.85437
1.86029
1.86726
1.86514
1.87068
1.8793
1.89783
1.88474
1.90078
1.91241
1.91244
1.91146
1.91685
1.77051
1.77311
1.78986
1.78807
1.77936
1.78747
1.79176
1.79053
1.79465
1.77697
1.77262
1.77895
1.7765
1.84325
1.84844
1.86089
1.8541
1.83144
1.84584
1.85605
1.84664
1.79772
1.78508
1.78137
1.78765
2.00057
1.99329
1.99479
1.96995
1.96238
1.97123
1.98798
1.99048
2.00156
2.0005
2.0172
2.02629
2.01127
2.03523
2.01577
2.00199
1.87464
1.89625
1.90672
1.90517
1.91212
1.89284
1.87036
1.86443
1.87359
1.87404
1.9923
1.98445
2.01683
1.99487
2.01891
2.0043
2.00091
1.88841
1.88052
1.88521
1.87005
1.90465
1.90366
1.76312
1.75386
1.75382
1.74602
1.76413
1.7606
1.77047
1.76245
1.76136
1.75824
1.75293
1.76771
1.76984
1.71361
1.71541
1.72514
1.71869
1.72007
1.71915
1.71911
1.71568
1.73341
1.73587
1.73452
1.7372
1.74213
1.73619
1.73926
1.73968
1.74206
1.73925
1.74332
1.74588
1.7477
1.7397
1.74
1.74472
1.74236
1.73902
1.73911
1.74095
1.73894
1.74424
1.74891
1.74158
1.74502
1.74639
1.74847
1.75372
1.75383
1.75182
1.75174
1.75343
1.75183
1.79034
1.75795
1.7609
1.80843
1.76555
1.80053
1.77382
1.77004
1.79321
1.78018
1.7735
1.76576
1.76104
1.77007
1.76115
1.76296
1.7645
1.76643
1.76251
1.76357
1.76196
1.75989
1.75642
1.75926
1.75555
1.759
1.75811
1.75895
1.75924
1.75932
1.75782
1.76593
1.7614
1.7551
1.75233
1.7578
1.75819
1.75937
1.76726
1.7613
1.7638
1.76259
1.76238
1.76394
1.76104
1.75911
1.76648
1.79008
1.7709
1.7732
1.78672
1.78187
1.78521
1.77023
1.7695
1.782
1.7755
1.7883
1.78871
1.77432
1.76279
1.7646
1.76583
1.76692
1.77728
1.77423
1.76926
1.76388
1.76921
1.77489
1.7644
1.76841
1.77347
1.78429
1.7785
1.78671
1.78215
1.79414
1.77884
1.79809
1.77962
1.7623
1.77015
1.77664
1.7763
1.96408
1.95457
1.96923
1.98154
1.97592
1.95112
1.94948
1.96512
1.9811
1.9692
1.98048
1.9637
1.9556
1.77282
1.75969
1.77094
1.77786
1.85505
1.85749
1.85912
1.84166
1.84568
1.84336
1.78664
1.79694
1.78047
1.77491
1.79404
1.79171
1.79125
1.76783
1.781
1.77973
1.77447
1.77709
1.76793
1.77318
1.76672
1.78149
1.77794
1.77502
1.77267
1.77352
1.76818
1.76488
1.77013
1.77168
1.78398
1.78314
1.78881
1.78693
1.78982
1.77583
1.77875
1.77309
1.78187
1.78157
1.77431
1.77893
1.78079
1.77613
1.77918
1.81412
1.81772
1.80112
1.80093
1.81551
1.80504
1.80179
1.79136
1.79637
1.80697
1.81401
1.8121
1.82466
1.95812
1.98938
1.97221
2.00642
1.99544
1.78595
1.78747
1.78765
1.78365
1.78403
1.78816
1.78308
1.78417
1.78777
1.78843
1.78208
2.00765
2.02057
2.04221
2.0379
2.04251
2.06048
2.05349
2.00863
2.01561
2.03614
2.03224
2.02464
2.00781
2.01212
2.02739
2.03899
2.03239
1.82451
1.8398
1.7952
1.79285
1.79267
1.79692
1.79378
1.79513
1.7981
1.79428
1.79738
1.79608
1.7982
1.90957
1.9484
1.95174
1.94112
1.93856
1.91765
1.94413
1.95359
1.79227
1.79349
1.80585
1.82996
1.82583
1.82798
1.81747
1.82542
1.82916
1.7901
1.78564
1.78991
1.95887
1.93888
1.95923
1.98041
1.96032
1.98857
1.98843
1.97899
1.78585
1.78612
1.78819
1.78988
1.79312
1.78882
1.78538
1.79062
1.79098
1.78629
1.79107
1.79952
1.82753
1.80479
1.79436
1.8074
1.79696
1.81557
1.82889
1.81917
1.80591
1.78465
1.78544
1.79363
1.79051
1.78657
1.78766
1.79029
1.79038
1.78664
1.78979
1.85965
1.87144
1.87407
1.84031
1.86909
1.86203
1.86275
1.86005
1.85403
1.85481
1.84271
1.84359
1.8368
1.78439
1.77781
1.7839
1.8091
1.80458
1.79326
1.79486
1.79381
1.80772
1.80657
1.79471
1.804
1.81914
1.9494
1.99207
2.01144
2.0007
1.97275
2.01317
2.00427
2.00054
1.96839
1.9659
1.95405
1.94787
1.91302
1.95068
1.95391
1.95538
1.93481
1.78065
1.78254
1.78048
1.78121
1.77889
1.7718
1.77751
1.78035
1.78155
1.78827
1.78448
1.78823
1.93163
1.89957
1.88363
1.89111
1.86313
1.89075
1.86967
1.89074
1.87648
1.8771
1.86694
1.87269
1.90271
1.905
1.90217
1.91319
1.9334
1.97603
1.97339
1.98136
1.97967
1.96923
1.96945
1.95511
1.95879
1.93363
1.95642
1.97418
1.96885
1.9767
1.97004
1.96283
1.77617
1.76594
1.76649
1.79665
1.78201
1.77749
1.77474
1.772
1.7769
1.79027
1.78688
1.79017
1.78041
1.77092
1.78039
1.78853
1.78587
1.78848
1.78599
1.78928
1.78476
1.94718
1.96
1.95923
1.96778
1.96584
1.95862
1.96807
1.96579
1.89935
1.88818
1.89697
1.90838
1.90395
1.85441
1.87219
1.87235
1.85337
1.85921
1.86173
1.85861
1.84964
1.8499
1.8438
1.83251
1.83183
1.77148
1.76921
1.76581
1.77065
1.77582
1.76504
1.76899
1.77641
1.77856
1.77547
1.77688
1.77042
1.96007
1.95657
1.95182
1.9541
1.95186
1.96045
1.93764
1.94052
1.96171
1.95151
1.94333
1.94013
1.93992
1.89909
1.82004
1.82894
1.84251
1.79658
1.82205
1.82889
1.81622
1.7792
1.807
1.81579
1.81541
1.79324
1.77348
1.82878
1.7672
1.77495
1.78788
1.77578
1.79267
1.79276
1.80416
1.79592
1.7785
1.7311
1.7363
1.74251
1.74214
1.7483
1.74165
1.74159
1.74347
1.74767
1.74958
1.74411
1.83139
1.86619
1.84623
1.86628
1.86384
1.86806
1.86222
1.83915
1.8549
1.86791
1.87331
1.88687
1.88961
1.736
1.74069
1.74852
1.74171
1.86543
1.86602
1.85502
1.84299
1.85098
1.87336
1.86498
1.84763
1.88733
1.87538
1.87212
1.85461
1.85509
1.86622
1.89081
1.88784
1.88589
1.89177
1.87267
1.87541
1.86548
1.75263
1.75091
1.76147
1.76449
1.85892
1.86331
1.89074
1.87577
1.89281
1.88934
1.8795
1.85857
1.86737
1.87048
1.85932
1.88463
1.89843
1.78927
1.79281
1.76805
1.78317
1.80857
1.79161
1.79169
1.77569
1.79216
1.8341
1.81908
1.81039
1.80025
1.8702
1.85957
1.8518
1.84998
1.86682
1.86528
1.73685
1.89086
1.88947
1.88906
1.72867
1.71554
1.72826
1.73306
1.72507
1.72719
1.72391
1.72497
1.72372
1.72807
1.7282
1.72387
1.71947
1.73547
1.73225
1.72909
1.72834
1.726
1.725
1.7195
1.72681
1.74062
1.74207
1.73766
1.8738
1.86412
1.87605
1.88092
1.8768
1.87946
1.87299
1.86494
1.77688
1.79039
1.78458
1.77489
1.76899
1.77315
1.78433
1.77731
1.78
1.79944
1.79948
1.79399
1.80308
1.80258
1.80037
1.79901
1.76345
1.74871
1.73736
1.73962
1.75826
1.7605
1.75267
1.74229
1.73761
1.74083
1.71708
1.73417
1.72527
1.79164
1.79491
1.78841
1.79414
1.78065
1.80217
1.80184
1.804
1.77447
1.78245
1.8046
1.78835
1.80682
1.81083
1.72157
1.72229
1.71533
1.71749
1.72208
1.72077
1.723
1.72687
1.7175
1.7202
1.7245
1.72582
1.71915
1.71856
1.72563
1.787
1.79124
1.78777
1.78031
1.78084
1.77248
1.76177
1.75274
1.76996
1.76906
1.76553
1.76611
1.77281
1.76227
1.69622
1.70494
1.70341
1.70574
1.72298
1.71127
1.72564
1.72398
1.71605
1.71876
1.71747
1.72607
1.71971
1.86995
1.85315
1.8512
1.86676
1.84289
1.86255
1.8412
1.71545
1.70811
1.71286
1.84506
1.84247
1.8626
1.72965
1.72208
1.72465
1.73942
1.73644
1.72928
1.74051
1.74679
1.75192
1.74848
1.73909
1.73294
1.74013
1.78876
1.77773
1.77529
1.80066
1.79059
1.79679
1.77844
1.78908
1.78861
1.76805
1.7735
1.80237
1.80702
1.79183
1.78795
1.81766
1.80643
1.80442
1.79407
1.82099
1.82441
1.82331
1.70476
1.70059
1.70332
1.71501
1.70545
1.70051
1.70119
1.70175
1.84822
1.83643
1.71783
1.85876
1.8533
1.85369
1.81759
1.81012
1.80846
1.81605
1.82094
1.81429
1.8308
1.82926
1.834
1.82438
1.8295
1.74992
1.74826
1.76053
1.74899
1.74562
1.7351
1.74841
1.74485
1.74981
1.74326
1.7346
1.73091
1.73661
1.73677
1.73945
1.73539
1.72957
1.72927
1.73698
1.74182
1.7274
1.73383
1.73075
1.83774
1.86975
1.8534
1.83197
1.85232
1.84577
1.85865
1.84435
1.84778
1.84714
1.86615
1.84249
1.863
1.8597
1.86621
1.85597
1.8483
1.85226
1.86335
1.8662
1.86028
1.85379
1.72833
1.74764
1.74499
1.75039
1.7486
1.74567
1.74123
1.73783
1.74873
1.73602
1.74999
1.74265
1.73899
1.74468
1.74707
1.74234
1.74453
1.73323
1.74112
1.74467
1.74153
1.73942
1.74257
1.74081
1.73926
1.7412
1.7368
1.73113
1.74273
1.73991
1.74347
1.76017
1.75699
1.7576
1.75776
1.75765