/*--------------------------------*- C++ -*----------------------------------*\
| =========                 |                                                 |
| \\      /  F ield         | OpenFOAM: The Open Source CFD Toolbox           |
|  \\    /   O peration     | Version:  v1612+                                |
|   \\  /    A nd           | Web:      www.OpenFOAM.com                      |
|    \\/     M anipulation  |                                                 |
\*---------------------------------------------------------------------------*/
FoamFile
{
    version     2.0;
    format      ascii;
    class       volVectorField;
    location    "50";
    object      wallShearStress;
}
// * * * * * * * * * * * * * * * * * * * * * * * * * * * * * * * * * * * * * //

dimensions      [0 2 -2 0 0 0 0];

internalField   uniform (0 0 0);

boundaryField
{
    WALL
    {
        type            calculated;
        value           nonuniform List<vector> 
1510
(
(-0.00442782 -0.0139019 0.004369)
(-0.00439588 -0.0137253 0.00502644)
(-0.00784346 -0.0105694 0.00463825)
(-0.00805257 -0.0123388 0.00725193)
(-0.00750175 -0.0136829 0.00170022)
(-0.00607455 -0.0135062 0.00339804)
(0.000936823 -0.0129388 0.00774408)
(0.000732366 -0.0142798 0.00748778)
(-0.00376896 -0.0121251 0.00791669)
(-0.00524875 -0.0120224 0.00770746)
(-0.00330265 -0.0136276 0.0109987)
(-0.00212406 -0.0129968 0.0119879)
(-0.00333207 -0.0125692 0.00716166)
(-0.0034968 -0.0126048 0.00789571)
(-0.00423115 -0.0130913 0.0140473)
(-0.00273676 -0.01281 0.0129725)
(0.00455474 -0.0146131 0.00269354)
(0.00403614 -0.0135195 0.00386735)
(-0.00708652 -0.0131367 0.00450488)
(-0.007697 -0.0123025 0.00407454)
(-0.00714781 -0.0153429 0.00843844)
(-0.00765836 -0.0138591 0.0073017)
(0.00134574 -0.0140108 -0.00651596)
(0.00101389 -0.0138613 -0.00730333)
(-0.000171381 -0.0124645 0.00635047)
(0.000243752 -0.0123312 0.00602539)
(-0.00793251 -0.0107445 0.00185745)
(-0.00786461 -0.0111387 0.0033403)
(-0.00710402 -0.0148399 0.00521197)
(-0.0057654 -0.0152225 0.00516596)
(-0.00653379 -0.00951723 -0.0009989)
(-0.00601535 -0.00925996 -0.0018083)
(-0.00490295 -0.00951571 0.0012009)
(-0.0059604 -0.0101708 0.000973894)
(0.00124967 -0.0134094 0.0130738)
(-0.0141567 -0.0229023 0.00601017)
(-0.0137945 -0.0208782 0.00595298)
(-0.0069591 -0.0161873 0.0108105)
(-0.007124 -0.0176483 0.0109054)
(-0.00246138 -0.0118358 0.00651508)
(-0.00434619 -0.0119632 0.00631353)
(-0.00813623 -0.0135726 0.00327725)
(-0.0065713 -0.012548 0.0045657)
(0.00198396 -0.0150518 0.010332)
(0.00254508 -0.0135793 0.00918635)
(-0.00847994 -0.0144233 0.00111123)
(-0.00933293 -0.0157035 -0.000951797)
(-0.00577591 -0.0215278 -0.00182193)
(-0.00744687 -0.0202331 -0.000616217)
(-0.00572699 -0.0137189 0.0036956)
(-0.00616023 -0.0124482 0.00362512)
(-0.000607071 -0.0194245 -0.00657026)
(-0.000332708 -0.0194888 -0.00521601)
(-0.00693498 -0.0137184 0.0127309)
(-0.00560753 -0.013389 0.011626)
(-0.00107138 -0.0189615 0.000268611)
(-0.00125581 -0.0165308 0.00128043)
(-0.0117085 -0.0210672 0.00345578)
(-0.00896068 -0.0208817 0.00173502)
(-0.00461632 -0.0079807 -0.00254309)
(-0.00436047 -0.00730317 -0.00214162)
(-0.00501764 -0.00805634 -0.00235424)
(-0.00433167 -0.00760346 -0.0024605)
(-0.00464975 -0.00755676 -0.00187)
(-0.00505944 -0.0078239 -0.00210613)
(-0.000407875 -0.0114538 -5.56501e-05)
(0.000113545 -0.0119498 0.00062717)
(-0.00116487 -0.010251 0.000142496)
(0.000328468 -0.0117779 0.000195404)
(-0.00104061 -0.0103873 -0.000131867)
(-0.00049238 -0.0107884 0.000420986)
(-0.0033796 -0.00752843 5.82013e-05)
(-0.00394652 -0.00755597 4.45375e-05)
(-0.00347112 -0.00762962 2.03173e-05)
(-0.00369559 -0.0074988 0.00016431)
(-0.00391311 -0.0079484 -4.41165e-05)
(-0.00402677 -0.00775389 -0.000154549)
(0.0030675 -0.0197321 -0.00717059)
(0.00232933 -0.018815 -0.00796314)
(0.00190675 -0.0176842 -0.00846642)
(-0.000159867 -0.0131486 0.00570041)
(0.00044699 -0.0143043 0.00590947)
(-0.00197879 -0.0144226 0.00555567)
(-0.0050999 -0.0132436 0.00394132)
(-0.00294061 -0.0139415 0.00519704)
(-0.000471487 -0.013755 0.00554249)
(-0.00256589 -0.0134334 0.00532231)
(-0.00131911 -0.0127495 0.00560807)
(-0.000940625 -0.0132227 -0.00812916)
(-0.00247531 -0.0117561 -0.00728807)
(-0.00131939 -0.0129174 -0.00830694)
(-0.000469644 -0.0134542 -0.0084891)
(-0.00161153 -0.012001 -0.0078489)
(-0.00220633 -0.0118243 -0.00751126)
(-0.00754607 -0.0153309 0.0089991)
(-0.00789806 -0.0133716 0.00754041)
(-0.00830446 -0.0136898 0.0081714)
(-0.00802852 -0.0155184 0.00974783)
(-0.00722427 -0.0140589 0.00809787)
(-0.00747844 -0.0138647 0.00903617)
(-0.00894032 -0.0149329 0.00241271)
(-0.00733925 -0.0131698 0.0051901)
(-0.00884063 -0.014526 0.00205634)
(-0.00872757 -0.0141062 0.003691)
(-0.00883159 -0.0142553 0.00259773)
(-0.0079363 -0.0133854 0.00429997)
(-0.00353532 -0.0230749 0.00187671)
(-0.00456465 -0.0233465 0.00193074)
(-0.0054608 -0.0232245 0.00133987)
(-0.00345066 -0.0221445 0.000111182)
(-0.00380947 -0.0239225 0.0010874)
(-0.00525873 -0.0218777 0.000584653)
(-0.00385651 -0.0229042 -0.00083996)
(-0.00316237 -0.0216012 -0.00249567)
(-0.00266242 -0.0231307 -0.00199716)
(-0.00294141 -0.0235072 -0.00061979)
(-0.0026552 -0.0224272 -0.000903202)
(-0.00382016 -0.0222008 -0.00173749)
(-5.10762e-05 -0.0180469 -0.00466851)
(-0.000433357 -0.0185659 -0.00543555)
(-0.000852297 -0.020121 -0.00763392)
(-0.00464036 -0.0191398 0.00530535)
(-0.00334073 -0.0215967 0.00515248)
(-0.00454713 -0.0214779 0.00612847)
(-0.00480846 -0.0204669 0.00638813)
(-0.00541995 -0.0196155 0.0062279)
(-0.00429099 -0.0215203 0.00509058)
(-0.00566506 -0.012566 0.00283535)
(-0.0051837 -0.0113348 0.00214756)
(-0.0055233 -0.0147676 0.00374439)
(-0.00473336 -0.0135709 0.00302835)
(-0.00475458 -0.0117024 0.00234232)
(-0.00655037 -0.011592 0.00203318)
(-0.00279203 -0.00834172 0.000764483)
(-0.00307643 -0.00987669 0.00115252)
(-0.00245321 -0.0095836 0.000922685)
(-0.00263893 -0.0106962 0.00125272)
(-0.00294054 -0.00811053 0.000689626)
(-0.00335094 -0.00855504 0.000796711)
(-0.00585743 -0.0223421 -0.00029377)
(-0.00498934 -0.0210546 -0.000486269)
(-0.00504909 -0.0214975 -0.0013724)
(-0.00543419 -0.0226788 -0.000319658)
(-0.00662939 -0.021499 -0.000455967)
(-0.00564842 -0.0205739 -0.00272976)
(-0.00497586 -0.0210296 -0.0036478)
(-0.00535114 -0.0198986 -0.00378893)
(-0.00475414 -0.0217261 -0.00276385)
(-0.006118 -0.0206386 -0.00317253)
(-0.00495014 -0.0223569 -0.00325933)
(-0.00547578 -0.0205572 -0.00292694)
(-0.00861072 -0.0168478 -0.00125245)
(-0.00940478 -0.0177504 -0.000431412)
(-0.0100379 -0.0168047 0.000742463)
(-0.00912181 -0.0157635 0.000283549)
(-0.00939799 -0.0153259 0.00100327)
(-0.00890418 -0.0165448 -0.000680881)
(-0.00333408 -0.0208565 -0.0103042)
(-0.000727303 -0.0185955 -0.00862771)
(-0.00299193 -0.0203729 -0.00825002)
(-0.00274112 -0.0195341 -0.0095827)
(-0.0086866 -0.0158533 -0.00323307)
(-0.00961764 -0.0174425 -0.00278541)
(-0.00941944 -0.0191329 -0.00548824)
(-0.00939296 -0.0187545 -0.00453685)
(-0.00964858 -0.0174731 -0.00405202)
(-0.00902915 -0.0173932 -0.00536623)
(-0.00914769 -0.0186828 -0.000130255)
(-0.00977412 -0.018985 0.000280922)
(-0.00987201 -0.0167895 0.00163881)
(-0.00957418 -0.0184656 0.000960224)
(-0.0096538 -0.0170369 0.0013492)
(-0.00956761 -0.0171466 0.000794996)
(0.00371981 -0.0139682 0.00646191)
(0.00457283 -0.0141871 0.00545797)
(0.00408029 -0.0141465 0.0061154)
(0.00266308 -0.0136546 0.00726144)
(0.0034344 -0.0141386 0.00727173)
(0.00417542 -0.0140138 0.00498717)
(-0.0015682 -0.0123238 0.00689299)
(-0.000775061 -0.012657 0.00678257)
(-0.00191168 -0.0127729 0.00682719)
(-0.00265263 -0.0126259 0.00688442)
(-0.00449762 -0.0131116 0.00614128)
(-0.00123104 -0.0123943 0.00654889)
(-0.00570027 -0.0123229 0.00464152)
(-0.00522569 -0.0129588 0.0053233)
(-0.00607267 -0.0125346 0.00391414)
(-0.00585968 -0.0133955 0.0043966)
(-0.00431318 -0.0122998 0.00526585)
(-0.00356823 -0.0121263 0.00586912)
(-0.00789383 -0.0127265 0.00835807)
(-0.00796971 -0.0107716 0.00526232)
(-0.00779889 -0.0109018 0.00641944)
(-0.00802492 -0.0121146 0.00722361)
(-0.00814985 -0.0130738 0.00917538)
(-0.00793488 -0.011008 0.00677673)
(-0.00795345 -0.0116119 0.00806856)
(-0.00811864 -0.0119346 0.00620594)
(-0.00827354 -0.0240891 0.00545602)
(-0.00706394 -0.0237697 0.00529571)
(-0.00853342 -0.0239274 0.00437728)
(-0.00882938 -0.0252034 0.00447939)
(-0.00799223 -0.0251089 0.00564121)
(-0.00915749 -0.0263046 0.00550385)
(-0.00665044 -0.0181211 0.0109704)
(-0.00628235 -0.0200108 0.0104783)
(-0.00675653 -0.0210646 0.0115278)
(-0.00643216 -0.0186789 0.011234)
(-0.0065057 -0.019019 0.010466)
(-0.00808274 -0.0113889 0.00810367)
(-0.00765167 -0.0135044 0.0100899)
(-0.0124745 -0.0236803 0.00566919)
(-0.0112783 -0.0236375 0.00521691)
(-0.0111258 -0.0239423 0.00566789)
(-0.0117034 -0.0233458 0.00470545)
(-0.0130881 -0.0235723 0.00572221)
(-0.0115534 -0.0248814 0.0055224)
(-0.0135517 -0.0197744 0.00598301)
(-0.0155184 -0.0221844 0.00739173)
(-0.00995348 -0.0253852 0.0059677)
(-0.0104092 -0.0290838 0.00811669)
(-0.0111989 -0.0265639 0.00738176)
(-0.00839349 -0.0255061 0.00731113)
(-0.00952466 -0.0251298 0.00649417)
(0.00322529 -0.0147283 0.00950498)
(0.00363046 -0.014522 0.00890219)
(0.00338532 -0.0147221 0.00792242)
(0.00298318 -0.0144216 0.009787)
(0.00315324 -0.0141791 0.00795916)
(0.0010679 -0.0143443 0.0109919)
(0.00144839 -0.0139804 0.0116557)
(-0.00119186 -0.0144116 0.013239)
(-0.000772224 -0.0127817 0.0127235)
(0.000945964 -0.0145201 0.012884)
(0.000959839 -0.0139047 0.0119667)
(0.000180021 -0.0130727 0.0120706)
(-0.0127158 -0.0214865 0.00496191)
(-0.0122243 -0.0185491 0.0049737)
(-0.0133854 -0.0189025 0.00565887)
(-0.0119824 -0.0213526 0.00440022)
(-0.0150375 -0.0220759 0.00642938)
(-0.0127448 -0.0155299 0.010036)
(-0.0108043 -0.0142655 0.0104236)
(-0.0119478 -0.0149968 0.0104617)
(-0.0121244 -0.0155718 0.00877595)
(-0.0117029 -0.0154534 0.0100492)
(-0.0130418 -0.0144961 0.0125031)
(-0.0127464 -0.0153839 0.0116349)
(-0.0144511 -0.016347 0.0112065)
(-0.012645 -0.0149136 0.0129763)
(-0.0142655 -0.016503 0.0100275)
(-0.0136473 -0.0162789 0.0104827)
(-0.00352986 -0.00765523 -0.00397809)
(-0.00353397 -0.00789948 -0.00412343)
(-0.00369102 -0.00860183 -0.00479175)
(-0.00340046 -0.00869557 -0.00477215)
(-0.00326135 -0.00865778 -0.00551465)
(-0.00620768 -0.00929135 1.89649e-05)
(-0.00585165 -0.0091475 0.000294133)
(-0.00644542 -0.00975594 0.000239276)
(-0.00632097 -0.010006 0.000937579)
(-0.00655987 -0.0108333 0.00127835)
(-0.00394211 -0.00975448 -0.00427542)
(-0.00343353 -0.00964768 -0.00480271)
(-0.00305708 -0.0102147 -0.00584075)
(-0.00377157 -0.00968436 -0.00464244)
(-0.00262175 -0.0108302 -0.00640881)
(-0.00312713 -0.0107891 -0.00565193)
(-0.00682031 -0.00985235 -0.000723006)
(-0.00650343 -0.00957798 -0.00027346)
(-0.00743473 -0.0105823 0.00059362)
(-0.00669962 -0.00944498 -8.56091e-05)
(-0.0070313 -0.00997042 -0.000764386)
(-0.00692453 -0.0102217 0.000395705)
(-0.00661982 -0.00963002 -0.00019418)
(-0.00609573 -0.00883849 -2.68228e-05)
(-0.00661061 -0.00934956 0.000496128)
(-0.00597841 -0.00908929 -0.000705065)
(-0.00597788 -0.00907316 -0.000470075)
(-0.00666746 -0.00916996 0.00029323)
(-0.00573714 -0.017425 0.00745969)
(-0.0067315 -0.0176285 0.00730177)
(-0.00597432 -0.0181895 0.00728561)
(-0.00572502 -0.01878 0.00692774)
(-0.00641787 -0.0176862 0.00685254)
(-0.00578745 -0.0193326 0.00717767)
(-0.00570717 -0.0213312 0.00904303)
(-0.00627177 -0.0233531 0.00957167)
(-0.00540314 -0.0225375 0.0088045)
(-0.00557185 -0.0212843 0.00986593)
(-0.00636437 -0.0212395 0.0103503)
(-0.00590689 -0.0213864 0.00980523)
(-0.00689166 -0.0257025 0.00686017)
(-0.00618773 -0.023667 0.00716355)
(-0.006095 -0.0262371 0.00831026)
(-0.00670444 -0.0248266 0.00605585)
(-0.00474521 -0.0238543 0.006273)
(-0.00583406 -0.0247483 0.00591077)
(-0.00745251 -0.014212 0.00562884)
(-0.00680254 -0.012455 0.00411307)
(-0.00691856 -0.0135709 0.00448772)
(-0.00737015 -0.0158159 0.00625874)
(-0.00734009 -0.0103632 0.00171661)
(-0.00734947 -0.0103984 0.000883401)
(-0.0075659 -0.010417 0.000900235)
(-0.00701611 -0.0110772 0.00270039)
(-0.00731299 -0.0111609 0.00263215)
(-0.00711624 -0.0108843 0.00190255)
(-0.00703587 -0.00986735 0.000323019)
(-0.00691618 -0.00952851 -0.000249342)
(-0.00751719 -0.0102797 0.00130494)
(-0.00723565 -0.00974993 0.00101323)
(-0.00719635 -0.00979208 0.000311166)
(-0.00740881 -0.0113578 0.00476181)
(-0.00753825 -0.0124958 0.00643044)
(-0.00756612 -0.0130362 0.0059979)
(-0.00369942 -0.00932549 -0.0018916)
(-0.00403936 -0.00922198 -0.00214105)
(-0.00305422 -0.00943985 -0.0024108)
(-0.0040963 -0.00925103 -0.00192861)
(-0.00279048 -0.00954394 -0.00321152)
(-0.00362145 -0.00964751 -0.00287289)
(-0.00479092 -0.00883694 -0.00179541)
(-0.00493843 -0.00909984 -0.00170397)
(-0.00590383 -0.00917635 -0.00093596)
(-0.00555213 -0.00930597 -0.00137389)
(-0.00577189 -0.00899074 -0.00122376)
(-0.00557755 -0.00927338 -0.00182254)
(0.00447266 -0.0163348 0.00251079)
(0.00299073 -0.0168077 0.00365921)
(0.00155882 -0.0177556 0.00369753)
(0.00251088 -0.0190271 0.00281044)
(0.00379907 -0.0180136 0.00194589)
(0.00472313 -0.0180211 0.0017576)
(0.00600515 -0.0163956 -0.00171132)
(0.00708481 -0.0160961 -0.00247793)
(0.00566202 -0.0161053 0.00037808)
(0.00680699 -0.013866 -0.000349804)
(0.00752239 -0.0153907 -0.0017609)
(0.00563566 -0.0166179 -0.000520612)
(0.00462098 -0.0138992 0.00351079)
(0.00337564 -0.0138653 0.00415113)
(0.00438369 -0.0142018 0.00369451)
(0.00317011 -0.0134468 0.00474952)
(0.00281574 -0.013184 0.00484643)
(0.00599002 -0.0138657 0.00170193)
(0.0045956 -0.0136799 0.00242125)
(0.00523166 -0.0133384 0.00201154)
(-0.00970688 -0.0166603 -0.00232672)
(-0.00815896 -0.0157664 0.00158378)
(-0.00973193 -0.0170137 -0.00158607)
(-0.00793108 -0.0143181 0.000716781)
(-0.00920352 -0.0163045 -0.000820284)
(-0.00879321 -0.0159416 -8.86632e-05)
(-0.00693135 -0.0139533 0.0030025)
(-0.00671738 -0.0142491 0.00270386)
(-0.00108188 -0.0122023 -0.00535449)
(-0.00173637 -0.011703 -0.00545387)
(-0.00120223 -0.0119489 -0.00515595)
(-0.00272812 -0.0104689 -0.00421427)
(-0.00251229 -0.0104562 -0.00456251)
(-0.0019561 -0.0106031 -0.00458097)
(0.00336158 -0.0135031 0.00159727)
(0.00475514 -0.0136092 0.0019699)
(0.00386235 -0.0145431 0.0044763)
(0.00409471 -0.0142131 0.00405023)
(0.00443809 -0.0142184 0.00367806)
(0.00347013 -0.0144464 0.00207627)
(0.00428552 -0.0134439 0.00277824)
(0.00450142 -0.0151131 -0.00400874)
(0.0034834 -0.0147661 -0.00455551)
(0.00321687 -0.0143873 -0.00572403)
(0.00387804 -0.0141549 -0.00521868)
(0.00448571 -0.0146116 -0.00431617)
(0.00313007 -0.0141939 -0.00550557)
(0.000860525 -0.013309 -0.00572557)
(0.00184936 -0.0140132 -0.00559121)
(0.00270005 -0.0137101 -0.00457152)
(0.00306089 -0.0135953 -0.00508764)
(0.000293402 -0.0126314 -0.00489188)
(0.00165271 -0.0127589 -0.00459353)
(0.00541421 -0.0144814 -0.00141758)
(0.00436294 -0.0139839 -0.00326)
(0.00479983 -0.0151275 -0.00254404)
(0.0050692 -0.014561 -0.00114329)
(0.00443335 -0.0144443 -0.00169452)
(0.00402141 -0.0146566 -0.00294325)
(0.00156783 -0.0126998 0.00550365)
(0.0024071 -0.013199 0.0051426)
(0.00131611 -0.0127188 0.00562667)
(0.001254 -0.0127646 0.00631788)
(0.00111773 -0.0121707 0.00609473)
(0.00268561 -0.0126294 0.00484826)
(-0.000658337 -0.0126796 -0.00637622)
(-0.00025441 -0.0128169 -0.00681555)
(0.00035554 -0.0128326 -0.00647681)
(0.00244375 -0.0145968 -0.00627621)
(0.00104188 -0.0136508 -0.00626066)
(0.000630008 -0.0136335 -0.00705902)
(0.0058508 -0.0185448 -0.00397416)
(0.00489457 -0.0196806 -0.00190106)
(0.00584403 -0.0177489 -0.00219505)
(0.0057486 -0.0183923 -0.000724825)
(0.00565681 -0.0181072 -0.00101824)
(0.00565726 -0.0196577 -0.00356393)
(0.00315745 -0.0223546 0.000144661)
(0.000170765 -0.0220553 0.00200725)
(0.00135452 -0.0217318 0.00187376)
(0.00226395 -0.0223776 0.000303328)
(0.00306044 -0.0210333 0.00102035)
(0.000229872 -0.0239252 0.00135552)
(0.00037059 -0.0139977 -0.00933716)
(0.00100978 -0.0162668 -0.00922943)
(0.00209405 -0.0165498 -0.00904441)
(0.0011818 -0.0147003 -0.00949576)
(0.000620055 -0.0142088 -0.00937022)
(0.00212156 -0.0159553 -0.00930954)
(0.00348245 -0.0178629 -0.00769482)
(0.00497261 -0.0186171 -0.00581416)
(0.00426788 -0.0172967 -0.00691641)
(0.00400283 -0.0186926 -0.0067042)
(0.00486488 -0.0186105 -0.00611663)
(0.00353038 -0.0171755 -0.0079617)
(0.00399938 -0.0198031 -0.00542526)
(0.00480255 -0.022437 -0.00348806)
(0.00275273 -0.0229852 -0.00344044)
(0.00318837 -0.0216509 -0.00491135)
(0.00437277 -0.0206817 -0.00439239)
(-0.00468744 -0.00906146 -0.00108943)
(-0.0051012 -0.00909085 -0.00127216)
(-0.00417407 -0.00900104 -0.00144039)
(-0.00421943 -0.00914831 -0.00139628)
(-0.0048841 -0.00933282 -0.00131939)
(-0.00506623 -0.0089723 -0.0011093)
(-0.00289388 -0.00778282 9.49723e-05)
(-0.00216697 -0.00865769 -1.78307e-05)
(-0.0029071 -0.00810856 -0.000218689)
(-0.00206373 -0.0086832 -0.000190143)
(-0.00247566 -0.00777718 6.85436e-05)
(-0.00274107 -0.00874716 -0.000129037)
(0.00349851 -0.0142623 0.00586727)
(0.00248147 -0.0137075 0.00444466)
(0.0030812 -0.0145945 0.00504208)
(0.00336789 -0.014721 0.00672019)
(0.00340244 -0.0143885 0.00686064)
(0.00311067 -0.015055 0.00743102)
(0.00343975 -0.0134669 0.00482802)
(0.00170706 -0.0130046 0.00258684)
(0.00188671 -0.0134 0.00310206)
(0.000853144 -0.0131381 0.00172979)
(0.000634944 -0.0116871 0.00123925)
(-0.00353756 -0.00797802 4.04912e-05)
(-0.00239412 -0.00822747 -0.00090447)
(-0.00313983 -0.00892886 -0.000729553)
(-0.00323163 -0.00813123 1.99737e-06)
(-0.00247812 -0.00805029 -0.00039314)
(-0.00328864 -0.00827786 -0.000599537)
(-0.00158418 -0.0103046 -0.000682553)
(-0.00168745 -0.00922408 -0.000890269)
(-0.00175616 -0.00910256 -0.000611072)
(-0.000787773 -0.0105409 -0.000633114)
(-0.000884491 -0.0107593 -0.000597432)
(-0.00151905 -0.00997607 -0.000480649)
(0.00470875 -0.0135178 -0.00109446)
(0.00529163 -0.0141666 0.000998776)
(0.00473198 -0.0142616 0.000377111)
(0.00502991 -0.0144524 -0.000892592)
(0.00536848 -0.0141176 6.84415e-05)
(-0.00488988 -0.00890352 -0.00306531)
(-0.00494466 -0.00844659 -0.00250995)
(-0.00451795 -0.00885293 -0.003713)
(-0.00463161 -0.00849575 -0.00290631)
(-0.00515525 -0.00879504 -0.00266299)
(-0.00456232 -0.00892498 -0.00330395)
(-0.00359977 -0.00599687 -0.00132864)
(-0.00427463 -0.0067931 -0.00181183)
(-0.00446047 -0.00688337 -0.00156558)
(-0.00378391 -0.00634753 -0.00104812)
(-0.00389794 -0.00658724 -0.0015959)
(-0.00430929 -0.00668932 -0.00133666)
(-0.00134156 -0.0132921 0.0142821)
(0.00161229 -0.014749 0.0124446)
(-0.00131269 -0.013945 0.0150715)
(0.000794834 -0.0134749 0.0139286)
(-0.000489981 -0.0146581 0.0142325)
(-0.0094709 -0.0133261 0.0153651)
(-0.0106853 -0.0132916 0.0146317)
(-0.00435841 -0.0130275 0.0144999)
(-0.00574454 -0.0131439 0.0146231)
(-0.00676264 -0.0128578 0.0150902)
(-0.00998944 -0.0137548 0.01291)
(-0.0105409 -0.0140031 0.0142256)
(-0.00848533 -0.0132176 0.0131147)
(-0.00892359 -0.0134057 0.0143444)
(-0.0108826 -0.0141794 0.0126588)
(-0.00796277 -0.0131602 0.0139995)
(0.00146818 -0.0136456 0.00708452)
(-0.000364689 -0.0138669 0.0080279)
(-7.59862e-06 -0.0128459 0.00821308)
(-0.00264285 -0.0119359 0.0080118)
(-0.00212926 -0.0128463 0.0089864)
(-0.000378438 -0.0128792 0.00813139)
(-0.00157681 -0.0132672 0.00869422)
(-0.00227264 -0.0128043 0.00779162)
(-0.00567384 -0.0123146 0.00724148)
(-0.00766145 -0.0135565 0.00569437)
(-0.00698861 -0.0133832 0.00605825)
(-0.0040944 -0.0123909 0.00774218)
(-0.00469342 -0.0123241 0.00793973)
(-0.0059194 -0.0127764 0.00653845)
(-0.00712727 -0.0132206 0.00656681)
(-0.00532058 -0.012882 0.00750382)
(-0.00408307 -0.0118233 0.00883585)
(-0.00369265 -0.0124268 0.00934842)
(-0.00165487 -0.0134816 0.0105744)
(-0.00520904 -0.0130422 0.0108923)
(-0.00621501 -0.0135912 0.0108681)
(-0.0059099 -0.0119834 0.00900326)
(-0.00690019 -0.0129557 0.00932828)
(-0.00377712 -0.0129122 0.0107599)
(-0.00655992 -0.0202022 -0.0048391)
(-0.00639902 -0.0201368 -0.00519383)
(-0.00511772 -0.0212369 -0.00457394)
(-0.00490449 -0.021026 -0.0050607)
(-0.00558932 -0.019545 -0.00478129)
(-0.00580476 -0.0214495 -0.00541303)
(-0.00768335 -0.0199208 -0.00676791)
(-0.00752124 -0.0188666 -0.00676255)
(-0.00565303 -0.019916 -0.00696105)
(-0.00643286 -0.0199738 -0.00764137)
(-0.0052709 -0.0196469 -0.00792143)
(-0.00678587 -0.0200737 -0.00680331)
(-0.0090042 -0.0167807 -0.00202698)
(-0.00968679 -0.0167375 0.000140331)
(-0.0089801 -0.0152391 0.000411907)
(-0.00894708 -0.0165128 -0.00117098)
(-0.00869327 -0.0153288 -0.00116405)
(-0.00163021 -0.0210251 -0.00124553)
(-0.00180607 -0.0211845 0.000563593)
(-0.000999343 -0.0212023 -0.000970672)
(-0.00100764 -0.0211794 -0.00177927)
(-0.00221172 -0.0217972 -0.00015076)
(-0.00131149 -0.0205635 9.26522e-05)
(-0.0039998 -0.0228819 0.00383999)
(-0.00317809 -0.022999 0.00146897)
(-0.00210553 -0.021818 0.000984705)
(-0.00313563 -0.0225723 0.00241938)
(-0.00269395 -0.021647 0.00283975)
(-0.00207398 -0.0219299 0.00183884)
(-0.0107251 -0.0180754 0.00329095)
(-0.0110896 -0.0181159 0.00380656)
(-0.0102766 -0.017916 0.00187489)
(-0.00973474 -0.0184598 0.00139188)
(-0.0110657 -0.0202932 0.00318115)
(-0.0101787 -0.0203188 0.00164387)
(-0.0129883 -0.0196535 0.00568585)
(-0.0117893 -0.0196145 0.00349516)
(-0.012455 -0.0201196 0.004867)
(-0.00953833 -0.0187469 0.00235035)
(-0.0105585 -0.0188015 0.00276944)
(-0.01237 -0.0219415 0.00430084)
(-0.0118261 -0.0217647 0.00413828)
(-0.011342 -0.0224688 0.00392275)
(-0.0083451 -0.0231799 0.00323071)
(-0.0112782 -0.0180579 0.00355514)
(-0.00666975 -0.0214134 0.000599299)
(-0.00567416 -0.0210612 0.000296021)
(-0.00722069 -0.0222255 0.00179347)
(-0.00700173 -0.0230235 0.00243094)
(-0.00762671 -0.0228427 0.00219839)
(-0.0074962 -0.0206335 2.83809e-05)
(-0.00763479 -0.021287 0.000662234)
(-0.00795669 -0.0194016 0.000188673)
(-0.00888575 -0.0181537 0.000479836)
(-0.00865423 -0.0195887 0.000315268)
(-0.00811748 -0.0187256 -0.00599836)
(0.00173942 -0.0131269 0.0085902)
(0.000505241 -0.0129934 0.00921479)
(-0.000205715 -0.0131592 0.0101828)
(-0.00803052 -0.0133808 0.00695308)
(-0.0058541 -0.0120175 0.0082834)
(-0.00770914 -0.0134249 0.00792192)
(-0.00686259 -0.0124042 0.00716422)
(-0.00728525 -0.0126052 0.0061723)
(-0.00391177 -0.0122353 0.00706177)
(0.00091604 -0.0136642 0.00889264)
(0.00178652 -0.0140116 0.00834953)
(-0.00824646 -0.0131371 0.0150522)
(-0.0111975 -0.0137764 0.0138533)
(-0.00672465 -0.0132591 0.0139185)
(-0.00597183 -0.0132006 0.0137567)
(-0.00413781 -0.0137836 0.0138856)
(-0.00349518 -0.0142874 0.0150088)
(-0.00780267 -0.0132212 0.0129367)
(-0.00634579 -0.0130003 0.0132032)
(-0.00390379 -0.00671653 -0.00218487)
(-0.00366511 -0.00625684 -0.00173136)
(-0.00407534 -0.00871303 -0.00381258)
(-0.00398463 -0.00836073 -0.00378849)
(-0.00461052 -0.0072897 -0.000943875)
(-0.00618729 -0.00917778 -0.000948181)
(-0.00535656 -0.00876758 -0.00223633)
(-0.00576601 -0.00873961 -0.00140681)
(-0.00562079 -0.00887381 -0.00182002)
(-0.00594552 -0.00876932 -0.000957881)
(-0.00499765 -0.00769279 -0.000809771)
(-0.00479444 -0.00745341 -0.000440166)
(0.00454038 -0.0149222 0.000848567)
(0.00504795 -0.0140092 0.00194838)
(0.00424015 -0.014599 0.00236601)
(0.00509137 -0.0141305 0.000912881)
(0.00491868 -0.0152259 0.000439217)
(0.00523449 -0.0167822 -0.00646188)
(0.00442466 -0.017071 -0.00742025)
(0.00375056 -0.0159232 -0.00844188)
(0.00292649 -0.0155387 -0.00876134)
(0.00169875 -0.0146443 -0.00877018)
(-0.00812106 -0.0180211 0.00138946)
(-0.00596996 -0.0169053 0.00273525)
(-0.00121308 -0.0203269 0.00327233)
(-0.00197422 -0.018296 0.00356801)
(-0.00343637 -0.0190475 0.00356303)
(-0.00570543 -0.0187339 0.00302027)
(-0.00367876 -0.017696 0.00362549)
(-0.00283304 -0.0166892 0.00382846)
(-0.00343375 -0.0154051 0.00410573)
(-0.00486321 -0.0165059 0.00392651)
(-0.00669526 -0.0151679 0.00653849)
(-0.00670552 -0.014584 0.00695377)
(-0.00707139 -0.014969 0.00757584)
(-0.00637389 -0.0164481 0.00761982)
(-0.00572647 -0.0165006 0.00712955)
(-0.00602602 -0.0159551 0.00716809)
(-0.00706132 -0.0177312 0.00890402)
(-0.00594446 -0.0179239 0.00901359)
(-0.00666851 -0.0179229 0.00852876)
(-0.0061183 -0.020581 0.00957812)
(0.00329418 -0.0137582 0.00606995)
(0.00270383 -0.0135838 0.00406706)
(0.00179604 -0.0137354 0.0032351)
(0.00244274 -0.0133662 0.00276541)
(0.00196279 -0.0131575 0.00171786)
(0.00338202 -0.0145108 0.00351151)
(0.00225121 -0.013574 0.0030489)
(0.0034854 -0.0157123 0.00591565)
(0.0041175 -0.0138733 0.00426886)
(0.00327091 -0.0149321 0.00544139)
(0.00389709 -0.0140263 0.00668819)
(-0.00374387 -0.00826564 -0.000733721)
(-0.00244127 -0.00894016 -0.000414669)
(-0.00256485 -0.00784447 0.000236651)
(-0.00594483 -0.0078345 0.00104796)
(-0.00568552 -0.00841108 0.000189866)
(-0.00577526 -0.00824946 0.000671398)
(-0.00351306 -0.00820767 -0.000678725)
(-0.00530357 -0.00849979 1.41177e-05)
(-0.00412339 -0.00840456 -0.000418477)
(-0.00365096 -0.00875031 -0.00101895)
(-0.00334728 -0.00931058 -0.00188385)
(-0.00339427 -0.00922587 -0.00148372)
(-0.00360234 -0.00878842 -0.00133949)
(-0.0038295 -0.00950819 -0.00177512)
(-0.00442317 -0.00901119 -0.000885014)
(-0.00440498 -0.00899446 -0.000704902)
(-0.00489517 -0.00907596 -0.000721056)
(-0.00517532 -0.00850833 -0.00023395)
(-0.00456871 -0.00839897 -0.000518607)
(-0.00456 -0.00844835 -0.00076546)
(-0.00517108 -0.00886759 -0.000730747)
(-0.00517901 -0.00866026 -0.000635375)
(-0.00570724 -0.00908947 -0.000795356)
(-0.00563273 -0.00898862 -0.000644799)
(-0.00788344 -0.0107987 0.00351896)
(-0.00788416 -0.0126038 0.00552407)
(-0.00744625 -0.0106109 0.00386561)
(-0.00716181 -0.00968508 0.0018931)
(-0.00780163 -0.0108121 0.00311893)
(-0.00731327 -0.00945237 0.00412186)
(-0.00738758 -0.00958201 0.00455851)
(-0.00731764 -0.00931748 0.00312472)
(-0.00733945 -0.00949579 0.00296138)
(-0.00730922 -0.00947926 0.00173057)
(-0.00624871 -0.00909491 0.000149735)
(-0.00729944 -0.0101489 0.00223458)
(-0.00768091 -0.0100922 0.00210433)
(-0.00762872 -0.010168 0.00264322)
(-0.00739789 -0.00979943 0.00250423)
(-0.00634829 -0.00908155 0.000175444)
(-0.00681062 -0.0094643 0.00121363)
(-0.00676827 -0.00931856 0.000868986)
(-0.00777954 -0.0103422 0.00368674)
(-0.00771771 -0.0108273 0.0043222)
(-0.00782042 -0.0102662 0.00353466)
(0.00332191 -0.015957 -0.00886703)
(-0.000764392 -0.0142495 -0.00904305)
(0.00117106 -0.0200261 0.00287473)
(0.00504383 -0.0214339 -0.00477913)
(0.00475925 -0.019885 0.000887736)
(0.00334632 -0.0153529 -0.00837426)
(0.00269474 -0.0143756 -0.00758964)
(-0.00223409 -0.0115661 -0.00602137)
(-0.00127427 -0.0126257 -0.0066961)
(0.000320717 -0.0133302 -0.00768429)
(-0.0008029 -0.0127343 -0.00721897)
(0.00101213 -0.0140263 -0.00839268)
(0.00202491 -0.0146373 -0.00812675)
(0.000610988 -0.013669 -0.00801614)
(0.00141413 -0.0145741 -0.00794514)
(0.00472574 -0.0137122 0.00255617)
(0.00416015 -0.0134712 0.00371997)
(0.00368012 -0.0140781 0.00364298)
(0.00316737 -0.0142981 0.00443024)
(0.00342049 -0.013245 0.00478203)
(0.0034576 -0.0134702 0.00454366)
(0.0029639 -0.012566 0.00525958)
(0.00123605 -0.012794 0.00571334)
(0.000134675 -0.0116481 -0.00214814)
(-0.00129829 -0.0104769 -0.00416537)
(-2.27699e-05 -0.0125409 -0.0042006)
(-0.000774232 -0.011388 -0.00300526)
(-0.000975076 -0.011143 -0.00380692)
(-0.00175984 -0.0105596 -0.00343156)
(-0.00272246 -0.010074 -0.00259697)
(-0.00307486 -0.0100013 -0.00200399)
(-0.00240279 -0.0100931 -0.00219486)
(-0.00158627 -0.0108658 -0.00282866)
(-0.000519378 -0.0116027 -0.00451615)
(0.000256683 -0.0122827 -0.00424117)
(-0.000267864 -0.01195 -0.0050276)
(-0.000113227 -0.0127895 -0.00589235)
(0.00130927 -0.0134657 -0.00448065)
(0.00213071 -0.0135215 -0.00420518)
(0.00398147 -0.0136134 -0.00284337)
(0.00428365 -0.0151166 -0.00175912)
(0.0028898 -0.0142171 -0.00352246)
(0.00324121 -0.0143285 -0.00368926)
(0.000848301 -0.0124864 -0.00284738)
(0.00125979 -0.0125293 -0.00344137)
(0.000954087 -0.0122311 -0.00396133)
(0.000432748 -0.0117729 -0.00336463)
(0.00220769 -0.0127228 -0.00295137)
(0.00351799 -0.0136137 -0.0026903)
(0.00185195 -0.0130183 -0.00269863)
(0.00199337 -0.0138777 -0.00564497)
(0.00210975 -0.0139749 -0.00695798)
(0.0028041 -0.0145037 -0.00639523)
(0.00335304 -0.0146579 -0.00434911)
(0.00638928 -0.0148826 -0.00373469)
(0.00443381 -0.0154873 -0.0054887)
(0.00395349 -0.0150639 -0.00623514)
(0.00546283 -0.0151769 -0.0043619)
(0.00507312 -0.0153652 -0.00448083)
(0.00508695 -0.0145277 0.000841624)
(0.00486553 -0.0137813 0.00168808)
(0.00559237 -0.014458 -0.0023458)
(0.00584336 -0.0152298 -0.00403334)
(0.00544537 -0.01564 -0.00203952)
(0.00513913 -0.0145888 -0.000397177)
(0.00526136 -0.0147981 -0.00309496)
(0.00543903 -0.0143928 -0.000427547)
(0.00579315 -0.014521 -0.00170595)
(0.00613911 -0.0151727 -0.00225709)
(-0.000496065 -0.0119914 -0.00126572)
(-0.000243376 -0.0116929 -0.001479)
(0.0010538 -0.0123876 -0.000667505)
(0.000435968 -0.0115281 -0.000860269)
(-0.000127404 -0.0121379 -0.000597543)
(0.00394024 -0.0137363 -0.00175645)
(0.000981055 -0.011876 -0.00158769)
(0.00191495 -0.0125446 -0.00127335)
(0.00240379 -0.01362 -0.0007724)
(0.000899309 -0.0125231 -0.00158392)
(0.00295263 -0.0136448 -0.00128363)
(0.00416894 -0.0137296 -0.00103427)
(0.00333466 -0.0139236 -0.00165152)
(0.00303201 -0.0128533 -0.00240514)
(0.0025062 -0.0124118 -0.00196113)
(0.00421628 -0.0135239 0.000206963)
(0.00422152 -0.0139281 0.00329251)
(0.00520882 -0.0144324 0.000717332)
(0.00477055 -0.0146089 0.00230656)
(0.00468699 -0.0145799 0.00277091)
(0.0050383 -0.0140258 0.00211281)
(0.00490878 -0.0141 0.00277634)
(0.00477909 -0.0141101 0.00398644)
(0.00346001 -0.013489 -0.000136944)
(0.00477928 -0.0137503 0.00174358)
(0.0043683 -0.0143013 0.000707247)
(0.00397176 -0.0145559 0.00496295)
(0.00345341 -0.0131322 0.00314506)
(0.00221957 -0.0129103 -0.000197746)
(0.00274431 -0.0139855 0.000553178)
(0.00170407 -0.0130587 0.000358973)
(0.00288717 -0.0132324 0.00119609)
(0.00442759 -0.0138472 0.00513905)
(-0.00158123 -0.0116473 -0.00580876)
(-0.00252563 -0.011347 -0.00536765)
(-0.00818913 -0.0167925 0.000970799)
(-0.00848864 -0.018526 0.00100664)
(-0.00712626 -0.0170847 0.00256882)
(-0.00546927 -0.0156822 0.00355669)
(-0.00719429 -0.0156882 0.00206457)
(-0.00639141 -0.0148711 0.00315846)
(0.000649588 -0.0126245 0.00621803)