/*--------------------------------*- C++ -*----------------------------------*\
| =========                 |                                                 |
| \\      /  F ield         | OpenFOAM: The Open Source CFD Toolbox           |
|  \\    /   O peration     | Version:  v1612+                                |
|   \\  /    A nd           | Web:      www.OpenFOAM.com                      |
|    \\/     M anipulation  |                                                 |
\*---------------------------------------------------------------------------*/
FoamFile
{
    version     2.0;
    format      ascii;
    class       volVectorField;
    location    "50";
    object      U;
}
// * * * * * * * * * * * * * * * * * * * * * * * * * * * * * * * * * * * * * //

dimensions      [0 1 -1 0 0 0 0];

internalField   nonuniform List<vector> 
19034
(
(0.203082 0.610269 0.51644)
(0.197608 0.563205 0.492914)
(0.202606 0.666831 0.544465)
(0.198641 0.611989 0.52074)
(0.199062 0.647678 0.537575)
(0.197499 0.747281 0.585534)
(0.194405 0.748073 0.591476)
(0.183755 0.643334 0.541676)
(0.190502 0.61257 0.521309)
(0.173346 0.795108 0.613038)
(0.185523 0.785467 0.609666)
(0.175358 0.639917 0.535606)
(0.173147 0.592702 0.500416)
(0.17934 0.710298 0.572939)
(0.244713 0.551823 0.333197)
(0.244586 0.581426 0.36277)
(0.237384 0.510464 0.306854)
(0.243219 0.516242 0.298764)
(0.212454 0.379399 0.211842)
(0.215159 0.379809 0.209932)
(0.214913 0.372029 0.207024)
(0.216911 0.352403 0.20648)
(0.204316 0.312137 0.185704)
(0.211198 0.37257 0.240435)
(0.21038 0.331872 0.202949)
(0.236767 0.513722 0.305747)
(0.259379 0.555729 0.321281)
(0.219911 0.390692 0.247125)
(0.212088 0.407675 0.260871)
(0.206052 0.34713 0.214486)
(0.230935 0.484923 0.295604)
(0.243673 0.533197 0.338952)
(0.23634 0.487253 0.303523)
(0.186945 0.593286 0.263682)
(0.175982 0.56269 0.233964)
(0.135715 0.443836 0.124586)
(0.133037 0.405961 0.0805759)
(0.192166 0.594921 0.261492)
(0.167165 0.562693 0.252211)
(0.172928 0.417826 0.0849352)
(0.151761 0.38606 0.0607095)
(0.147141 0.458342 0.147031)
(0.161121 0.458886 0.129068)
(0.159191 0.458305 0.135764)
(0.163265 0.466859 0.135223)
(0.140184 0.398623 0.0819525)
(0.161711 0.439827 0.126651)
(0.192851 0.663798 0.407985)
(0.195468 0.706329 0.441224)
(0.195349 0.684253 0.418357)
(0.19019 0.610115 0.370383)
(0.207632 0.638364 0.386174)
(0.225904 0.708338 0.421521)
(0.204944 0.738629 0.446346)
(0.198559 0.820007 0.517335)
(0.211424 0.837999 0.52552)
(0.195889 0.590603 0.361442)
(0.202322 0.816056 0.50314)
(0.204622 0.690711 0.417937)
(0.221334 0.64712 0.386505)
(0.214036 0.634299 0.382095)
(0.212342 0.665798 0.393924)
(0.221213 0.834772 0.515848)
(0.213235 0.872545 0.537312)
(0.229237 0.727003 0.43182)
(0.262405 1.06083 0.706492)
(0.235381 1.02415 0.686415)
(0.267353 1.05483 0.712311)
(0.286065 1.13109 0.763046)
(0.234263 1.04153 0.746235)
(0.251165 1.05664 0.723123)
(0.256014 1.02612 0.697723)
(0.240577 1.05607 0.704688)
(0.280878 1.12044 0.756503)
(0.282459 1.10818 0.744591)
(0.273804 1.09903 0.747741)
(0.265264 1.07928 0.740475)
(0.243736 1.03535 0.70387)
(0.251096 1.06443 0.714873)
(0.252926 0.979227 0.659208)
(0.221067 0.933282 0.650551)
(0.271736 1.02815 0.696123)
(0.256365 0.966488 0.673069)
(0.247603 0.990165 0.67392)
(0.21808 0.926463 0.630064)
(0.244779 1.00018 0.667184)
(0.209742 0.899909 0.646298)
(0.289917 1.1254 0.752076)
(0.285998 1.09865 0.731792)
(0.265334 1.05187 0.702361)
(0.26823 1.04537 0.705141)
(0.174485 0.832018 0.598609)
(0.119995 0.698523 0.405927)
(0.264792 0.966794 0.682318)
(0.246443 0.88052 0.638733)
(0.245439 0.93716 0.655851)
(0.25643 0.941473 0.669386)
(0.240677 0.968756 0.676259)
(0.283429 1.0949 0.845397)
(0.208054 0.915009 0.643989)
(0.254776 0.94492 0.680598)
(0.233061 0.911123 0.65013)
(0.24421 1.01677 0.696952)
(0.280226 1.07576 0.745955)
(0.0810841 0.329933 0.17416)
(0.080221 0.307587 0.15372)
(0.081317 0.354909 0.190891)
(0.0851309 0.34017 0.173972)
(0.0940849 0.343972 0.169577)
(0.098851 0.380393 0.193555)
(0.1039 0.447919 0.235709)
(0.0958761 0.34508 0.172663)
(0.0846765 0.302662 0.151151)
(0.0921197 0.374226 0.189405)
(0.099943 0.440748 0.244499)
(0.115688 0.457703 0.254445)
(0.0956362 0.375198 0.201401)
(0.205679 0.737827 0.564657)
(0.210139 0.74779 0.569849)
(0.19991 0.749989 0.581143)
(0.197361 0.735994 0.568661)
(0.18344 0.72418 0.534555)
(0.186075 0.709745 0.521194)
(0.194777 0.741403 0.531157)
(0.215546 0.823561 0.587972)
(0.198915 0.723957 0.532144)
(0.212402 0.755418 0.55476)
(0.18399 0.716894 0.529677)
(0.237529 0.876533 0.647464)
(0.221009 0.870298 0.643577)
(0.189379 0.7368 0.529241)
(0.206981 0.766207 0.546351)
(0.229931 0.838691 0.598522)
(0.244864 0.887968 0.635676)
(0.248439 0.863916 0.63046)
(0.257227 0.929792 0.65931)
(0.263232 0.953958 0.674765)
(0.215884 0.788697 0.56354)
(0.236721 0.846457 0.599224)
(0.240769 0.875643 0.612952)
(0.247781 0.901296 0.654182)
(0.224406 1.05448 0.720653)
(0.211624 1.04984 0.697472)
(0.218359 1.05727 0.71447)
(0.204209 1.05385 0.695948)
(0.19562 1.00914 0.670644)
(0.195311 1.03825 0.689354)
(0.227796 1.04245 0.706089)
(0.193459 0.98072 0.683481)
(0.197732 0.992979 0.677398)
(0.216117 1.04008 0.699491)
(0.225751 0.928353 0.629986)
(0.238856 0.915367 0.63181)
(0.202363 0.993249 0.679841)
(0.178141 0.934561 0.654375)
(0.221931 0.956096 0.659227)
(0.242754 0.982541 0.665972)
(0.244049 1.00589 0.666978)
(0.220294 0.930491 0.642827)
(0.245372 0.987858 0.672407)
(0.26843 0.87591 0.639556)
(0.260798 0.848392 0.621401)
(0.269341 0.857128 0.62075)
(0.269839 0.836415 0.615668)
(0.268722 0.904041 0.650971)
(0.264262 0.938796 0.671429)
(0.275714 0.903075 0.649714)
(0.29893 1.09693 0.751038)
(0.273051 1.00746 0.706468)
(0.288342 0.956038 0.663929)
(0.281797 0.915044 0.650736)
(0.293979 1.09851 0.754921)
(0.291892 1.04986 0.73153)
(0.286184 0.966635 0.67555)
(0.162365 0.567384 0.446047)
(0.162156 0.56089 0.441536)
(0.168436 0.640953 0.489974)
(0.161069 0.56698 0.453195)
(0.177871 0.605301 0.484143)
(0.169274 0.651609 0.498773)
(0.158002 0.580547 0.440721)
(0.189566 0.69073 0.548019)
(0.181633 0.693978 0.537454)
(0.192338 0.721871 0.55533)
(0.169777 0.584627 0.466293)
(0.161373 0.557554 0.452669)
(0.240385 0.841339 0.36285)
(0.265726 0.897827 0.42498)
(0.239165 0.867623 0.423144)
(0.206199 0.76457 0.294803)
(0.185406 0.708838 0.240769)
(0.178825 0.659098 0.204496)
(0.198787 0.666603 0.203651)
(0.266391 0.92544 0.476468)
(0.169676 0.671639 0.230782)
(0.160287 0.663695 0.231178)
(0.217047 0.769633 0.328633)
(0.187867 0.749479 0.277361)
(0.24031 0.843357 0.410218)
(0.216417 0.809938 0.401525)
(0.228536 0.836106 0.412965)
(0.193766 0.714787 0.275369)
(0.213071 0.774072 0.368195)
(0.174612 0.696598 0.283506)
(0.170292 0.655479 0.255391)
(0.204822 0.799068 0.357556)
(0.209308 0.673644 0.321065)
(0.205008 0.681285 0.337545)
(0.169856 0.579794 0.265388)
(0.165598 0.560387 0.276167)
(0.214025 0.715693 0.356255)
(0.242663 0.792821 0.407831)
(0.204473 0.68224 0.34731)
(0.23329 0.479539 0.364362)
(0.224262 0.430087 0.326615)
(0.234632 0.435831 0.333096)
(0.213622 0.370478 0.277272)
(0.241053 0.587281 0.427843)
(0.241284 0.546517 0.397109)
(0.234478 0.443512 0.323732)
(0.237528 0.465002 0.352545)
(0.252005 0.637392 0.448265)
(0.252815 0.611378 0.423536)
(0.242632 0.574605 0.383034)
(0.242576 0.583915 0.418272)
(0.226211 0.402362 0.290195)
(0.21821 0.375461 0.265861)
(0.230129 0.44336 0.299831)
(0.210962 0.377933 0.26462)
(0.218133 0.402866 0.274772)
(0.221608 0.433039 0.283055)
(0.242808 0.561506 0.38855)
(0.229704 0.450823 0.308652)
(0.172927 0.510123 0.372151)
(0.146572 0.458437 0.325795)
(0.187674 0.541979 0.403796)
(0.163953 0.497607 0.363013)
(0.162555 0.513379 0.363378)
(0.207291 0.677343 0.460781)
(0.174479 0.580158 0.400041)
(0.213197 0.649543 0.442687)
(0.235868 0.774159 0.524298)
(0.200372 0.645734 0.447102)
(0.24769 0.820873 0.570904)
(0.251629 0.854913 0.586891)
(0.204405 0.641927 0.458704)
(0.194902 0.686348 0.480005)
(0.263243 0.688172 0.304596)
(0.258826 0.684247 0.321039)
(0.24931 0.689966 0.309624)
(0.251218 0.695629 0.325562)
(0.259476 0.675342 0.292531)
(0.23045 0.583749 0.222802)
(0.244574 0.605859 0.235879)
(0.259244 0.572611 0.240846)
(0.259845 0.593335 0.248477)
(0.23607 0.596648 0.251326)
(0.255522 0.624384 0.224344)
(0.231527 0.580524 0.199651)
(0.218328 0.526942 0.159702)
(0.248818 0.557046 0.1887)
(0.250209 0.557492 0.21072)
(0.23319 0.567987 0.22076)
(0.244347 0.54142 0.206393)
(0.22689 0.501602 0.156274)
(0.142125 0.561701 0.217623)
(0.13515 0.538266 0.17891)
(0.185902 0.58427 0.209071)
(0.174019 0.593181 0.247792)
(0.153848 0.489671 0.130415)
(0.179911 0.524302 0.14985)
(0.184965 0.673022 0.26982)
(0.156101 0.586028 0.201701)
(0.136952 0.507712 0.147727)
(0.124823 0.485823 0.121798)
(0.192482 0.650816 0.294637)
(0.213293 0.741913 0.348925)
(0.198547 0.712039 0.344351)
(0.153506 0.527766 0.158948)
(0.173851 0.502172 0.107479)
(0.148487 0.453974 0.0792624)
(0.205293 0.698672 0.312434)
(0.124845 0.438118 0.0644339)
(0.134613 0.520039 0.13895)
(0.176548 0.57182 0.161921)
(0.100018 0.500631 0.309035)
(0.0973726 0.473336 0.29024)
(0.0981573 0.476102 0.285759)
(0.105184 0.516391 0.325448)
(0.0877937 0.395548 0.22268)
(0.0736703 0.387091 0.231166)
(0.0917042 0.442155 0.253104)
(0.0753729 0.352184 0.211249)
(0.0710121 0.314634 0.180619)
(0.0870616 0.349559 0.178949)
(0.0721055 0.341251 0.192193)
(0.0727258 0.38268 0.22925)
(0.0748361 0.30228 0.167702)
(0.222537 0.64885 0.379684)
(0.225212 0.673603 0.393131)
(0.253531 0.657361 0.394483)
(0.255128 0.726358 0.430225)
(0.23997 0.615275 0.360215)
(0.23134 0.613633 0.359419)
(0.229969 0.741024 0.445335)
(0.258693 0.725114 0.435767)
(0.254228 0.629965 0.376887)
(0.244994 0.578946 0.345436)
(0.234588 0.746325 0.449296)
(0.235045 0.6869 0.411009)
(0.257034 0.724948 0.44347)
(0.246264 0.681957 0.417193)
(0.235003 0.632851 0.379018)
(0.234041 0.582697 0.338392)
(0.167841 0.480579 0.371757)
(0.199365 0.573667 0.435096)
(0.169734 0.392166 0.315845)
(0.183939 0.429177 0.337886)
(0.177788 0.485867 0.375604)
(0.20037 0.545274 0.416364)
(0.202638 0.553506 0.42311)
(0.194059 0.510767 0.398376)
(0.177485 0.439334 0.34884)
(0.162553 0.403103 0.323165)
(0.157872 0.384778 0.302022)
(0.203806 0.532433 0.408381)
(0.169479 0.385526 0.310043)
(0.160132 0.355484 0.282169)
(0.160613 0.395042 0.3113)
(0.146181 0.337884 0.271376)
(0.196873 0.525101 0.426247)
(0.19071 0.475378 0.401701)
(0.177832 0.466796 0.400406)
(0.189969 0.508986 0.42721)
(0.191542 0.45034 0.383348)
(0.174557 0.399551 0.352882)
(0.183704 0.431515 0.372734)
(0.190828 0.470198 0.40775)
(0.181707 0.479487 0.416342)
(0.16766 0.420739 0.370121)
(0.207968 0.535268 0.431465)
(0.19544 0.551037 0.458588)
(0.203472 0.492976 0.421261)
(0.198568 0.563152 0.463375)
(0.209674 0.539704 0.437706)
(0.188486 0.496629 0.425944)
(0.231568 0.900293 0.551652)
(0.245055 0.820808 0.49792)
(0.231796 0.867453 0.515137)
(0.234386 0.729539 0.435299)
(0.261426 0.745969 0.441161)
(0.26382 0.787272 0.478746)
(0.254818 0.700452 0.396678)
(0.251847 0.695599 0.404892)
(0.240742 0.875766 0.543598)
(0.277493 0.740481 0.456158)
(0.272803 0.686278 0.414049)
(0.25762 0.699226 0.403556)
(0.27262 0.772551 0.472565)
(0.285148 0.76877 0.45349)
(0.288025 0.69697 0.485792)
(0.268484 0.745183 0.515423)
(0.290786 0.735117 0.480711)
(0.271086 0.798727 0.52663)
(0.271514 0.708409 0.515303)
(0.294205 0.644701 0.482171)
(0.305529 0.577701 0.434834)
(0.262929 0.804598 0.535942)
(0.251959 0.709645 0.52304)
(0.294228 0.649765 0.467797)
(0.286446 0.65315 0.492118)
(0.32401 0.620336 0.41308)
(0.312839 0.569862 0.394071)
(0.315662 0.647397 0.463242)
(0.311327 0.602468 0.433707)
(0.316825 0.621716 0.418376)
(0.302116 0.542623 0.391111)
(0.290839 0.716784 0.474349)
(0.300706 0.739813 0.49035)
(0.281502 0.762409 0.488014)
(0.151585 0.584779 0.412504)
(0.166638 0.623692 0.432641)
(0.146841 0.556613 0.387808)
(0.171909 0.635808 0.470723)
(0.160907 0.59842 0.44725)
(0.160157 0.599149 0.41882)
(0.169776 0.641882 0.445744)
(0.142464 0.541577 0.395323)
(0.167338 0.630046 0.458861)
(0.15565 0.598392 0.448439)
(0.241541 0.903723 0.61462)
(0.225812 0.900278 0.607505)
(0.241529 0.840666 0.592541)
(0.246958 0.845239 0.591539)
(0.241745 0.861615 0.567154)
(0.252917 0.781499 0.52661)
(0.235392 0.831438 0.535001)
(0.245562 0.792351 0.523756)
(0.200778 0.965849 0.656336)
(0.20598 0.928702 0.633028)
(0.250448 0.804171 0.569708)
(0.254193 0.789941 0.560703)
(0.259026 0.766428 0.550714)
(0.248977 0.837129 0.543034)
(0.243542 0.844565 0.555296)
(0.238827 0.856637 0.608698)
(0.219919 0.960637 0.656614)
(0.227127 0.963872 0.662096)
(0.256097 0.797536 0.573116)
(0.242969 0.832307 0.590369)
(0.250567 0.764061 0.56632)
(0.251617 0.778562 0.568487)
(0.255036 0.77287 0.572294)
(0.250134 0.800568 0.594504)
(0.250097 0.805762 0.597716)
(0.252625 0.698222 0.537356)
(0.260255 0.704889 0.555465)
(0.257561 0.702544 0.532246)
(0.244815 0.822303 0.607332)
(0.244726 0.691722 0.539612)
(0.242662 0.725526 0.55548)
(0.25482 0.714039 0.548247)
(0.238741 0.682979 0.533502)
(0.247097 0.64104 0.519639)
(0.257537 0.674549 0.527071)
(0.122045 0.473441 0.267486)
(0.0987377 0.453552 0.259395)
(0.110021 0.480632 0.271211)
(0.126045 0.503561 0.286581)
(0.105185 0.463816 0.268965)
(0.124278 0.472124 0.260347)
(0.13015 0.502274 0.266809)
(0.0892543 0.357765 0.182983)
(0.0883966 0.395713 0.219117)
(0.0949535 0.400965 0.213821)
(0.114188 0.380335 0.168708)
(0.0941777 0.336146 0.149032)
(0.104057 0.384482 0.191319)
(0.11233 0.402083 0.200859)
(0.0889225 0.372711 0.197508)
(0.0872438 0.335857 0.166895)
(0.100843 0.358469 0.168272)
(0.0908557 0.338134 0.163681)
(0.202114 0.637943 0.169535)
(0.198063 0.555017 0.129385)
(0.209622 0.604367 0.199984)
(0.234947 0.631372 0.202828)
(0.200287 0.585213 0.178861)
(0.204934 0.577252 0.16174)
(0.226052 0.602079 0.16574)
(0.209812 0.571395 0.146488)
(0.213837 0.635346 0.18167)
(0.218808 0.669231 0.211748)
(0.197087 0.654069 0.237502)
(0.217906 0.650364 0.250333)
(0.264852 0.792546 0.366683)
(0.255145 0.716006 0.28778)
(0.244912 0.719294 0.321552)
(0.264846 0.822734 0.386986)
(0.228437 0.647371 0.207193)
(0.255333 0.793737 0.36047)
(0.257756 0.775406 0.31905)
(0.244452 0.780432 0.316319)
(0.2365 0.76815 0.315231)
(0.239761 0.767127 0.341425)
(0.249495 0.702025 0.501489)
(0.239917 0.585613 0.440265)
(0.247516 0.67958 0.482188)
(0.231442 0.589954 0.42217)
(0.239843 0.631764 0.449875)
(0.23463 0.56154 0.410128)
(0.225672 0.536889 0.387114)
(0.238339 0.61308 0.425482)
(0.243406 0.63553 0.444246)
(0.226162 0.550267 0.389686)
(0.251191 0.659664 0.456102)
(0.256216 0.710825 0.481081)
(0.239479 0.658963 0.468304)
(0.237194 0.519123 0.361799)
(0.339763 1.14839 0.678699)
(0.349416 1.15901 0.692042)
(0.34576 1.16061 0.69055)
(0.341275 1.16429 0.686087)
(0.368156 1.18905 0.718297)
(0.334686 1.13647 0.652952)
(0.357524 1.15091 0.677814)
(0.280275 0.639659 0.345222)
(0.266923 0.586919 0.312548)
(0.277637 0.644893 0.34532)
(0.274282 0.592983 0.314623)
(0.298117 0.77913 0.440853)
(0.259144 0.701189 0.358921)
(0.306192 0.885973 0.516136)
(0.319177 0.859822 0.501885)
(0.270628 0.725903 0.388243)
(0.295999 0.811976 0.453896)
(0.283997 0.668254 0.35828)
(0.273982 0.661847 0.381049)
(0.278236 0.746566 0.442842)
(0.286471 0.772977 0.461612)
(0.313671 0.865313 0.5188)
(0.272764 0.658221 0.384094)
(0.279976 0.808493 0.486653)
(0.286063 0.763866 0.454723)
(0.168584 0.608356 0.444226)
(0.186129 0.667138 0.473923)
(0.218435 0.783758 0.552614)
(0.170016 0.674208 0.46438)
(0.204098 0.712438 0.508182)
(0.168171 0.588343 0.406371)
(0.165552 0.586307 0.397812)
(0.211247 0.795242 0.540099)
(0.218455 0.813569 0.556894)
(0.154688 0.638283 0.431169)
(0.182948 0.715981 0.478027)
(0.190472 0.655171 0.463538)
(0.185172 0.683797 0.452513)
(0.205621 0.727635 0.497867)
(0.245919 0.653172 0.486892)
(0.257739 0.599681 0.471454)
(0.253214 0.671923 0.509453)
(0.248054 0.68356 0.527214)
(0.253934 0.669016 0.502083)
(0.245969 0.681684 0.479852)
(0.250803 0.64813 0.472197)
(0.246207 0.703949 0.534294)
(0.25029 0.83915 0.589269)
(0.248499 0.740592 0.517356)
(0.249988 0.800371 0.595622)
(0.254434 0.724393 0.547776)
(0.235124 0.971479 0.666499)
(0.224054 0.922912 0.651933)
(0.253251 0.857809 0.598107)
(0.242337 0.786862 0.571251)
(0.231623 0.917767 0.647042)
(0.239681 0.844159 0.593197)
(0.24813 0.734009 0.530031)
(0.0774049 0.463331 0.29547)
(0.0671314 0.419887 0.296485)
(0.0931614 0.511328 0.349789)
(0.100335 0.549814 0.362258)
(0.0740306 0.457639 0.320471)
(0.106647 0.550688 0.429325)
(0.110128 0.51589 0.410141)
(0.0852214 0.51981 0.334723)
(0.0731561 0.464328 0.312278)
(0.106537 0.629153 0.444664)
(0.112124 0.57371 0.419333)
(0.110536 0.514926 0.414957)
(0.097216 0.479125 0.381493)
(0.122937 0.726528 0.475386)
(0.120435 0.677217 0.455931)
(0.0945688 0.621083 0.412361)
(0.1131 0.624529 0.452151)
(0.089762 0.515922 0.384554)
(0.0730349 0.501285 0.358182)
(0.112347 0.636841 0.447876)
(0.290659 1.02681 0.678459)
(0.293203 1.02736 0.68552)
(0.292173 1.05257 0.689525)
(0.291797 1.04868 0.703984)
(0.269014 0.95735 0.637411)
(0.264759 0.911221 0.605786)
(0.272187 0.951231 0.637016)
(0.261549 0.929402 0.592406)
(0.257113 0.869214 0.56347)
(0.292457 1.04375 0.686386)
(0.293663 1.01341 0.663191)
(0.273842 0.957078 0.644281)
(0.261318 0.891184 0.576424)
(0.262465 0.902877 0.577799)
(0.259277 0.84483 0.530411)
(0.265234 0.834526 0.523884)
(0.281746 0.895332 0.56838)
(0.286604 0.972015 0.641552)
(0.258461 0.873417 0.567525)
(0.266768 0.854335 0.539336)
(0.283401 0.912489 0.583822)
(0.143693 0.578478 0.299509)
(0.147928 0.564367 0.290623)
(0.110626 0.579723 0.311373)
(0.12596 0.528686 0.267857)
(0.0878572 0.612669 0.339537)
(0.0911389 0.560932 0.304976)
(0.111759 0.495247 0.251579)
(0.131208 0.58207 0.298223)
(0.152062 0.68032 0.388381)
(0.142678 0.683664 0.381617)
(0.086906 0.612155 0.334511)
(0.110214 0.543331 0.274633)
(0.118202 0.581297 0.302024)
(0.129936 0.70068 0.394111)
(0.227987 0.682649 0.392883)
(0.238951 0.647712 0.37791)
(0.230329 0.640985 0.367308)
(0.238163 0.621736 0.360446)
(0.247503 0.585906 0.367823)
(0.239648 0.573427 0.342407)
(0.242672 0.708155 0.449274)
(0.239454 0.665373 0.413691)
(0.255325 0.60959 0.395911)
(0.191184 0.836693 0.594886)
(0.181277 0.775338 0.562971)
(0.230742 1.02761 0.710275)
(0.226824 1.01115 0.711953)
(0.197092 0.8654 0.623957)
(0.191294 0.844786 0.597045)
(0.201492 0.891986 0.607142)
(0.193069 0.77427 0.586662)
(0.196167 0.798898 0.609574)
(0.220894 0.961439 0.691041)
(0.208186 0.920156 0.671676)
(0.219134 0.939511 0.646426)
(0.220489 0.962498 0.663854)
(0.207793 0.994161 0.692532)
(0.226585 1.037 0.726569)
(0.203663 0.848813 0.619131)
(0.201778 0.859487 0.608579)
(0.18043 0.487936 0.232846)
(0.170112 0.448728 0.209532)
(0.158581 0.477383 0.223175)
(0.177407 0.552387 0.262432)
(0.190739 0.469747 0.22886)
(0.165492 0.402083 0.18766)
(0.194842 0.49454 0.239354)
(0.188218 0.45144 0.216612)
(0.18366 0.576918 0.26763)
(0.194806 0.509344 0.248466)
(0.187496 0.579435 0.272998)
(0.173205 0.515498 0.231637)
(0.172393 0.455255 0.205721)
(0.166286 0.454419 0.213864)
(0.156904 0.387096 0.177854)
(0.17131 0.412816 0.19668)
(0.205929 0.572583 0.461369)
(0.216726 0.690881 0.543923)
(0.210228 0.630638 0.509618)
(0.220954 0.638861 0.491061)
(0.223471 0.668693 0.513841)
(0.249118 0.800737 0.596975)
(0.233034 0.805014 0.605194)
(0.216689 0.715626 0.564813)
(0.207129 0.660681 0.531805)
(0.232245 0.69377 0.531937)
(0.217188 0.599152 0.471479)
(0.240433 0.897662 0.579943)
(0.284182 1.01368 0.667215)
(0.260006 1.00211 0.651095)
(0.254766 0.9443 0.596342)
(0.300524 1.05297 0.674761)
(0.233362 0.882878 0.546804)
(0.221995 0.858314 0.545996)
(0.255334 0.922342 0.56419)
(0.269618 1.00799 0.644747)
(0.228897 0.881817 0.543279)
(0.230297 0.876689 0.543543)
(0.241002 0.906191 0.537738)
(0.236395 0.871607 0.52949)
(0.289597 1.0472 0.633483)
(0.289374 1.05959 0.669089)
(0.241501 0.889146 0.536163)
(0.289586 1.04016 0.645709)
(0.205132 0.805207 0.538221)
(0.180148 0.694273 0.463449)
(0.201977 0.762384 0.527028)
(0.184993 0.685452 0.464877)
(0.199678 0.787981 0.539093)
(0.182019 0.682087 0.46652)
(0.214317 0.807829 0.543058)
(0.205301 0.767778 0.534269)
(0.211386 0.841935 0.591238)
(0.194301 0.778261 0.558572)
(0.171142 0.62326 0.430922)
(0.167459 0.644248 0.443)
(0.16043 0.604589 0.407766)
(0.209922 0.82282 0.575081)
(0.157754 0.636378 0.458171)
(0.145587 0.588767 0.409507)
(0.165483 0.640733 0.449545)
(0.164082 0.680004 0.486624)
(0.188858 0.788987 0.560359)
(0.183395 0.746303 0.541019)
(0.16853 0.66723 0.489164)
(0.15796 0.623382 0.437951)
(0.201784 0.819511 0.602819)
(0.217355 0.833711 0.609295)
(0.231748 0.914806 0.657737)
(0.245169 0.910805 0.659971)
(0.231706 0.878275 0.635564)
(0.186573 0.815903 0.592522)
(0.218494 0.822064 0.605658)
(0.24779 1.0288 0.706407)
(0.257571 0.961515 0.670093)
(0.202127 0.873974 0.630577)
(0.245579 0.908483 0.652227)
(0.225396 0.91552 0.648127)
(0.209666 1.02306 0.701035)
(0.220096 1.04649 0.721979)
(0.230177 1.06803 0.731208)
(0.241283 0.979497 0.67417)
(0.195469 0.997094 0.69644)
(0.201368 0.958836 0.678669)
(0.181739 0.911562 0.642051)
(0.245381 0.898793 0.654238)
(0.232993 0.90034 0.658468)
(0.189374 0.859067 0.622285)
(0.212982 0.924364 0.672287)
(0.220202 0.749503 0.574406)
(0.215834 0.738776 0.565585)
(0.220666 0.712418 0.553134)
(0.194846 0.743094 0.562469)
(0.251706 0.817708 0.614108)
(0.225641 0.783821 0.591216)
(0.196274 0.787001 0.580304)
(0.204617 0.751992 0.566538)
(0.195428 0.904828 0.656874)
(0.248542 1.01501 0.709532)
(0.258042 0.852969 0.621942)
(0.246783 0.817244 0.608215)
(0.19989 0.806546 0.592504)
(0.24113 0.937474 0.668812)
(0.206114 0.881546 0.634535)
(0.230891 0.883148 0.646387)
(0.170202 0.605244 0.480059)
(0.14661 0.548951 0.428275)
(0.139011 0.53483 0.413737)
(0.15573 0.578577 0.455838)
(0.17999 0.58396 0.470724)
(0.16245 0.566218 0.458282)
(0.161633 0.579969 0.468933)
(0.143941 0.487637 0.395954)
(0.143115 0.439067 0.381426)
(0.170014 0.490965 0.417655)
(0.175353 0.586283 0.476383)
(0.1619 0.49726 0.413506)
(0.1443 0.456341 0.384161)
(0.160071 0.466164 0.396549)
(0.138601 0.426264 0.372612)
(0.125508 0.453977 0.365147)
(0.127313 0.408445 0.344346)
(0.209701 0.475571 0.375648)
(0.216704 0.475745 0.377695)
(0.243929 0.697882 0.522071)
(0.237531 0.645221 0.474666)
(0.24734 0.704534 0.525268)
(0.229725 0.582926 0.445591)
(0.236018 0.63006 0.47538)
(0.223545 0.465096 0.367191)
(0.222933 0.530959 0.408551)
(0.22121 0.572266 0.435395)
(0.247522 0.659494 0.484571)
(0.244 0.677398 0.479566)
(0.244898 0.610655 0.460027)
(0.223493 0.47373 0.382315)
(0.241071 0.609889 0.43668)
(0.240846 0.603831 0.439154)
(0.224419 0.497725 0.404117)
(0.230009 0.497575 0.398375)
(0.24534 0.583901 0.412568)
(0.279081 0.928781 0.50463)
(0.280124 0.91453 0.508779)
(0.290754 0.948961 0.506393)
(0.324398 1.04996 0.577768)
(0.326186 1.03497 0.566602)
(0.269775 0.923855 0.485107)
(0.26086 0.878336 0.457502)
(0.275997 0.88688 0.44736)
(0.0993426 0.597885 0.398591)
(0.10255 0.577592 0.346268)
(0.106719 0.555252 0.341053)
(0.109184 0.580899 0.375908)
(0.143799 0.767613 0.51988)
(0.138666 0.725607 0.49077)
(0.128232 0.679807 0.459534)
(0.131646 0.691032 0.428531)
(0.106673 0.532122 0.356188)
(0.102155 0.484254 0.296792)
(0.140865 0.745427 0.464943)
(0.12332 0.558948 0.321938)
(0.103432 0.511492 0.31225)
(0.132587 0.664857 0.432082)
(0.13921 0.684687 0.427629)
(0.148968 0.716675 0.424733)
(0.129499 0.589453 0.356557)
(0.104256 0.530782 0.329939)
(0.227053 0.654062 0.40722)
(0.234806 0.662884 0.41357)
(0.219007 0.661176 0.408872)
(0.211268 0.631068 0.380677)
(0.243505 0.778704 0.499891)
(0.246489 0.832244 0.536227)
(0.24479 0.789479 0.521845)
(0.237849 0.804455 0.529821)
(0.237716 0.736566 0.469055)
(0.219412 0.650715 0.407777)
(0.22026 0.707466 0.449319)
(0.210445 0.680898 0.434708)
(0.23563 0.768663 0.502918)
(0.235089 0.761557 0.502681)
(0.232221 0.747011 0.484474)
(0.240799 0.740513 0.480601)
(0.199279 0.63151 0.390292)
(0.27118 0.74625 0.504554)
(0.266512 0.710912 0.4896)
(0.264912 0.600056 0.431235)
(0.258286 0.577252 0.420129)
(0.273231 0.693267 0.49666)
(0.277865 0.692077 0.49636)
(0.259353 0.587294 0.42289)
(0.247509 0.546517 0.393272)
(0.272074 0.742129 0.514004)
(0.286734 0.782707 0.535534)
(0.264074 0.660324 0.441127)
(0.256196 0.641903 0.423645)
(0.264676 0.608772 0.433952)
(0.271611 0.678192 0.47709)
(0.258268 0.586787 0.421978)
(0.257667 0.622953 0.417117)
(0.255053 0.576465 0.394843)
(0.245138 0.541625 0.37606)
(0.276755 0.662486 0.441158)
(0.250232 0.576952 0.401526)
(0.254109 0.57362 0.390649)
(0.1492 0.70147 0.450192)
(0.175209 0.761524 0.476166)
(0.192273 0.886195 0.573065)
(0.158879 0.712202 0.456807)
(0.136408 0.648257 0.408398)
(0.1579 0.744077 0.489345)
(0.187521 0.885573 0.567754)
(0.192338 0.916261 0.605197)
(0.170938 0.765084 0.547718)
(0.13406 0.699709 0.463256)
(0.206969 0.870177 0.595427)
(0.199722 0.894652 0.572345)
(0.198481 0.799218 0.511034)
(0.142671 0.662053 0.448733)
(0.138365 0.675737 0.455289)
(0.163327 0.731749 0.488594)
(0.152493 0.70509 0.477679)
(0.207593 0.854043 0.606374)
(0.208343 0.863831 0.588866)
(0.204714 0.835951 0.585667)
(0.237237 0.660277 0.520278)
(0.233702 0.648432 0.509409)
(0.236375 0.657854 0.510647)
(0.239285 0.783118 0.587944)
(0.260157 0.688615 0.535221)
(0.258757 0.652007 0.5078)
(0.24123 0.810118 0.595773)
(0.244954 0.798511 0.582147)
(0.260448 0.923008 0.511596)
(0.234133 0.867102 0.471567)
(0.274931 0.948468 0.54166)
(0.265473 0.9492 0.551503)
(0.240271 0.880574 0.476574)
(0.229424 0.842965 0.464292)
(0.287295 1.02833 0.606156)
(0.299565 1.04926 0.637368)
(0.256902 0.913069 0.524876)
(0.241877 0.854701 0.480387)
(0.271772 0.944851 0.547431)
(0.271617 0.949652 0.571239)
(0.257687 0.912184 0.518907)
(0.260915 0.919429 0.53013)
(0.199933 0.399601 0.248671)
(0.206788 0.43366 0.251437)
(0.202876 0.376316 0.244545)
(0.192864 0.419708 0.268462)
(0.186153 0.333052 0.206529)
(0.186097 0.304972 0.188972)
(0.199272 0.334731 0.202209)
(0.19275 0.274954 0.161883)
(0.224229 0.402244 0.237648)
(0.21212 0.356401 0.207216)
(0.233198 0.526296 0.307343)
(0.225313 0.541433 0.325891)
(0.206817 0.354222 0.199794)
(0.246479 0.530047 0.317243)
(0.245502 0.525864 0.307269)
(0.223542 0.541979 0.318314)
(0.19948 0.387806 0.230592)
(0.236304 0.516726 0.307424)
(0.268627 0.744108 0.531796)
(0.274088 0.697994 0.500508)
(0.253694 0.772121 0.545259)
(0.260109 0.818537 0.570311)
(0.266031 0.717015 0.524207)
(0.256952 0.708657 0.522745)
(0.246372 0.792957 0.56394)
(0.265491 0.835752 0.575605)
(0.272829 0.712311 0.502458)
(0.262081 0.746157 0.518797)
(0.27494 0.72453 0.511528)
(0.267078 0.681026 0.508283)
(0.273522 0.64601 0.474414)
(0.277952 0.667415 0.467977)
(0.273652 0.729669 0.505572)
(0.280497 0.594193 0.434313)
(0.284135 0.597448 0.428618)
(0.269179 0.767014 0.520721)
(0.276586 0.673825 0.502593)
(0.285932 0.598345 0.440371)
(0.262763 0.711132 0.490858)
(0.267951 0.593993 0.413278)
(0.261191 0.577379 0.407577)
(0.266327 0.59628 0.431357)
(0.257049 0.541015 0.402279)
(0.260444 0.512838 0.389697)
(0.26444 0.594259 0.408876)
(0.258328 0.550006 0.387865)
(0.266839 0.626474 0.461296)
(0.265883 0.539293 0.395005)
(0.256147 0.531224 0.388933)
(0.270829 0.598218 0.418166)
(0.27258 0.573639 0.433438)
(0.259083 0.537113 0.404197)
(0.215828 0.590801 0.380495)
(0.157615 0.37892 0.263158)
(0.16512 0.422951 0.288264)
(0.20294 0.546647 0.341245)
(0.174367 0.449907 0.281253)
(0.156067 0.407784 0.266636)
(0.142448 0.348024 0.231268)
(0.175869 0.459249 0.286604)
(0.192085 0.557161 0.341561)
(0.147281 0.41185 0.261193)
(0.158336 0.486034 0.303298)
(0.197926 0.615911 0.399185)
(0.17501 0.544882 0.342632)
(0.143513 0.412211 0.260552)
(0.13115 0.350879 0.221101)
(0.190854 0.614604 0.377693)
(0.156911 0.444985 0.28392)
(0.220552 0.454404 0.291132)
(0.211351 0.420008 0.296142)
(0.195673 0.359171 0.253438)
(0.211067 0.426937 0.294921)
(0.175779 0.295764 0.196468)
(0.210269 0.398925 0.283026)
(0.235017 0.504355 0.341559)
(0.220131 0.47493 0.312288)
(0.238438 0.522779 0.351909)
(0.196309 0.346257 0.217186)
(0.187805 0.297722 0.184016)
(0.189131 0.301381 0.193425)
(0.206015 0.395409 0.261898)
(0.235634 0.484274 0.318829)
(0.231496 0.471775 0.299237)
(0.214294 0.464787 0.296112)
(0.230832 0.490152 0.322141)
(0.197739 0.345308 0.215986)
(0.208851 0.389085 0.238541)
(0.199517 0.342455 0.233103)
(0.197084 0.37282 0.234954)
(0.221656 0.790762 0.588028)
(0.229319 0.811649 0.61146)
(0.229196 0.662173 0.517545)
(0.214551 0.619657 0.489676)
(0.214625 0.707797 0.533232)
(0.21891 0.748116 0.560221)
(0.236914 0.784139 0.600256)
(0.217165 0.654533 0.511565)
(0.213805 0.651829 0.508906)
(0.196839 0.587737 0.465802)
(0.201773 0.637214 0.487955)
(0.180724 0.540987 0.441858)
(0.178398 0.561843 0.448627)
(0.210078 0.682812 0.528038)
(0.223049 0.741037 0.574005)
(0.213158 0.669718 0.523601)
(0.231198 1.01664 0.686069)
(0.227597 0.996021 0.670105)
(0.22384 0.953458 0.645416)
(0.235906 0.947522 0.633474)
(0.228498 1.02174 0.676335)
(0.22015 0.966289 0.643384)
(0.246074 1.0319 0.685459)
(0.238161 0.875857 0.567684)
(0.219573 0.796079 0.509159)
(0.230086 0.861929 0.558157)
(0.218259 0.815965 0.525258)
(0.241468 0.984805 0.639575)
(0.230907 1.00458 0.659715)
(0.230103 0.854886 0.549675)
(0.250259 0.898113 0.583254)
(0.216177 0.866626 0.570881)
(0.214298 0.828926 0.533143)
(0.216386 0.892643 0.571688)
(0.214222 0.86899 0.580078)
(0.214743 0.86128 0.560677)
(0.211658 0.769258 0.54458)
(0.206607 0.730894 0.525081)
(0.197149 0.739118 0.525011)
(0.172406 0.655029 0.453613)
(0.167612 0.60567 0.442802)
(0.168874 0.603665 0.433818)
(0.165566 0.606564 0.432444)
(0.150155 0.536034 0.387671)
(0.173805 0.62147 0.472836)
(0.155805 0.567984 0.434248)
(0.169543 0.593453 0.432992)
(0.212686 0.75026 0.503825)
(0.20628 0.715789 0.485808)
(0.236 0.861511 0.606875)
(0.210547 0.730081 0.484246)
(0.225519 0.790201 0.53116)
(0.244493 0.862171 0.591024)
(0.242614 0.859795 0.595778)
(0.212339 0.770043 0.52246)
(0.200605 0.724029 0.490722)
(0.226419 0.815032 0.574121)
(0.22122 0.796652 0.539157)
(0.200288 0.892999 0.591637)
(0.178738 0.931835 0.601192)
(0.174207 0.979675 0.628875)
(0.164968 0.894888 0.570571)