/*--------------------------------*- C++ -*----------------------------------*\
| =========                 |                                                 |
| \\      /  F ield         | OpenFOAM: The Open Source CFD Toolbox           |
|  \\    /   O peration     | Version:  v1612+                                |
|   \\  /    A nd           | Web:      www.OpenFOAM.com                      |
|    \\/     M anipulation  |                                                 |
\*---------------------------------------------------------------------------*/
FoamFile
{
    version     2.0;
    format      ascii;
    class       volVectorField;
    location    "50";
    object      wallShearStress;
}
// * * * * * * * * * * * * * * * * * * * * * * * * * * * * * * * * * * * * * //

dimensions      [0 2 -2 0 0 0 0];

internalField   uniform (0 0 0);

boundaryField
{
    WALL
    {
        type            calculated;
        value           nonuniform List<vector> 
1679
(
(-0.008656 -0.017005 -0.00911778)
(-0.00956085 -0.0170259 -0.00934077)
(-0.00292504 -0.00282493 -0.00241873)
(-0.00310707 -0.00240116 -0.00223787)
(-0.00416704 -0.00598593 -0.00600361)
(-0.00375118 -0.00546771 -0.0054031)
(-0.00816084 -0.0178456 -0.00910962)
(-0.00682168 -0.0157694 -0.0070455)
(-0.00711799 -0.0164211 -0.00879261)
(-0.00799423 -0.0172339 -0.00966113)
(-0.00660664 -0.00933921 0.00237192)
(-0.00698442 -0.00741588 0.00301045)
(-0.0069989 -0.00885689 -0.00912668)
(-0.00693163 -0.00890656 -0.0104147)
(-0.00563644 -0.00645462 -0.00136327)
(-0.00566776 -0.00600663 -0.00215202)
(-0.0016199 -0.00546499 -0.00508331)
(-0.00169204 -0.00553364 -0.00558444)
(-0.00194736 -0.00691477 -0.00457985)
(-0.00194738 -0.00683603 -0.00436543)
(-0.00315889 -0.0069252 -0.00333393)
(-0.00300789 -0.00752538 -0.00405245)
(-0.00471401 -0.00890143 -0.00490397)
(-0.00525246 -0.00990344 -0.00552203)
(-0.0092995 -0.00714507 0.00522064)
(-0.00811673 -0.00578851 0.00412193)
(-0.00789391 -0.00414473 0.00150587)
(-0.0076269 -0.00368346 0.000214294)
(-0.00844865 -0.00393425 0.00232212)
(-0.00911513 -0.00543631 0.00346227)
(-0.00712774 -0.00464939 -0.000349781)
(-0.00747837 -0.00508872 0.000936161)
(-0.00340894 -0.0133707 0.00492479)
(-0.00308209 -0.0127366 0.00431908)
(-0.00932763 -0.0163945 -0.0054067)
(-0.00924217 -0.0164532 -0.00705038)
(-0.0123736 -0.0151183 -0.00409044)
(-0.0130721 -0.0146469 -0.00296924)
(-0.0104449 -0.0160988 -0.00582008)
(-0.0113906 -0.0163706 -0.00545611)
(-0.00594616 -0.0151889 -0.00849572)
(-0.00606227 -0.0166898 -0.00951361)
(-0.00847808 -0.0169645 -0.00870948)
(-0.00907409 -0.0157211 -0.0077301)
(-0.00724309 -0.0153246 -0.00851232)
(-0.00828499 -0.0152348 -0.00897196)
(-0.00795341 -0.0131683 -0.0111865)
(-0.00722228 -0.0124448 -0.0112381)
(-0.00166874 -0.00675576 -0.00404025)
(-0.00134333 -0.00602469 -0.00470286)
(-0.00581144 -0.00744028 -0.00441646)
(-0.00506531 -0.007453 -0.00365924)
(-0.00276196 -0.00676285 -0.00247221)
(-0.00287567 -0.00770708 -0.0023286)
(-0.00660582 -0.00747963 -0.00644195)
(-0.00638122 -0.00782901 -0.00766488)
(-0.00316692 -0.0122548 -0.0105761)
(-0.00527036 -0.0137271 -0.0146375)
(-0.00455519 -0.00983063 -0.00997438)
(-0.00517797 -0.00952268 -0.0102655)
(-0.003249 -0.00591609 -0.00829836)
(-0.00374703 -0.00557199 -0.00814754)
(-0.00374178 -0.0112756 -0.00944399)
(-0.00341921 -0.00923534 -0.00846584)
(-0.00242919 -0.011277 -0.0036499)
(-0.00266148 -0.0123823 -0.00466478)
(-0.00792079 -0.0069953 -0.00971204)
(-0.00644821 -0.00566065 -0.00929937)
(-0.00573627 -0.0104883 -0.0105315)
(-0.00680479 -0.0113042 -0.0107643)
(-0.00598784 -0.00756579 6.18616e-05)
(-0.00632975 -0.00770512 0.00114741)
(-0.00358935 -0.00790424 -0.00183262)
(-0.00363564 -0.0074045 -0.00140954)
(-0.00887147 -0.0111982 -0.0126602)
(-0.00884763 -0.0122573 -0.0138604)
(-0.00387839 -0.00480806 -0.00470331)
(-0.00351651 -0.0056172 -0.0049631)
(-0.0067273 -0.0129432 -0.0155854)
(-0.00686574 -0.0140951 -0.0161521)
(-0.00764675 -0.0140919 -0.0165103)
(-0.00629876 -0.0149436 -0.016552)
(-0.00683386 -0.0134828 -0.0154534)
(-0.00600935 -0.0157013 -0.0159221)
(-0.002506 -0.0194078 -0.00238439)
(-0.00243618 -0.017779 -0.00468078)
(-0.00214966 -0.0180801 -0.00322342)
(-0.00200622 -0.0175943 -0.00107014)
(-0.00247697 -0.0158536 -0.00228392)
(-0.00227138 -0.0160837 -0.00322196)
(-0.00182242 -0.00582071 -0.00605815)
(-0.0016436 -0.0052291 -0.00539947)
(-0.00218324 -0.00576713 -0.00669443)
(-0.00196692 -0.00605105 -0.00608438)
(-0.00161521 -0.00577838 -0.00553367)
(-0.0021328 -0.00714563 -0.00426933)
(-0.00203988 -0.00720064 -0.00413813)
(-0.00183413 -0.00658365 -0.00413297)
(-0.00212717 -0.00702979 -0.00401235)
(-0.00172596 -0.00702951 -0.00452027)
(-0.00196045 -0.00726872 -0.00414659)
(-0.00670732 -0.0100355 -0.00615981)
(-0.00524334 -0.00949178 -0.00547141)
(-0.0046267 -0.0093321 -0.00498323)
(-0.00591011 -0.00936214 -0.00550637)
(-0.00893505 -0.00475658 0.00301788)
(-0.00812948 -0.00357244 0.00167732)
(-0.00797172 -0.00301232 0.00111093)
(-0.0078533 -0.00517006 0.00152781)
(-0.00902807 -0.0041541 0.00205294)
(-0.00846168 -0.00490878 0.00304391)
(-0.00713159 -0.0022267 -0.000369342)
(-0.00622267 -0.00188655 -0.00115026)
(-0.00652446 -0.00213274 -0.000929649)
(-0.00584695 -0.00231658 -0.00138959)
(-0.0066262 -0.00230516 -0.000790368)
(-0.0098388 -0.014546 0.00129741)
(-0.00940928 -0.0139321 0.00264321)
(-0.0100019 -0.0136234 0.00259502)
(-0.0111099 -0.0141992 0.000693789)
(-0.0109068 -0.0141799 0.0017511)
(-0.01023 -0.0153628 -0.00040737)
(-0.00719664 -0.0161851 -0.012113)
(-0.00684356 -0.0158201 -0.0113589)
(-0.00751649 -0.0153909 -0.0116711)
(-0.00806042 -0.0159611 -0.0112747)
(-0.00747449 -0.0156789 -0.0110593)
(-0.00789767 -0.016383 -0.0119302)
(-0.00422791 -0.0179544 -0.00881449)
(-0.0050443 -0.0180566 -0.0097844)
(-0.00634781 -0.0180553 -0.0102266)
(-0.00645718 -0.0183654 -0.0110279)
(-0.00535847 -0.0190054 -0.00947858)
(-0.00545349 -0.016934 -0.010186)
(-0.00426807 -0.0171688 -0.0127888)
(-0.00521298 -0.0189075 -0.013232)
(-0.00346386 -0.0151431 -0.0119295)
(-0.00472506 -0.0186494 -0.011995)
(-0.004754 -0.0172396 -0.0140569)
(-0.00464541 -0.0170383 -0.0139222)
(-0.00808934 -0.0138017 -0.0106379)
(-0.00865627 -0.0137079 -0.0102811)
(-0.0091981 -0.0151391 -0.0108916)
(-0.00827717 -0.014798 -0.0103446)
(-0.00853986 -0.0138535 -0.0107922)
(-0.00793546 -0.0147459 -0.0108531)
(-0.00844383 -0.0165282 -0.00839023)
(-0.00869008 -0.0163486 -0.0090323)
(-0.00896818 -0.0168298 -0.00877151)
(-0.00877495 -0.0165427 -0.00946253)
(-0.00817228 -0.0168006 -0.0092106)
(-0.0082595 -0.016922 -0.00877208)
(-0.00844196 -0.0166351 -0.0095176)
(-0.00891221 -0.0166455 -0.00981127)
(-0.00791584 -0.00922208 -0.00823952)
(-0.00727076 -0.00885079 -0.00697562)
(-0.00703471 -0.00834633 -0.00677823)
(-0.00766597 -0.00913076 -0.00762825)
(-0.00728824 -0.0082763 -0.00720816)
(-0.0073982 -0.00860255 -0.00781226)
(-0.00378386 -0.00700401 -0.00733685)
(-0.00391368 -0.00812098 -0.00819062)
(-0.00344378 -0.00660984 -0.00671456)
(-0.00344914 -0.00725374 -0.00705535)
(-0.00326241 -0.00762362 -0.00728472)
(-0.00353454 -0.00789946 -0.00773884)
(-0.00375491 -0.00764719 -0.00915967)
(-0.00348706 -0.00679673 -0.00840017)
(-0.00404781 -0.00694158 -0.00893023)
(-0.00421819 -0.00693428 -0.0090535)
(-0.00289879 -0.00681968 -0.00787284)
(-0.00287229 -0.00661943 -0.0080232)
(-0.00550871 -0.0181445 -0.00935355)
(-0.00567617 -0.0175508 -0.00983407)
(-0.00509627 -0.0170371 -0.00917006)
(-0.0064815 -0.0170851 -0.00827912)
(-0.00610619 -0.0183759 -0.00919646)
(-0.00646184 -0.0173481 -0.0083866)
(-0.00484987 -0.00731824 -0.00162722)
(-0.00486227 -0.00764054 -0.00160589)
(-0.00443836 -0.00780562 -0.00150017)
(-0.00459777 -0.00744849 -0.00107746)
(-0.00444662 -0.00766086 -0.000831215)
(-0.00931093 -0.0117048 -0.0123917)
(-0.00952081 -0.0115021 -0.0108295)
(-0.00963127 -0.0121356 -0.0119912)
(-0.00845753 -0.0131665 -0.0153109)
(-0.0085603 -0.0122775 -0.0144002)
(-0.00802016 -0.0125893 -0.0147376)
(-0.00528677 -0.0127084 -0.0144275)
(-0.00581078 -0.0102808 -0.0126855)
(-0.00563211 -0.0110051 -0.0129628)
(-0.00473586 -0.0116719 -0.013091)
(-0.00582307 -0.0129189 -0.0140002)
(-0.00476727 -0.0156167 -0.0157398)
(-0.0039898 -0.0148949 -0.0138713)
(-0.00419663 -0.0189123 -0.0152204)
(-0.00395663 -0.015968 -0.0136695)
(-0.00227304 -0.00264584 -0.00220389)
(-0.00318319 -0.00330802 -0.00299867)
(-0.00283419 -0.00383352 -0.00328985)
(-0.00346938 -0.00228975 -0.00233376)
(-0.00275336 -0.0030353 -0.00268891)
(-0.00223611 -0.00278901 -0.00231752)
(-0.0022918 -0.00421703 -0.003164)
(-0.00210736 -0.00400832 -0.0030142)
(-0.00549455 -0.00585503 -0.00254879)
(-0.00534677 -0.00535567 -0.00259721)
(-0.00589436 -0.00590601 -0.00203008)
(-0.00572048 -0.0051948 -0.00253533)
(-0.00590219 -0.00543453 -0.00219687)
(-0.00588055 -0.00479832 -0.00258032)
(-0.00531941 -0.00442223 -0.00313869)
(-0.00524301 -0.00457454 -0.00319741)
(-0.00567676 -0.00433941 -0.00267084)
(-0.00552053 -0.00484553 -0.00296826)
(-0.00582989 -0.00473159 -0.00243999)
(-0.004228 -0.00459172 -0.00425432)
(-0.00477546 -0.00437822 -0.00370425)
(-0.00477885 -0.00457034 -0.00380921)
(-0.00431035 -0.00445849 -0.00410487)
(-0.0045126 -0.00472922 -0.00424819)
(-0.00464823 -0.00464152 -0.00405122)
(-0.00512827 -0.00524662 -0.00428613)
(-0.00492991 -0.00485293 -0.00404803)
(-0.00519796 -0.00479806 -0.00320109)
(-0.00513583 -0.0048373 -0.00362091)
(-0.00536351 -0.00512023 -0.00334739)
(-0.00516819 -0.00532504 -0.00396658)
(-0.00617514 -0.0071387 -0.000103161)
(-0.00680627 -0.00661481 -5.38318e-05)
(-0.00697694 -0.00700832 0.000374942)
(-0.00620375 -0.00645157 -0.000103599)
(-0.0057573 -0.00852474 -2.01221e-05)
(-0.00649231 -0.00743177 0.000538102)
(-0.00522027 -0.00788755 -0.000469353)
(-0.00511128 -0.00803476 -0.000128172)
(-0.00495955 -0.00860627 0.000238851)
(-0.00524807 -0.00735811 -0.000220237)
(-0.00453011 -0.00811592 -0.000969155)
(-0.00425545 -0.00802683 -0.000365339)
(-0.00505857 -0.00651504 -0.00245732)
(-0.00525698 -0.00719513 -0.00209997)
(-0.00500889 -0.00708699 -0.00192723)
(-0.00542192 -0.00654368 -0.00247442)
(-0.00533929 -0.00642737 -0.00194802)
(-0.00491925 -0.00623747 -0.00181396)
(-0.00818313 -0.00830668 -0.0104928)
(-0.00756688 -0.00703114 -0.0103187)
(-0.00719237 -0.00735251 -0.0105677)
(-0.00673622 -0.00758585 -0.0101089)
(-0.00808401 -0.00880532 -0.0104818)
(-0.00759321 -0.0081938 -0.0103767)
(-0.00952498 -0.00798556 -0.00987769)
(-0.00867328 -0.00697996 -0.00999532)
(-0.00880292 -0.00768857 -0.00981411)
(-0.00828045 -0.00699641 -0.0100718)
(-0.00990807 -0.00795601 -0.0102704)
(-0.0096776 -0.0148299 -0.00678075)
(-0.00386368 -0.0190752 -0.00756302)
(-0.00479263 -0.0191984 -0.00776196)
(-0.00374932 -0.0199362 -0.00653366)
(-0.00227299 -0.0181812 0.000888101)
(-0.00318817 -0.0169042 -0.00948707)
(-0.00290955 -0.0142772 -0.00818383)
(-0.00337213 -0.0140181 -0.00881775)
(-0.0028971 -0.0144065 -0.00841848)
(-0.00390461 -0.0148463 -0.00979752)
(-0.00321818 -0.0151026 -0.00893584)
(-0.00534337 -0.0131103 -0.0112045)
(-0.0046465 -0.0121108 -0.0103131)
(-0.00474259 -0.0143472 -0.0109501)
(-0.0048883 -0.0135203 -0.010874)
(-0.00427196 -0.0123934 -0.0100724)
(-0.00388823 -0.0128324 -0.00959001)
(-0.00179227 -0.00804553 -0.00580862)
(-0.00194122 -0.00836317 -0.00646153)
(-0.0021184 -0.0095492 -0.00573718)
(-0.00204193 -0.00950922 -0.00645012)
(-0.00266107 -0.00976182 -0.00808207)
(-0.00262726 -0.00936001 -0.00683171)
(-0.00233229 -0.00933678 -0.00562262)
(-0.00303133 -0.0121807 -0.00810012)
(-0.00291367 -0.0114545 -0.00819274)
(-0.0027569 -0.0110974 -0.00728734)
(-0.00343785 -0.0115845 -0.00869757)
(-0.00307197 -0.0121705 -0.00830643)
(-0.00270826 -0.0114955 -0.00708412)
(-0.00990937 -0.0133741 -0.00758835)
(-0.0100839 -0.0149496 -0.00761056)
(-0.00982074 -0.0140838 -0.00747701)
(-0.0095508 -0.0151391 -0.00773686)
(-0.0107241 -0.0135721 -0.00766976)
(-0.0106059 -0.0133362 -0.00685018)
(-0.00626338 -0.0118083 -0.0110728)
(-0.00618911 -0.0124119 -0.0116897)
(-0.0051718 -0.0109051 -0.0106116)
(-0.00588578 -0.0104763 -0.010777)
(-0.0051925 -0.0110127 -0.0105749)
(-0.00640573 -0.0113452 -0.0109806)
(-0.00606009 -0.00769889 -0.0106156)
(-0.00718303 -0.00908982 -0.0112386)
(-0.00663656 -0.00927168 -0.0104666)
(-0.0053118 -0.0081807 -0.00975285)
(-0.00580234 -0.00886428 -0.0100953)
(-0.00640369 -0.0078966 -0.0104654)
(-0.00483651 -0.00746915 -0.0100476)
(-0.00398549 -0.00556953 -0.00874269)
(-0.00576559 -0.0061396 -0.00985991)
(-0.00516477 -0.00634455 -0.00932154)
(-0.00459628 -0.00609275 -0.0091453)
(-0.00534811 -0.00996153 -0.0110979)
(-0.00547616 -0.0110536 -0.0123705)
(-0.00581217 -0.00948899 -0.0116058)
(-0.005738 -0.0112113 -0.0126973)
(-0.00508095 -0.0104628 -0.0117422)
(-0.00529699 -0.0105704 -0.0126492)
(-0.00393219 -0.012445 -0.0105703)
(-0.00464645 -0.012836 -0.0129297)
(-0.00337936 -0.0126997 -0.0121461)
(-0.00500806 -0.012522 -0.0127981)
(-0.00449169 -0.014326 -0.0138009)
(-0.00297087 -0.00873726 -0.00772199)
(-0.00341532 -0.00880685 -0.00846089)
(-0.00340129 -0.0099305 -0.0087392)
(-0.0034776 -0.00961153 -0.00888518)
(-0.00347255 -0.00987869 -0.00910107)
(-0.00271783 -0.00739184 -0.00615412)
(-0.00262907 -0.00922897 -0.00702208)
(-0.00315723 -0.00912921 -0.00758584)
(-0.00291911 -0.00750168 -0.00659645)
(-0.00261849 -0.00790007 -0.00604322)
(-0.00300749 -0.00800484 -0.00709863)
(-0.00326339 -0.00669978 -0.00617787)
(-0.00356953 -0.00576355 -0.00565689)
(-0.00337404 -0.00624671 -0.00602476)
(-0.00363336 -0.00600296 -0.0057343)
(-0.00330832 -0.0061341 -0.00577413)
(-0.00302543 -0.00658579 -0.00588929)
(-0.00505782 -0.00695599 -0.00648282)
(-0.00533898 -0.00716327 -0.00733865)
(-0.00470927 -0.00695545 -0.00698986)
(-0.00553436 -0.00701225 -0.0065103)
(-0.0052896 -0.00666993 -0.00611276)
(-0.00543743 -0.00729102 -0.00715962)
(-0.0051415 -0.00588817 -0.00564379)
(-0.00468714 -0.00561832 -0.00531879)
(-0.00511751 -0.00589934 -0.00504049)
(-0.00498768 -0.0055704 -0.00485987)
(-0.00529885 -0.00644181 -0.00576245)
(-0.00508653 -0.0053162 -0.0044811)
(-0.00409371 -0.00560095 -0.00533707)
(-0.00433781 -0.00515181 -0.00470043)
(-0.00467995 -0.00535823 -0.00493415)
(-0.00405061 -0.00511187 -0.00471673)
(-0.00384989 -0.00538699 -0.00522293)
(-0.00438151 -0.00534995 -0.00516532)
(-0.00442915 -0.00572658 -0.00535562)
(-0.00391679 -0.0057835 -0.0057732)
(-0.00863701 -0.0100817 -0.00922018)
(-0.00908499 -0.011055 -0.00995951)
(-0.00883886 -0.010525 -0.0102078)
(-0.00842278 -0.00953722 -0.00840899)
(-0.00882283 -0.0101932 -0.0087717)
(-0.00863306 -0.00985403 -0.00977683)
(-0.00619945 -0.00825565 -0.00518972)
(-0.00583562 -0.00784493 -0.00472452)
(-0.00646977 -0.00832333 -0.00562969)
(-0.00650973 -0.00810776 -0.00564694)
(-0.00577711 -0.00806708 -0.00473051)
(-0.00624221 -0.00774352 -0.00509392)
(-0.00713011 -0.00941925 -0.00643108)
(-0.00772843 -0.00920753 -0.00701904)
(-0.00654456 -0.00931444 -0.00594773)
(-0.0072079 -0.00893073 -0.00631945)
(-0.00765054 -0.00975068 -0.00717609)
(-0.00650283 -0.00884047 -0.00581495)
(-0.00671093 -0.00809546 -0.00625866)
(-0.00636004 -0.00776285 -0.00590977)
(-0.00662626 -0.00803833 -0.00676505)
(-0.00681076 -0.00796662 -0.00589774)
(-0.00659939 -0.00813234 -0.00706606)
(-0.00312368 -0.00699179 -0.00237722)
(-0.00319917 -0.00742084 -0.00283427)
(-0.00298725 -0.00776962 -0.00303305)
(-0.00289291 -0.0073296 -0.00269817)
(-0.0033799 -0.00735241 -0.00266649)
(-0.00432517 -0.00700265 -0.00317016)
(-0.00402431 -0.00743684 -0.00330444)
(-0.00349612 -0.00729458 -0.00348575)
(-0.00452001 -0.00735611 -0.00363634)
(-0.00453529 -0.00711263 -0.00354918)
(-0.00384978 -0.00695325 -0.00336807)
(-0.00498273 -0.00687594 -0.00293486)
(-0.00506573 -0.00674021 -0.00284214)
(-0.00513712 -0.00710241 -0.00351834)
(-0.00534964 -0.00628144 -0.00272351)
(-0.00501571 -0.00733291 -0.0029777)
(-0.00544327 -0.00697305 -0.0035575)
(-0.00458315 -0.00710411 -0.00300044)
(-0.00394754 -0.00672268 -0.00254898)
(-0.0043283 -0.00680877 -0.00245546)
(-0.00429711 -0.00723027 -0.00309338)
(-0.00389778 -0.00720707 -0.00280555)
(-0.0037567 -0.0073824 -0.00287959)
(-0.00285815 -0.0120306 -0.00157091)
(-0.00250758 -0.0129571 -0.00306906)
(-0.00206944 -0.0138957 -0.00307834)
(-0.00270343 -0.0158088 -0.00276405)
(-0.00263759 -0.013013 -0.00089093)
(-0.00264131 -0.0115846 -0.0020705)
(-0.00333119 -0.00908617 -0.00150293)
(-0.0037491 -0.00836744 -0.00125725)
(-0.00330437 -0.00773386 -0.00155033)
(-0.00305409 -0.00875685 -0.00181102)
(-0.0031129 -0.00777709 -0.0012968)
(-0.00369587 -0.00863945 -0.00103701)
(-0.00211881 -0.00769609 -0.00269342)
(-0.00234583 -0.00725944 -0.00275799)
(-0.00221459 -0.00689578 -0.00320367)
(-0.00204304 -0.00771883 -0.004025)
(-0.00230387 -0.00799733 -0.00287676)
(-0.00186487 -0.00770174 -0.00437707)
(-0.00169531 -0.00749584 -0.00419122)
(-0.00184605 -0.00693936 -0.00495589)
(-0.00159381 -0.00733665 -0.00459799)
(-0.00142076 -0.00610041 -0.00437561)
(-0.00210287 -0.00797543 -0.0055649)
(-0.00409888 -0.0125311 0.000682785)
(-0.00452573 -0.0111063 0.000785856)
(-0.00479859 -0.0118157 0.00161912)
(-0.00351035 -0.0118517 0.000581673)
(-0.00391301 -0.0118492 -0.000116877)
(-0.00486068 -0.0113558 0.00134787)
(-0.000127759 -0.0065399 -0.000737413)
(4.35401e-05 -0.00711134 -5.60085e-05)
(-0.000330142 -0.00709514 -0.000739775)
(-0.000510593 -0.00652192 -0.000991728)
(6.60722e-05 -0.00839778 0.00020424)
(5.39067e-05 -0.00827155 0.000224063)
(-0.00155627 -0.00453142 -0.00233972)
(-0.00155177 -0.00463203 -0.00201866)
(-0.000810065 -0.00525058 -0.00165403)
(-0.00215934 -0.00410861 -0.00242833)
(-0.00208213 -0.004051 -0.00225518)
(-0.00107215 -0.0049549 -0.00175756)
(-0.00115956 -0.00691682 -0.0028027)
(-0.000926601 -0.00753472 -0.00262484)
(-0.00145703 -0.00616796 -0.00332856)
(-0.0016582 -0.00641271 -0.00357173)
(-0.00131072 -0.00731399 -0.00347614)
(-0.00874333 -0.015822 -0.0098264)
(-0.00873394 -0.0148645 -0.00977662)
(-0.00892827 -0.0161906 -0.0111707)
(-0.00880717 -0.0167373 -0.0102307)
(-0.00854444 -0.0164301 -0.0107233)
(-0.00840058 -0.0160113 -0.0106067)
(-0.00855657 -0.0126478 -0.0101826)
(-0.00812593 -0.0118888 -0.0107747)
(-0.00829656 -0.0122353 -0.0101488)
(-0.00883722 -0.0126342 -0.010182)
(-0.00828809 -0.0128656 -0.0107316)
(-0.00804055 -0.0120961 -0.0106299)
(-0.00908973 -0.0143222 -0.00973615)
(-0.00886004 -0.013142 -0.00962152)
(-0.00874465 -0.0141139 -0.00986378)
(-0.00916638 -0.0139904 -0.0102958)
(-0.00900341 -0.0134747 -0.0100541)
(-0.00862573 -0.0143565 -0.00958382)
(-0.00871741 -0.0163313 -0.0101854)
(-0.00845855 -0.0159638 -0.0100575)
(-0.0082386 -0.0160847 -0.00995263)
(-0.00885784 -0.0156727 -0.0106204)
(-0.00830095 -0.0148065 -0.00945203)
(-0.00893348 -0.0160329 -0.0104703)
(-0.00772393 -0.0169266 -0.00843796)
(-0.00731058 -0.0168233 -0.00825405)
(-0.00627488 -0.0158755 -0.00808616)
(-0.00640062 -0.0175376 -0.00872744)
(-0.00647126 -0.0167744 -0.00707721)
(-0.00636139 -0.0167551 -0.00792206)
(-0.00547714 -0.0155165 -0.00887912)
(-0.00717828 -0.0178778 -0.00954223)
(-0.00560586 -0.0158599 -0.0086112)
(-0.00567506 -0.0154149 -0.00877048)
(-0.00538317 -0.0160226 -0.00934847)
(-0.00615471 -0.0160365 -0.00816234)
(-0.00656709 -0.016919 -0.00924232)
(-0.00793955 -0.0171897 -0.00954813)
(-0.0075302 -0.0165337 -0.00903427)
(-0.00643974 -0.0165314 -0.00974631)
(-0.00319641 -0.0126613 -0.00920278)
(-0.00382324 -0.0140252 -0.00846488)
(-0.0036164 -0.0144323 -0.0101164)
(-0.00395865 -0.014364 -0.00885472)
(-0.0032321 -0.0123613 -0.00722361)
(-0.00335664 -0.0126534 -0.0110123)
(-0.00376909 -0.0126155 -0.011488)
(-0.00394896 -0.0137541 -0.01194)
(-0.00332255 -0.0117125 -0.0113948)
(-0.00417924 -0.0146218 -0.0122664)
(-0.00394542 -0.0132271 -0.0117154)
(-0.00477995 -0.0172915 -0.0123415)
(-0.00610078 -0.0196822 -0.0111029)
(-0.00557524 -0.0193409 -0.0124063)
(-0.00514957 -0.0192811 -0.011319)
(-0.00554095 -0.0177781 -0.00990426)
(-0.0043998 -0.0172365 -0.0115886)
(-0.00599467 -0.0172226 -0.00934165)
(-0.00655669 -0.0167902 -0.00922118)
(-0.00712633 -0.0158098 -0.00808477)
(-0.00605974 -0.0163231 -0.00882813)
(-0.00580142 -0.0164543 -0.00901009)
(-0.006773 -0.0166435 -0.00951586)
(-0.00884198 -0.0152926 -0.00836854)
(-0.00832796 -0.0153693 -0.00841754)
(-0.00770653 -0.0149024 -0.00780946)
(-0.00756215 -0.0163009 -0.0086995)
(-0.00856527 -0.0155774 -0.00791663)
(-0.0077947 -0.0163414 -0.00821984)
(-0.00676542 -0.0170186 -0.01012)
(-0.00601069 -0.0154208 -0.00848592)
(-0.00629713 -0.0149563 -0.00865358)
(-0.00596221 -0.01582 -0.0087343)
(-0.00601614 -0.0156426 -0.0089234)
(-0.0120637 -0.0132467 -0.003319)
(-0.0130868 -0.0130801 -0.00235575)
(-0.00764056 -0.0169079 -0.00878041)
(-0.0084983 -0.0153676 -0.00706845)
(-0.00835878 -0.0166824 -0.00831525)
(-0.00679675 -0.0176968 -0.00842602)
(-0.00987069 -0.01652 -0.00794865)
(-0.0102689 -0.0168846 -0.00800209)
(-0.0107138 -0.0166212 -0.00842322)
(-0.00957912 -0.0162968 -0.00853276)
(-0.00994378 -0.0162529 -0.0072441)
(-0.00960278 -0.0162921 -0.00898649)
(-0.0125962 -0.0152787 -0.00297669)
(-0.0128793 -0.0153452 -0.00533388)
(-0.0119079 -0.0155006 -0.0064684)
(-0.0127881 -0.0148392 -0.00425337)
(-0.0120365 -0.0158655 -0.00641401)
(-0.0118231 -0.0152002 -0.00523251)
(-0.00668712 -0.0170476 -0.0108623)
(-0.00633135 -0.0157916 -0.0109619)
(-0.0072108 -0.016858 -0.0111055)
(-0.00740913 -0.0173088 -0.0119135)
(-0.00584012 -0.0172067 -0.010837)
(-0.00601127 -0.017516 -0.0117906)
(-0.00825074 -0.0150545 -0.0118035)
(-0.0091546 -0.0163623 -0.012342)
(-0.00810707 -0.0148712 -0.0115129)
(-0.00806681 -0.0150908 -0.0120286)
(-0.00875619 -0.0152593 -0.0113398)
(-0.00838663 -0.0148474 -0.0108679)
(-0.00920911 -0.0161115 -0.0102134)
(-0.00937127 -0.0166793 -0.0112214)
(-0.00943844 -0.0168883 -0.0107014)
(-0.00950788 -0.0171037 -0.0101672)
(-0.00958259 -0.0161226 -0.00964467)
(-0.00939755 -0.0170731 -0.0114169)
(-0.000843064 -0.00532835 -0.00196725)
(-0.000500749 -0.00593251 -0.00174771)
(-0.00135387 -0.00541113 -0.00303991)
(-0.000882315 -0.00599126 -0.00236446)
(-0.00117371 -0.00412592 -0.00209584)
(-0.00169065 -0.00406129 -0.0026419)
(-0.00358739 -0.0138146 -0.00241502)
(-0.00396322 -0.0140335 -0.00355621)
(-0.00435956 -0.0148984 -0.00331085)
(-0.00335872 -0.0133209 -0.00387574)
(-0.00303996 -0.0129589 -0.0043726)
(-0.00327125 -0.0134483 -0.00116288)
(-0.00270212 -0.0130137 -0.00158137)
(-0.00290828 -0.0104375 -0.00748164)
(-0.00276862 -0.0109827 -0.00777363)
(-0.00322576 -0.0117329 -0.00737023)
(-0.00280361 -0.00992524 -0.00716803)
(-0.00286519 -0.0109634 -0.00783681)
(-0.00299675 -0.0114345 -0.00787259)
(-0.00884094 -0.0160902 -0.00507647)
(-0.00983286 -0.0157693 -0.00459525)
(-0.00979597 -0.0167075 -0.00610079)
(-0.0106312 -0.0169634 -0.0070574)
(-0.00905331 -0.0158111 -0.00444151)
(-0.0107734 -0.0160738 -0.00502318)
(-0.00634273 -0.0157361 -0.00709412)
(-0.00589022 -0.0151185 -0.00567017)
(-0.00562514 -0.0150779 -0.00645145)
(-0.00653873 -0.0160391 -0.00641279)
(-0.00567244 -0.0156301 -0.0066131)
(-0.00534789 -0.0149641 -0.0057158)
(-0.00743386 -0.0133069 0.00125814)
(-0.00615425 -0.0138414 0.00147892)
(-0.00761422 -0.0139762 0.00234551)
(-0.00654327 -0.0136622 0.000933673)
(-0.0056587 -0.01341 0.00258927)
(-0.00640733 -0.0129301 0.00330155)
(-0.00437721 -0.0128761 0.00369743)
(-0.00348738 -0.0125044 0.00354214)
(-0.00382431 -0.0129573 0.00563009)
(-0.0023318 -0.0125562 0.00334101)
(-0.00503829 -0.0137436 0.00494343)
(-0.0051893 -0.012872 0.00448597)
(-0.000320006 -0.00751283 -0.000915295)
(-0.000434519 -0.0094583 0.0008487)
(-0.000594027 -0.00917503 -2.6256e-05)
(-0.000310658 -0.00732708 -0.0012172)
(-0.000644754 -0.00893756 -0.00054171)
(-0.000498172 -0.00863138 -0.00129778)
(-9.52793e-06 -0.0104003 0.00220966)
(-0.000641145 -0.0111117 0.00423391)
(-4.09262e-05 -0.0109176 0.00395249)
(0.000338549 -0.0102069 0.00284572)
(-0.000698315 -0.0111693 0.00236054)
(-0.0051096 -0.00221477 -0.00162146)
(-0.0051482 -0.00208858 -0.00183091)
(-0.00584215 -0.00249676 -0.00143918)
(-0.00469481 -0.00235899 -0.00211564)
(-0.0043128 -0.00232789 -0.00198955)
(-0.00538311 -0.00224708 -0.00140258)
(-0.00615638 -0.0024301 -0.00125644)
(-0.00782484 -0.00652566 0.00203618)
(-0.0078469 -0.00664829 0.00236808)
(-0.00715137 -0.00637507 0.00195794)
(-0.00680557 -0.00763258 0.00160154)
(-0.00713036 -0.00260367 -0.000206935)
(-0.00809373 -0.0031387 0.000674959)
(-0.00773279 -0.002632 0.000346584)
(-0.00859056 -0.00335267 0.00143353)
(-0.00849641 -0.00315392 0.00110027)
(-0.0074388 -0.00281628 -3.32709e-05)
(-0.00980909 -0.0056563 0.0045119)
(-0.00986993 -0.00718706 0.00503388)
(-0.00546266 -0.010574 0.00243978)
(-0.00604773 -0.0106393 0.00337159)
(-0.00626273 -0.00916795 0.00329385)
(-0.00716769 -0.00684253 0.00289757)
(-0.00904241 -0.011144 -0.00847346)
(-0.00824736 -0.0105396 -0.00737968)
(-0.00939799 -0.0106384 -0.00873664)
(-0.00288753 -0.00574438 -0.00763841)
(-0.00273727 -0.00582766 -0.00742069)
(-0.00170419 -0.00565609 -0.00581733)
(-0.00224799 -0.00570432 -0.00671668)
(-0.00230887 -0.0068218 -0.00757029)
(-0.00163262 -0.00651213 -0.00464603)
(-0.00140185 -0.00585055 -0.00486122)
(-0.0015506 -0.00623969 -0.00468863)
(-0.00142974 -0.00616598 -0.00526839)
(-0.00623442 -0.0111326 -0.0123875)
(-0.00696953 -0.0101939 -0.0118008)
(-0.00703469 -0.00992581 -0.0122064)
(-0.00663064 -0.0103688 -0.0125587)
(-0.0075702 -0.0110122 -0.0121802)
(-0.00688548 -0.01082 -0.0124382)
(-0.00612249 -0.0081155 -0.00897936)
(-0.00530279 -0.00822029 -0.00882693)
(-0.00526506 -0.00758668 -0.00791076)
(-0.00583314 -0.00844772 -0.00921529)
(-0.00539308 -0.007463 -0.00769753)
(-0.00612931 -0.00783556 -0.00840429)
(-0.00585264 -0.00969046 -0.0106986)
(-0.00711725 -0.00904525 -0.00965384)
(-0.00627 -0.00916601 -0.00939087)
(-0.00563988 -0.00881748 -0.00978952)
(-0.00614323 -0.00983049 -0.0105694)
(-0.00607473 -0.00870322 -0.00940392)
(-0.00716029 -0.00814103 -0.00889398)
(-0.00700941 -0.0094149 -0.0102744)
(-0.00642005 -0.00848179 -0.00976723)
(-0.00369381 -0.00820585 -0.00450725)
(-0.00307781 -0.00790033 -0.00416347)
(-0.00337852 -0.00740228 -0.00394528)
(-0.00274645 -0.00743182 -0.00445716)
(-0.00332057 -0.00833084 -0.00460892)
(-0.00296676 -0.00806209 -0.00449393)
(-0.00158735 -0.0069163 -0.00522138)
(-0.00157051 -0.00691053 -0.00530021)
(-0.00749624 -0.0151425 -0.00289257)
(-0.00826171 -0.0161975 -0.00500567)
(-0.00682406 -0.0155679 -0.00372018)
(-0.00748298 -0.0161415 -0.00527531)
(-0.00671945 -0.0153904 -0.00477019)
(-0.00812881 -0.0161128 -0.00406944)
(-0.0053095 -0.0145598 -0.00395677)
(-0.00517636 -0.0151668 -0.00513227)
(-0.00456901 -0.014417 -0.00507492)
(-0.00499619 -0.0145881 -0.00379462)
(-0.00554895 -0.0151824 -0.00475049)
(-0.00456328 -0.0144295 -0.00468788)
(-0.010291 -0.0151157 -0.00678599)
(-0.0101004 -0.016175 -0.00792229)
(-0.0100938 -0.0149266 -0.00733941)
(-0.010848 -0.0158532 -0.00730008)
(-0.0110234 -0.0149176 -0.00581321)
(-0.0109146 -0.0136398 -0.00552167)
(-0.00478155 -0.0157833 -0.0101596)
(-0.00502855 -0.0154475 -0.00906978)
(-0.00433262 -0.0151487 -0.00964402)
(-0.00430082 -0.0156125 -0.0101495)
(-0.00519466 -0.0158204 -0.00930823)
(-0.0038796 -0.0140716 -0.0113375)
(-0.00445974 -0.0152319 -0.00984444)
(-0.00376733 -0.0161226 -0.0117751)
(-0.00370842 -0.0143094 -0.00975253)
(-0.00323781 -0.0132462 -0.0104866)
(-0.00437249 -0.014793 -0.00876344)
(-0.00449003 -0.0149813 -0.00857164)
(-0.00482936 -0.0162415 -0.0102804)
(-0.00404799 -0.0149557 -0.00933728)
(-0.00425885 -0.0150937 -0.00983987)
(-0.00491214 -0.0158055 -0.00915365)
(-0.00636705 -0.00536905 -0.00169241)
(-0.00638488 -0.00601199 -0.00159027)
(-0.00630416 -0.00590016 -0.000973847)
(-0.00159905 -0.00650176 -0.00520036)
(-0.00154007 -0.00645986 -0.00515757)
(-0.00178311 -0.00566506 -0.00588051)
(-0.00153534 -0.0060692 -0.00550454)
(-0.00159796 -0.00573253 -0.00533365)
(-0.0015306 -0.00575298 -0.00560675)
(-0.00159224 -0.00603617 -0.00529855)
(-0.00158834 -0.00644008 -0.00519007)
(-0.00235244 -0.00539331 -0.0069197)
(-0.00225542 -0.00572206 -0.00678139)
(-0.00201583 -0.00532935 -0.00655083)
(-0.00215326 -0.00511042 -0.00647367)
(-0.00275981 -0.00568938 -0.00719229)
(-0.0027731 -0.00572742 -0.00750784)
(-0.00148805 -0.00622181 -0.00410359)
(-0.00146973 -0.00552618 -0.00500249)
(-0.00140829 -0.00628297 -0.00531424)
(-0.0016489 -0.00646002 -0.00489)
(-0.00145593 -0.00588777 -0.00506995)
(-0.00153692 -0.00629937 -0.00506887)
(-0.00249139 -0.00613882 -0.00747658)
(-0.00138871 -0.00546282 -0.00515371)
(-0.00160534 -0.00573788 -0.00584182)
(-0.00264455 -0.00556326 -0.00747042)
(-0.00231215 -0.00576359 -0.0067982)
(-0.00245767 -0.00717931 -0.00410284)
(-0.00222398 -0.00709005 -0.00436733)
(-0.00279599 -0.0072566 -0.00387382)
(-0.00333728 -0.00744245 -0.00387719)
(-0.00276594 -0.00741244 -0.00388102)
(-0.00241871 -0.00704832 -0.00412786)
(-0.00269825 -0.00759617 -0.00415088)
(-0.00185898 -0.0067542 -0.00454938)
(-0.0016826 -0.00651862 -0.00475315)
(-0.0053947 -0.00883153 -0.00505829)
(-0.00553818 -0.0084551 -0.00486477)
(-0.00501435 -0.00804408 -0.00445763)
(-0.00441862 -0.00808998 -0.00436845)
(-0.0047905 -0.00844433 -0.00460205)
(-0.0041863 -0.00844118 -0.00464626)
(-0.00264305 -0.00813083 -0.00484923)
(-0.00410629 -0.00906052 -0.00506775)
(-0.00336467 -0.00880081 -0.00490945)
(-0.00377728 -0.00831284 -0.00457745)
(-0.00369828 -0.00804993 -0.00443068)
(-0.00298235 -0.00779879 -0.00435323)
(-0.00330484 -0.00829887 -0.00468688)
(-0.00523612 -0.0118421 0.00237498)
(-0.00327491 -0.0160778 0.00202904)
(-0.00499254 -0.0124296 0.00293867)
(-0.00405801 -0.0146671 0.0021797)
(-0.00458245 -0.0139523 0.00432386)
(-0.00638972 -0.00308919 -0.00120128)
(-0.00687014 -0.00338266 -0.00110724)
(-0.00709619 -0.00245667 -0.000466148)
(-0.00695331 -0.00254673 -0.000273169)
(-0.00909965 -0.00886187 0.00527098)
(-0.00955935 -0.0043365 0.00311737)
(-0.00915008 -0.00360996 0.00168544)
(-0.00989821 -0.00446505 0.00264791)
(-0.00662192 -0.00555705 -0.000732796)
(-0.00659341 -0.00599294 -0.00048577)
(-0.00719843 -0.00593236 -0.00031908)
(-0.00719319 -0.00375443 -0.000605112)
(-0.00674531 -0.00378929 -0.000581903)
(-0.00729964 -0.00310759 0.000174733)
(-0.00702484 -0.00505748 -0.000561875)
(-0.0077395 -0.0081436 0.00460136)