/*--------------------------------*- C++ -*----------------------------------*\
| =========                 |                                                 |
| \\      /  F ield         | OpenFOAM: The Open Source CFD Toolbox           |
|  \\    /   O peration     | Version:  v1612+                                |
|   \\  /    A nd           | Web:      www.OpenFOAM.com                      |
|    \\/     M anipulation  |                                                 |
\*---------------------------------------------------------------------------*/
FoamFile
{
    version     2.0;
    format      ascii;
    class       volScalarField;
    location    "100";
    object      p;
}
// * * * * * * * * * * * * * * * * * * * * * * * * * * * * * * * * * * * * * //

dimensions      [0 2 -2 0 0 0 0];

internalField   nonuniform List<scalar> 
18768
(
2.92476
2.94138
2.85845
2.8232
2.93611
2.92475
2.92263
2.93038
2.92645
2.92819
2.92701
2.92949
2.91735
2.91185
2.91839
2.91792
2.92362
2.91714
2.921
2.81476
2.82069
2.81946
2.81347
2.80624
2.81076
2.81833
2.81414
2.81786
2.80078
2.81636
2.8075
2.80835
2.80969
2.80948
2.92051
2.91752
2.91713
2.91219
2.91702
2.91694
2.92099
2.91779
2.91785
2.91957
2.91783
2.9189
2.92151
2.91736
2.91675
2.93148
2.92936
2.8822
2.87973
2.88263
2.88003
2.87843
2.87988
2.88007
2.87968
2.88265
2.87948
2.8821
2.87463
2.88172
2.945
2.94827
2.93953
2.942
2.94469
2.94181
2.94522
2.94842
2.95083
2.95758
2.94942
2.95512
2.9529
2.94458
2.85023
2.85078
2.85413
2.85092
2.8633
2.87142
2.8593
2.86517
2.86984
2.86321
2.86833
2.86243
2.8637
2.83217
2.83123
2.82674
2.83016
2.83475
2.83361
2.82789
2.83041
2.82905
2.82345
2.83153
2.82643
2.82664
2.82414
2.82636
2.82674
2.89165
2.89384
2.89422
2.89541
2.89503
2.89608
2.89313
2.89797
2.89861
2.89741
2.89415
2.89345
2.89194
2.89288
2.89816
2.89647
2.9004
2.89899
2.89978
2.89583
2.89615
2.89651
2.89002
2.8938
2.8942
2.8907
2.89012
2.89342
2.89234
2.89213
2.88752
2.8875
2.88945
2.89766
2.89625
2.8955
2.88107
2.8827
2.88771
2.88639
2.88146
2.88412
2.88329
2.88162
2.88448
2.88763
2.88532
2.88692
2.87777
2.88863
2.88554
2.87897
2.88223
2.88134
2.88339
2.90114
2.90106
2.90477
2.8999
2.89677
2.89908
2.89705
2.89311
2.89573
2.90227
2.89707
2.86581
2.87177
2.85174
2.86978
2.86836
2.87193
2.8754
2.8525
2.86467
2.85773
2.86342
2.86106
2.87082
2.87133
2.86138
2.86694
2.85788
2.90471
2.90727
2.89148
2.9003
2.89179
2.89672
2.89914
2.89293
2.89968
2.89668
2.89435
2.89262
2.90037
2.8913
2.89279
2.89746
2.89276
2.9017
2.89611
2.86994
2.87294
2.86598
2.87012
2.87673
2.87959
2.87959
2.87622
2.88048
2.87669
2.87953
2.87953
2.87235
2.87924
2.87754
2.90558
2.89607
2.88881
2.90514
2.91143
2.88549
2.88399
2.89556
2.89517
2.896
2.89722
2.89417
2.9023
2.89256
2.89741
2.89235
2.89609
2.88414
2.88788
2.89344
2.89564
2.89012
2.8999
2.89429
2.88519
2.89625
2.88521
2.89084
2.8966
2.88886
2.88509
2.88171
2.89634
2.95681
2.95584
2.96034
2.94793
2.95144
2.94346
2.95463
2.95295
2.95911
2.96719
2.95052
2.94734
2.94855
2.94936
2.94729
2.94879
2.95307
2.9341
2.93515
2.92727
2.93616
2.91509
2.91814
2.9321
2.93653
2.9393
2.93246
2.9325
2.91814
2.92778
2.92704
2.92482
2.95041
2.93945
2.96
2.9591
2.94233
2.93513
2.95105
2.9457
2.95571
2.95823
2.94949
2.95503
2.96011
2.95309
2.95302
2.94403
2.9376
2.94181
2.93774
2.94524
2.91593
2.9168
2.90669
2.91504
2.91431
2.9145
2.91817
2.91481
2.91005
2.90796
2.92206
2.92222
2.90641
2.90804
2.91027
2.91208
2.90902
2.90486
2.91031
2.9108
2.9215
2.9196
2.9117
2.91068
2.88962
2.88815
2.88696
2.88376
2.88599
2.88765
2.8876
2.8878
2.88369
2.88479
2.88508
2.88688
2.88515
2.90519
2.90092
2.90747
2.89606
2.89711
2.90625
2.90175
2.89934
2.90427
2.89587
2.88749
2.88954
2.89377
2.89351
2.89264
2.88796
2.89107
2.89587
2.89393
2.86
2.86442
2.85943
2.85779
2.85738
2.85443
2.86068
2.85571
2.85993
2.84766
2.85388
2.84764
2.85791
2.87855
2.86943
2.87078
2.86125
2.86026
2.86377
2.86132
2.85248
2.84786
2.8321
2.83798
2.83896
2.83959
2.8359
2.84507
2.84288
2.84274
2.84023
2.84451
2.84038
2.88999
2.88814
2.89322
2.88998
2.89272
2.89772
2.89856
2.89651
2.89317
2.89332
2.8953
2.891
2.8982
2.89797
2.89257
2.8886
2.89175
2.90163
2.92561
2.91833
2.90833
2.91322
2.92062
2.91523
2.90949
2.91022
2.90152
2.907
2.921
2.92135
2.89376
2.90844
2.89268
2.89661
2.89151
2.8918
2.89319
2.89494
2.89712
2.89129
2.89084
2.89518
2.89928
2.89679
2.89202
2.89019
2.89669
2.89642
2.89293
2.89618
2.86068
2.87029
2.86202
2.86233
2.86461
2.86766
2.87178
2.867
2.86578
2.86839
2.86953
2.86006
2.86284
2.91106
2.91049
2.90728
2.91606
2.92045
2.91788
2.91533
2.91134
2.92152
2.91907
2.91585
2.91439
2.91381
2.91582
2.91388
2.84535
2.84448
2.84092
2.84147
2.83847
2.83691
2.83588
2.8324
2.8462
2.84536
2.83899
2.84587
2.84622
2.83631
2.84913
2.84508
2.84063
2.83789
2.84298
2.90976
2.9109
2.91096
2.90689
2.91048
2.91206
2.90372
2.90658
2.91938
2.91097
2.91012
2.91611
2.91481
2.9114
2.91934
2.91349
2.81604
2.8119
2.81055
2.80913
2.8145
2.80773
2.81571
2.81932
2.81413
2.81295
2.81337
2.80505
2.81052
2.81028
2.80879
2.79905
2.8061
2.80564
2.81649
2.80045
2.86965
2.87234
2.8772
2.86603
2.87106
2.87441
2.8758
2.87674
2.87219
2.86915
2.86526
2.85261
2.85463
2.86128
2.87675
2.85893
2.87054
2.86297
2.86197
2.8698
2.87295
2.86023
2.86242
2.87467
2.84657
2.84316
2.84406
2.84146
2.84544
2.84311
2.84068
2.84551
2.83736
2.83669
2.83796
2.84499
2.92782
2.92781
2.93061
2.93267
2.92914
2.92734
2.92252
2.92229
2.91836
2.91304
2.93063
2.93076
2.91003
2.94184
2.8472
2.85715
2.83838
2.83195
2.84083
2.83912
2.84104
2.84778
2.84766
2.85955
2.84776
2.85898
2.86345
2.84322
2.85822
2.84266
2.84559
2.8455
2.8548
2.84576
2.85406
2.849
2.86696
2.84346
2.84626
2.84354
2.85041
2.84149
2.84714
2.85277
2.83997
2.84919
2.84378
2.90829
2.90427
2.91891
2.91611
2.90472
2.91247
2.92088
2.92042
2.90691
2.90027
2.90143
2.9078
2.91756
2.88503
2.89312
2.89039
2.89587
2.89373
2.88643
2.8787
2.88949
2.89443
2.88172
2.87971
2.88438
2.88221
2.88936
2.88807
2.87851
2.88306
2.87721
2.84119
2.83885
2.83923
2.83752
2.83451
2.83649
2.84483
2.84747
2.86787
2.86058
2.86552
2.86484
2.86165
2.86622
2.86337
2.85594
2.86699
2.8617
2.85789
2.85449
2.86244
2.8986
2.90437
2.89739
2.90101
2.90191
2.90445
2.89628
2.90791
2.89993
2.90669
2.90778
2.89906
2.90205
2.89896
2.91553
2.90566
2.86803
2.86546
2.86694
2.87043
2.86687
2.86175
2.86808
2.86722
2.91442
2.91646
2.91566
2.91017
2.91835
2.90439
2.9177
2.91138
2.91418
2.9112
2.91257
2.92191
2.92186
2.90859
2.91954
2.89794
2.90906
2.92631
2.92914
2.92962
2.92442
2.92287
2.92907
2.89997
2.92235
2.91182
2.91258
2.90996
2.92137
2.92508
2.92849
2.93157
2.9241
2.92114
2.92002
2.92783
2.92815
2.93583
2.91824
2.92804
2.92656
2.91921
2.92767
2.92205
2.92531
2.92133
2.91473
2.90901
2.91504
2.91069
2.91439
2.91266
2.91424
2.91457
2.91462
2.90371
2.90864
2.90757
2.90723
2.89917
2.90206
2.90152
2.90349
2.89915
2.89878
2.90162
2.90489
2.89575
2.90381
2.90263
2.90946
2.90435
2.90857
2.89881
2.90586
2.90601
2.90512
2.90414
2.90639
2.90881
2.91851
2.91998
2.92277
2.91611
2.9168
2.91308
2.91721
2.91962
2.92205
2.92047
2.91912
2.91721
2.91907
2.92012
2.92679
2.91864
2.92148
2.91921
2.9187
2.90653
2.91963
2.92149
2.91518
2.92249
2.9176
2.92422
2.93276
2.93273
2.9093
2.91962
2.91747
2.92175
2.92381
2.91643
2.91978
2.87246
2.87266
2.88507
2.8857
2.88054
2.87679
2.87782
2.87876
2.88273
2.88903
2.87737
2.88345
2.8839
2.87785
2.90069
2.90223
2.89796
2.89621
2.89852
2.89691
2.8984
2.90108
2.89956
2.89607
2.9011
2.90024
2.89565
2.90081
2.90143
2.89955
2.89974
2.90088
2.9032
2.90433
2.89865
2.90993
2.90547
2.90554
2.90717
2.89686
2.89956
2.89745
2.8897
2.88305
2.88153
2.89366
2.88696
2.87897
2.90369
2.89317
2.90279
2.85586
2.86332
2.86069
2.86938
2.85599
2.85858
2.86127
2.86574
2.8465
2.84881
2.84738
2.84821
2.84952
2.86176
2.8555
2.84414
2.85158
2.84595
2.88255
2.88828
2.88211
2.87661
2.8746
2.87037
2.89091
2.89864
2.89798
2.89651
2.88013
2.8826
2.88445
2.89442
2.87947
2.88693
2.88265
2.88724
2.88945
2.88694
2.8916
2.88993
2.88537
2.88726
2.88832
2.89118
2.88835
2.88214
2.8755
2.88513
2.8799
2.89083
2.89495
2.87951
2.87892
2.85696
2.85743
2.85957
2.86033
2.86781
2.87489
2.87224
2.87211
2.88007
2.87769
2.87761
2.87708
2.8786
2.88455
2.88252
2.88028
2.88101
2.8378
2.8432
2.8473
2.8423
2.86203
2.84801
2.83753
2.83484
2.8414
2.84547
2.85068
2.84927
2.83082
2.84245
2.84396
2.82974
2.83059
2.83513
2.8261
2.83059
2.83278
2.83353
2.84314
2.84658
2.84314
2.83297
2.83389
2.83989
2.83305
2.84928
2.84521
2.8467
2.84231
2.83767
2.84577
2.90235
2.90316
2.89593
2.90148
2.90286
2.89596
2.88733
2.89253
2.90129
2.89519
2.88752
2.90453
2.90422
2.90433
2.89332
2.90546
2.90082
2.92847
2.92553
2.93063
2.92908
2.92452
2.92573
2.9299
2.92916
2.92664
2.92816
2.92833
2.91878
2.9221
2.92577
2.91588
2.92305
2.89756
2.8969
2.89618
2.89172
2.90062
2.90141
2.90378
2.9028
2.90072
2.9033
2.90314
2.90342
2.90346
2.8989
2.88792
2.88268
2.88333
2.89554
2.89404
2.894
2.87816
2.88475
2.89049
2.87772
2.88131
2.88907
2.88623
2.94186
2.9397
2.94137
2.93454
2.93777
2.94178
2.94467
2.95107
2.94845
2.94324
2.93704
2.94207
2.96663
2.96557
2.96334
2.97254
2.96043
2.96938
2.96235
2.97032
2.97247
2.96077
2.96218
2.9578
2.96991
2.97351
2.96961
2.90771
2.91151
2.91641
2.91607
2.9153
2.91913
2.91596
2.90771
2.90972
2.91351
2.90665
2.90886
2.90895
2.92091
2.92588
2.91509
2.92437
2.92243
2.92648
2.91355
2.92033
2.91277
2.91399
2.91278
2.91239
2.91431
2.91345
2.91966
2.90969
2.91232
2.91612
2.8394
2.84301
2.84181
2.84246
2.84083
2.84023
2.84168
2.84004
2.83613
2.8431
2.84129
2.84366
2.83804
2.83998
2.83902
2.83902
2.84023
2.8346
2.83665
2.84403
2.83215
2.82866
2.83261
2.84456
2.85202
2.85164
2.83866
2.82563
2.8368
2.83495
2.85701
2.8418
2.84125
2.84171
2.84408
2.84967
2.84712
2.82867
2.84439
2.86079
2.86388
2.86132
2.86298
2.86224
2.86152
2.86081
2.86223
2.8619
2.85579
2.85632
2.85387
2.85223
2.86071
2.85932
2.85912
2.85789
2.86238
2.86003
2.85945
2.86133
2.85608
2.90375
2.90836
2.89558
2.89116
2.89638
2.89927
2.89412
2.89354
2.89154
2.89756
2.8996
2.89222
2.89245
2.84362
2.8494
2.84658
2.85588
2.86563
2.84932
2.84863
2.84973
2.85321
2.86343
2.84745
2.85833
2.85576
2.87482
2.88339
2.87572
2.87877
2.87812
2.87946
2.88404
2.88595
2.88489
2.88037
2.8786
2.8828
2.88565
2.8777
2.87776
2.88153
2.87961
2.87977
2.88019
2.81525
2.81555
2.82273
2.82341
2.8177
2.81684
2.81322
2.81849
2.81589
2.8192
2.81664
2.81936
2.81605
2.82601
2.82097
2.81673
2.81716
2.8216
2.8204
2.82007
2.88962
2.88214
2.87922
2.80946
2.80482
2.85037
2.84454
2.88026
2.88037
2.81526
2.81376
2.8192
2.81902
2.89725
2.89348
2.89977
2.89331
2.83479
2.83812
2.84783
2.83391
2.83503
2.85829
2.85989
2.89397
2.89665
2.83116
2.8356
2.81728
2.8212
2.8949
2.89539
2.8501
2.85084
2.90671
2.90702
2.9128
2.86647
2.87865
2.87892
2.86418
2.84483
2.84697
2.83091
2.83705
2.85183
2.8534
2.85499
2.84182
2.91288
2.91496
2.869
2.86821
2.86973
2.85725
2.86234
2.87612
2.87921
2.86771
2.86344
2.86425
2.9205
2.91091
2.91928
2.91731
2.92863
2.92481
2.92015
2.88978
2.89553
2.89598
2.8593
2.85347
2.85816
2.85564
2.91623
2.91484
2.88044
2.87746
2.87643
2.84982
2.84415
2.85009
2.87068
2.87107
2.86655
2.88285
2.87602
2.87714
2.91323
2.91994
2.92456
2.90276
2.90081
2.87245
2.86238
2.86149
2.87571
2.86995
2.87707
2.88992
2.89021
2.89422
2.93742
2.93082
2.90955
2.9196
2.91924
2.93358
2.92707
2.92086
2.93168
2.89037
2.88987
2.88188
2.88349
2.88451
2.88596
2.8884
2.89294
2.89005
2.89218
2.88825
2.88583
2.88923
2.9102
2.90609
2.90669
2.90124
2.89741
2.89647
2.8938
2.9047
2.89696
2.90329
2.94694
2.94384
2.93745
2.90008
2.89544
2.8962
2.94451
2.93737
2.93762
2.902
2.89819
2.9033
2.90323
2.89946
2.90086
2.89481
2.89634
2.9571
2.95631
2.90344
2.90074
2.90434
2.90523
2.91312
2.91043
2.90597
2.9457
2.93675
2.93015
2.92384
2.9475
2.93988
2.93687
2.91404
2.90947
2.9146
2.90442
2.9117
2.9137
2.91127
2.91048
2.96655
2.97062
2.96434
2.90965
2.91596
2.91095
2.97032
2.96489
2.96443
2.95937
2.92457
2.92487
2.93869
2.95008
2.94651
2.93825
2.92251
2.9234
2.92947
2.92365
2.91421
2.92004
2.91654
2.97769
2.97523
2.92485
2.92727
2.92873
2.99259
2.99165
2.9211
2.92039
2.95303
2.94684
2.94905
2.95125
2.98513
2.97548
2.97596
2.98937
2.9439
2.94012
2.94931
2.92632
2.93667
2.93684
2.92488
2.93264
2.94669
2.94336
2.93806
2.93296
2.94332
2.93672
2.95378
2.96085
2.95554
2.93744
2.94019
2.93626
2.93242
2.94062
2.92917
2.93637
2.93568
2.93074
2.96332
2.96521
2.95403
2.98029
2.9788
2.99435
2.99962
2.99077
2.99067
2.9856
2.98056
2.96424
2.97768
2.99076
2.98346
2.98287
2.96973
2.96351
2.95451
2.97416
2.96666
2.96637
2.97422
2.97099
2.95794
2.96003
2.96354
2.94207
2.9412
2.94675
2.94155
2.94281
2.94848
2.95956
2.94955
2.94606
2.94204
2.93562
2.91275
2.91431
2.91745
2.91977
2.92323
2.91872
2.91839
2.91779
2.916
2.91871
2.91953
2.91678
2.913
2.91781
2.92115
2.92073
2.92074
2.91513
2.9176
2.9158
2.91659
2.98505
2.98353
2.9768
2.99542
2.98487
2.97558
2.99025
2.99175
2.98921
2.9866
2.98625
2.9776
2.97177
2.98186
2.92173
2.92648
2.92108
2.92248
2.92158
2.92316
2.93496
2.93454
2.9299
2.92973
2.91529
2.91418
2.92094
2.91666
2.92162
2.92166
2.92088
2.95643
2.95744
2.98197
2.97163
2.9775
2.973
2.97514
2.95843
2.95665
2.96665
2.96838
2.96917
2.90904
2.9125
2.91295
2.90637
2.90799
2.91279
2.91931
2.91794
2.9183
2.92542
2.92245
2.92071
2.92416
2.92377
2.92189
2.91924
2.92433
2.92874
2.92263
2.92637
2.92977
2.92444
2.91924
2.91897
2.91927
2.92842
2.92905
2.92613
2.92491
2.95185
2.95135
2.95021
2.93815
2.93558
2.93098
2.94222
2.95021
2.94245
2.94324
2.94134
2.92543
2.9188
2.9285
2.92422
2.93937
2.92634
2.9455
2.93591
2.93559
2.91461
2.92008
2.91861
2.91924
2.92054
2.91876
2.92228
2.92779
2.91523
2.91733
2.94521
2.95963
2.96057
2.95376
2.94025
2.93969
2.95255
2.948
2.97359
2.96129
2.97099
2.95935
2.95669
2.9782
2.96866
2.94651
2.95296
2.95857
2.95436
2.97536
2.95856
2.97353
2.98185
2.96901
2.96853
2.97535
2.96819
2.96763
2.96196
2.96094
2.9583
2.90551
2.91092
2.90855
2.90923
2.90943
2.90359
2.90515
2.91251
2.90935
2.91057
2.91545
2.91146
2.91211
2.90807
2.90788
2.90852
2.90621
2.90824
2.95661
2.94165
2.95602
2.95676
2.95771
2.97442
2.95956
2.9702
2.96945
2.97872
2.96575
2.97453
2.96705
2.97206
2.9636
2.96196
2.95899
2.95984
2.95688
2.95606
2.95128
2.96347
2.962
2.89736
2.90446
2.90275
2.90803
2.90917
2.90718
2.9049
2.90469
2.90373
2.90454
2.91365
2.90909
2.91137
2.90828
2.90849
2.91252
2.91222
2.91252
2.91667
2.90735
2.90332
2.90984
2.90609
2.90725
2.90834
2.91037
2.89864
2.90739
2.90944
2.90193
2.91151
2.9088
2.91433
2.91822
2.92038
2.92219
2.91119
2.92498
2.92402
2.90981
2.9093
2.92526
2.91191
2.93421
2.92568
2.91577
2.91698
2.91394
2.91936
2.90825
2.92189
2.92768
2.9295
2.91804
2.9126
2.93037
2.92819
2.92418
2.93229
2.92688
2.94179
2.93246
2.93295
2.94636
2.93828
2.93379
2.9229
2.93063
2.92929
2.91761
2.90587
2.92303
2.92087
2.93006
2.91605
2.9199
2.93243
2.92436
2.92083
2.93095
2.92064
2.93896
2.9396
2.93906
2.93586
2.92925
2.93897
2.90609
2.90777
2.89786
2.90804
2.90069
2.91182
2.90681
2.91106
2.90919
2.91104
2.91916
2.91718
2.90909
2.91286
2.9127
2.91056
2.91929
2.92062
2.92187
2.91453
2.91427
2.91132
2.91642
2.91604
2.89998
2.90196
2.89972
2.90483
2.90218
2.90436
2.90475
2.90641
2.9008
2.90381
2.90024
2.90407
2.90515
2.90551
2.94512
2.94428
2.94507
2.94547
2.95197
2.94765
2.95156
2.94293
2.93953
2.95466
2.94901
2.95099
2.95239
2.9484
2.9464
2.9541
2.94809
2.96341
2.9565
2.94542
2.95536
2.94758
2.9481
2.91359
2.91297
2.91499
2.91036
2.90504
2.90406
2.90601
2.90761
2.9084
2.89117
2.89485
2.89562
2.89564
2.89345
2.89289
2.89902
2.89353
2.89484
2.89602
2.90289
2.9039
2.8995
2.9081
2.90698
2.90662
2.90614
2.91801
2.92061
2.92176
2.93506
2.92615
2.92573
2.93678
2.93094
2.93243
2.92936
2.91297
2.91936
2.92236
2.91867
2.93201
2.93715
2.89263
2.89024
2.89719
2.89621
2.8947
2.89769
2.89918
2.89564
2.93371
2.94257
2.93117
2.93745
2.93189
2.92072
2.91742
2.92827
2.94294
2.94994
2.93142
2.92804
2.94166
2.94114
2.89296
2.90063
2.89904
2.90422
2.90088
2.89699
2.9003
2.89855
2.90007
2.89527
2.8972
2.89319
2.8901
2.91297
2.9086
2.8974
2.89855
2.91479
2.91049
2.90405
2.89781
2.90902
2.90325
2.89853
2.89973
2.90513
2.90143
2.90581
2.90901
2.88619
2.89424
2.89295
2.89381
2.88504
2.89543
2.89182
2.89558
2.88733
2.89928
2.89467
2.91112
2.91181
2.91791
2.91514
2.92153
2.90961
2.90846
2.91637
2.91198
2.89957
2.90502
2.88993
2.89846
2.89148
2.89757
2.88869
2.89293
2.89649
2.89347
2.88826
2.87569
2.87922
2.87813
2.88257
2.88555
2.88969
2.88891
2.88097
2.8815
2.88263
2.88878
2.88736
2.89303
2.89252
2.89673
2.89041
2.89321
2.88817
2.8892
2.88148
2.88638
2.88816
2.88374
2.87741
2.88278
2.88199
2.88702
2.88778
2.88701
2.88931
2.87707
2.87449
2.88046
2.87481
2.86828
2.89792
2.89154
2.89988
2.90769
2.91188
2.89857
2.89836
2.89475
2.91133
2.89563
2.89961
2.89097
2.89035
2.90018
2.90137
2.87922
2.87906
2.87888
2.87921
2.877
2.86817
2.88439
2.88327
2.92028
2.91253
2.92419
2.92072
2.92505
2.93148
2.92221
2.93427
2.91301
2.92654
2.93275
2.92023
2.88786
2.89925
2.89423
2.90678
2.90439
2.8876
2.88424
2.92839
2.92056
2.91569
2.92767
2.93406
2.9352
2.9281
2.93049
2.938
2.93156
2.90407
2.91648
2.9135
2.91512
2.91927
2.90775
2.90838
2.93222
2.93507
2.93821
2.93849
2.93408
2.91686
2.92984
2.93148
2.92033
2.93746
2.94701
2.9359
2.93089
2.93458
2.94195
2.94343
2.93462
2.93497
2.9327
2.93815
2.93649
2.89061
2.8953
2.89207
2.89154
2.89436
2.89087
2.8901
2.88911
2.89348
2.89509
2.89376
2.88792
2.88759
2.88556
2.88991
2.88988
2.8881
2.88273
2.88939
2.88078
2.88629
2.88293
2.88502
2.86633
2.86453
2.86812
2.86955
2.87026
2.86951
2.87267
2.87483
2.86826
2.86712
2.87125
2.85803
2.85699
2.85351
2.85585
2.87492
2.8756
2.87066
2.85921
2.86678
2.87142
2.86718
2.91324
2.9076
2.91163
2.90526
2.90343
2.91053
2.9095
2.90979
2.90028
2.90341
2.90082
2.89879
2.8998
2.89892
2.90508
2.9187
2.9134
2.91788
2.91093
2.92203
2.92466
2.93365
2.9291
2.92274
2.91765
2.91426
2.9189
2.91278
2.85294
2.86638
2.87276
2.87152
2.862
2.85344
2.84932
2.87364
2.87295
2.85959
2.88807
2.8849
2.87552
2.88274
2.87883
2.89355
2.88472
2.85374
2.85905
2.86274
2.86358
2.8565
2.86349
2.85392
2.85826
2.86348
2.86515
2.8634
2.86589
2.86642
2.87113
2.87009
2.86666
2.8653
2.86883
2.86968
2.84481
2.842
2.85052
2.84327
2.83996
2.84034
2.84375
2.84317
2.84541
2.84535
2.87347
2.87176
2.8666
2.87536
2.86744
2.86733
2.87159
2.87565
2.88488
2.88179
2.87644
2.87485
2.87431
2.87069
2.87242
2.86903
2.8672
2.87275
2.87582
2.92703
2.92505
2.91965
2.92337
2.92525
2.89788
2.90527
2.89672
2.91377
2.90517
2.8467
2.84763
2.85494
2.85692
2.85723
2.85113
2.8503
2.85889
2.85319
2.85292
2.85521
2.85671
2.85294
2.85151
2.85315
2.85334
2.84771
2.84727
2.84307
2.84521
2.84838
2.84221
2.86861
2.86055
2.85913
2.86376
2.86371
2.8685
2.86483
2.85711
2.85807
2.86812
2.86645
2.90759
2.89696
2.89876
2.8851
2.8944
2.89108
2.88665
2.89008
2.89095
2.88781
2.90665
2.90083
2.90728
2.89926
2.89515
2.90191
2.89594
2.90026
2.90323
2.89751
2.90262
2.89637
2.8961
2.89583
2.89442
2.88932
2.88842
2.88348
2.89113
2.89145
2.88388
2.88202
2.88395
2.9134
2.91879
2.91908
2.91324
2.92564
2.91548
2.8538
2.86005
2.85394
2.86448
2.86511
2.86693
2.86843
2.86954
2.86928
2.86773
2.86725
2.87366
2.86756
2.86524
2.86829
2.86918
2.86949
2.87934
2.87694
2.87478
2.8798
2.87309
2.87536
2.8703
2.87398
2.87732
2.87623
2.83537
2.8439
2.84077
2.85112
2.84459
2.84606
2.85259
2.84719
2.84826
2.85233
2.85587
2.87203
2.88537
2.87561
2.86287
2.85814
2.85941
2.86134
2.86402
2.86304
2.86226
2.91385
2.89651
2.912
2.91399
2.90942
2.9113
2.9082
2.90168
2.91042
2.89974
2.90637
2.92329
2.91573
2.91366
2.9139
2.9144
2.90995
2.91372
2.91051
2.89703
2.9013
2.8912
2.90373
2.90924
2.90392
2.90458
2.90274
2.89829
2.90587
2.90703
2.8386
2.8448
2.8383
2.8434
2.84548
2.85195
2.84435
2.84983
2.8476
2.84756
2.82633
2.83189
2.83663
2.8297
2.83475
2.83761
2.83539
2.8287
2.83302
2.83772
2.83137
2.84135
2.84302
2.83864
2.83864
2.85133
2.85548
2.85149
2.84314
2.8447
2.84841
2.84656
2.8464
2.83819
2.83833
2.83939
2.8423
2.84322
2.84354
2.84276
2.84498
2.8485
2.84098
2.84522
2.8466
2.84942
2.84839
2.84975
2.85179
2.86591
2.87812
2.88746
2.87428
2.88456
2.88515
2.87503
2.86877
2.85989
2.8577
2.86998
2.87532
2.86011
2.86393
2.86001
2.85803
2.88064
2.88025
2.87062
2.88456
2.8892
2.89405
2.88597
2.88845
2.88241
2.8934
2.88641
2.88809
2.87607
2.88412
2.88043
2.87071
2.87897
2.87502
2.87514
2.876
2.87491
2.87828
2.90233
2.9069
2.90384
2.89926
2.90513
2.90639
2.90462
2.911
2.90328
2.90501
2.8489
2.85485
2.85835
2.85189
2.84498
2.84662
2.83934
2.85027
2.84814
2.84894
2.85013
2.89989
2.90801
2.90429
2.90115
2.88085
2.89007
2.88419
2.88519
2.88283
2.81296
2.81148
2.81561
2.81829
2.82439
2.83041
2.81429
2.81639
2.81679
2.81403
2.81957
2.821
2.82636
2.82746
2.81609
2.83218
2.82035
2.81861
2.81936
2.82915
2.82536
2.82471
2.82894
2.82855
2.84349
2.83782
2.84013
2.84031
2.83572
2.84667
2.8486
2.84672
2.84994
2.8425
2.84316
2.8424
2.83857
2.84148
2.84319
2.8275
2.82449
2.83082
2.83106
2.8315
2.82805
2.83365
2.82965
2.82863
2.83901
2.83055
2.83239
2.88706
2.88829
2.89732
2.89731
2.88335
2.88545
2.89576
2.88974
2.88061
2.88241
2.89452
2.88992
2.8922
2.88415
2.88724
2.89053
2.84905
2.84703
2.85885
2.85846
2.86443
2.85724
2.87111
2.87202
2.86607
2.86132
2.85946
2.8555
2.8664
2.85083
2.84995
2.8565
2.8554
2.84826
2.85815
2.85347
2.8548
2.8536
2.85476
2.85825
2.8571
2.82155
2.82605
2.82425
2.82779
2.8307
2.82671
2.82896
2.8281
2.83157
2.83431
2.83959
2.83495
2.83491
2.8568
2.85355
2.84586
2.8527
2.82725
2.83917
2.84435
2.83447
2.82882
2.84316
2.84261
2.84294
2.85573
2.84046
2.83
2.82486
2.82267
2.83199
2.88687
2.88932
2.88234
2.89521
2.89121
2.88907
2.89288
2.89371
2.89859
2.89192
2.89182
2.89194
2.89356
2.88138
2.88668
2.87943
2.8889
2.88886
2.89719
2.89374
2.89784
2.88511
2.80215
2.81433
2.81075
2.81375
2.81228
2.80955
2.81258
2.81086
2.81696
2.81427
2.81046
2.81396
2.81413
2.81882
2.81976
2.81941
2.82178
2.81988
2.82539
2.82917
2.82623
2.82724
2.81645
2.82008
2.82213
2.81889
2.82634
2.82263
2.81981
2.86519
2.86894
2.85312
2.86768
2.85741
2.86798
2.8685
2.87013
2.87074
2.86654
2.87362
2.88076
2.88033
2.86695
2.87695
2.88375
2.87575
2.87053
2.8615
2.8705
2.86149
2.87299
2.87737
2.8674
2.85201
2.85299
2.83228
2.8324
2.8333
2.83071
2.83397
2.83566
2.84174
2.84665
2.85743
2.85932
2.80643
2.80159
2.80355
2.80756
2.81291
2.81777
2.8052
2.80628
2.80084
2.80222
2.80808
2.80709
2.81148
2.81811
2.80521
2.80636
2.8087
2.81179
2.81798
2.81358
2.80742
2.80797
2.80629
2.81239
2.88508
2.87407
2.87839
2.86933
2.87469
2.86943
2.87108
2.86819
2.80051
2.80192
2.80209
2.88271
2.88028
2.89022
2.88581
2.87662
2.88526
2.88981
2.88207
2.87792
2.87504
2.87177
2.878
2.86899
2.87161
2.8635
2.86472
2.87099
2.87346
2.86585
2.869
2.86686
2.87759
2.86789
2.86291
2.85885
2.85993
2.85499
2.86259
2.85326
2.85762
2.82
2.82276
2.84373
2.85195
2.85001
2.85036
2.84623
2.84888
2.85439
2.85509
2.85934
2.86101
2.85644
2.86699
2.85719
2.85601
2.85887
2.86632
2.86564
2.86597
2.87715
2.88339
2.87747
2.87124
2.87752
2.82599
2.8283
2.82154
2.8275
2.82662
2.82131
2.83081
2.83167
2.80605
2.81144
2.81019
2.80554
2.80853
2.88367
2.88776
2.88923
2.88607
2.88694
2.8862
2.88249
2.87197
2.871
2.8738
2.875
2.88063
2.88
2.87938
2.89283
2.88334
2.88434
2.88309
2.88427
2.88818
2.88457
2.87705
2.88416
2.87986
2.87697
2.87294
2.88346
2.86985
2.83683
2.8429
2.82736
2.83473
2.83027
2.8376
2.83229
2.83207
2.8308
2.83437
2.83278
2.83139
2.82959
2.83689
2.84024
2.83896
2.83846
2.82481
2.82247
2.82254
2.82645
2.82769
2.83486
2.83442
2.83001
2.82761
2.82583
2.82439
2.82747
2.82139
2.82414
2.824
2.86693
2.86569
2.85947
2.87098
2.86419
2.86806
2.86815
2.89598
2.89108
2.90105
2.88842
2.88563
2.89755
2.90412
2.9081
2.89428
2.89592
2.82327
2.82363
2.82419
2.83223
2.82687
2.82874
2.82605
2.8258
2.81682
2.82071
2.81633
2.8154
2.81893
2.82077
2.893
2.8904
2.88783
2.89964
2.88684
2.88662
2.89932
2.8988
2.90219
2.89683
2.84734
2.84565
2.84771
2.84993
2.84838
2.84127
2.84174
2.84305
2.85753
2.85234
2.85092
2.85394
2.85307
2.84943
2.84693
2.90458
2.90732
2.90696
2.90198
2.91356
2.91923
2.91727
2.91147
2.90566
2.89762
2.89955
2.90121
2.89398
2.90648
2.90166
2.89884
2.89852
2.85095
2.85294
2.85174
2.85124
2.8517
2.85892
2.85742
2.8373
2.83773
2.83804
2.83991
2.83739
2.82538
2.83884
2.83919
2.83212
2.82975
2.84138
2.8364
2.83813
2.82915
2.83395
2.83544
2.8373
2.92292
2.91361
2.91109
2.92102
2.91964
2.91486
2.91136
2.91189
2.91247
2.917
2.91441
2.89766
2.9046
2.90186
2.91496
2.90727
2.90519
2.90103
2.90009
2.90599
2.89998
2.85089
2.8519
2.85897
2.8544
2.85452
2.85921
2.85951
2.86226
2.86171
2.86077
2.86226
2.86337
2.86627
2.86398
2.86459
2.86419
2.86131
2.86342
2.86422
2.86214
2.86504
2.86482
2.86517
2.87273
2.87122
2.87145
2.86554
2.88601
2.87924
2.86992
2.87349
2.86838
2.87648
2.88442
2.87787
2.87903
2.86979
2.86996
2.86771
2.86807
2.86917
2.86646
2.86992
2.86954
2.8727
2.85651
2.86203
2.86032
2.86579
2.87334
2.8678
2.86765
2.86292
2.87429
2.87249
2.85916
2.85248
2.89064
2.88808
2.88648
2.88455
2.88231
2.89107
2.88837
2.89244
2.89019
2.89231
2.8883
2.89664
2.89501
2.89881
2.88703
2.89058
2.89617
2.90105
2.89816
2.89824
2.89788
2.90201
2.88972
2.88751
2.90115
2.8949
2.89165
2.89808
2.88743
2.88513
2.88111
2.88189
2.89237
2.89961
2.90157
2.89016
2.89379
2.91212
2.92112
2.9173
2.92525
2.9122
2.92318
2.92205
2.87993
2.88168
2.88049
2.87496
2.88334
2.88071
2.88348
2.8845
2.8778
2.87688
2.87538
2.87528
2.87598
2.8723
2.87296
2.87264
2.87422
2.8773
2.8739
2.87708
2.87108
2.87153
2.87161
2.87406
2.87322
2.87842
2.86963
2.88827
2.87864
2.87025
2.87089
2.87333
2.86884
2.866
2.89269
2.90162
2.89772
2.89081
2.89508
2.89207
2.89903
2.89589
2.89323
2.89335
2.88677
2.89089
2.9071
2.91217
2.91458
2.91588
2.91766
2.91514
2.90947
2.85518
2.86264
2.85633
2.85941
2.86674
2.85675
2.85503
2.8637
2.86577
2.85861
2.85514
2.85934
2.8604
2.8842
2.88561
2.88657
2.88768
2.88518
2.88675
2.88052
2.87938
2.87609
2.8767
2.87802
2.87793
2.90266
2.91256
2.91166
2.91494
2.9152
2.90731
2.90627
2.90013
2.90269
2.91106
2.91366
2.90961
2.86429
2.86056
2.86238
2.86675
2.86792
2.86698
2.86127
2.85648
2.89262
2.8922
2.88645
2.88395
2.8875
2.8878
2.88709
2.88514
2.88736
2.87884
2.8781
2.87604
2.88238
2.88378
2.87955
2.8812
2.87907
2.88119
2.88416
2.88533
2.88383
2.88266
2.89471
2.88012
2.88361
2.88633
2.87182
2.87905
2.87521
2.88506
2.88615
2.87807
2.88065
2.92665
2.91518
2.93361
2.91358
2.92992
2.91614
2.92323
2.92421
2.91502
2.94553
2.94311
2.93922
2.94183
2.9402
2.94226
2.93504
2.93368
2.8921
2.8857
2.88453
2.88266
2.89354
2.89268
2.8923
2.88348
2.88449
2.88454
2.88642
2.88656
2.8879
2.88901
2.89203
2.89127
2.89143
2.89116
2.89447
2.89291
2.8938
2.89404
2.89416
2.89636
2.89313
2.89803
2.89678
2.89542
2.89605
2.89567
2.90531
2.90371
2.90169
2.90051
2.9009
2.89948
2.93812
2.93791
2.93985
2.94313
2.93844
2.94476
2.94465
2.90264
2.90566
2.90691
2.91214
2.91427
2.91084
2.9155
2.91329
2.91712
2.90488
2.91428
2.91404
2.91165
2.90863
2.91186
2.90993
2.95193
2.96173
2.95906
2.95637
2.94837
2.93998
2.94128
2.93821
2.92994
2.94421
2.92704
2.94168
2.93606
2.9365
2.93887
2.93772
2.93747
2.93666
2.94288
2.94149
2.90905
2.90831
2.90641
2.90645
2.90499
2.90869
2.90555
2.90491
2.9049
2.91179
2.91561
2.91532
2.92376
2.91731
2.91435
2.91681
2.92028
2.92131
2.91622
2.91439
2.90982
2.91708
2.91401
2.91496
2.90953
2.91049
2.9107
2.91572
2.90897
2.90452
2.91134
2.91297
2.91106
2.90522
2.90903
2.90565
2.90898
2.91178
2.89985
2.90025
2.90509
2.89752
2.89859
2.90128
2.90145
2.94827
2.94127
2.9393
2.9385
2.94925
2.93991
2.93102
2.92891
2.92539
2.92741
2.9286
2.9597
2.95531
2.94573
2.94518
2.95131
2.95578
2.95168
2.94405
2.94301
2.93674
2.95206
2.95131
2.95131
2.93929
2.93347
2.9377
2.93681
2.9386
2.94377
2.93857
2.90658
2.90088
2.9043
2.9065
2.90763
2.90728
2.90232
2.9014
2.9065
2.90076
2.90687
2.91296
2.91452
2.91404
2.91089
2.90855
2.91476
2.91421
2.91028
2.91374
2.94276
2.94013
2.95398
2.96376
2.96336
2.94803
2.94738
2.95241
2.95003
2.94977
2.96333
2.95197
2.96022
2.95929
2.95575
2.94866
2.94087
2.95553
2.96483
2.96492
2.92516
2.93037
2.92812
2.92575
2.92336
2.92833
2.9275
2.93015
2.92873
2.93419
2.93209
2.93005
2.9239
2.93416
2.93088
2.9313
2.9489
2.95155
2.95677
2.95903
2.95812
2.962
2.92664
2.92278
2.92762
2.92504
2.93114
2.93085
2.93321
2.92598
2.92764
2.92384
2.97713
2.96235
2.96933
2.96824
2.97179
2.97637
2.97593
2.9187
2.92203
2.91978
2.91661
2.92031
2.92297
2.9219
2.94374
2.94555
2.94944
2.95486
2.94827
2.95707
2.96217
2.96183
2.94889
2.95328
2.9483
2.9427
2.94717
2.94651
2.95876
2.94087
2.92475
2.92118
2.92041
2.92202
2.9218
2.92498
2.92122
2.92509
2.9203
2.92467
2.92127
2.92363
2.9714
2.96767
2.95057
2.96819
2.96091
2.95742
2.95173
2.96128
2.97014
2.9674
2.96429
2.9738
2.96642
2.97214
2.97056
2.95809
2.97018
2.96649
2.96186
2.95258
2.96784
2.95795
2.91241
2.90934
2.91326
2.91106
2.90862
2.90725
2.91347
2.91159
2.91394
2.91425
2.87664
2.88456
2.88281
2.87762
2.87867
2.8763
2.88097
2.88178
2.87547
2.87512
2.93273
2.92355
2.92673
2.9257
2.92225
2.91806
2.92673
2.91506
2.9326
2.93149
2.9296
2.84536
2.8441
2.84476
2.84694
2.84926
2.85105
2.8493
2.84716
2.87549
2.87278
2.86392
2.8761
2.87003
2.87788
2.87159
2.872
2.86351
2.86723
2.86969
2.87186
2.87295
2.87517
2.87501
2.87482
2.86958
2.86874
2.8687
2.86538
2.87405
2.87056
2.87218
2.87499
2.92569
2.91694
2.92455
2.92326
2.9333
2.92489
2.93336
2.92232
2.91659
2.92859
2.92412
2.91857
2.92147
2.90125
2.89821
2.90275
2.89707
2.8887
2.88947
2.90077
2.90762
2.90283
2.90775
2.9024
2.89968
2.90111
2.88754
2.91268
2.91336
2.9213
2.91848
2.91648
2.90288
2.91427
2.90717
2.90556
2.91195
2.92306
2.92426
2.92514
2.92863
2.93658
2.92907
2.91922
2.93122
2.92404
2.91872
2.92374
2.97484
2.93877
2.94877
2.94408
2.92085
2.91548
2.9218
2.91721
2.9179
2.91526
2.91469
2.91371
2.91549
2.92051
2.92063
2.922
2.92367
2.91191
2.91403
2.91105
2.91382
2.92115
2.92209
2.91822
2.91973
2.98876
2.99364
3.00329
2.99667
3.00071
2.99514
2.98485
2.97993
2.97262
2.97425
2.98234
2.98425
2.97218
2.98182
2.98
2.98213
2.97655
2.96889
2.91034
2.90804
2.91039
2.91851
2.91231
2.91447
2.91312
2.91314
2.91754
2.91773
2.91672
2.91696
2.9144
2.91341
2.92661
2.93224
2.93394
2.93192
2.92716
2.93109
2.93597
2.93324
2.93333
2.93186
2.93086
2.93518
2.92831
2.93017
2.92963
2.92728
2.92389
2.92242