/*--------------------------------*- C++ -*----------------------------------*\
| =========                 |                                                 |
| \\      /  F ield         | OpenFOAM: The Open Source CFD Toolbox           |
|  \\    /   O peration     | Version:  v1612+                                |
|   \\  /    A nd           | Web:      www.OpenFOAM.com                      |
|    \\/     M anipulation  |                                                 |
\*---------------------------------------------------------------------------*/
FoamFile
{
    version     2.0;
    format      ascii;
    class       volVectorField;
    location    "100";
    object      U;
}
// * * * * * * * * * * * * * * * * * * * * * * * * * * * * * * * * * * * * * //

dimensions      [0 1 -1 0 0 0 0];

internalField   nonuniform List<vector> 
18768
(
(-0.706739 -0.108709 -0.595756)
(-0.66409 -0.153617 -0.504816)
(-0.421562 -0.0352749 -0.378074)
(-0.720848 -0.197524 -0.48978)
(-0.851149 -0.0350887 -0.670958)
(-0.743699 -0.0608518 -0.619274)
(-0.633641 -0.0751152 -0.556213)
(-0.871301 -0.0363463 -0.683701)
(-0.801971 -0.0468814 -0.658786)
(-0.676267 -0.0861429 -0.56912)
(-0.861428 -0.0454978 -0.678251)
(-0.816131 -0.0505247 -0.639361)
(-0.779606 -0.0823033 -0.611085)
(-0.797466 -0.0658018 -0.612425)
(-0.704236 -0.0833199 -0.577173)
(-0.863185 -0.0227952 -0.650039)
(-0.846648 -0.0286952 -0.62773)
(-0.892497 -0.0214593 -0.66164)
(-0.836604 -0.046488 -0.65194)
(-0.761781 -0.183837 -0.440933)
(-0.737152 -0.183118 -0.424464)
(-0.796241 -0.181022 -0.449027)
(-0.704821 -0.174278 -0.389578)
(-0.740093 -0.201429 -0.430227)
(-0.694779 -0.193321 -0.397009)
(-0.839067 -0.179349 -0.476045)
(-0.784751 -0.177211 -0.434354)
(-0.895484 -0.173534 -0.545369)
(-0.720881 -0.19677 -0.426359)
(-0.881127 -0.171738 -0.536292)
(-0.756751 -0.192625 -0.438344)
(-0.73115 -0.194215 -0.417154)
(-0.803023 -0.181233 -0.459556)
(-0.87686 -0.176348 -0.524445)
(-0.555731 -0.0730054 -0.345935)
(-0.606654 -0.0538347 -0.368971)
(-0.542979 -0.0492651 -0.321555)
(-0.557076 -0.062447 -0.332387)
(-0.560909 -0.0681619 -0.334271)
(-0.482018 -0.0587997 -0.293146)
(-0.64368 -0.0383408 -0.39104)
(-0.624036 -0.0579864 -0.387235)
(-0.621851 -0.0431295 -0.377879)
(-0.53338 -0.0869518 -0.338972)
(-0.578002 -0.0824401 -0.364409)
(-0.50367 -0.0525895 -0.302635)
(-0.547592 -0.0792233 -0.345615)
(-0.453025 -0.0750103 -0.287002)
(-0.426868 -0.0567831 -0.262755)
(-0.31415 -0.00475739 -0.340666)
(-0.268925 0.00330229 -0.288437)
(-0.39154 -0.000651993 -0.300723)
(-0.346526 -0.00296215 -0.255143)
(-0.362607 0.000975707 -0.266924)
(-0.410664 0.00454152 -0.319664)
(-0.387867 -0.00592575 -0.310065)
(-0.367401 -0.00593875 -0.311859)
(-0.334336 -0.00120804 -0.277507)
(-0.308234 -0.00140893 -0.250058)
(-0.328583 0.00119086 -0.253413)
(-0.295292 -0.00413674 -0.227168)
(-0.408857 0.0096761 -0.330379)
(-0.317057 -0.0128 -0.273378)
(-0.357547 0.00488045 -0.289877)
(-0.903367 -0.0129083 -0.625209)
(-0.868055 -0.0168624 -0.601389)
(-0.927028 0.0148086 -0.66754)
(-0.926187 0.0165353 -0.675425)
(-0.881765 -0.00901429 -0.6262)
(-0.825455 -0.00929866 -0.604611)
(-0.882396 -0.00347163 -0.656499)
(-0.823379 -0.0117858 -0.622695)
(-0.888755 0.00689912 -0.653518)
(-0.806277 -0.0141631 -0.595455)
(-0.873373 -0.00532709 -0.614463)
(-0.818973 -0.0148119 -0.576445)
(-0.755956 -0.0165127 -0.546954)
(-0.862878 -0.00269597 -0.626285)
(-0.832024 -0.130878 -0.501804)
(-0.793056 -0.123724 -0.464609)
(-0.760639 -0.130799 -0.441328)
(-0.836943 -0.123933 -0.51047)
(-0.825766 -0.101399 -0.4965)
(-0.892596 -0.096607 -0.554516)
(-0.979582 -0.101611 -0.614523)
(-0.972319 -0.0896476 -0.618545)
(-0.802006 -0.0986975 -0.485161)
(-0.726864 -0.112228 -0.421882)
(-0.77401 -0.121933 -0.454698)
(-0.96546 -0.0916761 -0.608226)
(-0.886397 -0.113347 -0.529103)
(-0.527068 -0.00781217 -0.339657)
(-0.508822 -0.00999299 -0.29482)
(-0.535914 -0.00443986 -0.314971)
(-0.53773 -0.00351689 -0.303809)
(-0.411882 -0.0355041 -0.205095)
(-0.40582 -0.0326944 -0.219379)
(-0.48277 -0.0151634 -0.289593)
(-0.388605 -0.0363091 -0.201377)
(-0.530907 -0.0192149 -0.282547)
(-0.512397 -0.00527509 -0.314916)
(-0.4519 -0.0294914 -0.227989)
(-0.456412 -0.025856 -0.273317)
(-0.387719 -0.0361152 -0.200012)
(-0.470658 -0.0182724 -0.288149)
(-0.391263 -0.0394078 -0.19979)
(-0.482144 -0.032981 -0.236857)
(-0.446945 0.0208107 -0.3098)
(-0.491873 0.0273651 -0.318611)
(-0.530592 0.0545218 -0.357585)
(-0.539579 0.0445615 -0.347636)
(-0.483855 0.0304257 -0.331631)
(-0.467572 0.0204659 -0.3081)
(-0.412132 0.0175362 -0.29712)
(-0.540968 0.0447389 -0.34738)
(-0.484898 0.0307432 -0.322353)
(-0.534627 0.0512451 -0.35882)
(-0.455216 0.032815 -0.352562)
(-0.427415 0.0241674 -0.339979)
(-0.427841 0.0207366 -0.328743)
(-0.408658 0.0202949 -0.31508)
(-0.442026 0.0303683 -0.311887)
(-0.426883 0.0225361 -0.313401)
(-0.447121 0.0339422 -0.332996)
(-0.46088 0.0420517 -0.335539)
(-0.537864 0.0561162 -0.358158)
(-0.474646 0.0426714 -0.352898)
(-0.446211 0.0348389 -0.348161)
(-0.414661 0.0193919 -0.308641)
(-0.572809 0.0595918 -0.364075)
(-0.589201 0.0699372 -0.368901)
(-0.464978 0.0363951 -0.360059)
(-0.440762 0.0298117 -0.351303)
(-0.608131 0.0828159 -0.393192)
(-0.605453 0.0820449 -0.394611)
(-0.56083 0.0877146 -0.380978)
(-0.537985 0.065296 -0.392514)
(-0.530303 0.0495316 -0.364103)
(-0.457886 0.0296551 -0.338159)
(-0.479483 0.0429883 -0.389013)
(-0.550975 0.091528 -0.377994)
(-0.496772 0.0519825 -0.379225)
(-0.563552 0.0710877 -0.378516)
(-0.469292 0.00746782 -0.29718)
(-0.444856 -0.00723084 -0.278149)
(-0.47245 0.00083965 -0.29153)
(-0.464454 0.000881229 -0.289621)
(-0.546737 -0.022271 -0.30106)
(-0.571218 -0.0188983 -0.31939)
(-0.530598 -0.0175782 -0.300915)
(-0.446472 -0.015774 -0.270354)
(-0.614326 -0.00908224 -0.354427)
(-0.623626 -0.00527721 -0.358365)
(-0.506788 0.0180621 -0.314616)
(-0.4839 0.0150184 -0.306658)
(-0.505519 -0.00682514 -0.299026)
(-0.504878 -0.0103788 -0.297463)
(-0.619775 0.0270568 -0.360495)
(-0.585992 0.0213997 -0.350519)
(-0.544863 0.0255204 -0.332178)
(-0.497019 0.0130778 -0.311885)
(-0.567279 0.0305904 -0.350011)
(-0.635662 0.0975993 -0.405314)
(-0.662034 0.0999713 -0.406826)
(-0.596925 0.0850849 -0.386623)
(-0.594504 0.0773887 -0.38213)
(-0.659406 0.103206 -0.409866)
(-0.679128 0.0899844 -0.415355)
(-0.621194 0.0588444 -0.377959)
(-0.56322 0.0403661 -0.354286)
(-0.650898 0.0653269 -0.391519)
(-0.590656 0.06454 -0.370856)
(-0.608647 0.0500104 -0.36693)
(-1.05447 -0.0371872 -0.700025)
(-1.0418 -0.0568414 -0.694422)
(-0.931461 0.0078169 -0.591429)
(-1.03001 -0.0273219 -0.654798)
(-1.05001 -0.0679615 -0.683388)
(-1.05332 -0.0249381 -0.691952)
(-1.04533 -0.0298092 -0.696485)
(-0.91843 0.0095663 -0.590223)
(-0.948382 0.00971693 -0.613482)
(-1.0585 -0.0628952 -0.683892)
(-1.05721 -0.0616403 -0.688967)
(-1.06222 -0.0445067 -0.673237)
(-1.04171 -0.055817 -0.683543)
(-1.0863 -0.0216947 -0.712798)
(-1.05989 -0.0303683 -0.683897)
(-1.04387 -0.0342963 -0.684926)
(-1.02325 -0.0661616 -0.664499)
(-0.75888 0.0830323 -0.502353)
(-0.711706 0.144966 -0.453597)
(-0.667311 0.152331 -0.411023)
(-0.708648 0.10169 -0.46764)
(-0.751069 0.113359 -0.475379)
(-0.738923 0.0773051 -0.500744)
(-0.716886 0.0875754 -0.495514)
(-0.635622 0.142246 -0.400154)
(-0.679489 0.119562 -0.431904)
(-0.617073 0.126362 -0.409598)
(-0.677035 0.12674 -0.425121)
(-0.57201 0.136458 -0.387128)
(-0.5966 0.111694 -0.421427)
(-0.714013 0.0670542 -0.487272)
(-0.711527 0.0748466 -0.498435)
(-0.616661 0.121736 -0.416367)
(-0.612053 0.0907768 -0.450699)
(-0.640812 0.0697562 -0.475354)
(-0.644644 0.129759 -0.417147)
(-0.463046 0.0144751 -0.310472)
(-0.450336 0.00782386 -0.30889)
(-0.493613 0.0253391 -0.322191)
(-0.463925 0.014921 -0.320784)
(-0.469589 0.00691194 -0.311437)
(-0.474534 0.0241628 -0.331254)
(-0.497392 -0.0032778 -0.294709)
(-0.440335 -0.00596805 -0.276326)
(-0.468268 0.00805358 -0.307904)
(-0.43105 -0.00141051 -0.282488)
(-0.449217 0.00424809 -0.290161)
(-0.52161 0.0369602 -0.345988)
(-0.557235 0.036443 -0.346577)
(-0.5306 0.0053967 -0.309421)
(-0.591663 0.0260605 -0.344964)
(-0.952876 0.023885 -0.670123)
(-0.875138 -0.0253391 -0.6413)
(-0.822538 -0.0359806 -0.554739)
(-0.95385 0.0123849 -0.686539)
(-0.972329 -0.016387 -0.735406)
(-0.894018 0.0105546 -0.59548)
(-0.888353 -0.0342621 -0.625367)
(-0.937046 0.0561559 -0.611356)
(-0.904962 0.0208716 -0.6045)
(-0.880803 -0.0272778 -0.636028)
(-0.884569 -0.0256528 -0.632944)
(-0.925497 0.0574591 -0.614167)
(-0.957634 0.0148562 -0.676778)
(-0.927745 0.0563786 -0.615705)
(-0.949599 0.0287158 -0.65243)
(-0.902193 0.0302618 -0.600238)
(-0.912838 0.0510919 -0.610463)
(-0.912898 0.0601405 -0.599099)
(-0.86476 0.0611255 -0.559307)
(-0.745164 0.103835 -0.470401)
(-0.807659 0.0924291 -0.512468)
(-0.69316 0.112377 -0.458665)
(-0.811245 0.107293 -0.502615)
(-0.762155 0.116021 -0.475425)
(-0.717524 0.098116 -0.479325)
(-0.720621 0.113385 -0.462717)
(-0.732582 0.109498 -0.459465)
(-0.676061 0.115009 -0.421531)
(-0.66695 0.110003 -0.413848)
(-0.696446 0.0991709 -0.437558)
(-0.666358 0.111368 -0.412996)
(-0.628045 0.0953644 -0.434043)
(-0.762524 0.11042 -0.488699)
(-0.968767 0.0875305 -0.701007)
(-0.956805 0.0904147 -0.68026)
(-0.983836 0.0898673 -0.691533)
(-0.899675 0.0246156 -0.682955)
(-0.885282 0.0182335 -0.685735)
(-0.920971 0.0292432 -0.69615)
(-0.921233 0.0246645 -0.700733)
(-0.975211 0.0777416 -0.6956)
(-0.922191 0.0531006 -0.693419)
(-0.907799 0.0453667 -0.693007)
(-0.876897 0.0305397 -0.684679)
(-0.93688 0.0509508 -0.700083)
(-0.8824 0.0298698 -0.687606)
(-0.99395 0.0861863 -0.70488)
(-0.979755 0.0794126 -0.677391)
(-0.97035 0.081736 -0.688341)
(-0.913122 0.0436713 -0.693118)
(-0.751325 -0.0420666 -0.569573)
(-0.745944 -0.0798253 -0.569803)
(-0.693749 -0.120566 -0.546877)
(-0.758087 -0.0934324 -0.561384)
(-0.652876 -0.0612655 -0.560974)
(-0.650991 -0.0944906 -0.568869)
(-0.781049 -0.0226723 -0.554561)
(-0.816118 -0.0968665 -0.564963)
(-0.764325 -0.114219 -0.554546)
(-0.741071 -0.122494 -0.549069)
(-0.775401 -0.056722 -0.582511)
(-0.713011 -0.0212728 -0.572998)
(-0.669535 -0.140261 -0.568548)
(-0.755464 -0.12654 -0.55958)
(-0.709382 -0.134177 -0.541773)
(-0.773197 -0.0298133 -0.652737)
(-0.693703 -0.0481589 -0.605901)
(-0.730589 -0.01919 -0.631077)
(-0.691865 -0.0294624 -0.605406)
(-0.746775 -0.0534423 -0.636946)
(-0.796723 -0.0184645 -0.654808)
(-0.652819 -0.0362713 -0.586314)
(-0.708347 -0.0489869 -0.618359)
(-0.695473 -0.0448009 -0.598442)
(-0.800808 -0.00966082 -0.663749)
(-0.878083 0.00449468 -0.684719)
(-0.856206 0.00780531 -0.674828)
(-0.796907 -0.0076557 -0.652061)
(-0.7379 -0.0207524 -0.628402)
(-0.902551 0.0203245 -0.698643)
(-0.893393 0.0120892 -0.711571)
(-0.848213 -0.00113265 -0.682581)
(-0.835376 -0.00716513 -0.674662)
(-0.847152 -0.0226836 -0.688168)
(-0.788809 -0.030603 -0.660526)
(-0.593302 -0.0304102 -0.536071)
(-0.577132 -0.0700563 -0.537602)
(-0.610016 -0.0637946 -0.548265)
(-0.597399 -0.0930917 -0.550985)
(-0.650362 -0.0648185 -0.575236)
(-0.648255 -0.0667243 -0.579443)
(-0.641691 -0.0886922 -0.567748)
(-0.598474 -0.0350172 -0.537222)
(-0.547648 -0.126328 -0.510713)
(-0.540038 -0.128158 -0.506578)
(-0.495987 -0.111659 -0.480207)
(-0.490378 -0.11983 -0.489304)
(-0.496457 -0.109482 -0.500961)
(-0.46343 -0.0968478 -0.48745)
(-0.508725 -0.126685 -0.493045)
(-0.467369 -0.120404 -0.467465)
(-0.52015 -0.0717435 -0.507065)
(-0.559405 -0.0788927 -0.529717)
(-0.548123 -0.0606795 -0.522304)
(-0.48994 -0.0639735 -0.500341)
(-0.516905 -0.109088 -0.498907)
(-0.491512 -0.120877 -0.485901)
(-0.466426 -0.106497 -0.479184)
(-0.460459 -0.0959012 -0.477026)
(-0.546581 -0.06663 -0.313285)
(-0.525558 -0.0468075 -0.305506)
(-0.437086 -0.0904259 -0.242466)
(-0.538224 -0.052283 -0.306888)
(-0.552917 -0.0635428 -0.316867)
(-0.459999 -0.0815654 -0.25974)
(-0.4529 -0.0572675 -0.252297)
(-0.426471 -0.0632993 -0.230359)
(-0.426079 -0.0772225 -0.236372)
(-0.377349 -0.0811017 -0.205936)
(-0.412055 -0.0616124 -0.227241)
(-0.377098 -0.0642965 -0.204379)
(-0.462221 -0.0611382 -0.258046)
(-0.634862 -0.0132508 -0.551733)
(-0.6568 -0.0187431 -0.560078)
(-0.593914 0.00877238 -0.52885)
(-0.634811 -0.0455495 -0.558399)
(-0.624675 -0.083316 -0.573281)
(-0.561446 -0.0704129 -0.524135)
(-0.5412 -0.035574 -0.514813)
(-0.5073 -0.0435329 -0.510441)
(-0.539432 -0.0625604 -0.526523)
(-0.646118 -0.0640338 -0.571882)
(-0.57994 -0.0746239 -0.545052)
(-0.591562 -0.0632041 -0.552193)
(-0.520519 0.0378941 -0.467529)
(-0.556341 0.01931 -0.49041)
(-0.530512 -0.0633087 -0.524082)
(-0.571969 0.0018963 -0.503347)
(-0.55861 -0.0235771 -0.52994)
(-0.508101 -0.0155953 -0.49704)
(-0.513683 -0.034992 -0.508054)
(-0.89777 -0.119378 -0.617813)
(-0.937553 -0.112221 -0.636026)
(-0.992806 -0.111431 -0.676535)
(-0.978752 -0.112499 -0.677914)
(-0.879344 -0.115522 -0.583507)
(-0.831667 -0.121683 -0.552106)
(-0.930207 -0.119431 -0.64849)
(-0.919795 -0.0993168 -0.599026)
(-0.980103 -0.105026 -0.643074)
(-0.994541 -0.109371 -0.663835)
(-1.0037 -0.10731 -0.688303)
(-0.961602 -0.119738 -0.641714)
(-0.968521 -0.105639 -0.642205)
(-0.936954 -0.108255 -0.640326)
(-0.909567 -0.106811 -0.629826)
(-0.844331 -0.104321 -0.563012)
(-0.817477 -0.101426 -0.514057)
(-0.8561 -0.108482 -0.555567)
(-0.930592 -0.106174 -0.622583)
(-0.938365 -0.107903 -0.643979)
(-0.916702 -0.113364 -0.5775)
(-0.884558 -0.11258 -0.536448)
(-0.886369 -0.126958 -0.514255)
(-1.05293 -0.107037 -0.660415)
(-1.04375 -0.107455 -0.662537)
(-1.04351 -0.121811 -0.642746)
(-0.950482 -0.122888 -0.568785)
(-1.0263 -0.10305 -0.665738)
(-1.02602 -0.105562 -0.659429)
(-0.894291 -0.123872 -0.534076)
(-0.975328 -0.118355 -0.59978)
(-0.914611 -0.103281 -0.57634)
(-0.903912 -0.111546 -0.550231)
(-0.55704 0.0209054 -0.332376)
(-0.579727 0.0114092 -0.337764)
(-0.657728 0.0276706 -0.387472)
(-0.635084 0.0151753 -0.370077)
(-0.592394 0.0318819 -0.358351)
(-0.57591 0.000450551 -0.340074)
(-0.57251 0.00499841 -0.339557)
(-0.547538 0.0107026 -0.325914)
(-0.539213 0.0181558 -0.327138)
(-0.548054 0.0221507 -0.329736)
(-0.705696 0.021011 -0.406054)
(-0.693202 0.0446479 -0.40855)
(-0.608787 0.0306048 -0.364247)
(-0.670158 0.0324087 -0.393075)
(-0.67722 0.0542518 -0.396972)
(-0.69115 0.0458946 -0.415552)
(-0.690327 0.0115237 -0.401103)
(-0.682859 0.0203359 -0.393025)
(-0.942132 -0.0183843 -0.672316)
(-0.955251 -0.0157142 -0.679239)
(-0.951947 -0.0237363 -0.667551)
(-0.92296 -0.0396098 -0.626754)
(-0.927201 -0.0207019 -0.655961)
(-0.956486 -0.0146002 -0.67263)
(-0.897267 -0.0445319 -0.606211)
(-1.01652 -0.0178222 -0.696341)
(-0.963029 -0.0474773 -0.64133)
(-0.971393 -0.0513525 -0.64444)
(-0.976184 -0.0513841 -0.65428)
(-1.00284 -0.00281084 -0.684953)
(-0.975902 -0.0367899 -0.641078)
(-0.965004 -0.0383276 -0.646338)
(-0.532724 -0.0144014 -0.310587)
(-0.550458 -0.00853733 -0.321588)
(-0.391395 -0.0171666 -0.242639)
(-0.362489 -0.0176993 -0.223975)
(-0.442382 -0.017747 -0.264201)
(-0.402717 -0.0170609 -0.242504)
(-0.504236 -0.0112557 -0.295746)
(-0.352001 -0.0126058 -0.221449)
(-0.379571 -0.0112823 -0.236603)
(-0.363863 -0.0160433 -0.226744)
(-0.439158 -0.0118715 -0.271655)
(-0.50418 9.32527e-05 -0.302356)
(-0.377047 -0.00190656 -0.244443)
(-0.401429 -0.00169578 -0.255998)
(-0.384813 -0.0161939 -0.243139)
(-0.459169 0.0163715 -0.29164)
(-0.486941 0.00975151 -0.300221)
(-0.405089 0.000299142 -0.263445)
(-0.552085 -0.153244 -0.505798)
(-0.584593 -0.158916 -0.532151)
(-0.528157 -0.113095 -0.493142)
(-0.537498 -0.138737 -0.507222)
(-0.62723 -0.148513 -0.554687)
(-0.634862 -0.151376 -0.561938)
(-0.668947 -0.0812164 -0.574675)
(-0.660745 -0.10038 -0.566959)
(-0.602355 -0.0887777 -0.542275)
(-0.719111 -0.100475 -0.578509)
(-0.699124 -0.0898301 -0.578404)
(-0.709156 -0.118914 -0.584124)
(-0.695164 -0.0729062 -0.575511)
(-0.439633 0.0378601 -0.321024)
(-0.455672 0.0414312 -0.334933)
(-0.417845 0.0399227 -0.310481)
(-0.45149 0.0512623 -0.332684)
(-0.469684 0.0515325 -0.330519)
(-0.531485 0.069812 -0.339005)
(-0.515544 0.0401799 -0.329696)
(-0.428639 0.03188 -0.304105)
(-0.546203 0.062569 -0.347958)
(-0.478376 0.0497442 -0.324398)
(-0.442318 0.049241 -0.325179)
(-0.477536 0.0395414 -0.322475)
(-0.531999 0.0505585 -0.338687)
(-0.547263 0.0696821 -0.340239)
(-0.432664 0.0371258 -0.313569)
(-0.717732 -0.206422 -0.515292)
(-0.747459 -0.190211 -0.543751)
(-0.718309 -0.199529 -0.515764)
(-0.668166 -0.197944 -0.474985)
(-0.824896 -0.170392 -0.574881)
(-0.778171 -0.194267 -0.548757)
(-0.781135 -0.193321 -0.526828)
(-0.715425 -0.200978 -0.492889)
(-0.810604 -0.161984 -0.567295)
(-0.780963 -0.19791 -0.548288)
(-0.740111 -0.186786 -0.513815)
(-0.815944 -0.18956 -0.541221)
(-0.822641 -0.155475 -0.587042)
(-0.659356 -0.200377 -0.451599)
(-0.774755 -0.200261 -0.514219)
(-0.725221 -0.1989 -0.489851)
(-0.844633 -0.160992 -0.570754)
(-0.836208 -0.157699 -0.586955)
(-0.875503 -0.159556 -0.577574)
(-0.612911 -0.0558345 -0.35972)
(-0.534299 -0.0586165 -0.317689)
(-0.628277 -0.0580075 -0.382972)
(-0.554432 -0.0706751 -0.339591)
(-0.519539 -0.0717828 -0.316287)
(-0.527991 -0.0444021 -0.304501)
(-0.611295 -0.0429876 -0.353351)
(-0.62931 -0.0462934 -0.373183)
(-0.511579 -0.0504582 -0.310337)
(-0.518159 -0.0410677 -0.310648)
(-0.660578 -0.049082 -0.406131)
(-0.531574 -0.0805112 -0.338715)
(-0.473893 -0.0761329 -0.304517)
(-0.48612 -0.0532052 -0.291118)
(-0.471753 -0.056069 -0.287296)
(-0.436367 -0.061407 -0.278864)
(-0.836654 -0.131165 -0.58047)
(-0.861555 -0.156607 -0.580893)
(-0.622894 -0.158537 -0.461385)
(-0.63327 -0.168614 -0.464062)
(-0.753298 -0.161789 -0.535534)
(-0.720037 -0.162278 -0.518099)
(-0.824417 -0.170463 -0.561115)
(-0.828269 -0.161019 -0.572445)
(-0.860068 -0.158883 -0.579037)
(-0.86256 -0.141995 -0.58733)
(-0.709703 -0.190358 -0.4721)
(-0.626125 -0.175814 -0.415911)
(-0.660557 -0.182296 -0.464312)
(-0.627719 -0.181335 -0.433901)
(-0.618024 -0.161148 -0.442279)
(-0.745387 -0.157131 -0.527395)
(-0.740058 -0.186036 -0.491824)
(-0.680507 -0.189684 -0.452226)
(-0.738013 -0.18389 -0.502783)
(-0.647822 -0.16159 -0.462096)
(-0.858001 -0.119032 -0.601024)
(-0.777623 -0.121819 -0.554151)
(-0.871843 -0.131112 -0.627091)
(-0.746853 -0.125196 -0.523437)
(-0.899376 -0.136228 -0.650442)
(-0.686576 -0.142508 -0.511714)
(-0.711528 -0.157766 -0.535347)
(-0.723564 -0.135393 -0.533173)
(-0.705512 -0.125165 -0.510838)
(-0.978731 -0.0961831 -0.625852)
(-0.919575 -0.111818 -0.584017)
(-0.98144 -0.118435 -0.617962)
(-0.896044 -0.141952 -0.546197)
(-0.942594 -0.125232 -0.580542)
(-0.929141 -0.124487 -0.577395)
(-0.913834 -0.11882 -0.569864)
(-0.910676 -0.106507 -0.567603)
(-1.02646 -0.0983027 -0.661333)
(-0.965164 -0.122957 -0.60774)
(-1.01864 -0.0937969 -0.64433)
(-1.01348 -0.0927518 -0.658952)
(-1.01469 -0.0883082 -0.658046)
(-1.02463 -0.0944867 -0.657551)
(-0.990985 -0.0850761 -0.64439)
(-0.727867 -0.119443 -0.408262)
(-0.731241 -0.143731 -0.417503)
(-0.730015 -0.172582 -0.409967)
(-0.730807 -0.167424 -0.417981)
(-0.693267 -0.189136 -0.380807)
(-0.661536 -0.200102 -0.35366)
(-0.612804 -0.174086 -0.299648)
(-0.631627 -0.190928 -0.321287)
(-0.668166 -0.116887 -0.336205)
(-0.617376 -0.140348 -0.293013)
(-0.69571 -0.121529 -0.373542)
(-0.717113 -0.195317 -0.409955)
(-0.559901 0.122448 -0.424265)
(-0.550005 0.0922484 -0.441721)
(-0.567662 0.132566 -0.416907)
(-0.595662 0.139754 -0.430847)
(-0.617457 0.04624 -0.498152)
(-0.698897 0.0526499 -0.530909)
(-0.595488 0.13472 -0.441663)
(-0.554024 0.151983 -0.403516)
(-0.700159 0.0716083 -0.535326)
(-0.663132 0.101493 -0.502711)
(-0.605718 0.024314 -0.4712)
(-1.09387 0.296174 -0.598313)
(-0.544962 0.140275 -0.418458)
(-0.830921 0.157589 -0.552121)
(-0.876453 -0.0783692 -0.576221)
(-0.986251 -0.0956839 -0.669443)
(-0.830158 -0.0650463 -0.525379)
(-0.803979 -0.0823443 -0.489366)
(-0.891076 -0.0924343 -0.58289)
(-0.831443 -0.111342 -0.530894)
(-0.840884 -0.0786209 -0.520662)
(-0.806351 -0.139384 -0.531227)
(-0.787478 -0.188037 -0.51606)
(-0.879125 -0.152951 -0.628441)
(-0.86582 -0.161836 -0.608221)
(-0.831395 -0.171013 -0.57784)
(-0.830431 -0.18664 -0.572001)
(-0.817144 -0.136462 -0.525413)
(-0.815935 -0.191937 -0.558341)
(-0.859609 -0.112348 -0.549438)
(-0.935578 -0.106811 -0.626064)
(-0.830523 -0.154278 -0.546369)
(-0.848258 -0.180717 -0.570485)
(-0.860094 -0.158904 -0.586669)
(-0.988083 -0.0616147 -0.629073)
(-0.916991 -0.0422047 -0.600134)
(-0.970073 -0.00111346 -0.615075)
(-0.852179 0.0470882 -0.508173)
(-0.935416 -0.0375258 -0.598625)
(-0.902874 -0.062831 -0.598195)
(-0.964496 -0.069 -0.616854)
(-0.960289 -0.0501713 -0.617803)
(-0.870578 -0.00309715 -0.549255)
(-0.893922 0.0271598 -0.544459)
(-0.83113 -0.0137685 -0.550409)
(-0.886661 -0.0262432 -0.564622)
(-1.00375 -0.0613378 -0.636528)
(-0.872879 0.0270891 -0.552625)
(-0.926536 0.0120785 -0.583363)
(-0.942505 0.0447933 -0.603246)
(-0.974344 0.0244286 -0.620501)
(-0.86617 0.000535251 -0.561925)
(-0.918478 -0.0291708 -0.585496)
(-0.978844 0.0284037 -0.623957)
(-0.98841 -0.0107018 -0.625107)
(-0.871359 0.0490725 -0.553691)
(-0.83967 0.077414 -0.540187)
(-0.844296 0.0583874 -0.536)
(-0.870335 0.0168703 -0.560258)
(-0.972025 -0.0254091 -0.606286)
(-0.79488 -0.145412 -0.596948)
(-0.751184 -0.158783 -0.590242)
(-0.757964 -0.149925 -0.60585)
(-0.744965 -0.156095 -0.597454)
(-0.746965 -0.154738 -0.601897)
(-0.78372 -0.158508 -0.603358)
(-0.819236 -0.151333 -0.614867)
(-0.822989 -0.131111 -0.619317)
(-0.782743 -0.14311 -0.634883)
(-0.857878 -0.111983 -0.616104)
(-0.864642 -0.101932 -0.622566)
(-0.88463 -0.101232 -0.658266)
(-0.897707 -0.0855915 -0.667467)
(-0.841534 -0.133549 -0.666517)
(-0.799352 -0.149538 -0.624349)
(-0.872094 -0.116445 -0.632651)
(-0.900486 -0.096814 -0.679888)
(-0.870155 -0.117535 -0.65273)
(-0.706705 -0.100285 -0.37325)
(-0.623485 -0.0938923 -0.291929)
(-0.639531 -0.0802513 -0.324999)
(-0.737559 -0.0642655 -0.405047)
(-0.63062 -0.0598888 -0.317501)
(-0.638033 -0.0750671 -0.308344)
(-0.662385 -0.0964369 -0.331437)
(-0.692577 -0.0942301 -0.365831)
(-0.696794 0.0651592 -0.470535)
(-0.63397 0.0777602 -0.438917)
(-0.631157 0.064715 -0.441508)
(-0.680863 0.0539446 -0.47716)
(-0.697436 0.0288055 -0.49638)
(-0.7384 -0.00279181 -0.518708)
(-0.761005 -0.0222307 -0.558581)
(-0.705144 -0.0374259 -0.552398)
(-0.740537 -0.0116761 -0.541188)
(-0.74615 -0.0366419 -0.553616)
(-0.718994 -0.0334718 -0.537353)
(-0.631336 0.00982835 -0.495872)
(-0.702321 -0.0188076 -0.546927)
(-0.752377 -0.0761019 -0.506471)
(-0.752563 -0.100048 -0.533518)
(-0.806772 -0.0400312 -0.521802)
(-0.816822 -0.048316 -0.550765)
(-0.806158 -0.0508 -0.549213)
(-0.71325 -0.104842 -0.513429)
(-0.752286 -0.0647128 -0.483194)
(-0.731971 -0.0835106 -0.488561)
(-0.65825 -0.108177 -0.442172)
(-0.664747 -0.120133 -0.466711)
(-0.751717 -0.096118 -0.522411)
(-0.665959 -0.105117 -0.43211)
(-0.680551 -0.0910741 -0.442065)
(-0.682732 -0.0779994 -0.433406)
(-0.725789 -0.0992937 -0.527521)
(-0.66527 -0.109127 -0.457167)
(-0.676608 -0.0498759 -0.376362)
(-0.686542 -0.0443129 -0.380269)
(-0.606199 -0.0851764 -0.323815)
(-0.639839 -0.0987802 -0.35978)
(-0.612967 -0.0741291 -0.328939)
(-0.646759 -0.0906569 -0.356168)
(-0.555399 -0.0976913 -0.288836)
(-0.57623 -0.0756469 -0.306763)
(-0.587619 0.0852095 -0.467044)
(-0.600698 0.090421 -0.473652)
(-0.597586 0.100927 -0.4793)
(-0.585478 0.0941074 -0.457961)
(-0.632399 0.0432833 -0.536543)
(-0.662714 0.0302938 -0.537686)
(-0.605246 0.00831229 -0.540214)
(-0.584335 0.0460129 -0.506356)
(-0.687307 -0.0624122 -0.596346)
(-0.699314 -0.000338027 -0.568696)
(-0.587964 -0.00120759 -0.537437)
(-0.741673 -0.0682751 -0.637479)
(-0.664199 -0.0731067 -0.589759)
(-0.674804 -0.107183 -0.602153)
(-0.665843 -0.113183 -0.597829)
(-0.666722 -0.126777 -0.581093)
(-0.705842 -0.126968 -0.60234)
(-0.672819 -0.0895702 -0.605665)
(-0.65317 -0.092028 -0.587112)
(-0.837487 -0.0840839 -0.693938)
(-0.784456 -0.0628751 -0.663777)
(-0.685672 -0.104095 -0.609902)
(-0.65096 -0.113466 -0.581574)
(-0.768185 -0.106677 -0.659179)
(-0.755304 -0.0776832 -0.650144)
(-0.825315 -0.0712659 -0.685717)
(-0.746852 -0.0980313 -0.6521)
(-0.660391 -0.109907 -0.580094)
(-0.623598 -0.0951119 -0.571976)
(-0.886696 -0.0227121 -0.628225)
(-0.857236 -0.0258319 -0.621044)
(-0.827306 -0.0262507 -0.603826)
(-0.789073 -0.0366078 -0.580702)
(-0.810836 -0.0304884 -0.599676)
(-0.827209 -0.0332447 -0.596325)
(-0.810529 -0.0392776 -0.581893)
(-0.843941 -0.0454594 -0.591209)
(-0.828169 -0.0384139 -0.599965)
(-0.919802 -0.0263463 -0.65631)
(-0.938911 -0.0108422 -0.680877)
(-0.841045 -0.0239511 -0.624845)
(-0.821527 -0.0355091 -0.609894)
(-0.830263 -0.0279178 -0.626292)
(-0.881627 -0.0320244 -0.6221)
(-0.919479 -0.0171303 -0.677536)
(-0.932575 -0.0207226 -0.674564)
(-0.938001 -0.0188577 -0.688861)
(-0.651839 -0.116019 -0.583706)
(-0.630658 -0.122729 -0.562247)
(-0.709424 -0.105576 -0.61263)
(-0.680545 -0.114242 -0.585886)
(-0.740767 -0.108816 -0.635189)
(-0.688319 -0.130558 -0.593769)
(-0.653439 -0.138341 -0.575756)
(-0.607571 -0.125009 -0.550498)
(-0.762508 -0.10326 -0.633354)
(-0.812858 -0.095486 -0.659966)
(-0.672766 -0.145195 -0.593406)
(-0.635482 -0.129882 -0.568775)
(-0.845797 -0.0885433 -0.67558)
(-0.707368 -0.123917 -0.604333)
(-0.656498 -0.12604 -0.569164)
(-0.785276 -0.137147 -0.655057)
(-0.68572 -0.0059351 -0.412507)
(-0.698609 -0.017855 -0.419876)
(-0.770095 -0.0139796 -0.473224)
(-0.785702 -0.00465136 -0.493723)
(-0.664636 -0.048207 -0.389202)
(-0.65637 -0.0643825 -0.388335)
(-0.682358 -0.0430762 -0.400233)
(-0.777033 -0.028171 -0.501175)
(-0.684762 -0.0686669 -0.424062)
(-0.637303 -0.071757 -0.399825)
(-0.623676 -0.0698361 -0.379464)
(-0.59264 -0.113168 -0.386977)
(-0.555737 -0.10545 -0.357436)
(-0.713317 -0.0647244 -0.457896)
(-0.558619 -0.0869665 -0.355946)
(-0.600261 -0.104708 -0.401787)
(-0.709537 -0.0819687 -0.459998)
(-0.633219 -0.10079 -0.461908)
(-0.567464 -0.118558 -0.417866)
(-0.707282 -0.0745574 -0.502044)
(-0.598293 -0.103259 -0.440093)
(-0.727348 -0.0620771 -0.484957)
(-0.657328 -0.0663106 -0.438378)
(-0.566451 -0.109451 -0.417483)
(-0.512387 -0.109176 -0.356853)
(-0.560972 -0.103389 -0.395905)
(-0.717019 -0.0738133 -0.479811)
(-0.749288 -0.0676044 -0.494864)
(-0.616966 -0.0865828 -0.410399)
(-0.606533 -0.0811218 -0.400806)
(-0.580811 -0.0893105 -0.393918)
(-0.526701 -0.103252 -0.365976)
(-0.556781 -0.10007 -0.374399)
(-0.513873 -0.100447 -0.352518)
(-0.62026 -0.0927655 -0.423361)
(-0.93299 0.0140611 -0.675178)
(-0.921146 -0.00501248 -0.681766)
(-0.816424 -0.062052 -0.665781)
(-0.869627 -0.0328062 -0.689764)
(-0.919781 -0.00463887 -0.689558)
(-0.91493 -0.0116915 -0.688479)
(-0.922157 0.00138824 -0.698617)
(-0.772765 -0.0767617 -0.652219)
(-0.831901 -0.0390703 -0.687515)
(-0.809393 -0.0511337 -0.661894)
(-0.832706 -0.0581292 -0.639366)
(-0.802578 -0.0731961 -0.638633)
(-0.921018 -0.0112055 -0.704203)
(-0.754293 -0.0895636 -0.6282)
(-0.860911 -0.0242768 -0.690503)
(-0.790439 -0.060418 -0.649925)
(-0.801951 -0.07262 -0.647618)
(-0.498825 -0.188613 -0.31346)
(-0.529843 -0.177934 -0.32887)
(-0.627311 -0.178514 -0.408066)
(-0.572501 -0.181623 -0.379123)
(-0.649768 -0.171922 -0.402223)
(-0.505831 -0.183532 -0.325999)
(-0.460287 -0.193667 -0.296045)
(-0.643835 -0.177135 -0.408711)
(-0.603774 -0.194241 -0.419159)
(-0.596259 -0.196542 -0.42407)
(-0.647432 -0.178157 -0.430907)
(-0.539201 -0.209354 -0.384942)
(-0.482579 -0.189777 -0.334693)
(-0.598256 -0.199283 -0.404578)
(-0.460566 -0.00775112 -0.444503)
(-0.463935 -0.000694442 -0.448653)
(-0.424924 -0.00463174 -0.419497)
(-0.411966 0.0015659 -0.40242)
(-0.351267 -0.0291248 -0.372701)
(-0.371179 -0.0148169 -0.378387)
(-0.446439 -0.0230532 -0.441389)
(-0.460754 -0.0200358 -0.461268)
(-0.371206 -0.0395442 -0.393597)
(-0.392324 -0.034932 -0.422769)
(-0.361328 -0.0135342 -0.364457)
(-0.328713 -0.0255183 -0.340264)
(-0.410159 -0.0253817 -0.423754)
(-0.391299 -0.0392939 -0.420798)
(-0.388455 -0.0475141 -0.420063)
(-0.349393 -0.0428499 -0.369451)
(-0.386537 -0.0159624 -0.394526)
(-0.384674 -0.0185202 -0.387585)
(-0.36498 -0.0327158 -0.386108)
(-0.34043 -0.0314644 -0.363872)
(-0.9819 0.0101298 -0.691349)
(-0.988106 -0.0119466 -0.715319)
(-0.967293 -0.018202 -0.713478)
(-0.980695 -0.015726 -0.716852)
(-0.982969 -0.0171783 -0.716427)
(-0.986817 -0.000928505 -0.700699)
(-0.993884 -0.0164097 -0.717783)
(-1.00585 -0.00482841 -0.697153)
(-0.977624 0.00696849 -0.667454)
(-0.951506 0.0228621 -0.631632)
(-0.928769 0.0301491 -0.615921)
(-0.980643 0.000599642 -0.701744)
(-0.950924 0.0193034 -0.637177)
(-0.942603 0.0344706 -0.62066)
(-1.00984 -0.0170013 -0.719151)
(-1.00448 0.00896961 -0.65696)
(-1.04643 0.00675747 -0.699539)
(-0.923331 -0.113533 -0.634066)
(-0.877115 -0.0971532 -0.610404)
(-0.741353 -0.195626 -0.483455)
(-0.758686 -0.186989 -0.520634)
(-0.858849 -0.123854 -0.576135)
(-0.77392 -0.174273 -0.509324)
(-0.73293 -0.200294 -0.493891)
(-0.748224 -0.207802 -0.529854)
(-0.790226 -0.0737961 -0.497227)
(-0.846037 -0.0885547 -0.54628)
(-0.768324 -0.140939 -0.472193)
(-0.75579 -0.13663 -0.457928)
(-0.776149 -0.179894 -0.490649)
(-0.763452 -0.213411 -0.526775)
(-0.764557 -0.207549 -0.51924)
(-0.794287 -0.155468 -0.528589)
(-0.811391 -0.100002 -0.515)
(-0.823396 -0.167285 -0.571661)
(-0.615209 -0.205159 -0.482147)
(-0.60032 -0.207813 -0.486008)
(-0.72034 -0.189225 -0.528715)
(-0.711895 -0.192163 -0.522665)
(-0.806736 -0.162892 -0.6012)
(-0.773307 -0.183111 -0.576496)
(-0.615847 -0.19316 -0.508746)
(-0.595947 -0.204046 -0.485498)
(-0.611281 -0.182731 -0.518746)
(-0.574942 -0.189725 -0.480795)
(-0.806383 -0.165883 -0.619634)
(-0.777395 -0.174546 -0.60585)
(-0.645178 -0.184252 -0.523763)
(-0.64722 -0.189713 -0.540762)
(-0.781073 -0.175553 -0.591246)
(-0.790169 -0.185566 -0.600097)
(-0.636036 -0.211007 -0.511138)
(-0.644346 -0.186601 -0.537276)
(-0.60927 -0.191255 -0.512989)
(-0.772483 -0.165123 -0.613077)
(-0.754349 -0.176527 -0.600345)
(-0.761118 -0.166747 -0.603383)
(-0.762398 -0.166417 -0.590144)
(-0.783921 -0.0886564 -0.55951)
(-0.715225 -0.0900627 -0.502509)
(-0.684357 -0.0918705 -0.48867)
(-0.740809 -0.0938505 -0.548799)
(-0.877329 -0.110323 -0.644412)
(-0.887907 -0.107339 -0.635365)
(-0.846608 -0.0981797 -0.585377)
(-0.779823 -0.0936864 -0.545948)
(-0.729327 -0.095882 -0.535447)
(-0.783674 -0.10672 -0.589289)
(-0.86458 -0.111765 -0.646683)