/*--------------------------------*- C++ -*----------------------------------*\
| =========                 |                                                 |
| \\      /  F ield         | OpenFOAM: The Open Source CFD Toolbox           |
|  \\    /   O peration     | Version:  v1612+                                |
|   \\  /    A nd           | Web:      www.OpenFOAM.com                      |
|    \\/     M anipulation  |                                                 |
\*---------------------------------------------------------------------------*/
FoamFile
{
    version     2.0;
    format      ascii;
    class       volScalarField;
    location    "206";
    object      p;
}
// * * * * * * * * * * * * * * * * * * * * * * * * * * * * * * * * * * * * * //

dimensions      [0 2 -2 0 0 0 0];

internalField   nonuniform List<scalar> 
18941
(
2.75397
2.65114
2.59628
2.59944
2.59806
2.59718
2.59668
2.59815
2.59274
2.59922
2.59975
2.5983
2.59722
2.59521
2.5909
2.59476
2.58961
2.59091
2.59321
2.62401
2.61959
2.62151
2.62265
2.6251
2.6232
2.62025
2.62226
2.62298
2.61909
2.61765
2.61682
2.61725
2.61782
2.62073
2.62036
2.61922
2.62013
2.61747
2.61992
2.61497
2.61755
2.71255
2.71192
2.70565
2.69807
2.71724
2.70793
2.71033
2.72264
2.72473
2.71831
2.72736
2.72157
2.69392
2.70402
2.70038
2.71227
2.71568
2.73239
2.72268
2.69615
2.67323
2.64733
2.65131
2.64975
2.65339
2.66315
2.65671
2.67267
2.66954
2.6596
2.6642
2.65486
2.66357
2.64923
2.66113
2.64969
2.66409
2.65474
2.66589
2.68819
2.68661
2.69054
2.69816
2.71776
2.69632
2.70432
2.7031
2.69637
2.71272
2.69383
2.70312
2.70932
2.70718
2.717
2.70559
2.66699
2.67382
2.67196
2.67437
2.66543
2.66711
2.67273
2.67045
2.67842
2.67628
2.67438
2.67243
2.67594
2.67317
2.66543
2.67527
2.71605
2.71901
2.71744
2.72289
2.69824
2.70027
2.70923
2.71185
2.68991
2.69272
2.69025
2.69204
2.69381
2.69763
2.71347
2.6861
2.69994
2.69323
2.61506
2.60972
2.62728
2.6263
2.61072
2.6146
2.62083
2.6214
2.62543
2.62031
2.62466
2.62479
2.62193
2.62574
2.62645
2.62572
2.63095
2.62516
2.60675
2.60687
2.6094
2.60462
2.6058
2.60498
2.60609
2.59663
2.59644
2.68764
2.68294
2.70435
2.71668
2.71664
2.71217
2.68771
2.70918
2.69754
2.70054
2.70251
2.70353
2.70867
2.71493
2.70358
2.69971
2.7248
2.72731
2.71097
2.69884
2.70785
2.71216
2.72099
2.71992
2.71246
2.7047
2.71391
2.71038
2.71826
2.7054
2.71154
2.71223
2.70122
2.70379
2.72699
2.73687
2.74542
2.74332
2.76109
2.75412
2.75266
2.75216
2.74967
2.73766
2.72915
2.71521
2.71947
2.75331
2.77006
2.72755
2.72844
2.73521
2.7543
2.72703
2.74544
2.74752
2.74773
2.76027
2.77047
2.78618
2.7457
2.77504
2.78508
2.75586
2.74437
2.73875
2.749
2.75192
2.76211
2.7611
2.77692
2.73482
2.73803
2.74932
2.76485
2.77202
2.7603
2.77891
2.74763
2.76811
2.76976
2.74519
2.74962
2.74224
2.75261
2.73162
2.72585
2.73703
2.72611
2.75319
2.74617
2.75406
2.7316
2.72612
2.74745
2.74072
2.74451
2.65505
2.65224
2.66047
2.65899
2.67055
2.65237
2.66527
2.67245
2.6657
2.67168
2.6856
2.67368
2.6728
2.68534
2.68344
2.68267
2.68192
2.67171
2.68082
2.68616
2.68577
2.69459
2.68836
2.68409
2.68666
2.69599
2.69468
2.70142
2.69381
2.70913
2.71199
2.70893
2.70915
2.70043
2.7029
2.69726
2.68694
2.69408
2.58615
2.57537
2.57695
2.57583
2.56873
2.57469
2.56771
2.56978
2.71222
2.71222
2.70183
2.69981
2.70298
2.71168
2.68566
2.69043
2.70278
2.69537
2.6994
2.69064
2.6861
2.69213
2.69127
2.70108
2.69875
2.70117
2.68565
2.74472
2.74222
2.73517
2.73447
2.7347
2.74954
2.74446
2.72705
2.72667
2.72856
2.73968
2.72251
2.73338
2.73707
2.74064
2.72273
2.71805
2.72964
2.58275
2.58348
2.58271
2.58714
2.58841
2.59146
2.5819
2.58744
2.58747
2.59334
2.59246
2.58747
2.58418
2.58436
2.58701
2.59342
2.65258
2.66051
2.65176
2.67324
2.67855
2.67176
2.65709
2.64894
2.65629
2.66943
2.67583
2.67328
2.65929
2.65638
2.65478
2.65271
2.65023
2.65628
2.65437
2.66424
2.66381
2.65264
2.65479
2.65015
2.65287
2.65307
2.64874
2.66143
2.66364
2.64828
2.65538
2.65478
2.64736
2.61988
2.62124
2.61742
2.62444
2.63278
2.62419
2.62452
2.62645
2.62652
2.63036
2.63854
2.62695
2.62424
2.61533
2.61976
2.62595
2.62979
2.62911
2.62049
2.6229
2.61739
2.62472
2.63349
2.65628
2.67058
2.65548
2.64875
2.64896
2.65996
2.64458
2.63666
2.65986
2.66979
2.63796
2.64678
2.65422
2.66317
2.63349
2.64354
2.62938
2.66734
2.65063
2.67088
2.71848
2.72202
2.70135
2.68015
2.68772
2.70884
2.70534
2.69059
2.68857
2.72447
2.72317
2.71299
2.70025
2.7111
2.7201
2.71132
2.72628
2.63626
2.63315
2.63193
2.62345
2.6372
2.63436
2.6285
2.63039
2.63548
2.63903
2.63638
2.63514
2.66047
2.65834
2.66452
2.65987
2.66364
2.67167
2.65532
2.66525
2.67449
2.67485
2.67087
2.66463
2.65766
2.65981
2.65832
2.66414
2.66624
2.671
2.7211
2.71796
2.71694
2.71727
2.71845
2.69815
2.70766
2.71802
2.70725
2.6902
2.69429
2.70632
2.69223
2.67922
2.69397
2.69973
2.76111
2.76787
2.76775
2.77071
2.76747
2.75638
2.77643
2.76995
2.76759
2.77287
2.76868
2.77183
2.77644
2.77753
2.78304
2.77045
2.77932
2.78497
2.66889
2.66838
2.66651
2.66452
2.66762
2.67348
2.65858
2.66061
2.6649
2.67518
2.66322
2.68504
2.67811
2.67519
2.67923
2.6781
2.68269
2.67954
2.6627
2.68583
2.67247
2.66784
2.66519
2.65658
2.65657
2.67643
2.67226
2.6633
2.66318
2.66161
2.65925
2.673
2.66896
2.66511
2.66208
2.67896
2.65078
2.64821
2.64515
2.64138
2.64095
2.65041
2.65214
2.63928
2.64647
2.65223
2.64201
2.64792
2.74388
2.75361
2.73081
2.72668
2.74674
2.75766
2.72864
2.72748
2.74343
2.75347
2.76498
2.75183
2.76607
2.76118
2.77033
2.7435
2.75908
2.76112
2.76743
2.77897
2.78419
2.76478
2.75919
2.78084
2.78248
2.78383
2.78087
2.78657
2.77916
2.78309
2.77449
2.78693
2.79427
2.7786
2.79544
2.65996
2.66463
2.65209
2.65379
2.65781
2.65221
2.66685
2.66608
2.65709
2.66483
2.64741
2.65487
2.66245
2.65489
2.65348
2.66409
2.66599
2.65296
2.64875
2.66364
2.65545
2.64118
2.64108
2.65105
2.72481
2.72949
2.71588
2.72799
2.73359
2.73062
2.73595
2.7344
2.7101
2.72775
2.65894
2.66021
2.64923
2.65146
2.65546
2.66568
2.67194
2.66945
2.668
2.64838
2.676
2.67415
2.65156
2.65825
2.65808
2.66389
2.66959
2.67205
2.76068
2.76768
2.75533
2.73926
2.73455
2.74982
2.76433
2.7211
2.728
2.74055
2.76993
2.759
2.72408
2.72422
2.73045
2.73642
2.71994
2.72884
2.74241
2.74302
2.735
2.73406
2.71153
2.71226
2.71568
2.7173
2.71832
2.71744
2.69461
2.69956
2.69734
2.70232
2.70924
2.71181
2.71199
2.69839
2.70166
2.71591
2.70971
2.70807
2.70523
2.70243
2.70378
2.66233
2.65926
2.66863
2.65992
2.68167
2.68711
2.67255
2.68638
2.66477
2.66803
2.65692
2.66564
2.6657
2.69038
2.67669
2.68394
2.6821
2.69335
2.66999
2.6802
2.681
2.68375
2.6877
2.67981
2.68394
2.68731
2.69697
2.67819
2.69216
2.69202
2.69797
2.67953
2.68792
2.68993
2.68428
2.68738
2.67564
2.67379
2.67314
2.67337
2.67568
2.67249
2.67267
2.67773
2.67865
2.68703
2.67919
2.67831
2.67464
2.682
2.68327
2.66975
2.68467
2.67792
2.68805
2.68233
2.67702
2.67206
2.67971
2.68122
2.68055
2.69129
2.67876
2.68135
2.6981
2.68752
2.67981
2.69025
2.69232
2.66985
2.66893
2.6739
2.6769
2.69859
2.7057
2.70226
2.61374
2.60999
2.60021
2.60131
2.62467
2.6118
2.60766
2.60604
2.59777
2.59698
2.60602
2.62789
2.60078
2.62172
2.60669
2.61153
2.61777
2.62185
2.59172
2.5886
2.58094
2.58244
2.59271
2.59181
2.58991
2.58795
2.57832
2.58242
2.74079
2.74368
2.73939
2.74659
2.73851
2.73693
2.74421
2.72849
2.72573
2.72972
2.73796
2.74063
2.72438
2.71885
2.71777
2.73067
2.74765
2.72372
2.72967
2.71807
2.71908
2.72481
2.7407
2.73114
2.74116
2.72886
2.73888
2.69186
2.68181
2.69363
2.68239
2.68619
2.67929
2.66535
2.66611
2.68027
2.68664
2.6749
2.66877
2.6739
2.67512
2.65439
2.65041
2.63596
2.64748
2.65968
2.64157
2.65226
2.6434
2.66316
2.64601
2.64799
2.64518
2.64849
2.65111
2.63881
2.64357
2.6397
2.64082
2.63196
2.63451
2.63764
2.64365
2.63972
2.64256
2.64338
2.64305
2.64503
2.63678
2.63897
2.63703
2.63151
2.64243
2.63967
2.6433
2.68393
2.69186
2.68965
2.69812
2.69709
2.69386
2.69414
2.69774
2.69534
2.69365
2.6974
2.69
2.69695
2.65166
2.66336
2.66598
2.67599
2.66903
2.65898
2.68298
2.68152
2.66094
2.66411
2.65662
2.65462
2.65173
2.65169
2.65491
2.64745
2.64818
2.65768
2.65701
2.64516
2.64724
2.64701
2.65127
2.65861
2.65751
2.64964
2.65533
2.65425
2.64791
2.65348
2.5951
2.60016
2.59449
2.595
2.59609
2.5947
2.59925
2.597
2.61318
2.61587
2.60616
2.60597
2.61203
2.61681
2.60877
2.61528
2.6023
2.61274
2.60082
2.60705
2.61295
2.61562
2.61679
2.61934
2.61959
2.62061
2.60739
2.61354
2.61235
2.70265
2.70054
2.70426
2.70187
2.7129
2.7189
2.71879
2.73162
2.73294
2.72279
2.74807
2.72551
2.7297
2.7466
2.74297
2.73677
2.62953
2.63983
2.63207
2.61844
2.61938
2.62267
2.6392
2.6421
2.62945
2.61744
2.62085
2.62137
2.62361
2.63734
2.63123
2.67813
2.67879
2.68756
2.68326
2.67901
2.68789
2.68901
2.68398
2.68103
2.69728
2.69165
2.67883
2.67673
2.68554
2.68892
2.68916
2.76699
2.76963
2.7645
2.7643
2.77039
2.76338
2.74906
2.76104
2.7613
2.75579
2.76196
2.75054
2.76394
2.74761
2.76124
2.74629
2.75261
2.7371
2.73388
2.66325
2.67081
2.65192
2.65815
2.66853
2.66081
2.64748
2.65313
2.65191
2.65636
2.6555
2.66228
2.70041
2.69543
2.69963
2.69646
2.69914
2.69963
2.7186
2.72053
2.71901
2.72001
2.70824
2.71446
2.69674
2.7048
2.72149
2.71786
2.72383
2.71832
2.71579
2.72383
2.71897
2.71897
2.70808
2.72265
2.71447
2.71284
2.72591
2.73261
2.72705
2.70834
2.70819
2.71254
2.71794
2.73788
2.73916
2.73347
2.71411
2.7221
2.72772
2.72956
2.72401
2.77269
2.77659
2.78596
2.78772
2.77323
2.77979
2.77563
2.77938
2.77915
2.79107
2.76459
2.77217
2.7647
2.76263
2.76885
2.76293
2.69576
2.69747
2.69766
2.70328
2.71509
2.71364
2.69942
2.69099
2.69631
2.69929
2.70538
2.7156
2.71342
2.70931
2.70409
2.7058
2.69522
2.69398
2.70418
2.70261
2.70796
2.70578
2.65983
2.66682
2.65506
2.65979
2.66676
2.66706
2.6701
2.66816
2.66704
2.66355
2.66122
2.66744
2.66187
2.67139
2.66664
2.66206
2.66201
2.65675
2.66341
2.6596
2.65757
2.65924
2.6672
2.66417
2.68241
2.69634
2.68113
2.67539
2.68059
2.70364
2.69216
2.67739
2.68406
2.69381
2.68498
2.67559
2.68398
2.67605
2.68435
2.69854
2.69324
2.67802
2.68443
2.69846
2.67771
2.6828
2.67039
2.67747
2.67126
2.68236
2.68391
2.67952
2.66769
2.73537
2.7371
2.73904
2.73818
2.73737
2.7286
2.7268
2.73695
2.7373
2.72065
2.72685
2.72251
2.72375
2.66309
2.65944
2.65375
2.65731
2.65582
2.65693
2.66447
2.66773
2.65887
2.66577
2.66391
2.65524
2.65274
2.65639
2.66307
2.66766
2.66266
2.66779
2.65274
2.65499
2.62946
2.62958
2.6325
2.62793
2.6297
2.63183
2.62835
2.62726
2.63
2.62646
2.625
2.62599
2.6263
2.62636
2.62291
2.62883
2.62708
2.62509
2.62271
2.62553
2.62619
2.62149
2.76011
2.76267
2.76062
2.77349
2.75665
2.76274
2.74571
2.74953
2.75789
2.75607
2.74092
2.72824
2.74657
2.74015
2.735
2.72759
2.72267
2.72651
2.74346
2.67752
2.68968
2.66889
2.68425
2.67504
2.68536
2.65285
2.65278
2.64297
2.65538
2.64385
2.6706
2.65408
2.66192
2.65353
2.66401
2.66578
2.65536
2.64059
2.63168
2.64502
2.6543
2.65068
2.62255
2.63436
2.63598
2.63092
2.64595
2.69873
2.69519
2.7029
2.70763
2.69418
2.69749
2.68835
2.70204
2.6907
2.69779
2.685
2.68222
2.68132
2.67847
2.68115
2.6758
2.5941
2.59567
2.5977
2.59512
2.59684
2.59623
2.5941
2.59315
2.58937
2.59204
2.59451
2.58959
2.62213
2.62339
2.63487
2.64347
2.64695
2.63561
2.6484
2.64367
2.6407
2.63622
2.64583
2.64661
2.65084
2.64322
2.67136
2.67424
2.67738
2.6794
2.70921
2.727
2.6901
2.70706
2.70281
2.71098
2.71632
2.68799
2.68988
2.70042
2.70898
2.70467
2.70449
2.70438
2.70617
2.70399
2.70463
2.70524
2.7089
2.69954
2.70779
2.69605
2.69589
2.69987
2.69102
2.69425
2.69062
2.69081
2.69017
2.69859
2.69618
2.69295
2.74801
2.75473
2.75133
2.74408
2.75226
2.74839
2.76199
2.76348
2.76269
2.76213
2.74673
2.75719
2.76091
2.7671
2.76468
2.76364
2.76186
2.7489
2.72639
2.731
2.72681
2.71597
2.71387
2.72874
2.73837
2.7369
2.70995
2.72869
2.73538
2.73998
2.71461
2.72235
2.72818
2.7178
2.70679
2.71064
2.72206
2.72064
2.73579
2.72556
2.73077
2.69452
2.70412
2.72197
2.71798
2.72829
2.71633
2.69839
2.69758
2.69421
2.71688
2.72971
2.70262
2.70313
2.71537
2.71822
2.72685
2.71969
2.709
2.69637
2.69782
2.71004
2.70473
2.71735
2.71178
2.66561
2.66242
2.64962
2.66659
2.67077
2.65678
2.6595
2.66241
2.65783
2.66096
2.67655
2.6776
2.6649
2.66203
2.70302
2.70541
2.70775
2.71275
2.71204
2.70534
2.70338
2.71771
2.72988
2.73027
2.71854
2.72266
2.7254
2.72119
2.71542
2.712
2.71858
2.72221
2.70869
2.71701
2.71799
2.70928
2.69369
2.69421
2.70512
2.688
2.68572
2.68815
2.68807
2.68568
2.70555
2.68801
2.68274
2.68431
2.68535
2.70218
2.69441
2.68825
2.72012
2.70967
2.68949
2.70731
2.70825
2.71849
2.59305
2.5938
2.59736
2.58134
2.58263
2.62127
2.61572
2.60581
2.60649
2.6107
2.60505
2.6022
2.61711
2.61925
2.61682
2.74697
2.74543
2.74261
2.63292
2.63486
2.60143
2.60733
2.60369
2.60688
2.71958
2.71884
2.72361
2.61078
2.60872
2.68125
2.6764
2.66427
2.60331
2.60146
2.59644
2.60577
2.63637
2.63334
2.63322
2.65193
2.65416
2.76094
2.7525
2.75039
2.74467
2.70216
2.69591
2.68438
2.62066
2.61902
2.6252
2.7558
2.75229
2.75618
2.63351
2.63164
2.61644
2.67984
2.68338
2.61381
2.61046
2.7369
2.73451
2.62275
2.62032
2.65969
2.64965
2.65023
2.68885
2.68821
2.62428
2.62573
2.62873
2.62913
2.64088
2.64624
2.63746
2.63942
2.77119
2.76769
2.6231
2.62017
2.61803
2.66223
2.65979
2.65141
2.65241
2.75364
2.73947
2.74955
2.74217
2.73415
2.71048
2.7037
2.63562
2.64071
2.63671
2.77727
2.77693
2.65324
2.65212
2.68858
2.68566
2.72392
2.72096
2.63177
2.62931
2.63166
2.67175
2.67175
2.77259
2.77102
2.77714
2.64388
2.642
2.7549
2.73908
2.74314
2.73185
2.69775
2.69464
2.70588
2.70652
2.79076
2.78776
2.64414
2.64256
2.63834
2.70563
2.71499
2.71017
2.64407
2.64374
2.64026
2.63886
2.6882
2.68232
2.68099
2.74298
2.741
2.78975
2.78754
2.64691
2.64867
2.79497
2.79677
2.66122
2.65624
2.70352
2.70238
2.69268
2.69219
2.63968
2.64326
2.65548
2.65478
2.69468
2.69558
2.74111
2.74285
2.76085
2.75896
2.70954
2.70163
2.70031
2.80259
2.79544
2.79996
2.64645
2.64046
2.67837
2.68123
2.68178
2.7511
2.74717
2.75551
2.65244
2.65327
2.64419
2.79389
2.79533
2.71675
2.71222
2.71794
2.66629
2.66714
2.66875
2.66907
2.66512
2.72418
2.72391
2.73931
2.74124
2.70398
2.71188
2.71104
2.79947
2.80403
2.79792
2.65766
2.65612
2.65477
2.68598
2.68719
2.69636
2.69727
2.77551
2.79116
2.78581
2.7848
2.6813
2.67819
2.67718
2.75928
2.75806
2.66362
2.66836
2.73114
2.73675
2.69597
2.69555
2.66699
2.67343
2.72816
2.68285
2.68663
2.69447
2.6916
2.6909
2.69703
2.79069
2.78769
2.79832
2.65725
2.67066
2.66582
2.66861
2.67025
2.67121
2.67687
2.64774
2.66997
2.66523
2.76943
2.76981
2.77604
2.79951
2.79498
2.78789
2.78412
2.79179
2.79281
2.78838
2.78358
2.77469
2.77575
2.78262
2.78095
2.79833
2.80295
2.79784
2.7928
2.79234
2.68783
2.68342
2.68498
2.68941
2.68652
2.6848
2.6916
2.70134
2.69715
2.69559
2.69721
2.71933
2.71391
2.72102
2.71362
2.71253
2.70928
2.70657
2.71411
2.72139
2.72595
2.73833
2.74864
2.75399
2.66543
2.67008
2.67008
2.67921
2.67813
2.69272
2.69806
2.68204
2.67682
2.67893
2.67637
2.73398
2.73355
2.7615
2.76566
2.75878
2.75585
2.74657
2.73419
2.74835
2.7465
2.73745
2.73434
2.7562
2.75864
2.76589
2.77747
2.783
2.78566
2.78811
2.79557
2.79327
2.7844
2.7761
2.78548
2.77917
2.77102
2.77579
2.7803
2.77216
2.77652
2.77881
2.77964
2.77321
2.7744
2.77348
2.77999
2.78432
2.79123
2.78993
2.78036
2.78371
2.77877
2.77391
2.78102
2.79091
2.78222
2.6604
2.66706
2.6586
2.67752
2.66564
2.68211
2.67139
2.66727
2.68518
2.68819
2.6726
2.671
2.6822
2.67663
2.67069
2.66646
2.7141
2.72883
2.71171
2.70339
2.71314
2.70477
2.73128
2.68818
2.68666
2.69264
2.67021
2.67038
2.67165
2.6808
2.68006
2.68321
2.69049
2.69256
2.68818
2.69064
2.69103
2.68755
2.68731
2.68709
2.68487
2.66151
2.65831
2.65256
2.65663
2.66158
2.65195
2.65097
2.65379
2.658
2.65258
2.64427
2.65031
2.6503
2.65068
2.65678
2.65873
2.66018
2.79878
2.80668
2.78983
2.80895
2.80307
2.80201
2.79711
2.7933
2.78793
2.78055
2.79807
2.79169
2.78943
2.79904
2.78882
2.8035
2.79752
2.71869
2.71182
2.71175
2.70849
2.70154
2.7041
2.70131
2.69581
2.70568
2.70502
2.71164
2.71404
2.71779
2.72465
2.71703
2.71438
2.73751
2.72351
2.7338
2.75188
2.74686
2.75756
2.75037
2.74977
2.75163
2.76208
2.75352
2.7553
2.75144
2.74031
2.76207
2.76185
2.6755
2.7006
2.69654
2.68185
2.70534
2.71322
2.76998
2.78281
2.78056
2.71752
2.71429
2.70903
2.69974
2.69329
2.69895
2.69815
2.74923
2.74049
2.74184
2.74968
2.74989
2.74308
2.73117
2.74774
2.73866
2.72759
2.72643
2.7387
2.7242
2.73845
2.74076
2.74126
2.74021
2.73511
2.74293
2.734
2.65573
2.65941
2.67782
2.66232
2.65884
2.65347
2.66377
2.67073
2.67011
2.66775
2.66924
2.66879
2.66065
2.65739
2.66756
2.66473
2.66402
2.66028
2.64763
2.66524
2.6475
2.64979
2.65449
2.66012
2.66309
2.66227
2.6528
2.66274
2.65557
2.64949
2.66161
2.72887
2.7273
2.71562
2.73162
2.69475
2.7002
2.70548
2.70333
2.71877
2.71225
2.7207
2.72436
2.72461
2.79029
2.79048
2.79301
2.75573
2.75828
2.76703
2.80467
2.80416
2.79974
2.79976
2.78676
2.78942
2.77358
2.79068
2.78287
2.79238
2.63543
2.64946
2.64161
2.66053
2.65529
2.65596
2.65484
2.64967
2.7375
2.74837
2.74069
2.75281
2.74547
2.76386
2.77104
2.77613
2.75114
2.76558
2.67326
2.67699
2.67431
2.67834
2.68941
2.68824
2.68889
2.67919
2.67887
2.66754
2.6685
2.66033
2.68795
2.69117
2.68664
2.68735
2.69542
2.69322
2.65911
2.64918
2.65534
2.65856
2.66045
2.66926
2.66248
2.63828
2.64818
2.65142
2.65282
2.65697
2.64656
2.65242
2.65494
2.64763
2.64414
2.6436
2.64916
2.64873
2.638
2.65448
2.79471
2.78917
2.79639
2.68984
2.69428
2.70116
2.69819
2.67211
2.67721
2.69346
2.68341
2.66005
2.68079
2.68645
2.72808
2.69862
2.7473
2.72093
2.74205
2.72959
2.74743
2.68183
2.68759
2.67801
2.67974
2.68761
2.69411
2.69448
2.69124
2.66943
2.67472
2.66753
2.74313
2.73303
2.75267
2.75454
2.76221
2.75166
2.74351
2.73745
2.75059
2.74711
2.74754
2.75315
2.7503
2.77249
2.77949
2.77247
2.76413
2.78245
2.77085
2.76916
2.75954
2.76113
2.71978
2.69959
2.72391
2.7285
2.72091
2.71024
2.70187
2.69445
2.74126
2.74034
2.73146
2.72115
2.72798
2.75011
2.74025
2.76673
2.75752
2.76402
2.7436
2.75249
2.74613
2.75936
2.75535
2.68721
2.68729
2.69461
2.69089
2.7104
2.69124
2.70856
2.69413
2.70518
2.69775
2.7103
2.7059
2.70801
2.70383
2.71612
2.71355
2.6455
2.6489
2.64883
2.64169
2.6405
2.64933
2.65341
2.64948
2.64278
2.63646
2.64352
2.64
2.64191
2.64425
2.64499
2.64228
2.64305
2.64495
2.64201
2.64309
2.63813
2.64483
2.68498
2.69275
2.68452
2.6928
2.71611
2.70672
2.69951
2.70737
2.69637
2.69134
2.69947
2.68962
2.7203
2.71187
2.7047
2.70977
2.69898
2.69416
2.69746
2.73015
2.71795
2.71138
2.7052
2.72285
2.70132
2.70651
2.71525
2.70788
2.71301
2.70463
2.65077
2.64669
2.65968
2.6473
2.64829
2.66999
2.6619
2.66312
2.67514
2.67031
2.66343
2.64799
2.64568
2.64362
2.64685
2.65334
2.65235
2.65475
2.64879
2.65092
2.64276
2.64358
2.64997
2.65973
2.65102
2.64767
2.79111
2.79336
2.78944
2.79211
2.79838
2.78821
2.6384
2.65238
2.64808
2.65172
2.65006
2.64957
2.6364
2.63721
2.64351
2.64064
2.64222
2.64428
2.64268
2.66072
2.65807
2.65636
2.65021
2.65897
2.65547
2.65023
2.65361
2.65318
2.64896
2.64948
2.76515
2.7742
2.77495
2.78158
2.72092
2.73607
2.73933
2.74634
2.73575
2.72946
2.71187
2.7143
2.71433
2.73553
2.73745
2.72863
2.72851
2.73301
2.76971
2.73677
2.74445
2.76441
2.76264
2.76175
2.75552
2.74832
2.75349
2.75468
2.66203
2.66265
2.67145
2.6621
2.65889
2.67315
2.67437
2.63691
2.64004
2.63944
2.6367
2.63983
2.73537
2.7361
2.72281
2.71965
2.71276
2.74011
2.74804
2.74778
2.74325
2.72397
2.72876
2.72183
2.73017
2.71811
2.65393
2.64887
2.64364
2.63548
2.6366
2.63832
2.63764
2.63808
2.64534
2.64411
2.63626
2.64406
2.6386
2.63638
2.76897
2.77205
2.79246
2.78769
2.78662
2.77835
2.76852
2.77528
2.77941
2.76074
2.76603
2.78095
2.76549
2.75602
2.76673
2.78218
2.77411
2.78391
2.77178
2.79271
2.77757
2.78303
2.77474
2.76502
2.7647
2.78024
2.78919
2.78201
2.71228
2.71077
2.70089
2.72024
2.7082
2.67348
2.68196
2.68439
2.6916
2.68158
2.68351
2.68304
2.68713
2.69283
2.69334
2.73053
2.72367
2.73716
2.74508
2.72781
2.75351
2.73244
2.76504
2.7639
2.75817
2.7663
2.74367
2.73978
2.76359
2.75074
2.74727
2.75175
2.73916
2.74817
2.74793
2.75119
2.74147
2.74202
2.74513
2.74071
2.64039
2.64089
2.63323
2.64344
2.64083
2.63183
2.63371
2.63461
2.63546
2.74821
2.75574
2.74982
2.73337
2.75964
2.76213
2.77648
2.77291
2.76447
2.67293
2.6854
2.67107
2.6693
2.68742
2.67191
2.68948
2.69029
2.70009
2.68184
2.68821
2.69841
2.6931
2.68254
2.71041
2.66043
2.66079
2.66871
2.67094
2.65806
2.66794
2.6609
2.66635
2.66257
2.67069
2.66514
2.66177
2.66213
2.65218
2.64824
2.66551
2.67001
2.62708
2.63323
2.6314
2.6264
2.62393
2.62679
2.63139
2.63094
2.63354
2.63552
2.63511
2.63725
2.63223
2.62906
2.62657
2.62204
2.62584
2.62842
2.63062
2.7201
2.73001
2.719
2.71689
2.75173
2.74862
2.74208
2.73282
2.75027
2.73915
2.73609
2.70656
2.70318
2.63225
2.63314
2.64692
2.64343
2.63638
2.65598
2.65394
2.65401
2.67035
2.64403
2.64869
2.63918
2.64168
2.64581
2.6435
2.64173
2.64769
2.653
2.65433
2.64961
2.75929
2.75005
2.77336
2.76231
2.77253
2.76513
2.76283
2.76088
2.75678
2.76258
2.76425
2.75478
2.76057
2.7666
2.75762
2.77991
2.76573
2.76725
2.75897
2.74518
2.76783
2.75323
2.75612
2.74699
2.68375
2.69005
2.68032
2.69351
2.6935
2.75785
2.75737
2.74281
2.7385
2.72669
2.74278
2.75351
2.72247
2.71865
2.72816
2.72533
2.73606
2.73745
2.72573
2.73867
2.73374
2.75077
2.73678
2.63982
2.65032
2.64358
2.65514
2.6621
2.65156
2.67573
2.68098
2.68407
2.68969
2.67316
2.6711
2.69046
2.68897
2.61853
2.62332
2.63092
2.61595
2.61777
2.6263
2.60717
2.61721
2.6176
2.62022
2.61261
2.61683
2.6155
2.62618
2.62852
2.62995
2.76474
2.77157
2.75734
2.76135
2.76012
2.7709
2.74843
2.7444
2.75525
2.75658
2.77124
2.76828
2.62562
2.6285
2.63603
2.63615
2.63536
2.63569
2.63042
2.62998
2.62136
2.6181
2.62182
2.62339
2.6188
2.61883
2.62344
2.62357
2.61932
2.62052
2.62179
2.62093
2.6523
2.66316
2.6641
2.66995
2.66981
2.67184
2.66284
2.6662
2.66332
2.65272
2.66725
2.67178
2.67507
2.66044
2.71378
2.70196
2.70353
2.71185
2.72053
2.70371
2.69087
2.70054
2.7083
2.72002
2.70512
2.71276
2.70928
2.70103
2.6261
2.63507
2.63836
2.63581
2.63147
2.63677
2.63805
2.6441
2.64787
2.64521
2.6406
2.6333
2.63825
2.63917
2.64558
2.6341
2.63201
2.63515
2.632
2.60647
2.60515
2.61401
2.61361
2.61325
2.62284
2.61833
2.6168
2.60389
2.60818
2.60973
2.61705
2.60569
2.60532
2.61575
2.61343
2.61901
2.61903
2.62909
2.63018
2.6249
2.63313
2.63109
2.63445
2.6272
2.62169
2.61772
2.61947
2.70545
2.7331
2.73523
2.7355
2.74508
2.74151
2.73142
2.71913
2.73653
2.72898
2.74119
2.72489
2.73541
2.72459
2.60519
2.61155
2.59905
2.60255
2.60787
2.60968
2.60871
2.61207
2.60956
2.60489
2.6136
2.61772
2.61561
2.62011
2.60821
2.61323
2.6144
2.61942
2.61657
2.61379
2.61463
2.61446
2.60172
2.60718
2.60499
2.61044
2.6051
2.60361
2.60523
2.60788
2.61603
2.61516
2.6052
2.60628
2.6471
2.64281
2.66286
2.66294
2.65622
2.65399
2.66575
2.66659
2.63373
2.63699
2.63167
2.6315
2.63801
2.72872
2.7309
2.73521
2.74067
2.74941
2.74718
2.75028
2.76634
2.75097
2.73989
2.7435
2.76108
2.74669
2.74897
2.74843
2.76937
2.76044
2.75276
2.76012
2.75137
2.75027
2.61804
2.62326
2.62778
2.6295
2.61739
2.61864
2.61786
2.61895
2.61594
2.61606
2.61486
2.61842
2.61914
2.67172
2.66895
2.68299
2.6962
2.69065
2.68289
2.67741
2.67742
2.67445
2.67935
2.68488
2.68256
2.66627
2.65983
2.71653
2.73229
2.73831
2.74469
2.73242
2.72923
2.75531
2.75219
2.73971
2.74125
2.73667
2.74797
2.74627
2.65639
2.65735
2.6637
2.67341
2.65412
2.65207
2.62852
2.64511
2.64309
2.64642
2.63407
2.648
2.64464
2.63417
2.63661
2.64427
2.63926
2.63763
2.64137
2.65381
2.59779
2.59675
2.58924
2.59351
2.58445
2.58664
2.59459
2.59525
2.59197
2.59611
2.59029
2.58953
2.65302
2.64475
2.66469
2.65452
2.6697
2.68443
2.67315
2.65965
2.68264
2.6729
2.71773
2.68043
2.71416
2.69925
2.69514
2.6856
2.69744
2.68401
2.69141
2.68523
2.60339
2.60464
2.59184
2.59346
2.60412
2.60149
2.61196
2.60387
2.61436
2.62495
2.6261
2.60706
2.60743
2.62663
2.62958
2.7099
2.70645
2.72164
2.70846
2.72619
2.71389
2.73953
2.72782
2.73294
2.74235
2.74049
2.72697
2.6752
2.69205
2.69048
2.70496
2.70251
2.70051
2.70261
2.60523
2.60911
2.60837
2.59787
2.6049
2.59767
2.6027
2.60354
2.6007
2.60387
2.60038
2.63012
2.63085
2.63231
2.6279
2.62942
2.6313
2.63357
2.63415
2.74713
2.73846
2.73961
2.73652
2.71833
2.72657
2.73967
2.72973
2.72619
2.72214
2.72651
2.73415
2.72871
2.7299
2.71778
2.74362
2.7362
2.739
2.74353
2.73929
2.61029
2.61705
2.61489
2.61553
2.62018
2.61476
2.61542
2.60722
2.58792
2.59412
2.60088
2.59786
2.59903
2.59784
2.59773
2.59061
2.60633
2.59792
2.59715
2.59061
2.58465
2.58735
2.60883
2.60079
2.60193
2.59943
2.60258
2.63915
2.63225
2.61983
2.67197
2.6737
2.65501
2.66612
2.6002
2.60237
2.6
2.6039
2.60118
2.61043
2.61018
2.60607
2.60776
2.613
2.61216
2.70369
2.71578
2.6464
2.64724
2.58361
2.58562
2.58008
2.57927
2.57963
2.57756
2.58264
2.57905
2.56931
2.57614
2.57791
2.59032
2.59216
2.59178
2.59494
2.59493
2.59641
2.5957
2.59009
2.59096
2.58895
2.59292
2.59289
2.61651
2.61765
2.61452
2.61315
2.58615
2.59582
2.6001
2.59434
2.5879
2.59112
2.58911
2.58696
2.58628
2.58774
2.58323
2.58782
2.58787
2.58267
2.58722
2.59027
2.59056
2.58513
2.58864
2.66728
2.59414
2.5966
2.59625
2.59468
2.58929
2.59099
2.58012
2.58902
2.59155
2.58467
2.58584
2.59523
2.59275
2.59827
2.60517
2.6342
2.62496
2.62563
2.62355
2.61377
2.6224
2.61722
2.62561
2.62648
2.61949
2.61731
2.61702
2.61523
2.7337
2.75302
2.74364
2.72939
2.73183
2.74369
2.73051
2.74104
2.60135
2.60293
2.59775
2.60397
2.60122
2.60515
2.60461
2.59456
2.59746
2.59922
2.59928
2.70509
2.71109
2.6974
2.71784
2.71544
2.70922
2.69167
2.6894
2.6036
2.6049
2.60375
2.59658
2.5948
2.5945
2.59856
2.60577
2.60103
2.66122
2.66268
2.67695
2.67549
2.66003
2.66407
2.65966
2.6657
2.65094
2.67377
2.67938
2.64839
2.64124
2.71702
2.69857
2.69001
2.68723
2.70136
2.70391
2.70886
2.70934
2.72754
2.7138
2.69132
2.68582
2.69535
2.70306
2.70504
2.7059
2.71846
2.68176
2.68971
2.65588
2.6447
2.65325
2.63599
2.64005
2.66165
2.66324
2.65956
2.65851
2.66008
2.73639
2.71786
2.71929
2.73737
2.71334
2.72815
2.73927
2.74448
2.74628
2.72225
2.70697
2.70497
2.71362
2.60787
2.60794
2.61307
2.61025
2.61096
2.61037
2.60125
2.60045
2.59568
2.59681
2.59687
2.59883
2.58929
2.59492
2.59193
2.60154
2.60083
2.61012
2.6105
2.60609
2.60583
2.60944
2.61084
2.60771
2.60819
2.60041
2.60322
2.60456
2.60305
2.64775
2.64538
2.6509
2.63337
2.64695
2.6593
2.64704
2.63643
2.63588
2.64968
2.65077
2.64835
2.64911
2.6256
2.63005
2.62998
2.63156
2.63006
2.6216
2.6232
2.62161
2.62572
2.62273
2.62235
2.62693
2.62748
2.62653
2.62358
2.62594
2.63592
2.63235
2.62988
2.63037
2.63515
2.62602
2.6286
2.62818
2.62487
2.62755
2.63057
2.62917
2.62934
2.62231
2.62067
2.6278
2.62548
2.62886
2.62405
2.62427
2.62313
2.62328
2.64077
2.63399
2.63388
2.62905
2.62743
2.62979
2.62605
2.62837
2.62921
2.76263
2.77158
2.76348
2.74683
2.65628
2.65299
2.65716
2.65447
2.65198
2.64702
2.6478
2.64522
2.64164
2.64685
2.75679
2.75146
2.76226
2.76286
2.7501
2.75325
2.76027
2.74598
2.75208
2.63633
2.63444
2.63352
2.63256
2.63652
2.63424
2.63305
2.63206
2.63195
2.63168
2.63453
2.63829
2.63841
2.63974
2.63284
2.63684
2.63808
2.63393
2.63357
2.63565
2.64194
2.63958
2.63477
2.62847
2.63326
2.63202
2.63712
2.6376
2.63624
2.63337
2.63407
2.63031
2.63454
2.61964
2.62677
2.61384
2.61894
2.62294
2.62406
2.62269
2.62227
2.62099
2.62196
2.62187
2.65863
2.64893
2.64739
2.65647
2.66568
2.65821
2.65377
2.66245
2.66195
2.66554
2.66429
2.66408
2.65695
2.65668
2.6651
2.66761
2.66142
2.66797
2.65856
2.7526
2.7613
2.74452
2.75794
2.76632
2.75136
2.74355
2.76061
2.74014
2.75622
2.74723
2.76115
2.75435
2.75278
2.75848
2.75972
2.76412
2.7293
2.72438
2.73646
2.73212
2.73559
2.72611
2.72417
2.71599
2.72542
2.72927
2.71945
2.71544
2.63615
2.63
2.63374
2.6404
2.64449
2.64103
2.63277
2.63244
2.682
2.67702
2.67279
2.68137
2.68097
2.68285
2.68007
2.66515
2.65682
2.65464
2.66511
2.66095
2.6574
2.66385
2.6622
2.66314
2.67266
2.683
2.67238
2.67425
2.67782
2.66559
2.66413
2.67046
2.67074
2.66546
2.66331
2.66952
2.77049
2.7854
2.77424
2.76793
2.77334
2.76626
2.79256
2.79741
2.78861
2.77343
2.78411
2.79135
2.79156
2.78344
2.77816
2.79736
2.78147
2.79993
2.79223
2.78049
2.78777
2.78253
2.7323
2.72161
2.73435
2.72939
2.7183
2.71211
2.71174
2.71075
2.70594
2.71624
2.71154
2.64095
2.64263
2.63714
2.64528
2.63963
2.64595
2.637
2.63956
2.64305
2.6455
2.64873
2.64959
2.64822
2.64885
2.64672
2.64681
2.64103
2.64774
2.78057
2.77839
2.78053
2.77098
2.78135
2.77431
2.77193
2.7915
2.77992
2.76188
2.78074
2.79035
2.78331
2.75634
2.77432
2.76479
2.67233
2.67236
2.67029
2.67597
2.67599
2.66706
2.68625
2.67476
2.78137
2.80217
2.79456
2.78477
2.79479
2.78151
2.79596
2.78564
2.79709
2.79295
2.78715
2.79355
2.78327
2.66953
2.67495
2.67979
2.66854
2.66365
2.66706
2.66713
2.671
2.66923
2.74971
2.74937
2.77552
2.76349
2.76573
2.75838
2.76377
2.75467
2.76731
2.75217
2.75875
2.76299
2.76631
2.77417
2.76943
2.75929
2.74289
2.74637
2.74038
2.76548
2.76048
2.75787
2.75728
2.74072
2.73678
2.75957
2.75359
2.75764
2.75614
2.7129
2.71451
2.71711
2.7208
2.71873
2.73446
2.73157
2.73773
2.73634
2.73654
2.7228
2.72699
2.76198
2.75192
2.76467
2.75395
2.75886
2.75713
2.77295
2.75863
2.77242
2.77478
2.7527
2.77291
2.77764
2.76018
2.7505
2.76113
2.75498
2.7721
2.77193
2.77221
2.78794
2.77977
2.78175
2.77297
2.78586
2.77186
2.77501
2.76912
2.75905
2.77526
2.79055
2.78594
2.73527
2.73059
2.72155
2.73296
2.73528
2.72366
2.72989
2.72999
2.73898
2.74518
2.75017
2.736
2.73334
2.72932
2.65565
2.65211
2.64996
2.65399
2.65372
2.64543
2.65385
2.65475
2.65117
2.64986
2.64658
2.65063
2.64974
2.64927
2.65108
2.65031
2.72869
2.73062
2.72172
2.72162
2.71995
2.72955
2.74139
2.71379
2.7147
2.74243
2.72924
2.74792
2.73981
2.755
2.7704
2.77327
2.76643
2.75988
2.77843
2.77997
2.76113
2.74645
2.78398
2.78471
2.79338
2.79679
2.79075
2.77905
2.7796
2.79109
2.76923
2.77441
2.76845
2.77353
2.77124
2.77363
2.76402
2.75934
2.77099
2.76072
2.76399
2.75597
2.75899
2.76044
2.76362
2.75927
2.76041
2.75837
2.70126
2.70108
2.70678
2.70424
2.70088
2.69497
2.68957
2.69463
2.6957
2.69338
2.69815
2.7041
2.70385
2.69873
2.69653
2.69435
2.69133
2.68955
2.69232
2.69317
2.78424
2.77953
2.79472
2.7789
2.78295
2.79218
2.79296
2.77848
2.78882
2.80084
2.78214
2.79718
2.79457
2.6729
2.6656
2.67173
2.66209
2.66415
2.65825
2.65936
2.65522
2.66403
2.66371
2.66831
2.77501
2.7758
2.76963
2.776
2.77538
2.78619
2.78907
2.74775
2.73933
2.74135
2.74932
2.75281
2.7507
2.74817
2.74739
2.74583
2.741
2.73737
2.72725
2.72
2.72067