/*--------------------------------*- C++ -*----------------------------------*\
| =========                 |                                                 |
| \\      /  F ield         | OpenFOAM: The Open Source CFD Toolbox           |
|  \\    /   O peration     | Version:  v1612+                                |
|   \\  /    A nd           | Web:      www.OpenFOAM.com                      |
|    \\/     M anipulation  |                                                 |
\*---------------------------------------------------------------------------*/
FoamFile
{
    version     2.0;
    format      ascii;
    class       volVectorField;
    location    "206";
    object      U;
}
// * * * * * * * * * * * * * * * * * * * * * * * * * * * * * * * * * * * * * //

dimensions      [0 1 -1 0 0 0 0];

internalField   nonuniform List<vector> 
18941
(
(-0.597048 0.430814 -0.655996)
(-0.639745 0.09391 -0.626739)
(-0.601237 0.18736 -0.413074)
(-0.567284 0.170675 -0.413021)
(-0.613722 0.205901 -0.442784)
(-0.579376 0.181523 -0.426758)
(-0.566385 0.174338 -0.324358)
(-0.533058 0.151022 -0.311302)
(-0.556439 0.174223 -0.331647)
(-0.527031 0.14898 -0.32167)
(-0.53721 0.151898 -0.345852)
(-0.6093 0.203386 -0.417442)
(-0.58828 0.196108 -0.418777)
(-0.540968 0.163715 -0.268045)
(-0.558478 0.176781 -0.283112)
(-0.561784 0.172833 -0.303799)
(-0.574821 0.191523 -0.302357)
(-0.554134 0.175486 -0.287199)
(-0.581381 0.19854 -0.313941)
(-0.387073 0.0487777 -0.191982)
(-0.357432 0.0539254 -0.148724)
(-0.495816 0.0890112 -0.290935)
(-0.467992 0.0841687 -0.269178)
(-0.416439 0.0483379 -0.207571)
(-0.409178 0.0591321 -0.206484)
(-0.378916 0.0594815 -0.180491)
(-0.401273 0.062409 -0.167483)
(-0.377111 0.0567687 -0.15427)
(-0.487639 0.0907993 -0.242696)
(-0.453955 0.0723472 -0.18292)
(-0.44926 0.0775988 -0.228496)
(-0.454308 0.0722993 -0.171462)
(-0.494721 0.095808 -0.233377)
(-0.428377 0.0734412 -0.153095)
(-0.37641 0.0672884 -0.140708)
(-0.486745 0.0923353 -0.265227)
(-0.476272 0.0855379 -0.260149)
(-0.445762 0.0745599 -0.177238)
(-0.412004 0.0704632 -0.155616)
(-0.481033 0.0895902 -0.211794)
(-0.405972 0.0670062 -0.177153)
(-0.593431 0.504993 -0.598706)
(-0.603943 0.501373 -0.61676)
(-0.645086 0.491883 -0.62724)
(-0.634377 0.495932 -0.610527)
(-0.625328 0.477168 -0.628935)
(-0.620448 0.477 -0.606944)
(-0.568743 0.529782 -0.559178)
(-0.578978 0.493916 -0.608427)
(-0.542746 0.490082 -0.555482)
(-0.581405 0.490411 -0.582854)
(-0.546301 0.493266 -0.558073)
(-0.586433 0.486312 -0.59508)
(-0.616378 0.488298 -0.591751)
(-0.553432 0.539309 -0.543626)
(-0.60202 0.511589 -0.575831)
(-0.519539 0.522967 -0.51803)
(-0.554321 0.521705 -0.565995)
(-0.535667 0.510313 -0.539466)
(-0.519464 0.490573 -0.539164)
(-0.57477 0.526325 -0.572972)
(-0.529845 0.354723 -0.241158)
(-0.587496 0.270767 -0.345158)
(-0.58201 0.270121 -0.329499)
(-0.562958 0.318201 -0.235832)
(-0.565338 0.340797 -0.210214)
(-0.552624 0.384294 -0.280663)
(-0.581882 0.364231 -0.330272)
(-0.51455 0.368016 -0.230618)
(-0.526984 0.378163 -0.218728)
(-0.606117 0.312746 -0.346503)
(-0.585482 0.354571 -0.356619)
(-0.597808 0.290889 -0.346774)
(-0.585037 0.301884 -0.361849)
(-0.570549 0.291863 -0.261661)
(-0.555876 0.344874 -0.222047)
(-0.565375 0.361493 -0.271391)
(-0.579137 0.332714 -0.321082)
(-0.566803 0.333539 -0.247279)
(-0.56719 0.35596 -0.289071)
(-0.878565 0.242789 -0.75458)
(-0.90444 0.218131 -0.774398)
(-0.929293 0.213142 -0.780906)
(-0.926927 0.24499 -0.757222)
(-0.909655 0.262069 -0.758831)
(-0.931288 0.24211 -0.769656)
(-0.912559 0.242385 -0.761916)
(-0.914603 0.250644 -0.73664)
(-0.932419 0.261068 -0.749467)
(-0.918285 0.273073 -0.753363)
(-0.902704 0.243496 -0.76639)
(-0.920005 0.259552 -0.760531)
(-0.90435 0.250455 -0.761186)
(-0.902028 0.24822 -0.774583)
(-0.902636 0.26335 -0.771317)
(-0.917141 0.260295 -0.781966)
(-0.432982 0.130057 -0.126791)
(-0.406262 0.130773 -0.100426)
(-0.459901 0.128081 -0.163975)
(-0.433497 0.13329 -0.136701)
(-0.472402 0.139576 -0.171629)
(-0.495837 0.142648 -0.2044)
(-0.441791 0.177711 -0.119376)
(-0.410476 0.154827 -0.0947862)
(-0.409672 0.147504 -0.105269)
(-0.448656 0.166569 -0.14029)
(-0.470969 0.161952 -0.189399)
(-0.476075 0.140588 -0.198833)
(-0.429417 0.16957 -0.120143)
(-0.489545 0.168752 -0.188658)
(-0.488867 0.151486 -0.185783)
(-0.45857 0.168406 -0.154501)
(-0.564035 0.500823 -0.562765)
(-0.540802 0.502288 -0.550209)
(-0.546118 0.509065 -0.541185)
(-0.514435 0.498861 -0.520408)
(-0.581046 0.478615 -0.545582)
(-0.528699 0.515802 -0.487691)
(-0.596818 0.482401 -0.590534)
(-0.594474 0.475979 -0.584557)
(-0.57896 0.492293 -0.520644)
(-0.543552 0.516305 -0.481105)
(-0.555008 0.527435 -0.488998)
(-0.527464 0.530496 -0.466771)
(-0.536039 0.531827 -0.489843)
(-0.498629 0.533919 -0.450494)
(-0.50772 0.516445 -0.495005)
(-0.592918 0.495754 -0.519393)
(-0.570408 0.524542 -0.549581)
(-0.620228 0.495555 -0.568515)
(-0.603498 0.335345 -0.190211)
(-0.608369 0.355453 -0.205759)
(-0.548827 0.35282 -0.121172)
(-0.572401 0.351744 -0.134799)
(-0.6131 0.362473 -0.238114)
(-0.625963 0.384087 -0.269718)
(-0.57827 0.378939 -0.143709)
(-0.547653 0.350754 -0.114955)
(-0.5075 0.347051 -0.0905759)
(-0.583163 0.392047 -0.163225)
(-0.621262 0.407389 -0.266625)
(-0.548238 0.412317 -0.148047)
(-0.583466 0.432678 -0.186662)
(-0.556264 0.440608 -0.179376)
(-0.512359 0.381025 -0.116764)
(-0.541739 0.391318 -0.134827)
(-0.521283 0.365911 -0.109433)
(-0.566911 0.426284 -0.191902)
(-0.434406 0.178687 -0.356101)
(-0.464269 0.168219 -0.368823)
(-0.408033 0.183154 -0.328488)
(-0.45461 0.174132 -0.35763)
(-0.373401 0.147595 -0.287819)
(-0.377503 0.141594 -0.294626)
(-0.363965 0.142661 -0.277094)
(-0.391108 0.14229 -0.284882)
(-0.402065 0.148395 -0.298008)
(-0.587627 0.460864 -0.491286)
(-0.588727 0.466381 -0.492383)
(-0.50169 0.485962 -0.455332)
(-0.469044 0.487535 -0.416052)
(-0.50512 0.484144 -0.494433)
(-0.456029 0.478448 -0.423494)
(-0.600821 0.466619 -0.526592)
(-0.542457 0.467019 -0.50507)
(-0.569636 0.46106 -0.499894)
(-0.578946 0.440265 -0.5294)
(-0.522448 0.492669 -0.448206)
(-0.48821 0.49924 -0.423356)
(-0.515904 0.487818 -0.4986)
(-0.569832 0.492054 -0.552155)
(-0.534982 0.501848 -0.493237)
(-0.587674 0.440222 -0.548179)
(-0.879265 0.0565263 -0.852992)
(-0.874129 0.0467545 -0.835876)
(-0.868037 0.0182699 -0.816247)
(-0.860315 0.0258319 -0.807444)
(-0.864287 0.0311185 -0.797828)
(-0.919562 0.0531112 -0.856751)
(-0.858435 0.0428183 -0.837489)
(-0.879314 0.0520677 -0.854081)
(-0.871767 0.0264808 -0.819975)
(-0.912586 0.0348898 -0.860179)
(-0.852237 0.0350311 -0.81476)
(-0.898445 0.0543932 -0.848905)
(-0.862388 0.0389606 -0.828357)
(-0.922971 0.0361641 -0.869477)
(-0.913381 0.0356969 -0.86119)
(-0.923991 0.0439212 -0.855204)
(-0.936962 0.0465197 -0.875732)
(-0.894568 0.0378871 -0.84097)
(-0.860512 0.0531031 -0.847324)
(-0.832062 0.230998 -0.785561)
(-0.857582 0.201078 -0.787543)
(-0.791731 0.21671 -0.78637)
(-0.770805 0.226796 -0.769867)
(-0.872946 0.204297 -0.808442)
(-0.827781 0.216435 -0.793413)
(-0.823083 0.219082 -0.798405)
(-0.820597 0.243189 -0.78812)
(-0.863103 0.179066 -0.784102)
(-0.827193 0.195037 -0.77121)
(-0.795973 0.210472 -0.740239)
(-0.820399 0.17293 -0.751792)
(-0.783367 0.224633 -0.790936)
(-0.788065 0.236241 -0.784057)
(-0.889525 0.190143 -0.806664)
(-0.782386 0.223635 -0.75061)
(-0.762128 0.202528 -0.752535)
(-0.789492 0.228379 -0.794316)
(-0.830553 0.156083 -0.793236)
(-0.771511 0.215592 -0.796572)
(-0.768821 0.2247 -0.770388)
(-0.801579 0.218775 -0.813892)
(-0.778556 0.278027 -0.752571)
(-0.750789 0.283761 -0.729984)
(-0.714287 0.289422 -0.696321)
(-0.782531 0.277977 -0.778804)
(-0.69553 0.294031 -0.72968)
(-0.686295 0.291654 -0.718787)
(-0.720702 0.310973 -0.742494)
(-0.754326 0.287867 -0.764027)
(-0.780665 0.276603 -0.791121)
(-0.779027 0.262779 -0.796805)
(-0.769929 0.304297 -0.770848)
(-0.76031 0.30357 -0.75164)
(-0.705077 0.322616 -0.719243)
(-0.68304 0.316077 -0.716212)
(-0.74007 0.283942 -0.742846)
(-0.727913 0.306243 -0.757689)
(-0.734004 0.287032 -0.759357)
(-0.681463 0.330562 -0.7312)
(-0.642449 0.365104 -0.704548)
(-0.726574 0.328504 -0.741923)
(-0.667276 0.334435 -0.718493)
(-0.749183 0.317271 -0.756985)
(-0.712299 0.310687 -0.746745)
(-0.676818 0.317622 -0.732063)
(-0.729304 0.0428843 -0.76603)
(-0.680128 0.0904563 -0.757019)
(-0.711191 0.0840838 -0.754387)
(-0.683971 0.0941461 -0.749324)
(-0.706607 0.0590998 -0.725183)
(-0.664312 0.0791484 -0.687713)
(-0.74417 0.0378344 -0.760457)
(-0.69395 0.0677015 -0.70835)
(-0.655736 0.102547 -0.75953)
(-0.676741 0.0666028 -0.743286)
(-0.664999 0.0827691 -0.730357)
(-0.631219 0.108669 -0.648322)
(-0.625181 0.0983106 -0.662717)
(-0.643814 0.09887 -0.737832)
(-0.722922 0.0540813 -0.768671)
(-0.638199 0.111191 -0.699967)
(-0.635276 0.301895 -0.531956)
(-0.642019 0.284751 -0.538767)
(-0.620783 0.360633 -0.516557)
(-0.620992 0.338674 -0.516621)
(-0.653488 0.326946 -0.576805)
(-0.644286 0.286047 -0.539432)
(-0.610691 0.353151 -0.52314)
(-0.604935 0.350012 -0.510795)
(-0.66672 0.26518 -0.585271)
(-0.644852 0.303335 -0.575179)
(-0.653959 0.334394 -0.581837)
(-0.618524 0.319501 -0.551379)
(-0.617755 0.292828 -0.52357)
(-0.658582 0.32317 -0.613176)
(-0.644609 0.310581 -0.579262)
(-0.616752 0.366274 -0.55057)
(-0.628289 0.356232 -0.561049)
(-0.659838 0.266326 -0.594654)
(-0.660198 0.306947 -0.605491)
(-0.649189 0.334208 -0.603015)
(-0.637869 0.356141 -0.579322)
(-0.599022 0.152895 -0.530247)
(-0.569831 0.210706 -0.467423)
(-0.588698 0.183388 -0.501927)
(-0.564607 0.232 -0.457323)
(-0.579402 0.165534 -0.514079)
(-0.564733 0.225134 -0.456057)
(-0.553514 0.261498 -0.464642)
(-0.560446 0.257469 -0.460297)
(-0.576004 0.233976 -0.55527)
(-0.587274 0.212284 -0.552943)
(-0.550592 0.274081 -0.486748)
(-0.555315 0.247796 -0.508071)
(-0.558647 0.236573 -0.457211)
(-0.564142 0.254218 -0.515506)
(-0.564745 0.255524 -0.481775)
(-0.59564 0.200349 -0.509107)
(-0.601698 0.164104 -0.546554)
(-0.629363 0.348517 -0.436537)
(-0.644476 0.44665 -0.384955)
(-0.634255 0.395692 -0.384569)
(-0.650207 0.467854 -0.322412)
(-0.663407 0.415779 -0.293672)
(-0.64219 0.378336 -0.355956)
(-0.612511 0.292643 -0.342592)
(-0.639261 0.326651 -0.333571)
(-0.857403 -0.0253283 -0.839955)
(-0.865507 -0.0272846 -0.848192)
(-0.858173 -0.0192591 -0.86054)
(-0.855217 -0.00964528 -0.843511)
(-0.796896 -0.0268273 -0.785524)
(-0.830451 -0.0253559 -0.812618)
(-0.814934 -0.00575741 -0.819991)
(-0.7749 -0.0140034 -0.797125)
(-0.796881 -0.0074357 -0.79835)
(-0.724239 -0.00982386 -0.738395)
(-0.72094 -0.00211189 -0.720487)
(-0.704958 -0.00433855 -0.697159)
(-0.721387 -0.00114148 -0.732886)
(-0.807413 -0.00190728 -0.79507)
(-0.756569 -0.00551884 -0.749955)
(-0.771042 -0.0159173 -0.754201)
(-0.807421 -0.00565016 -0.787878)
(-0.873575 -0.013725 -0.84387)
(-0.776699 0.00264599 -0.785254)
(-0.717022 -0.00032666 -0.825484)
(-0.687691 0.00810649 -0.778818)
(-0.797146 -0.00411281 -0.862831)
(-0.739656 -0.0010878 -0.824564)
(-0.754692 0.000304434 -0.851907)
(-0.693763 0.00392639 -0.798579)
(-0.652874 0.0244171 -0.731726)
(-0.738104 0.00836811 -0.791333)
(-0.791984 0.0165358 -0.851554)
(-0.773157 -0.00429015 -0.852959)
(-0.777607 0.0088415 -0.858498)
(-0.710156 0.0436935 -0.756466)
(-0.711044 0.0222189 -0.783951)
(-0.691587 0.0132378 -0.784333)
(-0.700405 0.0298113 -0.764695)
(-0.810231 -0.00110564 -0.86572)
(-0.772776 0.0181709 -0.818214)
(-0.77043 0.0360078 -0.810726)
(-0.629958 0.301587 -0.289689)
(-0.636888 0.328946 -0.319098)
(-0.621486 0.258106 -0.280289)
(-0.614446 0.24528 -0.313575)
(-0.621824 0.250236 -0.254499)
(-0.614765 0.230806 -0.324953)
(-0.635151 0.311982 -0.275412)
(-0.621556 0.264377 -0.350275)
(-0.624707 0.266891 -0.255684)
(-0.628659 0.278142 -0.281949)
(-0.619078 0.24677 -0.331184)
(-0.639248 0.342664 -0.341833)
(-0.633028 0.318391 -0.303497)
(-0.632624 0.279352 -0.274318)
(-0.627554 0.299291 -0.313583)
(-0.616346 0.276055 -0.370299)
(-0.83617 0.332646 -0.681953)
(-0.836046 0.346388 -0.677524)
(-0.845118 0.320211 -0.676458)
(-0.872692 0.356967 -0.710444)
(-0.894809 0.363299 -0.718592)
(-0.871666 0.342664 -0.684532)
(-0.860596 0.319006 -0.710115)
(-0.828171 0.29943 -0.694334)
(-0.835258 0.320849 -0.690269)
(-0.884339 0.337106 -0.696496)
(-0.892592 0.340885 -0.728624)
(-0.847508 0.331814 -0.711149)
(-0.816028 0.296283 -0.688601)
(-0.544776 0.255038 -0.203269)
(-0.546949 0.251907 -0.197737)
(-0.544034 0.244599 -0.196076)
(-0.553476 0.23614 -0.20564)
(-0.514928 0.250351 -0.156568)
(-0.498211 0.252579 -0.136925)
(-0.494847 0.239996 -0.133962)
(-0.477621 0.232067 -0.118217)
(-0.489284 0.230704 -0.110441)
(-0.463998 0.22194 -0.0991203)
(-0.492344 0.202217 -0.124991)
(-0.458041 0.201402 -0.0899358)
(-0.547678 0.215625 -0.211275)
(-0.552667 0.207493 -0.225309)
(-0.482351 0.229866 -0.128853)
(-0.50819 0.242565 -0.149276)
(-0.513552 0.218031 -0.137337)
(-0.509234 0.199359 -0.143455)
(-0.478238 0.2073 -0.110631)
(-0.554701 0.227317 -0.195152)
(-0.558379 0.226003 -0.442154)
(-0.540062 0.240524 -0.448538)
(-0.450916 0.211599 -0.374568)
(-0.455239 0.305073 -0.334688)
(-0.588936 0.298695 -0.435465)
(-0.391234 0.226141 -0.315811)
(-0.369473 0.236994 -0.298558)
(-0.353742 0.248616 -0.289119)
(-0.430283 0.258184 -0.350604)
(-0.482083 0.278853 -0.376329)
(-0.644584 0.302675 -0.503971)
(-0.51169 0.301474 -0.387523)
(-0.55802 0.294482 -0.430187)
(-0.384369 0.234747 -0.309613)
(-0.371234 0.247034 -0.296917)
(-0.4895 0.211262 -0.406507)
(-0.445638 0.278364 -0.35177)
(-0.406457 0.271854 -0.31819)
(-0.442409 0.286863 -0.34303)
(-0.386783 0.280998 -0.304523)
(-0.491534 0.223038 -0.403215)
(-0.57304 0.274001 -0.46688)
(-0.595108 0.267402 -0.487256)
(-0.638064 0.483735 -0.532395)
(-0.643212 0.494655 -0.581065)
(-0.670751 0.45199 -0.575137)
(-0.640968 0.463456 -0.530816)
(-0.628101 0.516918 -0.51925)
(-0.616605 0.553318 -0.516457)
(-0.665146 0.425005 -0.577868)
(-0.651952 0.460584 -0.552163)
(-0.668473 0.412025 -0.587283)
(-0.671409 0.437911 -0.60175)
(-0.639491 0.523919 -0.517147)
(-0.623692 0.51606 -0.514516)
(-0.63357 0.540219 -0.558008)
(-0.681336 0.453156 -0.60689)
(-0.655941 0.468353 -0.545243)
(-0.647172 0.451008 -0.540706)
(-0.652416 0.467251 -0.53978)
(-0.636147 0.579385 -0.55725)
(-0.635728 0.538883 -0.537068)
(-0.658585 0.519757 -0.605353)
(-0.561099 0.472212 -0.581485)
(-0.55055 0.475513 -0.562828)
(-0.538654 0.510162 -0.515066)
(-0.609912 0.438216 -0.546633)
(-0.618148 0.397139 -0.569786)
(-0.624394 0.44656 -0.619079)
(-0.634437 0.444868 -0.617609)
(-0.605975 0.415704 -0.573963)
(-0.602937 0.42776 -0.550879)
(-0.529353 0.478825 -0.553567)
(-0.514077 0.484164 -0.529683)
(-0.547688 0.49608 -0.563951)
(-0.597298 0.444469 -0.572913)
(-0.518276 0.502847 -0.484586)
(-0.496627 0.493687 -0.487066)
(-0.603103 0.443831 -0.601846)
(-0.554927 0.478835 -0.572589)
(-0.589131 0.12438 -0.390091)
(-0.583009 0.148687 -0.341722)
(-0.56457 0.164387 -0.249734)
(-0.569263 0.142854 -0.301702)
(-0.550265 0.153406 -0.240531)
(-0.5488 0.139235 -0.21604)
(-0.517189 0.102781 -0.19479)
(-0.530935 0.0998396 -0.257489)
(-0.503338 0.127786 -0.176949)
(-0.532784 0.106535 -0.280379)
(-0.485642 0.105201 -0.184646)
(-0.506729 0.116506 -0.180294)
(-0.758255 0.0686482 -0.724892)
(-0.742605 0.064022 -0.713056)
(-0.766879 0.063976 -0.734411)
(-0.761412 0.0574045 -0.736802)
(-0.806258 0.0344708 -0.793395)
(-0.884307 0.0471674 -0.851262)
(-0.784048 0.0651552 -0.745055)
(-0.792053 0.0427544 -0.75978)
(-0.860707 0.0453455 -0.828352)
(-0.819814 0.0417563 -0.794119)
(-0.859109 0.0645129 -0.85667)
(-0.883061 0.054266 -0.846258)
(-0.828296 0.0757451 -0.813378)
(-0.790968 0.0792863 -0.760142)
(-0.816753 0.0783588 -0.782834)
(-0.834078 0.0565179 -0.799488)
(-0.873765 0.0685584 -0.828205)
(-0.884865 0.0549892 -0.835267)
(-0.52245 0.290669 -0.476908)
(-0.515307 0.325062 -0.470786)
(-0.530441 0.255907 -0.494524)
(-0.543952 0.261967 -0.518889)
(-0.487944 0.333238 -0.364922)
(-0.529379 0.328959 -0.396429)
(-0.51682 0.312008 -0.393658)
(-0.484839 0.318842 -0.394643)
(-0.550905 0.25129 -0.477129)
(-0.866578 0.0317129 -0.785618)
(-0.872082 0.0399749 -0.809221)
(-0.854718 0.0226367 -0.796387)
(-0.929157 0.0472277 -0.86862)
(-0.90014 0.037029 -0.851002)
(-0.857494 0.0253645 -0.809503)
(-0.923183 0.0398532 -0.884022)
(-0.545426 0.152668 -0.699966)
(-0.542924 0.157781 -0.689284)
(-0.552528 0.173342 -0.684657)
(-0.482673 0.195064 -0.656683)
(-0.556166 0.13508 -0.71653)
(-0.558014 0.142762 -0.707932)
(-0.484552 0.183571 -0.675347)
(-0.530802 0.164707 -0.697544)
(-0.529991 0.190282 -0.666243)
(-0.468328 0.217027 -0.640985)
(-0.45036 0.206824 -0.638205)
(-0.568916 0.135856 -0.718452)
(-0.492349 0.159123 -0.697059)
(-0.476706 0.158457 -0.678367)
(-0.446132 0.21934 -0.629633)
(-0.441053 0.214 -0.634495)
(-0.469309 0.165974 -0.675051)
(-0.438623 0.198265 -0.635976)
(-0.553182 0.196321 -0.343548)
(-0.561098 0.160312 -0.383404)
(-0.571272 0.180858 -0.369297)
(-0.56983 0.221722 -0.331931)
(-0.567841 0.219856 -0.350476)
(-0.569181 0.191109 -0.388694)
(-0.582285 0.189001 -0.382662)
(-0.576779 0.217076 -0.367095)
(-0.617377 0.122028 -0.508825)
(-0.602904 0.220037 -0.494966)
(-0.60974 0.154927 -0.487787)
(-0.589437 0.231694 -0.485296)
(-0.612585 0.167055 -0.541291)
(-0.605323 0.16335 -0.505099)
(-0.601293 0.180009 -0.506167)
(-0.590234 0.175368 -0.498374)
(-0.5777 0.233383 -0.397748)
(-0.5726 0.221688 -0.413091)
(-0.586406 0.251561 -0.42264)
(-0.584421 0.227026 -0.48187)
(-0.573618 0.260349 -0.388697)
(-0.652114 0.0465128 -0.673641)
(-0.622239 0.0505389 -0.639796)
(-0.591354 0.0475403 -0.599862)
(-0.638363 0.0534528 -0.645701)
(-0.841677 0.0112362 -0.855739)
(-0.853281 0.0132962 -0.861724)
(-0.653265 0.0470948 -0.674674)
(-0.656952 0.0472376 -0.687155)
(-0.750337 0.0519036 -0.766199)
(-0.694106 0.0608874 -0.730848)
(-0.847328 0.0226689 -0.857303)
(-0.833437 0.032709 -0.843532)
(-0.744904 0.0556866 -0.780175)
(-0.698161 0.0463226 -0.737849)
(-0.771985 0.0451917 -0.817211)
(-0.794964 0.107507 -0.721913)
(-0.777792 0.11004 -0.705399)
(-0.681715 0.103847 -0.616371)
(-0.575022 0.0825254 -0.494506)
(-0.561056 0.0863412 -0.497429)
(-0.7549 0.108503 -0.685323)
(-0.668925 0.0777055 -0.581799)
(-0.573776 0.0723618 -0.483858)
(-0.722257 0.0878342 -0.638163)
(-0.680677 0.0733435 -0.617817)
(-0.593422 0.0709817 -0.524723)
(-0.717729 0.0983414 -0.654739)
(-0.88211 0.197123 -0.811064)
(-0.853503 0.205609 -0.800147)
(-0.894969 0.160585 -0.81423)
(-0.890826 0.173394 -0.812411)
(-0.867367 0.18489 -0.80408)
(-0.844851 0.20447 -0.792168)
(-0.843592 0.167054 -0.799051)
(-0.861772 0.165005 -0.810613)
(-0.873608 0.182566 -0.820942)
(-0.780801 0.203537 -0.802732)
(-0.776434 0.223644 -0.778982)
(-0.840819 0.180964 -0.809294)
(-0.829238 0.191868 -0.796841)
(-0.798302 0.191899 -0.798763)
(-0.769892 0.203825 -0.776682)
(-0.841567 0.172423 -0.803827)
(-0.787239 0.208878 -0.766327)
(-0.590536 0.278182 -0.700866)
(-0.619149 0.23643 -0.731685)
(-0.533338 0.299391 -0.671077)
(-0.504718 0.296792 -0.65122)
(-0.642089 0.239231 -0.744898)
(-0.61138 0.260581 -0.723658)
(-0.552735 0.267548 -0.694881)
(-0.588022 0.257017 -0.720017)
(-0.550463 0.254253 -0.696899)
(-0.517467 0.300016 -0.656845)
(-0.478882 0.2923 -0.623007)
(-0.605584 0.289631 -0.699196)
(-0.52235 0.273581 -0.675416)
(-0.527683 0.284523 -0.675372)
(-0.559944 0.267524 -0.692436)
(-0.511193 0.263189 -0.636175)
(-0.561312 0.280437 -0.687616)
(-0.49956 0.274404 -0.645534)
(-0.50974 0.370921 -0.175944)
(-0.483852 0.379472 -0.152762)
(-0.524207 0.345807 -0.179756)
(-0.53428 0.343951 -0.188049)
(-0.583525 0.385938 -0.336009)
(-0.594142 0.356963 -0.329603)
(-0.497409 0.403724 -0.206677)
(-0.481348 0.386252 -0.183987)
(-0.517967 0.364018 -0.169952)
(-0.528195 0.379534 -0.215286)
(-0.570252 0.338453 -0.229527)
(-0.568713 0.333722 -0.25133)
(-0.562109 0.399971 -0.284849)
(-0.575208 0.36601 -0.304634)
(-0.582015 0.39229 -0.304236)
(-0.530212 0.426678 -0.257231)
(-0.543875 0.425495 -0.24897)
(-0.595812 0.381422 -0.314018)
(-0.600028 0.348203 -0.318029)
(-0.513331 0.420955 -0.208779)
(-0.563311 0.364803 -0.261275)
(-0.587273 0.358585 -0.269101)
(-0.584389 0.333403 -0.264591)
(-0.536402 0.396829 -0.197168)
(-0.722662 0.324256 -0.726649)
(-0.719542 0.339979 -0.747649)
(-0.737195 0.292907 -0.717494)
(-0.746102 0.310271 -0.734026)
(-0.817579 0.24478 -0.764467)
(-0.811282 0.271576 -0.779743)
(-0.796143 0.296842 -0.777498)
(-0.823944 0.263239 -0.783317)
(-0.788251 0.244615 -0.730914)
(-0.81966 0.259105 -0.764424)
(-0.526617 0.448684 -0.221078)
(-0.489872 0.447589 -0.199492)
(-0.54875 0.457494 -0.250163)
(-0.52096 0.467003 -0.234957)
(-0.537777 0.450333 -0.24745)
(-0.515728 0.450004 -0.241302)
(-0.489892 0.458184 -0.225663)
(-0.531923 0.483165 -0.302988)
(-0.542451 0.462244 -0.270017)
(-0.593407 0.447306 -0.312029)
(-0.521338 0.481124 -0.291257)
(-0.485315 0.467008 -0.250403)
(-0.588827 0.429107 -0.299256)
(-0.576493 0.449979 -0.348002)
(-0.578308 0.44489 -0.317558)
(-0.548424 0.491929 -0.301682)
(-0.521356 0.485221 -0.292275)
(-0.540118 0.491413 -0.316193)
(-0.733196 0.262386 -0.713192)
(-0.74957 0.254059 -0.748004)
(-0.826426 0.267627 -0.791569)
(-0.849693 0.245114 -0.771994)
(-0.855131 0.206249 -0.79188)
(-0.834431 0.224153 -0.801996)
(-0.804006 0.246497 -0.766918)
(-0.853483 0.230365 -0.786355)
(-0.835437 0.230159 -0.779156)
(-0.858471 0.22798 -0.790495)
(-0.851886 0.258451 -0.789974)
(-0.785952 0.245584 -0.783733)
(-0.715925 0.055532 -0.736454)
(-0.770023 0.0377651 -0.767643)
(-0.787585 0.0402257 -0.796994)
(-0.784188 0.0422875 -0.795146)
(-0.708623 0.0428604 -0.704768)
(-0.812579 0.0280645 -0.812491)
(-0.773977 0.0402268 -0.803506)
(-0.75147 0.0601199 -0.786511)
(-0.767418 0.0211418 -0.789307)
(-0.767343 0.0333326 -0.786672)
(-0.368342 0.146355 -0.168413)
(-0.363175 0.145278 -0.15068)
(-0.377794 0.158454 -0.190089)
(-0.375843 0.164076 -0.176251)
(-0.399595 0.162876 -0.207904)
(-0.385246 0.168014 -0.190755)
(-0.435905 0.117284 -0.246379)
(-0.46214 0.121852 -0.280427)
(-0.457425 0.112358 -0.286122)
(-0.462853 0.113011 -0.304297)
(-0.400765 0.126004 -0.201238)
(-0.357356 0.158906 -0.154412)
(-0.416471 0.169251 -0.211101)
(-0.416003 0.124189 -0.192912)
(-0.39088 0.128284 -0.163871)
(-0.42862 0.149093 -0.257509)
(-0.434903 0.159014 -0.24362)
(-0.389584 0.170117 -0.181116)
(-0.459481 0.129777 -0.269441)
(-0.462116 0.140789 -0.28727)
(-0.402821 0.15091 -0.183493)
(-0.578532 0.473998 -0.388193)
(-0.597305 0.465689 -0.417686)
(-0.546621 0.483031 -0.349253)
(-0.529375 0.507045 -0.310891)
(-0.579743 0.472665 -0.470707)
(-0.525428 0.499511 -0.418104)
(-0.583265 0.494748 -0.450686)
(-0.546319 0.509294 -0.428105)
(-0.596564 0.493963 -0.439837)
(-0.573933 0.505218 -0.406235)
(-0.599733 0.476389 -0.42595)
(-0.586788 0.476233 -0.435888)
(-0.523544 0.509994 -0.335708)
(-0.504094 0.511185 -0.388258)
(-0.571253 0.498204 -0.410575)
(-0.52236 0.50655 -0.37731)
(-0.515799 0.506583 -0.369615)
(-0.505504 0.510226 -0.369635)
(-0.506551 0.511402 -0.346297)
(-0.488354 0.518239 -0.308605)
(-0.525456 0.522562 -0.392862)
(-0.487139 0.511649 -0.343288)
(-0.755556 0.0101346 -0.787051)
(-0.743583 0.021766 -0.775291)
(-0.761826 0.0182604 -0.802318)
(-0.791498 -0.00512306 -0.829157)
(-0.803853 -0.0106433 -0.827624)
(-0.783638 0.0105749 -0.809522)
(-0.877614 -0.00203885 -0.866742)
(-0.884763 -0.00397654 -0.893773)
(-0.880462 -0.0192251 -0.877039)
(-0.780626 0.0215697 -0.835101)
(-0.858648 -0.00217001 -0.864188)
(-0.859208 -0.0124227 -0.877157)
(-0.820099 0.012855 -0.853748)
(-0.831552 -0.0035565 -0.865889)
(-0.573149 0.0232605 -0.568384)
(-0.523519 0.0261526 -0.500275)
(-0.500529 0.0247567 -0.475715)
(-0.46167 0.0195387 -0.412171)
(-0.535763 0.0189977 -0.525475)
(-0.492319 0.0217938 -0.44841)
(-0.478638 0.0277089 -0.41605)
(-0.592492 0.0152323 -0.595594)
(-0.569784 0.0155236 -0.55358)
(-0.56007 0.0142089 -0.548485)
(-0.558729 0.0162964 -0.544331)
(-0.553641 0.0217537 -0.515245)
(-0.50676 0.0261982 -0.448065)
(-0.490093 0.0191217 -0.45945)
(-0.492039 0.0219027 -0.451169)
(-0.448393 0.0247649 -0.35434)
(-0.550187 0.0208419 -0.509927)
(-0.484163 0.0188641 -0.41216)
(-0.481923 0.0155736 -0.417465)
(-0.478164 0.022725 -0.404833)
(-0.895268 0.155972 -0.775197)
(-0.883427 0.162729 -0.768214)
(-0.840426 0.177391 -0.735559)
(-0.841162 0.189135 -0.749051)
(-0.860036 0.131714 -0.767896)
(-0.915062 0.129966 -0.809696)
(-0.825358 0.17535 -0.729892)
(-0.827836 0.168155 -0.731153)
(-0.895097 0.162878 -0.781968)
(-0.909416 0.146859 -0.79362)
(-0.88069 0.138482 -0.774155)
(-0.88346 0.137542 -0.788506)
(-0.864042 0.142717 -0.766657)
(-0.844678 0.152604 -0.741147)
(-0.807682 0.14631 -0.708675)
(-0.827178 0.140515 -0.731534)
(-0.784106 0.147608 -0.705471)
(-0.897539 0.141931 -0.787788)
(-0.868698 0.160465 -0.780531)
(-0.868676 0.161304 -0.779248)
(-0.668844 0.240495 -0.548837)
(-0.652008 0.246331 -0.54344)
(-0.618925 0.266252 -0.457971)
(-0.632964 0.273127 -0.47973)
(-0.725353 0.252095 -0.620666)
(-0.675913 0.230599 -0.550549)
(-0.612059 0.234448 -0.478521)
(-0.61966 0.221258 -0.475449)
(-0.641811 0.296277 -0.457698)
(-0.625866 0.280086 -0.442876)
(-0.652379 0.241946 -0.480375)
(-0.699621 0.267501 -0.591174)
(-0.606503 0.211486 -0.485342)
(-0.681961 0.247767 -0.561186)
(-0.615532 0.212268 -0.47047)
(-0.658312 0.267995 -0.479176)
(-0.652071 0.317145 -0.491348)
(-0.63994 0.266813 -0.535213)
(-0.606451 0.281099 -0.167694)
(-0.615968 0.285656 -0.165172)
(-0.637999 0.340906 -0.221451)
(-0.639617 0.338105 -0.207144)
(-0.606683 0.236665 -0.224653)
(-0.595484 0.262329 -0.168059)
(-0.59887 0.237065 -0.177429)
(-0.616266 0.296566 -0.166033)
(-0.637737 0.319016 -0.255427)
(-0.619742 0.256486 -0.241711)
(-0.821419 -0.00102333 -0.834294)
(-0.767706 0.0161649 -0.824693)
(-0.780956 0.00685088 -0.839908)
(-0.796255 0.00253379 -0.835816)
(-0.820351 -0.00206929 -0.84012)
(-0.836701 0.016882 -0.851694)
(-0.795811 0.0214477 -0.831757)
(-0.871347 -0.00385296 -0.86033)
(-0.861747 0.00471065 -0.857648)
(-0.804577 -0.00857759 -0.796505)
(-0.78966 0.00571097 -0.813529)
(-0.803572 0.0088429 -0.805557)
(-0.77075 -0.00248652 -0.774088)
(-0.716053 0.0105292 -0.715896)
(-0.700292 0.0372776 -0.692583)
(-0.738491 -9.75865e-05 -0.759633)
(-0.760571 -0.000501215 -0.790494)
(-0.636957 0.0254133 -0.658238)
(-0.636862 0.0508102 -0.667039)
(-0.688875 0.009528 -0.678103)
(-0.630964 0.0335979 -0.62575)
(-0.648307 0.0239269 -0.658221)
(-0.689912 0.0247204 -0.716615)
(-0.660065 0.0302578 -0.696261)
(-0.654629 0.0368915 -0.688629)
(-0.647684 0.0384552 -0.661126)
(-0.65708 0.0538069 -0.67971)
(-0.909422 0.0917171 -0.832618)
(-0.788847 0.0985613 -0.719027)
(-0.847109 0.0917502 -0.779525)
(-0.864066 0.0914522 -0.78002)
(-0.866853 0.104862 -0.767806)
(-0.857073 0.110939 -0.77031)
(-0.829736 0.0908112 -0.742424)
(-0.839338 0.0808424 -0.758294)
(-0.879954 0.0739286 -0.790372)
(-0.899475 0.0754881 -0.817695)
(-0.854649 0.0930861 -0.772248)
(-0.828872 0.0803423 -0.7536)
(-0.860613 0.0934147 -0.772884)
(-0.884735 0.0815059 -0.788056)
(-0.621433 0.355037 -0.468947)
(-0.613684 0.381996 -0.456158)
(-0.613879 0.337085 -0.418351)
(-0.630914 0.323915 -0.483409)
(-0.613164 0.354575 -0.491814)
(-0.625255 0.368719 -0.461261)
(-0.627492 0.382488 -0.490697)
(-0.626927 0.319188 -0.505008)
(-0.64612 0.360506 -0.558314)
(-0.632454 0.348579 -0.435901)
(-0.621141 0.320719 -0.493895)
(-0.625281 0.2584 -0.482163)
(-0.623959 0.261374 -0.484905)
(-0.626103 0.266838 -0.500115)
(-0.587218 0.0767291 -0.423703)
(-0.651586 0.0871732 -0.520501)
(-0.651064 0.0988231 -0.523494)
(-0.633459 0.093196 -0.494318)
(-0.588041 0.0849775 -0.44526)
(-0.555703 0.0740855 -0.386919)
(-0.555179 0.0878301 -0.4039)
(-0.706879 0.0872827 -0.600692)
(-0.658275 0.0821467 -0.553938)
(-0.70238 0.091967 -0.625666)
(-0.699023 0.0827025 -0.621482)
(-0.715152 0.0948109 -0.632612)
(-0.726363 0.106593 -0.639654)
(-0.656355 0.107831 -0.511264)
(-0.703164 0.117758 -0.561456)
(-0.680006 0.113189 -0.572509)
(-0.623974 0.0989214 -0.486968)
(-0.691785 0.0807778 -0.594493)
(-0.639641 0.0819972 -0.517787)
(-0.704536 0.0953308 -0.612442)
(-0.489155 0.0827603 -0.330387)
(-0.49636 0.0859035 -0.349987)
(-0.459088 0.121003 -0.255769)
(-0.489356 0.0886123 -0.372161)
(-0.511399 0.0633383 -0.416003)
(-0.516324 0.0625099 -0.387039)
(-0.429109 0.090229 -0.246565)
(-0.412814 0.109031 -0.20953)
(-0.526994 0.0568599 -0.420929)
(-0.545908 0.0606648 -0.443723)
(-0.47022 0.0812516 -0.334582)
(-0.502921 0.069488 -0.375174)
(-0.470906 0.0777276 -0.349618)
(-0.614837 0.447828 -0.455916)
(-0.600633 0.470948 -0.469183)
(-0.594614 0.468748 -0.493072)
(-0.582539 0.471385 -0.451801)
(-0.615761 0.435367 -0.51362)
(-0.61864 0.398144 -0.485491)
(-0.606773 0.396757 -0.494405)
(-0.603877 0.438318 -0.512038)
(-0.588819 0.453745 -0.429189)
(-0.611392 0.403693 -0.474477)
(-0.456547 0.0700147 -0.194281)
(-0.442528 0.0787093 -0.166227)
(-0.45785 0.0727469 -0.192709)
(-0.461668 0.0584683 -0.204695)
(-0.458772 0.0853923 -0.177553)
(-0.470273 0.0799618 -0.188877)
(-0.465652 0.0694986 -0.193407)
(-0.469673 0.069462 -0.209832)
(-0.464993 0.0875244 -0.195925)
(-0.51639 0.104665 -0.273477)
(-0.501 0.0871001 -0.252458)
(-0.48196 0.0519223 -0.260788)
(-0.519462 0.0610099 -0.309055)
(-0.558626 0.0967205 -0.375436)
(-0.559327 0.0723739 -0.387685)
(-0.542964 0.0716861 -0.333844)
(-0.565633 0.0951951 -0.39457)
(-0.576451 0.0855422 -0.397159)
(-0.50637 0.0998662 -0.230175)
(-0.533572 0.104419 -0.306718)
(-0.463504 0.143067 -0.332888)
(-0.44917 0.159697 -0.335814)
(-0.456943 0.134963 -0.271063)
(-0.439839 0.139603 -0.29496)
(-0.431443 0.132684 -0.247338)
(-0.382364 0.132892 -0.231288)
(-0.412414 0.14175 -0.275699)
(-0.37025 0.137073 -0.238972)
(-0.615925 0.302275 -0.235154)
(-0.595726 0.271709 -0.184772)
(-0.610096 0.252404 -0.297275)
(-0.625394 0.250863 -0.289405)
(-0.610219 0.252566 -0.293444)
(-0.612057 0.30145 -0.200802)
(-0.612047 0.264599 -0.234887)
(-0.603206 0.243466 -0.215389)
(-0.611912 0.278371 -0.22882)
(-0.623349 0.3106 -0.23697)
(-0.588719 0.234012 -0.179591)
(-0.612768 0.239708 -0.236006)
(-0.54439 0.245021 -0.100908)
(-0.54858 0.233913 -0.125404)
(-0.542102 0.264833 -0.114746)
(-0.571395 0.270955 -0.150139)
(-0.566768 0.308162 -0.134841)
(-0.520247 0.249378 -0.103652)
(-0.612093 0.311474 -0.182052)
(-0.585778 0.229122 -0.170152)