/*--------------------------------*- C++ -*----------------------------------*\
| =========                 |                                                 |
| \\      /  F ield         | OpenFOAM: The Open Source CFD Toolbox           |
|  \\    /   O peration     | Version:  v1612+                                |
|   \\  /    A nd           | Web:      www.OpenFOAM.com                      |
|    \\/     M anipulation  |                                                 |
\*---------------------------------------------------------------------------*/
FoamFile
{
    version     2.0;
    format      ascii;
    class       surfaceScalarField;
    location    "150";
    object      phi;
}
// * * * * * * * * * * * * * * * * * * * * * * * * * * * * * * * * * * * * * //

dimensions      [0 3 -1 0 0 0 0];

internalField   nonuniform List<scalar> 
37684
(
-7.23188e-09
-3.83722e-09
3.59237e-09
7.47673e-09
-9.1285e-09
1.09265e-08
6.71694e-09
-8.51491e-09
1.06456e-08
-2.68259e-08
1.59234e-08
2.57028e-10
5.3506e-09
1.8203e-08
-9.3777e-10
-2.26159e-08
1.51217e-08
-2.03561e-08
-1.19269e-08
1.71612e-08
1.96381e-08
8.34217e-10
-1.40032e-08
2.02055e-08
-1.166e-08
5.45767e-09
-9.55026e-09
2.34063e-08
-2.78592e-08
1.63133e-08
-2.44176e-08
-1.44592e-09
2.07603e-08
1.3756e-08
1.99348e-08
1.41455e-08
-1.44422e-08
1.3386e-08
1.68113e-08
-6.79102e-09
2.79973e-08
5.59418e-09
-1.5946e-08
1.44269e-08
-1.30685e-08
1.45876e-08
1.41915e-08
-6.32052e-09
-2.38169e-08
-1.82304e-08
-2.26004e-09
3.49172e-08
-1.45576e-08
1.05187e-08
-5.63275e-09
-1.1838e-08
1.27564e-08
4.71434e-09
-2.55532e-10
4.23249e-09
1.06963e-08
1.29689e-08
-4.04656e-09
-1.11968e-08
2.16931e-08
2.16229e-08
8.1573e-09
1.46585e-08
-5.50959e-10
-1.89713e-08
1.14581e-08
8.06415e-09
7.93662e-09
-6.73501e-09
1.96849e-09
-3.1701e-09
-9.3256e-09
5.79095e-09
5.25948e-09
-1.72484e-09
5.59018e-09
4.22117e-09
8.47757e-09
-6.31962e-09
6.5285e-09
5.34946e-09
-6.28777e-09
-1.11896e-09
6.80971e-09
8.37746e-10
3.57592e-09
-1.02023e-08
-2.69916e-09
1.34864e-08
-1.42382e-08
4.32782e-09
1.36833e-10
-7.47194e-10
9.94552e-09
4.28804e-09
7.84868e-09
-9.66863e-10
-1.53237e-09
9.01187e-09
5.64651e-09
-8.76515e-10
-5.29759e-09
-7.30814e-09
8.8128e-09
-2.47152e-09
-3.96348e-09
-6.59852e-09
-5.68198e-09
-1.77018e-09
1.40507e-08
-5.59484e-09
3.35541e-09
-4.3591e-09
-6.99579e-09
-6.60942e-09
7.92322e-09
-9.38124e-09
-3.20939e-09
-5.88964e-09
9.11313e-09
-4.99369e-09
8.84524e-11
-1.302e-08
6.32212e-09
-5.64281e-09
-6.34888e-09
6.10203e-09
-1.01382e-08
4.5838e-09
2.48162e-09
-1.33486e-10
-1.23086e-08
9.96048e-09
1.57073e-09
-5.7356e-09
6.64645e-09
-2.69852e-09
1.73007e-09
-1.20515e-08
-1.22133e-08
5.59124e-10
-5.33727e-09
-7.84897e-09
1.71387e-08
-8.44611e-09
1.95592e-09
-1.06485e-08
3.38858e-09
9.38935e-09
4.36077e-09
1.03559e-08
-4.1513e-09
-1.46507e-08
1.55662e-08
-9.66274e-09
4.45244e-09
1.34363e-08
5.51842e-09
1.5722e-08
-7.81733e-09
-5.94876e-09
1.10443e-08
1.40671e-08
-2.80173e-08
1.38886e-08
1.89661e-08
-4.83737e-09
-1.06287e-08
-2.5159e-08
7.77035e-09
5.06372e-09
-1.55188e-08
6.30381e-09
-1.06447e-08
5.07975e-09
-3.51175e-09
-9.8526e-09
-3.19569e-09
1.656e-08
-2.78868e-09
1.03212e-08
1.27034e-08
-9.11966e-09
-3.64796e-09
1.43409e-08
-1.49035e-08
8.46685e-09
7.6936e-09
-1.98525e-08
-2.74457e-09
2.46169e-08
1.21144e-08
-1.8421e-08
-1.83103e-08
1.54418e-08
-1.52071e-09
1.06957e-08
1.23693e-08
-1.00603e-08
9.80551e-09
-1.56504e-09
2.93761e-08
1.11866e-08
-1.83094e-08
5.60201e-09
-6.47125e-09
-1.39732e-08
2.0234e-09
1.28919e-08
-1.03943e-08
-8.96883e-09
1.89149e-08
-9.29328e-09
-2.15992e-08
3.94217e-09
1.0203e-08
7.45401e-09
-1.36704e-09
-4.05043e-09
-1.01349e-08
1.72267e-08
-2.10651e-08
1.13075e-08
-3.18368e-08
1.5548e-08
-2.58396e-08
-6.15556e-09
2.03365e-08
1.11085e-08
-1.44487e-08
3.89438e-09
9.47949e-09
1.07487e-09
-6.51755e-09
-3.34768e-09
-4.58348e-09
-4.2641e-09
6.30897e-09
1.84951e-09
-6.81912e-09
4.40967e-09
-1.85463e-09
-4.07502e-09
-9.26165e-09
-1.01617e-08
1.59776e-08
-9.16361e-09
1.3026e-08
-4.38671e-09
-1.88009e-08
-3.34335e-09
4.5326e-09
8.29025e-09
3.24323e-09
9.39104e-09
-6.5013e-09
4.41421e-09
8.39607e-09
-2.8843e-09
7.9267e-10
1.91498e-08
-1.07576e-09
-5.04808e-09
7.05291e-09
1.53401e-08
1.01935e-08
-7.73222e-09
-3.53706e-09
7.28218e-09
-3.83594e-09
6.74728e-09
-1.86987e-09
1.08167e-08
6.10576e-09
-1.45675e-08
1.24652e-08
8.98364e-09
-1.06101e-08
2.2634e-09
6.86427e-09
-4.71912e-09
4.17179e-09
-6.31695e-09
-8.27077e-09
1.39608e-08
1.17428e-09
8.39197e-10
6.2808e-09
-7.9748e-09
8.54799e-10
-3.60802e-09
2.63683e-09
7.75265e-09
-6.78146e-09
6.35059e-09
-1.45457e-09
-9.61515e-09
3.19857e-09
-5.11876e-09
7.678e-09
-3.80782e-10
-3.12543e-09
7.07545e-09
1.45633e-08
4.98473e-09
2.92992e-09
-2.6736e-09
-3.87379e-09
1.15321e-08
-5.04275e-09
-8.06114e-09
1.04303e-08
1.20101e-09
-8.43215e-09
2.18837e-09
4.16476e-10
-6.3265e-09
-2.52215e-09
-5.70346e-09
-1.9412e-09
3.57632e-09
3.0529e-09
-8.0838e-09
-2.50793e-09
3.6908e-09
-6.96441e-09
-1.08542e-09
-4.17177e-09
1.17875e-08
3.20094e-09
6.54887e-09
-2.32456e-09
-5.37745e-09
7.08601e-09
1.0079e-08
1.09039e-09
8.10272e-11
1.02149e-08
5.04837e-09
-1.41884e-08
-6.12523e-09
-4.61243e-10
-1.03672e-09
7.62319e-09
-5.58441e-09
5.49568e-10
-1.12426e-09
7.74903e-09
-8.8727e-09
8.89427e-09
8.26867e-09
-2.67407e-11
1.36893e-09
4.14164e-09
9.01149e-09
-8.10476e-09
-8.94672e-10
-7.47226e-09
7.33021e-09
7.66247e-09
-1.67131e-09
6.87533e-09
7.75625e-09
1.22851e-09
-2.44561e-09
2.7296e-09
-3.67549e-10
2.24929e-09
6.81088e-09
-2.52144e-09
-6.53871e-09
-1.32321e-09
-3.51922e-09
7.09172e-09
-1.4871e-09
4.72512e-09
4.58212e-09
-7.82012e-09
6.1044e-09
-3.44244e-09
4.14893e-09
2.32898e-09
3.70259e-09
-8.553e-09
5.96367e-09
-4.95789e-09
2.29134e-09
2.32598e-09
6.26037e-09
-6.43804e-09
9.71631e-10
-7.93947e-10
-5.4571e-09
2.99081e-09
8.72666e-09
-1.69261e-08
1.22482e-08
-7.79152e-10
-5.99669e-09
-3.41028e-09
-7.51913e-09
-1.5073e-08
-1.02569e-08
7.9257e-09
1.74042e-08
-2.3603e-08
1.22325e-08
-6.47106e-09
-1.28915e-09
7.82228e-09
-3.54232e-09
1.90808e-09
-1.51404e-08
2.97549e-09
-1.05487e-08
-6.50854e-09
-6.54576e-09
2.1337e-08
-1.25147e-08
1.80348e-08
1.85139e-08
-1.9878e-08
-1.66708e-08
8.12607e-09
2.09097e-09
1.41248e-08
2.46164e-08
1.40034e-08
-7.16647e-09
3.28413e-09
7.81074e-09
4.04816e-10
5.2536e-09
4.52702e-09
-6.49649e-09
9.99042e-09
3.07393e-09
8.26257e-09
-9.55451e-09
6.32425e-09
-5.0323e-09
-2.42268e-09
7.8861e-09
2.79914e-09
-3.62762e-09
1.35669e-08
-6.05463e-10
-9.33385e-09
-3.89166e-09
1.03615e-08
-1.00975e-08
-1.30414e-08
1.86728e-09
-1.68055e-10
1.18677e-08
1.08304e-08
1.39839e-09
7.80207e-09
-2.34334e-10
-4.48316e-09
-7.32246e-10
1.31015e-08
-4.58184e-09
6.42292e-09
1.38363e-08
-9.91475e-09
1.02415e-08
-3.99294e-09
-1.18151e-08
4.79337e-09
1.12603e-08
-4.2386e-09
-8.51068e-09
1.05319e-08
1.18632e-08
-5.07175e-09
4.7839e-09
5.13424e-09
-4.84638e-09
1.90397e-09
-1.33128e-08
6.33706e-09
5.32992e-09
-4.1241e-10
-1.33606e-10
-6.93774e-09
8.46168e-10
7.89179e-10
5.30239e-09
-7.07655e-09
1.22497e-09
-1.08616e-09
-1.19197e-08
-4.22215e-09
1.92222e-09
1.42197e-08
-9.50803e-09
9.13259e-09
-1.15443e-08
6.80945e-09
-1.44135e-08
4.93609e-09
-2.34879e-09
3.79313e-10
-2.32163e-09
-6.48072e-09
1.60489e-09
5.722e-09
7.41662e-11
-1.45353e-09
-6.39081e-10
1.12252e-08
7.07162e-09
-9.70445e-10
-7.55471e-09
7.12355e-09
6.8048e-09
-6.85674e-09
-8.16424e-09
2.70511e-09
6.2483e-09
-2.84884e-09
2.83351e-09
7.47704e-09
-7.60543e-09
-2.97704e-10
1.2327e-08
-9.1958e-09
8.43074e-09
-1.91367e-09
-5.3136e-09
-7.42129e-09
1.46486e-08
-5.08524e-09
-5.56458e-09
8.73617e-09
-8.34848e-09
-1.28243e-08
1.58591e-08
9.81921e-10
-1.34916e-08
4.1612e-09
-7.661e-09
3.55768e-09
-2.21586e-09
-8.81812e-09
3.61271e-09
-7.94945e-09
1.69025e-10
-1.27788e-08
1.65028e-10
-2.1042e-10
3.8325e-09
-4.26583e-09
-1.23455e-08
-2.48317e-09
-7.17591e-09
-4.4616e-09
7.35338e-09
-5.37493e-09
6.09349e-09
-1.35374e-09
-9.20133e-09
-4.70123e-09
4.39361e-09
2.91573e-09
-1.52345e-09
-8.38226e-09
-2.70824e-10
5.97536e-09
-1.15949e-08
-4.70443e-09
-3.29282e-10
-7.11133e-09
-8.90955e-09
5.0747e-09
1.38709e-09
2.44776e-09
-3.05471e-09
-6.47703e-09
6.22187e-10
1.993e-09
7.24384e-09
-9.47454e-10
-8.28941e-09
5.74849e-09
1.31923e-09
5.02002e-09
-1.86128e-09
-6.21344e-09
3.92422e-09
2.4829e-09
1.80492e-09
1.97017e-10
3.74656e-09
1.85018e-09
7.19859e-09
-1.99692e-09
5.40374e-10
-2.53176e-09
3.98832e-09
-4.88214e-09
3.08224e-09
3.63779e-09
3.28368e-09
-3.93754e-10
-6.52772e-09
1.11676e-09
3.40378e-11
2.48697e-09
-2.69347e-09
5.08403e-09
2.27412e-10
-1.18533e-09
-1.99116e-09
-3.13182e-10
-5.78829e-09
4.76406e-09
2.14099e-09
1.89099e-09
-4.3956e-09
1.85985e-09
-4.11489e-09
-2.7516e-09
4.8222e-09
-3.66181e-10
-4.94429e-10
-4.97485e-10
5.84937e-10
-7.19295e-09
9.25166e-09
-2.64366e-09
4.04691e-09
9.15402e-10
-3.98207e-09
-9.80248e-10
6.61654e-10
3.45436e-09
-6.91024e-11
6.11294e-09
-4.6126e-09
5.87885e-09
8.95736e-10
3.45176e-09
1.6941e-09
7.3298e-10
-7.647e-09
1.0345e-09
4.49732e-09
2.11517e-09
-2.56046e-09
-1.43497e-09
-3.65155e-09
-4.41459e-09
-4.36214e-09
6.21627e-09
1.8661e-09
6.43706e-10
3.64971e-09
-6.15953e-09
1.6637e-09
-2.82282e-09
4.45835e-09
-3.29924e-09
-6.37461e-09
4.73057e-10
-2.50989e-09
8.41143e-09
-2.19619e-09
-8.59303e-09
-9.39599e-09
4.31854e-09
6.11195e-09
-5.35161e-09
-5.47934e-09
6.54364e-09
-6.2367e-09
-4.99448e-10
1.92487e-10
4.97726e-09
-4.62746e-09
-7.97116e-09
7.62135e-09
7.43742e-09
-1.98711e-09
3.65077e-09
-1.04744e-08
-3.0441e-09
-2.56328e-09
7.27107e-09
-7.68898e-09
6.51098e-09
5.74595e-09
-5.99752e-09
5.83692e-09
-7.53777e-09
-8.63815e-09
1.03934e-08
-1.69187e-10
-2.63203e-09
-3.35265e-09
-1.43201e-08
-1.11415e-08
2.88142e-08
-1.47766e-08
2.26046e-08
-1.11806e-08
1.07439e-08
-4.11408e-09
-2.14064e-08
1.36701e-08
-1.32547e-08
1.03284e-08
2.01131e-09
7.72344e-09
3.93539e-09
1.43342e-08
9.56334e-09
-2.80117e-08
1.99053e-08
-1.98911e-08
1.80778e-08
6.53812e-09
1.96273e-08
1.37741e-08
-2.5678e-08
1.06541e-08
1.30233e-08
-1.48367e-08
-8.84074e-09
-2.33104e-08
2.9191e-08
4.7735e-09
-3.59146e-08
6.08264e-09
8.43862e-09
2.13933e-08
-2.15398e-08
-1.35143e-09
2.36868e-08
-1.03333e-09
-2.74811e-09
1.3731e-08
1.53977e-08
-5.44189e-09
-2.12875e-08
-3.05627e-09
-2.65608e-08
9.6793e-09
1.86542e-08
-1.02558e-08
7.6365e-09
1.80735e-08
1.08119e-08
2.68177e-08
-1.74574e-09
1.90615e-08
2.27972e-08
-2.16635e-08
1.22698e-08
-3.68701e-09
1.30807e-08
-2.129e-08
-1.27992e-08
1.24257e-08
2.51252e-09
2.72983e-08
-1.7541e-08
3.58024e-08
4.89404e-09
-2.21729e-08
-1.85236e-08
1.51687e-08
4.58558e-09
1.60481e-08
-1.70649e-08
5.51298e-09
7.86487e-09
-1.52581e-09
-6.35634e-09
-1.34079e-08
-6.03455e-09
-1.25562e-08
-1.83122e-08
1.08095e-08
2.26713e-08
-8.93613e-09
-4.48201e-09
-9.51968e-09
2.28417e-08
-9.46946e-09
-3.34373e-08
2.07338e-08
1.63351e-08
1.80311e-08
-2.97806e-08
-1.31319e-08
9.12511e-09
2.64657e-09
-1.84724e-08
1.4867e-08
-1.8255e-08
-7.20099e-09
-1.579e-08
2.66838e-08
-1.62466e-09
-9.2691e-09
-1.62844e-08
1.45783e-08
-2.20347e-08
-6.39206e-09
2.11797e-08
7.24707e-09
1.99618e-08
1.48499e-08
3.03096e-08
-1.84756e-08
3.0788e-08
2.60061e-09
-1.85387e-08
-9.31859e-09
2.5155e-08
4.65006e-09
2.47519e-09
7.30372e-09
3.61113e-09
1.9988e-08
-1.72365e-08
8.90584e-09
2.95104e-08
7.37534e-09
2.16881e-08
-5.2307e-09
1.38522e-08
2.65794e-08
2.58966e-08
1.47681e-08
1.27443e-08
-2.70352e-08
-4.77198e-10
2.62746e-08
-6.84672e-09
6.12591e-09
1.5141e-08
-5.59523e-10
3.14061e-09
-4.34019e-09
5.04343e-09
9.72857e-09
2.97292e-09
1.5394e-08
-7.74223e-09
-1.10296e-08
-1.28713e-08
-2.36548e-09
2.35055e-08
-1.33589e-08
1.85652e-09
-1.81329e-08
-1.33132e-08
2.90806e-08
-1.92278e-08
-6.33568e-10
1.7285e-09
3.10527e-09
8.00877e-09
7.7841e-09
-1.88981e-08
5.7913e-09
-1.18496e-08
-5.8183e-09
1.91978e-08
-7.58816e-09
1.72082e-08
-1.50178e-08
1.09483e-08
-1.61257e-08
-1.40504e-08
7.02617e-09
-1.44693e-08
4.76776e-10
8.46653e-09
-8.42466e-09
9.21015e-09
1.00843e-08
-2.08622e-09
1.22822e-08
4.08157e-09
-4.49665e-09
-1.36896e-09
5.91912e-09
-5.35074e-11
-1.87001e-09
2.49231e-09
-1.94239e-09
9.46669e-09
9.0702e-10
-2.81401e-09
3.70228e-11
-5.21421e-10
7.12689e-09
2.32795e-09
1.05908e-09
-7.5389e-11
-7.06817e-10
-5.47018e-09
5.33401e-09
8.42994e-10
5.48263e-09
2.91788e-11
2.35297e-09
4.16493e-12
6.71765e-10
4.99181e-09
-1.15356e-08
5.87197e-09
1.79237e-08
1.54767e-09
-8.60893e-09
-1.08625e-08
5.93258e-09
4.95119e-09
-1.0212e-08
1.07667e-08
-4.81678e-09
-1.73857e-11
1.14682e-09
4.84668e-09
1.15444e-08
-1.75379e-08
6.33063e-09
1.27399e-08
-6.98625e-09
1.28314e-08
-4.29752e-09
2.86584e-09
-4.8603e-09
-9.18303e-09
1.70571e-09
5.34968e-09
2.12763e-09
-9.37085e-09
5.13901e-09
8.85888e-09
3.61356e-09
4.22405e-09
1.4938e-08
8.53357e-09
-3.573e-09
-2.09473e-09
1.13715e-10
3.73198e-09
4.68788e-09
3.31516e-09
4.11357e-09
-7.31501e-09
5.29681e-09
5.02172e-10
-4.49309e-10
3.2699e-09
1.04357e-08
6.89911e-10
7.26612e-09
3.59534e-09
5.01664e-09
7.55515e-09
6.09149e-09
-6.69531e-09
-1.27881e-08
1.3392e-08
-7.41161e-09
2.01032e-08
-6.60007e-09
-2.36406e-09
-1.44124e-08
9.36488e-09
-1.53301e-08
6.27071e-09
3.29142e-09
-2.47802e-08
2.23959e-08
-9.07102e-10
1.78478e-08
-1.8244e-08
3.68766e-09
2.96295e-09
1.18436e-09
1.37005e-08
-1.96763e-09
4.0127e-10
-1.66777e-08
-2.62985e-08
-4.4931e-10
5.42395e-09
8.2634e-09
-3.47543e-09
-1.02119e-08
-1.21224e-08
3.13391e-09
-1.27779e-08
2.95271e-09
-4.36433e-09
-2.70235e-09
-4.58094e-09
9.34439e-09
1.76325e-08
1.07602e-08
-9.66002e-09
-6.98872e-10
1.99096e-09
-1.86943e-08
-6.38201e-09
-1.05828e-08
-1.88693e-09
-5.2374e-10
4.28692e-09
-2.25018e-09
-1.18717e-08
3.85707e-09
-8.49633e-09
9.37178e-10
-4.54606e-09
-1.87046e-09
-4.73586e-09
-4.52385e-10
6.12542e-09
-1.86291e-09
-7.41901e-09
-7.23482e-09
4.17241e-09
8.52605e-09
-5.46365e-09
3.71336e-09
1.95696e-09
-1.29051e-08
4.16346e-09
-4.49133e-09
4.04122e-09
8.17786e-09
1.58003e-10
1.57195e-08
-1.17777e-08
1.98038e-09
-5.92224e-09
3.13342e-09
-1.91788e-09
1.4504e-08
1.6071e-09
-8.30848e-09
-5.07629e-09
1.34097e-08
-3.27656e-09
1.14605e-08
-7.57104e-09
-1.90909e-09
1.41415e-08
4.84475e-09
-1.11963e-08
-1.23038e-09
1.02614e-08
-4.31128e-09
1.58497e-09
6.37181e-09
-5.91923e-09
1.27287e-09
-1.72546e-09
-1.10366e-08
9.32459e-09
-6.85004e-09
7.66579e-09
5.73434e-09
-6.55007e-09
3.75108e-09
4.5516e-09
-1.51527e-08
8.47516e-09
-5.96007e-09
-8.43433e-09
3.36733e-10
-2.89816e-09
-1.01096e-08
7.90061e-09
1.73278e-09
-6.37314e-09
3.91923e-09
7.21083e-10
-6.01862e-09
9.17711e-09
-1.88563e-09
4.46385e-09
-5.93086e-09
9.92193e-09
2.20771e-09
1.84272e-09
-5.72354e-09
2.40893e-10
6.42826e-09
1.05327e-08
-6.92769e-09
7.6481e-09
9.99478e-09
-1.32753e-09
-3.91631e-09
-4.75095e-09
-1.93686e-09
8.69045e-09
3.24118e-09
1.16548e-08
-4.89579e-09
-8.08655e-09
9.19649e-09
5.21466e-10
6.89195e-09
-1.51258e-08
1.15071e-09
7.08313e-09
-9.96736e-09
2.57071e-09
1.42886e-08
9.40777e-09
-4.48637e-09
3.76904e-09
-2.79082e-09
5.00915e-09
-6.13464e-09
3.26798e-09
-1.09546e-08
-7.49446e-09
-1.23683e-08
4.73694e-09
1.16912e-08
-1.35837e-08
4.94428e-09
2.43059e-09
1.82161e-09
3.25703e-09
1.1095e-08
4.15448e-09
-5.66203e-09
1.14898e-08
-9.40358e-09
4.89226e-09
3.51135e-09
-2.98858e-09
-8.09542e-09
1.97881e-09
-6.25165e-09
-1.84111e-08
-3.91342e-09
4.79917e-09
-8.04325e-09
9.75506e-09
7.14759e-10
4.05e-09
3.441e-11
1.81479e-08
-1.04433e-08
-4.85149e-09
-2.85309e-09
2.41376e-09
1.02266e-08
5.50757e-09
6.56878e-09
5.64409e-09
-9.79913e-09
-1.77485e-09
-5.22469e-10
1.15954e-08
-1.06524e-08
-1.13864e-08
2.69757e-09
-2.80032e-09
1.03293e-08
-3.62135e-11
9.30257e-09
1.74844e-08
-3.6264e-09
-2.26254e-09
1.41056e-09
1.32735e-08
-6.92235e-10
-8.23432e-09
7.15169e-09
-2.19457e-09
-8.9803e-09
-1.3917e-08
1.08963e-08
6.93083e-09
-3.91008e-09
-1.27014e-08
-4.84205e-09
2.00192e-09
1.03049e-08
9.76649e-09
-1.26533e-08
-5.53853e-09
2.60361e-09
-5.12065e-09
7.08635e-09
6.02367e-09
-6.96371e-09
-4.18062e-09
-1.94423e-08
1.33255e-08
-1.39747e-09
7.51424e-09
9.78464e-10
-5.467e-09
-1.49538e-08
-2.49553e-09
4.86642e-09
-1.57977e-08
1.10335e-08
2.26872e-09
-1.11688e-08
-3.65045e-09
1.30748e-08
-2.56179e-09
-1.59801e-08
8.29473e-09
3.38261e-09
-3.41873e-09
-8.49768e-09
7.16545e-09
1.90761e-09
-7.51753e-09
2.19118e-09
4.0677e-09
-8.49967e-09
1.14466e-08
7.33624e-09
-1.10032e-08
-3.8506e-09
-6.40443e-09
5.243e-09
-3.4406e-09
7.14699e-09
-1.22061e-08
1.91963e-09
6.67297e-10
-6.02755e-09
5.77486e-09
-1.0191e-08
1.85437e-09
2.69883e-09
-7.92715e-09
-1.78598e-09
2.81176e-09
7.24205e-10
7.76562e-09
-1.13015e-08
-2.79062e-09
-7.17629e-09
3.31135e-10
9.63579e-09
-6.3016e-09
6.32275e-09
-1.34432e-08
6.02637e-09
6.22124e-09
1.19563e-09
8.51366e-09
-5.29203e-09
-1.66648e-08
5.90665e-09
9.17411e-09
-6.56709e-09
1.12919e-08
6.41125e-10
-1.18897e-08
2.43027e-09
1.01837e-08
-7.87108e-09
1.92831e-09
-5.94693e-09
1.7504e-09
-7.31788e-09
-1.60881e-09
-4.5377e-09
-1.35027e-11
7.97196e-09
1.4271e-09
-1.46911e-08
6.32212e-09
-1.22798e-08
9.43004e-09
1.41416e-08
6.44179e-10
-3.74983e-09
1.21914e-08
-2.10117e-09
-6.28989e-09
1.7435e-09
6.64758e-09
-6.51739e-09
-1.21471e-10
6.24885e-09
-1.11116e-08
5.24576e-09
-5.5143e-09
-1.42793e-09
-2.14426e-08
-1.43541e-09
6.87651e-09
-3.29258e-09
-1.18778e-08
-6.27217e-09
-1.55956e-08
3.23817e-09
1.0922e-08
4.23903e-09
-8.51046e-09
-1.13242e-08
-5.96847e-09
1.43701e-08
-4.16262e-09
-1.54204e-08
-1.21555e-08
-6.09968e-09
-2.61495e-09
-1.5456e-08
-5.02865e-10
-1.37824e-08
-4.25298e-09
5.17032e-09
-2.50524e-08
-1.92822e-08
8.9965e-09
-4.93535e-09
8.91572e-09
-5.79619e-09
1.81581e-09
-8.99325e-09
-1.91058e-09
6.21832e-09
-6.76037e-09
9.52143e-10
-4.10103e-10
5.82848e-10
6.05767e-10
5.02969e-09
6.91548e-09
2.58308e-09
-4.96694e-09
1.05505e-09
-1.88431e-09
-6.35889e-09
-7.6013e-09
-4.16243e-09
-1.5429e-09
-5.58947e-09
1.30591e-09
4.88932e-09
-4.94505e-09
3.07712e-10
8.841e-09
-7.7441e-09
2.14127e-09
-3.96615e-10
1.13845e-08
-2.14687e-09
-6.50189e-09
4.20495e-10
-1.66271e-09
-6.33632e-09
5.81805e-09
-5.62681e-09
-4.35368e-09
6.2402e-10
2.48985e-10
-6.40952e-09
7.31882e-09
-5.96311e-09
-5.68613e-09
5.23972e-09
-5.64799e-09
3.08897e-10
1.32428e-09
-1.40195e-08
-3.38085e-09
-1.88478e-09
-4.5062e-09
-4.52264e-09
-8.80874e-09
-1.84094e-08
1.66716e-09
-5.74013e-10
1.73162e-08
-4.10187e-09
-1.63634e-08
2.05579e-09
-1.98486e-08
9.99099e-10
2.05166e-08
-2.15681e-08
-2.38232e-09
1.77807e-08
-1.76692e-09
-2.0155e-09
-1.39983e-08
1.82464e-10
1.70242e-08
-2.58161e-08
1.58906e-10
9.40633e-09
-1.71485e-08
-1.8074e-08
-1.49304e-08
-3.19985e-09
-1.98868e-08
7.68995e-09
-9.37133e-09
-7.98439e-11
1.77795e-08
-1.75408e-08
-5.50542e-09
-7.89928e-09
-6.48215e-09
-8.4175e-09
-1.20184e-08
-3.8896e-09
-4.6286e-09
-1.93914e-08
2.79096e-08
-6.73649e-09
-1.8934e-08
2.17809e-08
-1.69235e-08
1.78427e-08
-9.08174e-09
-1.51837e-10
-1.2724e-09
7.07289e-09
-1.36998e-08
5.74515e-09
-1.54351e-08
-1.87828e-08
1.98993e-08
-8.74537e-09
5.12233e-09
1.87366e-08
-2.30492e-08
-8.09683e-10
2.57331e-08
3.97461e-09
-2.45853e-08
1.35812e-10
1.85086e-09
1.67499e-08
2.28126e-08
3.07925e-10
-2.53417e-08
1.98451e-09
3.19131e-08
-2.44836e-09
2.13759e-09
-3.16023e-08
1.20392e-08
-1.72249e-11
-2.42409e-08
2.42566e-08
1.20235e-08
-2.63813e-08
-2.5074e-08
-8.00095e-10
2.33593e-08
8.66644e-09
-1.69226e-08
9.13354e-09
-8.77327e-10
-1.19455e-08
1.29192e-08
7.69271e-09
-4.51677e-09
5.24693e-10
-7.95343e-09
-3.91466e-09
-1.75248e-08
-1.48133e-09
-3.71414e-09
1.81147e-08
-4.19742e-09
-3.47175e-09
1.16437e-08
-7.6473e-09
4.69701e-09
-1.58978e-09
7.07474e-09
-1.0182e-08
1.08807e-08
-9.65548e-09
-3.42836e-09
1.1358e-08
-1.53348e-08
9.83038e-09
1.14922e-08
-3.01532e-09
-1.40213e-09
1.30062e-08
9.36676e-09
-3.00766e-09
1.24331e-08
-1.36229e-08
6.57016e-09
3.70413e-09
-1.36166e-08
-5.8741e-09
1.57866e-08
-8.15511e-09
-1.1909e-08
2.37682e-08
-2.48623e-08
2.59042e-08
-8.58236e-09
-8.12263e-09
-5.30532e-09
-2.41524e-08
2.13026e-08
-2.423e-08
1.30506e-08
9.26642e-09
-1.58559e-08
1.31507e-08
-6.56127e-09
-1.62678e-08
1.30418e-09
-1.60949e-08
-8.75521e-09
-1.01494e-08
-2.18015e-08
-1.28438e-08
1.84199e-09
-1.28661e-08
4.11994e-08
-2.27392e-08
-9.5609e-09
1.94919e-08
-2.60731e-08
2.48605e-08
-2.65013e-08
1.00685e-09
1.41194e-08
7.65503e-09
-1.21913e-08
5.13689e-09
1.05847e-08
-3.53031e-09
-9.69109e-10
1.45634e-09
-1.26785e-08
1.08411e-08
-3.44745e-10
1.72894e-09
-1.22253e-08
7.76952e-11
-7.25045e-09
1.10885e-08
-3.91571e-09
-1.27112e-08
1.44433e-08
9.10909e-09
7.40604e-09
-7.28687e-09
-1.28304e-08
7.8667e-09
9.16736e-09
-1.47772e-08
-2.25689e-09
4.33268e-09
-6.47609e-09
1.00101e-08
1.68068e-09
2.00443e-08
-1.25576e-08
-2.62112e-09
-1.40963e-08
1.98513e-08
1.24368e-08
-8.02639e-09
9.11305e-09
-1.51727e-10
1.6959e-08
1.9012e-08
-9.92528e-09
6.90667e-09
3.56406e-09
3.65028e-10
-1.67191e-10
-5.45375e-09
6.01342e-09
3.00439e-09
-1.26527e-09
1.83047e-09
3.44621e-09
-1.3335e-10
2.41252e-09
7.92925e-09
-4.32834e-09
-5.06406e-10
6.36512e-09
-3.68727e-09
7.92754e-09
1.40736e-09
4.40396e-09
3.22818e-09
6.3485e-09
2.63098e-09
3.38267e-09
-5.81811e-09
-1.95532e-10
1.20127e-09
7.24597e-09
-5.96428e-09
-2.48296e-09
-1.67305e-09
3.37094e-09
4.34355e-09
-6.04144e-09
1.71008e-09
2.39566e-09
-5.77877e-09
-3.87009e-09
3.87654e-09
1.70362e-09
-8.42291e-09
6.91068e-09
-2.35786e-09
3.59356e-09
-1.06706e-08
-1.34587e-09
1.07554e-08
-5.96061e-09
-5.84883e-09
5.73474e-10
9.15189e-09
-6.9837e-09
8.04556e-09
-4.12986e-09
-6.19677e-09
1.09001e-08
-3.09255e-09
2.33364e-09
-4.50221e-09
-7.87997e-09
6.18543e-09
-7.29134e-09
-3.034e-10
4.7498e-09
7.32035e-09
-4.82416e-09
8.9452e-11
-3.0753e-09
2.51569e-09
6.96441e-10
1.28969e-08
-2.39466e-10
4.00231e-09
-1.66597e-08
3.80886e-09
1.30266e-08
-3.93858e-09
-6.84416e-09
4.02533e-10
1.02505e-08
-9.35447e-09
2.27084e-09
1.56496e-08
8.99996e-10
-1.25473e-08
1.99846e-08
8.69151e-09
-7.34708e-09
-2.15847e-09
1.04055e-08
1.6811e-09
3.05091e-09
-1.12158e-08
6.48374e-09
-1.96482e-09
-5.4709e-09
2.38163e-09
5.0541e-09
-3.82712e-09
2.08965e-09
-2.27336e-10
5.08171e-10
7.40418e-10
-5.07571e-09
6.44734e-09
1.6927e-09
-7.63186e-09
4.55793e-11
9.30859e-10
-2.47972e-09
-5.17043e-09
5.08762e-09
2.56255e-09
-3.37114e-09
1.13541e-09
-2.43967e-10
1.77081e-09
-4.40153e-09
1.33304e-09
-4.73265e-09
-1.36894e-08
1.08061e-08
2.92885e-09
3.99802e-10
-1.23965e-08
1.06969e-08
-8.9641e-09
3.1602e-09
1.80291e-09
5.73384e-09
2.25994e-09
5.98788e-09
8.70688e-09
3.90218e-09
-3.32508e-09
6.28293e-09
-6.97897e-10
-1.00019e-10
-7.87368e-09
1.25347e-08
-3.50154e-09
-1.15949e-09
1.05095e-08
-8.06724e-09
-1.03159e-08
-2.23356e-09
1.11764e-08
3.59183e-09
8.04753e-09
2.28389e-10
-6.78757e-09
7.78779e-09
-4.50176e-09
2.25381e-09
-1.71086e-08
4.57347e-09
1.74135e-08
-1.41992e-08
1.90584e-08
-4.91749e-09
-9.56742e-09
-1.01324e-08
4.43798e-09
1.68708e-08
-3.91735e-09
1.83247e-09
8.07677e-09
8.14525e-09
-1.39682e-08
1.65543e-09
3.44168e-09
1.23163e-08
5.27871e-09
-1.02611e-08
1.30717e-08
-7.72812e-09
8.06144e-09
-1.02458e-08
3.57372e-09
6.54171e-10
8.94244e-10
-1.07991e-08
1.51835e-08
8.7739e-09
-9.63437e-09
1.1907e-08
2.00079e-09
9.87078e-09
-1.17446e-08
-5.58422e-09
7.45808e-09
-1.4048e-09
1.03469e-08
-7.4573e-09
-1.48485e-09
-8.2512e-09
1.0786e-08
-3.93957e-09
1.09574e-08
-7.57918e-09
6.49251e-09
4.99735e-09
-1.06293e-10
6.0664e-09
2.33305e-10
1.11956e-08
-6.43155e-09
1.22332e-08
5.0661e-09
-6.9524e-09
-2.29424e-09
6.05119e-09
8.47628e-09
-2.36549e-09
3.68525e-09
-8.77707e-09
3.19696e-09
-1.38136e-08
4.77909e-09
-1.33268e-08
4.82569e-09
3.66602e-09
6.17836e-10
-3.41792e-09
2.45058e-09
-5.41976e-09
2.86289e-09
-3.05838e-09
5.74227e-09
-7.68208e-09
1.06749e-08
-2.61995e-09
3.96562e-12
-2.63059e-09
-2.17134e-09
-1.56528e-09
-2.83073e-10
-1.57452e-08
2.46007e-09
1.35682e-08
2.06913e-09
8.44156e-09
-1.07938e-08
-3.2281e-09
-8.56634e-09
-2.50717e-09
1.43016e-08
9.49446e-09
-1.22608e-08
-4.61801e-10
-2.22385e-08
1.59878e-08
1.01178e-08
-8.63758e-09
-1.00465e-08
1.32388e-09
5.20002e-10
8.2739e-09
-8.17379e-09
7.94565e-09
7.95194e-09
-7.7238e-09
1.46069e-10
-6.99598e-09
-3.41002e-10
-1.19469e-08
1.4748e-08
9.67378e-09
-2.78957e-08
-2.78061e-09
8.43784e-09
-1.71661e-08
-2.29904e-08
2.34879e-08
-2.26141e-09
-1.7235e-09
-1.9503e-08
1.6601e-08
4.10633e-09
-1.53426e-08
6.29348e-09
4.18117e-09
4.86793e-09
-3.43408e-09
-1.41699e-08
-1.50738e-09
-1.18983e-08
9.9716e-09
-1.7504e-09
-1.71392e-08
1.09476e-08
-1.18954e-08
-1.09645e-08
1.12205e-09
2.55563e-09
1.60911e-08
-1.26652e-08
5.67975e-09
-9.10566e-09
1.18722e-08
1.66836e-08
-1.24647e-08
1.79281e-08
-1.87089e-08
3.06901e-09
-1.78928e-09
-1.94209e-09
1.58289e-08
-1.20975e-08
-2.73685e-09
-1.38296e-08
-1.77453e-08
2.15403e-09
3.82795e-09
1.17633e-08
4.77949e-09
-1.58823e-08
-6.64255e-09
-1.10123e-08
4.33453e-09
8.8318e-09
-5.00721e-09
-1.2256e-09
-1.9126e-09
-4.59142e-09
-9.37825e-09
-7.58403e-09
4.57529e-09
7.34326e-09
-1.01772e-08
-2.41399e-09
8.37919e-09
-6.27956e-09
-6.36877e-09
4.2691e-09
-1.25287e-08
-1.79148e-09
2.26993e-08
2.24698e-08
-7.54757e-09
-2.12018e-08
-1.25186e-08
2.24598e-08
-1.59784e-08
1.34376e-08
-5.63431e-09
-1.22567e-08
-7.6482e-09
1.0432e-08
-1.59043e-09
4.63269e-09
-1.55609e-08
1.25358e-08
1.49264e-10
5.06863e-09
-1.77537e-08
-8.30831e-10
1.54186e-09
1.18248e-08
-1.19185e-08
1.1425e-08
-3.37369e-10
5.49281e-09
-1.72621e-08
-8.9588e-09
-1.62998e-09
4.11516e-10
-8.05741e-09
-1.10023e-08
1.76361e-09
-1.03094e-08
9.74373e-09
-1.20722e-09
1.53455e-08
-2.2725e-08
-6.51215e-09
1.38917e-08
-1.86495e-08
6.47547e-09
2.75195e-08
1.49602e-08
1.32976e-08
-9.29174e-09
1.07494e-08
-1.5939e-08
-1.75355e-08
-4.84008e-09
-3.06002e-09
-9.57785e-09
2.50694e-08
-5.31382e-10
-1.55619e-08
-9.95495e-09
1.14544e-08
7.10291e-09
1.8189e-08
9.44949e-09
6.49587e-09
2.31475e-08
-1.33452e-08
2.63165e-08
-8.12893e-09
1.13438e-08
-2.65626e-10
2.38735e-09
5.09741e-09
-2.96058e-09
-4.52418e-09
5.61278e-09
-6.42633e-10
-2.58281e-09
3.80189e-09
-4.9174e-09
3.72643e-09
-2.61092e-09
-9.51799e-10
4.71531e-09
3.8371e-11
-4.152e-09
5.6249e-09
4.13986e-09
-6.38962e-12
7.46113e-09
1.05331e-09
-1.08801e-08
2.36571e-09
7.26436e-09
4.3773e-09
-4.18053e-09
8.16557e-09
-4.67812e-09
-4.13008e-09
7.58955e-09
1.06061e-08
-1.00301e-08
-6.82467e-09
4.71185e-09
-1.02092e-09
3.54867e-11
5.15944e-09
4.26772e-09
-1.9942e-09
-6.93365e-10
7.84697e-09
-6.49145e-10
4.27984e-09
3.5193e-09
3.42111e-09
-6.08394e-09
8.90987e-09
1.59499e-10
-1.29669e-09
-4.10995e-09
-1.40613e-09
6.81276e-09
-2.1834e-09
-4.6407e-09
5.52737e-09
-2.61483e-09
-5.16494e-09
3.66981e-09
1.05609e-09
-3.75874e-09
8.78024e-11
1.17416e-09
-5.56224e-09
2.20464e-09
-4.7233e-09
-3.7903e-09
2.05688e-10
-8.13463e-09
6.5042e-09
3.4979e-09
-1.86747e-09
-4.43183e-10
-8.48019e-09
7.88743e-10
-6.15702e-09
-2.1437e-09
3.13578e-09
-6.14732e-09
-3.76845e-09
8.03392e-09
1.09241e-10
-8.58635e-09
3.6896e-09
2.20062e-09
5.4705e-09
4.11686e-10
-6.44976e-09
-8.58852e-10
6.91392e-09
-7.43899e-09
1.38391e-09
-4.88099e-09
2.31815e-10
6.10447e-09
-4.75279e-09
2.07521e-10
-4.67682e-09
-6.8998e-09
-3.31668e-10
1.1962e-08
-3.60943e-09
-1.42749e-08
-1.33674e-09
1.52372e-08
-1.93844e-09
-1.1524e-08
-2.72856e-09
-1.02419e-09
1.52767e-08
-2.49097e-09
-5.56017e-09
-3.47283e-09
8.18746e-09
1.77156e-09
-1.35685e-08
9.53287e-09
-2.68216e-09
4.29989e-09
-1.47173e-09
1.2409e-08
1.4015e-08
-6.97311e-09
1.55863e-08
1.37402e-08
7.52281e-09
-7.12153e-09
2.3431e-09
1.06891e-08
5.744e-09
-7.5619e-09
-3.74228e-09
8.47073e-09
1.12839e-09
-3.85512e-09
-2.96825e-09
1.04148e-08
1.31151e-08
-1.01888e-08
4.39841e-09
5.14368e-09
4.15487e-09
-4.57014e-09
-4.72842e-09
-1.28244e-10
5.35984e-09
-8.79144e-11
6.5705e-09
-3.53092e-09
1.8497e-09
-4.88928e-09
6.53421e-09
-9.19579e-11
-4.96583e-09
5.7233e-09
4.60237e-09
2.02689e-10
-1.01366e-09
2.26383e-09
-7.90986e-09
-9.5482e-10
6.60085e-09
-5.54122e-10
8.54124e-09
-9.90838e-10
-7.11022e-09
7.12179e-09
-1.59573e-09
-3.67636e-09
5.74614e-09
-3.45456e-09
-7.89783e-09
1.07983e-08
-1.11302e-08
6.72081e-09
7.96913e-09
-1.34352e-09
1.31728e-08
-3.82882e-09
8.25333e-09
-6.02024e-09
-9.85196e-09
-7.77137e-11
-1.65316e-09
6.80488e-09
-9.263e-09
4.11128e-09
4.08327e-09
-7.01953e-09
1.2831e-09
8.73042e-10
-3.21108e-09
6.42132e-09
1.14434e-08
-3.76545e-09
9.02349e-10
-4.56421e-09
-5.60113e-09
-2.92603e-09
-3.19114e-09
1.35094e-09
-2.81723e-09
-1.45973e-09
-2.82933e-09
4.34599e-09
-1.65707e-10
7.06916e-09
3.03285e-09
-6.83665e-09
-3.26534e-09
1.81194e-09
3.60913e-09
1.6481e-09
4.05335e-09
-2.85087e-09
-4.0197e-09
1.53034e-09
-3.0631e-10
-2.75798e-09
3.89291e-09
-4.69544e-09
3.74941e-09
-1.32245e-10
-3.84026e-09
-3.28531e-09
2.88923e-10
-5.161e-10
-1.02229e-08
6.17481e-09
-7.20723e-09
1.40782e-09
-4.62674e-09
5.08435e-09
-1.86543e-09
-3.16849e-09
5.28756e-09
-7.11251e-10
-2.41735e-09
1.28874e-09
-3.49813e-09
-4.48278e-09
7.74735e-09
-6.43307e-09
2.95145e-09
-9.85159e-09
-3.4382e-09
-2.92241e-09
4.30802e-09
2.05258e-09
1.48159e-09
3.67768e-10
2.77629e-10
-3.96017e-09
-2.35239e-09
7.68257e-09
-8.69129e-09
-1.96061e-09
8.08444e-09
-9.13907e-09
1.03211e-08
-3.14262e-09
-1.04859e-08
2.82847e-09
3.26121e-10
-3.41192e-09
1.07684e-08
-2.41247e-09
3.50862e-09
-5.46723e-09
2.32636e-09
1.73286e-09
-3.11861e-09
4.89437e-09
-2.05139e-09
5.83683e-09
2.67287e-09
-3.32945e-09
-4.81065e-09
-4.66956e-10
2.12042e-11
-2.24176e-09
-2.83245e-09
3.02282e-09
-2.86162e-10
4.40153e-09
-5.9808e-09
1.1446e-09
3.10037e-09
-4.53113e-09
-2.75272e-09
4.39986e-11
-2.89611e-09
-4.17027e-09
1.61544e-09
-2.23992e-10
4.55252e-10
1.23658e-10
-4.02592e-09
-9.3918e-10
6.78679e-09
-1.82169e-09
-5.0218e-09
5.6832e-09
-4.68732e-09
-5.4283e-09
8.10184e-09
4.84159e-10
-9.46325e-09
3.55079e-09
2.80214e-09
-7.33978e-09
-3.80225e-09
7.43459e-09
3.15446e-09
2.17237e-09
-2.9142e-10
-5.70256e-09
-2.9663e-10
1.21924e-09
4.77995e-09
-3.51058e-09
-1.96092e-11
1.80181e-08
-1.58245e-09
-4.22353e-09
-1.22121e-08
-1.38813e-09
9.45339e-09
2.40671e-09
-1.04719e-08
1.46028e-08
2.02716e-09
5.26931e-09
-5.99077e-09
-2.78911e-09
7.69352e-10
4.20333e-09
-3.27539e-09
8.67525e-11
1.2272e-09
7.42663e-09
1.05466e-08
-4.02721e-09
-1.79423e-09
-7.53402e-11
1.64724e-08
8.42851e-09
1.16985e-08
1.78853e-09
2.74853e-09
-4.21841e-09
-3.18636e-10
4.41297e-09
-2.532e-09
-9.24368e-11
4.77672e-09
-1.90701e-09
-1.21182e-10
-2.05128e-09
-3.45302e-09
5.57858e-09
-7.42632e-11
-6.04587e-09