/*--------------------------------*- C++ -*----------------------------------*\
| =========                 |                                                 |
| \\      /  F ield         | OpenFOAM: The Open Source CFD Toolbox           |
|  \\    /   O peration     | Version:  v1612+                                |
|   \\  /    A nd           | Web:      www.OpenFOAM.com                      |
|    \\/     M anipulation  |                                                 |
\*---------------------------------------------------------------------------*/
FoamFile
{
    version     2.0;
    format      ascii;
    class       volVectorField;
    location    "100";
    object      wallShearStress;
}
// * * * * * * * * * * * * * * * * * * * * * * * * * * * * * * * * * * * * * //

dimensions      [0 2 -2 0 0 0 0];

internalField   uniform (0 0 0);

boundaryField
{
    WALL
    {
        type            calculated;
        value           nonuniform List<vector> 
1688
(
(0.000325477 -0.0289272 -0.00345737)
(0.00130955 -0.0279813 -0.00457811)
(-0.000428684 -0.0138319 -0.00447324)
(-0.00160635 -0.0131369 -0.0044623)
(0.00218741 -0.0186353 0.00353099)
(0.0014159 -0.0191684 0.00579628)
(-0.0020512 -0.00930734 0.00422272)
(0.000458075 -0.0103673 0.00781006)
(0.00043149 -0.00984519 0.00795432)
(-0.00518616 -0.0102764 0.00727516)
(-0.00465012 -0.0101421 0.00648561)
(-0.00311778 -0.0183015 0.00744401)
(-0.00286779 -0.0171053 0.00572708)
(0.00264487 -0.0190452 0.00399964)
(0.0023119 -0.0178929 0.00367358)
(-0.00646372 -0.0109907 0.00283653)
(-0.00790304 -0.0131272 0.0022868)
(-0.00407843 -0.00967544 -0.00141139)
(-0.00479802 -0.00983341 -0.000785303)
(0.00340759 -0.009556 0.00260753)
(0.00296559 -0.00972985 0.0020241)
(0.0036372 -0.00909557 0.00317985)
(0.00333997 -0.00870952 0.00294975)
(0.00317925 -0.00905821 0.00246697)
(0.00285729 -0.00920918 0.00199431)
(0.00306656 -0.0227816 -0.00387665)
(0.00196069 -0.0240303 -0.00431383)
(0.00276663 -0.0217101 -0.003033)
(0.00340333 -0.0219283 -0.00323039)
(0.00192858 -0.0223123 -0.0032546)
(0.00155127 -0.0234319 -0.00394826)
(-0.00146383 -0.0253792 -4.65332e-05)
(-0.000966744 -0.0257855 -0.00095737)
(-0.00115628 -0.0265762 -0.00120661)
(-0.000921198 -0.0275318 -0.000707558)
(-0.00101147 -0.0252983 -0.00162967)
(0.00305911 -0.0136434 0.000783087)
(0.00300723 -0.0157075 0.000463779)
(0.00223034 -0.0143484 0.000193927)
(0.00300119 -0.0171255 -0.000355193)
(0.00215751 -0.0167737 -0.000272739)
(0.00255195 -0.0174873 -0.000604568)
(0.00452715 -0.0162664 0.00111129)
(0.00440926 -0.0165464 0.000869081)
(0.00435962 -0.0156622 0.00220055)
(0.00453888 -0.0156497 0.00250475)
(0.00447079 -0.016374 0.00168091)
(0.00427438 -0.015506 0.00132148)
(0.00173041 -0.0189773 0.00447432)
(0.000593886 -0.0194859 0.00584289)
(0.0015111 -0.0191091 0.00438802)
(0.00106016 -0.019456 0.00484188)
(0.000720751 -0.0205808 0.00528984)
(-0.00538267 -0.00966598 -0.000711005)
(-0.004158 -0.00917005 0.00023406)
(-0.00481851 -0.00907609 0.000466574)
(-0.0045337 -0.00921542 -0.000444628)
(-0.0010616 -0.0107343 0.00668485)
(-0.000664914 -0.0109016 0.00714337)
(-0.00143589 -0.010626 0.00578843)
(-0.00126887 -0.0107383 0.0064783)
(-0.00128476 -0.0104998 0.00587333)
(-0.000852896 -0.0110702 0.00680779)
(-0.00592138 -0.0115564 0.00170526)
(-0.00618376 -0.0116742 0.0010262)
(-0.00640364 -0.0123663 0.00106115)
(-0.00580394 -0.011033 0.00174509)
(-0.000717489 -0.00972877 0.00766343)
(-0.00133166 -0.00991017 0.00749974)
(-0.00150139 -0.010061 0.00716298)
(-0.00135674 -0.00956041 0.00770373)
(-0.000784352 -0.0101622 0.00750806)
(-0.000507491 -0.010144 0.00774576)
(0.00235083 -0.00738253 0.00656905)
(0.00183173 -0.00788422 0.00691165)
(0.00153733 -0.00756892 0.00725016)
(0.00228895 -0.0077612 0.00660212)
(-0.00617099 -0.0108379 0.00854871)
(-0.00540818 -0.00963327 0.00822348)
(-0.0060698 -0.00987349 0.00661906)
(-0.00661657 -0.010474 0.00665105)
(-0.0072504 -0.0105381 0.00713163)
(-0.00673408 -0.00994977 0.00750387)
(-0.000114452 -0.0200497 0.0092666)
(-8.15096e-05 -0.021121 0.0102914)
(0.000393848 -0.0206662 0.00882787)
(-0.00108007 -0.0218889 0.0100316)
(-0.000446445 -0.0210263 0.00983272)
(0.000486171 -0.0203735 0.00950497)
(0.00117525 -0.0139292 -0.00712097)
(0.00173167 -0.0146305 -0.00689897)
(0.000941292 -0.013673 -0.00693925)
(0.000765841 -0.013174 -0.00696095)
(0.00186041 -0.0142544 -0.00707518)
(0.00212156 -0.0149661 -0.00702607)
(0.00345712 -0.00791592 0.00388068)
(0.00354688 -0.00820602 0.00370803)
(0.00343305 -0.00815203 0.00441342)
(0.00344688 -0.00766745 0.00421328)
(0.00354568 -0.00841997 0.00367144)
(0.00331053 -0.00823269 0.00402065)
(0.00362322 -0.0110871 0.00418779)
(0.0035443 -0.0112147 0.00491104)
(0.00320911 -0.0115437 0.00564877)
(0.00336135 -0.011516 0.00485401)
(0.00358061 -0.0115498 0.00425524)
(0.00302621 -0.0108707 0.00548515)
(-0.00327142 -0.0206926 0.00199702)
(-0.00306733 -0.0209439 0.00109839)
(-0.00218212 -0.0194653 0.000656374)
(-0.00333289 -0.0183277 0.00127012)
(-0.00351843 -0.0195115 0.00172694)
(-0.00230938 -0.0212395 0.000389798)
(0.000552771 -0.0213081 0.00350712)
(0.00172776 -0.0200637 0.00221309)
(0.00195237 -0.0204481 0.0018751)
(0.00111279 -0.0218861 0.00202382)
(0.0018965 -0.0217984 0.0016652)
(0.00128836 -0.021902 0.00291422)
(0.00168154 -0.0176044 0.00295717)
(0.00141938 -0.0186375 0.00407554)
(0.00246923 -0.0186619 0.00210745)
(0.00299226 -0.0193716 -0.000783908)
(0.00251904 -0.021374 -4.96703e-05)
(0.00245045 -0.0218904 -8.65256e-05)
(0.0027989 -0.0202611 -0.000282993)
(0.00236802 -0.0215521 0.000695877)
(0.00300553 -0.0201647 -0.00158494)
(0.00379588 -0.0197774 -0.00267619)
(0.00366404 -0.0194055 -0.00204725)
(0.00378878 -0.0181375 -0.00383037)
(0.00407255 -0.0193154 -0.00348482)
(0.00359423 -0.0174401 -0.0030064)
(0.00335244 -0.0179517 -0.00220524)
(0.00434947 -0.022951 -0.00265466)
(0.00446639 -0.020684 -0.00327846)
(0.00393441 -0.0210393 -0.00233448)
(0.00530745 -0.0245433 -0.0047768)
(0.00513461 -0.0216896 -0.00529306)
(0.00390352 -0.0104279 0.00329797)
(0.00394213 -0.011213 0.00394567)
(0.00379785 -0.0098576 0.00378803)
(0.00403452 -0.0108074 0.00465722)
(0.00399703 -0.0112605 0.00338684)
(0.0035546 -0.0102005 0.00432172)
(0.00382248 -0.0135448 0.00179694)
(0.00381254 -0.0124809 0.00316694)
(0.00364234 -0.01228 0.00188837)
(0.00397153 -0.0116492 0.00321848)
(0.00398772 -0.011954 0.00264196)
(0.00388767 -0.0130778 0.00239985)
(0.00423137 -0.0151887 0.00319615)
(0.00373242 -0.0133876 0.0041963)
(0.00418334 -0.0145753 0.00312352)
(0.00385595 -0.0146021 0.00382291)
(0.00375637 -0.0133632 0.00367189)
(0.00437088 -0.0158378 0.00261716)
(0.00332537 -0.00874847 0.00280651)
(0.00359919 -0.0085807 0.0038432)
(0.00337159 -0.00880919 0.00317767)
(0.00325906 -0.00878062 0.00283567)
(0.00331563 -0.00836527 0.00361624)
(0.00327705 -0.00864178 0.00327937)
(0.00136727 -0.011446 0.00182764)
(0.00164703 -0.0102038 0.00173301)
(0.00155146 -0.0104122 0.0015751)
(0.00060628 -0.0113608 0.00176636)
(0.00131162 -0.0130868 0.00522985)
(0.00189005 -0.0135471 0.00491216)
(0.00183104 -0.0131104 0.00550674)
(0.00187728 -0.0127265 0.00356583)
(0.000923283 -0.0115224 0.00408873)
(0.00200086 -0.0131325 0.00440546)
(0.00148678 -0.0125006 0.00433903)
(0.00136566 -0.0122909 0.00347464)
(-0.000829052 -0.00891831 0.00130904)
(-0.000555731 -0.00941226 0.00151368)
(-0.000496203 -0.00987616 0.00205092)
(-0.000943369 -0.00917324 0.00181081)
(-0.000661952 -0.00902804 0.0012562)
(-0.000679604 -0.00964837 0.00205559)
(0.000102614 -0.010223 0.00154113)
(0.000699386 -0.0110699 0.00220078)
(-5.48735e-05 -0.0103297 0.00222107)
(-0.000142261 -0.0100286 0.0017227)
(0.000559956 -0.0109493 0.0014083)
(0.000323724 -0.0109207 0.00232134)
(-0.00124166 -0.0079067 0.000674688)
(-0.00109932 -0.00825889 0.000873696)
(-0.000852972 -0.00804396 0.000395765)
(-0.00101723 -0.00820011 0.000280899)
(-0.000766929 -0.00847861 0.000684483)
(-0.00135879 -0.00799919 0.00037014)
(-0.000503655 -0.00835639 0.000470672)
(-0.000557938 -0.00866682 0.000756531)
(-9.48257e-05 -0.00937892 0.000808937)
(-0.000249578 -0.00851766 0.000373029)
(-4.39303e-05 -0.008876 0.000449168)
(-0.000356245 -0.00915003 0.000870853)
(-0.000277633 -0.00787538 -0.000356328)
(-0.000727733 -0.00759004 -0.000321595)
(-0.000743037 -0.00820851 0.000171858)
(-0.000958083 -0.00756205 2.62303e-05)
(-0.000404413 -0.00771454 -1.68691e-05)
(0.000191652 -0.0086214 -7.89544e-05)
(-0.000225883 -0.00814665 3.89655e-05)
(-0.000108036 -0.00816388 -0.000194955)
(-0.00316935 -0.0116917 -0.00387698)
(-0.00293202 -0.0112879 -0.00386495)
(-0.00275221 -0.0118798 -0.00465286)
(-0.00251222 -0.0124532 -0.0045076)
(-0.00357412 -0.0112419 -0.00374046)
(-0.00237069 -0.0124579 -0.00471473)
(-8.20465e-05 -0.0143244 -0.00416179)
(0.000102495 -0.0148444 -0.00449262)
(-0.00168142 -0.0134003 -0.00477893)
(-0.000258456 -0.0146242 -0.00489984)
(-0.000962623 -0.0134685 -0.00449702)
(-0.00118081 -0.0136801 -0.00492225)
(-0.00336956 -0.0120891 -0.0035605)
(-0.00292959 -0.0117578 -0.00385131)
(-0.00322067 -0.0122357 -0.00383287)
(-0.00219386 -0.0125907 -0.00407142)
(-0.00233273 -0.0124168 -0.00396168)
(-0.00399084 -0.012233 -0.00368817)
(-0.00358572 -0.0089125 -0.000252823)
(-0.00349559 -0.00917725 -0.000832938)
(-0.00341766 -0.00872272 -0.000376667)
(-0.0036101 -0.009398 -0.00117631)
(-0.00382521 -0.00924441 -0.000535509)
(-0.0010341 -0.00943625 -0.00347662)
(-0.00111468 -0.0108625 -0.00493997)
(-0.00107612 -0.00978102 -0.00376201)
(-0.0010767 -0.010534 -0.00452602)
(0.000419628 -0.0126031 -0.00645921)
(0.00011037 -0.0123766 -0.00600882)
(-0.000402608 -0.0118893 -0.00556011)
(-0.00160775 -0.00922573 -0.00306672)
(-0.0013328 -0.00848998 -0.00237898)
(-0.00164909 -0.00914596 -0.00274871)
(-0.00164932 -0.00897742 -0.00232114)
(-0.00132557 -0.00844228 -0.00207725)
(-0.00136297 -0.0088865 -0.0028159)
(-0.000904187 -0.00754397 -0.00111457)
(-0.0011374 -0.00801016 -0.00156718)
(-0.00114707 -0.00790516 -0.00121205)
(-0.000424239 -0.00748407 -0.00086565)
(-0.000360655 -0.00776039 -0.000609788)
(-0.000227406 -0.00753401 -0.000457307)
(0.00236895 -0.0146481 -0.00481794)
(0.00342888 -0.0164038 -0.00427556)
(0.00326752 -0.0166709 -0.00485409)
(0.00268797 -0.0156592 -0.00423913)
(0.00320918 -0.0160455 -0.00343477)
(0.00231227 -0.0202504 0.00717147)
(0.00209551 -0.0194244 0.00804708)
(0.00258859 -0.0209594 0.00761291)
(0.00250991 -0.019465 0.00564364)
(0.00268367 -0.0193646 0.00554505)
(-0.00215955 -0.0206959 0.00944059)
(-0.00289195 -0.0199408 0.00849086)
(-0.00252019 -0.0197152 0.00993454)
(-0.00295149 -0.0201351 0.0094173)
(-0.00294222 -0.0199506 0.00941958)
(-0.00183911 -0.0199696 0.00968716)
(0.00113085 -0.0186436 0.00689738)
(0.00060599 -0.0200599 0.0068601)
(0.00104111 -0.0201158 0.00681106)
(-0.00215576 -0.0207612 0.0124586)
(-0.00246706 -0.0199989 0.0109902)
(-0.00246077 -0.0187946 0.0112152)
(-0.00273932 -0.0194886 0.0104424)
(-0.00284286 -0.0186526 0.00992799)
(-0.00205053 -0.0196061 0.0115037)
(-0.00409248 -0.018667 0.00704355)
(-0.00351442 -0.0177617 0.00685079)
(-0.00379093 -0.0193249 0.00759749)
(-0.00362435 -0.0195802 0.00838658)
(-0.00357961 -0.0185435 0.00794835)
(-0.00362453 -0.0180799 0.00627798)
(-0.00311846 -0.0181311 0.00693534)
(-0.00301484 -0.0185426 0.0080303)
(-0.00283696 -0.0177169 0.00689146)
(-0.00261168 -0.0183492 0.00792814)
(-0.00298684 -0.0187224 0.00887023)
(-0.00312713 -0.0173506 0.00646574)
(-0.00268976 -0.0196214 0.00972001)
(-0.00215315 -0.0208123 0.0113653)
(-0.0026167 -0.0201677 0.00983811)
(-0.00249006 -0.0208702 0.0106571)
(-0.00209943 -0.020577 0.0104951)
(-0.00296025 -0.0193829 0.0091563)
(0.000685481 -0.0108211 0.0014262)
(-0.000165512 -0.0110793 0.0012468)
(0.000670443 -0.0111402 0.00127472)
(-0.00022643 -0.0120918 0.0016952)
(0.000186514 -0.0115317 0.00161019)
(-0.000517515 -0.0123116 0.00155353)
(-0.00308145 -0.0160736 0.00393429)
(-0.00367611 -0.0166345 0.00481155)
(-0.00295435 -0.0163892 0.00445352)
(-0.00310212 -0.0159118 0.00385983)
(-0.0038008 -0.0171734 0.00536201)
(-0.0030947 -0.0151149 0.00338071)
(-0.00319371 -0.0184667 0.00201659)
(-0.00241326 -0.015892 0.000924289)
(-0.00363836 -0.0183296 0.00237371)
(-0.00315854 -0.0174337 0.00128247)
(-0.00362144 -0.0180733 0.00182823)
(-0.00286976 -0.0181082 0.00143305)
(-0.000163627 -0.0127623 0.00219208)
(0.000309273 -0.0116812 0.00216036)
(-7.84992e-06 -0.0121314 0.00236364)
(-0.00019231 -0.0128848 0.0026782)
(-0.000970595 -0.0134444 0.00304312)
(-0.000965269 -0.0134869 0.00281657)
(-0.00331696 -0.0167252 0.00552119)
(-0.00267763 -0.0164277 0.00492434)
(-0.0027719 -0.0157806 0.00400398)
(-0.0029233 -0.0159907 0.00458785)
(-0.00237469 -0.0149297 0.00355438)
(-0.00255272 -0.0157273 0.004203)
(-0.00337569 -0.0184152 0.00667132)
(-0.00388417 -0.0196432 0.0054396)
(-0.00413898 -0.0185979 0.00517499)
(-0.00438534 -0.0177526 0.00570599)
(-0.00384742 -0.0201612 0.00659049)
(-0.00339222 -0.019698 0.00706089)
(-0.00420931 -0.0192747 0.00633466)
(-0.00131839 -0.0199122 0.0119002)
(-0.00226118 -0.0194728 0.0116434)
(0.000591553 -0.0117418 0.00250949)
(-6.5133e-05 -0.0124829 0.00291924)
(-0.00740228 -0.0107427 0.00939543)
(-0.00887128 -0.0120644 0.00890384)
(-0.00796741 -0.0105556 0.00855941)
(-0.00674393 -0.0103978 0.00932261)
(-0.00789302 -0.0110075 0.00974045)
(-0.00889656 -0.0113747 0.00944255)
(-0.00618971 -0.0100421 0.0101305)
(-0.00423322 -0.00942613 0.0100724)
(-0.00402116 -0.00884111 0.0105054)
(-0.00586277 -0.00934611 0.0104901)
(-0.00536033 -0.00943898 0.00975398)
(-0.00498271 -0.00967974 0.0110889)
(-0.00412694 -0.00962042 0.00836509)
(-0.00301029 -0.00910874 0.00861167)
(-0.00490811 -0.0100603 0.0089027)
(-0.00362186 -0.00938304 0.00896133)
(-0.00473719 -0.00910794 0.00899189)
(-0.00341409 -0.0095705 0.00842621)
(0.00160292 -0.0230834 0.00496369)
(9.19032e-05 -0.0215033 0.00383631)
(-0.00970704 -0.017731 0.00475674)
(-0.00847449 -0.0180478 0.00439237)
(-0.00947552 -0.0182731 0.00492576)
(-0.00882782 -0.0114994 0.00678675)
(-0.0103779 -0.0117529 0.00639514)
(-0.00887936 -0.0109986 0.00738523)
(-0.0100578 -0.0121409 0.00743987)
(-0.00984358 -0.0122129 0.00547623)
(-0.009056 -0.01102 0.00559647)
(-0.00814518 -0.0116891 0.0062553)
(-0.00897297 -0.0120072 0.00480715)
(-0.00740024 -0.0107967 0.00634821)
(-0.00792899 -0.0118116 0.00505712)
(-0.00700429 -0.0116051 0.00556892)
(-0.00846366 -0.0116822 0.00512847)
(-0.00824869 -0.0155664 0.000128658)
(-0.00864944 -0.0146867 0.000759796)
(-0.00813367 -0.0141561 0.000958201)
(-0.00739794 -0.0152687 -0.000102417)
(-0.00737405 -0.0154313 -0.000393282)
(-0.00543531 -0.0167764 -0.000410255)
(-0.00473113 -0.016699 -0.000546762)
(-0.00525842 -0.016753 9.47253e-05)
(-0.00671756 -0.0164504 -0.0001821)
(-0.00386733 -0.0175833 -0.000137399)
(-0.00448521 -0.0171554 -9.56422e-05)
(-0.00393902 -0.0186557 0.00107941)
(-0.00396613 -0.0191486 0.00169944)
(-0.00707564 -0.0177056 0.00127269)
(-0.00605811 -0.0172678 0.000649338)
(-0.00593647 -0.0182264 0.0015042)
(-0.0026723 -0.0188053 0.00169843)
(0.000696931 -0.0216935 0.00345605)
(-0.000260283 -0.0210222 0.00329947)
(0.00133541 -0.0223511 0.00437674)
(-0.00122533 -0.0200815 0.0026981)
(0.00224848 -0.0218104 0.00492767)
(-0.000747122 -0.0200608 0.0025082)
(0.000312004 -0.00856195 0.0078175)
(0.00110749 -0.00750309 0.00746193)
(4.55858e-05 -0.00704559 0.00803427)
(0.000885491 -0.00793815 0.00750944)
(0.00339936 -0.00779062 0.00527943)
(0.00292407 -0.00758075 0.0061907)
(0.00303254 -0.00741008 0.00602072)
(0.003582 -0.00753857 0.00525929)
(0.00349033 -0.00771661 0.00575551)
(0.00306138 -0.00769423 0.00574672)
(0.00336372 -0.00883133 0.00521888)
(0.00360785 -0.00892334 0.00408464)
(0.00353684 -0.00870703 0.00389636)
(0.00336339 -0.0085725 0.00485632)
(0.00342992 -0.00875233 0.0046443)
(0.00354914 -0.00878014 0.00435808)
(0.00316865 -0.00848546 0.0050904)
(0.00350523 -0.00839118 0.00462183)
(0.00307111 -0.00848506 0.00556435)
(0.00331677 -0.00832722 0.00483936)
(0.00347135 -0.00854815 0.00461956)
(0.00309156 -0.00786963 0.00529326)
(0.000566931 -0.00939236 0.00780716)
(0.00127487 -0.00959092 0.00736144)
(0.000922799 -0.00969942 0.00756976)
(0.000291548 -0.00982466 0.007984)
(0.00147086 -0.00873892 0.00700345)
(-0.00417889 -0.00990543 0.00762647)
(-0.00266865 -0.00971309 0.00710992)
(-0.00237751 -0.00933696 0.0070989)
(-0.00382776 -0.0097382 0.0077147)
(-0.00343337 -0.00955742 0.00723268)
(-0.00313117 -0.0096506 0.00782851)
(-0.000810018 -0.00869326 0.00729651)
(-0.00223435 -0.00903556 0.00795188)
(-0.00166174 -0.00901394 0.00797928)
(-0.000853607 -0.00945207 0.00798336)
(-0.00160812 -0.00975496 0.00770129)
(-0.000141441 -0.0085924 0.00794771)
(0.000336602 -0.00935535 0.00802751)
(0.000946551 -0.00863758 0.00743325)
(0.00102604 -0.00872515 0.00777772)
(0.000378285 -0.00852589 0.00797505)
(-0.00539783 -0.0102585 0.000257337)
(-0.00556532 -0.0117452 -0.000121868)
(-0.00518084 -0.0107372 0.0011979)
(-0.00523919 -0.0107569 0.00120056)
(-0.00778813 -0.011311 0.00306173)
(-0.00741138 -0.0122878 0.00327463)
(-0.00720223 -0.0126628 0.00227643)
(-0.00724607 -0.010921 0.00359952)
(-0.0070276 -0.0114813 0.00129543)
(-0.00618148 -0.0122121 -0.000591391)
(-0.00593112 -0.0135922 -0.00172281)
(-0.00567368 -0.0134666 -0.00196481)
(-0.00702903 -0.0129523 -0.000531375)
(-0.00656916 -0.0136566 -0.00127811)
(-0.00773245 -0.0138374 -0.000298464)
(-0.00702127 -0.0140494 -0.000820353)
(-0.00713782 -0.013117 0.000303173)
(-0.00788486 -0.0134817 0.000457769)
(-0.00700126 -0.0143673 -0.000861233)
(-0.00145314 -0.0100607 0.00734439)
(-0.000544033 -0.011236 0.00747508)
(-0.00168378 -0.0102743 0.00685043)
(-0.00133578 -0.0106378 0.00699871)
(-0.00106883 -0.00980033 0.00750731)
(-0.000676765 -0.0116116 0.00714778)
(0.00182841 -0.0102254 0.00696899)
(0.00214588 -0.0102626 0.00677587)
(0.00185137 -0.0110782 0.00713352)
(0.00113568 -0.00996364 0.00741885)
(0.00139462 -0.0106339 0.00778432)
(-0.00160283 -0.0100264 0.00441491)
(-0.00219657 -0.00919434 0.00375084)
(-0.00181084 -0.00981441 0.00366946)
(-0.00122437 -0.010364 0.00384018)
(-0.0013322 -0.0104465 0.0045934)
(-0.0022099 -0.00980367 0.00442327)
(-0.00228317 -0.00895667 0.00280733)
(-0.00241215 -0.00877505 0.00232025)
(-0.00205464 -0.0091425 0.00238122)
(-0.00226359 -0.00898803 0.0029879)
(-0.00266006 -0.00862505 0.00255109)
(-0.00141394 -0.00837773 0.00135932)
(-0.00177906 -0.00858722 0.00187308)
(-0.00207159 -0.0082748 0.00174744)
(-0.00167239 -0.00813273 0.00120703)
(-0.00139641 -0.00868916 0.00164906)
(-0.0020822 -0.00825595 0.00142489)
(-0.000884167 -0.00980909 0.00260591)
(-0.00154793 -0.00916909 0.00247574)
(-0.00120817 -0.00977864 0.00333945)
(-0.000867261 -0.00990685 0.00315734)
(-0.00127053 -0.00937324 0.00246028)
(-0.00158476 -0.00922599 0.00307499)
(-0.00528081 -0.0133662 -0.002398)
(-0.0054935 -0.0131197 -0.00224087)
(-0.0057713 -0.0136466 -0.00181824)
(-0.00630154 -0.0131735 -0.00116206)
(-0.00542255 -0.0128469 -0.00119673)
(-0.00513189 -0.0107067 -0.00190969)
(-0.00470913 -0.0110861 -0.0022561)
(-0.00446506 -0.0109731 -0.00304089)
(-0.00470026 -0.0112191 -0.00304316)
(-0.00437003 -0.0105313 -0.00212287)
(0.0020973 -0.0177371 0.00593372)
(0.00239617 -0.0172364 0.0030081)
(0.00250834 -0.0180296 0.00380929)
(0.00243276 -0.0192111 0.00526634)
(0.0020101 -0.0177747 0.0047392)
(0.0022516 -0.0184183 0.00258578)
(0.00226762 -0.0177593 0.00155739)
(0.00201276 -0.0190649 0.0035821)
(0.00200268 -0.0179323 0.00106607)
(0.00226758 -0.018338 0.00235884)
(-0.000260096 -0.0133704 -0.00507694)
(-0.00141507 -0.0121598 -0.0053502)
(-0.00139806 -0.0131019 -0.00506827)
(-0.000663922 -0.0122728 -0.00521197)
(-0.000521241 -0.0139099 -0.0051439)
(-0.00174191 -0.0124084 -0.00502444)
(0.000778999 -0.0151344 -0.00366035)
(0.00169164 -0.0160727 -0.00324562)
(0.00168602 -0.0155997 -0.00238702)
(0.00109854 -0.0150192 -0.0034658)
(0.00203994 -0.0165062 -0.00212946)
(0.00147748 -0.0150867 -0.00239561)
(0.00511205 -0.0233924 0.00844197)
(0.00422862 -0.0225657 0.00739811)
(0.00581648 -0.0245093 0.0102485)
(0.00359917 -0.0234677 0.00663054)
(0.00596496 -0.0235691 0.0108506)
(0.00545909 -0.0235859 0.00986161)
(0.00537184 -0.0235258 0.0114021)
(0.00584856 -0.022521 0.0126739)
(0.00482729 -0.0226145 0.0132021)
(0.00527968 -0.0218536 0.0117345)
(0.00571077 -0.0233501 0.0145864)
(0.00485091 -0.0220929 0.0151649)
(0.00398098 -0.022517 0.0124579)
(0.00318508 -0.0219411 0.0106668)
(0.00425059 -0.0209419 0.010526)
(0.0035513 -0.0206198 0.0130638)
(0.00399992 -0.0212526 0.0102835)
(0.00276794 -0.0198901 0.00836873)
(0.00300752 -0.0196405 0.00761726)
(0.00340888 -0.0195176 0.00884817)
(0.00370639 -0.0150898 0.00112217)
(0.0037472 -0.0153702 -0.000136337)
(0.00425223 -0.01652 -0.000175993)
(0.00347647 -0.01502 0.000632184)
(0.00396727 -0.016096 0.000718918)
(0.0041621 -0.01657 -0.00045625)
(0.000326059 -0.00984913 0.000762698)
(0.000856734 -0.0108846 0.000552625)
(0.000238673 -0.00941295 0.00047536)
(0.00365202 -0.0150299 0.00182014)
(0.00308814 -0.0144088 0.00305355)
(0.00344546 -0.0141936 0.00244803)
(0.00334956 -0.0144642 0.0025046)
(0.00322102 -0.0144387 0.00300622)
(0.00364651 -0.0152793 0.00174671)
(0.00276389 -0.0119131 0.00115404)
(0.00266116 -0.0127461 0.000829621)
(0.0024344 -0.0124497 0.0010934)
(0.00350331 -0.0118399 0.00190905)
(0.00331139 -0.0110135 0.00200205)
(0.00284677 -0.0114175 0.00156996)
(0.00445036 -0.016815 0.000647384)
(0.00453813 -0.0165872 0.00141782)
(0.00396666 -0.016917 -4.885e-05)
(0.00406343 -0.0164208 0.000814749)
(0.00401995 -0.017511 -9.74997e-05)
(0.00415631 -0.0159961 0.00139231)
(-0.00199811 -0.024183 -0.000118489)
(-0.00288274 -0.0251342 -0.00029277)
(-0.00238867 -0.0228359 -0.000331014)
(0.000774735 -0.0285944 -0.00562525)
(0.00177881 -0.0273878 -0.00568611)
(0.00176621 -0.0278533 -0.00620629)
(0.00073462 -0.0302442 -0.00637813)
(-0.000960219 -0.0276671 -0.00401474)
(-0.000145059 -0.0277369 -0.00243051)
(-5.11855e-05 -0.0268184 -0.00327925)
(-0.000225173 -0.0258106 -0.00282975)
(0.000294658 -0.0266168 -0.00347032)
(-0.000653499 -0.026778 -0.00246285)
(0.000610402 -0.0281631 -0.00339491)
(0.000258127 -0.0291349 -0.0032746)
(0.000363777 -0.0288981 -0.00394248)
(0.00180266 -0.0303865 -0.00453827)
(0.0015363 -0.024922 -0.00478806)
(0.0016125 -0.0259661 -0.00449686)
(0.000974838 -0.0271263 -0.00468505)
(0.00129175 -0.0256878 -0.00428022)
(0.00121949 -0.0262924 -0.00505694)
(0.00346772 -0.0191887 -0.00136052)
(0.00214158 -0.0197384 -0.00160601)
(0.0029875 -0.0185649 -0.0011951)
(0.00261964 -0.0196397 -0.00219506)
(0.00210956 -0.020712 -0.00242847)
(0.00163056 -0.0204193 -0.00228786)
(0.00136068 -0.0156068 -0.00403385)
(0.000896553 -0.0151206 -0.0048692)
(0.000963936 -0.0165727 -0.00498876)
(0.00166958 -0.0157675 -0.00374958)
(-0.00262322 -0.00811719 0.000246869)
(0.00133702 -0.0106432 0.00209556)
(0.00397385 -0.021992 -0.00410855)
(0.00219371 -0.0265886 -0.0062383)
(0.00240125 -0.0254597 -0.00622969)
(0.00244156 -0.0243026 -0.00539472)
(0.00344556 -0.0226155 -0.00474736)
(0.00200649 -0.0260917 -0.00567509)
(1.75329e-05 -0.0242359 -0.00350526)
(0.000804529 -0.0257328 -0.00378793)
(0.000704459 -0.0284739 -0.001876)
(0.00301616 -0.0259175 -0.00181969)
(0.00140272 -0.0263201 -0.00121291)
(0.000958338 -0.0268076 -0.00123879)
(0.000499031 -0.027016 -0.00124744)
(0.00500547 -0.0256121 -0.00417033)
(0.000847316 -0.0273862 -0.00232607)
(0.000777124 -0.0280695 -0.00275552)
(0.00147874 -0.0313928 -0.00574594)
(0.00099044 -0.0275902 -0.00534644)
(0.00158075 -0.0273705 -0.00557314)
(0.00185433 -0.026845 -0.00644131)
(-0.000557145 -0.0243249 -0.00327109)
(-0.000920021 -0.0235553 -0.00289824)
(0.000840196 -0.0258501 -0.000820172)
(-9.12067e-05 -0.0256744 -0.000499817)
(0.000306375 -0.0274671 -0.000614027)
(-0.000434793 -0.0241447 0.000943445)
(0.000890326 -0.0261916 -0.000315626)
(0.000252432 -0.0240031 0.00108879)
(0.000564493 -0.0254268 0.000244212)
(0.000403371 -0.0227451 -0.0030957)
(0.000564046 -0.0233306 -0.00292787)
(0.00102395 -0.0217317 -0.00250853)
(-0.000437226 -0.0236755 -0.00254791)
(-0.00116183 -0.0234666 -0.000766682)
(-0.000897916 -0.0215933 -0.00116812)
(0.000930007 -0.0212092 -0.0020787)
(-0.000482675 -0.0206617 -0.00145596)
(0.000360199 -0.0225468 -0.00203349)
(0.000202577 -0.019185 -0.00120719)
(0.00379277 -0.0184655 -0.000992523)
(0.00363868 -0.018179 -0.0010345)
(0.00128654 -0.019788 -0.0015845)
(0.000865766 -0.0190526 -0.00120152)
(0.00301289 -0.0142016 0.00454997)
(0.00421623 -0.0202918 -0.00257183)
(0.00305833 -0.0135291 0.00389973)
(0.00275827 -0.0133634 0.00400769)
(0.00421204 -0.0190398 -0.00155237)
(0.00396324 -0.0189663 -0.0015348)
(0.00435279 -0.0178755 -0.00109401)
(0.0041931 -0.0185487 -0.00161307)
(0.00422052 -0.0190569 -0.00254802)
(0.00382001 -0.0213015 -0.00431467)
(0.00422879 -0.0212288 -0.00327428)
(0.00419277 -0.0193648 -0.00262728)
(0.00396378 -0.0162649 0.000185143)
(0.00425913 -0.0174865 -0.000643518)
(0.00435637 -0.0182966 -0.00197511)
(0.00433044 -0.018054 -0.00184033)
(0.00434134 -0.0176969 -0.000932185)
(0.00406214 -0.0158574 0.00106434)
(0.00421476 -0.0172165 -0.00195644)
(0.00403239 -0.0161391 -0.0012824)
(0.0043546 -0.0170724 -0.00136386)
(0.00340118 -0.0146206 0.000242706)
(0.00356928 -0.0151878 -0.00045297)
(0.000858728 -0.011217 0.00126159)
(0.00135155 -0.0118432 0.00122004)
(0.00156053 -0.0118931 0.00154888)
(0.00225485 -0.0130564 0.00104356)
(0.00125659 -0.0113642 0.00207431)
(0.00147078 -0.0118551 0.00202496)
(0.00171551 -0.0123511 0.00291028)
(0.00270877 -0.013429 0.00116766)
(0.00218149 -0.0132693 0.00245101)
(0.00312963 -0.0143183 0.000922592)
(0.00262188 -0.0136957 0.00167365)
(0.00197137 -0.012967 0.00187854)
(0.00233622 -0.0130478 0.00112393)
(0.00103622 -0.0171583 0.000771464)
(0.0016802 -0.0177995 0.00169576)
(-0.000677087 -0.0201095 0.0129015)
(-0.000161522 -0.0202362 0.0141174)
(0.000539814 -0.0215035 0.0161666)
(0.00110724 -0.0216749 0.0147183)
(0.00184815 -0.0205766 0.0149885)
(0.000626369 -0.0213233 0.0137754)
(0.0021467 -0.0208084 0.00998934)
(0.00252792 -0.0204109 0.0113454)
(0.001565 -0.0212717 0.0130827)
(0.00191332 -0.0204389 0.0130993)
(0.00305407 -0.0199858 0.0104052)
(0.00286407 -0.0220383 0.0146677)
(0.00257073 -0.0214304 0.0133707)
(0.00400108 -0.0204749 0.00751489)
(0.0039067 -0.0205462 0.00868959)
(0.00377819 -0.0222371 0.0153457)
(0.00397545 -0.0216433 0.0129291)
(0.00199533 -0.0211457 0.0163572)
(0.00256832 -0.0224576 0.0159401)
(0.00278604 -0.0215852 0.0168183)
(0.00348326 -0.0220563 0.015734)
(0.00395591 -0.0214193 0.0168414)
(0.0043903 -0.0234884 0.0158126)
(0.00633848 -0.0243821 0.0126697)
(0.0055305 -0.0227929 0.0105681)
(0.00451163 -0.0210795 0.0101423)
(0.00490427 -0.0233283 0.0109504)
(0.00402823 -0.0216969 0.00809502)
(0.00303946 -0.0212378 0.00622616)
(0.00315872 -0.0204154 0.00552595)
(0.00388877 -0.0215962 0.00724871)
(0.00464125 -0.023134 0.00867615)
(0.00470427 -0.0216154 0.00920396)
(0.00354437 -0.0216375 0.00651573)
(0.00306009 -0.0222318 0.00601658)
(0.00298871 -0.0208345 0.00551423)
(0.00348263 -0.0208343 0.00693608)
(0.00376292 -0.0204131 0.00838177)
(0.00196167 -0.019415 0.0032846)
(0.00329726 -0.0194961 0.00574069)
(0.00294326 -0.020465 0.00562101)
(0.00258355 -0.0207576 0.00429309)
(0.0031343 -0.0208554 0.00600675)
(0.00209351 -0.0195405 0.00363701)
(0.0021142 -0.0160337 0.00280569)
(0.00229028 -0.0163024 0.00181714)
(0.0022925 -0.0154913 -0.000138561)
(0.0019066 -0.0148338 -0.000943199)
(0.000767506 -0.0149226 -0.00410727)
(0.00195476 -0.016131 -0.00284996)
(0.00240215 -0.0172937 -0.00217578)
(0.00260081 -0.016504 0.000241518)
(0.00263522 -0.0174254 -0.00104848)
(0.00250681 -0.0173331 -0.00122109)
(0.0025974 -0.0168362 0.000470231)
(-5.25675e-05 -0.0143785 -0.00499508)
(0.000397122 -0.0131503 -0.00507667)
(0.000822722 -0.0133832 -0.00510345)
(-0.00273885 -0.0109234 -0.00460653)
(-0.00249684 -0.0118808 -0.0048342)
(-0.00176097 -0.0106366 -0.00435762)
(-0.00217825 -0.0104825 -0.00404973)
(-0.0025598 -0.010172 -0.00407748)
(-0.0023851 -0.0100112 -0.00373496)
(-0.0021164 -0.00960372 -0.00295799)
(0.00220549 -0.0162017 0.000673334)
(0.00225835 -0.0164142 0.00210264)
(0.00208381 -0.017307 0.000563117)
(0.00203526 -0.0175856 0.00286748)
(0.00236828 -0.018979 0.00184943)
(-0.0022954 -0.0155493 -0.0033942)
(-0.00165251 -0.0130926 -0.00364541)
(-0.0019925 -0.0138305 -0.00328306)
(-0.00151795 -0.0152518 -0.00315102)
(-0.000350489 -0.0167109 -0.0024203)
(-0.000732572 -0.0159203 -0.002924)
(-0.000680853 -0.0165892 -0.00240753)
(-0.00137622 -0.0160494 -0.00270673)
(-0.00205265 -0.0159842 -0.00277405)
(-0.00135248 -0.0160992 -0.00222287)
(-0.000199252 -0.0163668 -0.00192937)
(-0.000722612 -0.0157511 -0.0019427)
(-0.000550521 -0.0135318 -0.00323782)
(0.000669222 -0.0140412 -0.00288467)
(-0.000289209 -0.0150643 -0.00290829)
(4.88591e-05 -0.0134758 -0.00324253)
(0.00177438 -0.0164997 -0.000201596)
(0.00174805 -0.0154629 -0.000835146)
(0.000906103 -0.0147016 -0.00215474)
(0.000507045 -0.0155357 -0.00196291)
(0.00169214 -0.0173246 0.00152271)
(0.00160495 -0.0166382 0.00096334)
(0.00201557 -0.018223 0.00164255)
(0.00205329 -0.017331 0.00149727)
(0.00149402 -0.0173398 0.00038656)
(-7.5261e-05 -0.0158431 -0.00140528)
(0.000680738 -0.0178458 -0.000970516)
(0.000687727 -0.0165128 -1.78605e-05)
(0.00149247 -0.0141171 -0.00486184)
(0.00223181 -0.016546 -0.00358269)
(0.00160442 -0.0145615 -0.00408828)
(0.0015781 -0.0199836 0.00480056)
(-0.00301473 -0.0148584 -0.0031309)
(-0.00328206 -0.00840917 0.000581464)
(-0.00361747 -0.014836 -0.00308898)
(-0.00296437 -0.0156477 -0.00286781)
(-0.00506538 -0.0132448 -0.00255516)
(-0.00538155 -0.0115759 -0.000992773)
(-0.00536981 -0.0147317 -0.00276285)
(-0.00476286 -0.0141399 -0.00274626)
(-0.00439079 -0.0147833 -0.00288905)
(-0.00554558 -0.0146578 -0.00194105)
(-0.000533581 -0.0159023 -0.00166682)
(-9.18603e-05 -0.0161144 -0.000789414)
(-0.00348748 -0.00980063 0.00277899)
(-0.00413375 -0.00993208 0.00235602)
(-0.00442693 -0.00986654 0.00218158)
(-0.00483096 -0.0100761 0.00243422)
(-0.00122352 -0.0091961 0.00185727)
(-0.00406755 -0.00874161 0.00210111)
(-0.00402986 -0.00920238 0.00143464)
(-0.00314398 -0.00834142 0.00157724)
(-0.00345861 -0.00917879 0.000858165)
(-0.00301839 -0.00839629 0.000834549)
(-0.00263308 -0.00832748 0.00098132)