/*--------------------------------*- C++ -*----------------------------------*\
| =========                 |                                                 |
| \\      /  F ield         | OpenFOAM: The Open Source CFD Toolbox           |
|  \\    /   O peration     | Version:  v1612+                                |
|   \\  /    A nd           | Web:      www.OpenFOAM.com                      |
|    \\/     M anipulation  |                                                 |
\*---------------------------------------------------------------------------*/
FoamFile
{
    version     2.0;
    format      ascii;
    class       volScalarField;
    location    "206";
    object      p;
}
// * * * * * * * * * * * * * * * * * * * * * * * * * * * * * * * * * * * * * //

dimensions      [0 2 -2 0 0 0 0];

internalField   nonuniform List<scalar> 
18887
(
3.95475
3.96283
3.99158
3.98433
3.98773
3.98854
3.94813
3.94247
3.94277
3.93462
3.94278
3.95166
3.94435
3.94761
3.95163
3.95034
3.94647
3.94013
3.94228
3.94206
3.94388
3.94492
3.98994
3.99203
3.98878
3.9909
3.99453
3.99684
3.9917
3.99328
3.99506
3.99283
3.99523
3.99406
3.99608
3.99049
3.99579
3.99614
3.99003
3.989
3.99249
4.00133
3.99864
4.00424
3.99002
3.99188
4.00391
4.00657
3.99825
3.99951
3.99752
3.99934
4.00317
4.00379
4.00418
4.00348
3.99909
4.00012
4.00017
3.99766
4.00368
4.00616
4.00319
4.0069
4.00927
4.00581
4.00543
4.00456
4.00547
4.00044
4.0017
4.00453
4.00467
4.00565
4.00176
4.00551
4.00229
3.98949
3.9903
3.98948
3.9878
3.98958
3.9877
3.98725
3.9883
3.98717
3.98605
3.98793
3.98862
3.99104
3.99053
3.98804
3.9901
3.98787
3.99305
4.00615
4.00669
4.00287
4.00803
4.00461
4.00702
4.00755
4.00877
4.01303
3.98788
3.98273
3.99167
3.98629
3.99163
3.99172
3.98228
3.98059
3.98418
3.98632
3.9831
3.98281
3.98632
3.98278
3.98249
3.98653
3.98499
3.97982
3.96169
3.96384
3.96265
3.96286
3.95368
3.95945
3.96466
3.96308
3.96123
3.96267
3.96414
3.96096
3.96492
3.96804
3.96281
3.95747
3.96404
3.96274
3.94063
3.94222
3.94829
3.9455
3.94889
3.94571
3.94795
3.94485
3.944
3.94264
3.94344
3.94129
3.94014
3.96475
3.9667
3.96646
3.96576
3.96264
3.96458
3.96252
3.96471
3.96944
3.9637
3.96427
3.96041
3.96046
3.96266
3.95928
3.96625
4.0005
4.002
3.9999
3.99652
3.99503
3.99428
3.99324
3.99017
4.00064
4.00034
3.99082
3.99286
3.99459
3.99224
3.9994
3.99815
3.99808
3.99295
4.00139
4.00227
3.99749
3.99667
4.00041
3.99881
4.00362
3.99285
3.99526
3.99648
3.99531
3.99875
3.99343
3.99334
3.99813
4.00055
3.99807
3.99811
3.99726
3.99515
4.00873
4.01787
4.01181
4.01211
4.01476
4.01347
4.01261
4.01483
4.01236
4.01427
4.01777
4.0176
4.01825
4.01514
4.01467
4.01554
3.96208
3.96367
3.96489
3.96738
3.96708
3.9696
3.97091
4.00777
4.01014
4.01238
4.00877
4.00736
4.01059
4.01226
4.00923
4.00922
4.00881
4.00941
4.00887
4.01188
4.0088
4.00877
4.00706
4.01387
4.01342
4.01087
4.00553
4.00641
3.94362
3.9401
3.94481
3.94821
3.94407
3.94286
3.93911
3.94379
3.93902
3.94017
3.93931
3.94315
3.94258
3.94415
3.93856
3.94415
3.94365
3.93727
3.9444
3.93963
3.94065
3.9375
3.9762
3.97769
3.98025
3.97741
3.97886
3.98036
3.97501
3.98072
3.97699
3.98009
3.97742
3.97417
3.97729
3.97686
3.97832
3.95701
3.95394
3.95575
3.95357
3.95744
3.95308
3.95486
3.9564
3.95891
3.95448
3.95678
3.95614
3.958
3.9593
3.95995
3.95674
3.9613
3.95399
3.93068
3.93235
3.97047
3.97022
3.96786
3.96601
3.96849
3.96968
3.965
3.96341
3.96305
3.96647
3.96786
3.96187
3.96478
3.96736
3.96403
3.96621
3.96194
3.96662
3.96397
3.9938
3.99036
3.98472
3.98962
3.98855
3.98733
3.9902
3.99075
3.99434
3.98871
3.99763
3.98846
3.98865
3.99171
3.98607
3.99507
3.99305
3.99006
3.94387
3.93698
3.94334
3.94538
3.93909
3.94005
3.93417
3.94161
3.94084
3.93821
3.94393
3.93909
3.94254
3.94365
3.94089
3.93413
3.94263
3.95201
3.94543
3.94762
3.94834
3.94309
3.94864
3.94675
3.94922
3.95026
3.95189
3.95582
3.95037
3.94644
3.96763
3.9673
3.97021
3.96806
3.97226
3.97226
3.96714
3.96609
3.96786
3.96626
3.96723
3.97278
3.97065
3.97422
3.97303
3.96884
3.97033
3.96875
3.97026
3.96892
3.97009
4.00096
3.99976
4.0051
4.00073
4.00369
4.0023
3.99443
4.004
4.00036
4.00197
4.00022
4.00396
4.00453
4.0048
4.00526
4.00252
4.00249
3.9333
3.93515
3.93274
3.93304
4.00798
4.00905
4.00914
4.01048
4.01151
4.00405
4.0038
4.0055
4.01466
4.01331
4.00376
4.00942
4.00863
4.01183
4.01072
4.00583
4.00848
4.0098
3.99975
4.00492
4.00405
3.99933
3.99779
4.00387
4.00205
4.00385
3.99451
3.99799
4.00098
4.00513
3.99771
3.99774
4.00296
3.99699
4.01181
4.01622
4.01694
4.01267
4.01747
4.01288
4.01144
4.0145
4.00768
4.0095
4.01227
4.01821
4.00969
4.01255
4.01547
4.01483
4.01499
3.9909
3.9939
3.99207
3.9964
3.98983
3.99192
3.99044
3.98685
3.99102
3.9935
3.99601
3.98866
3.99014
3.98471
3.98635
3.98529
3.98551
3.99047
3.98525
3.9548
3.95557
3.95233
3.95645
3.95913
3.95429
3.95773
3.95362
3.95253
3.95326
3.96032
3.96011
3.95439
3.9571
3.94777
3.95562
3.94688
3.95662
3.95632
3.96232
3.9573
3.95288
4.00082
3.99624
3.9989
3.99608
3.99613
3.98885
4.00245
3.98796
4.00097
4.00267
3.99685
3.99284
3.98817
3.996
3.99453
3.99554
3.99173
4.0016
3.97613
3.98079
3.97839
3.97592
3.97773
3.97814
3.97262
3.98235
3.98196
3.97852
3.97455
3.97609
3.97748
3.97647
3.97118
3.97667
3.95423
3.95259
3.95112
3.95533
3.95531
3.95951
3.95523
3.96159
3.9569
3.96024
3.96197
3.96973
3.95707
3.95935
3.96309
3.96456
3.95585
3.96142
3.96348
3.99288
3.98952
3.98784
3.98984
3.99124
3.99118
3.99078
3.99396
3.98878
3.99361
3.99741
3.99225
3.99578
3.9968
3.99544
3.99314
3.99318
3.99134
3.99346
3.99669
3.99424
3.96182
3.95799
3.9565
3.96086
3.95738
3.9614
3.95876
3.96021
3.95857
3.96253
3.96576
3.95903
3.96224
3.96497
3.95636
3.95307
3.96143
3.9559
3.9542
3.95815
3.94402
3.95289
3.9506
3.94912
3.94519
3.94588
3.94506
3.94982
3.94878
3.94436
3.94496
3.95183
3.95061
3.95202
3.94837
3.94923
3.94567
3.94823
3.95174
3.95413
3.95202
3.95505
3.95227
3.95668
3.95223
3.9543
3.95456
3.95223
3.94761
3.94964
3.94806
3.95224
3.95181
3.94764
3.94775
3.95274
3.953
3.95281
3.95103
3.93024
3.9333
3.93469
3.92909
3.93107
3.93026
3.95186
3.95133
3.95214
3.9559
3.95844
3.95762
3.95469
3.95309
3.95009
3.95538
3.9547
3.95744
3.95864
3.95598
3.95775
3.94954
3.95067
4.01002
4.00642
4.00925
4.00858
4.00826
4.00128
4.00497
4.00525
4.00464
4.00942
4.00732
4.00498
4.00404
4.00119
3.99904
4.00404
4.01198
4.01268
4.0089
4.00849
4.0062
4.00523
3.97214
3.96866
3.97015
3.97236
3.97162
3.96938
3.96676
3.96934
3.97035
3.96914
3.97526
3.97082
3.96296
3.96689
3.9722
3.97247
3.96767
3.97204
4.00006
3.99338
3.99227
3.99784
3.99249
3.9957
3.99622
3.99412
3.98988
3.99314
3.9953
3.9988
3.99361
3.9996
3.98871
3.98458
3.98882
3.99305
3.99407
3.997
3.99229
3.99772
3.99497
3.99458
3.99606
3.99309
3.99272
3.99632
4.00107
3.99284
3.99569
3.99535
3.9933
3.99203
3.99236
3.99413
3.99322
3.99632
3.99504
4.00338
4.00206
4.00005
4.00014
3.9947
4.00239
4.00166
4.00235
4.00069
3.99434
3.9898
3.99899
3.99991
3.97131
3.9655
3.96774
3.9648
3.96638
3.96872
3.96287
3.96462
3.96393
3.96504
3.96807
3.96538
3.96295
3.96636
3.95487
3.96338
3.96394
3.96572
3.96079
3.95766
3.95546
3.96095
3.9643
3.97482
3.97367
3.97618
3.97383
3.97839
3.97853
3.98191
3.98208
3.97562
3.97956
3.98022
3.98099
3.97982
3.97741
3.97394
3.98426
3.97886
3.98409
3.95647
3.95652
3.95236
3.95979
3.96371
3.95094
3.95607
3.95949
3.95557
3.96146
3.95838
3.95723
3.95993
3.95105
3.9538
3.95322
3.95615
3.95815
3.95234
3.95974
3.97804
3.97907
3.97568
3.98133
3.97641
3.97354
3.97803
3.97545
3.98075
3.9799
3.97078
3.97448
3.98303
3.971
3.97642
3.97674
3.97594
3.98262
3.97016
3.97657
3.95504
3.95452
3.94971
3.9502
3.96187
3.9542
3.95289
3.9489
3.94802
3.95086
3.95634
3.95334
3.95413
3.9501
3.95104
3.95069
3.95389
3.9538
3.95073
3.95383
3.95424
3.95184
3.93842
3.94274
3.94236
3.93895
3.94167
3.95136
3.94504
3.9382
3.93911
3.94714
3.94098
3.93913
3.94127
3.93984
3.94817
3.94507
3.94367
3.95643
3.9566
3.96025
3.95752
3.95938
3.9572
3.95894
3.95946
3.95443
3.96005
3.95674
3.9617
3.96107
3.95848
3.95682
3.95776
3.94497
3.94257
3.94359
3.94283
3.93856
3.94418
3.94305
3.94123
3.94147
3.94146
3.93607
3.9401
3.94266
3.94327
3.93889
3.94696
3.99812
3.99919
4.00187
3.99919
4.00249
4.00049
4.00308
3.99903
3.9992
4.00591
4.00223
3.99976
3.99877
4.00244
4.00161
4.00554
4.00094
4.00307
3.99593
4.00674
3.97015
3.96687
3.96685
3.96368
3.96329
3.96804
3.96325
3.96353
3.9638
3.96952
3.95909
3.96251
3.95706
3.96299
3.96555
3.96513
3.96448
3.95818
3.96587
3.93753
3.93334
3.93865
3.94239
3.93723
3.93287
3.93992
3.93598
3.93469
3.9338
3.93667
3.93742
3.93498
3.93606
3.93392
3.93661
3.9401
3.92778
3.93499
3.93414
3.93702
3.93566
3.93779
3.93846
3.93884
3.93863
3.94773
3.94372
3.94203
3.94463
3.9469
3.93956
3.94442
3.94569
3.94532
3.94363
3.94212
3.94242
3.94815
3.94243
3.95022
3.93979
3.94748
3.95329
3.94734
3.95256
3.95036
3.94883
3.95328
3.94868
3.95452
3.95164
3.95623
3.94974
3.95021
3.95154
3.95278
3.95357
3.95495
3.95182
3.95916
3.95573
3.95874
3.95653
3.96251
3.96067
3.95376
3.95462
3.95761
3.961
3.95898
3.95701
3.95613
3.9569
3.96511
3.96271
3.96509
3.95625
3.95423
3.95718
3.9615
3.96919
3.9633
3.96849
3.9644
3.96698
3.96295
3.96804
3.96622
3.96531
3.96712
3.96526
3.96677
3.96565
3.96513
3.97354
3.97013
3.96996
3.96314
3.97167
3.97339
3.97115
3.97181
3.97036
3.98004
3.97566
3.97735
3.96923
3.97186
3.97623
3.97956
3.97878
3.97596
3.97579
3.97623
3.97535
3.97595
3.9746
3.98091
3.97796
3.97328
3.98371
3.97268
3.97868
3.97801
3.97484
3.9774
3.98575
3.98083
3.97729
3.97722
3.98297
3.98337
3.98456
3.98442
3.98284
3.98791
3.98255
3.97814
3.98762
3.98489
3.98366
3.98305
3.98025
3.98353
3.98229
3.98987
3.98949
3.98561
3.98704
3.9972
3.99029
3.99474
3.9932
3.98961
3.99116
3.99376
3.99474
3.98705
3.9863
3.99462
3.9905
3.9892
3.99768
3.99595
3.99136
3.99648
3.9959
3.99286
3.98988
3.99483
3.99472
3.99188
4.00198
3.99657
3.99299
3.99163
3.99159
3.9963
3.99448
3.99873
3.9989
4.00511
4.00521
4.00047
4.0066
4.0012
4.00075
4.00403
4.00135
4.00393
3.99528
4.00209
4.00079
4.00956
4.00513
4.00627
3.99814
4.00505
4.01216
4.00798
4.00456
4.00572
4.00409
4.004
4.01302
4.00356
4.00263
4.0047
4.00748
4.01385
4.00773
4.01354
4.00944
4.00746
4.00623
4.0131
4.014
4.01995
4.01125
4.01295
4.01277
4.0164
4.01466
4.01459
4.01413
4.01629
4.02032
4.01547
4.01557
4.01126
4.00455
4.01633
4.01521
4.01212
4.01132
4.00824
4.00415
4.01341
4.01351
4.01396
4.01012
4.00953
4.01902
4.01494
4.01457
4.00828
4.00905
4.01135
4.00567
4.01139
4.01217
4.01457
4.01824
4.01203
4.0118
4.01416
4.01621
4.01183
4.01387
4.0103
4.01271
4.01039
4.00895
4.01222
4.01241
4.00807
4.0099
4.01204
4.0177
4.01494
4.01517
4.00566
4.00602
4.00382
4.00507
4.00883
4.01618
4.01128
4.00982
4.00966
4.01096
4.01408
4.01404
4.01586
4.01592
4.01375
4.01187
4.01167
4.00397
4.0092
4.00963
4.00027
4.00561
4.00404
4.00307
4.01285
4.00441
4.00489
4.00432
4.00556
4.00565
4.01185
4.00882
4.0061
4.01497
4.00974
4.00853
4.00919
4.00753
4.0059
4.01075
4.00919
4.01285
4.01723
4.0134
4.00402
4.00509
4.00838
4.00785
4.00355
4.00196
4.00742
4.00936
4.00486
4.00935
4.00502
4.0071
4.0006
4.00311
4.00244
4.0024
4.00682
4.00619
4.00563
4.01282
4.00824
4.00798
4.00975
4.01486
4.01313
4.0131
4.01674
4.00953
4.01035
4.00821
4.00457
4.00452
4.00003
4.00217
4.00484
4.00208
4.00584
4.00473
4.00282
4.0098
4.0119
4.00978
4.00273
4.01237
3.99819
3.9987
4.00564
4.00488
4.00451
4.00966
4.01231
4.00691
3.99698
4.00354
3.99872
4.00245
3.99774
4.00362
4.00255
4.00161
4.01025
4.01272
4.00364
4.00129
4.00252
4.00508
4.00692
4.00104
4.00146
3.99637
4.00581
4.00521
3.99737
4.00207
4.00345
3.99954
4.00955
4.00622
4.00585
4.003
3.99703
4.00071
4.00183
4.0006
4.00828
4.00245
4.00675
4.00252
4.00452
4.00152
3.99846
4.00613
4.0023
4.00017
4.0011
4.00045
3.99293
4.00204
4.00855
3.99958
3.9977
4.00745
4.00714
4.01152
4.00793
4.00852
4.00367
4.00406
4.00775
4.00509
4.0074
3.99788
3.99643
3.9993
4.00015
3.99355
4.00075
3.99635
3.99853
3.99482
3.99546
3.99713
3.98708
4.00043
3.99891
4.00103
3.99734
3.99229
3.99657
3.99783
4.00051
4.00128
4.00107
4.00178
4.00094
3.99677
4.00267
3.99633
3.99433
3.99872
3.99249
3.99208
3.99895
3.9948
3.99617
4.00165
4.0088
3.99343
3.99398
3.99996
3.99987
4.00648
3.9908
3.99634
3.99696
3.99951
3.99681
3.9945
3.99534
4.00123
4.00831
4.009
4.00325
3.99951
3.99297
3.99916
3.99265
3.9892
3.99835
3.99647
3.99542
4.0025
4.00675
3.99796
3.99844
3.99854
3.9975
3.99361
4.0003
4.00107
4.00213
4.00157
3.99526
3.99549
3.99629
3.99399
3.99803
4.00623
4.00403
4.00359
4.00206
3.9984
4.00062
3.99895
4.00197
4.00312
3.99743
3.98769
3.98816
3.98852
3.99894
3.99577
3.9927
3.98971
3.99784
4.00023
3.99395
3.99537
3.99775
3.99052
3.98917
3.99174
3.98664
3.99634
3.99007
3.99369
3.99481
3.99853
3.98845
3.99011
3.9978
3.99375
3.9991
3.99488
3.99545
3.99371
3.99515
3.9925
3.99182
3.98823
3.98695
3.99299
3.99699
3.99527
4.00258
4.0005
3.99799
3.99584
4.00043
3.99677
3.98647
4.00106
3.99654
3.9987
3.99602
4.00323
3.99977
3.99512
3.99902
3.99314
3.99299
3.98791
3.99348
3.99015
3.98146
3.99097
3.989
3.99067
3.98271
3.99372
3.99077
3.99293
3.98369
3.98805
3.98811
3.99207
3.98386
3.98471
3.98957
3.99828
4.00067
3.99984
3.9933
3.99309
3.99139
3.99818
3.991
3.99176
4.00062
3.99653
3.99398
3.99488
3.99623
3.99759
3.99197
3.99694
3.99289
3.99562
3.99524
3.99003
3.99339
4.00012
3.9983
3.9919
3.99831
3.99273
3.99288
3.99261
3.98697
3.99337
3.98938
3.98714
3.99174
3.99309
3.99563
3.99331
3.98452
3.99026
3.98261
3.99041
3.98556
3.98487
3.98593
3.98671
3.99276
3.98644
3.98973
3.98926
3.98858
3.9835
3.98579
3.99236
3.98722
3.98741
3.98589
3.99282
3.98857
3.98636
3.99157
3.99368
3.99423
3.99436
3.99247
3.98976
3.99635
3.99495
3.98557
3.99174
3.99057
3.99228
3.99044
3.9873
3.98717
3.98778
3.99085
3.98855
3.99218
3.98348
3.98241
3.98375
3.98564
3.97918
3.97866
3.98771
3.99335
3.99007
3.98481
3.99241
3.98642
3.98476
3.98624
3.97551
3.98405
3.9763
3.98006
3.9838
3.97777
3.9853
3.98278
3.97269
3.98485
3.98072
3.97748
3.98681
3.9835
3.97811
3.98169
3.98129
3.9812
3.98485
3.98123
3.98493
3.99057
3.98722
3.98885
3.98331
3.98938
3.98952
3.9819
3.98119
3.98953
3.985
3.98554
3.97881
3.98386
3.98073
3.98192
3.98419
3.98451
3.98281
3.97897
3.98903
3.98552
3.98548
3.98543
3.98684
3.97571
3.9825
3.97661
3.97871
3.98218
3.98647
3.98933
3.98531
3.98534
3.985
3.98668
3.98328
3.97337
3.97483
3.98165
3.9801
3.98559
3.98762
3.98117
3.9803
3.97881
3.98129
3.98795
3.9826
3.98369
3.98597
3.98777
3.98107
3.97903
3.98356
3.9791
3.98635
3.98522
3.98255
3.98986
3.98771
3.9916
3.98649
3.96861
3.97647
3.97366
3.9711
3.98065
3.97012
3.97937
3.97691
3.97917
3.97314
3.97815
3.96907
3.98288
3.97818
3.98401
3.98093
3.98211
3.9767
3.97815
3.97338
3.98217
3.98067
3.97997
3.97644
3.98283
3.98141
3.98066
3.97949
3.98033
3.97232
3.97224
3.9663
3.9755
3.98002
3.97795
3.98042
3.97729
3.96869
3.97392
3.97755
3.9766
3.96565
3.97386
3.97771
3.97461
3.96698
3.96731
3.97476
3.97414
3.98398
3.9743
3.97478
3.97135
3.97459
3.9739
3.96917
3.97463
3.97285
3.97092
3.97801
3.97622
3.97589
3.97397
3.97308
3.97051
3.96585
3.96735
3.96621
3.97212
3.97157
3.9782
3.9744
3.9753
3.97926
3.98321
3.98311
3.97899
3.97662
3.97176
3.97093
3.97293
3.96989
3.97578
3.97468
3.97829
3.97444
3.97721
3.97387
3.97895
3.96757
3.97055
3.97076
3.9711
3.96749
3.97178
3.97467
3.97156
3.97616
3.97358
3.9807
3.9742
3.9755
3.97768
3.97854
3.9704
3.96918
3.97531
3.97141
3.96877
3.97398
3.96849
3.9813
3.97725
3.97317
3.98304
3.97982
3.96281
3.96574
3.97256
3.97539
3.9696
3.96991
3.9679
3.96556
3.97117
3.97359
3.96898
3.97758
3.97427
3.96933
3.97276
3.97169
3.96462
3.97275
3.96633
3.96796
3.98161
3.97954
3.9784
3.98055
3.97399
3.97621
3.97062
3.97338
3.96192
3.96456
3.97057
3.97013
3.967
3.9712
3.96636
3.96926
3.96874
3.97319
3.97379
3.97247
3.97122
3.97058
3.97106
3.96877
3.97181
3.96797
3.965
3.97036
3.96587
3.96609
3.96431
3.97469
3.96717
3.96858
3.97197
3.97062
3.96697
3.96286
3.97509
3.97056
3.96871
3.96428
3.96447
3.95977
3.97025
3.96659
3.97551
3.96906
3.96612
3.97297
3.97197
3.96195
3.96557
3.96726
3.96897
3.96569
3.9598
3.96629
3.96997
3.96803
3.96424
3.9636
3.96497
3.96752
3.9601
3.95823
3.96029
3.96334
3.96352
3.97069
3.96709
3.96966
3.9682
3.97376
3.97393
3.96689
3.96621
3.96925
3.96824
3.96598
3.96326
3.95952
3.96241
3.96009
3.96393
3.96043
3.95988
3.96079
3.95753
3.96433
3.96016
3.96255
3.96182
3.96265
3.96472
3.97246
3.96725
3.97294
3.96291
3.96979
3.96567
3.97043
3.96576
3.96657
3.96201
3.95848
3.9613
3.96306
3.96113
3.968
3.9603
3.96141
3.95928
3.96229
3.9637
3.95707
3.9729
3.96502
3.96365
3.95555
3.95845
3.96254
3.95732
3.95625
3.95518
3.9572
3.9625
3.96178
3.95338
3.9605
3.95836
3.95842
3.95581
3.96652
3.96463
3.95847
3.9597
3.95502
3.9542
3.96282
3.961
3.96131
3.96384
3.96969
3.9662
3.96488
3.96521
3.96741
3.96382
3.96573
3.96111
3.9574
3.9666
3.96648
3.96707
3.97064
3.95936
3.95811
3.96074
3.95931
3.9599
3.95817
3.9675
3.96795
3.96765
3.97571
3.97273
3.96561
3.96389
3.96664
3.96019
3.96098
3.95688
3.96153
3.95599
3.95762
3.95464
3.96335
3.95958
3.95552
3.96394
3.95794
3.96073
3.95492
3.96167
3.95469
3.95043
3.95755
3.95508
3.96031
3.96127
3.9542
3.9563
3.96105
3.9584
3.95806
3.96046
3.96385
3.95985
3.95849
3.95635
3.95498
3.95248
3.95697
3.94928
3.95968
3.95036
3.95955
3.9538
3.96184
3.9486
3.9576
3.96096
3.95873
3.95589
3.95313
3.9575
3.95571
3.95298
3.94859
3.95458
3.96163
3.96128
3.96674
3.95369
3.95739
3.95591
3.94285
3.95333
3.95355
3.95672
3.94836
3.95175
3.95228
3.94856
3.94858
3.95696
3.96027
3.95587
3.95267
3.9575
3.96423
3.95792
3.96721
3.96304
3.95809
3.95913
3.96099
3.96175
3.95167
3.95363
3.9575
3.9521
3.95572
3.95362
3.967
3.96204
3.96358
3.9426
3.94536
3.94948
3.94725
3.9507
3.94987
3.94912
3.94916
3.94595
3.95046
3.95476
3.95066
3.95825
3.95008
3.94995
3.94899
3.95392
3.95215
3.95449
3.95419
3.94625
3.94817
3.94787
3.9522
3.94352
3.94449
3.94485
3.95191
3.95059
3.9567
3.95891
3.95556
3.94976
3.95568
3.95436
3.96008
3.95487
3.95212
3.95756
3.95718
3.95675
3.94416
3.95461
3.95043
3.94753
3.95084
3.95065
3.93747
3.94584
3.94476
3.94698
3.94475
3.94411
3.94961
3.94448
3.9444
3.94591
3.95198
3.94959
3.9472
3.94249
3.94485
3.95182
3.95411
3.94961
3.95001
3.95228
3.94519
3.95549
3.95946
3.95285
3.94835
3.9493
3.94669
3.95241
3.95113
3.95443
3.95515
3.95383
3.9554
3.95821
3.95416
3.95341
3.94525
3.95299
3.94945
3.95334
3.94962
3.94476
3.94486
3.9446
3.95146
3.94801
3.94783
3.95054
3.94937
3.94939
3.95677
3.95068
3.95092
3.95113
3.95278
3.95276
3.95059
3.95663
3.95534
3.95393
3.95631
3.9535
3.96012
3.96052
3.95805
3.95599
3.95751
3.94788
3.94772
3.94676
3.94773
3.94607
3.9451
3.9511
3.95374
3.94833
3.9523
3.95436
3.95808
3.94412
3.952
3.94933
3.95305
3.95077
3.96078
3.96197
3.93734
3.94729
3.9469
3.94404
3.9483
3.94731
3.94328
3.95103
3.95165
3.95086
3.9562
3.95625
3.9551
3.95715
3.9526
3.95621
3.94186
3.94204
3.94101
3.94903
3.94442
3.94465
3.94234
3.94042
3.94761
3.94978
3.94697
3.94123
3.93956
3.93926
3.94633
3.9408
3.94374
3.94107
3.93875
3.93357
3.93509
3.94206
3.94012
3.93762
3.93276
3.93558
3.94247
3.94349
3.94014
3.94227
3.94083
3.94443
3.9421
3.93968
3.94292
3.94872
3.94583
3.94216
3.95035
3.95161
3.95136
3.94569
3.94515
3.94276
3.95127
3.94776
3.94576
3.94937
3.9382
3.94119
3.94761
3.94699
3.94001
3.94264
3.94011
3.94175
3.94756
3.94332
3.94278
3.94477
3.94728
3.94589
3.95019
3.94666
3.94734
3.94755
3.94698
3.94747
3.94801
3.94509
3.94727
3.93558
3.94351
3.94029
3.94008
3.94579
3.94347
3.9382
3.93983
3.94445
3.94554
3.94737
3.94939
3.94632
3.94838
3.94845
3.94738
3.94974
3.94657
3.94122
3.94233
3.9452
3.94565
3.9474
3.9459
3.94525
3.94321
3.93324
3.94396
3.94234
3.94144
3.94234
3.94059
3.95362
3.94746
3.94408
3.9514
3.947
3.93834
3.93068
3.93361
3.92872
3.92828
3.93284
3.9299
3.93634
3.9348
3.93457
3.9368
3.9336
3.94091
3.93811
3.93985
3.94344
3.93708
3.93725
3.93315
3.93772
3.93935
3.93944
3.94135
3.93983
3.93457
3.94157
3.94096
3.93775
3.94594
3.94594
3.9426
3.93115
3.92881
3.93899
3.94044
3.93829
3.93837
3.93745
3.93607
3.92933
3.94064
3.94025
3.93576
3.93054
3.92983
3.93054
3.93775
3.93855
3.94655
3.94388
3.94138
3.94
3.93672
3.9397
3.93909
3.94307
3.94068
3.9433
3.94655
3.94097
3.93921
3.9355
3.93899
3.94319
3.94566
3.94034
3.94036
3.9383
3.94417
3.94635
3.93361
3.93467
3.93697
3.93556
3.93717
3.94163
3.93637
3.93784
3.93845
3.92859
3.93342
3.93542
3.93127
3.9441
3.93871
3.94059
3.93704
3.94426
3.93573
3.9407
3.93918
3.93394
3.94152
3.94083
3.93981
3.92925
3.93218
3.93652
3.93684
3.93446
3.93523
3.93321
3.93997
3.93293
3.93462
3.93447
3.9234
3.92986
3.93257
3.93058
3.93838
3.93394
3.93486
3.93608
3.93361
3.93437
3.92841
3.93251
3.92973
3.93591
3.93453
3.93933
3.94194
3.93627
3.93544
3.92955
3.93428
3.93868
3.93473
3.94331
3.93535
3.93697
3.93915
3.9342
3.93674
3.93415
3.92893
3.93787
3.93699
3.93215
3.93862
3.93257
3.93566
3.93198
3.93561
3.93203
3.9361
3.93523
3.93461
3.93425
3.93415
3.93724
3.93572
3.93475
3.93108
3.93475
3.92858
3.92895
3.92885
3.94068
3.93621
3.93398
3.93446
3.93542
3.93827
3.934
3.93257
3.93613
3.93729
3.92788
3.93324
3.92982
3.93729
3.93964
3.93518
3.9249
3.93056
3.93694
3.92885
3.94639
3.94232
3.9402
3.94569
3.93271
3.93696
3.93295
3.92932
3.92455
3.93088
3.92599
3.9318
3.93162
3.92744
3.93011
3.92845
3.94353
3.95119
3.94742
3.95281
3.94833
3.94871
3.9423
3.93417
3.9367
3.93616
3.93159
3.93709
3.93575
3.93441
3.93679
3.94463
3.93889
3.94131
3.93467
3.93718
3.93881
3.93998
3.92723
3.93377
3.93667
3.93354
3.93763
3.93599
3.93879
3.93465
3.93375
3.92985
3.92614
3.92987
3.9423
3.93869
3.94106
3.94085
3.94944
3.95022
3.94784
3.95565
3.95083
3.94817
3.9503
3.94942
3.9463
3.93976
3.94496
3.94086
3.941
3.93992
3.93709
3.93479
3.93887
3.93363
3.93997
3.94335
3.94709
3.9468
3.94366
3.94668
3.94566
3.94223
3.93727
3.94337
3.93421
3.93944
3.93904
3.94418
3.93589
3.94287
3.94008
3.94118
3.93947
3.94263
3.94077
3.94086
3.9308
3.9384
3.94774
3.94705
3.94091
3.94025
3.94336
3.9468
3.94744
3.9436
3.94413
3.94682
3.95137
3.95198
3.95472
3.95137
3.95176
3.95491
3.95373
3.9483
3.94641
3.95168
3.95387
3.94759
3.95561
3.93616
3.93881
3.93614
3.93663
3.93327
3.93197
3.94014
3.93886
3.93523
3.93701
3.93586
3.94354
3.94053
3.94217
3.94089
3.94163
3.93419
3.93427
3.93557
3.93545
3.93109
3.93362
3.93964
3.93633
3.94282
3.94005
3.93865
3.93945
3.9391
3.94043
3.9453
3.94162
3.94271
3.94029
3.93946
3.9396
3.9454
3.94186
3.94026
3.94202
3.94878
3.94234
3.94352
3.93681
3.9407
3.93969
3.94009
3.94049
3.93725
3.93435
3.93533
3.94426
3.94015
3.94523
3.94617
3.94172
3.95055
3.95205
3.94952
3.94791
3.94449
3.94078
3.94956
3.93452
3.93504
3.93123
3.93204
3.93944
3.93614
3.93284
3.9368
3.93722
3.93703
3.93583
3.93025
3.92865
3.95479
3.95806
3.95643
3.95501
3.95172
3.96066
3.95947
3.94106
3.94177
3.94306
3.94572
3.94436
3.94747
3.93807
3.942
3.94465
3.94168
3.9416
3.95199
3.94725
3.95122
3.95411
3.9513
3.95193
3.94915
3.94867
3.95539
3.9547
3.95764
3.9533
3.95851
3.95211
3.95417
3.95155
3.95394
3.95568
3.95189
3.95432
3.95455
3.94784
3.953
3.95302
3.95594
3.95421
3.95318
3.95446
3.95709
3.95516
3.95333
3.95214
3.9547
3.95377
3.95318
3.95423
3.95977
3.96354
3.96063
3.97154
3.96428
3.96884
3.95515
3.9433
3.9583
3.95505
3.95082
3.9502
3.95262
3.94927
3.95323
3.95295
3.96553
3.96266
3.96136
3.96835
3.96298
3.96909
3.96206
3.96006
3.96203
3.95827
3.95676
3.95992
3.95615
3.95245
3.95776
3.96011
3.95846
3.95756
3.95573
3.95216
3.94874
3.95496
3.95265
3.9545
3.95114
3.95843
3.95961
3.96046
3.96261
3.95976
3.96903
3.95349
3.95286
3.95512
3.95558
3.95138
3.95196
3.95393
3.95586
3.9549
3.96727
3.96333
3.9653
3.96475
3.96934
3.96332
3.96166
3.96665
3.96875
3.9632
3.96358
3.97043
3.96846
3.96338
3.96573
3.97136
3.96873
3.96803
3.9763
3.97489
3.97449
3.97283
3.97454
3.97074
3.97028
3.97066
3.96261
3.96717
3.96556
3.96495
3.96372
3.97268
3.96971
3.96416
3.96706
3.96315
3.96517
3.96753
3.96104
3.96407
3.96052
3.96033
3.97796
3.9765
3.97557
3.97741
3.9722
3.97233
3.97631
3.96606
3.96203
3.96071
3.95647
3.95921
3.96427
3.96112
3.96402
3.95564
3.96048
3.95715
3.96429
3.95848
3.96272
3.96983
3.96466
3.96716
3.96588
3.96413
3.96434
3.97595
3.973
3.97214
3.97194
3.96932
3.96521
3.97379
3.97399
3.97131
3.97249
3.96824
3.96451
3.96576
3.96698
3.96607
3.96707
3.97229
3.97414
3.97163
3.96641
3.96969
3.97504
3.96816
3.96831
3.97148
3.97324
3.97158
3.97711
3.97879
3.97377
3.96903
3.98249
3.97695
3.97762
3.9786
3.97208
3.97301
3.97312
3.97262
3.97178
3.96923
3.97839
3.97307
3.96968
3.97077
3.98289
3.98232
3.98849
3.97779
3.97634
3.98064
3.97761
3.98142
3.97639
3.97399
3.98177
3.98161
3.978
3.97519
3.97503
3.97469
3.97746
3.9781
3.97633
3.98651
3.9845
3.98245
3.97933
3.97803
3.9789
3.97803
3.98449
3.98278
3.98279
3.98304
3.98456
3.99058
3.98839
3.98389
3.98528
3.9868
3.98701
3.98644
3.97856
3.97664
3.98661
3.98121
3.98282
3.98426
3.98429
3.98306
3.98387
3.98155
3.98552
3.9832
3.9834
3.9869
3.9875
3.98979
3.9854
3.98252
3.98217
3.98078
3.98057
3.98451
3.98977
3.98785
3.98191
3.98937
3.98595
3.9866
3.97746
3.98058
3.98684
3.98076
3.98373
3.98168
3.98569
3.98305
3.98571
3.98662
3.98189
3.98219
3.98007
3.98356
3.97823
3.98034
3.985
3.98376
3.98498
3.98634
3.98581
3.98877
3.98551
3.9815
3.98187
3.98612
3.98371
3.98731
3.98552
3.98671
3.9825
3.98478
3.97768
3.98019
3.98034
3.98019
3.98779
3.98326
3.97942
3.98533
4.00384
3.9992
4.00158
3.99902
3.99391
3.98972
3.99017
3.98627
3.98526
3.99178
3.99287
3.99544
3.9953
3.99514
3.99226
3.99573
3.99342
3.99788
3.9974
3.99575
3.99316
3.98982
3.9915
3.998
3.99506
3.98846
3.98816
3.98692
3.9921
3.98673
3.99712
3.99419
3.98917
3.98712
3.99191
3.99315
3.9915
3.99031
3.99748
3.99694
3.99832
3.99101
3.99289
3.99726
3.99765
3.99397
3.99238
3.99687
3.99783
3.98684
3.99026
3.98146
3.98494
3.981
3.98524
3.98068
3.983
3.97862
3.98154
3.9835
3.98528
3.98822
3.98143
3.98372
3.99064
3.98934
3.98348
3.98505
3.98576
3.98831
3.99152
3.98575
3.99044
3.99017
3.99324
3.99098
3.99783
3.99244
3.99647
3.99337
3.98881
3.99519
3.99391
3.99316
3.99502
4.003
3.9972
3.99614
3.99269
3.99834
4.00207
3.99983
4.00028
3.99131
3.98946
3.98976
3.99445
3.99268
3.9969
3.99403
3.98898
3.99071
3.99439
3.99385
3.98696
3.99088
3.99294
3.98759
3.98966
3.9896
4.0049
4.00838
4.00346
4.00535
4.00215
4.00597
4.00591
3.99461
3.99059
3.99313
3.99714
3.99393
3.99855
3.99514
3.99169
3.99464
3.99113
3.98785
4.00345
3.99625
3.99476
4.00222
4.00166
3.99205
3.99662
4.00009
3.99564
3.99972
3.99176
3.99378
3.99547
3.99344
3.98997
3.99072
3.99546
3.98825
3.99133
4.00214
4.00548
4.00092
3.99585
4.00172
3.99683
4.00456
4.00975
4.00695
4.00234
4.00857
4.00935
4.00383
4.0089
3.9996
3.99972
3.99694
3.99781
4.00146
3.9993
4.00115
4.00275
4.00333
4.00468
4.00612
4.00513
4.00414
4.00541
4.00066
4.00762
4.00135
4.00517
4.00299
4.00127
3.99844
4.00348
4.00278
4.00056
4.01022
4.00153
4.00662
4.01022
4.0053
4.01416
4.01189
4.0071
3.99994
4.00797
4.00517
4.00518
4.00599
4.00381
3.99754
3.9989
4.0036
4.0043
4.00315
4.00777
4.00747
4.00792
4.0116
4.00872
4.01011
4.00494
4.00705
4.00177
4.00581
4.00724
4.01304
4.00488
4.01575
4.01125
4.01028
4.00837
4.00958
4.01054
4.01446
4.01029
4.01307
4.01382
4.00566
4.01122
4.00849
4.00964
4.01261
4.00836
4.01048
4.00487
4.00545
4.00586
4.00962
4.0052
4.01192
4.0096
4.00927
4.00554
4.00741
4.00537
4.00531
4.00755
4.00899
4.01269
4.01286
4.01249
4.0113
4.01537
4.01368
4.00895
4.0026
4.0085
4.00699
4.01213
4.01266
4.00525
4.00532
4.00708
4.00998
3.9751
3.97193
3.9744
3.97439
3.97043
3.96958
3.97126
3.9666
3.96456
3.96416
3.97344
3.97057
3.96734
3.95451
3.9642
3.96552
3.96275
3.96081
3.96153
3.96813
3.96592
3.96531
3.97037
3.96617
3.96657
3.95138
3.95132
3.95165
3.94628
3.95026
3.95427
3.94922
3.94679
3.94612
3.95129
3.94525
3.95049
3.94535
3.94343
3.94477
3.94096
3.946
3.93928
3.94395
3.94066
3.94016
3.94323
3.93797
4.01609
4.01531
4.00977
4.01133
4.01766
4.0158
4.0157
4.01362
4.01107
4.01032
4.00955
4.00834
4.00994
4.01096
4.01182
4.00482
4.00706
3.99577
4.00435
4.00972
4.0053
4.0035
4.00021
4.00871
4.01535
4.01656
4.01504
4.01147
4.00823
4.0011
4.00162
4.00131
3.99885
4.00918
4.01038
4.0164
4.00948
4.01679
4.01256
4.01402
4.01855
4.01858
4.01216
4.01198
4.01079
4.01478
4.01238
4.01321
4.01445
4.01375
4.01078
4.01225
4.01074
4.00576
4.00286
4.01753
4.01205
4.00794
4.01171
4.01435
4.01367
4.00294
3.99572
3.99438
4.00463
3.99863
3.9957
3.99953
3.99903
4.0005
4.00461
4.00393
4.00942
4.00695
4.00821
4.00671
4.00593
4.00406
4.00578
4.00658
4.00763
4.01084
4.00413
4.00624
4.00419
4.00516
3.99772
4.00436
4.00773
4.00439
4.00052
3.99998
3.99774
3.99953
4.001
3.99924
3.99981
4.00217
4.00295
4.00291
4.00575
4.00102
4.00193
3.99639
3.99747
3.99784
3.99905
3.9968
4.00322
4.00839
4.00381
3.9972
3.99805
3.99719
3.99525
3.99288
4.0015
3.99738
3.99417
3.99483
3.99774
3.99932
4.00162
3.99829
3.99821
3.99528
3.99525
3.99011
3.99492
3.99323
3.99131
3.99391
3.99704
4.00439
4.00441
3.99453
3.99728
4.00578
4.00341
4.00242
4.00582
4.00552
4.00177
3.99999
3.99352
3.99778
4.00073
3.998
3.99821
3.99769
3.99003
3.99993
3.99707
3.98781
3.99233
3.99282
3.99315
3.9957
3.99461
3.99179
3.98407
3.97507
3.98386
3.99188
3.98554
3.98445
3.99592
3.99837
3.99693
3.98842
3.99303
3.99367
3.99018
3.98532
3.98264
3.9832
3.98698
3.98402
3.99437
3.98997
3.99401
3.99387
3.98231
3.98653
3.9907
3.9924
3.99066
3.99254
3.99425
3.99129
3.99175
3.99288
3.9884
3.99458
3.98948
3.99044
3.98606
3.9879
3.99094
3.99305
3.98634
3.98754
3.98737
3.98591
3.99
3.9905
3.99026
3.98918
3.98456
3.97969
3.98764
3.98731
3.98517
3.99128
3.98243
3.9912
3.9803
3.97406
3.97665
3.97409
3.97895
3.97923
3.98103
3.97992
3.99191
3.9844
3.98873
3.99059
3.9884
3.9848
3.98601
3.9839
3.99214
3.97823
3.98376
3.97969
3.98213
3.9769
3.9774
3.98065
3.98153
3.98209
3.98392
3.97951
3.98192
3.98517
3.98899
3.99071
3.99122
3.98622
3.99167
3.98609
3.98913
3.98506
3.98397
3.98504
3.98886
3.98693
3.98269
3.98437
3.97904
3.9831
3.98074
3.98098
3.97995
3.9808
3.98723
3.98353
3.97857
3.9794
3.97966
3.98065
3.98416
3.97665
3.98243
3.98385
3.98401
3.9849
3.98123
3.98247
3.98547
3.98439
3.9833
3.98598
3.97801
3.97473
3.97656
3.96737
3.97418
3.9766
3.98409
3.98719
3.98049
3.98257
3.98098
3.97854
3.97557
3.98356
3.98541
3.98877
3.98441
3.98033
3.98551
3.97771
3.97706
3.97517
3.97632
3.97484
3.97641
3.98143
3.97983
3.97539
3.97924
3.98193
3.97893
3.97287
3.96685
3.96998
3.97637
3.9783
3.9757
3.97663
3.97818