/*--------------------------------*- C++ -*----------------------------------*\
| =========                 |                                                 |
| \\      /  F ield         | OpenFOAM: The Open Source CFD Toolbox           |
|  \\    /   O peration     | Version:  v1612+                                |
|   \\  /    A nd           | Web:      www.OpenFOAM.com                      |
|    \\/     M anipulation  |                                                 |
\*---------------------------------------------------------------------------*/
FoamFile
{
    version     2.0;
    format      ascii;
    class       volVectorField;
    location    "100";
    object      wallShearStress;
}
// * * * * * * * * * * * * * * * * * * * * * * * * * * * * * * * * * * * * * //

dimensions      [0 2 -2 0 0 0 0];

internalField   uniform (0 0 0);

boundaryField
{
    WALL
    {
        type            calculated;
        value           nonuniform List<vector> 
1514
(
(-0.0223926 -0.00994393 -0.0217763)
(-0.0222851 -0.00934359 -0.0233485)
(-0.0239931 -0.016908 -0.00456403)
(-0.0246816 -0.0130105 -0.00503681)
(-0.0269033 -0.0101619 -0.0161288)
(-0.0258627 -0.009961 -0.0187689)
(-0.0215693 -0.00294596 -0.0120037)
(-0.0175709 -0.00188421 -0.0119518)
(-0.0142116 -0.0171811 -0.00772645)
(-0.0158692 -0.0164924 -0.00800946)
(-0.0189243 -0.0142438 -0.00923638)
(-0.0168459 -0.0154717 -0.00826508)
(-0.0116708 -0.0180334 -0.00538119)
(-0.0108255 -0.0177052 -0.00616993)
(-0.0194488 -0.00822926 -0.0185434)
(-0.0196127 -0.00753236 -0.0205039)
(-0.0243743 -0.0115359 -0.0294605)
(-0.0239838 -0.00896459 -0.0261195)
(-0.00450968 -0.00656414 -0.00502563)
(-0.00541174 -0.00746053 -0.00601771)
(-0.00599075 -0.00797233 -0.0126939)
(-0.00784637 -0.0069763 -0.0123425)
(-0.00996634 -0.00636999 -0.0119152)
(-0.0196114 -0.00742096 -0.02284)
(-0.0207965 -0.00678842 -0.0221132)
(-0.0146427 -0.0238845 -0.0171005)
(-0.0170562 -0.0259061 -0.0141612)
(-0.0103349 -0.00155208 -0.0100286)
(-0.0124203 -0.00152845 -0.00980393)
(-0.0170066 -0.00334405 -0.00992555)
(-0.0136715 -0.0025283 -0.0100595)
(-0.0103211 -0.0184046 -0.00577181)
(-0.0116392 -0.0185726 -0.00532502)
(-0.0127941 -0.0192464 -0.00553107)
(-0.0114189 -0.0179411 -0.0048461)
(-0.00463017 -0.00931079 -0.00548568)
(-0.00515809 -0.0102682 -0.00472906)
(-0.0264423 -0.01082 -0.011811)
(-0.0266489 -0.0106424 -0.0127126)
(-0.0155366 -0.0037515 -0.0151539)
(-0.0124752 -0.00459138 -0.0144459)
(-0.0194602 -0.0219876 -0.00450167)
(-0.0219231 -0.0194327 -0.00453942)
(-0.0151381 -0.0205439 -0.00635633)
(-0.0190983 -0.0185634 -0.00480906)
(-0.0231013 -0.0140831 -0.00615993)
(-0.0220486 -0.0128682 -0.00672959)
(-0.018036 -0.0181515 -0.00422666)
(-0.0184553 -0.017866 -0.00447555)
(-0.0253861 -0.0098464 -0.017799)
(-0.02383 -0.00924742 -0.0145229)
(-0.0262318 -0.0094043 -0.0220122)
(-0.0256513 -0.00823892 -0.0202979)
(-0.0274189 -0.0102714 -0.0161939)
(-0.025839 -0.0113721 -0.0135684)
(-0.0160879 -0.0165725 -0.00752601)
(-0.0173051 -0.0160327 -0.00890857)
(-0.0262233 -0.00831914 -0.0242533)
(-0.0233529 -0.00743132 -0.0259181)
(-0.00321023 -0.00272001 -0.00614523)
(-0.00259954 -0.00292556 -0.00498244)
(-0.00249366 -0.00305736 -0.00551821)
(-0.00253968 -0.0034159 -0.00563053)
(-0.00322646 -0.00262903 -0.00670252)
(-0.00245709 -0.00348714 -0.00606009)
(-0.0213759 -0.0089498 -0.0217832)
(-0.0215919 -0.0084318 -0.0185825)
(-0.0216497 -0.00917063 -0.0198707)
(-0.0234974 -0.0092253 -0.0236405)
(-0.00569513 -0.00705872 -0.00635961)
(-0.00468999 -0.00598742 -0.00554213)
(-0.00565709 -0.00678169 -0.00616691)
(-0.00510321 -0.0062067 -0.0054355)
(-0.00728567 -0.00747538 -0.00601058)
(-0.00662805 -0.00700736 -0.00578427)
(-0.0134157 -0.0139035 -0.00749992)
(-0.0110372 -0.0106582 -0.00645285)
(-0.0129979 -0.013064 -0.00780599)
(-0.0103864 -0.0123612 -0.00581738)
(-0.00863482 -0.00958839 -0.00586672)
(-0.0114299 -0.0123288 -0.00620552)
(-0.00813238 -0.0101909 -0.00658062)
(-0.0218552 -0.0083117 -0.0181445)
(-0.0217884 -0.00940897 -0.0168166)
(-0.0208067 -0.0102591 -0.0164618)
(-0.0200626 -0.00949375 -0.0176178)
(-0.0203693 -0.00799117 -0.0194246)
(-0.0180181 -0.0079219 -0.0194481)
(-0.0179875 -0.0164781 -0.0283178)
(-0.0187221 -0.0142344 -0.027668)
(-0.0195905 -0.0139984 -0.0280774)
(-0.0202117 -0.0160981 -0.0311449)
(-0.0196801 -0.0160109 -0.0293148)
(-0.0178354 -0.0158093 -0.027709)
(-0.00846346 -0.0190493 -0.0181724)
(-0.00709961 -0.0184964 -0.0157698)
(-0.00730319 -0.0164592 -0.0170089)
(-0.00696799 -0.0176036 -0.013403)
(-0.0077455 -0.0180159 -0.0141025)
(-0.00300854 -0.00411337 -0.0057295)
(-0.00299246 -0.00412904 -0.00560777)
(-0.00299386 -0.00367027 -0.00586038)
(-0.00300167 -0.00380512 -0.00576499)
(-0.00303915 -0.00406658 -0.00592659)
(-0.00298205 -0.00396597 -0.00569243)
(-0.0162843 -0.0226651 -0.00668193)
(-0.0194193 -0.0207478 -0.00383616)
(-0.0200128 -0.0187369 -0.00352522)
(-0.020362 -0.0246569 -0.00726856)
(-0.0170272 -0.0224072 -0.00505984)
(-0.0212333 -0.0198839 -0.00277029)
(-0.0059427 -0.00199841 -0.00755037)
(-0.00765145 -0.00173135 -0.00834747)
(-0.00668799 -0.00165305 -0.00810877)
(-0.00677505 -0.00207417 -0.00789028)
(-0.00847906 -0.00218339 -0.00882187)
(-0.0085965 -0.00195839 -0.00848316)
(-0.00874046 -0.00311801 -0.00915939)
(-0.0104698 -0.00373843 -0.00981209)
(-0.0105151 -0.0033515 -0.00931562)
(-0.00765944 -0.00291881 -0.00892037)
(-0.00806986 -0.00259589 -0.00889157)
(-0.00940755 -0.00302664 -0.00926468)
(-0.0280338 -0.00878307 -0.0244405)
(-0.0276354 -0.0107086 -0.0198142)
(-0.0268178 -0.00963967 -0.0178424)
(-0.0277183 -0.00945302 -0.0211959)
(-0.0256024 -0.00864297 -0.0194154)
(-0.0251453 -0.00896766 -0.0176474)
(-0.023335 -0.0087224 -0.0180177)
(-0.0247894 -0.00983681 -0.0207438)
(-0.0219763 -0.00883544 -0.0161189)
(-0.0255371 -0.0101338 -0.0201221)
(-0.0239536 -0.00985698 -0.0166539)
(-0.018848 -0.00828192 -0.0252726)
(-0.0170305 -0.00762925 -0.0250374)
(-0.0200227 -0.00673594 -0.0237197)
(-0.018546 -0.00720267 -0.0241369)
(-0.0167328 -0.00688992 -0.0241486)
(-0.024392 -0.00985108 -0.0187962)
(-0.0250182 -0.00947099 -0.017371)
(-0.0243925 -0.00996238 -0.0165716)
(-0.0241439 -0.00931773 -0.0189507)
(-0.0247054 -0.0107594 -0.0155823)
(-0.0256914 -0.0102982 -0.0161651)
(-0.026091 -0.00835579 -0.0232335)
(-0.0223259 -0.00667956 -0.0208432)
(-0.0241378 -0.00703673 -0.0204184)
(-0.0256962 -0.00830931 -0.0207664)
(-0.0246054 -0.00716524 -0.0233161)
(-0.0255482 -0.00818911 -0.0199086)
(-0.0222102 -0.015515 -0.00509296)
(-0.0213763 -0.0129688 -0.0064781)
(-0.0205372 -0.0147208 -0.00602404)
(-0.0206643 -0.0165117 -0.00492758)
(-0.0202795 -0.0162071 -0.00525452)
(-0.0238448 -0.0112297 -0.0073906)
(-0.0232724 -0.0101607 -0.00691874)
(-0.0232382 -0.0115638 -0.00600981)
(-0.0233815 -0.0131641 -0.00586964)
(-0.0233169 -0.00898973 -0.00736763)
(-0.024338 -0.0121666 -0.00616401)
(-0.0246197 -0.0120932 -0.0071233)
(-0.0237908 -0.00858034 -0.00779509)
(-0.0235338 -0.00994832 -0.00639665)
(-0.0238472 -0.0100406 -0.00727299)
(-0.0107238 -0.00504359 -0.0109147)
(-0.00968009 -0.0040354 -0.00995721)
(-0.0116838 -0.00442211 -0.0105285)
(-0.0127142 -0.00498936 -0.0105871)
(-0.0122352 -0.00526506 -0.0108967)
(-0.0095709 -0.00454384 -0.0105727)
(-0.0212255 -0.00586136 -0.00849179)
(-0.0188204 -0.0041007 -0.00889841)
(-0.0206286 -0.0056866 -0.00881823)
(-0.0171577 -0.00378245 -0.00945981)
(-0.0185485 -0.00339676 -0.00926426)
(-0.020346 -0.00463842 -0.00912485)
(-0.0183305 -0.0116895 -0.00960697)
(-0.0197865 -0.00961015 -0.00833576)
(-0.0180848 -0.0108921 -0.00983506)
(-0.020411 -0.0128729 -0.00746916)
(-0.0196727 -0.0129875 -0.00841626)
(-0.0202455 -0.011284 -0.00811845)
(-0.00260562 -0.00378766 -0.00548465)
(-0.00263166 -0.00282608 -0.0053071)
(-0.00268613 -0.00329433 -0.00568248)
(-0.00277497 -0.00388657 -0.0053679)
(-0.00253129 -0.00304556 -0.00536335)
(-0.00254023 -0.00337453 -0.0055381)
(-0.00906585 -0.002578 -0.00906847)
(-0.00853381 -0.00208871 -0.00874956)
(-0.00944588 -0.00231404 -0.00888329)
(-0.00728261 -0.00187621 -0.00834032)
(-0.00755305 -0.00251494 -0.00857182)
(-0.00655622 -0.00231023 -0.0080551)
(-0.00530337 -0.00231478 -0.00771403)
(-0.00471574 -0.00247576 -0.00714456)
(-0.00447473 -0.0023786 -0.00713934)
(-0.00448425 -0.00263027 -0.00747613)
(-0.00481477 -0.00200886 -0.00733758)
(-0.00379579 -0.0120129 -0.00407007)
(-0.00434133 -0.0115155 -0.00505566)
(-0.00335365 -0.0119918 -0.00505833)
(-0.00344427 -0.0106295 -0.00535917)
(-0.00459296 -0.0137381 -0.00509325)
(-0.00504652 -0.0131132 -0.00523105)
(-0.0105857 -0.0202338 -0.00847922)
(-0.0151012 -0.0196622 -0.00453459)
(-0.0150171 -0.0213775 -0.00435935)
(-0.0109587 -0.0192847 -0.00573794)
(-0.0127683 -0.0183582 -0.00399183)
(-0.0134318 -0.0221328 -0.00610023)
(-0.0157651 -0.0208509 -0.00539982)
(-0.017011 -0.0185711 -0.00462548)
(-0.0230747 -0.00775707 -0.00732537)
(-0.0243964 -0.00898641 -0.00753543)
(-0.0249868 -0.0101683 -0.00621766)
(-0.0226199 -0.00676051 -0.00836592)
(-0.0232935 -0.00737855 -0.00827842)
(-0.0244018 -0.00950047 -0.00680324)
(-0.026157 -0.0135924 -0.00629946)
(-0.0263666 -0.0139883 -0.00458617)
(-0.0275923 -0.0167497 -0.00540861)
(-0.0262398 -0.013413 -0.00523709)
(-0.0251971 -0.017033 -0.0047146)
(-0.0245399 -0.0161178 -0.00495722)
(-0.023613 -0.0165444 -0.00352736)
(-0.0242447 -0.015802 -0.00572981)
(-0.0282039 -0.0138047 -0.00764057)
(-0.025862 -0.0128765 -0.00683683)
(-0.0272128 -0.0186157 -0.0071533)
(-0.0269765 -0.0180847 -0.00726279)
(-0.0291752 -0.0154772 -0.00576456)
(-0.0272037 -0.0153192 -0.00499705)
(-0.0270369 -0.0131404 -0.00532905)
(-0.0194166 -0.0237479 -0.0134423)
(-0.0218505 -0.0233321 -0.00871659)
(-0.0176003 -0.023945 -0.0135102)
(-0.0213187 -0.0230613 -0.00969043)
(-0.0204058 -0.0264453 -0.012441)
(-0.0205432 -0.0248918 -0.0114289)
(-0.0159846 -0.0035901 -0.0145832)
(-0.0174511 -0.00483056 -0.0166782)
(-0.0115373 -0.00332928 -0.0130232)
(-0.014934 -0.00275417 -0.0140137)
(-0.0128161 -0.00261285 -0.0132771)
(-0.0136656 -0.00312988 -0.014498)
(-0.0256017 -0.00980092 -0.0152439)
(-0.0242251 -0.0067153 -0.0156852)
(-0.0253626 -0.00851309 -0.0150251)
(-0.0258925 -0.0111625 -0.0178392)
(-0.0250791 -0.00711192 -0.0157425)
(-0.0237682 -0.00731559 -0.0152068)
(-0.0246735 -0.00858969 -0.0148468)
(-0.0228917 -0.0075544 -0.0163977)
(-0.0267148 -0.011776 -0.0153138)
(-0.0262339 -0.0113611 -0.0157304)
(-0.0279863 -0.0144389 -0.0168553)
(-0.0256116 -0.0139018 -0.0159871)
(-0.0276294 -0.0142406 -0.0179639)
(-0.0159291 -0.00226998 -0.0136207)
(-0.0114791 -0.00217185 -0.0122199)
(-0.0122291 -0.00186506 -0.012352)
(-0.0146385 -0.00219582 -0.0132796)
(-0.0125543 -0.00219617 -0.012603)
(-0.0137647 -0.0021328 -0.0126648)
(-0.0112261 -0.00167536 -0.0107203)
(-0.0145026 -0.00188116 -0.0116535)
(-0.0132378 -0.00126454 -0.0112091)
(-0.0102282 -0.00203677 -0.0105866)
(-0.0125497 -0.00169557 -0.0107925)
(-0.0112448 -0.00168196 -0.0108481)
(-0.0242469 -0.00513449 -0.0129519)
(-0.0254069 -0.00712425 -0.0127734)
(-0.0221853 -0.00482852 -0.0133788)
(-0.0243374 -0.00508048 -0.0124053)
(-0.0262767 -0.0083189 -0.0134881)
(-0.0246493 -0.00707024 -0.0129824)
(-0.0237511 -0.00437352 -0.0135995)
(-0.0252453 -0.00735005 -0.0108919)
(-0.0238926 -0.00512295 -0.0109939)
(-0.025743 -0.00794259 -0.0107415)
(-0.0236789 -0.00428279 -0.011772)
(-0.0249618 -0.00711701 -0.0112132)
(-0.0237199 -0.00554019 -0.0122212)
(-0.0267685 -0.0118346 -0.0148691)
(-0.0266283 -0.0129959 -0.0133906)
(-0.0266298 -0.0106803 -0.0143121)
(-0.0267204 -0.014361 -0.0145506)
(-0.0270845 -0.013342 -0.0144234)
(-0.0269936 -0.0129166 -0.011359)
(-0.0269802 -0.014145 -0.0120498)
(-0.0262796 -0.0135255 -0.0124259)
(-0.0273496 -0.0131264 -0.0121466)
(-0.0274119 -0.0104677 -0.0106035)
(-0.0265902 -0.00990733 -0.0117395)
(-0.0255888 -0.0207377 -0.0158062)
(-0.0226911 -0.0222654 -0.0180976)
(-0.0229117 -0.0210687 -0.0169229)
(-0.0244038 -0.0203441 -0.0145777)
(-0.0233409 -0.0200072 -0.0161368)
(-0.0232919 -0.0219291 -0.017608)
(-0.0034067 -0.00844532 -0.00553768)
(-0.00391808 -0.00884781 -0.0046568)
(-0.00369254 -0.00836424 -0.00457226)
(-0.00344405 -0.00804406 -0.00505778)
(-0.00297628 -0.0065566 -0.00476031)
(-0.00980378 -0.0154177 -0.00552252)
(-0.010773 -0.0160914 -0.00580567)
(-0.01097 -0.0148538 -0.00590666)
(-0.00959874 -0.0143941 -0.0055693)
(-0.0123181 -0.0165524 -0.00622972)
(-0.0118938 -0.0151973 -0.00651592)
(-0.0060832 -0.0124415 -0.00543974)
(-0.00792661 -0.0135925 -0.00460205)
(-0.00505197 -0.0106585 -0.00490498)
(-0.00717262 -0.0119773 -0.00473705)
(-0.00615824 -0.0113939 -0.00539277)
(-0.00302097 -0.0034848 -0.00523158)
(-0.00302802 -0.00388158 -0.00583988)
(-0.00297216 -0.00329233 -0.00560634)
(-0.00315267 -0.00388487 -0.00577296)
(-0.00335913 -0.00384454 -0.00577857)
(-0.00313862 -0.00386928 -0.00564026)
(-0.0030584 -0.00432528 -0.00549707)
(-0.00317971 -0.00429019 -0.00542237)
(-0.00297514 -0.00407591 -0.00537131)
(-0.00324972 -0.00461829 -0.00561675)
(-0.00297097 -0.00412327 -0.00552925)
(-0.00289004 -0.00394437 -0.00514684)
(-0.00301018 -0.00355477 -0.00608347)
(-0.00302956 -0.00376751 -0.00582443)
(-0.00303456 -0.0031314 -0.00619589)
(-0.00279057 -0.00364045 -0.00560972)
(-0.00315296 -0.00296575 -0.00605082)
(-0.00313654 -0.00334261 -0.00598292)
(-0.00822176 -0.0028437 -0.0107121)
(-0.00868521 -0.00277518 -0.0109375)
(-0.00956812 -0.00317931 -0.0118165)
(-0.00719116 -0.00268732 -0.0101922)
(-0.00659509 -0.00339203 -0.00950181)
(-0.00696622 -0.00340148 -0.00964675)
(-0.00504259 -0.00341706 -0.00817522)
(-0.0060241 -0.00446596 -0.00933142)
(-0.00457087 -0.00415975 -0.00749235)
(-0.00458746 -0.00325142 -0.00776051)
(-0.00493018 -0.00453947 -0.00765914)
(-0.00610175 -0.00365954 -0.00988453)
(-0.00808701 -0.0044562 -0.0111368)
(-0.00925649 -0.00393822 -0.01194)
(-0.00821977 -0.00430986 -0.011828)
(-0.00988833 -0.00521656 -0.0130595)
(-0.0107527 -0.00435457 -0.0135414)
(-0.00786429 -0.00401941 -0.0109928)
(-0.00465614 -0.0157734 -0.00750876)
(-0.00761888 -0.0179492 -0.00644703)
(-0.00695279 -0.0169161 -0.00667719)
(-0.00506941 -0.0171085 -0.00791524)
(-0.00493684 -0.0164281 -0.00735925)
(-0.00630351 -0.0167559 -0.00730973)
(-0.0122614 -0.0166209 -0.0056819)
(-0.0108691 -0.0171421 -0.00562448)
(-0.00334845 -0.015181 -0.010407)
(-0.00322444 -0.0140112 -0.0119332)
(-0.00345496 -0.0157984 -0.0112149)
(-0.00237752 -0.0129666 -0.0127007)
(-0.00268677 -0.0128698 -0.0134362)
(-0.00194256 -0.0133816 -0.0118589)
(-0.0236033 -0.00533491 -0.00856819)
(-0.0227808 -0.00511164 -0.00899693)
(-0.0243078 -0.00776598 -0.00744508)
(-0.0257972 -0.00838678 -0.00746263)
(-0.0248183 -0.00707649 -0.00809626)
(-0.0238274 -0.00609849 -0.00817888)
(-0.0166181 -0.00267217 -0.0096263)
(-0.0210453 -0.00420036 -0.00888682)
(-0.0205397 -0.00430563 -0.00939555)
(-0.0174864 -0.00257561 -0.0094592)
(-0.0196282 -0.00371942 -0.00941587)
(-0.0167804 -0.00218112 -0.0105235)
(-0.0207038 -0.0038172 -0.0100811)
(-0.0182236 -0.00226582 -0.0105446)
(-0.0174274 -0.00155435 -0.0100393)
(-0.019844 -0.00231023 -0.0104299)
(-0.0191823 -0.00291859 -0.00956925)
(-0.0239035 -0.00506376 -0.0101907)
(-0.0225028 -0.00474685 -0.0102779)
(-0.0239719 -0.00487548 -0.00920229)
(-0.026765 -0.00820812 -0.00941747)
(-0.0262445 -0.00708283 -0.00991556)
(-0.0256562 -0.0069351 -0.00892496)
(-0.0219361 -0.0248176 -0.0146012)
(-0.019503 -0.0235115 -0.0137429)
(-0.0232215 -0.0235155 -0.0118876)
(-0.0218934 -0.0256339 -0.0139331)
(-0.0221107 -0.023004 -0.0126825)
(-0.0264915 -0.0153217 -0.00825348)
(-0.0274024 -0.0150202 -0.00781047)
(-0.0284077 -0.0113267 -0.00842474)
(-0.0270843 -0.0139095 -0.00864119)
(-0.0276368 -0.012053 -0.00741976)
(-0.0274092 -0.0115977 -0.00845008)
(-0.0273867 -0.011118 -0.0103412)
(-0.0270574 -0.0143445 -0.00971351)
(-0.027327 -0.013284 -0.0101005)
(-0.0270404 -0.00995088 -0.0100025)
(-0.0275276 -0.0133089 -0.00901481)
(-0.0268898 -0.0113715 -0.00941039)
(-0.0187384 -0.0260155 -0.013219)
(-0.0160263 -0.0265041 -0.0201876)
(-0.0147659 -0.024342 -0.0219035)
(-0.0167921 -0.0252217 -0.0161771)
(-0.0152583 -0.0237405 -0.0195143)
(-0.0171925 -0.0258541 -0.0175593)
(-0.0169182 -0.0249747 -0.019525)
(-0.0184577 -0.026274 -0.0193846)
(-0.0181947 -0.024389 -0.016181)
(-0.0186187 -0.0253015 -0.0178297)
(-0.0167075 -0.0250097 -0.0178531)
(-0.0166156 -0.0241278 -0.016138)
(-0.0185036 -0.0263491 -0.0271414)
(-0.016629 -0.0237828 -0.0249321)
(-0.0150449 -0.0200176 -0.0248607)
(-0.0156067 -0.0203726 -0.0270525)
(-0.016361 -0.0225567 -0.0231225)
(-0.0169093 -0.0241927 -0.022894)
(-0.0134734 -0.00814021 -0.0234456)
(-0.0116982 -0.00948816 -0.0240221)
(-0.0102126 -0.0098109 -0.0227404)
(-0.0102823 -0.00905895 -0.0224877)
(-0.0120913 -0.00790227 -0.0233843)
(-0.0132835 -0.00888373 -0.0240201)
(-0.00976303 -0.0210158 -0.0127058)
(-0.0108291 -0.0230757 -0.013403)
(-0.0127831 -0.0226386 -0.00887082)
(-0.0143722 -0.0241424 -0.0087358)
(-0.0124203 -0.0229027 -0.00982235)
(-0.0124052 -0.0232037 -0.0101128)
(-0.00668066 -0.0175339 -0.0108062)
(-0.00833564 -0.0194215 -0.00907745)
(-0.00767669 -0.0189294 -0.00892669)
(-0.00912544 -0.0202333 -0.00884293)
(-0.00722887 -0.0186421 -0.0122784)
(-0.00859654 -0.0209803 -0.0109287)
(-0.0124941 -0.0128766 -0.0256958)
(-0.0138667 -0.0121675 -0.0267812)
(-0.0132575 -0.0159604 -0.0264966)
(-0.0113595 -0.0174462 -0.0232911)
(-0.0114435 -0.0154808 -0.0248653)
(-0.0140369 -0.0115599 -0.0272361)
(-0.0174448 -0.00843279 -0.026249)
(-0.013422 -0.00974305 -0.0250809)
(-0.0153656 -0.00899336 -0.02576)
(-0.0178987 -0.00926327 -0.0276799)
(-0.0134112 -0.0108993 -0.0254719)
(-0.0160653 -0.0113511 -0.0276699)
(-0.00912559 -0.0159656 -0.0224133)
(-0.00977657 -0.0143631 -0.0236093)
(-0.0085351 -0.0138932 -0.0225105)
(-0.00914038 -0.0116484 -0.0224561)
(-0.0105062 -0.0117164 -0.0235093)
(-0.0101705 -0.012437 -0.023106)
(-0.0137106 -0.0191652 -0.0231266)
(-0.0148594 -0.0238019 -0.0242498)
(-0.0128156 -0.0186434 -0.0231948)
(-0.0151275 -0.0228032 -0.021436)
(-0.01378 -0.0219867 -0.0203342)
(-0.013231 -0.0211088 -0.0215486)
(-0.0232916 -0.0109316 -0.0267544)
(-0.0211229 -0.0129738 -0.0272594)
(-0.0213212 -0.0135116 -0.0282993)
(-0.0209835 -0.0112527 -0.0254373)
(-0.0228132 -0.0111677 -0.0271179)
(-0.0212524 -0.0121647 -0.027082)
(-0.022063 -0.0116202 -0.0273607)
(-0.0213335 -0.0127715 -0.0281222)
(-0.0243637 -0.0109537 -0.0285277)
(-0.0224151 -0.0122825 -0.029274)
(-0.022188 -0.0142074 -0.0300905)
(-0.0172217 -0.0180686 -0.0278464)
(-0.0172854 -0.0205375 -0.0270709)
(-0.0176722 -0.0188116 -0.0276689)
(-0.0172674 -0.0196631 -0.0278556)
(-0.0171187 -0.0174073 -0.0271144)
(-0.0175522 -0.0200024 -0.0276496)
(-0.0141549 -0.0126225 -0.0276092)
(-0.0143425 -0.0166814 -0.0262979)
(-0.0150345 -0.0193149 -0.0284288)
(-0.0144052 -0.0153623 -0.0261064)
(-0.0154878 -0.0190451 -0.0296773)
(-0.014364 -0.0170987 -0.0284838)
(-0.0196966 -0.0126197 -0.0294331)
(-0.0202862 -0.0154839 -0.0319307)
(-0.0170634 -0.0141082 -0.0265029)
(-0.018541 -0.0119584 -0.0275496)
(-0.0164065 -0.0141157 -0.027599)
(-0.0190116 -0.0143473 -0.0286486)
(-0.023341 -0.0245243 -0.0153493)
(-0.0224372 -0.0215545 -0.0119802)
(-0.0236816 -0.0229552 -0.0154851)
(-0.025012 -0.0256478 -0.0161359)
(-0.0240566 -0.0219943 -0.0138346)
(-0.0214681 -0.0227344 -0.0139497)
(-0.0191011 -0.0253899 -0.0217884)
(-0.0200296 -0.0253112 -0.0170621)
(-0.0206332 -0.0253363 -0.0165825)
(-0.0200604 -0.0261746 -0.0208078)
(-0.0184208 -0.0230263 -0.0171884)
(-0.018396 -0.0249812 -0.0200072)
(-0.0230342 -0.0213017 -0.0156864)
(-0.0253767 -0.0219308 -0.015256)
(-0.0224539 -0.0218231 -0.0149859)
(-0.0216522 -0.0223691 -0.016742)
(-0.0235719 -0.0214211 -0.0142855)
(-0.0220711 -0.0232818 -0.0173925)
(-0.00464726 -0.0105226 -0.0173778)
(-0.00420901 -0.01014 -0.0162179)
(-0.0031154 -0.0125289 -0.0133056)
(-0.00289254 -0.0117697 -0.0148901)
(-0.0028082 -0.0120575 -0.0141953)
(-0.00398715 -0.0111216 -0.0148864)
(-0.00486233 -0.00969075 -0.0173776)
(-0.00295254 -0.00920769 -0.0157419)
(-0.0138542 -0.0187483 -0.00545973)
(-0.00959321 -0.0188421 -0.00649713)
(-0.00862452 -0.0179186 -0.00589314)
(-0.0118173 -0.0191184 -0.00572247)
(-0.0107256 -0.0189114 -0.00584562)
(-0.0139989 -0.019062 -0.0053786)
(-0.00528898 -0.00633205 -0.0110409)
(-0.00437912 -0.00589531 -0.0100644)
(-0.00262041 -0.00774822 -0.0105449)
(-0.00339712 -0.00744454 -0.010852)
(-0.00313699 -0.00660807 -0.00941164)
(-0.00890729 -0.00844125 -0.0136377)
(-0.010656 -0.00836139 -0.013124)
(-0.00787948 -0.00811163 -0.0134909)
(-0.0107777 -0.0094666 -0.0144613)
(-0.00681978 -0.00654738 -0.0118553)
(-0.00935445 -0.00746607 -0.012753)
(-0.00134842 -0.00663708 -0.00670972)
(-0.000936497 -0.00769666 -0.00587001)
(-0.00167986 -0.00655013 -0.00749128)
(-0.00410555 -0.00518228 -0.0054058)
(-0.00415454 -0.0053768 -0.0056264)
(-0.00501452 -0.00578328 -0.0056645)
(-0.00464639 -0.00549244 -0.00558321)
(-0.00520828 -0.00571537 -0.00548065)
(-0.00364639 -0.0050138 -0.00551271)
(-0.00841703 -0.00922675 -0.00571776)
(-0.00684293 -0.00821185 -0.00600117)
(-0.0104396 -0.0108273 -0.00690613)
(-0.008011 -0.00884306 -0.00647671)
(-0.00728044 -0.00866309 -0.00595533)
(-0.00968728 -0.00998864 -0.00707471)
(-0.00388877 -0.00529347 -0.0056248)
(-0.00327109 -0.00458883 -0.00547806)
(-0.00351649 -0.00490194 -0.00559129)
(-0.00354343 -0.00486483 -0.00542813)
(-0.00369914 -0.00529844 -0.00551493)
(-0.00375327 -0.00546759 -0.00570846)
(-0.0102221 -0.0181613 -0.00533445)
(-0.0118871 -0.0176891 -0.00581442)
(-0.0124617 -0.0191175 -0.00638651)
(-0.0146881 -0.0183592 -0.00623009)
(-0.01338 -0.018784 -0.00722931)
(-0.0142595 -0.0134274 -0.00729887)
(-0.0120472 -0.0137936 -0.00729346)
(-0.0118926 -0.0138528 -0.00637751)
(-0.0134851 -0.0145023 -0.00689372)
(-0.0154279 -0.0142827 -0.00788828)
(-0.0174488 -0.0221237 -0.0261033)
(-0.0178879 -0.023604 -0.0253092)
(-0.0183057 -0.0243773 -0.0226541)
(-0.0170582 -0.0224403 -0.0227546)
(-0.0174241 -0.0221257 -0.0246003)
(-0.0179168 -0.0240735 -0.0244524)
(-0.00413671 -0.00321676 -0.00713908)
(-0.0039413 -0.00318289 -0.00682994)
(-0.00487235 -0.00329 -0.00779954)
(-0.00450622 -0.002802 -0.00746602)
(-0.00508597 -0.00296107 -0.00812955)
(-0.00424802 -0.00330571 -0.00711278)
(-0.00304798 -0.00337759 -0.00609186)
(-0.00306165 -0.00328328 -0.00600722)
(-0.00337201 -0.00306377 -0.00637425)
(-0.0032267 -0.00311313 -0.00601108)
(-0.00341482 -0.00350041 -0.00633354)
(-0.00330259 -0.0034602 -0.00649631)
(-0.00249754 -0.00613387 -0.0051432)
(-0.00212408 -0.00730305 -0.00510884)
(-0.00169033 -0.00551303 -0.004436)
(-0.00189384 -0.00474726 -0.0055061)
(-0.00228054 -0.00533117 -0.00551995)
(-0.00250604 -0.00784882 -0.00498947)
(-0.00500204 -0.00192719 -0.00708625)
(-0.00549589 -0.00273305 -0.00777777)
(-0.00395478 -0.0021333 -0.00596853)
(-0.00470506 -0.00263368 -0.00723973)
(-0.00419068 -0.00246684 -0.00687487)
(-0.00435257 -0.00241014 -0.00747177)
(-0.00611494 -0.00267796 -0.00833777)
(-0.00431052 -0.00257527 -0.0071315)
(-0.00402017 -0.00238119 -0.00621116)
(-0.00473311 -0.002681 -0.00777768)
(-0.00557037 -0.00270105 -0.00810208)
(-0.00536544 -0.00222886 -0.00747253)
(-0.00271761 -0.00270708 -0.00596056)
(-0.00277562 -0.00250981 -0.00547977)
(-0.00364631 -0.00262535 -0.0064655)
(-0.00305773 -0.00297804 -0.0056739)
(-0.00360414 -0.00271005 -0.00681212)
(-0.00282252 -0.00325259 -0.00589105)
(-0.0192646 -0.00792282 -0.00895753)
(-0.0215891 -0.0101944 -0.00729382)
(-0.0193636 -0.00914299 -0.00880337)
(-0.0182697 -0.0078891 -0.00925112)
(-0.0209579 -0.011257 -0.00879535)
(-0.0205541 -0.00904651 -0.00825992)
(-0.0175698 -0.00572803 -0.00945719)
(-0.0186597 -0.00558208 -0.0090219)
(-0.0206486 -0.00655866 -0.00838874)
(-0.0188365 -0.00656119 -0.00888741)
(-0.0206213 -0.00779387 -0.00861373)
(-0.022097 -0.00777216 -0.0079641)
(-0.0160604 -0.00144984 -0.0110113)
(-0.0209885 -0.00264006 -0.0106088)
(-0.017847 -0.00256572 -0.0113883)
(-0.0202738 -0.00279874 -0.0110599)
(-0.0216279 -0.00348711 -0.0131008)
(-0.019894 -0.0029035 -0.0116005)
(-0.0169288 -0.00215478 -0.0122391)
(-0.01844 -0.00136192 -0.0116278)
(-0.0226138 -0.0093486 -0.026011)
(-0.0194804 -0.00829456 -0.0261858)
(-0.0208085 -0.00785656 -0.0264751)
(-0.0238583 -0.00703062 -0.0243088)
(-0.0215763 -0.00776774 -0.0254867)
(-0.0238815 -0.00690839 -0.0250513)
(-0.0268763 -0.00825051 -0.0215951)
(-0.0278975 -0.00907375 -0.0192452)
(-0.0264217 -0.00869608 -0.0203633)
(-0.0278916 -0.00897394 -0.0200994)
(-0.0253736 -0.00800468 -0.0216393)
(-0.0257703 -0.00738366 -0.0221235)
(-0.0304941 -0.00889249 -0.0200732)
(-0.0295943 -0.00949548 -0.018588)
(-0.0310611 -0.0102841 -0.0239166)
(-0.0291979 -0.0100522 -0.0199922)
(-0.0292141 -0.0107158 -0.0226829)
(-0.0218084 -0.00889587 -0.00775677)
(-0.0151274 -0.00696271 -0.010884)
(-0.0165461 -0.00722401 -0.01005)
(-0.0151795 -0.00639763 -0.0103503)
(-0.0177146 -0.00838774 -0.00986634)
(-0.0189189 -0.00948856 -0.00952171)
(-0.0141342 -0.00573903 -0.0107261)
(-0.0134161 -0.00462923 -0.0103765)
(-0.0144911 -0.00523808 -0.0102438)
(-0.0170427 -0.00684196 -0.00956818)
(-0.0160443 -0.00599249 -0.0100411)
(-0.0166269 -0.0059087 -0.00973765)
(-0.0182715 -0.00688239 -0.0094551)
(-0.0137277 -0.00431348 -0.00989875)
(-0.0159534 -0.00467023 -0.00947087)
(-0.0154262 -0.0048872 -0.00970127)
(-0.00333395 -0.00321031 -0.00614345)
(-0.00308073 -0.00339781 -0.00562039)
(-0.00343112 -0.00358558 -0.00625166)
(-0.00330634 -0.00330321 -0.00570445)
(-0.00360681 -0.00321525 -0.00624438)
(-0.00360587 -0.003224 -0.006366)
(-0.00403871 -0.0032508 -0.00694906)
(-0.00377354 -0.00356367 -0.00659009)
(-0.0035648 -0.00277933 -0.00655917)
(-0.00403679 -0.00271448 -0.0068641)
(-0.00368622 -0.00282289 -0.00669723)
(-0.00451642 -0.00288806 -0.00731682)
(-0.00505829 -0.0026888 -0.00776327)
(-0.00554446 -0.00251168 -0.00804765)
(-0.00523152 -0.00269024 -0.00801619)
(-0.00553022 -0.00275858 -0.00831018)
(-0.00576489 -0.00284577 -0.00858102)
(-0.00439749 -0.0157427 -0.0127584)
(-0.00484749 -0.015948 -0.0107089)
(-0.00590252 -0.0177725 -0.00987534)
(-0.0216923 -0.0131567 -0.0119347)
(-0.0174473 -0.013815 -0.00835936)
(-0.0209138 -0.0132996 -0.00986675)
(-0.0223137 -0.0128096 -0.0106098)
(-0.0210746 -0.0138518 -0.0106024)
(-0.021359 -0.014881 -0.0118836)
(-0.0223317 -0.0140411 -0.0121141)
(-0.0151613 -0.00783381 -0.0210991)
(-0.0242168 -0.00969261 -0.0255162)
(-0.0243908 -0.00979187 -0.0246205)
(-0.023645 -0.00858175 -0.0218164)
(-0.0237962 -0.00805231 -0.0183526)
(-0.0240213 -0.0100539 -0.0218382)
(-0.0214765 -0.00937269 -0.0159762)
(-0.0204805 -0.00930125 -0.015834)
(-0.0205107 -0.00824539 -0.0164453)
(-0.0227488 -0.00931342 -0.0183484)
(-0.019445 -0.00802987 -0.0136203)
(-0.00412678 -0.00653962 -0.0059778)
(-0.00417191 -0.00612742 -0.00607144)
(-0.00427558 -0.00591945 -0.00571036)
(-0.00372896 -0.00537884 -0.00569101)
(-0.00595825 -0.00783459 -0.00642157)
(-0.00497007 -0.0066379 -0.00581586)
(-0.0052236 -0.0073897 -0.00575524)
(-0.00615453 -0.00784889 -0.00564091)
(-0.0113931 -0.00983391 -0.00692435)
(-0.00855738 -0.00866144 -0.00656473)
(-0.004592 -0.00583439 -0.00567675)
(-0.00343471 -0.0047988 -0.00524693)
(-0.0136068 -0.0104194 -0.00806982)
(-0.0119167 -0.0097328 -0.0068064)
(-0.0102273 -0.00924408 -0.0069369)
(-0.0137797 -0.010073 -0.00838045)
(-0.00983902 -0.00874996 -0.0069675)
(-0.0119148 -0.00919222 -0.00756327)
(-0.0122162 -0.00884252 -0.00764335)
(-0.0103987 -0.00815626 -0.00695038)
(-0.00951398 -0.00775277 -0.00704441)
(-0.011066 -0.00825427 -0.0072821)
(-0.00832107 -0.00797344 -0.00657171)
(-0.00867952 -0.00781897 -0.00663644)
(-0.00719085 -0.00699361 -0.00619905)
(-0.00587948 -0.00670391 -0.00632779)
(-0.00634608 -0.0063436 -0.00594709)
(-0.00746527 -0.00683279 -0.00615147)
(-0.00482495 -0.00767527 -0.012009)
(-0.00456773 -0.00522164 -0.00546404)
(-0.0131441 -0.00902574 -0.00863386)
(-0.0176203 -0.0131692 -0.00833288)
(-0.0220446 -0.0116328 -0.0144657)
(-0.0225166 -0.0129741 -0.0137117)
(-0.0168571 -0.0074551 -0.0202664)
(-0.0210774 -0.00720196 -0.0220961)
(-0.0190966 -0.00766971 -0.0221356)
(-0.0179085 -0.00726079 -0.0230905)
(-0.0161302 -0.00748373 -0.0213681)
(-0.0169209 -0.00715419 -0.0221557)
(-0.0158358 -0.00784819 -0.0235163)
(-0.014281 -0.00667278 -0.0229114)
(-0.0154669 -0.00809133 -0.0234113)
(-0.0137969 -0.00689767 -0.0211861)
(-0.0141202 -0.00744341 -0.0218218)
(-0.0122276 -0.00835658 -0.0219576)
(-0.00600519 -0.0131049 -0.0189485)
(-0.00408473 -0.0146282 -0.0121527)
(-0.00452744 -0.0142197 -0.0129333)
(-0.00509921 -0.0139424 -0.0171116)
(-0.00294168 -0.0114303 -0.015901)
(-0.0037295 -0.0143701 -0.0145145)
(-0.00788589 -0.0114027 -0.0218179)
(-0.00694635 -0.0115597 -0.0206085)
(-0.0131536 -0.00892324 -0.0236864)
(-0.00917552 -0.0109243 -0.0223856)
(-0.0229212 -0.0192011 -0.0138641)
(-0.0190782 -0.0233946 -0.0226977)
(-0.0182244 -0.0231633 -0.0237731)
(-0.0196279 -0.0252854 -0.0227475)
(-0.0203592 -0.0244835 -0.0191955)
(-0.0206818 -0.0245431 -0.018983)
(-0.0192673 -0.0222342 -0.0181776)
(-0.0210411 -0.0208202 -0.0152284)
(-0.0202588 -0.0218213 -0.0180158)
(-0.0179402 -0.0241312 -0.023914)
(-0.017798 -0.023502 -0.0212397)
(-0.0205344 -0.0242598 -0.016304)
(-0.0245927 -0.0214792 -0.0134738)
(-0.0202702 -0.0235968 -0.0186701)
(-0.0234055 -0.0104881 -0.0275628)
(-0.0199336 -0.0130917 -0.0281712)
(-0.0206317 -0.0125346 -0.0286383)
(-0.0220124 -0.0116046 -0.0283329)
(-0.0231223 -0.0113978 -0.0286868)
(-0.0145044 -0.0176849 -0.0252022)
(-0.0187104 -0.0216616 -0.0318353)
(-0.0174646 -0.0205601 -0.0293785)
(-0.0186592 -0.0206325 -0.0304637)
(-0.0176485 -0.0164288 -0.03005)
(-0.0173181 -0.012373 -0.0279197)
(-0.0217549 -0.00974548 -0.0273405)
(-0.0193283 -0.00848578 -0.0265073)
(-0.0188848 -0.011015 -0.0282439)
(-0.0243473 -0.0108731 -0.0306842)
(-0.0261 -0.0117697 -0.0319689)
(-0.0223689 -0.0124505 -0.0297807)
(-0.0150591 -0.0125403 -0.0255389)
(-0.0146991 -0.0145383 -0.0267971)
(-0.0138014 -0.0193759 -0.0246988)
(-0.0195193 -0.0242827 -0.0231489)
(-0.0185462 -0.0229712 -0.0262246)
(-0.0164332 -0.0201316 -0.0246928)
(-0.02228 -0.0105265 -0.0259622)
(-0.0158945 -0.0160144 -0.0270465)
(-0.0180879 -0.0219967 -0.0278756)
(-0.017873 -0.0202651 -0.0286666)
(-0.0180984 -0.010783 -0.0285843)
(-0.0171732 -0.00939105 -0.026398)
(-0.0191934 -0.00903068 -0.027967)
(-0.0156444 -0.0114668 -0.0272436)