/*--------------------------------*- C++ -*----------------------------------*\
| =========                 |                                                 |
| \\      /  F ield         | OpenFOAM: The Open Source CFD Toolbox           |
|  \\    /   O peration     | Version:  v1612+                                |
|   \\  /    A nd           | Web:      www.OpenFOAM.com                      |
|    \\/     M anipulation  |                                                 |
\*---------------------------------------------------------------------------*/
FoamFile
{
    version     2.0;
    format      ascii;
    class       volScalarField;
    location    "150";
    object      p;
}
// * * * * * * * * * * * * * * * * * * * * * * * * * * * * * * * * * * * * * //

dimensions      [0 2 -2 0 0 0 0];

internalField   nonuniform List<scalar> 
17233
(
1.67007
1.70383
1.73694
1.64543
1.64855
1.63946
1.64534
1.64484
1.63807
1.64178
1.64543
1.65146
1.6506
1.65836
1.6659
1.66758
1.66143
1.65956
1.66724
1.65924
1.65992
1.66103
1.66295
1.65803
1.66827
1.67031
1.66036
1.66212
1.65972
1.66877
1.66579
1.70486
1.7068
1.7054
1.70489
1.7055
1.70537
1.70531
1.70574
1.70341
1.7039
1.70341
1.70288
1.69194
1.69653
1.69344
1.69254
1.68405
1.68605
1.69086
1.69092
1.6906
1.68706
1.68331
1.68443
1.69303
1.69018
1.68742
1.66883
1.6681
1.67879
1.68465
1.67191
1.66752
1.66705
1.67259
1.6834
1.6794
1.6676
1.68397
1.6708
1.67371
1.67081
1.67334
1.6754
1.67537
1.6836
1.67697
1.69695
1.6911
1.69689
1.69241
1.69067
1.69014
1.69772
1.70312
1.70124
1.69098
1.69734
1.69686
1.70134
1.69432
1.6962
1.69001
1.69142
1.71959
1.71714
1.7185
1.71786
1.71989
1.7184
1.72303
1.72383
1.72576
1.71482
1.71738
1.72291
1.71776
1.72838
1.73014
1.7299
1.72724
1.72376
1.72226
1.72911
1.71783
1.71875
1.72286
1.73216
1.73049
1.73163
1.72276
1.72213
1.72742
1.73006
1.72578
1.73389
1.73543
1.72641
1.72675
1.72785
1.72595
1.72916
1.72341
1.72979
1.72204
1.72221
1.72531
1.72652
1.718
1.71883
1.73
1.72835
1.72634
1.72817
1.72295
1.72289
1.72542
1.7239
1.72542
1.72471
1.72709
1.72522
1.72743
1.71975
1.72267
1.71947
1.72617
1.7281
1.72165
1.71973
1.72506
1.72416
1.71841
1.72368
1.71991
1.72674
1.72749
1.72618
1.72155
1.73025
1.68377
1.68153
1.68827
1.68705
1.67914
1.6803
1.67685
1.67586
1.6756
1.68234
1.67583
1.67693
1.67901
1.68004
1.68195
1.67906
1.67849
1.6778
1.67448
1.67501
1.72122
1.72341
1.72307
1.71877
1.7259
1.72542
1.72731
1.72105
1.72528
1.72634
1.72929
1.72856
1.72502
1.71937
1.72371
1.72647
1.72245
1.72183
1.73268
1.73197
1.72576
1.72692
1.71839
1.72212
1.72545
1.7313
1.72494
1.72376
1.7293
1.72659
1.72425
1.72558
1.73092
1.7243
1.71563
1.71728
1.70889
1.71449
1.71084
1.71548
1.7156
1.71712
1.7242
1.71785
1.70694
1.7119
1.72175
1.71003
1.71454
1.71542
1.72155
1.71369
1.71933
1.72277
1.71747
1.71678
1.71858
1.71457
1.7168
1.72395
1.72359
1.7226
1.72615
1.68329
1.68527
1.68324
1.67796
1.67721
1.68483
1.69051
1.68671
1.67695
1.67973
1.68169
1.69153
1.68982
1.68181
1.68095
1.68548
1.6139
1.60846
1.61226
1.6102
1.61698
1.61935
1.61924
1.61935
1.60812
1.6241
1.62768
1.62068
1.623
1.61824
1.72044
1.72572
1.72633
1.73178
1.72761
1.73047
1.7283
1.73083
1.72933
1.72456
1.72604
1.72033
1.72657
1.72911
1.72905
1.72824
1.72811
1.72162
1.72766
1.72171
1.6107
1.61635
1.60543
1.60554
1.61561
1.622
1.61617
1.6151
1.60793
1.61465
1.61909
1.60266
1.61034
1.60983
1.60333
1.61521
1.60409
1.59209
1.5903
1.59846
1.59617
1.59697
1.59619
1.60821
1.60426
1.6009
1.66606
1.66327
1.66415
1.66723
1.66473
1.66637
1.75768
1.75765
1.76098
1.76666
1.77194
1.76707
1.75788
1.75747
1.75778
1.76662
1.75824
1.76545
1.76862
1.76884
1.76609
1.76816
1.77152
1.65957
1.66197
1.6624
1.66468
1.66347
1.66772
1.67243
1.66855
1.673
1.66442
1.66549
1.6711
1.74235
1.74131
1.74683
1.74501
1.74935
1.74966
1.74256
1.75763
1.75583
1.74671
1.75793
1.76189
1.74812
1.76337
1.75238
1.72979
1.72877
1.73413
1.73233
1.7325
1.73179
1.74284
1.74051
1.73727
1.73648
1.73383
1.73487
1.65423
1.64679
1.65258
1.65253
1.65482
1.65631
1.65557
1.65359
1.65368
1.6466
1.64656
1.65245
1.65165
1.64693
1.64163
1.6422
1.65319
1.652
1.73643
1.73752
1.73718
1.7343
1.7392
1.73449
1.73302
1.73333
1.73457
1.73872
1.73828
1.73603
1.73324
1.72931
1.72808
1.72705
1.7263
1.73036
1.73117
1.73225
1.74047
1.73654
1.72847
1.73175
1.73271
1.68013
1.68184
1.68964
1.69487
1.68557
1.68263
1.68124
1.68533
1.69
1.69573
1.69021
1.69708
1.68702
1.69059
1.68462
1.69211
1.71444
1.70438
1.69841
1.70285
1.70889
1.70501
1.7015
1.70257
1.70844
1.71036
1.70068
1.70745
1.70461
1.71032
1.71006
1.72994
1.72966
1.72431
1.72849
1.72849
1.72978
1.69691
1.69665
1.70092
1.70187
1.69327
1.69702
1.69765
1.69824
1.6949
1.7003
1.69997
1.70165
1.701
1.69723
1.69717
1.70233
1.70095
1.70235
1.69598
1.70399
1.69863
1.703
1.69798
1.69607
1.69768
1.69061
1.69414
1.69522
1.69633
1.70699
1.7077
1.70759
1.6956
1.70542
1.7036
1.7019
1.70228
1.70223
1.65012
1.64485
1.63041
1.62341
1.64326
1.63692
1.65101
1.64458
1.63704
1.64124
1.64297
1.64081
1.63293
1.62666
1.63114
1.73482
1.7301
1.72858
1.72804
1.72608
1.7243
1.72623
1.72356
1.72598
1.72902
1.72675
1.73217
1.73431
1.73406
1.73508
1.7295
1.73242
1.68438
1.68404
1.68889
1.6831
1.68991
1.69024
1.68747
1.69027
1.68521
1.69214
1.69113
1.74694
1.75423
1.75025
1.74707
1.74279
1.76063
1.75504
1.75576
1.75869
1.7451
1.74251
1.75851
1.75547
1.75727
1.74939
1.74766
1.69852
1.69283
1.69427
1.69413
1.69545
1.69226
1.69891
1.70193
1.70037
1.70457
1.60706
1.59766
1.58948
1.59351
1.58664
1.59925
1.58967
1.59531
1.58003
1.57605
1.58656
1.59093
1.58953
1.58605
1.58031
1.57474
1.71624
1.72649
1.7202
1.71943
1.72423
1.71863
1.71609
1.71915
1.71604
1.71563
1.72362
1.72325
1.70771
1.71654
1.71093
1.71309
1.74595
1.7413
1.75566
1.7599
1.75266
1.75183
1.74073
1.74387
1.75135
1.74058
1.74104
1.73692
1.7349
1.73562
1.73489
1.73547
1.73889
1.73446
1.73487
1.67281
1.67475
1.67799
1.67739
1.67422
1.67902
1.67951
1.67735
1.68093
1.68116
1.6792
1.67962
1.67568
1.6757
1.67648
1.67551
1.67624
1.67709
1.67727
1.67313
1.67749
1.67206
1.7155
1.7111
1.71596
1.71945
1.7244
1.72227
1.72031
1.72363
1.72007
1.72569
1.71745
1.71654
1.72233
1.71928
1.72011
1.71665
1.72175
1.73775
1.73776
1.73343
1.74161
1.73669
1.74005
1.73741
1.74028
1.72941
1.73964
1.7407
1.74082
1.67038
1.67061
1.66778
1.67283
1.66616
1.66803
1.66964
1.67352
1.66511
1.67088
1.66784
1.6638
1.65053
1.64949
1.65603
1.65513
1.65121
1.64933
1.64015
1.64104
1.65602
1.66027
1.643
1.64048
1.64611
1.64708
1.64952
1.64758
1.65032
1.65367
1.71291
1.71351
1.71762
1.71702
1.71321
1.71041
1.71281
1.71685
1.71795
1.71426
1.72287
1.73033
1.71541
1.71544
1.72538
1.72492
1.6789
1.6787
1.6767
1.67529
1.6821
1.68374
1.67835
1.67795
1.68645
1.68496
1.6839
1.68139
1.68068
1.68607
1.68288
1.69041
1.68626
1.68064
1.677
1.67523
1.68511
1.68069
1.67515
1.67993
1.68113
1.67935
1.68089
1.67727
1.67961
1.6786
1.67936
1.68297
1.68397
1.68715
1.67192
1.67135
1.66638
1.65762
1.66301
1.66412
1.6767
1.67539
1.67653
1.66792
1.66748
1.66074
1.65912
1.66042
1.6654
1.67598
1.66796
1.66163
1.66356
1.66816
1.66898
1.66843
1.66869
1.73927
1.7361
1.73554
1.735
1.72399
1.73397
1.74364
1.73939
1.72436
1.73435
1.74021
1.72796
1.73549
1.73654
1.73452
1.73707
1.72429
1.7331
1.72679
1.72393
1.72656
1.73571
1.72789
1.7293
1.73669
1.73141
1.7268
1.73118
1.72476
1.73426
1.72659
1.73129
1.67795
1.67901
1.67716
1.67468
1.67489
1.6781
1.67854
1.68489
1.68537
1.67896
1.68091
1.68879
1.68291
1.68817
1.68212
1.68355
1.68741
1.69088
1.69261
1.69374
1.69242
1.68505
1.69169
1.69471
1.69011
1.69924
1.6871
1.69428
1.67934
1.68398
1.68978
1.68497
1.69115
1.68259
1.68303
1.68784
1.68223
1.68277
1.67551
1.67502
1.67078
1.67674
1.67691
1.73838
1.73726
1.73969
1.74105
1.73876
1.73873
1.74036
1.73981
1.73795
1.73569
1.73096
1.73809
1.73164
1.73529
1.74356
1.59173
1.59242
1.58267
1.59502
1.58697
1.60583
1.60758
1.59472
1.58611
1.60411
1.59396
1.59591
1.59794
1.60713
1.60026
1.6025
1.60225
1.71124
1.71259
1.70912
1.70957
1.71055
1.71338
1.71175
1.7132
1.71259
1.7152
1.71012
1.70985
1.71065
1.70963
1.71167
1.70917
1.70944
1.71365
1.73911
1.74283
1.73945
1.74025
1.73125
1.73142
1.72851
1.72868
1.73108
1.73239
1.7325
1.73456
1.73573
1.73105
1.73615
1.73264
1.7345
1.72797
1.72284
1.72695
1.7253
1.72882
1.69284
1.69217
1.67857
1.67891
1.6906
1.68031
1.68264
1.69058
1.68105
1.68408
1.67563
1.67584
1.68771
1.68693
1.68555
1.68859
1.68421
1.68249
1.68518
1.67891
1.73975
1.74017
1.74058
1.73822
1.73891
1.74375
1.7409
1.74045
1.73913
1.73997
1.74336
1.74181
1.74107
1.74089
1.73876
1.74412
1.66736
1.66579
1.65234
1.64988
1.66152
1.66127
1.64782
1.65106
1.65185
1.65404
1.6585
1.65633
1.65628
1.70903
1.71134
1.71212
1.7167
1.71008
1.71069
1.70885
1.70744
1.7106
1.71506
1.71352
1.70768
1.70896
1.71124
1.71492
1.70878
1.70901
1.71534
1.70941
1.71185
1.71039
1.7127
1.71069
1.7084
1.71003
1.714
1.71008
1.71281
1.71036
1.70721
1.71232
1.7121
1.71503
1.71698
1.71019
1.70917
1.7099
1.71224
1.71127
1.70403
1.71302
1.71125
1.64353
1.65407
1.65313
1.69466
1.69335
1.69212
1.68497
1.70577
1.71144
1.71195
1.70855
1.75373
1.75885
1.75611
1.75897
1.76155
1.67831
1.67981
1.68202
1.72096
1.72083
1.71473
1.68403
1.68562
1.6826
1.72432
1.72198
1.67681
1.67957
1.67432
1.68374
1.72407
1.72457
1.60814
1.61216
1.62164
1.67053
1.6664
1.67601
1.59167
1.58969
1.59434
1.70556
1.7076
1.71003
1.70301
1.70254
1.72999
1.72856
1.73163
1.72373
1.67731
1.67837
1.72005
1.72027
1.70378
1.70613
1.7096
1.70952
1.74846
1.74635
1.65716
1.6636
1.66496
1.68737
1.69568
1.6958
1.69254
1.61342
1.61551
1.75102
1.74678
1.74692
1.73222
1.73541
1.70154
1.7094
1.70482
1.75124
1.75362
1.64203
1.64887
1.65059
1.66535
1.66667
1.71526
1.71729
1.74243
1.70164
1.70186
1.67866
1.67341
1.67449
1.66571
1.76679
1.76411
1.7718
1.72668
1.72644
1.68998
1.69318
1.69583
1.68976
1.69364
1.69616
1.68405
1.6744
1.67739
1.72005
1.71719
1.71765
1.72411
1.72795
1.77096
1.76897
1.75164
1.74655
1.74117
1.69665
1.70029
1.69987
1.69747
1.6952
1.69009
1.64521
1.641
1.63783
1.63758
1.63362
1.63435
1.73152
1.732
1.65556
1.64657
1.6471
1.63932
1.7081
1.71158
1.72343
1.72563
1.71936
1.72532
1.72541
1.71658
1.72156
1.69692
1.69609
1.69024
1.74097
1.73975
1.73665
1.73875
1.5594
1.55994
1.68248
1.68303
1.67109
1.67106
1.64072
1.63193
1.63619
1.69848
1.70954
1.71294
1.706
1.72875
1.73533
1.7356
1.6852
1.68972
1.69029
1.73637
1.73245
1.74612
1.71254
1.7127
1.71538
1.70664
1.64028
1.642
1.71464
1.71221
1.7075
1.67992
1.6848
1.68779
1.73604
1.73697
1.69505
1.69715
1.70194
1.60774
1.60974
1.73905
1.73963
1.68213
1.67658
1.69444
1.70084
1.68659
1.69176
1.72851
1.71629
1.72355
1.71767
1.7182
1.74043
1.73769
1.73772
1.73294
1.73185
1.73958
1.73491
1.726
1.72158
1.73072
1.72766
1.73002
1.67529
1.68763
1.68224
1.68775
1.68548
1.67821
1.67896
1.69597
1.68822
1.68946
1.69532
1.68967
1.68736
1.68278
1.6895
1.69254
1.6874
1.69441
1.68348
1.68089
1.68546
1.68522
1.6812
1.68731
1.68428
1.67637
1.67547
1.69506
1.69842
1.70122
1.69813
1.69527
1.69299
1.70519
1.6968
1.69837
1.70148
1.69963
1.69715
1.69261
1.69548
1.69745
1.70278
1.70455
1.69549
1.69951
1.6964
1.70672
1.70027
1.70391
1.70524
1.7031
1.74177
1.74624
1.74596
1.74268
1.74285
1.73833
1.74168
1.74005
1.73579
1.73488
1.73189
1.73367
1.73748
1.73523
1.73913
1.73878
1.74058
1.73849
1.74717
1.74271
1.73957
1.59077
1.58739
1.60308
1.60587
1.63317
1.62693
1.62733
1.61699
1.68934
1.69501
1.69141
1.70576
1.7008
1.69867
1.69029
1.68885
1.69225
1.6907
1.69572
1.70171
1.702
1.69528
1.68905
1.6956
1.69523
1.6968
1.72842
1.72798
1.73614
1.74401
1.73609
1.7352
1.7375
1.7342
1.73814
1.73303
1.7316
1.73312
1.74428
1.74788
1.73272
1.73566
1.68669
1.69174
1.68938
1.68437
1.69034
1.69581
1.69325
1.66159
1.6655
1.68859
1.69032
1.68965
1.69116
1.68708
1.67324
1.67693
1.67739
1.67243
1.67271
1.68
1.67492
1.67893
1.66912
1.6755
1.67976
1.68246
1.67721
1.67446
1.70591
1.70833
1.69916
1.72071
1.71807
1.71913
1.70605
1.70963
1.70948
1.70943
1.70365
1.70609
1.70267
1.71913
1.71758
1.71349
1.7096
1.62864
1.63412
1.63039
1.63413
1.6508
1.66157
1.65436
1.63336
1.6351
1.64586
1.65482
1.6512
1.6563
1.64798
1.64384
1.63889
1.63565
1.63845
1.63369
1.6414
1.64294
1.70804
1.71416
1.71397
1.70725
1.70583
1.71687
1.71632
1.72054
1.71801
1.71209
1.71101
1.71603
1.71451
1.72407
1.71248
1.71026
1.70046
1.70953
1.70338
1.71416
1.70987
1.72586
1.74025
1.74074
1.72309
1.72455
1.73169
1.74087
1.73822
1.72762
1.7341
1.73761
1.73399
1.72717
1.73825
1.73892
1.74588
1.75079
1.78336
1.77118
1.6781
1.67799
1.6872
1.68885
1.68154
1.67849
1.68309
1.68185
1.68648
1.68392
1.68354
1.67887
1.69786
1.69596
1.69179
1.69025
1.68669
1.68193
1.68612
1.69328
1.68905
1.68491
1.68705
1.68715
1.69195
1.70001
1.69306
1.74196
1.74138
1.73502
1.73927
1.73879
1.74068
1.73685
1.73059
1.7347
1.72812
1.7335
1.7275
1.73456
1.72986
1.73323
1.7285
1.71958
1.72443
1.73297
1.72471
1.72652
1.73068
1.72443
1.72936
1.73047
1.73223
1.72428
1.71994
1.72607
1.6953
1.69176
1.70347
1.69918
1.69611
1.69107
1.70089
1.69659
1.70435
1.70039
1.69908
1.70148
1.70169
1.70449
1.70292
1.70529
1.70332
1.62188
1.61699
1.63012
1.61996
1.6257
1.62342
1.63437
1.63434
1.63117
1.6316
1.62545
1.62715
1.64743
1.64246
1.63956
1.65003
1.64759
1.64948
1.64469
1.65079
1.64695
1.64142
1.63992
1.64225
1.69315
1.68709
1.69008
1.68282
1.6736
1.68247
1.67438
1.6713
1.67075
1.67192
1.6607
1.66655
1.66434
1.66059
1.68612
1.68309
1.67896
1.67405
1.67319
1.68386
1.67816
1.67964
1.67715
1.68654
1.68082
1.67255
1.68113
1.67521
1.67625
1.68505
1.68724
1.68732
1.6779
1.68174
1.69783
1.68157
1.69055
1.6977
1.68583
1.67763
1.67883
1.67448
1.68107
1.70096
1.68997
1.68648
1.69314
1.69735
1.68677
1.68714
1.69102
1.68509
1.67661
1.68018
1.68231
1.68478
1.6837
1.69008
1.686
1.59743
1.59317
1.58312
1.56309
1.56885
1.5745
1.58058
1.58502
1.58774
1.57273
1.57056
1.57042
1.56783
1.57488
1.56786
1.58299
1.57963
1.57631
1.57337
1.56899
1.57093
1.56002
1.55403
1.72533
1.7142
1.72406
1.735
1.73838
1.73279
1.72744
1.72521
1.73073
1.75873
1.75152
1.74648
1.74675
1.74308
1.73748
1.7351
1.73032
1.72409
1.72763
1.73357
1.73485
1.73242
1.73171
1.74219
1.73952
1.73693
1.74189
1.74214
1.73699
1.73603
1.72951
1.73814
1.73841
1.72707
1.72845
1.73114
1.7302
1.72657
1.6859
1.69218
1.6945
1.70095
1.70162
1.70405
1.70314
1.70428
1.69808
1.69703
1.69941
1.695
1.68781
1.69795
1.69458
1.70972
1.69709
1.7071
1.73328
1.72562
1.73034
1.7308
1.72913
1.71244
1.71376
1.72432
1.72027
1.72117
1.72003
1.72268
1.73277
1.73247
1.73011
1.72921
1.72701
1.72661
1.7261
1.72672
1.72513
1.72382
1.72605
1.72366
1.72657
1.71969
1.72381
1.71968
1.69656
1.69339
1.71291
1.72039
1.71499
1.71442
1.71643
1.71573
1.71172
1.71352
1.70085
1.71093
1.71099
1.70444
1.70959
1.71326
1.71108
1.71536
1.70773
1.71275
1.70863
1.70703
1.71339
1.70714
1.70546
1.70639
1.63579
1.63298
1.64379
1.63686
1.6216
1.62032
1.62466
1.63393
1.63291
1.7318
1.73113
1.73069
1.73422
1.73292
1.64937
1.64355
1.63901
1.6373
1.66112
1.66054
1.65309
1.65398
1.64978
1.65056
1.63516
1.6352
1.63285
1.63434
1.69548
1.69482
1.69784
1.69449
1.68534
1.6986
1.69287
1.69656
1.6942
1.69043
1.68344
1.68787
1.69469
1.69311
1.70276
1.70906
1.70506
1.70204
1.6956
1.68915
1.68557
1.68776
1.70546
1.69878
1.70156
1.71033
1.70852
1.70925
1.70805
1.76094
1.76611
1.76544
1.76231
1.76673
1.7583
1.7689
1.76549
1.77171
1.76208
1.76783
1.76571
1.75372
1.72107
1.7235
1.72398
1.72638
1.71916
1.72046
1.7179
1.71819
1.71673
1.72011
1.7198
1.7105
1.71304
1.71437
1.70651
1.71566
1.71438
1.67206
1.66763
1.67035
1.69646
1.70241
1.6988
1.6997
1.69551
1.69219
1.69263
1.69692
1.69342
1.69748
1.69309
1.68929
1.68683
1.68327
1.6932
1.69074
1.68646
1.69386
1.68396
1.6943
1.69398
1.682
1.6856
1.68133
1.69525
1.70071
1.68918
1.69856
1.69958
1.69618
1.70126
1.69829
1.68985
1.69293
1.69125
1.71551
1.72002
1.71575
1.72954
1.73815
1.73307
1.73261
1.73171
1.74722
1.73481
1.73444
1.72405
1.72814
1.72406
1.72442
1.72384
1.72742
1.7273
1.7273
1.74754
1.75905
1.75319
1.74966
1.7448
1.74405
1.74436
1.75753
1.75644
1.75969
1.77501
1.77595
1.77559
1.78708
1.77977
1.77335
1.78336
1.6756
1.66965
1.68154
1.68518
1.68308
1.6764
1.68262
1.6633
1.6661
1.67213
1.68104
1.6825
1.67993
1.67899
1.68171
1.67687
1.67311
1.67656
1.67229
1.70108
1.70395
1.70672
1.70086
1.69727
1.70035
1.70208
1.69387
1.7023
1.74548
1.74437
1.74285
1.7419
1.73933
1.70989
1.71238
1.71946
1.71761
1.71645
1.71698
1.71535
1.71616
1.71321
1.71184
1.71757
1.71296
1.71386
1.71549
1.70731
1.6684
1.67125
1.67453
1.67142
1.66437
1.65492
1.65831
1.66265
1.66542
1.66202
1.64931
1.65271
1.65969
1.65272
1.65175
1.64084
1.64757
1.64623
1.63355
1.63166
1.63031
1.63704
1.64678
1.64673
1.63722
1.64272
1.66873
1.66792
1.66801
1.67785
1.66169
1.66656
1.65333
1.66278
1.65587
1.65584
1.65478
1.7442
1.73731
1.73245
1.74574
1.74735
1.74259
1.73529
1.73307
1.74844
1.73735
1.74686
1.74783
1.75431
1.76102
1.75813
1.75848
1.75563
1.75588
1.75962
1.75938
1.75982
1.75807
1.70445
1.70795
1.70292
1.70865
1.7072
1.70901
1.70049
1.70135
1.70065
1.70746
1.74582
1.73988
1.74381
1.73009
1.72774
1.72685
1.73067
1.72528
1.73681
1.73822
1.73235
1.72339
1.72246
1.73579
1.73673
1.73804
1.73881
1.60108
1.60495
1.60345
1.63583
1.62527
1.63295
1.63311
1.62936
1.63255
1.61741
1.61373
1.63586
1.63715
1.6324
1.62232
1.61788
1.65002
1.64741
1.61115
1.60259
1.61294
1.61682
1.6274
1.62363
1.64144
1.63996
1.63889
1.62678
1.621
1.64257
1.64114
1.68543
1.68479
1.69382
1.69443
1.68905
1.67343
1.67435
1.67217
1.66909
1.66914
1.66172
1.6685
1.6582
1.66045
1.66239
1.66036
1.65341
1.65575
1.65463
1.6516
1.74999
1.74418
1.74869
1.74216
1.7427
1.74388
1.74318
1.74337
1.74311
1.74362
1.74611
1.75466
1.71224
1.70925
1.7115
1.71129
1.71415
1.70585
1.7137
1.71064
1.71216
1.7027
1.7047
1.70301
1.70656
1.70978
1.7111
1.7251
1.72091
1.71906
1.73062
1.7188
1.726
1.718
1.71716
1.73043
1.73287
1.72941
1.72281
1.72164
1.72374
1.72479
1.6718
1.67632
1.68334
1.66688
1.67515
1.67481
1.6708
1.67968
1.69149
1.68604
1.68619
1.6845
1.68479
1.68814
1.72582
1.72016
1.72565
1.72225
1.72479
1.72484
1.72822
1.73144
1.73212
1.72687
1.72841
1.7307
1.731
1.70883
1.70504
1.71116
1.70899
1.69891
1.70439
1.70566
1.70153
1.70467
1.70666
1.70584
1.70645
1.71309
1.71134
1.71039
1.71513
1.62226
1.61217
1.61484
1.60714
1.59737
1.61225
1.61691
1.60153
1.58238
1.58283
1.66067
1.66819
1.6566
1.65924
1.69298
1.69058
1.68456
1.67621
1.69118
1.68708
1.68029
1.67506
1.67816
1.68103
1.6752
1.67356
1.66829
1.6729
1.6706
1.66634
1.67183
1.67175
1.7289
1.71903
1.72644
1.71778
1.71665
1.73012
1.72984
1.7258
1.7256
1.6722
1.67933
1.67667
1.67432
1.67415
1.67012
1.67635
1.67289
1.67385
1.68144
1.68073
1.6801
1.67956
1.68135
1.6715
1.67462
1.67384
1.67537
1.73123
1.7296
1.72545
1.72372
1.72373
1.73262
1.72179
1.72581
1.7259
1.72739
1.72735
1.72154
1.71961
1.72394
1.7217
1.72576
1.72468
1.68741
1.6802
1.68603
1.67702
1.68436
1.68323
1.69065
1.68905
1.69196
1.68247
1.68849
1.6886
1.69333
1.69154
1.68206
1.68576
1.69189
1.68746
1.68744
1.70479
1.71638
1.70505
1.70912
1.706
1.70976
1.71078
1.71033
1.71009
1.70824
1.7122
1.70851
1.72674
1.7199
1.72306
1.71931
1.68874
1.6845
1.68748
1.68429
1.68199
1.68751
1.68822
1.68877
1.68621
1.68207
1.68274
1.68163
1.6826
1.67774
1.67818
1.67679
1.67715
1.68136
1.67392
1.67473
1.67657
1.75101
1.75285
1.74569
1.75295
1.74762
1.76669
1.75826
1.77043
1.76582
1.7686
1.76301
1.75709
1.75904
1.75898
1.76089
1.75696
1.69386
1.69412
1.68893
1.69206
1.69117
1.69169
1.69872
1.69255
1.68468
1.68462
1.68646
1.68523
1.6849
1.68443
1.69261
1.68993
1.66609
1.66432
1.66208
1.66696
1.66025
1.65959
1.65222
1.66321
1.66489
1.6554
1.6586
1.65956
1.66009
1.65879
1.65726
1.67168
1.67165
1.67083
1.6716
1.67281
1.66751
1.66416
1.6691
1.66366
1.66582
1.68606
1.69015
1.69014
1.69387
1.6899
1.69003
1.69277
1.58845
1.58541
1.77898
1.77624
1.77384
1.77494
1.77179
1.76363
1.77762
1.77402
1.74368
1.74053
1.7463
1.74384
1.74226
1.73643
1.74667
1.75043
1.7479
1.74762
1.7544
1.74578
1.74336
1.7506
1.74966
1.71594
1.72019
1.71589
1.72263
1.71941
1.7158
1.71281
1.71884
1.70492
1.71127
1.70924
1.71334
1.71511
1.71693
1.71675
1.71222
1.7144
1.71037
1.70026
1.6984
1.70147
1.70171
1.6999
1.69728
1.6915
1.69353
1.69892
1.69535
1.6951
1.69445
1.68146
1.68769
1.68714
1.6922
1.68972
1.69262
1.69105
1.68886
1.69188
1.69393
1.72548
1.73642
1.72899
1.73915
1.73388
1.73037
1.73385
1.73118
1.68528
1.68114
1.68095
1.68343
1.6802
1.67955
1.68261
1.68207
1.72478
1.72797
1.71941
1.72441
1.72165
1.71823
1.72012
1.72072
1.71596
1.71884
1.68849
1.68539
1.6851
1.67698
1.67342
1.67803
1.68078
1.68022
1.68091
1.71974
1.7189
1.71256
1.71693
1.71282
1.71952
1.70766
1.7104
1.71286
1.70915
1.72945
1.72791
1.72624
1.72874
1.72813
1.72892
1.72134
1.72259
1.71849
1.71988
1.71681
1.71483
1.71162
1.7211
1.72337
1.7137
1.71313
1.71664
1.71233
1.68559
1.68787
1.68664
1.689
1.68601
1.69095
1.68167
1.69889
1.68923
1.71736
1.70398
1.70812
1.71406
1.7152
1.71552
1.71317
1.71416
1.71461
1.70325
1.70725
1.70409
1.70344
1.69844
1.69921
1.70571
1.70485
1.69877
1.6938
1.66908
1.66939
1.67478
1.67418
1.67723
1.6772
1.67552
1.67356
1.6748
1.67645
1.6257
1.62454
1.62063
1.62497
1.62097
1.63545
1.6313
1.6316
1.63492
1.60097
1.61282
1.60407
1.58961
1.64667
1.64805
1.64229
1.65502
1.63876
1.64287
1.64461
1.64287
1.6258
1.62339
1.61923
1.62409
1.61512
1.62899
1.622
1.62009
1.61882
1.61678
1.61195
1.58648
1.58262
1.57798
1.5922
1.59891
1.58397
1.57745
1.748
1.74417
1.7525
1.7489
1.74175
1.7057
1.70448
1.69837
1.71371
1.71231
1.71067
1.71264
1.70933
1.70443
1.65584
1.66695
1.65925
1.6597
1.64737
1.64855
1.64754
1.66542
1.66178
1.66671
1.66714
1.66822
1.6699
1.67726
1.67065
1.66991
1.67093
1.67319
1.67305
1.66981
1.71576
1.71255
1.71658
1.71598
1.71372
1.71636
1.71526
1.71835
1.71868
1.70702
1.707
1.71033
1.70795
1.71044
1.70739
1.70976
1.70925
1.71204
1.71356
1.70363
1.69815
1.70074
1.70019
1.70012
1.67573
1.66654
1.67881
1.67891
1.67916
1.67624
1.67601
1.67211
1.66865
1.67071
1.67071
1.66846
1.67009
1.66559
1.67802
1.67098
1.67914
1.67381
1.66864
1.76024
1.76079
1.75988
1.7533
1.71522
1.71043
1.71595
1.71741
1.71659
1.72121
1.7248
1.72324
1.72433
1.72133
1.73171
1.72567
1.72268
1.7285
1.73079
1.73244
1.72532
1.72895
1.70907
1.70552
1.70693
1.71859
1.71597
1.7205
1.71739
1.7163
1.71155
1.71553
1.71797
1.70216
1.70599
1.70423
1.70449
1.70142
1.68607
1.68687
1.68964
1.68648
1.68768
1.68215
1.68607
1.70008
1.69584
1.69648
1.70595
1.70378
1.69843
1.69748
1.69499
1.69154
1.6925
1.69083
1.70406
1.69828
1.702
1.69896
1.66701
1.66484
1.66534
1.66337
1.66101
1.65975
1.67192
1.67145
1.66775
1.6707
1.67094
1.67529
1.67554
1.67708
1.67169
1.67424
1.67337
1.67433
1.67304
1.77276
1.77084
1.76912
1.75671
1.74635
1.7533
1.69114
1.69498
1.69139
1.69867
1.69361
1.69113
1.73403
1.73672
1.73448
1.73262
1.73406
1.73668
1.73822
1.73439
1.72979
1.72638
1.72652
1.72986
1.72892
1.73011
1.72576
1.72779
1.72453
1.72738
1.72722
1.72853
1.72898
1.72176
1.72196
1.72584
1.72456
1.72508
1.72243
1.72416
1.72372
1.72376
1.72489
1.72077
1.72223
1.71782
1.72146
1.72335
1.71773
1.71727
1.71428
1.70534
1.70999
1.7043
1.70568
1.71008
1.71188
1.71891
1.71078
1.71447
1.71361
1.70887
1.71508
1.71681
1.71407
1.71261
1.69182
1.69221
1.69272
1.69206
1.69593
1.69725
1.69375
1.69553
1.69702
1.69876
1.70324
1.70213
1.70213
1.7011
1.69874
1.69597
1.69532
1.70278
1.70147
1.70023
1.69715
1.69636
1.69641
1.69427
1.69837
1.69768
1.69391
1.69941
1.70134
1.70051
1.69432
1.72054
1.71974
1.71668
1.72966
1.72979
1.72302
1.72648
1.724
1.72092
1.72635
1.71952
1.72052
1.72454
1.733
1.73427
1.73185
1.72875
1.72748
1.72225
1.72852
1.72767
1.72844
1.73397
1.73802
1.72891
1.73642
1.74303
1.73831
1.73959
1.73182
1.73168
1.73614
1.73552
1.73937
1.73722
1.73688
1.70321
1.71604
1.71819
1.71428
1.71355
1.71202
1.70921
1.71739
1.71527
1.70873
1.70723
1.71104
1.7134
1.61187
1.61405
1.62201
1.60604
1.6079
1.60124
1.67053
1.67583
1.67875
1.67604
1.67417
1.67585
1.6816
1.67725
1.67777
1.67232
1.65961
1.66647
1.65963
1.67457
1.67413
1.67829
1.67719
1.67948
1.6811
1.68261
1.67681
1.67719
1.67427
1.68915
1.68444
1.6853
1.68278
1.686
1.64183
1.64507
1.64435
1.65424
1.65113
1.66669
1.66519
1.66688
1.66568
1.65727
1.65451
1.65903
1.65165
1.6571
1.69061
1.69316
1.69006
1.68711
1.6836
1.69727
1.68803
1.6878
1.68885
1.68161
1.68582
1.68443
1.68427
1.68729
1.68041
1.68813
1.67788
1.68543
1.68399
1.67864
1.67834
1.75175
1.7557
1.75555
1.74872
1.7437
1.74793
1.75448
1.75153
1.75435
1.7507
1.70511
1.70631
1.71024
1.70239
1.70708
1.70424
1.69772
1.6996
1.70724
1.70498
1.708
1.70317
1.64075
1.64109
1.64902
1.64354
1.65606
1.64138
1.64646
1.64541
1.64465
1.6528
1.65551
1.66593
1.65933
1.67078
1.66706
1.66729
1.66044
1.6531
1.64272
1.65947
1.65476
1.65972
1.65342
1.66039
1.66
1.64606
1.64721
1.6428
1.64583
1.65532
1.64958
1.65449
1.65866
1.69109
1.69813
1.69584
1.69465
1.69445
1.69535
1.70214
1.6997
1.69885
1.69759
1.69781
1.69726
1.69732
1.696
1.69428
1.73673
1.74327
1.74322
1.74135
1.7397
1.74098
1.73751
1.73716
1.7376
1.73881
1.73703
1.73443
1.72704
1.73414
1.73319
1.73172
1.73471
1.73384
1.73487
1.73708
1.73626
1.73958
1.74255
1.74076
1.67478
1.67453
1.69594
1.69731
1.70064
1.69321
1.69667
1.70065
1.71135
1.70495
1.69449
1.72728
1.72925
1.72789
1.73195
1.72687
1.7417
1.74991
1.75423
1.74921
1.74717
1.744
1.75035
1.75248
1.75117
1.70749
1.70499
1.71364
1.70852
1.71036
1.71049
1.70749
1.70069
1.71114
1.70573
1.74047
1.73878
1.74605
1.74075
1.74105
1.74134
1.73256
1.74069
1.7432
1.74478
1.73963
1.67934
1.68112
1.68831
1.6827
1.68798
1.68813
1.68707
1.68258
1.68896
1.68837
1.685
1.76089
1.76723
1.767
1.76222
1.76755
1.75853
1.75527
1.76382
1.75712
1.76352
1.76616
1.75532
1.7204
1.71972
1.72088
1.72069
1.72069
1.72248
1.72238
1.72062
1.71762
1.71813
1.77071
1.77049
1.77622
1.77552
1.77648
1.7817
1.76622
1.77751
1.78202
1.76828
1.76996
1.77608
1.77341
1.7741
1.67024
1.66621
1.67367
1.67294
1.67018
1.67128
1.67261
1.73035
1.73981
1.73398
1.73317
1.72618
1.73406
1.73511
1.73658
1.7405
1.73826
1.73314
1.72887
1.71351
1.71237
1.71194
1.71246
1.72019
1.72062
1.71505
1.71766
1.66814
1.68021
1.68736
1.69413
1.6864
1.6883
1.69592
1.69864
1.70236
1.69661
1.69783
1.69103
1.69226
1.69182
1.688
1.69303
1.69937
1.6972
1.6921
1.68849
1.69449
1.70154
1.69726
1.6915
1.61294
1.60729
1.62463
1.62939
1.621
1.63399
1.63679
1.62704
1.63201
1.62559
1.609
1.59611
1.61453
1.6134
1.61599
1.64667
1.6395
1.69757
1.69107
1.73707
1.74046
1.73802
1.73747
1.73884
1.74165
1.7367
1.73918
1.73365
1.73857
1.73418
1.73392
1.7328
1.73355
1.67335
1.66725
1.6995
1.69663
1.69751
1.70414
1.69785
1.6974
1.69604
1.68812
1.69966
1.70046
1.69769
1.66945
1.66384
1.66478
1.66019
1.65519
1.66095
1.66766
1.6662
1.66566
1.66511
1.66462
1.66559
1.66667
1.64362
1.63947
1.63548
1.63748
1.64185
1.64355
1.64098
1.6421
1.71087
1.7096
1.71329
1.71491
1.71971
1.71578
1.71157
1.72402
1.71849
1.7183
1.70685
1.71854
1.71585
1.71749
1.72378
1.73156
1.72627
1.73317
1.72828
1.73128
1.73349
1.72464
1.73039
1.72672
1.73816
1.73206
1.72545
1.74564
1.73784
1.73612
1.73746
1.73816
1.74256
1.7414
1.73707
1.67906
1.67143
1.6356
1.62653
1.6316
1.61526
1.61817
1.62219
1.63162
1.62422
1.62953
1.64645
1.66545
1.66025
1.66272
1.66813
1.66113
1.65594
1.65297
1.64962
1.6499
1.65869
1.65384
1.6502
1.64895
1.6432
1.64642
1.6548
1.66761
1.66284
1.66076
1.66357
1.64975
1.65427
1.66588
1.65867
1.67924
1.7023
1.70337
1.69905
1.70171
1.69983
1.69418
1.703
1.69199
1.69665
1.69514
1.6945
1.69493
1.69705
1.57839
1.58237
1.58516
1.73016
1.68712
1.69574
1.6875
1.70245
1.70562
1.70004
1.70255
1.71
1.71099
1.70977
1.70923
1.70586
1.70722
1.71318
1.7138
1.68758
1.68517
1.68617
1.67903
1.68136
1.68092
1.68248
1.70379
1.7045
1.70669
1.70372
1.68418
1.68378
1.68496
1.68941
1.68779
1.65274
1.65318
1.64678
1.64907
1.6444
1.6424
1.64404
1.64408
1.63888
1.64672
1.64378
1.64484
1.64141
1.68232
1.69485
1.69215
1.69447
1.69207
1.68846
1.6858
1.69605
1.68705
1.69307
1.6969
1.70973
1.70666
1.70539
1.70138
1.69969
1.69635
1.69753
1.69577
1.7081
1.70699
1.69681
1.6964
1.76072
1.74309
1.76018
1.76092
1.74845
1.76034
1.76106
1.75256
1.7562
1.75115
1.75103
1.75143
1.76479
1.7625
1.75619
1.74977
1.6762
1.66366
1.66941
1.67494
1.67297
1.66916
1.68789
1.68287
1.69439
1.68869
1.68047
1.68154
1.68175
1.6972
1.69911
1.69839
1.6918
1.69456
1.69607
1.69617
1.70359
1.70316
1.68763
1.69942
1.69732
1.73773
1.74407
1.73518
1.7407
1.74269
1.71798
1.71694
1.71149
1.72065
1.72221
1.71709
1.71945
1.71878
1.71458
1.72249
1.71503
1.71672
1.71965
1.7208
1.71509
1.6669
1.66343
1.66075
1.67028
1.66416
1.66404
1.66137
1.66421
1.7559
1.75677
1.75884
1.76771
1.76549
1.7583
1.62332
1.63597
1.63135
1.62458
1.62636
1.63058
1.66776
1.65973
1.67067
1.67426
1.66736
1.66055
1.66222
1.66491
1.66166
1.66138
1.66128
1.65798
1.74567
1.7446
1.74268
1.7499
1.75503
1.7553
1.74598
1.74486
1.74555
1.73755
1.74581
1.74216
1.72542
1.68387
1.68429
1.68291
1.67958
1.67772
1.68319
1.68141
1.67849
1.67709
1.67635
1.72385
1.72192
1.70532
1.70359
1.70294
1.70027
1.70129
1.70256
1.69993
1.60182
1.61953
1.6246
1.59965
1.6058
1.59902
1.60164
1.60382
1.61708
1.61043
1.62195
1.62526
1.62007
1.61774
1.60875
1.61287
1.60738
1.60563
1.60703
1.6495
1.65011
1.64864
1.64839
1.6561
1.6519
1.65061
1.65122
1.65063
1.65512
1.72641
1.73062
1.72941
1.72856
1.72961
1.72764
1.72652
1.72748
1.72725
1.72068
1.72727
1.71354
1.72483
1.7238
1.72281
1.72171
1.71196
1.71277
1.71466
1.71389
1.7125
1.7228
1.72375
1.71331
1.71736
1.72259
1.72309
1.72405
1.72629
1.72568
1.72709
1.7313
1.72797
1.72239
1.7232
1.71551
1.71349
1.69061
1.68893
1.69597
1.686
1.68222
1.68195
1.69022
1.6807
1.68292
1.68373
1.68395
1.68809
1.69179
1.70724
1.70254
1.70016
1.71836
1.72317
1.72194
1.72102
1.7224
1.72179
1.71574
1.71586
1.72354
1.72679
1.72424
1.72369
1.72622
1.7267
1.72437
1.72207
1.72198
1.72877
1.7231
1.72693
1.72281
1.72165
1.72267
1.72726
1.72233
1.69036
1.68984
1.68161
1.68732
1.69064
1.68854
1.68812
1.68718
1.68942
1.67951
1.6783
1.68582
1.68321
1.67765
1.67984
1.69024
1.68286
1.6914
1.69007
1.68921
1.68803
1.68071
1.68495
1.67943
1.68432
1.68398
1.68127
1.68728
1.6841
1.68471
1.68239
1.6801
1.68948
1.6886
1.68894
1.68882
1.68344
1.68046
1.68481
1.77527
1.77834
1.77023
1.77198
1.76452
1.76474
1.76125
1.77493
1.76764
1.7685
1.77012
1.77248
1.7657
1.769
1.71275
1.71103