/*--------------------------------*- C++ -*----------------------------------*\
| =========                 |                                                 |
| \\      /  F ield         | OpenFOAM: The Open Source CFD Toolbox           |
|  \\    /   O peration     | Version:  v1612+                                |
|   \\  /    A nd           | Web:      www.OpenFOAM.com                      |
|    \\/     M anipulation  |                                                 |
\*---------------------------------------------------------------------------*/
FoamFile
{
    version     2.0;
    format      ascii;
    class       volVectorField;
    location    "150";
    object      wallShearStress;
}
// * * * * * * * * * * * * * * * * * * * * * * * * * * * * * * * * * * * * * //

dimensions      [0 2 -2 0 0 0 0];

internalField   uniform (0 0 0);

boundaryField
{
    WALL
    {
        type            calculated;
        value           nonuniform List<vector> 
1532
(
(-0.00215347 0.00774403 0.020881)
(-0.00146884 0.0083594 0.0202823)
(-0.000354252 0.00734159 0.0148901)
(-0.00101756 0.00512396 0.0154819)
(0.00181085 0.00707008 0.0122449)
(0.00177372 0.00694424 0.0120986)
(-0.000856105 0.00427782 0.0161657)
(0.00138376 0.00360655 0.00979524)
(0.000987108 0.00317675 0.00935611)
(0.00100218 0.00309617 0.00921138)
(0.00131534 0.00329007 0.00934181)
(0.0010641 0.00345316 0.00934988)
(0.00132017 0.00385093 0.00992655)
(-0.00132335 0.00811394 0.0170789)
(-0.00140206 0.0092999 0.0181803)
(-0.00111986 0.00783924 0.016506)
(-0.00158174 0.00844141 0.0189157)
(-0.000996558 0.00948437 0.0174315)
(-0.00159277 0.00885912 0.0181154)
(-0.00202333 0.0088595 0.0289806)
(-0.0021132 0.00907978 0.028961)
(-0.00101513 0.00935813 0.0288651)
(-0.00205617 0.00883978 0.0289073)
(-0.00242032 0.00896137 0.0300212)
(-0.00170108 0.00924199 0.028615)
(-0.00625526 0.0107674 0.0236035)
(-0.00569466 0.0119703 0.0245475)
(-0.00551457 0.0114805 0.0247104)
(-0.00584822 0.0127748 0.0234931)
(-0.00573715 0.00982609 0.0234491)
(-0.00657034 0.0111093 0.0247274)
(-0.000727019 0.00303776 0.0137729)
(-0.000378299 0.00256993 0.0131692)
(-0.000430738 0.00261354 0.0125051)
(-0.000864794 0.00332232 0.0133613)
(-0.000194314 0.00236485 0.0122447)
(-0.00124666 0.00374458 0.0140112)
(-0.00469589 0.00822338 0.0278485)
(-0.00601945 0.00901963 0.0278989)
(-0.00559926 0.00835297 0.0262797)
(-0.00534217 0.00871621 0.0275585)
(-0.00583472 0.00834409 0.0275885)
(-0.00545863 0.00875935 0.0284595)
(-0.00117218 0.0104559 0.0241891)
(-0.00113797 0.0109823 0.0260928)
(-0.000651033 0.0103285 0.0262406)
(-0.000733712 0.00968774 0.0252325)
(-0.00101726 0.00935143 0.0245187)
(-0.000886101 0.0102771 0.0248388)
(0.00120309 0.00180336 0.00955798)
(0.00114336 0.00182162 0.010156)
(0.0015075 0.00131396 0.0102813)
(0.00146662 0.00145493 0.00967829)
(0.00144943 0.00164598 0.00927906)
(0.00130297 0.00145539 0.0104456)
(-0.000693246 0.0044413 0.0147287)
(-0.000675754 0.0050538 0.0146661)
(-0.00105583 0.00480632 0.017398)
(0.00140398 0.00678578 0.0130251)
(0.0013256 0.00818318 0.0147141)
(0.00133269 0.00610011 0.0123723)
(0.00157937 0.00766421 0.0137217)
(0.00169921 0.00681806 0.0128783)
(0.00133361 0.00791229 0.0141567)
(9.09772e-05 0.00220113 0.00738571)
(0.000283209 0.00250734 0.00790045)
(0.000559278 0.00280728 0.00836793)
(0.000478226 0.00272538 0.00809103)
(0.000100345 0.00222412 0.0075173)
(0.000242509 0.00235481 0.00750076)
(-0.00486118 0.00952631 0.0245278)
(-0.00490754 0.00886352 0.0242274)
(-0.00427667 0.00834915 0.0235473)
(-0.0047921 0.00922149 0.023866)
(-0.00425192 0.00803226 0.0235518)
(-0.00510475 0.00910226 0.0248616)
(0.000110614 0.00120205 0.0166769)
(-0.000283769 0.00187053 0.0174686)
(-0.000616294 0.00246808 0.0168886)
(-3.28482e-05 0.00155168 0.0160547)
(-0.000520561 0.00227744 0.0179784)
(0.000368853 0.00953171 0.0265738)
(0.000569874 0.00880966 0.0251118)
(0.00128047 0.00983977 0.0272955)
(0.000406774 0.00939694 0.0264353)
(0.00101169 0.00916048 0.0265788)
(0.00166262 0.00928076 0.0262429)
(-0.00194217 0.00683856 0.0238629)
(-0.00152412 0.00701454 0.0239123)
(-0.00177921 0.00666116 0.022237)
(-0.00187853 0.00694381 0.0231512)
(-0.00132918 0.00782469 0.0231889)
(-0.00120259 0.00878021 0.0241269)
(0.00181682 0.0076669 0.0133123)
(0.00119552 0.00791642 0.0140144)
(0.00143386 0.00773513 0.0134316)
(0.00111187 0.00802377 0.0137428)
(0.00183314 0.00638067 0.011874)
(0.00192145 0.00775516 0.0127427)
(0.00162219 0.00793095 0.0133513)
(0.00185055 0.00750409 0.0128108)
(0.00208425 0.00808664 0.013464)
(0.000871731 0.00763311 0.0148747)
(0.00163889 0.00844036 0.0138574)
(0.00213987 0.00601041 0.011192)
(0.00235476 0.00571847 0.0116116)
(0.00291216 0.00603042 0.0110004)
(0.00267191 0.00662613 0.0115361)
(0.00211913 0.00684721 0.0123347)
(0.00278579 0.00545026 0.0105858)
(0.00352045 0.00482308 0.00951777)
(0.00276067 0.00394772 0.00934953)
(0.00327052 0.00497866 0.00989276)
(0.0028962 0.00454244 0.00955957)
(0.00355162 0.00415906 0.00960014)
(0.00315178 0.00361015 0.00894004)
(-0.00164111 0.00699055 0.0253635)
(-0.00147884 0.00758093 0.0259994)
(-0.00190082 0.00644879 0.0242272)
(-0.00197466 0.00763043 0.0258131)
(-0.00162488 0.00790721 0.0267005)
(-0.00194719 0.00727499 0.0261628)
(0.000795744 0.00982916 0.0279656)
(-0.0012471 0.00845178 0.0278931)
(-0.000305522 0.00897608 0.0266968)
(-0.000530568 0.00892763 0.0270614)
(0.000391766 0.00956795 0.0282268)
(-0.000720642 0.00885846 0.02469)
(-0.000794202 0.00884451 0.0259277)
(-0.00098475 0.00919665 0.0255488)
(-0.00053441 0.0095097 0.0262447)
(-0.000258194 0.00922703 0.0254055)
(-0.000823414 0.00804463 0.0238195)
(0.00100014 -0.00068711 0.017006)
(0.00070419 -0.00107771 0.0185999)
(-0.000359187 0.000948096 0.0201323)
(0.000557752 -0.000107975 0.0178189)
(-1.70779e-05 0.000607284 0.0181743)
(0.000125526 -0.00076265 0.0199773)
(-0.00173212 0.00775434 0.0260515)
(-0.00210436 0.00776538 0.0256981)
(-0.0018 0.00739727 0.0249047)
(-0.00152454 0.00739663 0.0245907)
(-0.00165742 0.00798131 0.0261087)
(-0.0017352 0.00783896 0.025816)
(-0.00151987 0.00725507 0.0249808)
(-0.00132309 0.00686636 0.024252)
(-0.00136575 0.00736452 0.0252115)
(-0.00213618 0.00736557 0.0247575)
(-0.00185687 0.0070029 0.0241012)
(-0.00189286 0.00712453 0.0245035)
(0.000526252 0.00815503 0.0246259)
(0.00069907 0.00795942 0.0243429)
(0.000883807 0.00822556 0.0252675)
(0.000728659 0.00786072 0.02505)
(0.00122975 0.00764919 0.0242315)
(0.000712001 0.00820196 0.0245196)
(0.001847 0.00610619 0.0224692)
(0.00219803 0.00703543 0.0243918)
(0.00117272 0.00712985 0.0244065)
(0.000847382 0.00649235 0.023476)
(0.00220984 0.00665626 0.0228985)
(0.000119985 0.00817312 0.025117)
(0.000756262 0.0078424 0.0239298)
(-2.02202e-05 0.00825991 0.0247757)
(-5.68833e-05 0.00847311 0.0251513)
(0.000301595 0.0082258 0.0248976)
(8.20175e-05 0.00830125 0.0244256)
(0.000235247 0.00765226 0.0235877)
(-0.000676373 0.00749415 0.0249527)
(-0.000280481 0.00764182 0.024346)
(-1.92088e-05 0.00721252 0.0239232)
(-1.19362e-05 0.00807988 0.0255021)
(-0.00148017 0.00574686 0.0213504)
(-0.00169766 0.00578888 0.021798)
(-0.00186964 0.00604871 0.0212226)
(-0.00181054 0.00660177 0.0229212)
(-0.00232764 0.0069566 0.0220662)
(-0.0021371 0.00655797 0.0220928)
(-0.000843512 0.00623309 0.0227308)
(-0.000948147 0.00674492 0.0234674)
(-0.00131321 0.00642857 0.0232102)
(-0.000192118 0.00619446 0.0233895)
(-0.00123905 0.00621505 0.0225434)
(-0.00109354 0.00581219 0.0219035)
(-0.00124895 0.00689849 0.0242202)
(-0.00115474 0.00709739 0.0238699)
(-0.000458607 0.00680396 0.023149)
(-0.000858166 0.0070389 0.0238653)
(-0.00108427 0.00672486 0.0237642)
(-0.00131579 0.00642546 0.0229945)
(0.00453004 0.00896245 0.0273417)
(0.00463885 0.0077914 0.024895)
(5.09986e-05 0.00178147 0.00646606)
(9.93147e-06 0.00197835 0.00706513)
(-9.43443e-05 0.00169466 0.00666656)
(-9.36368e-05 0.00201019 0.00711494)
(-0.000353369 0.0016838 0.00663548)
(-0.000298263 0.00180825 0.00693549)
(0.000806895 0.00319941 0.0087314)
(0.000882882 0.00352203 0.00908596)
(0.000421192 0.00240827 0.00758316)
(0.000568427 0.00278795 0.00826499)
(0.000326904 0.00251017 0.007819)
(0.000607354 0.00292747 0.00823213)
(0.0018094 0.00617589 0.0124702)
(0.00149434 0.00676875 0.0126424)
(0.00168703 0.00766313 0.0139749)
(0.00148622 0.00710163 0.0136194)
(0.00164016 0.00628183 0.0127646)
(0.00171923 0.00570472 0.0120343)
(0.000816128 0.0108894 0.0167383)
(0.000950705 0.00881423 0.0148805)
(0.00159684 0.00936634 0.0152358)
(0.00054557 0.00990558 0.0158499)
(0.00144471 0.00879899 0.0144821)
(0.000968512 0.0100795 0.0157914)
(-0.000184848 0.00199331 0.00799905)
(-5.70713e-05 0.00205332 0.00766509)
(-0.000114309 0.00208089 0.00794491)
(6.7873e-07 0.00204519 0.00757575)
(-0.000245054 0.00202954 0.00753091)
(-0.000173508 0.00196446 0.00773049)
(0.000497994 0.00287993 0.00896098)
(0.000600779 0.00263188 0.00869857)
(0.000883621 0.00321096 0.00916293)
(0.000814431 0.00333128 0.00957154)
(0.000705778 0.00301581 0.00906561)
(0.000549823 0.00267476 0.00861061)
(0.000769933 0.00373534 0.00993169)
(0.00109823 0.0045282 0.0106095)
(0.000786517 0.00347647 0.0094989)
(0.00117091 0.00454526 0.0106965)
(0.000831255 0.00392962 0.0103531)
(0.00125131 0.00495722 0.0111797)
(0.00187656 0.0115814 0.016557)
(0.00199864 0.00805119 0.0132005)
(0.00188518 0.00880426 0.0138665)
(0.00184395 0.010803 0.015598)
(0.00235109 0.010524 0.0148246)
(0.00234589 0.00907051 0.0142371)
(0.000259664 0.0122874 0.0183478)
(-0.000579565 0.015096 0.019072)
(-0.000248017 0.0142441 0.0180682)
(0.000312782 0.0122697 0.0172427)
(0.00125615 0.0120783 0.0162808)
(-0.0011917 0.0126213 0.0186089)
(0.00227439 0.0066866 0.0123989)
(0.00161848 0.00485161 0.010449)
(0.00207331 0.00607554 0.0116971)
(0.000359819 0.00226699 0.00787874)
(-2.93304e-05 0.00213519 0.00785214)
(0.000199534 0.00223942 0.0080992)
(4.24811e-05 0.00216326 0.00807718)
(1.40577e-05 0.00231216 0.00794628)
(-6.64339e-05 0.00204308 0.00843738)
(-0.000231399 0.00207408 0.008433)
(5.20146e-05 0.00202885 0.00778232)
(5.60245e-05 0.00208781 0.00781219)
(6.88419e-05 0.00207969 0.00817332)
(-5.64348e-05 0.00201974 0.00799424)
(-0.0019553 0.0130559 0.0185487)
(-0.00301058 0.0128673 0.0204671)
(-0.00226219 0.0132635 0.0200012)
(-0.00313204 0.0124385 0.0208015)
(-0.0020946 0.0141353 0.0189088)
(-0.00377352 0.012593 0.0230496)
(-0.00299692 0.0100344 0.0199126)
(-0.00231782 0.0107317 0.0184534)
(-0.00255419 0.0128909 0.0203549)
(-0.00283849 0.0120135 0.0205074)
(-0.00338764 0.0124016 0.0209548)
(-0.0040029 0.0103749 0.0211193)
(-0.000235043 0.00958918 0.0166015)
(0.000748946 0.0084302 0.0148457)
(0.000540795 0.00891257 0.0157527)
(-7.09332e-05 0.00880808 0.0150497)
(-0.000386752 0.00932542 0.0177916)
(0.000504984 0.00865099 0.0149345)
(-0.000239186 0.00968322 0.0167009)
(0.000463418 0.00868631 0.0157905)
(0.000937162 0.00881111 0.015201)
(-0.000425914 0.00888581 0.0161421)
(-0.000177748 0.009202 0.0161356)
(0.000395368 0.00876405 0.0160565)
(0.00113824 0.00653138 0.0129)
(0.00138797 0.0069062 0.0134016)
(0.000968004 0.00785098 0.0139165)
(0.00149806 0.00624992 0.0123589)
(0.00100916 0.00763654 0.0139968)
(0.00103031 0.00718295 0.0133205)
(-0.00311748 0.00876005 0.0201325)
(-0.00287415 0.00838888 0.02154)
(-0.00337824 0.00836007 0.0206795)
(-0.00291989 0.00745361 0.020561)
(-0.00340777 0.00860887 0.0214022)
(-0.00291759 0.00903772 0.020423)
(-0.0032948 0.0107824 0.0202417)
(-0.00305924 0.00978434 0.0209549)
(-0.00354416 0.00861175 0.0199425)
(-0.00392612 0.00972997 0.0211552)
(-0.00293421 0.010285 0.0212772)
(-0.00380209 0.00909449 0.0202527)
(-0.00110724 0.00564582 0.0151172)
(-0.00122021 0.00776983 0.015929)
(-0.00141725 0.00687459 0.0170631)
(-0.00129895 0.00659543 0.0175678)
(-0.00146951 0.00757626 0.0168971)
(0.00182393 0.00264044 0.019248)
(0.00161771 0.00296429 0.0193524)
(0.00095691 0.00333231 0.0194622)
(0.00109743 0.00323746 0.0192334)
(0.000377143 0.00331766 0.0184272)
(0.000468104 0.00347113 0.0193864)
(-0.000715768 0.00481116 0.0207298)
(9.32033e-05 0.00362231 0.0193545)
(-6.81445e-05 0.00463882 0.0217569)
(-0.000771116 0.00513919 0.0205989)
(-0.000147056 0.00405561 0.0203428)
(-0.00102232 0.00490394 0.020029)
(0.00145827 0.00484325 0.022419)
(0.000470177 0.00469319 0.0214295)
(0.000643642 0.00486078 0.0221078)
(0.000608739 0.00405281 0.0207475)
(0.00137227 0.00396781 0.0207084)
(0.00158575 0.0042291 0.0214056)
(5.61828e-05 0.00217745 0.0122572)
(0.000123785 0.00215807 0.0115564)
(0.000650791 0.00182611 0.0113078)
(0.000798885 0.00181446 0.0107678)
(0.000369021 0.0020236 0.0109075)
(0.000299447 0.00202713 0.011932)
(0.000863362 0.00189791 0.0101235)
(0.00104056 0.00190559 0.00960246)
(0.000907969 0.00190883 0.00962258)
(0.00087728 0.00204775 0.00933126)
(0.000856131 0.00196622 0.00982803)
(0.00104381 0.00206055 0.0093828)
(0.00180233 0.00277456 0.00852586)
(0.00132359 0.00247107 0.00836036)
(0.00172926 0.00301326 0.00870935)
(0.0014747 0.00290806 0.0090367)
(0.00154264 0.00257725 0.00859425)
(0.00196144 0.00135675 0.00898766)
(0.00217309 0.00174657 0.00836413)
(0.00229539 0.00145359 0.00841655)
(0.00226201 0.00129603 0.0089683)
(0.00179999 0.00168594 0.00869218)
(0.00196896 0.00177745 0.00844064)
(-4.25133e-05 0.00665334 0.0136991)
(4.1283e-05 0.00668961 0.0139872)
(-0.000194735 0.00842914 0.015616)
(-0.0005002 0.00683058 0.0159193)
(3.33197e-05 0.00764567 0.0145774)
(-0.00233566 0.00666946 0.020508)
(-0.00241487 0.00703778 0.0214559)
(-0.00256125 0.00783842 0.0202831)
(-0.00262836 0.00716946 0.0207056)
(-0.00269496 0.00803275 0.0212718)
(-0.00235798 0.00747256 0.0211197)
(-0.00160184 0.00608166 0.0204367)
(-0.00204089 0.00627535 0.0207025)
(-0.00212447 0.00705876 0.0211563)
(-0.00173007 0.00638973 0.0215184)
(-0.00211429 0.00634814 0.0198174)
(-0.00149402 0.00578273 0.0210441)
(-8.70799e-05 0.00539308 0.0220436)
(-0.000333157 0.00548996 0.0221219)
(-0.000426636 0.00518195 0.0211555)
(-0.00102087 0.0060171 0.0222602)
(-0.000837315 0.00537533 0.0214198)
(-0.000115237 0.00564997 0.0227179)
(-0.0021845 0.00322506 0.0102197)
(-0.00115171 0.00228931 0.00864997)
(-0.00137873 0.00226039 0.00840538)
(-0.00114185 0.00210674 0.00863526)
(-0.0018769 0.00279181 0.00921847)
(-0.00188817 0.00300698 0.0105237)
(-0.0003483 0.00191977 0.00831912)
(-0.00067302 0.00207463 0.00883525)
(-0.000702693 0.00181193 0.00756451)
(-0.000619579 0.00188553 0.0076118)
(-0.000446033 0.00190629 0.00779146)
(-0.00116574 0.0022442 0.00897572)
(-0.000377952 0.0017464 0.00693446)
(-0.000648701 0.0018077 0.00740683)
(-0.000299312 0.00170303 0.00726613)
(-0.000449169 0.00169387 0.00706146)
(-0.000547508 0.00166742 0.00699406)
(-0.000663572 0.00176044 0.00749807)
(-0.00164013 0.00683271 0.0194005)
(-0.00198392 0.00719366 0.0194382)
(-0.00200446 0.0078132 0.0204438)
(-0.00659046 0.00956729 0.0288169)
(-0.00631509 0.00868754 0.0280673)
(-0.00327034 0.00488184 0.0125168)
(-0.00370267 0.00614288 0.0131112)
(-0.0042268 0.00733979 0.0149887)
(-0.00277837 0.00466499 0.0117779)
(-0.00405022 0.00773087 0.0145506)
(-0.00362414 0.00629639 0.0139202)
(-0.00280601 0.0133479 0.0218574)
(-0.00232732 0.0125536 0.0218561)
(-0.00292655 0.013832 0.0211703)
(-0.00259102 0.011368 0.0191775)
(-0.00177082 0.00742631 0.0199146)
(-0.00130205 0.0102469 0.0222994)
(-0.00195948 0.00963795 0.0207898)
(-0.00178887 0.0100579 0.0210398)
(-0.00205568 0.0102477 0.0235266)
(-0.00110789 0.008308 0.0253221)
(-0.000840849 0.00874879 0.0249611)
(-0.000692867 0.00849794 0.0249061)
(-0.000826285 0.0080595 0.0245052)
(-0.000946938 0.00872495 0.025374)
(-0.0010351 0.0086725 0.024605)
(-0.000405515 0.00842328 0.023527)
(-0.000794305 0.00844468 0.0234677)
(-0.000715237 0.00892105 0.0237632)
(-0.000908366 0.00840074 0.0230861)
(-0.000351634 0.00902898 0.0246565)
(-0.000470574 0.00936159 0.0249324)
(-0.00124403 0.00870589 0.0213083)
(-0.00110584 0.00891815 0.0228227)
(-0.000956899 0.00945831 0.0225279)
(-0.00136698 0.00906092 0.0229816)
(-0.000810058 0.00974774 0.0232802)
(-0.000964632 0.00921246 0.0232726)
(-0.00232488 0.0081652 0.0184577)
(-0.0024972 0.00736652 0.0202108)
(-0.00268318 0.00906686 0.0202452)
(-0.0016339 0.00598965 0.0172289)
(-0.00207958 0.00786282 0.0186402)
(-0.00160999 0.0124148 0.0241605)
(-0.00217937 0.0125032 0.0256878)
(-0.00146722 0.0112465 0.0258123)
(-0.00096336 0.0111751 0.0233398)
(-0.00135813 0.0112573 0.0226925)
(-0.00154532 0.011829 0.025105)
(-0.00102421 0.0100923 0.0277302)
(-0.00185694 0.00931718 0.0282483)
(-0.000772774 0.0107747 0.0277596)
(-0.00119485 0.00919023 0.0268173)
(-0.00157318 0.00968162 0.028233)
(-0.00144433 0.0106851 0.0290843)
(-0.00261232 0.0103973 0.0209393)
(-0.00245378 0.00978048 0.0219401)
(-0.00268575 0.0109092 0.021922)
(-0.00226651 0.00981747 0.0222597)
(-0.00188734 0.00967472 0.0221743)
(-0.0021997 0.0108194 0.0204856)
(-0.00235265 0.00652804 0.0169849)
(-0.0030202 0.0085244 0.0173517)
(-0.00270867 0.00825455 0.0213262)
(-0.00238588 0.00805319 0.0169168)
(-0.00339661 0.00850933 0.0212899)
(-0.00263495 0.00794557 0.0174071)
(-0.00331731 0.00888305 0.0177138)
(-0.0036112 0.00763302 0.0157825)
(-0.00346242 0.00638668 0.0145941)
(-0.00382797 0.00685117 0.0144526)
(-0.00275547 0.00506297 0.0131385)
(-0.00362871 0.0074983 0.0158538)
(-0.00299551 0.00660401 0.0149142)
(-0.0031627 0.00815892 0.0166811)
(-0.00310686 0.00681731 0.0153132)
(-0.00291426 0.00766037 0.0172438)
(-0.00338464 0.00807253 0.0164265)
(-0.00328093 0.00821225 0.0285058)
(-0.00245799 0.00768605 0.0272839)
(-0.00344537 0.00790409 0.027928)
(-0.00371539 0.00805854 0.0282023)
(-0.00285285 0.00834496 0.0289911)
(-0.00388255 0.00855563 0.0293142)
(-0.00323819 0.00889337 0.0303036)
(-0.00523364 0.00905762 0.0245366)
(-0.00533563 0.00851483 0.0251098)
(-0.00516123 0.00924638 0.0261397)
(-0.00490054 0.00855048 0.0262152)
(-0.00528907 0.00904672 0.0256156)
(-0.00466191 0.00834993 0.0253872)
(-0.00304872 0.00738507 0.024914)
(-0.00309696 0.00759631 0.0259497)
(-0.00270725 0.00728182 0.0239616)
(-0.00305435 0.00759812 0.0254605)
(-0.00266841 0.00731865 0.025372)
(-0.00274502 0.00766112 0.026012)
(-0.000989577 0.00935577 0.0256141)
(-0.000445651 0.00970236 0.0258379)
(-0.00113805 0.00923031 0.0268539)
(-0.000959144 0.00882997 0.0251964)
(-0.00056215 0.00916735 0.025724)
(-0.000954655 0.00969732 0.0264414)
(-0.000826385 0.00772135 0.0246964)
(-0.00139847 0.00838739 0.0263649)
(-0.000893481 0.00850938 0.0261213)
(-0.00139934 0.00816353 0.0262932)
(-0.00131274 0.00854664 0.0265578)
(-0.000954825 0.00814669 0.0248888)
(-0.000587981 0.00261338 0.0141424)
(-0.000983069 0.00320133 0.0154966)
(-6.11192e-05 0.00193398 0.0136232)
(-0.000350291 0.00232465 0.0135817)
(-0.000577962 0.0026099 0.0153506)
(-0.000153257 0.00197021 0.0144355)
(0.000104163 0.00210139 0.0100139)
(8.53154e-05 0.00218253 0.0111832)
(0.000339647 0.0019786 0.00990346)
(-3.65798e-05 0.00221679 0.0112843)
(4.28475e-05 0.00211726 0.0103911)
(0.000180918 0.00218579 0.0107015)
(-0.000811904 0.00298186 0.0114168)
(-0.000333349 0.00251072 0.0111577)
(-0.00107129 0.00311547 0.0115374)
(-0.000606267 0.00287427 0.0118247)
(-0.00110224 0.00338725 0.0130784)
(-0.00124433 0.0033224 0.0133996)
(-0.00636088 0.00954896 0.0272165)
(-0.00630114 0.00967998 0.0250702)
(-0.00686512 0.0106611 0.0265469)
(-0.00615457 0.00913842 0.0257007)
(-0.0060811 0.00946395 0.0252266)
(-0.0067288 0.00983457 0.0264095)
(-0.00527636 0.0105688 0.0250493)
(-0.00588999 0.0117609 0.0243203)
(-0.0056931 0.0101031 0.0252662)
(-0.00531979 0.00947321 0.0242525)
(-0.00551292 0.0112935 0.0247858)
(-0.00554509 0.00963224 0.0234794)
(-0.000823915 0.0099888 0.0174569)
(-0.0011655 0.00965573 0.0177923)
(0.00166577 0.00473098 0.0106355)
(0.00142743 0.00425774 0.0100929)
(0.00146868 0.00554541 0.0117717)
(0.00155827 0.00529355 0.0113895)
(0.00133595 0.00456725 0.0108848)
(0.00161174 0.00521519 0.0112773)
(0.00059386 0.00230322 0.0081836)
(0.000610705 0.00261467 0.00855121)
(0.000718749 0.00243994 0.00856012)
(0.000806637 0.00251358 0.00847336)
(0.000880611 0.00268048 0.00855396)
(0.00164176 0.00416387 0.0104439)
(0.0018964 0.00395102 0.00967567)
(0.00135867 0.00321522 0.00936484)
(0.00158126 0.00349802 0.00953102)
(0.00154791 0.00379568 0.0100596)
(0.00127502 0.0034205 0.0101295)
(5.09306e-05 0.00954688 0.0161647)
(0.000555514 0.00901188 0.0148822)
(0.0013219 0.00895509 0.0148301)
(0.00130466 0.00938756 0.0157597)
(0.000821806 0.00977335 0.0155818)
(0.00137875 0.00943229 0.0149761)
(-0.000666181 0.0101228 0.0170559)
(-0.00118559 0.0118142 0.0190255)
(-0.00118753 0.0121727 0.0190938)
(-0.000382854 0.0116216 0.0170873)
(-0.00072447 0.0104692 0.0171294)
(-0.000960928 0.0113871 0.0178131)
(-0.000738441 0.0109078 0.0188466)
(-0.000371963 0.010805 0.0167308)
(0.000963767 0.00907562 0.0147244)
(-0.000195083 0.00994886 0.0162212)
(0.000441587 0.0106669 0.017025)
(7.3802e-05 0.0100113 0.0169388)
(0.000898944 0.0102641 0.0155814)
(0.00133583 0.00310806 0.00937849)
(0.00135245 0.00398737 0.0104305)
(0.00180398 0.00465953 0.010389)
(0.000663881 0.00274267 0.0089473)
(0.00151109 0.00486211 0.0111443)
(0.00144851 0.00444647 0.0107064)
(0.00150538 0.00482842 0.0111102)
(0.00137922 0.00440734 0.0104807)
(0.0016743 0.00555732 0.011785)
(0.00176182 0.00585638 0.0121244)
(0.00106314 0.00369269 0.00971922)
(0.000971676 0.0035198 0.00953967)
(0.000763839 0.00306885 0.00915505)
(0.000877856 0.00287723 0.00881533)
(-0.000485037 0.00936539 0.0169589)
(-0.00102577 0.00864195 0.016795)
(-0.00208689 0.00868687 0.018532)
(-0.00150543 0.00888105 0.0188381)
(-0.00205419 0.00791371 0.0184651)
(-0.00212713 0.00878478 0.0194477)
(-0.00201737 0.00772777 0.0195163)
(-0.00201364 0.0074184 0.0178806)
(-0.00181381 0.00748302 0.0186247)
(-0.00444165 0.0147105 0.0219019)
(-0.00349202 0.0114878 0.0190982)
(-0.00398107 0.0148255 0.0216663)
(-0.00483729 0.0134082 0.0218413)
(-0.00546162 0.0139811 0.0248655)
(-0.00530249 0.0141057 0.0225927)
(-0.00536251 0.0136244 0.0231768)
(-0.00609567 0.0136284 0.0235531)
(-0.00492646 0.0130865 0.0217091)
(-0.00574719 0.0151007 0.0211301)
(-0.00585501 0.0124966 0.0239794)
(-0.00575785 0.009976 0.0247391)
(-0.00540477 0.00893059 0.0242256)
(-0.0059528 0.0134556 0.023179)
(-0.00562907 0.0125136 0.0226648)
(-0.00399485 0.0117423 0.0205425)
(-0.00496659 0.0100161 0.0217661)
(-0.00550306 0.011418 0.0225325)
(-0.00401917 0.0107318 0.0221088)
(-0.00386368 0.0115243 0.0196298)
(5.49325e-06 0.00215131 0.0104562)
(-0.00108948 0.00925894 0.026755)
(-0.00232708 0.00772741 0.0265186)
(-0.00218409 0.00771361 0.0259771)
(-0.00195185 0.00738685 0.0250157)
(-0.00275885 0.00808041 0.027421)
(-0.00190405 0.00836841 0.027227)
(-0.00248199 0.00794708 0.0264093)
(-0.00183027 0.00857014 0.0267235)
(-0.001288 0.0081758 0.0256437)
(-0.00118935 0.00778749 0.025046)
(-0.000644604 0.00809518 0.025707)
(-0.00148147 0.00834309 0.0275186)
(-0.00371019 0.00774422 0.0262638)
(-0.00360101 0.00828775 0.0277244)
(-0.00302874 0.00752643 0.0259621)
(-0.00305936 0.00764166 0.0270353)
(-0.00314595 0.00790207 0.0269116)
(-0.00298143 0.00817893 0.0275193)
(-0.00309593 0.00742372 0.0259878)
(-0.0023341 0.00782594 0.0264377)
(-0.00233948 0.00490528 0.0136864)
(-0.00179906 0.00376514 0.0123402)
(-0.00204716 0.00402043 0.0115283)
(-0.000909244 0.00239589 0.00964686)
(-0.00111202 0.0028364 0.0105661)
(-0.00143832 0.00337276 0.0114172)
(-0.00147507 0.00315734 0.0104495)
(-0.00114281 0.00271481 0.00999075)
(-0.00246736 0.00483466 0.0138784)
(-0.00267528 0.00562442 0.0143922)
(-0.00339509 0.00733074 0.0170601)
(-0.00269375 0.00638518 0.0157725)
(-0.00242764 0.00593113 0.0149719)
(-0.0026673 0.00559768 0.0154018)
(-0.00293054 0.00685743 0.0175464)
(-0.00218868 0.00844058 0.0168641)
(-0.00232746 0.0078077 0.0170781)
(-0.00223419 0.00795487 0.018278)
(-0.00215198 0.00951531 0.0177458)
(-0.00287639 0.0114209 0.0196978)
(-0.00211308 0.0115693 0.0203712)
(-0.000621713 0.00934495 0.0259546)
(-0.00121573 0.00956711 0.0268214)
(-0.00126576 0.00974045 0.0261253)
(-0.00129726 0.00816091 0.0261097)
(-0.00135102 0.00877583 0.0266326)
(-0.000886211 0.00833982 0.0248898)
(-0.000291646 0.00868385 0.0252894)
(-0.000252013 0.00867516 0.024223)
(-0.000831673 0.00960303 0.0246551)
(-0.000895988 0.0086372 0.0247479)
(-0.000951057 0.00924374 0.0250045)
(-0.000751893 0.00868236 0.0242322)
(-0.000653485 0.00914698 0.0239335)
(-0.00066297 0.00916792 0.0243043)
(-0.000797436 0.00856613 0.0241253)
(-0.000969546 0.00939975 0.0243126)
(-0.000969057 0.00911465 0.0233979)
(-0.000661502 0.00989869 0.0245587)
(-0.000662296 0.00919714 0.0237935)
(-0.000806801 0.00966379 0.0257878)
(-0.000882817 0.0092012 0.0240599)
(-0.000976527 0.00934762 0.0239728)
(-0.000701788 0.0105439 0.0250518)
(-0.00080441 0.0100127 0.0247177)
(-0.00146824 0.0097259 0.0241621)
(-0.00148277 0.00968313 0.0236099)
(-0.00169988 0.0109659 0.0242009)
(-0.00131293 0.00954705 0.0235304)
(-0.00164683 0.00941677 0.0229805)
(-0.00125264 0.011203 0.02281)
(-0.00151186 0.0112627 0.0240929)
(-0.00117278 0.0100657 0.0244867)
(-0.00131115 0.00986401 0.0233154)
(-0.00113468 0.0103763 0.0230472)
(-0.00125034 0.0105949 0.0233826)
(-0.00160762 0.00896928 0.0228652)
(-0.0019692 0.0115376 0.0213906)
(-0.00221878 0.00942324 0.0233722)
(-0.00165445 0.00869175 0.021464)
(-0.0013471 0.00925321 0.0211885)
(-0.00283238 0.00807833 0.0201164)
(-0.00191673 0.00770114 0.019945)
(-0.00168866 0.00851236 0.0219446)
(-0.00173942 0.00838206 0.021346)
(-0.00182985 0.00781911 0.0216523)
(-0.0019851 0.0070232 0.0215018)
(-0.00187661 0.00696978 0.0215947)
(-0.0013493 0.00785567 0.0217399)
(-0.00115788 0.00877568 0.0219361)
(-0.00125698 0.00882976 0.0234387)
(-0.00105269 0.00898704 0.0227076)
(-0.000999282 0.00925819 0.0223041)
(-0.000776301 0.00937643 0.0237812)
(-0.00107194 0.00841482 0.0230377)
(-0.000977346 0.00973082 0.0244566)
(-0.00136236 0.00881634 0.0235555)
(-0.00171572 0.00854175 0.0225122)
(-0.0016743 0.00889439 0.0226957)
(-0.00160676 0.00850399 0.0229372)
(-0.00134708 0.00816429 0.0228454)
(-0.0016826 0.00834569 0.0232582)
(-0.00171355 0.0120428 0.02377)
(-0.00132965 0.0116551 0.0264501)
(-0.00123342 0.0128747 0.0254688)
(-0.00152203 0.0120562 0.0260213)
(-0.00344984 0.0109165 0.0184731)
(-0.00306583 0.00898893 0.0185347)
(-0.00438403 0.0127997 0.019564)
(-0.00357921 0.00863497 0.0166746)
(-0.0042138 0.0125136 0.0195444)
(-0.00397734 0.0113 0.022206)
(-0.00280427 0.0111202 0.0206291)
(-0.00279946 0.0132571 0.0232406)
(-0.00267175 0.0131684 0.0246247)
(-0.00195459 0.0114551 0.0233477)
(-0.00385892 0.0110169 0.019528)
(-0.00269486 0.0109506 0.0234858)
(-0.00173507 0.0104746 0.0239158)
(-0.00179287 0.0106485 0.0227077)
(-0.00160198 0.0115059 0.0223243)
(-0.00177133 0.0120754 0.0225364)
(-0.00161633 0.0112021 0.0225061)
(-0.00162181 0.0108519 0.0214124)
(-0.00176651 0.00340037 0.0109822)
(-0.00222053 0.00387606 0.0116042)
(-0.00260579 0.00439233 0.0121694)
(-0.00155915 0.0030001 0.0102424)
(-0.00425807 0.00921557 0.0178141)
(-0.00431586 0.00881173 0.0164514)
(-0.00474504 0.0108888 0.0179234)
(-0.0042834 0.0116946 0.0188259)
(-0.00414734 0.00989969 0.0168378)
(-0.00529565 0.0122351 0.018764)
(-0.00430513 0.0108085 0.0202804)
(-0.00101262 0.0100835 0.0296033)
(-0.00111572 0.0131476 0.0236721)
(-0.00161924 0.0132634 0.0241239)
(-0.00107806 0.013379 0.0258247)
(-0.000923985 0.0138955 0.0251848)
(-0.0011049 0.0121981 0.027248)
(-0.000898474 0.0120381 0.0268326)
(-0.00139345 0.0118907 0.0264485)
(-0.000888825 0.0118195 0.0279473)
(-0.00135854 0.010365 0.0292559)
(-0.00491806 0.00844978 0.0291058)
(-0.00402879 0.00813982 0.0288938)
(-0.00369493 0.00848433 0.0299877)
(-0.00534932 0.00819306 0.0291346)
(-0.00186214 0.00519693 0.0165895)
(-0.00177734 0.00514354 0.0158467)
(-0.00185471 0.0048397 0.0169058)
(-0.00189577 0.0073346 0.0206913)
(-0.00185053 0.00570497 0.0198852)
(-0.0018034 0.00568339 0.0178778)
(-0.00168726 0.00505526 0.0181246)
(-0.00228903 0.00591183 0.0182375)
(-0.00147974 0.00534024 0.0193628)
(-0.00160511 0.00676716 0.0197703)
(-0.00126325 0.00404374 0.0171512)
(-0.00150548 0.00406875 0.01741)
(-0.00155747 0.00431484 0.0173138)
(-0.000746269 0.0121136 0.0286241)
(-0.00088446 0.0104025 0.0276727)
(-0.00113855 0.0112123 0.0280709)
(-0.000821005 0.0112741 0.0265644)
(-0.00116543 0.0104684 0.027402)
(-0.000875124 0.0100945 0.0274695)
(-0.00109755 0.00953493 0.0286972)
(-0.00114379 0.00931145 0.0288467)
(-0.00119087 0.00965068 0.0282942)
(-0.00102251 0.00939743 0.0273686)
(-0.00273618 0.00401329 0.0112755)
(-0.000754389 0.001897 0.00778125)
(-0.00110658 0.00193603 0.00774474)
(-0.0028007 0.00432179 0.0116272)
(-0.0018329 0.00325638 0.0107808)
(-0.00244463 0.00390695 0.011684)
(-0.0023005 0.00341174 0.0105234)
(-0.000892026 0.00221842 0.00893892)
(-0.00133183 0.00254685 0.00928851)
(0.000564041 0.00537024 0.022629)
(-0.00176445 0.00638737 0.0193902)
(-0.000906248 0.00543797 0.0212175)
(-0.00231639 0.00748032 0.0194685)
(-0.00173289 0.00645013 0.0193668)
(-0.00316258 0.00758665 0.0227902)
(-0.00347558 0.00820269 0.0230426)
(-0.00222914 0.00780809 0.0203353)
(-0.00247883 0.00835298 0.0199884)
(-0.00238186 0.00725569 0.0201838)
(-0.00237759 0.00868511 0.0206602)
(0.000209659 0.00845084 0.0157613)
(-0.000294626 0.0085713 0.0157516)
(2.43439e-05 0.00870298 0.0149532)
(0.00042452 0.00214444 0.00846004)
(0.000298385 0.00222006 0.00794936)
(0.000559387 0.00222178 0.00840492)
(0.000706731 0.00223876 0.00843148)
(0.000504353 0.00232762 0.00822775)
(0.000752403 0.0087177 0.0153659)
(0.00119683 0.00774423 0.0143487)
(0.00106037 0.00787066 0.0142762)
(0.00165212 0.00570697 0.0117945)
(0.00165987 0.00708916 0.0134951)
(0.00172233 0.00671419 0.012928)
(0.00180235 0.00607968 0.0123283)
(0.000831576 0.00238378 0.00885484)
(0.000666024 0.0021233 0.00849506)
(0.000657299 0.00216462 0.00830503)
(0.00187647 0.00521973 0.0111819)
(0.00198622 0.00486506 0.0107909)
(0.00201851 0.00437241 0.0102919)
(0.000134694 0.00798284 0.0150115)
(-0.000572116 0.00669452 0.0162468)
(0.00113395 0.00775836 0.0136671)
(0.00101281 0.00762096 0.0142171)
(0.00317711 -0.00104094 0.0121553)
(0.00137273 0.00291092 0.00925288)
(0.00128673 0.00240131 0.00855102)
(0.00113393 0.00240776 0.00873486)
(0.000883063 0.00236731 0.008608)
(0.00116218 0.00265823 0.00920012)
(0.00106006 0.0028684 0.00907427)
(0.00120719 0.00270917 0.00897711)