/*--------------------------------*- C++ -*----------------------------------*\
| =========                 |                                                 |
| \\      /  F ield         | OpenFOAM: The Open Source CFD Toolbox           |
|  \\    /   O peration     | Version:  v1612+                                |
|   \\  /    A nd           | Web:      www.OpenFOAM.com                      |
|    \\/     M anipulation  |                                                 |
\*---------------------------------------------------------------------------*/
FoamFile
{
    version     2.0;
    format      ascii;
    class       surfaceScalarField;
    location    "100";
    object      phi;
}
// * * * * * * * * * * * * * * * * * * * * * * * * * * * * * * * * * * * * * //

dimensions      [0 3 -1 0 0 0 0];

internalField   nonuniform List<scalar> 
46013
(
-2.55487e-09
-2.13587e-09
6.38659e-09
-1.69586e-09
-3.98777e-09
1.55977e-09
1.43295e-09
9.95001e-10
-5.67162e-09
3.85235e-09
4.06179e-09
-2.24252e-09
-6.25182e-09
4.92952e-09
4.15964e-09
-2.83733e-09
5.03212e-09
-3.17511e-09
-2.42171e-09
5.64702e-10
-7.84811e-10
4.17575e-09
-3.55833e-09
1.67411e-10
3.52931e-10
-2.35887e-09
9.969e-10
1.00939e-09
-7.86614e-09
-5.11366e-09
4.79477e-09
8.18502e-09
-2.96697e-09
5.19971e-09
1.26534e-09
-3.49805e-09
-2.75636e-09
3.27289e-09
7.4598e-10
-1.26251e-09
-6.175e-09
6.77519e-09
5.16321e-09
-5.76337e-09
-4.79449e-09
7.10916e-09
4.9303e-10
-2.80769e-09
6.51115e-09
5.7453e-09
-8.44562e-09
-3.81082e-09
-2.30745e-09
6.43199e-09
2.38662e-09
5.20773e-09
-3.28824e-10
-8.10498e-09
3.22611e-09
4.61829e-09
-3.90064e-09
-4.65375e-09
3.93609e-09
2.62578e-09
-5.66588e-09
3.39102e-09
-3.50923e-10
-1.99414e-09
1.21169e-09
-2.58243e-09
3.36489e-09
8.82283e-09
2.9738e-10
1.49233e-09
-1.06125e-08
8.77577e-09
1.02928e-08
-1.02457e-08
-5.60394e-09
6.26461e-12
5.5805e-09
1.71757e-11
-8.72054e-09
3.61072e-09
1.0597e-09
4.05012e-09
7.30133e-09
-1.15217e-08
-1.75715e-09
5.97754e-09
1.88897e-09
2.56428e-09
-3.95445e-09
-4.98769e-10
4.37673e-09
7.54581e-10
-5.28519e-09
1.53905e-10
1.31389e-09
1.82989e-09
-2.89771e-09
-2.46113e-10
-2.99188e-09
-2.00105e-09
1.87385e-09
3.11921e-09
-6.49055e-09
7.26901e-09
-4.53956e-09
3.76111e-09
8.46597e-09
-2.57399e-09
-5.0073e-09
-8.84644e-10
-1.55419e-09
-1.48692e-09
2.84783e-10
3.37044e-09
1.86157e-09
-2.62356e-10
-4.96965e-09
-1.81801e-09
-4.92284e-09
2.90822e-09
3.83265e-09
-2.63839e-09
1.07685e-09
4.90219e-09
-3.34063e-09
-1.19778e-09
-2.69775e-09
3.7351e-09
1.60431e-10
2.95918e-09
6.75265e-10
-3.7553e-09
1.20849e-10
7.12255e-10
1.37346e-09
1.81203e-09
-3.89761e-09
-4.32494e-09
-1.02665e-09
5.65111e-10
4.78648e-09
-5.21426e-09
-2.79537e-09
-3.78378e-10
8.388e-09
5.33683e-09
-6.54434e-09
1.29728e-09
-8.97754e-11
-2.92196e-09
-5.96203e-09
6.32913e-09
3.84203e-10
-2.23302e-09
-2.73941e-09
-2.29612e-09
1.11597e-09
1.37471e-09
-1.94629e-10
-1.91289e-09
4.13986e-09
-2.18419e-09
-4.27958e-11
7.5146e-10
7.69288e-10
1.03239e-09
-2.55289e-09
2.94177e-09
-4.32937e-09
9.60158e-09
-8.21395e-09
9.64388e-10
-3.13309e-09
-3.90384e-09
6.07257e-09
-4.53822e-09
4.50872e-09
-3.61231e-10
3.90737e-10
1.28851e-09
-7.46658e-09
-1.38745e-09
7.56555e-09
-8.32655e-10
8.50324e-09
-1.72655e-09
-5.94404e-09
-5.52489e-09
-6.2449e-09
1.1507e-08
2.62825e-10
1.8089e-09
-2.3254e-09
-1.60765e-09
2.12418e-09
2.48157e-09
-1.24253e-10
2.21518e-09
-4.57248e-09
-8.53459e-10
5.86461e-09
-2.11964e-09
-2.8915e-09
-2.6553e-09
-3.89062e-10
2.84168e-09
2.0271e-10
8.09535e-10
1.02695e-09
2.67263e-09
-4.50909e-09
-2.94801e-09
1.27848e-09
-9.68844e-10
-4.59654e-09
-5.83881e-09
5.71252e-09
4.72284e-09
-4.44472e-09
-1.90314e-09
3.80402e-09
2.54383e-09
-1.29688e-10
-1.78648e-09
-4.86818e-09
6.78443e-09
-1.994e-10
-1.85875e-09
3.27317e-09
-1.215e-09
-5.43124e-09
8.6526e-09
-3.42076e-09
5.46241e-09
-1.14696e-09
-1.5293e-09
-2.78623e-09
8.1395e-09
2.76082e-09
-3.90834e-09
-6.99199e-09
-1.99237e-10
2.74306e-09
-7.75809e-09
-4.38555e-09
-3.01362e-09
3.83483e-09
3.56434e-09
-7.55597e-10
-1.40687e-09
2.3015e-09
-1.39051e-10
-5.96367e-09
2.99605e-10
3.97411e-09
1.68987e-09
4.44292e-09
1.76091e-09
-5.57063e-10
-5.64676e-09
-4.79113e-09
7.17519e-09
-2.20977e-09
-1.74288e-10
-1.07323e-09
-2.18985e-09
3.04951e-09
2.13572e-10
-1.8799e-09
-1.34155e-09
3.30248e-09
-8.10626e-11
4.2389e-09
-2.04531e-09
4.69947e-09
5.01878e-09
-4.58903e-09
3.80279e-09
-4.23253e-09
3.49012e-09
-2.87817e-09
-4.53459e-10
-1.58397e-10
6.18835e-09
2.95795e-10
-6.32263e-09
-1.61516e-10
-3.53731e-09
2.22798e-09
7.37157e-09
-6.06224e-09
2.24608e-09
-2.87291e-09
4.11696e-09
5.6746e-09
2.45897e-10
-3.26902e-09
-2.65145e-09
3.90238e-09
-2.84078e-09
5.12096e-09
-6.18257e-09
1.63924e-09
-9.33558e-09
4.35738e-09
3.33899e-09
4.26365e-09
-4.20557e-09
-5.45457e-09
5.3965e-09
-3.6372e-09
2.97032e-09
-2.24176e-09
1.49231e-09
1.2068e-09
-2.42311e-09
-2.76013e-10
5.16166e-09
-4.4991e-09
-6.44006e-10
-1.855e-11
-2.59074e-09
5.5196e-09
-1.08225e-09
-1.84659e-09
-1.10483e-09
-5.98474e-09
6.87867e-09
2.10898e-10
-2.74861e-09
-2.85083e-09
7.32198e-09
-1.72255e-09
2.19771e-09
6.47001e-09
-5.56379e-09
-3.10392e-09
-3.11714e-09
8.22354e-09
-5.5612e-09
4.54838e-10
6.37087e-09
8.59324e-10
-6.29716e-09
-9.33023e-10
4.91302e-09
-2.3511e-09
-1.0423e-09
-1.51968e-09
7.77243e-10
1.24912e-09
-1.7405e-09
-2.85907e-10
-5.75711e-09
-9.39848e-09
5.72738e-09
9.42825e-09
4.95632e-09
-5.1779e-09
1.18907e-09
-9.67459e-10
3.07026e-09
3.85695e-09
-9.51262e-09
2.58541e-09
-2.96115e-09
-2.04473e-09
5.11419e-09
-1.08334e-10
1.14467e-09
-3.92381e-09
-1.81984e-10
-4.68868e-10
2.40239e-10
-6.97222e-09
7.20083e-09
3.80001e-09
3.98722e-09
-8.36624e-09
5.79101e-10
-5.42753e-09
-1.42708e-09
3.16906e-09
3.68559e-09
2.8654e-09
-5.51434e-09
5.09592e-09
-2.44696e-09
1.44707e-09
-3.14247e-09
1.52808e-09
1.67316e-10
-1.52444e-08
6.42763e-09
3.68265e-09
5.13418e-09
4.6703e-09
-3.53242e-09
-1.96208e-09
8.24127e-10
8.84007e-10
6.74403e-09
-4.70433e-09
-2.9238e-09
3.0141e-09
-6.047e-09
-2.52132e-09
5.55422e-09
8.13766e-09
2.36183e-09
-6.35565e-09
-4.14383e-09
4.35254e-09
-2.53545e-09
-4.04922e-09
2.23215e-09
2.8373e-09
4.4489e-10
-3.12881e-09
-1.53352e-10
5.37991e-09
2.75462e-09
-3.18339e-09
-4.95114e-09
-3.74728e-10
2.09886e-09
-5.85835e-09
4.13423e-09
-6.34885e-09
6.36029e-09
9.40106e-10
-9.51538e-10
4.43162e-09
5.82819e-10
-1.21832e-09
-3.79611e-09
-1.6711e-09
1.38753e-09
4.62403e-10
-1.78806e-10
1.46388e-09
-3.40625e-09
1.73498e-09
2.07399e-10
5.45172e-09
-3.88569e-09
-2.94535e-09
1.37932e-09
2.36167e-09
-2.03025e-09
-1.82396e-09
1.49248e-09
-5.61924e-09
9.27556e-10
4.70456e-09
-1.28608e-11
-7.47542e-10
-4.80107e-09
5.3438e-09
2.04822e-10
5.42093e-09
1.26955e-09
-1.73412e-09
-5.62685e-09
3.05391e-09
-2.07763e-09
4.65057e-09
-2.74047e-10
-1.76053e-09
2.64862e-09
-6.1413e-10
-3.37979e-09
2.45144e-09
-7.95004e-10
1.72328e-09
7.70788e-10
-6.33941e-09
1.96361e-09
3.60499e-09
8.90642e-10
8.93539e-09
-1.94908e-09
1.42556e-09
-2.11093e-09
2.63444e-09
3.19247e-10
-2.65429e-09
2.48975e-09
-1.54741e-10
9.39731e-09
-7.02647e-09
-5.18748e-09
2.81664e-09
2.52762e-09
-1.46794e-09
-3.40468e-09
2.34494e-09
7.44126e-09
-4.9247e-09
8.53882e-10
1.0774e-09
-2.31395e-09
3.61063e-09
-2.37414e-09
-6.51144e-09
1.19867e-09
6.10643e-09
-7.93613e-10
-2.93055e-09
5.14215e-09
-1.04469e-08
8.23535e-09
-2.37155e-10
-6.00031e-09
3.05321e-09
3.18428e-09
3.0259e-10
-4.89068e-09
2.27069e-09
2.31729e-09
-3.74784e-09
2.46404e-10
-2.08872e-10
3.71037e-09
1.11911e-09
4.87699e-09
-1.11361e-08
5.13997e-09
4.27168e-09
-5.7265e-10
-3.78176e-09
8.27609e-11
-1.99446e-09
-1.67094e-10
3.88628e-09
-1.72478e-09
-3.40454e-09
3.07499e-09
-1.53641e-09
1.86587e-09
1.31861e-09
1.17981e-09
3.02022e-09
-5.51861e-09
-5.16204e-09
1.7145e-09
3.24996e-09
1.97581e-10
6.65578e-09
-1.58581e-09
3.68694e-09
-8.75694e-09
4.72196e-09
4.32458e-10
-3.70438e-10
-4.78396e-09
3.21136e-09
1.31574e-09
-5.58857e-09
1.06147e-09
-1.17662e-09
3.04934e-09
-4.27859e-09
2.40586e-09
-5.19753e-09
-3.20342e-10
5.29928e-09
2.18585e-10
7.61713e-09
-5.48368e-09
-1.04179e-08
8.28442e-09
-6.61201e-09
-1.38833e-09
4.30513e-09
3.69522e-09
-5.1569e-09
3.40368e-09
4.99904e-09
-3.2458e-09
-3.42439e-10
4.47965e-10
-6.71754e-09
3.61535e-11
2.85687e-09
3.55186e-09
-6.44489e-09
4.61088e-09
-8.73166e-09
-3.4439e-09
7.56471e-09
-4.01868e-09
-2.16891e-09
4.91542e-09
1.27217e-09
4.82263e-10
-3.76672e-09
-2.96824e-09
6.25272e-09
-5.77082e-09
8.12365e-10
2.39319e-09
2.56528e-09
4.24483e-09
-8.0193e-10
-1.8884e-09
-1.5545e-09
-4.64138e-09
-6.97017e-09
1.04005e-08
1.21106e-09
2.89807e-09
-8.94104e-09
6.14681e-09
-1.03795e-10
-8.24481e-09
1.0942e-08
2.00938e-10
5.53286e-09
-6.63802e-09
-3.13893e-09
4.24409e-09
-1.15619e-10
5.23033e-09
4.28651e-09
-9.40123e-09
-4.68063e-10
-5.49335e-09
5.67262e-09
2.88805e-10
-5.72903e-09
-2.32053e-09
8.04597e-10
7.24499e-09
3.00135e-09
-6.2851e-09
4.01622e-09
-7.32451e-10
-4.0454e-09
-4.46413e-10
4.20554e-09
2.86288e-10
1.12234e-09
3.94921e-09
-1.61995e-09
-3.45169e-09
-6.19097e-09
6.18902e-10
-4.19146e-09
9.76352e-09
-8.06863e-09
-5.38854e-09
1.26195e-08
8.37714e-10
-2.05527e-09
8.00075e-09
-1.39935e-09
-4.54612e-09
-7.12139e-09
5.12974e-09
-4.81466e-09
6.80631e-09
5.80745e-10
-1.02056e-08
7.56171e-09
2.0631e-09
-5.48901e-10
3.5994e-09
-3.26732e-09
2.16861e-10
-3.62827e-09
3.07877e-09
6.17448e-09
-5.62497e-09
3.1439e-09
-6.95863e-09
1.86456e-10
2.39942e-09
1.72175e-09
-3.79663e-09
-3.24608e-10
-4.28517e-09
6.63432e-10
4.80993e-09
-1.18823e-09
-2.69404e-09
7.741e-10
5.95565e-09
-4.03572e-09
-2.35014e-09
-4.09485e-09
-4.93407e-10
6.9384e-09
-5.80154e-09
-5.25848e-09
4.71117e-09
-3.43653e-09
-5.9959e-09
5.48093e-09
3.95148e-09
2.83358e-09
6.0612e-09
-7.01504e-09
-1.87974e-09
-2.55248e-09
-1.04291e-09
6.13029e-09
-2.53494e-09
3.04695e-09
-2.4827e-09
-3.36174e-09
2.79751e-09
1.43971e-09
-1.26864e-09
2.87591e-09
1.57898e-09
-4.38554e-09
-6.27755e-09
9.08411e-09
-9.80647e-09
9.3486e-09
4.87666e-10
-2.976e-11
-1.38201e-09
-7.8521e-09
5.13694e-09
4.09716e-09
-2.44776e-09
-1.18558e-09
3.42699e-09
2.06358e-10
2.05771e-10
3.3001e-09
-2.0834e-09
-1.42246e-09
-2.10271e-09
-2.91128e-09
5.21976e-09
4.5613e-09
-2.55524e-09
7.46623e-10
-2.75267e-09
5.25923e-09
-5.48367e-11
-7.38024e-09
2.17586e-09
-3.18472e-09
1.6048e-09
-6.41531e-09
7.99524e-09
-4.74091e-09
7.9106e-09
-4.50945e-09
1.33977e-09
-9.6453e-10
-2.5997e-09
-2.39054e-09
5.95477e-09
-1.27296e-08
2.61233e-09
1.31515e-09
8.80212e-09
-4.73975e-09
-2.23935e-09
1.81706e-09
-2.22432e-09
4.0236e-09
-1.77088e-09
-2.84213e-11
-4.75919e-09
2.20372e-09
3.16809e-09
-6.12649e-10
-3.44928e-09
-1.61527e-09
6.64354e-09
-2.1874e-10
-3.45405e-09
3.95555e-09
-2.82697e-10
2.3485e-09
-3.78288e-09
1.70755e-09
-2.73192e-10
-5.42051e-09
-2.7263e-09
6.39401e-09
1.75273e-09
-3.74203e-09
6.02515e-09
-2.22101e-09
-6.20847e-11
-2.504e-10
-1.97086e-09
-1.52065e-09
-1.29027e-09
8.96079e-10
6.55822e-10
-2.61728e-10
-4.79291e-09
-2.97159e-09
8.72898e-09
1.30093e-09
4.26461e-09
-1.62248e-09
-3.94311e-09
-5.83329e-10
-4.23867e-09
6.12294e-09
3.3724e-09
-1.27125e-13
-3.16371e-09
-2.08542e-10
4.7208e-09
6.77823e-10
-5.22746e-09
-1.71267e-10
1.88742e-10
3.64839e-09
1.49911e-09
-5.33624e-09
-7.77729e-10
-3.54883e-09
6.72017e-09
-2.39361e-09
-4.55637e-10
2.25385e-09
3.96754e-09
-5.76573e-09
-3.0806e-09
5.18195e-11
1.14821e-09
1.8806e-09
-3.59366e-09
1.94235e-09
3.76533e-09
-2.11405e-09
3.04003e-09
1.36748e-09
-6.19397e-09
1.78647e-09
5.82698e-10
1.70861e-09
-1.9139e-09
-3.77407e-10
3.20996e-09
-5.71792e-09
-5.51022e-09
-3.81166e-09
3.94128e-09
-4.26124e-09
-3.4917e-09
2.84693e-10
4.0871e-09
-3.87706e-09
-4.94686e-10
-2.6253e-09
2.82173e-09
-4.37947e-10
2.41536e-10
-1.11093e-12
-3.61467e-09
-1.41975e-10
3.75785e-09
-2.01172e-09
4.0667e-09
-5.15443e-10
-1.53944e-09
-4.36934e-09
3.02539e-09
-2.51005e-09
3.85404e-09
-4.97152e-09
1.38117e-09
5.58032e-09
-1.98996e-09
-2.47945e-10
-6.96516e-09
1.48351e-10
5.80409e-09
-8.2087e-10
-9.69207e-09
4.70879e-09
-5.75492e-09
2.38466e-09
6.30165e-09
-2.93139e-09
-5.90052e-09
2.75098e-09
4.87835e-09
-1.72883e-09
-4.65855e-09
1.55212e-09
3.41367e-09
-3.07269e-10
-6.5576e-09
5.75251e-09
-1.33079e-09
5.2599e-09
-5.03158e-09
-7.03692e-09
6.80861e-09
-5.58292e-09
-1.02078e-09
-3.46402e-09
1.00677e-08
7.62766e-09
-3.73421e-09
-4.05967e-09
1.66216e-10
-2.44799e-09
4.39978e-09
-1.82558e-09
-1.26213e-10
1.5647e-09
-2.29235e-09
9.23455e-10
-1.95829e-10
-3.26294e-09
5.94103e-09
6.53206e-10
-3.33125e-09
4.19645e-09
-2.80672e-09
-1.51943e-09
5.64116e-09
-8.88414e-09
5.8263e-11
-3.88876e-09
1.71776e-09
-2.7701e-10
5.21245e-09
2.35845e-09
-4.35396e-09
-3.21695e-09
-4.95633e-09
7.09303e-09
2.94144e-09
-5.07816e-09
-3.79227e-09
-3.83454e-09
7.24334e-09
3.83461e-10
4.89338e-09
6.079e-10
3.22539e-09
-8.72668e-09
7.3609e-09
-7.71107e-09
-2.63158e-10
6.13334e-10
-2.12675e-09
-4.70303e-09
3.24432e-10
6.50536e-09
-4.25637e-10
4.13723e-09
-3.9422e-09
2.30615e-10
-8.17183e-10
6.17487e-09
6.32602e-11
5.43427e-10
-3.57641e-09
3.22278e-09
-1.89771e-10
-4.85861e-10
4.85577e-10
-6.09812e-09
6.09843e-09
-1.57498e-09
-1.37419e-10
1.5094e-09
2.03072e-10
3.9732e-09
-1.87388e-10
2.97416e-10
-6.5808e-09
-1.81742e-09
8.10084e-09
-8.16633e-10
-2.28933e-09
3.25502e-09
-1.4905e-10
-4.49488e-09
4.8404e-09
1.78072e-09
-2.12632e-09
1.677e-09
-5.23143e-10
-1.01243e-09
-1.41493e-10
-2.24523e-09
1.11836e-09
1.30174e-09
-1.74833e-10
6.1393e-09
-1.48397e-09
-2.6889e-09
-1.96646e-09
-2.33091e-09
1.06296e-09
4.62049e-09
-3.35255e-09
-2.23291e-09
-3.64636e-09
2.57413e-09
3.30509e-09
1.94368e-09
-9.80681e-10
-8.27243e-10
-1.35736e-10
3.75614e-09
-6.29867e-09
3.15536e-09
-6.12825e-10
-2.3251e-09
1.17111e-09
1.49431e-09
-3.40378e-10
-6.45638e-10
2.72349e-09
3.90226e-09
-5.98009e-09
-5.25829e-10
5.09363e-09
-2.20586e-09
-2.36194e-09
3.45003e-09
-3.81289e-09
4.15746e-09
1.82472e-09
-2.60977e-09
2.50484e-09
-3.01353e-09
-2.00042e-09
2.50911e-09
2.60443e-09
4.46291e-09
-7.00615e-09
-6.11582e-11
1.78565e-09
-3.04705e-09
3.20509e-09
-4.74919e-09
4.92374e-09
2.49919e-09
-2.67374e-09
-6.72228e-09
5.12459e-09
9.22685e-09
-7.62915e-09
3.92903e-09
-8.15874e-09
-3.83891e-09
-4.52499e-09
1.04086e-08
-7.75537e-09
1.87177e-09
-1.15491e-10
3.90651e-09
1.38016e-10
1.4224e-09
2.80141e-09
7.94955e-10
9.64227e-09
-3.11376e-09
-3.4114e-09
-3.11712e-09
6.97338e-09
-1.36054e-09
-1.86078e-09
-3.75207e-09
6.96107e-10
-3.0049e-09
2.23434e-09
7.44523e-11
-1.62689e-09
-2.43244e-09
3.77867e-09
2.8066e-10
2.72348e-09
2.83182e-09
-5.56968e-09
1.42669e-11
1.99428e-09
-6.85511e-10
-1.18133e-09
-1.27483e-10
3.34686e-09
-1.06607e-09
-2.86507e-10
-3.63384e-09
4.84161e-11
-4.19623e-09
7.78166e-09
-1.51718e-09
7.08551e-09
-1.70021e-09
-3.86812e-09
6.73667e-09
-2.66697e-09
3.73232e-10
2.64487e-10
-1.15773e-08
-3.92626e-10
1.17054e-08
2.48655e-09
2.93068e-09
-5.72013e-09
-5.44915e-09
2.44875e-09
-1.2041e-09
2.97797e-09
-1.96166e-09
1.87812e-10
2.95401e-09
4.19558e-09
-8.8683e-09
1.7187e-09
-3.02777e-09
6.88234e-09
-2.59686e-09
-1.2577e-09
-7.56331e-09
-3.52116e-09
5.30099e-09
5.78351e-09
-1.27613e-09
3.08774e-09
-3.51905e-09
1.70742e-09
2.96483e-09
-2.58507e-09
-5.60397e-10
1.80646e-10
1.25356e-09
3.48384e-09
-4.84098e-09
1.03597e-10
7.95176e-09
-6.74094e-09
-8.23456e-09
7.02375e-09
-2.40288e-09
1.03197e-09
-1.11194e-11
-6.46927e-10
-3.53863e-09
7.96975e-09
-3.78417e-09
-7.14648e-09
3.55541e-10
6.64543e-09
1.45517e-10
4.11835e-09
-3.09388e-09
-3.35569e-09
2.33123e-09
3.46762e-09
-1.64187e-09
-1.74215e-09
-8.36021e-11
-1.56652e-09
-1.50725e-09
-1.42112e-09
-3.19617e-09
2.43891e-09
3.99529e-09
-3.23801e-09
7.54058e-09
-2.19408e-09
3.90625e-09
5.82082e-09
-5.05312e-09
-4.67395e-09
5.87067e-09
4.47373e-09
-6.86108e-09
-3.48329e-09
2.94048e-09
-1.90835e-09
3.63811e-09
3.39174e-09
-2.32361e-09
-8.36312e-10
-2.31825e-10
8.02653e-09
2.48939e-09
-4.15564e-09
-6.03159e-09
1.01882e-09
1.83218e-09
3.1806e-09
-3.78819e-09
2.53906e-09
-6.31415e-09
-4.44332e-09
-1.89257e-09
3.20066e-09
3.13524e-09
-4.23399e-09
3.44798e-09
8.03916e-10
-1.78874e-11
-1.29973e-10
6.88427e-11
-3.05805e-09
3.11918e-09
2.43637e-09
-8.73886e-09
-1.81744e-09
8.11991e-09
-7.48584e-09
4.43598e-09
-2.1307e-10
6.45683e-09
-4.25003e-09
2.2958e-10
4.07444e-09
5.76952e-09
-3.78844e-10
-9.46512e-09
-8.14568e-09
4.12286e-09
3.92632e-09
9.65211e-11
-1.2799e-09
1.71774e-09
-4.0534e-09
3.61558e-09
3.00305e-09
-5.89955e-10
-2.61275e-09
1.99697e-10
-2.79984e-09
2.92408e-09
2.0157e-11
-1.44359e-10
-3.87011e-09
-4.13154e-09
2.27264e-09
-4.3466e-09
2.32214e-09
1.85355e-09
1.70937e-10
8.85667e-09
-9.71809e-09
3.62866e-09
-2.76722e-09
1.98471e-09
1.25871e-09
-2.99738e-09
-2.46022e-10
-1.24521e-09
2.40835e-09
-1.28318e-09
1.20044e-10
2.5381e-09
-4.12691e-09
1.78989e-09
-2.01213e-10
-1.23495e-09
-1.53714e-09
2.83496e-09
-6.28653e-11
1.73084e-09
1.22159e-09
-2.78964e-09
-1.62862e-10
3.98743e-09
-4.86117e-09
2.6045e-09
-8.66258e-09
-5.1776e-09
6.47257e-09
7.36761e-09
-2.17765e-09
7.41091e-09
-6.06592e-09
2.71511e-09
2.74148e-09
-4.20551e-10
-5.03603e-09
5.1369e-09
7.73962e-09
-9.7178e-09
-3.15871e-09
-1.99511e-09
-3.836e-09
1.15781e-09
4.67323e-09
-1.38113e-09
3.72365e-09
-2.22546e-09
-1.1706e-10
9.51515e-10
-2.26038e-09
1.5141e-09
-2.05129e-10
1.7253e-09
-5.54388e-09
9.72055e-09
-5.90197e-09
-2.16737e-09
-5.33101e-09
3.06416e-09
4.43422e-09
-4.59515e-09
-3.80518e-09
8.38094e-09
1.94073e-11
-3.60092e-09
-2.36588e-09
7.5383e-09
-1.57149e-09
-5.27412e-09
-3.89824e-09
2.55149e-09
4.78882e-09
2.02481e-09
-2.9764e-10
-6.51599e-09
-3.95244e-09
1.1088e-09
2.69238e-09
1.51266e-10
-7.48447e-09
4.71747e-09
2.77758e-09
-1.05921e-11
1.73616e-09
3.1375e-09
-9.36201e-10
-3.93753e-09
-6.6242e-09
6.11395e-09
9.27666e-10
-4.17406e-10
2.34774e-09
-1.28695e-09
3.36043e-09
-4.42119e-09
-2.23531e-09
3.42524e-10
-1.41495e-10
-2.14112e-09
1.99799e-09
1.7341e-11
1.25846e-10
3.53947e-09
-7.10936e-09
-1.58698e-09
6.16635e-09
-1.81063e-09
8.74614e-10
1.60387e-09
-6.8094e-09
2.08991e-09
3.11563e-09
6.96754e-09
5.64324e-09
-3.4249e-09
-9.18595e-09
-2.47118e-10
4.40463e-09
9.50242e-11
-4.25244e-09
2.75642e-09
-7.11077e-09
6.0656e-10
-4.18682e-10
3.5002e-09
-3.26486e-09
1.83358e-10
-2.28374e-10
2.83165e-09
3.83152e-09
-6.43477e-09
-7.15602e-09
8.15231e-10
6.33614e-09
4.68117e-12
2.06523e-09
-4.20234e-09
-1.04689e-09
3.18403e-09
-3.00922e-09
-3.77896e-09
5.80115e-09
9.86999e-10
2.81482e-09
2.655e-09
-5.16725e-09
7.56464e-09
-2.22456e-09
3.01079e-10
5.40411e-10
-1.57158e-09
-4.1467e-09
-1.79051e-09
3.86808e-09
5.07536e-09
-7.15291e-09
5.32649e-09
5.04364e-10
-5.91026e-09
7.94239e-11
8.11093e-09
-1.54311e-09
-6.97053e-09
4.02727e-10
-7.22116e-10
-2.64841e-09
3.10482e-09
2.65741e-10
-7.23369e-10
-1.12068e-09
2.00705e-09
-1.63027e-10
-4.76344e-09
-5.72237e-09
6.06614e-09
4.41969e-09
-8.40045e-09
-2.34195e-09
7.78198e-09
2.96045e-09
-3.7427e-10
3.35849e-09
-2.64827e-09
-3.36024e-10
-7.14494e-09
-2.2126e-11
-1.23338e-09
5.09713e-09
7.56152e-09
-7.61995e-09
-5.0387e-09
-1.82778e-10
3.3658e-09
-2.41244e-10
2.53578e-09
-4.91884e-09
2.30308e-09
7.99746e-11
2.07992e-09
4.375e-09
-7.802e-09
1.3471e-09
-4.76341e-09
3.8974e-09
3.21019e-09
-2.3442e-09
-1.63118e-10
-3.50424e-09
-1.60508e-09
-5.31563e-09
9.78162e-10
-4.80756e-11
-4.81334e-09
-1.01553e-10
1.22015e-10
-6.04222e-09
2.01421e-09
3.87845e-09
1.49554e-10
-2.17491e-09
-2.02199e-09
3.8924e-09
3.04512e-10
9.95874e-09
-5.64087e-09
1.23513e-09
-5.55298e-09
-2.32075e-10
2.53758e-09
-5.94206e-11
4.00927e-09
-7.11554e-09
1.49176e-09
1.61453e-09
1.5289e-09
2.70685e-09
-2.55878e-09
3.2181e-09
2.42526e-09
4.48274e-09
-1.01261e-08
-2.87555e-09
-3.34936e-09
2.20326e-10
-2.82154e-09
-3.13296e-09
5.59147e-09
3.63028e-10
1.42701e-09
3.77218e-09
-5.29903e-09
9.98277e-11
-2.94743e-09
4.32376e-09
-1.22652e-09
-1.49822e-10
-8.66775e-10
-1.00332e-09
1.99962e-09
-6.83762e-10
2.80424e-09
-4.12016e-09
3.01077e-09
-1.63898e-10
-7.65603e-10
-2.81453e-10
1.18061e-09
-1.33599e-10
1.34201e-09
3.11171e-09
-4.22779e-09
-2.26008e-10
3.54323e-09
-2.28232e-09
-9.68761e-10
-2.9214e-10
7.71145e-09
3.36205e-09
-2.07979e-09
2.14832e-10
-4.18236e-09
3.87611e-09
9.14466e-11
6.16803e-09
4.39226e-09
-6.55102e-09
3.208e-09
5.07852e-09
-5.54628e-09
-2.74024e-09
3.82604e-09
-6.62171e-10
4.41288e-11
4.42416e-09
-4.30787e-09
-4.62416e-10
3.46138e-10
-2.87908e-10
-2.2896e-09
2.48083e-09
9.66835e-11
-2.65655e-09
5.23382e-09
8.73118e-11
-2.66456e-09
-4.74747e-10
3.54524e-09
-2.78201e-09
-2.88776e-10
4.08756e-09
-4.46584e-10
3.12447e-09
3.25499e-09
3.96566e-09
-1.71802e-10
-1.21969e-09
-2.10896e-09
3.02838e-09
3.00289e-10
5.84265e-09
-8.51973e-09
7.57045e-09
-7.52778e-10
1.80468e-09
-9.14603e-10
-1.37272e-10
-2.45637e-09
5.63622e-09
-4.90119e-09
1.72133e-09
1.13033e-09
-6.00437e-10
-3.9944e-10
-1.30527e-10
3.60426e-09
4.47905e-10
-5.84071e-09
1.7885e-09
1.17264e-09
8.09563e-09
-6.78558e-10
-8.58969e-09
-4.36973e-09
5.76069e-09
1.0939e-09
-2.48486e-09
2.91681e-09
2.64169e-09
-5.42399e-09
-1.34488e-10
5.62368e-09
-4.38914e-09
-1.62536e-09
3.90805e-10
7.69901e-09
-5.10894e-09
-5.60454e-09
3.01446e-09
4.71376e-09
-4.71831e-09
-1.54888e-09
1.55346e-09
5.02447e-11
2.44326e-09
-2.34946e-09
-1.44007e-10
3.5877e-09
-2.04236e-09
1.30691e-09
-2.85225e-09
-6.55959e-10
-9.90083e-10
1.8027e-09
-1.56669e-10
3.37851e-09
-1.49183e-09
1.70102e-09
-2.61759e-09
6.37283e-09
-1.30981e-09
-2.44543e-09
4.29788e-09
-3.03272e-09
-1.09901e-09
-1.66145e-10
3.71489e-09
-5.41357e-10
-3.47884e-09
3.05332e-10
-1.66767e-09
2.16226e-09
-2.5973e-09
-2.72536e-09
1.59302e-10
1.18312e-10
6.63486e-09
3.75138e-10
-5.09739e-09
-1.91261e-09
-2.6014e-09
7.89869e-09
-6.82366e-10
-4.6149e-09
-1.41196e-09
-1.77295e-09
-5.28958e-09
8.47452e-09
-4.79988e-09
-3.75205e-09
4.75261e-09
3.79934e-09
1.23169e-10
-2.97943e-09
2.86273e-09
-6.44295e-12
4.33602e-09
5.73357e-09
-5.66479e-09
-4.40478e-09
-3.21867e-09
5.85456e-09
-5.80217e-09
3.16628e-09
-3.14376e-09
1.01331e-09
2.67417e-09
-5.43718e-10
7.18341e-09
-4.89982e-09
2.4372e-09
5.67102e-09
-3.07724e-09
2.24474e-09
-4.83853e-09
3.5204e-09
-3.50286e-09
-9.90564e-11
8.15728e-11
7.4155e-10
-4.03244e-09
1.43536e-09
1.85557e-09
-4.42328e-09
3.13084e-09
2.03401e-09
-2.04692e-09
2.48102e-09
-3.84066e-09
3.40656e-09
3.53e-09
-3.95775e-09
2.50233e-10
1.77562e-10
6.80567e-10
2.27709e-09
-4.77561e-09
-2.91178e-09
-4.41297e-09
7.31747e-09
7.47033e-12
-6.97068e-10
1.8356e-09
-1.07304e-09
-6.55662e-11
3.71136e-09
1.01085e-09
-1.76174e-10
-3.75127e-09
-2.08137e-09
3.83816e-09
5.16482e-09
7.84372e-09
-6.53773e-09
-6.47078e-09
4.57373e-09
-7.04236e-10
-3.94893e-09
7.94632e-11
-1.60136e-09
5.30608e-09
-5.64948e-09
1.94476e-09
2.21709e-09
-3.13664e-09
1.49185e-09
-5.72294e-10
3.13177e-09
-6.02776e-09
2.67515e-09
2.20827e-10
-4.95542e-09
-1.82302e-09
7.43806e-09
7.90847e-10
-1.19122e-09
-1.12925e-09
-8.84432e-12
5.89549e-10
8.04433e-09
-1.33973e-08
-6.70783e-09
6.26612e-09
4.11547e-10
3.01853e-11
2.37737e-09
5.36621e-09
-1.82049e-10
3.79862e-09
-3.13946e-09
-7.0916e-10
5.0026e-11
-8.36447e-10
2.36079e-10
-1.65281e-10
-2.28554e-09
-4.68195e-10
2.5546e-09
1.9916e-10
2.26542e-09
-1.49688e-10
-2.51103e-09
6.43574e-09
3.37663e-09
2.21574e-09
-3.02872e-09
-5.17244e-09
5.98544e-09
-6.0063e-09
2.41704e-09
3.57997e-09
9.30414e-12
-2.64445e-09
-6.46762e-10
1.54266e-10
-1.76788e-09
-2.44849e-10
8.0081e-11
2.0715e-09
-1.52018e-10
-3.6427e-09
-7.57648e-10
3.20256e-09
5.58782e-09
5.19573e-09
-6.63964e-09
-4.14389e-09
-1.81306e-09
4.06188e-09
2.94399e-09
-5.19281e-09
-1.26128e-10
1.7602e-09
-1.42904e-09
-2.04962e-10
-3.64277e-09
1.3171e-09
2.20611e-09
1.19567e-10
-1.52242e-10
1.35719e-09
-1.04095e-09
-1.64023e-10
-3.25165e-09
2.08977e-09
1.47732e-09
-3.15428e-10
-3.25367e-10
-5.65621e-09
5.67883e-09
3.02752e-10
6.34125e-09
3.98562e-09
-9.73731e-09
6.42375e-09
1.50846e-10
-2.49579e-09
-4.07877e-09
-1.76037e-09
8.47196e-10
1.13204e-09
-2.18836e-10
1.92192e-09
9.31199e-09
-6.58327e-09
-4.65069e-09
2.71967e-09
-4.1043e-10
-2.23427e-09
-7.49511e-11
6.82936e-09
-2.89835e-09
6.38459e-10
-4.56948e-09
2.31209e-09
-2.37088e-10
-1.13294e-09
-4.88682e-09
3.59354e-09
2.42621e-09
2.9551e-09
-2.5584e-09
-4.36359e-10
3.96693e-11
2.64046e-09
-7.94289e-09
4.21309e-09
1.08935e-09
-4.81807e-09
3.21137e-09
-1.02933e-09
2.63603e-09
1.06663e-09
6.30254e-10
-1.86079e-09
1.63922e-10
-1.52421e-09
2.35189e-09
2.38979e-10
-7.59705e-09
6.64841e-09
-1.37188e-09
2.61502e-10
3.56922e-09
-5.37488e-10
3.73493e-09
-6.76665e-09
5.88356e-09
-4.31304e-09
-1.80973e-09
2.39222e-10
3.52344e-09
-2.20762e-09
-1.60933e-09
2.93522e-10
-1.89248e-09
3.21115e-09
-1.64289e-09
-1.53793e-09
-3.96662e-09
2.23394e-09
3.27061e-09
-4.00341e-09
2.48393e-09
1.76332e-09
-2.43859e-10
-5.07934e-09
7.13258e-09
-3.30447e-09
1.25122e-09
1.34111e-09
-1.5014e-09
5.2008e-10
-3.59831e-10
4.68842e-09
-5.30323e-09
1.46745e-10
-1.13927e-09
2.2065e-09
2.32446e-09
4.00103e-10
-2.1406e-09
1.76275e-09
-2.22298e-11
-5.08531e-10
-2.70541e-09
3.05709e-09
1.56854e-10
-1.25524e-09
-7.73433e-09
4.2404e-09
-1.16634e-09
-6.20157e-09
7.15904e-09
2.08889e-10
2.13477e-09
-3.24252e-09
-3.17819e-09
4.28589e-09
2.20692e-10
-4.1658e-09
-1.0028e-10
2.3273e-09
-1.247e-09
-1.02183e-09
-5.84911e-11
3.02971e-09
-5.32754e-09
2.51519e-09
-2.1734e-10
4.6355e-09
6.80219e-10
-2.83415e-09
2.36433e-09
4.92989e-09
-1.91396e-09
-5.38024e-09
1.6713e-09
-9.98981e-09
5.63529e-09
2.68322e-09
-4.78409e-09
2.13684e-09
-3.54372e-09
3.96991e-10
-2.13519e-09
1.78437e-09
-4.61613e-11
-1.52248e-10
1.78744e-09
-1.59341e-09
-4.17412e-11
5.04876e-09
-9.60648e-09
2.7994e-09
1.75832e-09
6.01159e-09
-1.40071e-09
-2.10035e-09
-2.51054e-09
-3.7018e-09
-5.03924e-09
2.48358e-09
6.25747e-09
-5.33387e-09
-1.05518e-09
6.1977e-09
1.91376e-10
6.1904e-09
-7.00137e-09
6.00151e-09
-5.19055e-09
-4.74002e-09
-1.00464e-08
2.93983e-09
1.18466e-08
-2.76503e-09
5.14796e-09
-2.63259e-09
2.4966e-10
-3.44659e-09
-3.3437e-09
5.38461e-10
3.8393e-09
-7.79687e-09
5.40465e-09
2.7905e-09
-5.31452e-09
3.9879e-09
-4.71885e-09
-3.90509e-09
7.84624e-09
4.54344e-09
-8.66197e-09
4.45268e-10
3.67327e-09
-3.02672e-11
-2.85061e-09
2.81883e-09
6.20729e-11
-1.00227e-08
7.66496e-09
-2.2374e-09
-1.47643e-09
1.13714e-09
7.61096e-10
-4.21797e-10
-2.68081e-09
3.67613e-09
-1.12145e-09
1.2614e-10
-2.60119e-09
-7.69276e-10
-7.88164e-11
6.36805e-09
-4.83685e-09
-2.26543e-09
4.90478e-09
-2.49331e-09
-1.46097e-10
2.02582e-09
-4.36336e-09
1.69079e-09
6.46722e-10
1.17684e-09
-2.00265e-09
1.00569e-09
-1.80054e-10
2.43932e-10
5.64297e-09
-5.89977e-09
1.29073e-11
3.13337e-09
4.79548e-09
-4.70468e-09
-3.22413e-09
8.55613e-10
-4.31723e-09
-2.0383e-09
2.90834e-09
-3.12448e-09
3.92312e-10
-1.76192e-10
-5.03657e-09
-6.42641e-11
-2.62448e-10
5.36333e-09
-5.39479e-09
1.31151e-09
5.77403e-09
-1.69076e-09
-2.50185e-09
3.6294e-09
1.26027e-10
4.25975e-09
2.36426e-09
-2.34805e-09
-4.27595e-09
-2.06625e-09
4.61501e-09
-2.45392e-09
-9.49115e-11
-6.95994e-10
-2.9709e-09
1.75384e-09
1.91296e-09
3.27141e-09
2.29986e-09
-1.17149e-09
2.31391e-09
-4.39371e-09
2.31006e-09
-2.30289e-10
-1.44249e-09
3.6442e-09
-5.66499e-09
3.46315e-09
-1.34277e-09
-1.70354e-09
2.69407e-09
3.52245e-10
3.7718e-09
3.49052e-09
-7.36602e-09
1.03706e-10
8.46374e-09
-4.99231e-09
1.07823e-09
2.07839e-09
-1.00831e-09
-2.14818e-09
-3.93448e-09
2.15063e-09
3.68212e-09
-1.89825e-09
-6.11559e-09
5.85187e-09
3.26511e-09
-1.02163e-08
1.03049e-08
-2.88393e-09
1.36708e-09
2.06112e-09
-3.48835e-09
6.01458e-11
5.24182e-09
-3.25937e-10
-3.41663e-09
-1.49922e-09
3.94842e-09
-4.27642e-09
4.56049e-10
-1.27998e-10
-2.13867e-09
-1.45695e-09
3.83352e-09
-2.37898e-10
1.53577e-09
1.18331e-09
-2.49798e-09
-2.21098e-10
3.79994e-09
2.38918e-09
9.20053e-10
3.43112e-09
1.87294e-09
-5.55179e-09
2.4773e-10
-2.77709e-09
4.25008e-10
-2.73234e-10
9.7444e-09
-5.48771e-09
-1.9879e-09
-2.26876e-09
-5.5117e-09
5.83042e-09
-1.73586e-10
-1.45071e-10
2.75901e-09
-1.23235e-09
-2.77993e-09
1.25328e-09
2.33154e-09
8.25811e-10
-2.89194e-09
-2.65438e-10
-3.97663e-09
7.10622e-09
-3.23947e-09
1.09869e-10
7.41791e-09
-5.63065e-10
-3.4228e-09
-3.43207e-09
6.99813e-09
-1.62894e-09
-5.54033e-09
1.71144e-10
6.09286e-10
2.72896e-09
-6.74091e-09
3.40268e-09
-9.69512e-10
-4.80626e-09
1.56529e-10
-9.97232e-09
2.74198e-09
5.87397e-10
6.64295e-09
2.26131e-09
-2.31333e-09
2.17764e-11
2.2956e-09
-1.71671e-10
1.37469e-10
2.46659e-09
-2.62364e-09
2.37339e-10
-8.02614e-11
3.89978e-09
1.35609e-11
-8.11772e-11
-3.83212e-09
-4.44619e-09
-3.3618e-09
3.85556e-09
1.67169e-10
-3.61561e-09
3.34247e-09
1.05989e-10
-3.62932e-09
-2.22652e-09
3.21139e-09
-2.50021e-10
-1.78567e-10
-3.23727e-09
1.35294e-09
4.22727e-09
-2.34278e-09
-6.09938e-09
5.44311e-09
1.01678e-09
-3.60489e-10
-7.27533e-10
-2.68418e-09
6.18859e-09
-2.77678e-09
-1.79502e-09
3.88392e-11
1.85315e-09
-9.69407e-11
-1.73381e-09
-4.95993e-09
6.21315e-09
4.80619e-10
2.5862e-09
-4.31746e-10
2.05075e-11
4.37311e-09
2.0856e-09
-1.69519e-09
4.12062e-09
-2.2611e-09
-1.64364e-10
-3.78341e-09
2.46175e-09
-3.73505e-10
4.72185e-09
-4.62301e-09
-5.626e-11
-4.25459e-11
1.3318e-09
2.00975e-09
-1.23572e-10
-3.21795e-09
2.13066e-09
-2.23492e-09
-7.85181e-11
-4.39335e-09
2.65444e-09
1.93389e-09
-1.94976e-10
-2.28346e-09
3.27511e-09
-8.13433e-10
-1.78228e-10
2.22978e-09
-4.39042e-09
-1.2282e-10
-3.6507e-09
2.97004e-09
6.32808e-10
4.78637e-11
-3.28631e-09
-6.24438e-10
2.60058e-10
3.8895e-09
4.71927e-09
-6.298e-09
-2.31079e-09
1.43903e-10
-1.45306e-09
1.38635e-09
-7.71869e-11
-1.82935e-09
-1.57243e-10
-7.85879e-09
3.27493e-09
3.22081e-09
1.36304e-09
-5.19358e-09
-5.93372e-10
1.8303e-10
1.92867e-09
1.24546e-10
-1.18102e-08
8.22901e-09
6.19643e-09
-2.61523e-09
3.22704e-09
1.06961e-09
-3.73444e-10
1.21919e-08
-3.79577e-09
-6.78565e-09
-1.6105e-09
6.7606e-09
-4.24224e-09
-1.95025e-10
-2.32336e-09
4.83044e-09
2.51212e-09
4.11273e-09
4.14626e-09
-3.6615e-09
-4.59747e-09
-1.50308e-09
4.40804e-09
-2.76916e-09
-1.35869e-10
3.95749e-09
5.67592e-09
2.75851e-09
-6.48734e-09
-7.39861e-09
1.1879e-08
2.00699e-09
8.02095e-09
4.99885e-09
-7.17707e-09
-5.84268e-09
7.99553e-09
3.02448e-09
-5.69613e-09
-5.32389e-09
1.1326e-08
-5.23807e-09
-3.96274e-09
-2.1252e-09
1.49793e-09
3.3709e-09
2.49208e-09
-1.23095e-09
1.80776e-09
-4.36756e-09
3.79075e-09
6.03101e-09
-9.20215e-09
-2.9434e-09
6.11457e-09
-7.86054e-09
4.59381e-09
3.94731e-09
5.31786e-09
-1.03973e-08
6.55387e-09
-1.47437e-09
-7.31466e-12