/*--------------------------------*- C++ -*----------------------------------*\
| =========                 |                                                 |
| \\      /  F ield         | OpenFOAM: The Open Source CFD Toolbox           |
|  \\    /   O peration     | Version:  v1612+                                |
|   \\  /    A nd           | Web:      www.OpenFOAM.com                      |
|    \\/     M anipulation  |                                                 |
\*---------------------------------------------------------------------------*/
FoamFile
{
    version     2.0;
    format      ascii;
    class       volVectorField;
    location    "100";
    object      wallShearStress;
}
// * * * * * * * * * * * * * * * * * * * * * * * * * * * * * * * * * * * * * //

dimensions      [0 2 -2 0 0 0 0];

internalField   uniform (0 0 0);

boundaryField
{
    WALL
    {
        type            calculated;
        value           nonuniform List<vector> 
1536
(
(0.0150077 0.00408611 0.0114441)
(0.0150996 0.00454759 0.011397)
(0.0183645 0.00687682 0.00487794)
(0.0187205 0.00621334 0.00434291)
(0.0186871 0.00685252 0.00475675)
(0.0192686 0.00597876 0.00511507)
(0.0193956 0.0060368 0.00472103)
(0.0186158 0.00666993 0.00453793)
(0.00910772 0.00371905 0.00631371)
(0.00983642 0.00423123 0.00675379)
(0.0180312 0.00497686 0.0103987)
(0.0179079 0.00645612 0.0108856)
(0.0160773 0.00857128 0.00525388)
(0.0157468 0.00784362 0.0068788)
(0.0119538 0.00385142 0.00218153)
(0.0115675 0.00364221 0.00207994)
(0.0190243 0.00332827 0.00669913)
(0.0198997 0.00354776 0.00751012)
(0.0176541 0.00850532 0.00483863)
(0.0158031 0.00881 0.00470233)
(0.0167721 0.00533079 0.00679373)
(0.0149191 0.00585599 0.00611071)
(0.0166879 0.00489463 0.00693149)
(0.0155744 0.00493985 0.00666368)
(0.0203374 0.00394812 0.00772432)
(0.0198255 0.0041316 0.00784479)
(0.00716919 0.00088991 0.00246277)
(0.00724433 0.000893278 0.00226548)
(0.0139217 0.00479892 0.00213019)
(0.0136354 0.00449388 0.00188653)
(0.0136464 0.00535045 0.00191723)
(0.01426 0.0057545 0.00201746)
(0.014384 0.00548883 0.00231696)
(0.0139524 0.00496661 0.00253997)
(0.0158677 0.00896628 0.0042504)
(0.0150729 0.0096175 0.00464932)
(0.0144571 0.00967725 0.00646489)
(0.0151814 0.0105135 0.00816109)
(0.0164309 0.00770418 0.0043217)
(0.0136289 0.0042067 0.0024327)
(0.0145144 0.00484016 0.00234839)
(0.00879516 0.00266329 0.00561155)
(0.00801844 0.00183623 0.00506)
(0.0108014 0.00429683 0.0086897)
(0.00968532 0.0029607 0.00787427)
(0.0140238 0.00655255 0.00208545)
(0.0145425 0.00676356 0.00242087)
(0.0104984 0.00273948 0.0017471)
(0.00939193 0.00202739 0.00187923)
(0.0128938 0.00580647 0.00602724)
(0.0132555 0.00554233 0.00601517)
(0.0140811 0.00889602 0.00601035)
(0.0152148 0.00996811 0.00611895)
(0.0193781 0.00719229 0.00437017)
(0.0185021 0.00804874 0.00421447)
(0.00871005 0.000974278 0.00411683)
(0.00854731 0.0011241 0.00449234)
(0.00860422 0.000955865 0.00415085)
(0.00862974 0.00100077 0.00453696)
(0.0090221 0.00106174 0.00442961)
(0.00860269 0.00114031 0.00478265)
(0.0222386 0.00480482 0.00862588)
(0.0214389 0.00398781 0.00828778)
(0.0215375 0.00434212 0.00793044)
(0.0209282 0.00412869 0.00783533)
(0.0217808 0.00433245 0.00848002)
(0.0215807 0.00426152 0.00811597)
(0.0192698 0.00447139 0.0102879)
(0.0192115 0.0041004 0.00979214)
(0.0202692 0.00424714 0.0098686)
(0.0190375 0.00399962 0.00965964)
(0.019659 0.00411288 0.00977557)
(0.0200012 0.00413343 0.00981854)
(0.00873081 0.00163553 0.00188389)
(0.00950249 0.00208698 0.00175243)
(0.0097316 0.00228557 0.00168047)
(0.00947236 0.00193307 0.00176283)
(0.00841897 0.00158735 0.00197697)
(0.0201477 0.00626088 0.00572103)
(0.0192838 0.00661878 0.00531613)
(0.0186431 0.00596215 0.00577297)
(0.0194331 0.00610268 0.00555302)
(0.0194825 0.00660697 0.00531671)
(0.0202949 0.0062176 0.00569239)
(0.0202264 0.00285875 0.00707262)
(0.0185182 0.00171566 0.00920027)
(0.0182659 0.002196 0.00975333)
(0.0177188 0.00156579 0.00789013)
(0.018751 0.00220623 0.00771392)
(0.0188716 0.00234973 0.00700797)
(0.0183912 0.00229506 0.00816988)
(0.0125973 0.00787309 0.00702726)
(0.014279 0.00954526 0.00591212)
(0.0159151 0.00969188 0.00646606)
(0.0133402 0.00895961 0.00718734)
(0.0146232 0.00813968 0.00725774)
(0.0146632 0.00851412 0.0072683)
(0.00986847 0.00320144 0.00516296)
(0.00997768 0.00382065 0.00512549)
(0.0101785 0.00425738 0.0054294)
(0.0100684 0.00343983 0.00530876)
(0.0103404 0.00335262 0.00537658)
(0.00949288 0.00256285 0.00453848)
(0.00962269 0.000744602 0.00402091)
(0.00990168 0.00059773 0.0045557)
(0.0101544 0.000810863 0.00344245)
(0.0116906 0.00140311 0.00399468)
(0.00899505 0.00233868 0.00585987)
(0.00923069 0.00322767 0.00675375)
(0.0100699 0.00388269 0.00744477)
(0.0090038 0.00365102 0.00649236)
(0.00957628 0.0047068 0.00747312)
(0.00882516 0.0036492 0.00703468)
(0.0079525 0.00140879 0.00267727)
(0.00811117 0.0013058 0.00299902)
(0.00766011 0.00116442 0.00259528)
(0.00805715 0.00140687 0.00208774)
(0.00887663 0.00158395 0.00227956)
(0.00861882 0.00150301 0.00293645)
(0.00720927 0.00111116 0.00268304)
(0.00755149 0.0011732 0.00252086)
(0.00739252 0.00113387 0.0029758)
(0.00749773 0.00128738 0.00253998)
(0.00726214 0.00120577 0.0029465)
(0.00719867 0.00116813 0.00275154)
(0.0116872 0.00294436 0.00222532)
(0.0117122 0.00342653 0.00168355)
(0.0123358 0.00356288 0.00199759)
(0.0124394 0.00392486 0.00166786)
(0.0109353 0.00275271 0.00220807)
(0.00948256 0.00196454 0.00235123)
(0.0120084 0.00421979 0.00174548)
(0.0128092 0.005223 0.00185071)
(0.0125849 0.00467842 0.00184522)
(0.0126063 0.00492064 0.00185704)
(0.0115954 0.00370322 0.00171483)
(0.0118509 0.00396785 0.00154568)
(0.010908 0.00603771 0.00817066)
(0.0104995 0.00461312 0.00808593)
(0.0100183 0.00430788 0.00739988)
(0.0108112 0.00537029 0.00815642)
(0.0103741 0.00565128 0.00767673)
(0.0107165 0.00392623 0.00838512)
(0.0115149 0.00720569 0.00726597)
(0.0126216 0.00881966 0.00743614)
(0.0124732 0.00694534 0.00792216)
(0.0125864 0.0071833 0.00864535)
(0.0129649 0.00925096 0.00761256)
(0.0129748 0.00850926 0.0077778)
(0.00939528 0.00235343 0.00665504)
(0.0093121 0.00198789 0.00666384)
(0.00928755 0.00199913 0.00638433)
(0.00940711 0.00278458 0.00697687)
(0.00880981 0.00217783 0.00637549)
(0.0095936 0.00334809 0.00756976)
(0.00880693 0.00142308 0.00666257)
(0.00926394 0.00234856 0.00757114)
(0.00929519 0.00294426 0.00800692)
(0.00882481 0.00132096 0.0064098)
(0.00917578 0.00108649 0.00655206)
(0.00948364 0.00186932 0.00714688)
(0.00907087 0.00210987 0.00721704)
(0.00883319 0.000886974 0.00608131)
(0.00904656 0.000800558 0.00599976)
(0.0133644 0.00476671 0.00172422)
(0.0137239 0.00527276 0.00161424)
(0.0147175 0.00693786 0.00239087)
(0.0139933 0.00641282 0.00237833)
(0.0137677 0.00581057 0.00193473)
(0.0145927 0.00641188 0.00229882)
(0.0104 0.00209454 0.00240274)
(0.00914686 0.00146925 0.00282791)
(0.00875712 0.00151522 0.00296902)
(0.00930866 0.0018995 0.00262848)
(0.00883817 0.00160174 0.00285016)
(0.00961243 0.00182751 0.00285362)
(0.0121607 0.00210309 0.00313275)
(0.0131213 0.00285586 0.00308929)
(0.0129142 0.00309568 0.00275425)
(0.0115367 0.00171846 0.00344008)
(0.012452 0.00254615 0.00289988)
(0.0123368 0.00204468 0.00330466)
(0.0128517 0.00345617 0.00234306)
(0.0137437 0.00427391 0.00218807)
(0.0132542 0.00352769 0.00230945)
(0.0138143 0.00442567 0.00226813)
(0.0132599 0.0036868 0.00205155)
(0.0140289 0.00541717 0.00230637)
(0.0153852 0.00565881 0.00282931)
(0.0150855 0.00526463 0.0025554)
(0.0153874 0.00624094 0.0029403)
(0.0156076 0.00609268 0.00298487)
(0.0145987 0.00450362 0.00253173)
(0.0165327 0.00981236 0.00467145)
(0.0160415 0.00924465 0.00416793)
(0.0152543 0.00674725 0.00331418)
(0.0154422 0.00747557 0.00437813)
(0.0152373 0.00823473 0.00250216)
(0.0154058 0.008293 0.0032368)
(0.0149607 0.00753062 0.00274262)
(0.0151636 0.00862614 0.0033279)
(0.0159012 0.00932452 0.00396742)
(0.0151199 0.00903719 0.00420024)
(0.0149888 0.006664 0.00255886)
(0.0153933 0.00804556 0.00259604)
(0.0141802 0.00611338 0.00226508)
(0.0154385 0.00754127 0.00263821)
(0.0153354 0.00767601 0.00260769)
(0.0146363 0.00737561 0.0098097)
(0.0144117 0.00964263 0.00966523)
(0.0150124 0.00751927 0.0113731)
(0.0136581 0.00807422 0.01096)
(0.0133191 0.00654975 0.0101214)
(0.0159823 0.00822947 0.0109108)
(0.0169227 0.00590754 0.0119485)
(0.0154543 0.00594797 0.0108189)
(0.0161364 0.00697198 0.0115037)
(0.0175655 0.00546012 0.0114746)
(0.0160239 0.00683716 0.0115668)
(0.0154984 0.00632205 0.0108256)
(0.0160308 0.00402348 0.0109109)
(0.0160227 0.00418829 0.0113086)
(0.0159538 0.00479421 0.0112752)
(0.015537 0.00525569 0.0115897)
(0.0151595 0.00431605 0.0110446)
(0.0151961 0.00464562 0.0109156)
(0.0146384 0.00834939 0.0096923)
(0.0147972 0.00912742 0.00983482)
(0.013789 0.00827767 0.00880108)
(0.0159983 0.00921967 0.00915616)
(0.0157447 0.00868038 0.00979646)
(0.0140541 0.00945183 0.00928377)
(0.0153723 0.0111126 0.00748665)
(0.0145091 0.00987953 0.00714476)
(0.0157949 0.0100485 0.0058975)
(0.0159734 0.0105819 0.00631614)
(0.0158713 0.0100188 0.00727321)
(0.015919 0.0096341 0.00752833)
(0.009041 0.00411277 0.00558429)
(0.00906433 0.0031941 0.00513673)
(0.00957695 0.0043572 0.00609888)
(0.00963008 0.00451534 0.00604535)
(0.00989949 0.0041644 0.0060198)
(0.00939352 0.00397197 0.00587954)
(0.00822843 0.00258166 0.00499407)
(0.00798874 0.00214749 0.004619)
(0.0083085 0.002428 0.0051861)
(0.0076873 0.00221955 0.00442514)
(0.0075957 0.0016465 0.00396535)
(0.00851255 0.00232054 0.00511659)
(0.00785365 0.00189105 0.00432277)
(0.00742731 0.00163127 0.00382972)
(0.00735054 0.00136527 0.00346296)
(0.00780137 0.0017133 0.00385974)
(0.00726078 0.00130646 0.00330093)
(0.00746899 0.00126188 0.00341926)
(0.00718232 0.00118429 0.00300362)
(0.00717553 0.00103604 0.00265892)
(0.00706754 0.00111523 0.00301734)
(0.00712141 0.00106613 0.00285482)
(0.0071441 0.00122019 0.00325135)
(0.00694965 0.000954021 0.00243561)
(0.0110165 0.00669669 0.00619429)
(0.0106731 0.00598693 0.0059461)
(0.0127707 0.00686626 0.00688431)
(0.0129794 0.00660862 0.00639044)
(0.0117117 0.00763894 0.00659112)
(0.0113662 0.00640487 0.0059708)
(0.0136639 0.00775947 0.00551971)
(0.012066 0.00605689 0.00523681)
(0.0128062 0.00614106 0.00570321)
(0.0145094 0.00868527 0.00568964)
(0.0142765 0.00798237 0.00568525)
(0.0134082 0.00775551 0.00579589)
(0.00836207 0.00222313 0.00439157)
(0.00956433 0.00174514 0.00484767)
(0.00815583 0.00195278 0.00408475)
(0.0202377 0.00426066 0.00729022)
(0.0204268 0.00414351 0.00775102)
(0.0215909 0.00487796 0.00841403)
(0.0206525 0.0047089 0.00706534)
(0.0200457 0.00450229 0.00700511)
(0.0214071 0.00437308 0.00772918)
(0.0172495 0.00524082 0.00605425)
(0.0175379 0.00539057 0.00655568)
(0.0188517 0.00550408 0.00645947)
(0.0180361 0.00557877 0.00670837)
(0.0184852 0.00514709 0.00721495)
(0.0181689 0.00500111 0.00673525)
(0.0201139 0.00513174 0.00706861)
(0.019067 0.0051463 0.00669346)
(0.0195999 0.00491146 0.00709338)
(0.0195132 0.00479836 0.00639018)
(0.019861 0.00530694 0.00693163)
(0.0138608 0.00440275 0.00592595)
(0.0149051 0.00502422 0.00624645)
(0.013479 0.00429412 0.00618564)
(0.0141836 0.00487647 0.00641896)
(0.0155016 0.00613988 0.00620977)
(0.0137093 0.00501674 0.00636418)
(0.0136915 0.00501512 0.0063652)
(0.0107233 0.00406243 0.00528687)
(0.0127013 0.00539195 0.00595392)
(0.0122706 0.00582852 0.00574177)
(0.0119815 0.00546257 0.00589029)
(0.0112917 0.00424304 0.00529223)
(0.0186479 0.00718566 0.00580266)
(0.0166788 0.00710022 0.00568227)
(0.0168565 0.0070865 0.00537359)
(0.018594 0.0072745 0.00552312)
(0.0184959 0.00786838 0.00543878)
(0.0185068 0.00729365 0.00578298)
(0.0162843 0.00731664 0.00599291)
(0.0138061 0.00782879 0.00500381)
(0.0171144 0.00834842 0.00502265)
(0.0156354 0.00772272 0.00607475)
(0.0128888 0.00733802 0.00866257)
(0.0105965 0.0074868 0.00787435)
(0.0102222 0.00511656 0.00710367)
(0.0106648 0.00668258 0.00763855)
(0.0110096 0.00621574 0.00744685)
(0.0126398 0.00739703 0.00795712)
(0.0203359 0.00364489 0.00599862)
(0.0200674 0.00448055 0.00537785)
(0.0189533 0.00295031 0.00607904)
(0.0194969 0.00406136 0.00529331)
(0.0195698 0.00287338 0.00629977)
(0.0195496 0.00386341 0.00531364)
(0.0155232 0.0091667 0.00526728)
(0.0169669 0.00883324 0.00608991)
(0.0144566 0.00918959 0.00519276)
(0.01718 0.00838457 0.00575714)
(0.0154994 0.00966306 0.00576204)
(0.0162111 0.0100545 0.00586855)
(0.0194392 0.0079362 0.0044276)
(0.018926 0.00545159 0.00474876)
(0.0190366 0.00726973 0.00456403)
(0.019849 0.00600461 0.00478807)
(0.0192971 0.00637388 0.00473564)
(0.0194557 0.00635056 0.00485822)
(0.0193704 0.00297375 0.00669561)
(0.0190403 0.00358629 0.00580723)
(0.0192687 0.00346991 0.0060113)
(0.0193024 0.00284911 0.00651909)
(0.0205012 0.00314837 0.00723365)
(0.0139877 0.00781571 0.011463)
(0.0136371 0.00681303 0.0104889)
(0.0141874 0.00751201 0.0118699)
(0.0153747 0.00603573 0.0124721)
(0.0146564 0.00636038 0.0113263)
(0.0155485 0.0065076 0.0124327)
(0.0172274 0.00313176 0.0107404)
(0.0167876 0.00324909 0.0106895)
(0.0179773 0.00253844 0.0096669)
(0.0167726 0.00250361 0.0100758)
(0.0179544 0.00316422 0.010582)
(0.0179449 0.00261278 0.010061)
(0.0162196 0.00245213 0.0102804)
(0.016075 0.00340402 0.0112496)
(0.0152677 0.00502462 0.0119084)
(0.0162916 0.00276549 0.0113164)
(0.016283 0.00262016 0.0106641)
(0.0165557 0.00346271 0.0111572)
(0.015536 0.00452004 0.0116423)
(0.0155773 0.00386892 0.0114264)
(0.0184776 0.00248485 0.00722403)
(0.0184788 0.0022859 0.00887416)
(0.0188726 0.00236924 0.0080071)
(0.0182925 0.0022405 0.00847321)
(0.018174 0.00208709 0.00800536)
(0.0188456 0.0025921 0.00785572)
(0.0184231 0.00312307 0.00680324)
(0.0195112 0.00356296 0.00673569)
(0.0197438 0.00384266 0.00647526)
(0.0193809 0.00307617 0.00667148)
(0.0199937 0.00373226 0.00680411)
(0.0211361 0.00482226 0.00641237)
(0.0205619 0.00453961 0.00677153)
(0.0197454 0.00414463 0.00668724)
(0.0200531 0.00468247 0.00583132)
(0.020014 0.00399701 0.00650586)
(0.0196314 0.00516114 0.00527629)
(0.0197674 0.0052637 0.00562752)
(0.0207633 0.00599656 0.00559891)
(0.0199311 0.00656705 0.00489518)
(0.0199727 0.00598764 0.00525272)
(0.019846 0.00625569 0.00493873)
(0.0188286 0.00746072 0.00490556)
(0.0191586 0.00741382 0.00506444)
(0.0196704 0.00743429 0.00518367)
(0.017787 0.00826009 0.00525607)
(0.016239 0.00861005 0.00403247)
(0.0174816 0.00756736 0.00450911)
(0.0184292 0.00863752 0.00593324)
(0.0185346 0.00805858 0.00513716)
(0.0148809 0.00805416 0.00312068)
(0.0152423 0.00772781 0.00315776)
(0.0144307 0.00770022 0.00283116)
(0.0137825 0.00664753 0.00223193)
(0.014572 0.00714254 0.0023098)
(0.0131214 0.00563831 0.00188141)
(0.0131322 0.00539729 0.00237298)
(0.0140438 0.00613322 0.00284595)
(0.0125535 0.00486522 0.00247959)
(0.0134749 0.00559028 0.00295383)
(0.013628 0.00598232 0.00312659)
(0.0127365 0.00481828 0.00232831)
(0.0122023 0.00429304 0.00235278)
(0.011578 0.00357932 0.00215163)
(0.0114403 0.00343483 0.00207929)
(0.011155 0.00312421 0.00185726)
(0.0107911 0.00285246 0.00211973)
(0.0110985 0.00305796 0.00214137)
(0.0166505 0.00683608 0.0104218)
(0.015442 0.00673771 0.0109985)
(0.0150729 0.00688448 0.00970844)
(0.0151198 0.00537873 0.0100676)
(0.0151135 0.00872895 0.0100847)
(0.0154494 0.00743336 0.0113186)
(0.0148925 0.0099642 0.00535161)
(0.0159468 0.0103924 0.00589304)
(0.0160879 0.0105524 0.00570908)
(0.0149266 0.00946831 0.004983)
(0.0160501 0.0091509 0.00509587)
(0.0151796 0.00855567 0.00555553)
(0.0159523 0.00861675 0.00751826)
(0.0162142 0.00997096 0.00672798)
(0.0156767 0.00883962 0.00797602)
(0.0156739 0.00990779 0.00624431)
(0.0151248 0.00839578 0.0078215)
(0.0157727 0.00967544 0.00697502)
(0.0168719 0.00585426 0.00831925)
(0.0154201 0.00589058 0.00738254)
(0.0165906 0.00528895 0.0078994)
(0.0156502 0.00565198 0.00766882)
(0.0171936 0.00619632 0.00844537)
(0.0169959 0.00631874 0.00778937)
(0.0174021 0.00597918 0.00901744)
(0.0166649 0.00753655 0.00787557)
(0.0182795 0.00724245 0.0094055)
(0.0178327 0.00639829 0.00884829)
(0.0165433 0.00800857 0.00812273)
(0.016647 0.00813654 0.0079248)
(0.0160374 0.00643029 0.00768388)
(0.0165373 0.00714904 0.00714582)
(0.0163029 0.00820233 0.00613369)
(0.0152557 0.0080073 0.00548081)
(0.0159173 0.00657953 0.00677459)
(0.0149999 0.00739368 0.00548996)
(0.0168601 0.00509571 0.00863504)
(0.0166798 0.00605832 0.00886379)
(0.0175552 0.00465729 0.00903399)
(0.0183969 0.0056006 0.00939833)
(0.0170092 0.0052788 0.0087094)
(0.0171564 0.00543706 0.00894666)
(0.0185378 0.00600858 0.00959891)
(0.0178376 0.00514116 0.00933908)
(0.0178442 0.00574872 0.00991866)
(0.0167743 0.00515326 0.00935796)
(0.0183252 0.00674694 0.00997179)
(0.0196399 0.00657161 0.010479)
(0.0189163 0.00494845 0.0107268)
(0.0178219 0.00573253 0.0108871)
(0.0171023 0.00518681 0.00991811)
(0.0190238 0.00511209 0.0106947)
(0.018748 0.00509182 0.010521)
(0.0171841 0.00557055 0.0105224)
(0.0191246 0.0058616 0.010312)
(0.0176114 0.00681819 0.0101508)
(0.0182118 0.0051686 0.0098016)
(0.0176866 0.00430737 0.00946983)
(0.0176933 0.00544886 0.0105761)
(0.0152714 0.0075884 0.00931603)
(0.0162764 0.00785013 0.0101112)
(0.0167634 0.00798729 0.0103717)
(0.0151601 0.00844774 0.00949403)
(0.0163383 0.00766991 0.010204)
(0.0170341 0.00816372 0.00935088)
(0.0154306 0.00859214 0.00814751)
(0.0154873 0.00877452 0.00833445)
(0.0166006 0.00783298 0.00925397)
(0.01622 0.00925905 0.0087311)
(0.020423 0.0034594 0.00846423)
(0.0219863 0.00374945 0.00972744)
(0.0212303 0.00337202 0.00902718)
(0.0154086 0.008003 0.00601912)
(0.0153145 0.00813552 0.00650903)
(0.0133803 0.00845029 0.00586496)
(0.0153126 0.00876474 0.00605064)
(0.0140438 0.00909363 0.00579911)
(0.0136803 0.00848317 0.00588135)
(0.0182913 0.00437515 0.0103424)
(0.018111 0.00398246 0.0098913)
(0.0176594 0.00416095 0.0101944)
(0.0179481 0.00478091 0.0107775)
(0.0176719 0.00428758 0.0102389)
(0.018485 0.00408697 0.0101113)
(0.0211401 0.00445694 0.0103512)
(0.0207851 0.0045704 0.0101218)
(0.019954 0.00398754 0.00880482)
(0.0219723 0.00438504 0.009117)
(0.0219868 0.00447475 0.0094014)
(0.0200835 0.00396377 0.0091921)
(0.0217536 0.00439374 0.0088275)
(0.0210167 0.00573356 0.00618693)
(0.0211951 0.00532585 0.00659873)
(0.0208589 0.00577466 0.00637779)
(0.0215017 0.00514565 0.00726063)
(0.0196207 0.00515077 0.00662057)
(0.0218095 0.00527615 0.00723619)
(0.0192208 0.0065943 0.00465354)
(0.0177835 0.00723874 0.00468098)
(0.0180848 0.00743222 0.00504925)
(0.0168378 0.00834431 0.00485791)
(0.0178235 0.00805231 0.00527023)
(0.0179017 0.00784496 0.00536305)
(0.0173102 0.00854918 0.00510083)
(0.0187471 0.00695865 0.00467467)
(0.0199661 0.00407546 0.00577297)
(0.0190655 0.00440446 0.00484747)
(0.019687 0.00537281 0.00507353)
(0.0205004 0.004875 0.00568794)
(0.0194997 0.00520919 0.00482631)
(0.0191865 0.00379734 0.00546512)
(0.0171142 0.00820265 0.00515102)
(0.0173972 0.00770292 0.00477102)
(0.0165055 0.00861705 0.00538602)
(0.0169607 0.0090269 0.00523386)
(0.017911 0.00827493 0.00545815)
(0.0176885 0.00800662 0.00481646)
(0.00772345 0.00133005 0.00356347)
(0.00754221 0.00142666 0.0035559)
(0.00792705 0.00208452 0.00415935)
(0.00758866 0.00158691 0.00374645)
(0.00779055 0.00140698 0.00379848)
(0.00789867 0.00153999 0.00364362)
(0.00895795 0.00295213 0.00507257)
(0.00822502 0.00281869 0.00500096)
(0.00813321 0.00244133 0.00477385)
(0.00907265 0.00269895 0.00522676)
(0.00803279 0.00233259 0.00462164)
(0.00854507 0.00230044 0.00483671)
(0.0158553 0.0092879 0.00495154)
(0.0154975 0.0105675 0.00672638)
(0.0160455 0.00958431 0.00647949)
(0.0162264 0.0105531 0.00454414)
(0.0168981 0.0099256 0.00662768)
(0.0153097 0.0109327 0.00740348)
(0.0145818 0.00971653 0.00750337)
(0.0144193 0.00984032 0.00669411)
(0.0167665 0.0100207 0.00943371)
(0.0152435 0.00922379 0.00950149)
(0.0154694 0.0113165 0.00687192)
(0.00990551 0.000994829 0.00375981)
(0.00987355 0.000957555 0.00392897)
(0.00863927 0.000764421 0.0040576)
(0.00961742 0.000863851 0.00408648)
(0.00970089 0.000954594 0.00434679)
(0.00847096 0.00144352 0.00504968)
(0.00853505 0.00185093 0.00561799)
(0.00861221 0.00143584 0.00527739)
(0.0086824 0.00175484 0.00564586)
(0.00872537 0.00175699 0.00555959)
(0.00853424 0.00154484 0.00547816)
(0.00843638 0.00116848 0.00430174)
(0.00843034 0.00145437 0.00482833)
(0.00843162 0.00130139 0.00455277)
(0.00816218 0.00138253 0.00445792)
(0.00850362 0.00110477 0.00425672)
(0.00824368 0.00119841 0.00404616)
(0.00871665 0.00119104 0.00397269)
(0.00862478 0.00162599 0.00515069)
(0.00865935 0.00114458 0.00362052)
(0.00924918 0.00136433 0.00337245)
(0.00963175 0.0013043 0.00354116)
(0.00959418 0.00119655 0.0035864)
(0.00970305 0.00123378 0.00332541)
(0.00976509 0.00111836 0.00361387)
(0.0100776 0.00107869 0.00357436)
(0.00830951 0.00259368 0.00475006)
(0.00796786 0.00219423 0.00433548)
(0.00946458 0.0037084 0.0055235)
(0.00888561 0.00405359 0.00546889)
(0.0078809 0.00228275 0.00429017)
(0.00925431 0.00301935 0.00494435)
(0.00860758 0.0024545 0.00478438)
(0.00828709 0.00293277 0.00471054)
(0.0112636 0.00323628 0.00554729)
(0.0124279 0.00473946 0.00570863)
(0.0124144 0.00359721 0.00613912)
(0.0119566 0.00410331 0.00571852)
(0.0122968 0.00365583 0.00589278)
(0.0113802 0.00338709 0.00548337)
(0.0188081 0.00599997 0.00486233)
(0.0183225 0.00757717 0.00491422)
(0.0185065 0.0072714 0.00439597)
(0.0192773 0.00667642 0.00456492)
(0.0192344 0.00517089 0.00484661)
(0.0201079 0.00450928 0.00607865)
(0.0195729 0.00470452 0.00522662)
(0.0193796 0.00626935 0.0045783)
(0.0197491 0.00595928 0.00461059)
(0.0195368 0.0056415 0.0049713)
(0.018151 0.00743163 0.00460851)
(0.0187797 0.00676608 0.00470688)
(0.0188815 0.00522812 0.00475706)
(0.0189296 0.00732931 0.00520874)
(0.0195642 0.00600929 0.00481307)
(0.01625 0.00193139 0.0105943)
(0.0170996 0.00198425 0.0104154)
(0.0193889 0.00439236 0.00565967)
(0.012458 0.00697607 0.00692836)
(0.0126013 0.00724277 0.00757719)
(0.0130427 0.00812107 0.00669415)
(0.0129208 0.00697697 0.00719168)
(0.0131717 0.00815454 0.00653686)
(0.0132786 0.00828134 0.00592051)
(0.0123834 0.00671798 0.00597574)
(0.0114626 0.00683 0.00535527)
(0.00875531 0.00270557 0.00546098)
(0.00882077 0.00254438 0.00564844)
(0.00930964 0.00326313 0.00594466)
(0.00881524 0.0035171 0.00578784)
(0.0109971 0.00762582 0.00712191)
(0.0111041 0.00628949 0.00696924)
(0.0103853 0.00632215 0.00704321)
(0.0106401 0.00592827 0.00723707)
(0.0102646 0.00498587 0.00712958)
(0.0091 0.00381497 0.00645777)
(0.00876503 0.00410414 0.00651631)
(0.00901244 0.00287053 0.00561283)
(0.0107175 0.00689782 0.00683348)
(0.0105012 0.00508617 0.0064704)
(0.00913991 0.00433181 0.00623801)
(0.00962508 0.00530175 0.00688275)
(0.0181572 0.00516784 0.0104431)
(0.0181536 0.00638324 0.011005)
(0.0165309 0.00707387 0.0107043)
(0.0171019 0.0060688 0.0107262)
(0.0171394 0.00700574 0.0111697)
(0.0155751 0.00551758 0.0098533)
(0.0173564 0.00500996 0.0108674)
(0.0173007 0.00519063 0.0103683)
(0.0210697 0.00403588 0.00972056)
(0.0205128 0.00365643 0.00921767)
(0.021124 0.00388772 0.00949029)
(0.0211261 0.00373567 0.00886509)
(0.0217369 0.00409972 0.00938328)
(0.0208644 0.00434371 0.00991753)
(0.0200138 0.00355001 0.00905103)
(0.0170351 0.00706178 0.0102274)
(0.0190947 0.00487431 0.0102262)
(0.0191161 0.00494504 0.010293)
(0.0183244 0.00543596 0.0105714)
(0.0192401 0.00437424 0.0101383)
(0.0194405 0.00462241 0.0103416)
(0.0199327 0.00468027 0.010339)
(0.0220947 0.00428625 0.00925557)
(0.0212659 0.00430989 0.00983197)
(0.0207612 0.00395107 0.00918096)
(0.0191139 0.00472458 0.00985272)
(0.0211002 0.00408884 0.00953274)
(0.0209114 0.00378796 0.00902098)
(0.0202429 0.00399036 0.00947925)
(0.0206552 0.00443824 0.0100429)
(0.0195288 0.00403758 0.00927983)
(0.0204554 0.00364343 0.00918812)
(0.0210452 0.00431202 0.00971508)
(0.0186935 0.00449813 0.00962708)
(0.0188494 0.00519537 0.0102566)
(0.0182077 0.00553512 0.0100988)
(0.0177406 0.00354924 0.00903003)
(0.02062 0.0038257 0.00974739)
(0.020906 0.00370133 0.00943492)
(0.0155278 0.00565425 0.00620509)
(0.0146425 0.0058506 0.00612456)
(0.0145828 0.00636624 0.00443802)
(0.0135644 0.00544161 0.00395786)
(0.0155774 0.00720061 0.00592479)
(0.0176589 0.00677473 0.00938609)
(0.0153816 0.00698234 0.00628708)
(0.0164921 0.00726155 0.00716899)
(0.0161344 0.00739661 0.00783647)
(0.017033 0.00589723 0.00892782)
(0.0158912 0.00918039 0.00655379)
(0.0154963 0.00940667 0.00635692)
(0.0153947 0.00902009 0.00833974)
(0.0159336 0.00863118 0.00899438)
(0.01615 0.0093289 0.00873253)
(0.0156819 0.00993237 0.00632393)
(0.0140979 0.00940863 0.00517024)
(0.0154127 0.00853913 0.00576278)
(0.0149272 0.00843174 0.0046991)
(0.0153486 0.00831658 0.00534788)
(0.0154204 0.00857566 0.00615885)
(0.0156607 0.00896417 0.00574709)
(0.0155643 0.00931699 0.0044092)
(0.0152562 0.00698692 0.005254)
(0.0144066 0.0062602 0.00553757)
(0.0140342 0.00669883 0.00465605)
(0.0152594 0.00757664 0.00427349)
(0.0145763 0.00793649 0.00386922)
(0.0147566 0.00815453 0.00455216)
(0.0157634 0.00774787 0.00644392)
(0.014066 0.00744607 0.00438276)
(0.0154942 0.00759288 0.0055308)
(0.0160273 0.00815707 0.00612552)
(0.015719 0.00826007 0.00487619)
(0.0154306 0.00764203 0.00704013)
(0.0156631 0.00697768 0.00725111)
(0.0160092 0.0076261 0.00711454)
(0.0154754 0.00747933 0.00741293)
(0.0146945 0.00641879 0.00531108)
(0.0139026 0.00604647 0.00430466)
(0.0144255 0.00584917 0.0050484)
(0.0138071 0.00584751 0.00402078)
(0.0172543 0.00625148 0.0101297)
(0.0182906 0.0074226 0.0106629)
(0.0157188 0.00717679 0.00838747)
(0.0168552 0.00719336 0.00918476)
(0.0170922 0.00635202 0.00926392)
(0.0164619 0.00823101 0.00911989)
(0.0158364 0.00768846 0.00872527)
(0.0164135 0.00728436 0.00808129)
(0.0163313 0.00715544 0.00855981)
(0.0163945 0.0078622 0.00898967)
(0.015945 0.00721131 0.00844107)
(0.0177564 0.00438794 0.0105263)
(0.0176222 0.00379353 0.00997817)
(0.0144943 0.00834149 0.00400106)
(0.0151574 0.00871447 0.00327799)
(0.0143669 0.00854905 0.0093976)
(0.0187946 0.00373323 0.00941749)
(0.0194394 0.00332812 0.00835954)
(0.0185434 0.00322278 0.00930105)
(0.0191819 0.00354851 0.00900092)
(0.0188881 0.00377379 0.00991439)
(0.0185012 0.00378693 0.00982254)
(0.0196722 0.00373624 0.00938788)
(0.0196617 0.00319235 0.00891886)
(0.0201092 0.0038951 0.0091983)
(0.0200001 0.00381101 0.00915482)
(0.0189795 0.00335568 0.00791367)
(0.0199985 0.00368429 0.00767946)
(0.0207817 0.00345274 0.00801461)
(0.0216792 0.0041434 0.00913155)
(0.0204071 0.00383161 0.00841051)
(0.0210079 0.00376585 0.00871582)
(0.0216407 0.00395038 0.0084752)
(0.0209429 0.00395079 0.00817821)
(0.0206353 0.00433913 0.0093983)
(0.0212572 0.0041845 0.00953497)
(0.0203415 0.00407106 0.00832994)
(0.0198371 0.00375219 0.00799426)
(0.0213947 0.00454369 0.00771904)
(0.0215383 0.00442582 0.0077308)
(0.0217125 0.00463042 0.00841149)
(0.0103932 0.00272057 0.00197463)
(0.0095163 0.00227108 0.001913)
(0.00967367 0.00239751 0.00202568)
(0.0101692 0.00277519 0.00205021)
(0.0121354 0.00408323 0.00236826)
(0.011037 0.00325137 0.00212864)
(0.0117679 0.00408138 0.00205117)
(0.0141828 0.0063178 0.00380062)
(0.0131225 0.00537222 0.00320158)
(0.0141884 0.00615641 0.00376668)
(0.014218 0.0064138 0.00319562)
(0.0137406 0.0061654 0.00394444)
(0.0144121 0.00670045 0.00425226)
(0.014153 0.00642409 0.00350803)
(0.0151771 0.00814684 0.00333544)
(0.014626 0.00808608 0.00346043)
(0.0148178 0.00857003 0.00414047)
(0.0154189 0.0092637 0.00379949)
(0.0155301 0.0083235 0.00456345)
(0.0154952 0.00824553 0.00421206)
(0.0146724 0.00812156 0.00369149)
(0.0142792 0.00720326 0.00343135)
(0.0188826 0.00695366 0.00606648)
(0.0203782 0.00567498 0.00553514)
(0.0206685 0.00594592 0.00607502)
(0.0218242 0.00500592 0.00727226)
(0.0212138 0.00497258 0.00666748)
(0.021017 0.00540653 0.00623254)
(0.0210591 0.00519805 0.00609628)
(0.0218081 0.00488591 0.00708173)
(0.0219268 0.00571379 0.0064374)
(0.0217826 0.00674842 0.00590446)
(0.0189238 0.00706743 0.00521262)
(0.0200108 0.00684379 0.00528209)
(0.0200611 0.00705151 0.00530501)
(0.020055 0.00695095 0.00548156)
(0.0184523 0.00769472 0.00525622)
(0.0193056 0.00766976 0.00482967)
(0.0191131 0.00733667 0.00462887)
(0.0198338 0.0065732 0.00520331)
(0.0198002 0.00693212 0.00487014)
(0.0193929 0.00683266 0.00481639)
(0.0195761 0.00480986 0.00573172)
(0.0193828 0.00607279 0.00480804)
(0.0200307 0.00563973 0.00537105)
(0.0206935 0.00554626 0.0051042)
(0.0203041 0.00603204 0.00543609)
(0.0203102 0.00560061 0.00578646)
(0.0196878 0.00469802 0.00559641)
(0.0196198 0.00425146 0.00600358)
(0.0196349 0.00378867 0.00697208)
(0.0197664 0.00357422 0.00800116)
(0.0191223 0.00281459 0.00714497)
(0.0184445 0.00234256 0.00955103)
(0.0182251 0.00224693 0.00896248)
(0.0177647 0.00195075 0.0093657)
(0.0171599 0.00189033 0.0100935)
(0.0172372 0.00220999 0.0105267)
(0.0177367 0.002028 0.00958402)
(0.0170733 0.00233877 0.0101211)
(0.0168205 0.00222745 0.0104542)
(0.0185545 0.00273941 0.0096771)
(0.0169443 0.00217919 0.00974162)
(0.0178563 0.00220939 0.00948993)
(0.0176703 0.00230335 0.00920709)
(0.0169372 0.00251492 0.0102009)
(0.0191769 0.00262331 0.00959906)
(0.0177042 0.00284888 0.0101125)
(0.0175292 0.00337672 0.0102892)
(0.0181551 0.00267326 0.00955375)
(0.0136045 0.0047498 0.0112532)
(0.0193017 0.00411585 0.00529634)
(0.0186827 0.00337666 0.00577071)
(0.0194402 0.00319166 0.00689713)
(0.0193709 0.00416187 0.00577841)
(0.0187982 0.00481251 0.00513987)
(0.0192129 0.00520792 0.00524537)
(0.0193602 0.0061345 0.00497813)
(0.0192544 0.00547123 0.00496725)
(0.01964 0.00609691 0.0048953)
(0.015818 0.00862035 0.00494306)
(0.0146267 0.00827462 0.00604425)
(0.0162116 0.00883681 0.00503239)
(0.0144328 0.00847189 0.00469905)
(0.0147031 0.00881764 0.00488163)
(0.0192893 0.00698182 0.00434276)
(0.0193924 0.00667216 0.00453744)
(0.0196285 0.00750249 0.00453281)
(0.0178431 0.00830097 0.00478826)
(0.0181198 0.00760485 0.0040913)
(0.0184997 0.00807932 0.0045291)
(0.0171006 0.00363227 0.0104583)
(0.0175438 0.00392059 0.010301)
(0.0181672 0.00232365 0.0082154)
(0.0201573 0.00349305 0.00677861)
(0.0193759 0.00317434 0.00702836)
(0.0191128 0.00304977 0.00704797)
(0.0192275 0.00283459 0.00881748)
(0.0191017 0.00257136 0.00761825)
(0.0183538 0.00269257 0.00908336)
(0.0187199 0.00330804 0.00946065)
(0.0182576 0.00262899 0.0085035)
(0.0175062 0.00341971 0.00978509)