/*--------------------------------*- C++ -*----------------------------------*\
| =========                 |                                                 |
| \\      /  F ield         | OpenFOAM: The Open Source CFD Toolbox           |
|  \\    /   O peration     | Version:  v1612+                                |
|   \\  /    A nd           | Web:      www.OpenFOAM.com                      |
|    \\/     M anipulation  |                                                 |
\*---------------------------------------------------------------------------*/
FoamFile
{
    version     2.0;
    format      ascii;
    class       volVectorField;
    location    "118";
    object      U;
}
// * * * * * * * * * * * * * * * * * * * * * * * * * * * * * * * * * * * * * //

dimensions      [0 1 -1 0 0 0 0];

internalField   nonuniform List<vector> 
21229
(
(-0.122242 -0.0860635 -0.704601)
(-0.218734 0.219554 -0.533647)
(-0.222952 0.190221 -0.567004)
(-0.297677 0.240301 -0.454445)
(-0.314962 0.414704 -0.752935)
(-0.137215 0.151009 -0.841406)
(0.000671704 0.0772543 -0.96705)
(0.00151172 0.0698864 -0.951124)
(-0.224956 0.302206 -0.483239)
(-0.258459 0.297313 -0.802874)
(-0.288493 0.320856 -0.689464)
(-0.3053 0.505822 -0.451827)
(-0.30176 0.52361 -0.458495)
(-0.300644 0.370293 -0.824373)
(-0.355752 0.491917 -0.558583)
(-0.115592 0.373873 -0.463173)
(-0.108441 0.0213271 -0.69509)
(-0.0516151 -0.0921403 -0.680069)
(-0.308778 0.521361 -0.739876)
(-0.335597 0.487856 -0.716224)
(-0.344194 0.580543 -0.768658)
(-0.26821 0.359496 -0.492517)
(-0.281397 0.495341 -0.543179)
(-0.242013 0.442367 -0.636951)
(-0.246281 0.438009 -0.675435)
(-0.107608 0.0682887 -0.846172)
(-0.0730054 0.066305 -0.81424)
(-0.262631 0.344944 -0.576838)
(-0.00282702 0.0734677 -0.847537)
(-0.319067 0.406488 -0.489403)
(-0.193782 -0.129135 -0.77039)
(-0.242265 0.473446 -0.602333)
(-0.263658 0.493518 -0.624486)
(-0.260477 0.357281 -0.551865)
(0.0109431 0.0547507 -0.842334)
(-0.012599 0.0302726 -0.843993)
(-0.207342 0.384963 -0.553086)
(-0.298468 0.286287 -0.72943)
(-0.283453 0.319463 -0.725095)
(-0.295152 0.212263 -0.669582)
(-0.31226 0.312444 -0.72745)
(-0.337932 0.499588 -0.741058)
(-0.176917 -0.0737866 -0.720679)
(-0.293924 0.221316 -0.769466)
(-0.133897 0.195319 -0.953426)
(-0.103446 0.116756 -0.862832)
(-0.276531 0.302097 -0.492528)
(-0.32453 0.374254 -0.484777)
(-0.306736 0.376363 -0.499184)
(-0.247433 0.107922 -0.716295)
(-0.191624 0.420228 -0.468061)
(-0.259998 0.412066 -0.553748)
(0.10914 -0.0925076 -0.922005)
(-0.046925 -0.250822 -0.840166)
(-0.00292151 -0.269148 -0.832186)
(-0.372558 0.456297 -0.701406)
(-0.343805 0.43779 -0.674394)
(-0.0441497 0.309418 -0.610229)
(-0.318174 0.384897 -0.707325)
(-0.319229 0.433954 -0.441586)
(-0.352121 0.577823 -0.50601)
(-0.335488 0.530767 -0.510194)
(-0.356944 0.584806 -0.524782)
(-0.335395 0.287773 -0.588553)
(-0.241068 0.32751 -0.781948)
(-0.261874 0.177582 -0.800904)
(-0.123091 0.232433 -0.713828)
(-0.0592438 0.224106 -0.791267)
(-0.0573147 0.222731 -0.825898)
(-0.0509813 0.178991 -0.759014)
(-0.117132 0.262737 -0.686579)
(-0.301355 0.225722 -0.627977)
(-0.32222 0.297532 -0.537905)
(-0.359605 0.412181 -0.656695)
(-0.296264 0.190928 -0.54172)
(-0.27718 0.179315 -0.44654)
(-0.0294476 -0.21947 -0.866133)
(0.0392264 -0.29721 -0.761866)
(-0.345847 0.46688 -0.568366)
(-0.152632 0.116799 -0.853523)
(-0.304454 0.477041 -0.581223)
(-0.0617007 0.133067 -0.787894)
(-0.0510309 0.0726675 -0.406402)
(0.212685 0.048235 -0.660141)
(-0.033319 0.2789 -0.649347)
(-0.160583 -0.112678 -0.793594)
(-0.210318 0.0266261 -0.911585)
(0.205812 -0.122721 -0.787039)
(0.00184663 0.142241 -0.890754)
(-0.0330525 -0.122747 -0.880145)
(0.100933 -0.226461 -0.767525)
(-0.151814 0.305147 -0.699032)
(-0.143062 0.292032 -0.697651)
(-0.186133 0.340284 -0.682447)
(-0.0686716 0.0466093 -0.431343)
(-0.109466 0.0871856 -0.476409)
(-0.121954 0.135439 -0.567467)
(-0.110712 0.0403307 -0.487576)
(0.0610516 0.0349301 -0.873762)
(-0.103164 0.0621363 -0.818484)
(-0.176228 -0.137708 -0.631146)
(-0.136474 0.180544 -0.738393)
(-0.148518 0.0511019 -0.573683)
(-0.0529207 0.17321 -0.805368)
(-0.0738251 0.211812 -0.839442)
(-0.321995 0.420645 -0.499009)
(-0.0384302 0.24817 -0.593616)
(0.0334127 0.156625 -0.50431)
(0.292402 -0.135064 -0.74649)
(0.294349 -0.105216 -0.694431)
(0.317233 -0.154976 -0.675885)
(0.283339 -0.0338304 -0.617909)
(-0.260511 0.243916 -0.607808)
(-0.236953 0.171793 -0.593876)
(-0.178535 0.387601 -0.507082)
(-0.0536419 0.137553 -0.788166)
(-0.101334 0.310198 -0.56676)
(-0.0478136 0.194292 -0.536845)
(-0.282952 0.229197 -0.601196)
(-0.249404 0.479003 -0.571813)
(0.0748776 0.136235 -0.693961)
(0.097044 0.133676 -0.650127)
(-0.034603 0.245968 -0.459329)
(-0.0951031 0.089834 -0.620638)
(-0.118479 0.358715 -0.414963)
(-0.157114 0.442154 -0.465801)
(-0.362632 0.560794 -0.569281)
(-0.350432 0.522684 -0.546134)
(-0.037953 0.0727413 -0.681958)
(-0.246966 0.471383 -0.620681)
(-0.165346 0.41649 -0.465013)
(-0.290812 0.339663 -0.574708)
(-0.0809752 -0.114914 -0.791068)
(-0.242347 0.383294 -0.562242)
(-0.273099 0.455782 -0.590483)
(-0.301155 0.392548 -0.598162)
(0.0565076 -0.0554713 -0.664994)
(-0.17679 0.255508 -0.578419)
(-0.185003 0.334609 -0.631209)
(-0.23713 0.481216 -0.600626)
(-0.235184 0.449632 -0.609797)
(-0.0934474 0.252569 -0.519605)
(-0.125883 0.252359 -0.525754)
(-0.262263 0.404123 -0.582633)
(-0.303549 0.363504 -0.593419)
(-0.302091 0.335512 -0.599146)
(-0.234138 0.472677 -0.529558)
(-0.0782888 0.348242 -0.558426)
(0.203733 -0.0256623 -0.688347)
(0.00187135 0.0674104 -0.842704)
(-0.225932 0.341405 -0.754209)
(-0.0267438 -0.1159 -0.951206)
(-0.205645 0.0897891 -0.860083)
(-0.244357 0.189499 -0.652979)
(-0.28419 0.235515 -0.577076)
(-0.276145 0.237208 -0.643142)
(-0.155101 -0.12653 -0.658114)
(-0.217439 -0.00520684 -0.825596)
(-0.14233 0.0584242 -0.646648)
(-0.234767 0.0839915 -0.652629)
(0.0332669 -0.006002 -0.956551)
(-0.0129537 -0.0512791 -0.893488)
(-0.0181932 -0.00258284 -0.926672)
(0.0459361 0.0900388 -0.346396)
(0.175133 0.082411 -0.579067)
(-0.0732168 0.139752 -0.465406)
(-0.219415 0.113157 -0.648529)
(-0.339835 0.497954 -0.516435)
(-0.361181 0.552483 -0.52519)
(-0.134787 0.194543 -0.687079)
(-0.104257 -0.163542 -0.846762)
(-0.328127 0.428594 -0.476145)
(-0.132377 -0.104883 -0.749843)
(-0.133117 -0.127919 -0.716009)
(-0.231076 0.366445 -0.596569)
(-0.275408 0.282347 -0.475428)
(-0.226424 0.359655 -0.638931)
(-0.205138 0.379753 -0.630349)
(-0.210633 0.359727 -0.613182)
(-0.243511 0.377354 -0.600668)
(-0.236938 0.330759 -0.579834)
(-0.263575 0.398664 -0.586157)
(0.114198 0.095495 -0.449303)
(-0.201418 -0.0241104 -0.727129)
(-0.161502 -0.0703667 -0.743642)
(-0.236019 -0.000424195 -0.671482)
(-0.129378 -0.154275 -0.783301)
(-0.187223 -0.0604017 -0.848213)
(-0.261198 0.321748 -0.513683)
(-0.302585 0.172315 -0.635671)
(-0.0672126 -0.202762 -0.78954)
(-0.0479735 -0.230988 -0.691146)
(-0.072709 -0.219718 -0.805201)
(-0.0726079 0.0107061 -0.879355)
(-0.0567117 0.127838 -0.870669)
(-0.0423518 0.153165 -0.871203)
(0.114588 0.150521 -0.569848)
(-0.0390264 0.0809008 -0.749261)
(-0.0908071 0.159539 -0.810385)
(-0.073723 0.259648 -0.483796)
(-0.0973657 0.344033 -0.434611)
(-0.305921 0.4128 -0.431232)
(-0.263847 0.259148 -0.674705)
(-0.269817 0.315351 -0.542575)
(-0.211921 0.220879 -0.535453)
(-0.181794 0.0936904 -0.770816)
(-0.255138 0.204318 -0.824036)
(-0.302916 0.391584 -0.448216)
(-0.23979 0.366558 -0.476682)
(-0.310542 0.464857 -0.448641)
(-0.287654 0.435011 -0.443125)
(-0.318383 0.462185 -0.592528)
(-0.308443 0.439591 -0.564398)
(-0.282581 0.439514 -0.568832)
(-0.308978 0.523174 -0.605123)
(-0.302152 0.500846 -0.625486)
(-0.0650472 0.300796 -0.490544)
(-0.111294 0.329246 -0.557178)
(-0.0891122 0.239617 -0.555619)
(-0.0433678 -0.0338109 -0.810535)
(-0.160846 0.113109 -0.863551)
(-0.0534932 0.00365104 -0.785772)
(-0.288472 0.321213 -0.582668)
(-0.2083 -0.0508712 -0.72685)
(-0.263908 0.168001 -0.641977)
(-0.288777 0.199373 -0.593162)
(-0.212602 0.40586 -0.518411)
(-0.0828653 0.173067 -0.752184)
(-0.100114 0.184554 -0.802505)
(-0.216425 0.047805 -0.575903)
(-0.319545 0.239862 -0.577882)
(-0.0971548 0.342516 -0.549975)
(0.101887 0.142127 -0.51656)
(0.0404001 0.221338 -0.628694)
(0.0419127 0.202381 -0.551796)
(-0.0558137 0.305963 -0.601023)
(-0.124432 0.387862 -0.57532)
(-0.104843 0.361766 -0.524849)
(-0.276307 0.258681 -0.478663)
(-0.187491 0.189183 -0.865218)
(-0.275998 0.458873 -0.421711)
(-0.281781 0.415938 -0.399146)
(-0.287869 0.454062 -0.457738)
(0.0386772 -0.0415001 -0.706517)
(0.203607 0.0696555 -0.575603)
(0.188492 0.07082 -0.595066)
(0.211584 0.0548575 -0.557223)
(0.156036 0.112201 -0.573846)
(-0.0256711 0.11336 -0.885676)
(-0.00459148 0.0219448 -0.950064)
(-0.0152121 0.104531 -0.810462)
(-0.0224733 0.111046 -0.818381)
(-0.273749 0.136733 -0.628186)
(-0.172165 0.0657188 -0.677829)
(-0.281425 0.131566 -0.635606)
(-0.25725 0.108566 -0.625785)
(-0.226768 0.0812233 -0.655826)
(-0.26521 0.0523263 -0.607892)
(-0.15996 -0.126659 -0.780719)
(-0.112893 -0.204134 -0.778187)
(-0.301717 0.25717 -0.523419)
(-0.32457 0.334531 -0.522339)
(0.0862143 0.000871022 -0.674925)
(-0.071708 -0.0982135 -0.788845)
(-0.331607 0.486474 -0.494174)
(-0.288318 0.545014 -0.485932)
(-0.237264 0.336427 -0.669416)
(-0.26124 0.352409 -0.724208)
(-0.114012 0.287814 -0.394613)
(-0.165996 0.335016 -0.468019)
(-0.107993 0.238432 -0.40239)
(-0.108384 0.324579 -0.42806)
(-0.273828 0.480094 -0.44022)
(-0.239926 0.520157 -0.494247)
(-0.326109 0.335817 -0.578896)
(-0.304275 0.225494 -0.520499)
(-0.335524 0.33641 -0.517144)
(-0.309169 0.341204 -0.632543)
(-0.303118 0.401863 -0.675289)
(-0.297999 0.390209 -0.616421)
(-0.114651 0.357877 -0.398514)
(-0.118924 0.381052 -0.427622)
(-0.17542 0.447036 -0.446267)
(-0.098669 -0.0698119 -0.732648)
(-0.112703 -0.0446655 -0.743481)
(0.00895672 -0.0855167 -0.703676)
(-0.000115843 -0.112914 -0.665494)
(-0.111003 0.276111 -0.771093)
(-0.166244 0.243442 -0.822612)
(-0.344988 0.477987 -0.568071)
(-0.160861 0.202261 -0.698065)
(-0.184185 0.24899 -0.642425)
(-0.228464 0.31477 -0.686945)
(-0.243156 0.361149 -0.785263)
(-0.22301 0.203201 -0.748483)
(-0.0633039 0.0548658 -0.805684)
(-0.24136 0.0816509 -0.502003)
(-0.310616 0.437761 -0.547512)
(-0.108941 0.376039 -0.52775)
(-0.084057 0.342369 -0.476996)
(-0.162102 0.175969 -0.543984)
(-0.136151 0.144594 -0.547463)
(-0.28384 0.429239 -0.422947)
(-0.306652 0.472221 -0.446185)
(-0.301435 0.409127 -0.437692)
(-0.334866 0.557532 -0.560176)
(-0.322142 0.419106 -0.451135)
(-0.326667 0.406932 -0.457112)
(-0.175633 0.331408 -0.571113)
(-0.163232 0.30906 -0.621708)
(-0.174271 0.36401 -0.636047)
(-0.228079 0.327445 -0.604768)
(-0.200571 0.291178 -0.57846)
(-0.159633 0.298586 -0.612944)
(-0.222567 0.329126 -0.579048)
(-0.257362 0.540309 -0.517199)
(-0.137212 0.0139704 -0.54384)
(-0.156279 0.084436 -0.53496)
(-0.20959 0.316203 -0.557495)
(-0.23664 0.44172 -0.532611)
(-0.225562 0.368768 -0.475265)
(-0.249617 0.358 -0.532)
(-0.209736 0.344503 -0.475791)
(-0.233038 0.375929 -0.529785)
(-0.314567 0.285905 -0.49997)
(-0.307001 0.267212 -0.491586)
(-0.00751306 -0.0303634 -0.849707)
(-0.256134 0.202571 -0.472042)
(-0.220931 0.245419 -0.507211)
(-0.309616 0.258676 -0.564146)
(-0.318256 0.272324 -0.508917)
(-0.261655 0.443011 -0.458955)
(-0.224432 0.340201 -0.520904)
(-0.283282 0.341505 -0.506107)
(-0.0487973 -0.240691 -0.800301)
(-0.339638 0.417998 -0.617497)
(-0.258892 0.327215 -0.445056)
(-0.196264 0.31296 -0.516062)
(-0.20425 -0.06918 -0.709423)
(-0.11415 0.030216 -0.66236)
(-0.135984 -0.0380751 -0.719846)
(-0.0979799 0.173215 -0.668143)
(-0.151409 0.160881 -0.734556)
(-0.096538 0.172488 -0.74996)
(-0.126132 0.139629 -0.743703)
(-0.00626862 0.0679683 -0.339118)
(-0.0439196 0.037798 -0.379836)
(-0.239542 0.471759 -0.463552)
(-0.308529 0.227812 -0.521003)
(-0.327479 0.307463 -0.552947)
(-0.244893 0.114502 -0.671671)
(-0.251987 0.0305041 -0.67285)
(-0.241102 -0.00547281 -0.647915)
(-0.273825 0.0481002 -0.707365)
(-0.321232 0.402004 -0.420436)
(-0.270347 0.440259 -0.517938)
(-0.27007 0.416527 -0.50315)
(-0.286032 0.460473 -0.562384)
(-0.207933 0.327843 -0.763677)
(-0.142852 0.3561 -0.686324)
(-0.28766 0.458658 -0.528417)
(-0.303671 0.444705 -0.56724)
(-0.291161 0.34685 -0.479336)
(-0.310974 0.371021 -0.523999)
(-0.276804 0.225475 -0.435233)
(-0.119885 0.14911 -0.545648)
(0.0326744 0.0464188 -0.639803)
(-0.311151 0.551145 -0.495066)
(-0.235543 0.412844 -0.53256)
(-0.255509 0.468407 -0.568832)
(-0.249813 0.299801 -0.608831)
(-0.246498 0.254086 -0.647619)
(0.113959 -0.353804 -0.830959)
(-0.0281766 0.275258 -0.578777)
(-0.0101137 0.25358 -0.49962)
(-0.0132721 0.251592 -0.556977)
(0.0345073 0.192146 -0.528003)
(-0.0584614 0.27756 -0.560241)
(-0.0352421 0.192703 -0.562661)
(-0.0206102 0.0580495 -0.640725)
(-0.0473717 0.200014 -0.587564)
(-0.328117 0.3427 -0.740099)
(-0.304954 0.285903 -0.726447)
(-0.262499 0.302799 -0.674884)
(-0.278649 0.479974 -0.398115)
(-0.244869 0.502573 -0.41441)
(-0.128998 0.0163383 -0.916119)
(-0.00955327 -0.150881 -0.834938)
(-0.350727 0.477128 -0.575256)
(-0.262672 0.464019 -0.428945)
(-0.358816 0.546651 -0.572143)
(-0.341692 0.438574 -0.513399)
(-0.355119 0.404842 -0.578599)
(-0.323728 0.615613 -0.525852)
(-0.192679 0.393362 -0.553288)
(-0.218525 0.445615 -0.572066)
(-0.25474 0.526953 -0.595583)
(-0.128618 0.24006 -0.448345)
(-0.088244 0.231459 -0.735898)
(-0.134781 0.304741 -0.558871)
(-0.156286 0.171814 -0.741138)
(-0.151443 -0.135582 -0.681098)
(-0.220957 -0.0505539 -0.674499)
(-0.221736 -0.0788638 -0.744223)
(-0.261555 -0.0173844 -0.750194)
(-0.218644 -0.0900159 -0.696356)
(-0.301788 0.344919 -0.598631)
(-0.0396625 -0.0859158 -0.822661)
(-0.208356 0.117844 -0.572452)
(-0.0960584 0.112068 -0.790399)
(-0.0662615 0.0991658 -0.740979)
(-0.266346 0.301288 -0.475986)
(-0.277385 0.472234 -0.413499)
(-0.151911 0.238038 -0.692175)
(-0.349837 0.450678 -0.577644)
(-0.301414 0.310645 -0.480728)
(-0.137093 0.209731 -0.459292)
(-0.155315 -0.13565 -0.801055)
(-0.13114 -0.161684 -0.856258)
(-0.291329 0.148606 -0.564292)
(-0.314449 0.320642 -0.490555)
(-0.201011 0.269043 -0.432474)
(-0.258138 0.477888 -0.561874)
(-0.249157 -0.0296193 -0.685479)
(-0.00183667 0.0859279 -0.771648)
(-0.0701187 -0.214532 -0.776316)
(-0.0600812 0.0348578 -0.799582)
(-0.172318 0.343572 -0.543031)
(-0.267713 0.336603 -0.775531)
(-0.111952 0.12859 -0.622752)
(-0.23267 0.437278 -0.565503)
(-0.236888 0.351866 -0.704809)
(-0.0916276 0.186784 -0.706039)
(-0.294062 0.263113 -0.48533)
(-0.250712 0.487029 -0.471862)
(-0.162479 0.0130682 -0.81553)
(-0.170545 0.210208 -0.509592)
(-0.198371 0.270512 -0.594289)
(-0.23376 0.32835 -0.660639)
(0.290432 -0.025223 -0.542081)
(-0.202785 0.445133 -0.434425)
(-0.112911 0.219164 -0.694156)
(-0.227491 0.306095 -0.428992)
(-0.073401 0.129214 -0.62056)
(-0.124033 0.371541 -0.400473)
(-0.0510076 0.298383 -0.499329)
(-0.286074 0.43951 -0.557167)
(-0.327249 0.402587 -0.429638)
(-0.0256174 -0.186127 -0.763569)
(-0.300228 0.267693 -0.479624)
(-0.152089 -0.180843 -0.750619)
(0.00112006 0.126755 -0.821289)
(-0.155881 0.33193 -0.501343)
(-0.312382 0.257712 -0.496025)
(-0.344397 0.398058 -0.545765)
(-0.262338 0.143612 -0.534508)
(-0.312108 0.174272 -0.593205)
(0.0668098 0.070092 -0.37813)
(-0.317462 0.385243 -0.575507)
(-0.239632 0.435969 -0.467178)
(-0.247016 0.492767 -0.56907)
(-0.250095 0.536729 -0.561372)
(-0.20794 0.454962 -0.525017)
(-0.179374 0.474025 -0.455563)
(-0.266203 0.475755 -0.558978)
(-0.219576 0.376741 -0.469811)
(-0.20119 0.351843 -0.460116)
(-0.220926 0.400002 -0.48811)
(-0.214297 0.47952 -0.50141)
(-0.136989 -0.144736 -0.827164)
(-0.142619 -0.158117 -0.866014)
(-0.131803 0.406566 -0.511725)
(-0.0807994 0.333043 -0.457517)
(-0.325498 0.414278 -0.462765)
(-0.320532 0.455751 -0.462034)
(-0.142515 0.142017 -0.789193)
(-0.044092 0.0908427 -0.811979)
(-0.34852 0.346754 -0.608302)
(-0.332558 0.330542 -0.573827)
(-0.244868 0.375309 -0.579016)
(-0.0824168 0.324032 -0.511307)
(-0.119971 0.357787 -0.528665)
(-0.148557 0.385382 -0.531268)
(0.110718 -0.139557 -0.693479)
(-0.166142 -0.148221 -0.662768)
(0.190295 -0.0945282 -0.75776)
(-0.209221 0.0474001 -0.748521)
(-0.216206 0.00704053 -0.775475)
(-0.207501 -0.0135608 -0.720837)
(0.211575 0.0335176 -0.411566)
(0.239893 0.0235667 -0.468678)
(0.0849378 -0.292082 -0.832305)
(-0.315756 0.220792 -0.732996)
(-0.28856 0.25343 -0.736875)
(-0.312659 0.22075 -0.556477)
(-0.243508 0.0789318 -0.585566)
(0.0654337 -0.111209 -0.682423)
(0.0243739 -0.0511286 -0.687662)
(-0.254398 0.245271 -0.487476)
(-0.203566 0.234941 -0.483612)
(-0.159254 0.216855 -0.449199)
(-0.178693 0.186877 -0.632671)
(-0.252286 0.502461 -0.502896)
(-0.138566 0.228448 -0.499246)
(-0.126153 0.28324 -0.49466)
(-0.111315 0.308081 -0.479071)
(-0.258142 0.541902 -0.529616)
(-0.175034 0.320849 -0.648525)
(-0.230567 0.490394 -0.502987)
(-0.143598 0.0354357 -0.843225)
(-0.135373 0.0315649 -0.750648)
(-0.114173 0.00430178 -0.789756)
(-0.144064 -0.00985726 -0.791125)
(-0.10602 -0.0180509 -0.829401)
(-0.300819 0.19326 -0.586951)
(0.197311 -0.286431 -0.774307)
(-0.0892345 -0.0832119 -0.830451)
(-0.182529 0.388373 -0.472119)
(-0.246407 0.377829 -0.47177)
(-0.153238 0.345877 -0.554625)
(-0.195949 0.372293 -0.649589)
(-0.16336 0.340053 -0.564351)
(-0.146274 0.32188 -0.546531)
(-0.255629 0.331452 -0.453589)
(0.0288322 0.218145 -0.517968)
(0.071814 0.182546 -0.604632)
(-0.226261 0.302377 -0.494686)
(-0.27594 0.317063 -0.512654)
(-0.271259 0.279507 -0.529796)
(-0.220643 0.357767 -0.472895)
(0.116984 -0.136763 -0.779775)
(0.156662 -0.163326 -0.744072)
(-0.222834 0.386933 -0.708423)
(-0.288034 0.198632 -0.410907)
(-0.32671 0.329821 -0.495322)
(-0.110678 0.116822 -0.592431)
(-0.104939 0.030353 -0.564222)
(-0.310303 0.260135 -0.609212)
(-0.198587 0.255904 -0.735669)
(-0.124389 0.366209 -0.365439)
(-0.238651 0.337647 -0.431526)
(-0.258493 0.390153 -0.474944)
(0.00843087 -0.101418 -0.901196)
(-0.216174 0.0965666 -0.580462)
(-0.206057 0.323693 -0.427647)
(-0.233968 0.33217 -0.61406)
(0.108197 0.075806 -0.612849)
(-0.281858 0.223899 -0.419672)
(-0.211885 -0.0441883 -0.735925)
(-0.0150485 0.229839 -0.544589)
(-0.133211 -0.111147 -0.759806)
(-0.145958 0.349342 -0.487291)
(-0.119566 0.344222 -0.487485)
(-0.317598 0.286138 -0.673083)
(-0.228647 0.489622 -0.449558)
(0.194411 0.0613327 -0.447669)
(-0.248493 0.407148 -0.623519)
(-0.173804 -0.131175 -0.857365)
(-0.200685 -0.10508 -0.812319)
(0.00242044 0.0927729 -0.885921)
(-0.218153 0.376876 -0.608415)
(-0.22479 -0.0311103 -0.667865)
(-0.22755 0.420128 -0.624453)
(-0.189491 0.392906 -0.578445)
(-0.129441 0.190106 -0.482209)
(-0.12153 0.204989 -0.507262)
(-0.345548 0.462927 -0.571854)
(-0.336453 0.464169 -0.595689)
(-0.200105 -0.08013 -0.714137)
(-0.214466 0.287835 -0.526813)
(-0.324103 0.345456 -0.564163)
(-0.313205 0.394134 -0.428221)
(-0.0513117 0.0472111 -0.824451)
(-0.0644544 0.199558 -0.729228)
(-0.0949362 0.293983 -0.3759)
(-0.143562 0.191465 -0.457333)
(-0.131252 0.211139 -0.465144)
(-0.144406 0.426279 -0.423996)
(-0.160833 0.371325 -0.472096)
(-0.342856 0.472854 -0.580784)
(-0.13091 0.187789 -0.697325)
(-0.153466 -0.101131 -0.663556)
(-0.285962 0.387185 -0.517432)
(-0.251971 0.510592 -0.565909)
(-0.295096 0.290555 -0.435604)
(-0.151715 0.0549144 -0.731473)
(-0.20752 0.0815179 -0.692586)
(-0.260693 0.188795 -0.667063)
(-0.375089 0.478811 -0.695412)
(-0.364099 0.392796 -0.647174)
(-0.36156 0.476288 -0.667051)
(-0.123887 0.362318 -0.489668)
(-0.0670853 0.283501 -0.4568)
(-0.0291203 0.212415 -0.468366)
(-0.13109 0.299866 -0.545675)
(-0.00101063 0.124679 -0.818201)
(-0.0486486 0.17427 -0.762259)
(-0.110119 0.273981 -0.794457)
(-0.262745 0.30347 -0.449281)
(-0.201195 0.423013 -0.626052)
(-0.20253 0.140619 -0.557272)
(-0.222191 0.0862382 -0.498675)
(-0.299662 0.250118 -0.525522)
(-0.100393 0.239235 -0.89117)
(-0.316344 0.371521 -0.435512)
(-0.325189 0.496919 -0.607776)
(-0.0321375 0.0628797 -0.836333)
(0.0280278 -0.0402054 -0.818097)
(-0.0929955 0.248394 -0.806842)
(-0.112884 0.341771 -0.589334)
(-0.0997358 0.239415 -0.410587)
(-0.0868471 0.154341 -0.550146)
(-0.0671112 0.144132 -0.815043)
(-0.266963 0.39308 -0.614844)
(-0.171703 0.354931 -0.564002)
(-0.21129 0.413952 -0.602056)
(0.0479121 -0.149269 -0.751281)
(-0.187683 0.356104 -0.46235)
(-0.228023 0.439384 -0.535148)
(0.0424293 0.0798666 -0.826293)
(0.0213116 0.0776195 -0.93092)
(-0.298843 0.18609 -0.631882)
(-0.274233 0.114307 -0.578944)
(-0.283195 0.157164 -0.606017)
(-0.0424155 0.0494758 -0.884308)
(-0.342503 0.438878 -0.513029)
(-0.186666 0.146907 -0.811698)
(-0.21449 0.17279 -0.815944)
(-0.102808 0.344714 -0.416186)
(-0.199214 0.426709 -0.495026)
(-0.078315 -0.265554 -0.797497)
(0.181232 0.0802616 -0.508091)
(0.188724 0.0697209 -0.459801)
(-0.161491 0.163803 -0.646422)
(-0.0907978 0.147972 -0.668845)
(-0.159447 0.118219 -0.63865)
(-0.313469 0.284098 -0.517459)
(-0.29691 0.349536 -0.540037)
(-0.270229 0.194887 -0.471331)
(-0.127698 0.407299 -0.481546)
(-0.120644 0.351372 -0.53264)
(-0.314765 0.362711 -0.512657)
(-0.277764 0.292921 -0.457835)
(-0.312126 0.31311 -0.432307)
(-0.292214 0.28656 -0.429532)
(-0.202798 0.432828 -0.442861)
(-0.203914 0.425755 -0.438747)
(-0.221735 0.451814 -0.473715)
(-0.267247 0.56489 -0.498748)
(-0.237658 0.523562 -0.49399)
(-0.25989 0.154034 -0.512471)
(-0.261 0.183433 -0.601236)
(-0.260035 0.176612 -0.635036)
(-0.267609 0.0989981 -0.566986)
(-0.266126 0.141298 -0.655835)
(-0.288 0.164313 -0.501)
(-0.119323 -0.171313 -0.74996)
(-0.02568 0.143347 -0.569603)
(-0.344869 0.498089 -0.606573)
(-0.340075 0.459334 -0.629535)
(-0.322507 0.377211 -0.653326)
(-0.116903 0.235761 -0.995265)
(-0.0990606 0.287251 -0.788205)
(0.258653 -0.0368368 -0.607426)
(-0.171107 -0.0839032 -0.721064)
(0.227104 0.0277072 -0.636004)
(-0.220798 0.161991 -0.929389)
(-0.199593 0.299989 -0.939279)
(-0.0254367 0.274033 -0.592291)
(-0.174399 0.03766 -0.645781)
(-0.320869 0.249659 -0.546604)
(-0.112964 -0.1986 -0.875948)
(-0.0165159 0.0694738 -0.88756)
(-0.0929195 0.219592 -1.04373)
(-0.252366 0.460605 -0.634313)
(-0.362655 0.778738 -0.664248)
(-0.341652 0.64495 -0.800283)
(-0.17374 0.34279 -0.905492)
(-0.193703 0.287915 -0.585531)
(-0.28576 0.438085 -0.913196)
(-0.0801619 0.174006 -0.730925)
(-0.371807 0.616858 -0.725126)
(-0.366953 0.635921 -0.648663)
(-0.230844 0.373638 -0.616905)
(-0.152853 0.328367 -0.528911)
(-0.363829 0.585885 -0.549228)
(-0.297239 0.238407 -0.731559)
(-0.258018 0.283211 -0.885432)
(-0.185613 0.20913 -0.960651)
(-0.194853 0.140645 -0.827636)
(-0.111359 0.262705 -0.976946)
(-0.189385 0.311782 -0.898203)
(-0.132094 0.306327 -0.817313)
(-0.0663024 -0.149436 -0.897171)
(-0.249607 0.160561 -0.906087)
(-0.0998779 -0.135491 -0.799868)
(-0.173652 -0.102512 -0.802206)
(-0.198612 -0.123503 -0.757375)
(-0.0901582 -0.180629 -0.802137)
(0.155732 0.0773523 -0.728637)
(-0.235229 0.463348 -0.673567)
(-0.0605677 0.228979 -0.583735)
(-0.140315 0.34313 -0.726464)
(-0.215776 0.415335 -0.716664)
(-0.213957 0.325497 -0.890272)
(-0.115031 0.168046 -0.609175)
(-0.259489 0.282741 -0.677222)
(-0.0821865 0.250798 -0.621267)
(-0.234038 0.246247 -0.826434)
(-0.159899 0.153679 -0.568279)
(-0.188798 0.382397 -0.727223)
(0.207468 0.0303183 -0.665778)
(-0.0349507 -0.0648404 -0.910602)
(-0.142985 -0.0242125 -0.830623)
(-0.176373 0.215623 -0.87006)
(0.185183 -0.15848 -0.777516)
(0.0581713 -0.203427 -0.80433)
(-0.198909 0.292477 -0.848188)
(0.0133629 0.158586 -0.486436)
(-0.165161 0.214222 -0.737702)
(-0.131049 0.0718282 -0.903296)
(-0.197572 0.302292 -0.801432)
(0.021582 0.147027 -0.640633)
(-0.150212 0.202198 -0.825533)
(-0.275672 0.444843 -0.901931)
(-0.278753 0.465902 -0.752809)
(-0.0451983 0.167191 -0.740738)
(-0.141748 0.34669 -0.712876)
(-0.294482 0.497585 -0.829166)
(-0.257396 0.503665 -0.762948)
(-0.0930076 0.249737 -0.765029)
(-0.174551 0.290943 -0.652591)
(-0.314045 0.263909 -0.583771)
(-0.328693 0.351205 -0.686688)
(-0.112434 0.078679 -0.574336)
(-0.317243 0.482636 -0.529468)
(-0.106438 0.177091 -0.564071)
(-0.107839 0.223126 -0.999041)
(-0.0790211 0.0331711 -0.979471)
(-0.202402 0.062783 -0.942825)
(-0.171388 -0.102698 -0.778662)
(-0.197514 0.0100956 -0.894949)
(-0.149161 0.240979 -1.00384)
(-0.176676 0.102695 -0.979898)
(-0.137222 -0.106281 -0.917456)
(-0.331007 0.574379 -0.513166)
(-0.201783 0.507439 -0.579826)
(-0.336039 0.517307 -0.515283)
(-0.2085 0.478503 -0.450049)
(-0.363009 0.628299 -0.617373)
(-0.347123 0.555046 -0.531443)
(-0.33005 0.322702 -0.615788)
(-0.343032 0.748475 -0.648165)
(-0.357044 0.7777 -0.655061)
(-0.240377 0.518679 -0.521833)
(-0.239036 0.0369017 -0.745578)
(-0.267407 0.151693 -0.761076)
(-0.302441 0.337979 -0.777872)
(-0.347277 0.532094 -0.769034)
(-0.315892 0.634044 -0.704504)
(-0.325518 0.581579 -0.803503)
(-0.330416 0.430378 -0.728109)
(-0.353357 0.576259 -0.751375)
(-0.286866 0.551696 -0.743073)
(-0.260018 0.485007 -0.929998)
(-0.254445 0.381181 -0.840612)
(-0.100114 0.258881 -0.663443)
(-0.279136 0.448553 -0.874283)
(-0.239223 0.189729 -0.718387)
(-0.257195 0.0707351 -0.656193)
(-0.272153 0.221656 -0.610861)
(-0.267667 0.0769898 -0.588068)
(-0.321968 0.340191 -0.785698)
(-0.15634 0.279694 -0.777108)
(-0.252057 0.320987 -0.66497)
(-0.223675 0.231901 -0.552743)
(-0.326929 0.505757 -0.796008)
(-0.305672 0.54256 -0.889279)
(-0.273225 0.297641 -0.854917)
(-0.293697 0.450556 -0.870276)
(-0.332156 0.543667 -0.815675)
(-0.312749 0.526204 -0.84405)
(-0.305025 0.376418 -0.840837)
(-0.0837008 0.211494 -0.982773)
(0.000313439 -0.0578021 -0.854706)
(-0.199152 -0.036494 -0.748973)
(-0.0153473 0.0832782 -0.783542)
(-0.356014 0.744458 -0.687755)
(-0.353985 0.576963 -0.665601)
(-0.315037 0.676691 -0.651857)
(-0.359722 0.69776 -0.750418)
(-0.358645 0.768535 -0.665333)
(-0.369236 0.674323 -0.658505)
(-0.351557 0.726639 -0.738251)
(-0.281798 0.384315 -0.730447)
(-0.231502 0.488651 -0.57021)
(-0.347715 0.655933 -0.734013)
(-0.320476 0.591577 -0.747214)
(-0.2369 0.410353 -0.61675)
(-0.177184 0.229743 -0.764518)
(-0.345428 0.643965 -0.790433)
(-0.347873 0.555568 -0.675733)
(-0.351073 0.665205 -0.674383)
(-0.355434 0.677265 -0.705795)
(-0.358055 0.612641 -0.746861)
(-0.367996 0.587516 -0.697264)
(-0.358503 0.725499 -0.711286)
(-0.245785 0.485442 -0.534935)
(-0.207279 0.440965 -0.597681)
(-0.298891 0.546306 -0.831573)
(-0.203152 0.422942 -0.637502)
(-0.236707 0.425462 -0.528703)
(-0.221383 0.470878 -0.559705)
(-0.265064 0.459349 -0.735535)
(-0.204772 0.441254 -0.577834)
(-0.335764 0.650687 -0.709886)
(-0.303762 0.613854 -0.683446)
(-0.178682 0.379465 -0.61623)
(-0.322291 0.602022 -0.6083)
(-0.289818 0.36634 -0.470766)
(-0.340116 0.427069 -0.526952)
(-0.303298 0.320312 -0.447919)
(-0.337179 0.470046 -0.525808)
(-0.262432 0.254136 -0.561852)
(-0.364685 0.569825 -0.675736)
(-0.312886 0.310466 -0.503063)
(-0.282553 0.406127 -0.452554)
(-0.29566 0.499452 -0.503925)
(-0.286463 0.300268 -0.402581)
(-0.209861 0.351773 -0.971105)
(-0.19545 0.324661 -0.963412)
(-0.227911 0.401431 -0.963637)
(-0.201416 0.333847 -0.97887)
(-0.164912 0.330382 -1.00395)
(-0.154447 0.314571 -1.0063)
(-0.224742 0.369952 -0.977564)
(0.188208 0.0219504 -0.622056)
(0.203645 -0.0037689 -0.651406)
(-0.0335089 -0.082378 -0.730624)
(-0.133113 -0.110545 -0.7148)
(0.145052 0.108351 -0.552548)
(-0.0963023 0.109457 -0.667625)
(-0.18591 0.27745 -0.765566)
(-0.0618437 0.0338973 -0.65132)
(-0.0926514 0.148548 -0.75343)
(-0.00270421 0.10328 -0.679546)
(-0.062774 0.0863704 -0.718034)
(0.0327371 0.216269 -0.605166)
(0.0768579 0.168501 -0.545573)
(-0.00977857 0.214023 -0.569557)
(-0.265584 0.278928 -0.912153)
(-0.242765 0.335266 -0.900491)
(-0.247578 0.288064 -0.933834)
(-0.253126 0.290996 -0.925355)
(-0.251019 0.239114 -0.917108)
(-0.23687 0.199055 -0.908148)
(-0.251175 0.300769 -0.94)
(-0.22313 0.220164 -0.954937)
(-0.24278 0.35341 -0.902873)
(-0.221963 0.267442 -0.962481)
(-0.229531 0.337478 -0.938377)
(-0.211658 0.247171 -0.927058)
(-0.212017 0.273105 -0.919895)
(-0.230876 0.306493 -0.938466)
(0.110391 0.143458 -0.629107)
(0.0229048 0.207217 -0.643495)
(0.11771 0.131942 -0.572213)
(0.0109963 0.244977 -0.60762)
(0.137506 0.128887 -0.563029)
(-0.18783 0.0273175 -0.689017)
(-0.180681 0.131039 -0.694699)
(-0.178754 0.0411396 -0.634894)
(-0.33874 0.263191 -0.555763)
(-0.275645 0.161103 -0.515617)
(-0.304852 0.291875 -0.543117)
(-0.150548 0.0533672 -0.690069)
(-0.0733792 -0.121038 -0.877373)
(-0.112284 -0.0495803 -0.875996)
(-0.130774 0.0840471 -0.901126)
(-0.111685 0.135051 -1.00434)
(-0.155477 0.157657 -0.943522)
(-0.115503 0.162057 -0.9986)
(-0.0596947 0.103203 -0.932271)
(-0.145606 0.168222 -0.982257)
(-0.0574741 0.156701 -0.989508)
(-0.113395 0.170109 -1.01989)
(-0.123554 0.220244 -0.992931)
(-0.132391 0.202775 -1.01408)
(-0.0800809 0.18004 -1.03937)
(-0.0934289 0.189962 -1.04281)
(-0.137279 0.227493 -1.00658)
(-0.240471 0.134567 -0.774952)
(-0.309695 0.235286 -0.715398)
(-0.311255 0.239864 -0.752881)
(-0.330965 0.625895 -0.733632)
(-0.344062 0.590304 -0.765599)
(-0.298908 0.554114 -0.678523)
(-0.255475 0.462061 -0.592751)
(-0.329235 0.476297 -0.666367)
(-0.343453 0.456188 -0.603646)
(-0.363111 0.537451 -0.587498)
(-0.37227 0.739056 -0.646524)
(-0.365335 0.709903 -0.620835)
(-0.359359 0.767791 -0.629072)
(-0.367801 0.775108 -0.654965)
(-0.363264 0.783236 -0.654064)
(-0.363426 0.759257 -0.628363)
(-0.337077 0.654992 -0.763718)
(-0.320489 0.603378 -0.807516)
(-0.34061 0.629214 -0.800411)
(-0.324137 0.606574 -0.811951)
(-0.337136 0.647821 -0.784012)
(-0.338286 0.634228 -0.785183)
(-0.324574 0.622643 -0.816483)
(-0.237119 0.419249 -0.949755)
(-0.2504 0.362391 -0.873123)
(-0.22018 0.361882 -0.950916)
(-0.239243 0.336694 -0.891146)
(-0.219401 0.385123 -0.932394)
(-0.220546 0.3911 -0.904926)
(-0.245227 0.346363 -0.905266)
(-0.325195 0.312244 -0.673125)
(-0.299756 0.35683 -0.696813)
(-0.311328 0.256751 -0.546793)
(-0.257303 0.24979 -0.559539)
(-0.292761 0.181261 -0.573008)
(-0.280338 0.220899 -0.532646)
(-0.276402 0.331037 -0.684828)
(-0.265649 0.307666 -0.630646)
(-0.231948 0.277419 -0.605074)
(-0.27933 0.30347 -0.906519)
(-0.273841 0.35779 -0.876952)
(-0.259143 0.307114 -0.925941)
(-0.262596 0.368189 -0.908707)
(-0.281183 0.393394 -0.901859)
(-0.295256 0.408362 -0.895913)
(-0.260436 0.364814 -0.903462)