/*--------------------------------*- C++ -*----------------------------------*\
| =========                 |                                                 |
| \\      /  F ield         | OpenFOAM: The Open Source CFD Toolbox           |
|  \\    /   O peration     | Version:  v1612+                                |
|   \\  /    A nd           | Web:      www.OpenFOAM.com                      |
|    \\/     M anipulation  |                                                 |
\*---------------------------------------------------------------------------*/
FoamFile
{
    version     2.0;
    format      ascii;
    class       volVectorField;
    location    "100";
    object      U;
}
// * * * * * * * * * * * * * * * * * * * * * * * * * * * * * * * * * * * * * //

dimensions      [0 1 -1 0 0 0 0];

internalField   nonuniform List<vector> 
16940
(
(-0.572929 0.0869835 -0.27724)
(-0.779227 0.278222 -0.303097)
(-0.488195 -0.0170092 -0.224944)
(-1.06646 -0.0314902 -0.599585)
(-1.03194 -0.00302853 -0.595464)
(-1.11016 -0.0667203 -0.607099)
(-1.08784 -0.0543615 -0.609593)
(-1.0908 -0.0486786 -0.608814)
(-1.01203 -0.00122025 -0.58251)
(-1.03795 -0.0254971 -0.594862)
(-0.930487 0.0320716 -0.567156)
(-1.11016 -0.0494006 -0.608878)
(-1.0205 -0.0175078 -0.582283)
(-0.992225 -0.0181618 -0.577199)
(-0.996163 0.00266208 -0.57967)
(-0.907923 0.0317194 -0.560329)
(-0.954072 0.0117061 -0.574912)
(-0.956539 0.0220347 -0.582547)
(-1.08073 -0.028369 -0.60405)
(-1.01908 -0.00417534 -0.590895)
(-1.02873 -0.0277178 -0.586656)
(-0.744026 0.378165 -0.481918)
(-0.703749 0.369107 -0.460676)
(-0.772392 0.308415 -0.503873)
(-0.719211 0.332034 -0.473111)
(-0.932988 0.309559 -0.573357)
(-0.91637 0.310282 -0.556769)
(-0.659317 0.360544 -0.445186)
(-0.902652 0.312737 -0.551558)
(-0.931243 0.290882 -0.558896)
(-0.721679 0.331596 -0.477131)
(-0.80435 0.339873 -0.527561)
(-0.838176 0.325394 -0.527605)
(-0.78736 0.305064 -0.506999)
(-0.754287 0.323548 -0.491754)
(-0.470604 0.0424385 -0.197388)
(-0.420466 0.0349854 -0.183052)
(-0.422428 0.0373881 -0.190297)
(-0.37379 0.036513 -0.160912)
(-0.463178 0.0307422 -0.217628)
(-0.430046 0.0483748 -0.170209)
(-0.368856 0.0388314 -0.154013)
(-0.414473 0.0377864 -0.20111)
(-0.541694 0.0265603 -0.265766)
(-0.52679 0.0244853 -0.267894)
(-0.806727 0.131226 -0.52812)
(-0.828799 0.122018 -0.544249)
(-0.706026 0.1586 -0.493134)
(-0.677905 0.163199 -0.470284)
(-0.634299 0.158101 -0.450586)
(-0.582522 0.163599 -0.42733)
(-0.663176 0.145471 -0.461964)
(-0.666714 0.130599 -0.474968)
(-0.624239 0.144975 -0.466503)
(-0.814752 0.112707 -0.532492)
(-0.652845 0.158394 -0.47835)
(-0.758379 0.123001 -0.503547)
(-0.70293 0.125873 -0.492122)
(-0.769138 0.111267 -0.510534)
(-0.886313 0.0930696 -0.559819)
(-0.853668 0.114064 -0.550677)
(-0.832602 0.107584 -0.54253)
(-0.744996 0.137804 -0.526478)
(-0.607314 0.0951842 -0.378371)
(-0.554269 0.0842118 -0.350611)
(-0.419972 0.114231 -0.292064)
(-0.392576 0.113861 -0.273913)
(-0.508991 0.0928442 -0.338566)
(-0.540733 0.0906172 -0.349022)
(-0.444344 0.106781 -0.303922)
(-0.429803 0.113446 -0.299794)
(-0.558252 0.132692 -0.355374)
(-0.437711 0.156017 -0.303864)
(-0.384544 0.141423 -0.270863)
(-0.574319 0.101607 -0.364278)
(-0.533241 0.0993955 -0.343681)
(-0.573331 0.101141 -0.368329)
(-0.447599 0.114679 -0.311731)
(-0.464732 0.116236 -0.325539)
(-0.540887 0.129199 -0.348548)
(-0.456732 0.147928 -0.310963)
(-0.403668 0.12652 -0.281385)
(-0.367907 0.129012 -0.25734)
(-0.565213 0.121372 -0.360745)
(-0.47296 0.140776 -0.319183)
(-0.430589 0.132058 -0.293942)
(-0.399586 0.132182 -0.280883)
(-0.462157 0.131279 -0.280317)
(-0.479214 0.131005 -0.3016)
(-0.539796 0.107691 -0.314455)
(-0.515035 0.120039 -0.299124)
(-0.451335 0.137023 -0.295986)
(-0.378005 0.119371 -0.235295)
(-0.374123 0.123938 -0.237843)
(-0.495032 0.105552 -0.264328)
(-0.521562 0.100861 -0.290415)
(-0.488971 0.0986185 -0.270749)
(-0.434138 0.109847 -0.242051)
(-0.459588 0.107065 -0.249334)
(-0.476789 0.0955641 -0.250077)
(-0.391712 0.112901 -0.226312)
(-0.381445 0.111678 -0.219954)
(-0.419799 0.117184 -0.262757)
(-0.422524 0.105148 -0.251879)
(-0.494697 0.0915734 -0.27521)
(-0.744392 0.0948546 -0.403271)
(-0.799611 0.0895647 -0.423865)
(-0.794448 0.130173 -0.410056)
(-0.79749 0.127468 -0.390616)
(-0.693587 0.180833 -0.31826)
(-0.644974 0.191261 -0.300032)
(-0.681243 0.182241 -0.337647)
(-0.608985 0.183209 -0.320598)
(-0.580842 0.199419 -0.28678)
(-0.859361 0.0632887 -0.436087)
(-0.769925 0.0860228 -0.410111)
(-0.826053 0.0588804 -0.434753)
(-0.624942 0.152696 -0.34304)
(-0.830497 0.103373 -0.416705)
(-0.679692 0.115722 -0.37711)
(-0.753046 0.101039 -0.400129)
(-0.613169 0.15602 -0.33106)
(-0.610703 0.178803 -0.309775)
(-0.729223 0.165881 -0.34311)
(-0.518861 0.00816226 -0.345253)
(-0.475822 0.00157822 -0.319354)
(-0.502324 -0.0124142 -0.327603)
(-0.472217 0.00290536 -0.314238)
(-0.562471 0.0019382 -0.361092)
(-0.575731 -0.0167484 -0.37563)
(-0.520165 -0.0132414 -0.344767)
(-0.532037 -0.0100139 -0.352234)
(-0.524585 -0.0223306 -0.337391)
(-0.535237 -0.0221755 -0.347126)
(-0.669094 -0.0381941 -0.403222)
(-0.718419 -0.065333 -0.434495)
(-0.549176 -0.0300705 -0.345425)
(-0.673138 -0.0362763 -0.415252)
(-0.656092 -0.0335286 -0.407451)
(-0.644593 -0.0461492 -0.411128)
(-0.707932 -0.0700444 -0.420923)
(-0.676119 -0.0527506 -0.409204)
(-0.996857 0.182277 -0.545819)
(-1.06128 0.169596 -0.580598)
(-1.04706 0.177429 -0.554314)
(-1.06537 0.194034 -0.567355)
(-1.0512 0.195079 -0.560417)
(-0.915374 0.168792 -0.499003)
(-0.870573 0.180809 -0.50761)
(-0.892438 0.168835 -0.503428)
(-1.04808 0.166618 -0.585024)
(-1.04686 0.176095 -0.591397)
(-1.01143 0.186033 -0.583465)
(-1.00642 0.177507 -0.55302)
(-1.0065 0.181016 -0.539627)
(-0.977561 0.191322 -0.525155)
(-0.955067 0.193722 -0.553734)
(-0.978691 0.180339 -0.546796)
(-0.894778 0.194673 -0.494765)
(-1.01772 0.192001 -0.581079)
(-0.983342 0.178123 -0.523934)
(-0.977254 0.1522 -0.511547)
(-0.979876 0.130536 -0.517719)
(-0.820823 0.0898682 -0.433442)
(-0.894138 0.151976 -0.470852)
(-0.936586 0.172535 -0.49235)
(-0.909871 0.0845654 -0.477898)
(-0.846178 0.0894258 -0.435965)
(-0.81473 0.115164 -0.416154)
(-0.905738 0.153393 -0.479887)
(-0.857796 0.132029 -0.4331)
(-0.836802 0.0972173 -0.432352)
(-0.824306 -0.112379 -0.471783)
(-0.737134 -0.0881433 -0.43186)
(-0.868554 -0.125427 -0.487996)
(-0.803941 -0.113786 -0.4682)
(-0.747854 -0.0844296 -0.44352)
(-0.726059 -0.0625896 -0.423331)
(-0.747234 -0.0648589 -0.436553)
(-0.692822 -0.0472856 -0.410451)
(-0.689466 -0.0603958 -0.416272)
(-0.774474 -0.0988632 -0.452956)
(-0.71484 -0.0781135 -0.414895)
(-0.892367 -0.106118 -0.500141)
(-0.825059 -0.0984877 -0.477892)
(-1.04902 0.0426717 -0.586083)
(-1.02635 0.0462872 -0.57386)
(-0.997593 0.0482727 -0.562895)
(-0.9579 0.0845032 -0.542238)
(-0.970596 0.0737292 -0.564154)
(-0.931239 0.126156 -0.553025)
(-0.915457 0.135542 -0.557718)
(-0.997895 0.0983194 -0.578449)
(-1.00375 0.0697279 -0.58118)
(-0.978397 0.0875896 -0.567149)
(-0.953775 0.0970233 -0.552448)
(-0.967444 0.142965 -0.578027)
(-1.02354 0.0661397 -0.577197)
(-0.963875 0.130033 -0.558141)
(-0.654474 0.0186871 -0.393218)
(-0.598372 0.037226 -0.362555)
(-0.567332 0.0381831 -0.360346)
(-0.524453 0.049019 -0.336553)
(-0.540464 0.0404048 -0.342073)
(-0.477607 0.0635986 -0.312136)
(-0.666327 0.00324584 -0.390652)
(-0.468631 0.0760647 -0.293023)
(-0.660892 0.0106248 -0.401997)
(-0.568845 0.0273581 -0.348872)
(-0.557451 0.0485821 -0.337077)
(-0.55021 0.0452096 -0.32606)
(-0.687625 -0.00997681 -0.406551)
(-0.512495 0.0576712 -0.318607)
(-0.480053 0.0636888 -0.307686)
(-0.644961 0.00371799 -0.388258)
(-0.580708 0.0369349 -0.346175)
(-0.683049 -0.00551174 -0.412426)
(-0.596681 0.315627 -0.269443)
(-0.624301 0.285766 -0.283082)
(-0.630531 0.320816 -0.347867)
(-0.541311 0.335581 -0.294146)
(-0.670307 0.301158 -0.376252)
(-0.620801 0.324505 -0.355794)
(-0.597835 0.312024 -0.291186)
(-0.544963 0.337985 -0.256386)
(-0.694896 0.247509 -0.332779)
(-0.744481 0.241499 -0.376554)
(-0.545955 0.324614 -0.279782)
(-0.73027 0.274505 -0.398914)
(-0.647707 0.297833 -0.370416)
(-0.720004 0.23465 -0.365275)
(-0.77014 0.267135 -0.412743)
(-0.592024 0.303129 -0.319729)
(-0.62991 0.306381 -0.315171)
(-0.876623 -0.0840323 -0.476815)
(-0.903638 -0.0985314 -0.511625)
(-0.84025 -0.0930268 -0.466136)
(-0.862125 -0.0855684 -0.463057)
(-0.993603 -0.130883 -0.554299)
(-1.01029 -0.135864 -0.557941)
(-0.943503 -0.113375 -0.529285)
(-0.990225 -0.139952 -0.553512)
(-1.00428 -0.148905 -0.568222)
(-0.947039 -0.131477 -0.53021)
(-0.907396 -0.117268 -0.516942)
(-0.95263 -0.125564 -0.527245)
(-0.935599 -0.122584 -0.523553)
(-0.955149 -0.127993 -0.536428)
(-0.507172 0.0467297 -0.195062)
(-0.475812 0.0549058 -0.17908)
(-0.546192 0.037967 -0.219404)
(-0.523922 0.0441158 -0.212696)
(-0.55151 0.0466871 -0.227823)
(-0.501546 0.0693263 -0.197509)
(-0.455016 0.0728509 -0.169042)
(-0.646561 0.00903017 -0.299796)
(-0.628907 0.0338972 -0.286197)
(-0.558223 0.0610096 -0.240199)
(-0.52317 0.0696217 -0.221304)
(-0.493302 0.0685221 -0.193185)
(-0.656058 0.0173947 -0.30177)
(-0.559563 0.0358752 -0.237273)
(-0.652135 0.0250618 -0.303023)
(-0.513405 0.0575705 -0.205759)
(-0.553211 0.0572235 -0.242548)
(-0.659333 0.0192092 -0.308846)
(-0.819624 0.0507647 -0.429301)
(-0.924691 0.0662646 -0.476976)
(-0.923713 0.0335509 -0.492967)
(-0.832961 0.0905217 -0.449064)
(-0.882146 0.0218341 -0.469278)
(-0.937005 0.0358961 -0.483226)
(-0.878351 0.0833409 -0.445301)
(-0.863505 0.0949547 -0.442044)
(-0.967446 0.0211378 -0.512493)
(-0.849404 0.0807356 -0.446594)
(-0.82835 0.109324 -0.439797)
(-0.888429 0.0782493 -0.457277)
(-0.939999 0.0564386 -0.47885)
(-0.915194 0.114239 -0.438398)
(-0.86972 0.127513 -0.436009)
(-0.960054 0.0773109 -0.470347)
(-0.891137 0.0795014 -0.573531)
(-0.796225 0.101925 -0.516299)
(-0.838858 0.091421 -0.534598)
(-0.918697 0.060146 -0.554278)
(-0.791228 0.113472 -0.519523)
(-0.870706 0.0771506 -0.537304)
(-0.951346 0.0645943 -0.578583)
(-0.93109 0.0700125 -0.564508)
(-0.8304 0.111309 -0.54049)
(-0.876335 0.0910709 -0.543291)
(-0.60505 0.0595043 -0.243855)
(-0.594368 0.0459968 -0.239304)
(-0.477795 0.0656167 -0.152999)
(-0.463586 0.0731531 -0.132068)
(-0.5089 0.0774678 -0.16205)
(-0.632707 0.0536789 -0.267516)
(-0.640749 0.0467097 -0.268121)
(-0.48191 0.0810929 -0.144929)
(-0.447662 0.0850962 -0.118985)
(-0.592811 0.0746931 -0.232862)
(-0.597199 0.0629234 -0.240754)
(-0.488663 0.0964632 -0.140018)
(-0.489518 0.0900209 -0.147951)
(-0.530264 0.0986326 -0.16996)
(-0.44156 0.101132 -0.116071)
(-0.528306 0.0793617 -0.177138)
(-0.535179 0.10104 -0.171448)
(-0.503625 0.10769 -0.149179)
(-0.472033 0.101281 -0.134388)
(-0.550232 0.0456532 -0.320122)
(-0.531705 0.0513125 -0.316417)
(-0.568308 0.0311407 -0.332513)
(-0.585054 0.031876 -0.331543)
(-0.479302 0.0679417 -0.27706)
(-0.612498 0.0431114 -0.34825)
(-0.543904 0.0629061 -0.312441)
(-0.660256 0.00458347 -0.371509)
(-0.662669 0.0111842 -0.378787)
(-0.66063 -0.00476438 -0.36578)
(-0.687394 -0.00639383 -0.393619)
(-0.584508 0.0445104 -0.321534)
(-0.594043 0.0374429 -0.334525)
(-0.548256 0.0407541 -0.302601)
(-0.50866 0.0561489 -0.274673)
(-0.604489 0.0295854 -0.331888)
(-0.57561 0.037669 -0.312742)
(-0.546762 0.0520474 -0.290869)
(-1.04166 0.0758209 -0.605923)
(-1.01053 0.0822834 -0.592861)
(-1.05987 0.0665561 -0.600912)
(-1.07677 0.0757211 -0.618911)
(-0.985535 0.0715584 -0.559063)
(-0.993776 0.0864948 -0.552158)
(-0.986409 0.0979864 -0.548783)
(-0.981847 0.121259 -0.588249)
(-1.02889 0.0961087 -0.587167)
(-0.93793 0.122317 -0.573507)
(-0.968062 0.10207 -0.581129)
(-0.877066 0.108347 -0.53579)
(-1.05843 0.0904706 -0.616821)
(-0.958079 0.124605 -0.575166)
(-0.97233 0.096522 -0.582086)
(-0.879014 0.120556 -0.543158)
(-0.8869 0.107084 -0.543011)
(-0.594156 0.200781 -0.153656)
(-0.577408 0.23101 -0.137799)
(-0.529903 0.220936 -0.123964)
(-0.523515 0.226203 -0.115728)
(-0.459541 0.211412 -0.091278)
(-0.611719 0.188416 -0.186968)
(-0.587327 0.171652 -0.179056)
(-0.464406 0.192098 -0.0849409)
(-0.560501 0.16816 -0.159109)
(-0.490179 0.179778 -0.105464)
(-0.487911 0.197448 -0.0956302)
(-0.441125 0.183308 -0.0740816)
(-0.541922 0.223291 -0.12085)
(-0.559463 0.174689 -0.155914)
(-0.589875 0.189317 -0.161074)
(-0.501355 0.173498 -0.113872)
(-0.506274 0.179679 -0.120596)
(-0.471246 0.174606 -0.0964211)
(-0.637134 0.0994217 -0.387947)
(-0.644138 0.087346 -0.396134)
(-0.713595 0.0557085 -0.413733)
(-0.703701 0.0456588 -0.41742)
(-0.694638 0.0485292 -0.414189)
(-0.607934 0.126489 -0.377164)
(-0.702269 0.0695201 -0.409932)
(-0.69941 0.0565357 -0.414565)
(-0.60841 0.122099 -0.380245)
(-0.570829 0.121504 -0.36771)
(-0.586067 0.101698 -0.377264)
(-0.657529 0.0855629 -0.388875)
(-0.637244 0.0998682 -0.388852)
(-0.618511 0.127347 -0.38314)
(-0.474993 0.152568 -0.311689)
(-0.409521 0.134784 -0.272751)
(-0.500245 0.132761 -0.315017)
(-0.434689 0.129103 -0.289269)
(-0.519829 0.149309 -0.328247)
(-0.429886 0.122493 -0.283802)
(-0.547863 0.115062 -0.333513)
(-0.51012 0.0969403 -0.290005)
(-0.412128 0.11163 -0.257089)
(-0.552915 0.0897137 -0.322613)
(-1.0319 0.255127 -0.439719)
(-1.00637 0.266517 -0.422345)
(-1.05517 0.207683 -0.49526)
(-1.09307 0.218741 -0.522104)
(-1.08956 0.208454 -0.526743)
(-1.04566 0.249875 -0.468202)
(-0.988566 0.246054 -0.412236)
(-0.977687 0.268633 -0.399735)
(-1.05765 0.230233 -0.510036)
(-1.04597 0.221087 -0.494735)
(-1.02243 0.246074 -0.440562)
(-1.05998 0.210306 -0.503232)
(-1.02145 0.2435 -0.457474)
(-0.999082 0.246582 -0.438827)
(-1.02239 0.217754 -0.461169)
(-1.02036 0.235884 -0.441628)
(-0.550765 0.0890407 -0.189339)
(-0.601949 0.0959868 -0.227346)
(-0.62019 0.143221 -0.22123)
(-0.632837 0.140491 -0.223074)
(-0.557607 0.10603 -0.181618)
(-0.592276 0.122696 -0.201922)
(-0.546016 0.169897 -0.143762)
(-0.53414 0.175169 -0.135027)
(-0.490969 0.15654 -0.113659)
(-0.486054 0.128488 -0.121421)
(-0.446097 0.138972 -0.101208)
(-0.499227 0.149521 -0.114618)
(-0.455176 0.148535 -0.0988078)
(-0.476406 0.128399 -0.117588)
(-0.490455 0.118494 -0.126092)
(-0.558335 0.109889 -0.182964)
(-0.544591 0.106972 -0.173663)
(-0.496959 0.134444 -0.12085)
(-0.515539 0.124101 -0.13488)
(-0.654315 0.0349618 -0.365252)
(-0.633039 0.0317737 -0.369414)
(-0.640735 0.0476466 -0.367371)
(-0.625053 0.0461365 -0.351097)
(-0.664026 0.0430804 -0.372693)
(-0.668086 0.0506976 -0.377411)
(-0.67765 0.04291 -0.392017)
(-0.627475 0.0377932 -0.342891)
(-0.665139 0.0261491 -0.370156)
(-0.663927 0.0293873 -0.360409)
(-0.697281 0.0119953 -0.376192)
(-0.63235 0.0398907 -0.346662)
(-0.754263 0.035926 -0.415694)
(-0.765742 0.0257233 -0.40383)
(-0.714147 0.0274242 -0.381201)
(-0.785047 0.0239207 -0.420923)
(-0.753369 0.0344933 -0.413225)
(-0.767564 0.0282876 -0.423569)
(-0.735311 0.0183826 -0.406139)
(-0.667722 0.0311551 -0.359442)
(-0.829638 0.0117959 -0.443292)
(-0.79781 0.00848358 -0.43461)
(-1.07032 -0.178239 -0.597949)
(-1.04552 -0.172081 -0.587858)
(-1.08615 -0.176573 -0.604953)
(-1.11097 -0.177975 -0.627256)
(-1.0201 -0.147954 -0.571695)
(-1.01028 -0.149914 -0.562602)
(-1.06722 -0.173654 -0.60046)
(-0.918323 -0.107267 -0.491929)
(-0.802386 -0.0847507 -0.419961)
(-0.949581 -0.118311 -0.520364)
(-0.938989 -0.127307 -0.506957)
(-0.866248 -0.101781 -0.462503)
(-0.85273 -0.0922179 -0.445389)
(-0.770593 -0.0751615 -0.400592)
(-0.956241 -0.112794 -0.511646)
(-1.01433 -0.138329 -0.554889)
(-0.976338 -0.132357 -0.521792)
(-0.942614 -0.0983769 -0.499828)
(-0.916539 -0.0931682 -0.484868)
(-0.824292 -0.0904419 -0.427511)
(-0.816485 -0.0951894 -0.429019)
(-0.897939 -0.115258 -0.473896)
(-0.959339 -0.126623 -0.520542)
(-0.878015 -0.087911 -0.452028)
(-0.883209 -0.0929909 -0.4569)
(-0.883385 -0.0985492 -0.462333)
(-0.877189 -0.0972083 -0.453928)
(-0.926655 -0.0208891 -0.501234)
(-0.890714 -0.0205285 -0.471545)
(-0.834621 0.038819 -0.419544)
(-0.795845 -0.00619515 -0.397829)
(-0.814254 -0.00227557 -0.399134)
(-0.887897 -0.0303055 -0.466294)
(-0.904411 -0.0256327 -0.482317)
(-0.901192 -0.0487826 -0.477583)
(-0.82431 -0.0205995 -0.416194)
(-0.826134 0.0222405 -0.42217)
(-0.799211 0.0259693 -0.403957)
(-0.750097 0.037451 -0.359711)
(-0.86477 -0.0283447 -0.456344)
(-0.874383 -0.0357324 -0.456944)
(-0.853205 -0.0318729 -0.443189)
(-0.78723 0.0171653 -0.392649)
(-0.642716 0.0521916 -0.303428)
(-0.627504 0.0517991 -0.308852)
(-0.640762 0.0535222 -0.291172)
(-0.757729 0.043409 -0.374323)
(-0.640908 0.0595015 -0.282957)
(-0.635792 0.0659225 -0.274022)
(-0.738982 0.0600451 -0.369374)
(-0.756177 0.0435371 -0.369669)
(-0.682075 0.0553325 -0.324469)
(-0.632554 0.10959 -0.236705)
(-0.618035 0.100391 -0.238789)
(-0.748164 0.0891715 -0.346502)
(-0.661177 0.128208 -0.242792)
(-0.614582 0.116986 -0.220204)
(-0.622184 0.111344 -0.239008)
(-0.671352 0.113068 -0.279932)
(-0.717209 0.110112 -0.316438)
(-0.646932 0.0889268 -0.275901)
(-0.597511 0.0950779 -0.231819)
(-0.754909 0.0930169 -0.365052)
(-0.883516 0.00503534 -0.429186)
(-0.832317 0.0302689 -0.386158)
(-0.839117 0.00875833 -0.392327)
(-0.799126 0.0328187 -0.357936)
(-0.923442 0.0160375 -0.439249)
(-0.798946 0.0407346 -0.33513)
(-0.952062 -0.00879086 -0.470335)
(-1.00527 -0.00682543 -0.499431)
(-0.834556 0.0247216 -0.363681)
(-0.880887 0.000629982 -0.40648)
(-0.863549 0.050227 -0.366811)
(-0.786783 0.0983848 -0.31766)
(-0.910583 0.045329 -0.404088)
(-0.805439 0.082519 -0.31741)
(-1.00079 -0.0222707 -0.502071)
(-1.02875 -0.00205985 -0.499031)
(-0.860886 0.0128038 -0.373788)
(-0.935276 -0.00963005 -0.448324)
(-0.824932 0.0531535 -0.342711)
(-1.0087 0.0241893 -0.48267)
(-0.844679 0.060345 -0.368385)
(-0.826895 0.0452969 -0.349326)
(-0.784552 -0.0225512 -0.389883)
(-0.698227 0.0281342 -0.337306)
(-0.682181 0.042302 -0.307057)
(-0.768359 -0.00645799 -0.385482)
(-0.789572 -0.00726669 -0.393362)
(-0.648122 0.0377735 -0.303941)
(-0.700803 0.0229295 -0.338641)
(-0.769154 -0.0010638 -0.383614)
(-0.743838 -0.00466478 -0.370866)
(-0.584515 0.0750241 -0.253521)
(-0.58622 0.0861971 -0.265866)
(-0.544057 0.0823856 -0.227005)
(-0.514554 0.0994817 -0.205382)
(-0.62541 0.0804621 -0.281804)
(-0.692594 0.014615 -0.32597)
(-0.715637 0.00677454 -0.344812)
(-0.664925 0.0549781 -0.31902)
(-0.571342 0.0943299 -0.247632)
(-0.560489 0.0701723 -0.228494)
(-0.548033 0.0835538 -0.222054)
(-0.572754 0.101046 -0.238442)
(-0.67046 0.0591286 -0.312806)
(-0.658555 0.0235201 -0.294561)
(-0.685308 0.0335356 -0.332865)
(-0.845478 -0.0153922 -0.465107)
(-0.807993 -0.0255999 -0.460082)
(-0.829775 -0.0153979 -0.471276)
(-0.696315 0.0268172 -0.407855)
(-0.804839 0.0106894 -0.468582)
(-0.827032 0.000638742 -0.477871)
(-0.679519 0.0539522 -0.407031)
(-0.644828 0.0525068 -0.391095)
(-0.697194 0.046793 -0.419147)
(-0.668871 0.0663082 -0.397925)
(-0.714668 0.0357227 -0.423006)
(-0.652379 0.0450001 -0.396186)
(-0.709471 0.0618537 -0.411279)
(-0.61875 0.0806256 -0.374013)
(-0.738605 0.0770927 -0.40958)
(-0.753183 0.0667875 -0.417008)
(-0.619498 0.135667 -0.33701)
(-0.592498 0.162976 -0.31642)
(-0.56931 0.150474 -0.31398)
(-0.557122 0.172348 -0.299159)
(-0.681088 0.0989467 -0.394709)
(-0.68468 0.102678 -0.388279)
(-0.698651 0.10112 -0.385307)
(-0.533658 0.157225 -0.309864)
(-0.522816 0.177989 -0.291894)
(-0.565927 0.142494 -0.324553)
(-0.665665 0.108717 -0.386756)
(-0.554443 0.161454 -0.321424)
(-0.556221 0.174528 -0.306606)
(-0.67869 0.215529 -0.31344)
(-0.865891 0.105709 -0.425512)
(-0.790476 0.11661 -0.426436)
(-0.850297 0.112638 -0.437545)
(-0.802033 0.135692 -0.408103)
(-0.835898 0.151881 -0.390596)
(-0.796136 0.105531 -0.439903)
(-0.799741 0.117823 -0.4326)
(-0.787392 0.238051 -0.338541)
(-0.671134 0.243723 -0.298764)
(-0.857553 0.162413 -0.398579)
(-0.883685 0.12966 -0.409657)
(-0.729617 0.156415 -0.389249)
(-0.79247 0.142417 -0.415872)
(-0.694348 0.183037 -0.340988)
(-0.70322 0.200015 -0.345486)
(-0.665309 0.22232 -0.315365)
(-0.761043 0.249542 -0.339342)
(-0.867138 0.154034 -0.418915)
(-0.61091 0.00545644 -0.380293)
(-0.518286 0.0367733 -0.335549)
(-0.45794 0.058196 -0.307511)
(-0.55913 0.018247 -0.350658)
(-0.677241 -0.0406224 -0.420842)
(-0.65944 -0.0292469 -0.405973)
(-0.602911 0.0078092 -0.384352)
(-0.584727 0.00106442 -0.367895)
(-0.494363 0.0116775 -0.332913)
(-0.507905 0.0170026 -0.336791)
(-0.445303 0.0374857 -0.307858)
(-0.541807 0.0248975 -0.35323)
(-0.4403 0.0311718 -0.305354)
(-0.462508 0.0250781 -0.31519)
(-0.98892 0.157499 -0.526832)
(-1.05696 0.15248 -0.553676)
(-0.972477 0.148089 -0.527868)
(-0.904868 0.13587 -0.465293)
(-0.908792 0.142686 -0.47332)
(-0.828715 0.139707 -0.414682)
(-0.911379 0.129783 -0.436704)
(-0.853884 0.14139 -0.406172)
(-1.04035 0.153525 -0.517942)
(-1.06828 0.144516 -0.554436)
(-1.00562 0.152338 -0.542773)
(-1.08795 0.141496 -0.539206)
(-1.09127 0.134912 -0.546165)
(-0.955274 0.129288 -0.476327)
(-0.920759 0.159519 -0.447319)
(-0.935704 0.151926 -0.468948)
(-0.906768 0.144251 -0.422507)
(-0.960416 0.151224 -0.435725)
(-1.02337 0.146456 -0.498216)
(-1.01458 0.125073 -0.517949)
(-1.01179 0.143939 -0.530306)
(-0.829475 0.0427836 -0.438433)
(-0.972494 0.0129311 -0.525851)
(-0.799235 0.0628283 -0.417755)
(-0.800746 0.0842389 -0.396147)
(-0.79162 0.0888123 -0.405169)
(-0.776412 0.0588243 -0.37533)
(-0.787262 0.100835 -0.400024)
(-0.852861 0.0606162 -0.453809)
(-0.822237 0.0523397 -0.407467)
(-0.985726 0.0215401 -0.541772)
(-0.91024 0.017247 -0.512484)
(-0.918323 0.0640998 -0.524183)
(-0.839278 0.101419 -0.457949)
(-0.813429 0.120576 -0.42491)
(-0.950548 0.0392565 -0.561782)
(-0.846752 0.089958 -0.453088)
(-0.897196 0.108121 -0.507587)
(-0.638253 0.222571 -0.446841)
(-0.662899 0.210655 -0.462397)
(-0.640469 0.220892 -0.446125)
(-0.597097 0.222268 -0.413965)
(-0.682728 0.230708 -0.46229)
(-0.679436 0.192553 -0.472687)
(-0.62931 0.212582 -0.447979)
(-0.671788 0.209851 -0.454391)
(-0.6362 0.201215 -0.448237)
(-0.817943 0.161549 -0.523986)
(-0.865142 0.123312 -0.520931)
(-0.802055 0.162968 -0.479631)
(-0.678465 0.185144 -0.469682)
(-0.856372 0.127194 -0.545793)
(-0.791529 0.141373 -0.516774)
(-0.809894 0.176455 -0.513736)
(-0.695355 0.185307 -0.473678)
(-0.789861 0.155971 -0.509976)
(-0.894154 -0.0985575 -0.509935)
(-0.935423 -0.113725 -0.525326)
(-0.872166 -0.0692688 -0.497405)
(-0.819228 -0.0596265 -0.467608)
(-0.84668 -0.0725847 -0.488005)
(-0.977881 -0.130043 -0.542511)
(-0.970795 -0.138893 -0.541674)
(-0.926023 -0.0853818 -0.527162)
(-0.847568 -0.086473 -0.484509)
(-0.925461 -0.126432 -0.523057)
(-0.943414 -0.116499 -0.532583)
(-0.933009 -0.103456 -0.524774)
(-0.954475 -0.117812 -0.532574)
(-0.866716 -0.0956278 -0.493818)
(-0.618207 0.101915 -0.410562)
(-0.640198 0.0898733 -0.412413)
(-0.75759 0.0548831 -0.463095)
(-0.723138 0.0688397 -0.469227)
(-0.593908 0.126197 -0.411721)
(-0.592119 0.117538 -0.385064)
(-0.570346 0.129193 -0.37995)
(-0.722031 0.101739 -0.445745)
(-0.636174 0.134866 -0.415172)
(-0.771655 0.053154 -0.455103)
(-0.757503 0.0695942 -0.439721)
(-0.706939 0.0808327 -0.42278)
(-0.703164 0.0780809 -0.42024)
(-0.568338 0.151275 -0.359965)
(-0.750155 0.0711332 -0.443686)
(-0.712879 0.0837642 -0.408581)
(-0.630358 0.106351 -0.396878)
(-0.548921 0.130892 -0.346029)
(-0.597241 0.122564 -0.363435)
(-0.514096 0.148817 -0.342482)
(-0.730088 0.0895439 -0.420046)
(-0.612258 0.138457 -0.373481)
(-0.563889 0.136205 -0.348088)
(-0.515216 0.141958 -0.319942)
(-1.05793 -0.167466 -0.594607)
(-1.03932 -0.153703 -0.581549)
(-1.05108 -0.154092 -0.589593)
(-0.985849 -0.150939 -0.543828)
(-0.939801 -0.130351 -0.524019)
(-0.974302 -0.137398 -0.540386)
(-1.00136 -0.156386 -0.560905)
(-0.953193 -0.143357 -0.532762)
(-0.907273 -0.112924 -0.498047)
(-0.918298 -0.119312 -0.504993)
(-0.911005 -0.121521 -0.504782)
(-1.00108 -0.161638 -0.556168)
(-0.946284 -0.140335 -0.52376)
(-0.936773 -0.128183 -0.509636)
(-0.91453 -0.124323 -0.491372)
(-0.9264 -0.131372 -0.507851)
(-0.968431 -0.138385 -0.523012)
(-1.00061 -0.140155 -0.542981)
(-0.941277 -0.133519 -0.513597)
(-0.986186 -0.144497 -0.539197)
(-0.937314 -0.0920679 -0.515047)
(-0.938084 -0.0832721 -0.500659)
(-0.822408 -0.0534187 -0.401544)
(-0.845378 -0.0597234 -0.392861)
(-0.833045 -0.0580309 -0.408485)
(-0.944473 -0.100218 -0.50919)
(-0.90755 -0.0737373 -0.480958)
(-0.960971 -0.0782628 -0.513553)
(-1.02869 -0.0973312 -0.557434)
(-1.02337 -0.101649 -0.551468)
(-0.893789 -0.0596609 -0.443096)
(-1.02432 -0.0989249 -0.556146)
(-1.01632 -0.116811 -0.536059)
(-0.906325 -0.0573561 -0.456375)
(-1.05421 -0.11187 -0.568082)
(-1.05736 -0.105329 -0.565602)
(-0.977877 -0.084856 -0.5036)
(-0.994555 -0.104824 -0.515409)
(-0.995533 -0.0966466 -0.524658)
(-0.992571 -0.0903482 -0.515114)
(-0.463642 0.078401 -0.138593)
(-0.487235 0.0794101 -0.152128)
(-0.454994 0.0797759 -0.140062)
(-0.415453 0.0818564 -0.113896)
(-0.490043 0.0789606 -0.156386)
(-0.414418 0.0909669 -0.108051)
(-0.592837 0.0795372 -0.225553)
(-0.58134 0.093364 -0.209348)
(-0.468303 0.096928 -0.128272)
(-0.480116 0.0892423 -0.142705)
(-0.464201 0.104309 -0.119617)
(-0.511662 0.11187 -0.144687)
(-0.502094 0.107549 -0.142058)
(-1.04257 0.248919 -0.585933)
(-1.04803 0.223673 -0.568703)
(-0.988236 0.230196 -0.54854)
(-1.04516 0.223 -0.57026)
(-1.05427 0.158779 -0.551989)
(-1.06512 0.168844 -0.535123)
(-1.05053 0.248641 -0.571158)
(-1.03745 0.225388 -0.571589)
(-1.05794 0.20888 -0.575026)
(-1.02906 0.227372 -0.540855)
(-1.04649 0.226929 -0.53817)
(-1.05859 0.191202 -0.55095)
(-1.0907 0.191719 -0.558481)
(-1.05973 0.164209 -0.564467)
(-1.05349 0.215789 -0.570432)
(-1.08437 0.195098 -0.587696)
(-1.11248 0.204786 -0.58573)
(-1.08764 0.182845 -0.569354)
(-1.07861 0.20655 -0.551145)
(-1.08842 0.216429 -0.554824)
(-1.10187 0.196948 -0.563313)
(-1.10556 0.222407 -0.562761)
(-0.885631 0.118898 -0.375116)
(-0.910529 0.126712 -0.399823)
(-0.923401 0.114888 -0.425433)
(-0.918393 0.083047 -0.424108)
(-0.841175 0.131826 -0.387411)
(-0.841388 0.13713 -0.39821)
(-0.855886 0.156905 -0.342697)
(-0.781229 0.190591 -0.344754)
(-0.754007 0.183823 -0.324056)
(-0.774374 0.160257 -0.305549)
(-0.778239 0.167225 -0.301438)
(-0.876065 0.122221 -0.399834)
(-0.762125 0.20178 -0.285415)
(-0.672509 0.219844 -0.274)
(-0.728813 0.194111 -0.264736)
(-0.746316 0.182369 -0.307652)
(-0.683732 0.212166 -0.274101)
(-0.825578 0.150646 -0.351459)
(-0.987319 0.177925 -0.506236)
(-0.928888 0.17929 -0.462319)
(-0.893772 0.167198 -0.458351)
(-0.861674 0.162826 -0.432006)
(-0.899306 0.156524 -0.457381)
(-0.915512 0.172106 -0.483192)
(-0.985724 0.170852 -0.523579)
(-0.97516 0.171381 -0.516037)
(-1.05426 0.157452 -0.540453)
(-0.89153 0.180354 -0.415383)
(-1.02891 0.175124 -0.515104)
(-0.975209 0.172598 -0.460197)
(-0.840791 0.166227 -0.391613)
(-0.970502 0.170517 -0.459411)
(-0.883645 0.161832 -0.41388)
(-0.455397 0.27662 -0.312892)
(-0.367831 0.258749 -0.279418)
(-0.469559 0.257448 -0.335718)
(-0.396159 0.243778 -0.295374)
(-0.348149 0.23202 -0.27218)
(-0.313166 0.228776 -0.250251)
(-0.382866 0.233185 -0.291196)
(-0.368499 0.242664 -0.281054)
(-0.317021 0.255836 -0.252023)
(-0.403317 0.290483 -0.2952)
(-0.378556 0.27922 -0.281336)
(-0.488347 0.250232 -0.339345)
(-0.517854 0.276822 -0.345529)
(-0.561145 0.242051 -0.354219)
(-0.437889 0.276661 -0.318317)
(-0.418666 0.269324 -0.30113)
(-1.06098 0.156316 -0.591811)
(-1.06542 0.173946 -0.608937)
(-0.983909 0.191785 -0.577465)
(-0.993729 0.180365 -0.5832)
(-0.949278 0.210455 -0.569424)
(-0.971287 0.21295 -0.576404)
(-1.01056 0.181235 -0.591457)
(-1.03574 0.181596 -0.593906)
(-0.956023 0.218858 -0.575381)
(-0.903953 0.226347 -0.556252)
(-0.986224 0.173729 -0.572887)
(-0.890519 0.196489 -0.547396)
(-0.894396 0.189519 -0.54289)
(-0.975398 0.20687 -0.579427)
(-0.85192 0.212988 -0.547899)
(-0.873858 0.217561 -0.54853)
(-0.959512 0.202411 -0.570649)
(-0.545445 0.17421 -0.151903)
(-0.565487 0.209014 -0.155491)
(-0.615143 0.144318 -0.214527)
(-0.681213 0.156512 -0.249322)
(-0.690984 0.206848 -0.231829)
(-0.691362 0.186141 -0.240608)
(-0.664182 0.188277 -0.220863)
(-0.665908 0.116951 -0.2647)
(-0.713641 0.139352 -0.294832)
(-0.603301 0.153528 -0.19896)
(-0.708073 0.181175 -0.257183)
(-0.609939 0.138214 -0.194795)
(-0.700182 0.136678 -0.284441)
(-0.58825 0.131015 -0.185543)
(-0.736305 -0.0552816 -0.424006)
(-0.771248 -0.0661972 -0.441969)
(-0.913701 -0.111561 -0.511584)
(-0.746825 -0.0500286 -0.426717)
(-0.729807 -0.0468162 -0.421521)
(-0.863586 -0.100676 -0.490502)
(-0.845818 -0.0911064 -0.485437)
(-0.7574 -0.0576968 -0.437747)
(-0.909094 -0.114721 -0.505908)
(-0.766574 -0.062826 -0.422347)
(-0.958737 -0.125922 -0.538157)
(-0.728839 -0.0355208 -0.420461)
(-0.32764 0.103917 -0.166225)
(-0.313556 0.105706 -0.149224)
(-0.343647 0.100889 -0.154248)
(-0.33352 0.106997 -0.142588)
(-0.423512 0.15878 -0.0845021)
(-0.4101 0.151758 -0.0894)
(-0.432986 0.140506 -0.102875)
(-0.34629 0.0842241 -0.175965)
(-0.343783 0.0949818 -0.179921)
(-0.335786 0.0848221 -0.163497)
(-0.493013 0.223851 -0.0998804)
(-0.480206 0.205405 -0.0859241)
(-0.461961 0.200195 -0.0734342)
(-0.535023 0.389932 -0.263917)
(-0.527472 0.386322 -0.282598)
(-0.444685 0.130269 -0.097387)
(-0.440601 0.107599 -0.127286)
(-0.406257 0.126607 -0.0870682)
(-0.385937 0.112766 -0.0881771)
(-0.324928 0.170091 -0.249807)
(-0.371247 0.215801 -0.276796)
(-0.354795 0.179131 -0.275542)
(-0.630109 0.405301 -0.315811)
(-0.597456 0.406912 -0.287265)
(-0.592863 0.392525 -0.245335)
(-0.787975 0.268643 -0.506268)
(-0.722905 0.301398 -0.483867)
(-0.726186 0.295668 -0.481594)
(-0.745122 0.308819 -0.495517)
(-0.382433 0.0594102 -0.178934)
(-0.361371 0.0681936 -0.169112)
(-0.349299 0.0686233 -0.16958)
(-0.352444 0.0673462 -0.157734)
(-0.745078 0.334141 -0.215227)
(-0.757332 0.307253 -0.220632)
(-0.844061 0.201715 -0.433446)
(-0.842138 0.210961 -0.391935)
(-0.615495 0.348433 -0.26611)
(-0.561695 0.350727 -0.20177)
(-0.572709 0.362986 -0.233429)
(-0.646564 0.348055 -0.266536)
(-0.602754 0.357621 -0.263848)
(-0.495799 0.17063 -0.108631)
(-0.455365 0.146504 -0.0919419)
(-0.449493 0.167129 -0.0912891)
(-0.443473 0.140689 -0.0898701)
(-0.87292 0.194742 -0.35648)
(-0.813633 0.204546 -0.301573)
(-0.804603 0.22573 -0.292123)
(-0.807286 0.178331 -0.447605)
(-0.829855 0.176181 -0.433766)
(-0.792557 0.176878 -0.43978)
(-0.780032 0.295959 -0.281369)
(-0.725062 0.322126 -0.247312)
(-0.67743 0.330128 -0.263943)