/*--------------------------------*- C++ -*----------------------------------*\
| =========                 |                                                 |
| \\      /  F ield         | OpenFOAM: The Open Source CFD Toolbox           |
|  \\    /   O peration     | Version:  v1612+                                |
|   \\  /    A nd           | Web:      www.OpenFOAM.com                      |
|    \\/     M anipulation  |                                                 |
\*---------------------------------------------------------------------------*/
FoamFile
{
    version     2.0;
    format      ascii;
    class       volVectorField;
    location    "100";
    object      wallShearStress;
}
// * * * * * * * * * * * * * * * * * * * * * * * * * * * * * * * * * * * * * //

dimensions      [0 2 -2 0 0 0 0];

internalField   uniform (0 0 0);

boundaryField
{
    WALL
    {
        type            calculated;
        value           nonuniform List<vector> 
1491
(
(0.0195253 -0.0085986 -8.88653e-06)
(0.0101747 -0.00302367 0.00821254)
(0.0108316 -0.00355358 0.00902139)
(0.0119233 -0.00488767 0.00293184)
(0.0121401 -0.00421027 0.00256216)
(0.0118609 -0.00879627 0.00288899)
(0.0118487 -0.00946601 0.00238649)
(0.0128887 -0.0067507 0.00505411)
(0.0131734 -0.00680132 0.00367504)
(0.0170493 -0.0157439 -0.000526633)
(0.017756 -0.0134737 -0.00112607)
(0.0117225 -0.0174544 0.00224258)
(0.0134862 -0.0169307 0.000472285)
(0.0119645 -0.00775324 0.000202773)
(0.011377 -0.00604369 0.00116762)
(0.00965979 -0.00154408 0.00851889)
(0.00918395 -0.00164695 0.00815559)
(0.00942453 -0.00933253 0.00820349)
(0.00843383 -0.00867371 0.00911384)
(0.00990272 -0.00757988 0.00799551)
(0.00904531 -0.00692636 0.00868877)
(0.00932067 -0.000933733 0.00493389)
(0.00990785 -0.000904849 0.00401636)
(0.0116582 -0.00318669 0.00258534)
(0.0148676 -0.0155047 0.00135164)
(0.0134022 -0.0154098 0.00295793)
(0.00930133 -0.00277291 0.0071803)
(0.00946354 -0.0035182 0.00743001)
(0.0122546 -0.0061449 0.000980894)
(0.0115568 -0.0070612 0.00127334)
(0.011978 -0.0115324 0.0138727)
(0.0126395 -0.0131732 0.0141807)
(0.0129968 -0.00939659 0.0141249)
(0.0125971 -0.0107915 0.0147666)
(0.0120721 -0.0124401 0.00100412)
(0.0124774 -0.0122773 0.00162081)
(0.0150452 -0.00765296 0.0014262)
(0.0140443 -0.00678691 0.00106001)
(0.0123205 -0.00968568 8.20759e-05)
(0.0127851 -0.00959589 0.000273161)
(0.0184433 -0.00516896 0.0104395)
(0.0183706 -0.00471869 0.00914615)
(0.0118963 -0.00497468 0.00149858)
(0.0120174 -0.00588762 0.00170695)
(0.0169198 -0.0135195 0.000526538)
(0.0148035 -0.0133377 0.002201)
(0.0133127 -0.00511994 0.00336236)
(0.0126152 -0.00585056 0.00405259)
(0.0101185 -0.00588524 0.00767559)
(0.00900691 -0.00536942 0.00823819)
(0.0103272 -0.00509047 0.00789061)
(0.00933213 -0.00471343 0.00831226)
(0.0104252 -0.00602333 0.00840101)
(0.00994798 -0.00452635 0.00818976)
(0.00888892 -0.00532696 0.0108614)
(0.00948863 -0.00651981 0.0107997)
(0.00933781 -0.00699267 0.0119473)
(0.00869044 -0.00813611 0.0119314)
(0.00883815 -0.00527156 0.0113175)
(0.00859977 -0.00533933 0.0111198)
(0.0114448 -0.0044556 0.00852514)
(0.0106191 -0.00318735 0.00848239)
(0.0108281 -0.00381178 0.00911477)
(0.0114417 -0.00397144 0.0092262)
(0.0109071 -0.00371043 0.00852631)
(0.0117781 -0.00477294 0.00920305)
(0.011914 -0.00562589 0.00425726)
(0.012333 -0.00518923 0.00406925)
(0.0123605 -0.0056902 0.00431017)
(0.0123224 -0.00493104 0.0035498)
(0.0120043 -0.00519549 0.00326455)
(0.0124746 -0.00550578 0.00402737)
(0.00999497 -0.00213811 0.00817083)
(0.0102551 -0.00177922 0.00785254)
(0.00929306 -0.00141995 0.00703083)
(0.0104977 -0.00381013 0.00868043)
(0.0101349 -0.00228949 0.00784603)
(0.00982323 -0.00137234 0.00734601)
(0.00967401 -0.00298285 0.00833098)
(0.0100764 -0.00284233 0.00876569)
(0.0168484 -0.0144332 0.00130653)
(0.0174468 -0.0144402 0.0004555)
(0.0139108 -0.0139646 0.00315577)
(0.0167315 -0.0137202 0.000104565)
(0.0141137 -0.014447 0.00182981)
(0.0120839 -0.00879551 0.00584804)
(0.0117362 -0.00913285 0.00614423)
(0.010788 -0.00887482 0.00635129)
(0.0111008 -0.00812617 0.00618143)
(0.0110113 -0.00947416 0.004934)
(0.00952519 -0.00245403 0.00396052)
(0.00920692 -0.00259159 0.00382244)
(0.00887694 -0.00221818 0.00406298)
(0.00897824 -0.00236544 0.004293)
(0.008903 -0.00271074 0.00435981)
(0.00872802 -0.00263456 0.0045589)
(0.011185 -0.00721087 0.00604395)
(0.0105626 -0.00829456 0.00634077)
(0.0107867 -0.00783557 0.00521991)
(0.0103806 -0.00736193 0.00479931)
(0.00999886 -0.0078898 0.0055756)
(0.0121459 -0.00489655 0.00113991)
(0.0118954 -0.00496953 0.00115814)
(0.0117355 -0.00499383 0.00132623)
(0.00924415 -0.014729 0.0104722)
(0.0084684 -0.0119647 0.0108984)
(0.00930468 -0.0130094 0.00986381)
(0.00824569 -0.0123138 0.0116195)
(0.0101445 -0.0141302 0.011678)
(0.00849478 -0.011898 0.0115528)
(0.0213993 -0.00540723 0.0050516)
(0.0187144 -0.00477122 0.00844367)
(0.0177518 -0.00460181 0.00651689)
(0.0186549 -0.00486388 0.00572605)
(0.0207914 -0.00536006 0.00620602)
(0.0101955 -0.017956 0.0072063)
(0.0116798 -0.0172293 0.00633853)
(0.0111313 -0.0187567 0.00913648)
(0.0101728 -0.0171397 0.00570381)
(0.0114955 -0.0174379 0.00770841)
(0.0104907 -0.017904 0.00904031)
(0.011727 -0.00580125 0.00137452)
(0.0113085 -0.00484043 0.00181318)
(0.0113214 -0.00499434 0.00159638)
(0.0114039 -0.00546081 0.00170838)
(0.0109301 -0.00464208 0.0015225)
(0.0136842 -0.00471896 0.000779004)
(0.0137442 -0.00452972 0.00117438)
(0.0132819 -0.00601428 0.00166371)
(0.0141076 -0.0058268 0.0011233)
(0.0138248 -0.00520528 0.00151861)
(0.0161352 -0.0034614 0.00164639)
(0.0148682 -0.00139125 0.00328917)
(0.0170801 -0.00278995 0.00294872)
(0.0151552 -0.001856 0.00265045)
(0.0156896 -0.00208166 0.00400565)
(0.0137872 -0.00120102 0.00423187)
(0.0105919 -0.000922977 0.00757089)
(0.0105762 -0.0015145 0.00899642)
(0.0108009 -0.00159685 0.00890809)
(0.0109019 -0.000770413 0.00652013)
(0.0105896 -0.00146418 0.00847849)
(0.0112624 -0.000608927 0.00747587)
(0.0100669 -0.000857523 0.0081127)
(0.0101639 -0.000558997 0.00710912)
(0.00981613 -0.00152476 0.00825589)
(0.0102246 -0.000744941 0.00771179)
(0.00910112 -0.00207992 0.00865534)
(0.00998137 -0.00165698 0.00880685)
(0.0119156 -0.00666755 0.000834363)
(0.0125082 -0.0107681 0.000231624)
(0.0124274 -0.00759887 0.000784811)
(0.0124861 -0.00898459 0.000454106)
(0.0118605 -0.00718784 0.000906483)
(0.0124894 -0.00867919 0.000740733)
(0.0115364 -0.0120716 0.00151597)
(0.0120313 -0.0107003 0.00139452)
(0.0117222 -0.0102743 0.000450415)
(0.0121968 -0.0113962 0.000519018)
(0.011622 -0.0131171 0.00152326)
(0.0107825 -0.0159426 0.00283141)
(0.0113497 -0.0157651 0.00391335)
(0.0119295 -0.0159091 0.00228808)
(0.0112274 -0.0143719 0.00182657)
(0.012083 -0.0143626 0.00327697)
(0.0106815 -0.0161214 0.00377215)
(0.0126354 -0.0197677 0.00571154)
(0.0107621 -0.0210173 0.00886273)
(0.0115579 -0.0212845 0.00598179)
(0.0117444 -0.0202261 0.00613885)
(0.0119956 -0.0213522 0.00792953)
(0.0116952 -0.0202112 0.00909465)
(0.0109769 -0.0205065 0.00748558)
(0.0113342 -0.0120694 0.0141782)
(0.0142883 -0.0100561 0.0143494)
(0.0138802 -0.00841111 0.0136307)
(0.0146045 -0.00815841 0.0133595)
(0.0127495 -0.0110768 0.0142802)
(0.0131491 -0.0114239 0.0150693)
(0.0132271 -0.0146553 0.0151371)
(0.0138792 -0.011714 0.0150205)
(0.0126548 -0.0138357 0.0145738)
(0.0115476 -0.0158317 0.0150848)
(0.0123153 -0.0117071 0.015065)
(0.0101278 -0.0120274 0.0134618)
(0.0119921 -0.00999581 0.0140821)
(0.0104393 -0.0126071 0.0142037)
(0.0116023 -0.0119676 0.0144464)
(0.0133893 -0.00303039 0.0108916)
(0.0134868 -0.00203902 0.00989897)
(0.0146704 -0.00289147 0.00948255)
(0.0150619 -0.00233571 0.00963556)
(0.0125092 -0.0033307 0.0108382)
(0.0157437 -0.00201135 0.00853671)
(0.0194041 -0.00404735 0.00692744)
(0.0172758 -0.00385949 0.00939792)
(0.0186299 -0.00398575 0.00806644)
(0.0178915 -0.00437149 0.00771232)
(0.017082 -0.00453815 0.0107294)
(0.0102507 -0.00695731 0.012891)
(0.0114971 -0.00502206 0.0123183)
(0.0117874 -0.0055138 0.0128596)
(0.00962241 -0.00714859 0.0130009)
(0.0103507 -0.00658554 0.0128398)
(0.00956411 -0.00547234 0.0120772)
(0.0157872 -0.0165692 0.000865023)
(0.01466 -0.0164085 0.000868957)
(0.0129406 -0.0170319 0.00177961)
(0.0129212 -0.0167817 0.00131324)
(0.0153113 -0.0159446 0.000214397)
(0.0143342 -0.0171547 0.00144109)
(0.0128878 -0.0145554 0.00349246)
(0.0114694 -0.0152378 0.00445089)
(0.0105618 -0.013709 0.00404862)
(0.0123306 -0.0147184 0.00382815)
(0.0118704 -0.0154225 0.00221593)
(0.0104481 -0.0155142 0.00335954)
(0.00961226 -0.0149922 0.0046978)
(0.0109911 -0.0145755 0.00465782)
(0.0090722 -0.0138384 0.00479843)
(0.0109751 -0.016905 0.00297249)
(0.0108025 -0.0163745 0.00391544)
(0.0215183 -0.00682462 0.00250985)
(0.0210091 -0.00809616 0.00137127)
(0.0208197 -0.00615402 0.00237183)
(0.0212941 -0.00769375 0.00159795)
(0.0203349 -0.00572544 0.00300216)
(0.0205362 -0.00683189 0.00185924)
(0.0206965 -0.012625 -0.000432367)
(0.0202715 -0.0103665 -0.000689324)
(0.0198456 -0.0104318 -0.000374934)
(0.0198755 -0.0106497 0.000125769)
(0.0186893 -0.012657 -0.000774416)
(0.0197289 -0.0097719 -0.000713273)
(0.0206591 -0.0104843 -0.000320381)
(0.0199605 -0.00654199 0.00112306)
(0.021151 -0.00813388 0.001446)
(0.0216543 -0.0083048 0.00142273)
(0.0220743 -0.0103698 0.000134768)
(0.0209736 -0.00716105 0.00102021)
(0.0117094 -0.0153411 0.0146825)
(0.0105712 -0.0155824 0.0133915)
(0.00924717 -0.016393 0.0129581)
(0.0118433 -0.0139925 0.0146526)
(0.0124522 -0.0142845 0.0145319)
(0.0110024 -0.0191452 0.0134109)
(0.0112681 -0.0192992 0.0124562)
(0.011829 -0.0176179 0.0145599)
(0.0113632 -0.0205648 0.0126401)
(0.0115337 -0.0172554 0.0143513)
(0.0126543 -0.0180714 0.0141946)
(0.00843904 -0.0085441 0.0119666)
(0.00784943 -0.00842488 0.0110108)
(0.00819275 -0.00901167 0.0119994)
(0.00886928 -0.0113522 0.0117929)
(0.009067 -0.00987524 0.0108759)
(0.00935669 -0.0105367 0.0124118)
(0.00973835 -0.0152709 0.00977276)
(0.00964236 -0.0157167 0.0110539)
(0.00928191 -0.0163805 0.00800644)
(0.00945061 -0.0153256 0.00806853)
(0.0103664 -0.0159455 0.00942636)
(0.00891792 -0.0150177 0.0103207)
(0.0118655 -0.00384385 0.00186752)
(0.0116763 -0.00243879 0.00218855)
(0.0115431 -0.00282116 0.00206579)
(0.011895 -0.00345265 0.00196685)
(0.0116908 -0.00283922 0.0020971)
(0.0117414 -0.00349043 0.00177948)
(0.0110351 -0.00262588 0.00184823)
(0.0106693 -0.00272948 0.00162717)
(0.0110842 -0.00328333 0.00137709)
(0.0114454 -0.00358348 0.00165738)
(0.0113355 -0.00282533 0.00173804)
(0.0118669 -0.00335984 0.00199198)
(0.012242 -0.00539206 0.00274657)
(0.0120588 -0.00551073 0.00221401)
(0.0121033 -0.00601533 0.00262042)
(0.0118806 -0.00477871 0.00209732)
(0.0124344 -0.00477047 0.00216209)
(0.0120784 -0.00510444 0.00212345)
(0.0117358 -0.00306098 0.00200398)
(0.0122287 -0.00358157 0.00233153)
(0.0117584 -0.00447056 0.00235023)
(0.011753 -0.00270477 0.0022501)
(0.0117925 -0.00314338 0.00254233)
(0.0115877 -0.00397448 0.00217291)
(0.0120031 -0.00389511 0.00230583)
(0.0123799 -0.00468347 0.00294314)
(0.0105376 -0.0109383 0.0060243)
(0.0101935 -0.012152 0.00485404)
(0.0094005 -0.0123374 0.00512629)
(0.0089254 -0.012672 0.00590966)
(0.00969398 -0.0109688 0.00447599)
(0.00917395 -0.0116021 0.00611278)
(0.0102158 -0.00685275 0.00799188)
(0.00973909 -0.00825169 0.00761834)
(0.0105273 -0.00827946 0.00755072)
(0.0102416 -0.007513 0.00865658)
(0.0098092 -0.00811907 0.0085689)
(0.0101099 -0.00815065 0.00738286)
(0.010561 -0.00668461 0.00733777)
(0.0101412 -0.0067074 0.00764768)
(0.0106329 -0.00722475 0.00629428)
(0.0110692 -0.0072933 0.0072165)
(0.0108856 -0.00638375 0.00666093)
(0.00983806 -0.00681174 0.00723489)
(0.0118101 -0.00650855 0.00495793)
(0.0108935 -0.00687894 0.00503973)
(0.0116971 -0.00647769 0.00414543)
(0.0116784 -0.00681776 0.00542485)
(0.0119072 -0.00707493 0.0048039)
(0.0114429 -0.00683324 0.00395039)
(0.0092757 -0.0128205 0.00851135)
(0.00965136 -0.0124943 0.0105971)
(0.00929286 -0.0121277 0.00929694)
(0.00916917 -0.0122816 0.0103541)
(0.00882269 -0.012591 0.00902467)
(0.0087712 -0.0121456 0.00802335)
(0.0089273 -0.0084938 0.0110695)
(0.00902081 -0.00926147 0.0115419)
(0.00800441 -0.0103066 0.00939247)
(0.00895835 -0.00936979 0.0106503)
(0.00846095 -0.00985964 0.0095537)
(0.00877836 -0.00972721 0.0102031)
(0.0080543 -0.0107929 0.00588794)
(0.00709351 -0.0109692 0.00548781)
(0.0072922 -0.00798928 0.00613041)
(0.0067357 -0.00865583 0.00625727)
(0.00745834 -0.00909424 0.00582928)
(0.00744965 -0.010126 0.00639878)
(0.00610267 -0.00837562 0.00591076)
(0.0071181 -0.00999421 0.00639914)
(0.00581983 -0.00732093 0.00575475)
(0.00654371 -0.009656 0.00584816)
(0.00697138 -0.00826574 0.00621841)
(0.0063621 -0.00716321 0.00587727)
(0.00929647 -0.00227545 0.00268816)
(0.00966383 -0.0023007 0.00233133)
(0.00912785 -0.0019733 0.00323961)
(0.00959838 -0.0021537 0.00301374)
(0.00957026 -0.00219133 0.00288819)
(0.0091784 -0.00190245 0.00323087)
(0.00821909 -0.00363527 0.00462336)
(0.00835576 -0.00350428 0.00489392)
(0.0102061 -0.00388157 0.00261059)
(0.0102403 -0.00419558 0.0021456)
(0.0101066 -0.00375576 0.00296444)
(0.010426 -0.00358012 0.00337454)
(0.010593 -0.00405856 0.00281376)
(0.0121866 -0.00767761 0.0011131)
(0.0123077 -0.00864006 0.000696228)
(0.0120622 -0.00815022 0.000684888)
(0.0125345 -0.00684412 0.000924513)
(0.0119836 -0.00679139 0.0010141)
(0.0115475 -0.00569829 0.000977242)
(0.0116256 -0.00415553 0.00121412)
(0.0118262 -0.00456568 0.00115472)
(0.0115594 -0.00482659 0.00138841)
(0.0120592 -0.00431464 0.0015173)
(0.0114784 -0.00539549 0.00119624)
(0.0122176 -0.00498884 0.00156873)
(0.0102771 -0.0058513 0.00740788)
(0.00989631 -0.00505039 0.00797039)
(0.00970526 -0.00488402 0.00772306)
(0.0106041 -0.00557139 0.00812464)
(0.0103147 -0.00515086 0.00770144)
(0.0108288 -0.00639652 0.00805985)
(0.0085306 -0.00209306 0.00537034)
(0.00908073 -0.00173667 0.00541195)
(0.00896364 -0.00135256 0.00492774)
(0.00879303 -0.00231065 0.00606138)
(0.00898562 -0.00164223 0.00525215)
(0.00880933 -0.0019113 0.00536748)
(0.00925283 -0.00332661 0.00678756)
(0.008929 -0.00280556 0.006606)
(0.00896158 -0.00380865 0.00643438)
(0.0093323 -0.00437268 0.00743804)
(0.00931169 -0.00314888 0.00656282)
(0.00879923 -0.00301349 0.00677887)
(0.00958002 -0.00494093 0.00719137)
(0.0094719 -0.00413799 0.00722524)
(0.0101038 -0.00525174 0.00797681)
(0.00984966 -0.00448616 0.00786449)
(0.00950316 -0.00396602 0.00774003)
(0.00813038 -0.00309309 0.00553758)
(0.0092057 -0.00210727 0.00553544)
(0.00865123 -0.00272321 0.0057147)
(0.00867327 -0.00244738 0.00559105)
(0.00856335 -0.00345938 0.00630488)
(0.00882847 -0.00252142 0.00549697)
(0.0106404 -0.00839234 0.00650443)
(0.00890213 -0.0075083 0.00624023)
(0.0107622 -0.00959598 0.00601155)
(0.00970054 -0.00746116 0.00640269)
(0.00990946 -0.00867891 0.00638389)
(0.0100053 -0.00920003 0.00558425)
(0.0193101 -0.0112469 -0.000535717)
(0.0184122 -0.0123251 -0.000362012)
(0.017996 -0.0143616 -0.000448115)
(0.0192585 -0.013418 -6.17867e-05)
(0.0196018 -0.0117178 -1.92483e-05)
(0.0177594 -0.0140886 -0.000828861)
(0.0116205 -0.0112523 0.00485054)
(0.0132334 -0.0128192 0.00381972)
(0.0126237 -0.0115249 0.0042566)
(0.0135492 -0.0128384 0.00296938)
(0.0124354 -0.0123831 0.00480555)
(0.0138267 -0.0125521 0.00376837)
(0.0115906 -0.000662838 0.00367062)
(0.0111 -0.000244154 0.00364049)
(0.0111616 -1.21772e-05 0.0044383)
(0.0107134 -0.000341702 0.00333946)
(0.0102864 5.53521e-05 0.00490113)
(0.0107506 -0.000128553 0.00463293)
(0.0114057 -0.000228226 0.00431542)
(0.0104011 -0.000138261 0.00431032)
(0.00910394 -0.00135428 0.00532942)
(0.00960087 -0.00107655 0.0055306)
(0.00966709 -0.000822984 0.00434691)
(0.0105723 -0.000633588 0.00400458)
(0.00948105 -0.00102012 0.00442851)
(0.00980041 -0.000741277 0.0050536)
(0.00943204 -0.0011077 0.00474324)
(0.0106164 -0.000532389 0.00404115)
(0.0109578 -0.00023985 0.00465383)
(0.010975 -0.000381551 0.00425611)
(0.0105428 -0.000635216 0.00348581)
(0.0101454 -0.000348831 0.00427312)
(0.0114416 -0.00155504 0.00272024)
(0.0110685 -0.0012895 0.00325791)
(0.0113582 -0.00192738 0.00243841)
(0.0109159 -0.000925944 0.00338905)
(0.011082 -0.00121214 0.00291846)
(0.0110083 -0.00164942 0.00246355)
(0.010714 -0.00303253 0.00228597)
(0.0108652 -0.00322847 0.00202862)
(0.0110487 -0.00370046 0.00194596)
(0.0107407 -0.0028902 0.00200623)
(0.0108997 -0.0033552 0.00212074)
(0.00941666 -0.00529243 0.00945853)
(0.00996301 -0.00649856 0.00947744)
(0.0096288 -0.00495347 0.00972759)
(0.00879035 -0.00599932 0.00980018)
(0.00970375 -0.00671404 0.00988234)
(0.00986686 -0.00701684 0.00969952)
(0.00917939 -0.00451172 0.00947173)
(0.00996333 -0.00408241 0.0100129)
(0.00960779 -0.0039871 0.00940095)
(0.00927644 -0.00316945 0.00928724)
(0.00972168 -0.00282101 0.00941021)
(0.014004 -0.00958661 0.00243581)
(0.0131026 -0.00981469 0.00390985)
(0.0143854 -0.00985051 0.00358505)
(0.0136628 -0.00868066 0.00385488)
(0.0129118 -0.00869758 0.00437117)
(0.0139219 -0.00896761 0.00294598)
(0.0173536 -0.00564125 -1.93191e-05)
(0.0159867 -0.00741441 0.000167198)
(0.0155617 -0.00574432 0.000459486)
(0.0179192 -0.00764012 0.000557211)
(0.0168313 -0.00569674 0.000215039)
(0.0165469 -0.00667343 -0.000473661)
(0.0163694 -0.0104153 0.00170357)
(0.0170758 -0.0100654 0.000790952)
(0.0172956 -0.00998451 0.000177314)
(0.0153658 -0.0107343 0.00199854)
(0.0176316 -0.0112311 0.000964188)
(0.0160945 -0.0117864 0.0010851)
(0.0127146 -0.00790047 0.00484499)
(0.0127234 -0.00762762 0.00510854)
(0.0126579 -0.00800372 0.00633418)
(0.0129063 -0.00796981 0.00565277)
(0.0120172 -0.0076485 0.00618913)
(0.0128957 -0.00739089 0.00584491)
(0.0113083 -0.00629391 0.00788884)
(0.011728 -0.00718985 0.00739755)
(0.0106696 -0.00567266 0.00769403)
(0.0111231 -0.00645155 0.00708365)
(0.0100878 -0.00581653 0.00761141)
(0.0115137 -0.00635538 0.00785199)
(0.013274 -0.00610966 0.00500965)
(0.0128782 -0.00756956 0.00460233)
(0.0123366 -0.00646431 0.00496524)
(0.0130572 -0.00690498 0.00590782)
(0.0130863 -0.00674672 0.00576104)
(0.0134433 -0.00655004 0.00463222)
(0.0130981 -0.00552317 0.0021793)
(0.0134269 -0.00601662 0.00264216)
(0.0135486 -0.00620424 0.00325132)
(0.013167 -0.0057436 0.00374667)
(0.0131611 -0.00514132 0.0026632)
(0.0108428 -0.00659206 0.00716429)
(0.011412 -0.0060529 0.00718955)
(0.0118148 -0.00685366 0.00634338)
(0.0122537 -0.00720216 0.00658632)
(0.011432 -0.00655095 0.00674512)
(0.012457 -0.00690426 0.00741143)
(0.00991939 -0.0013549 0.00814761)
(0.010552 -0.00109956 0.00822106)
(0.0102639 -0.000546669 0.00703928)
(0.0100613 -0.00100877 0.00767653)
(0.0100931 -0.000752292 0.00779899)
(0.0108005 -0.000449443 0.00787422)
(0.0101361 0.000119529 0.00568712)
(0.0107065 0.000123753 0.00549462)
(0.0109104 0.000269323 0.00702217)
(0.0103909 4.16329e-05 0.00650732)
(0.0112244 -0.0038469 0.00963294)
(0.0101686 -0.002253 0.00820287)
(0.0105936 -0.00321426 0.00929836)
(0.010313 -0.00291805 0.00838789)
(0.0110114 -0.00378003 0.00891533)
(0.0105306 -0.00276964 0.00913164)
(0.0156107 -0.0013244 0.00557287)
(0.0137183 -0.00153929 0.0076912)
(0.0127226 -0.0014243 0.00935249)
(0.0120906 -0.00151776 0.0085517)
(0.0123994 -0.000795323 0.00642606)
(0.0126714 -0.00111911 0.00519838)
(0.0140514 -0.00108864 0.00625358)
(0.0104121 -0.00403556 0.011623)
(0.0113501 -0.002819 0.0105493)
(0.0101266 -0.0040321 0.0115656)
(0.0119712 -0.00278631 0.0107341)
(0.0109592 -0.00355651 0.0112359)
(0.016801 -0.00234892 0.00435465)
(0.0153749 -0.00170698 0.00728931)
(0.0155433 -0.00209268 0.0081033)
(0.0163808 -0.00174768 0.00635188)
(0.0180997 -0.00267587 0.00692467)
(0.0191998 -0.00428274 0.00181054)
(0.0193197 -0.00416316 0.00241859)
(0.0192126 -0.00572521 0.00125167)
(0.0201888 -0.00613412 0.00124535)
(0.0193093 -0.00293589 0.00470765)
(0.0170127 -0.00311293 0.00352626)
(0.0195779 -0.00907336 0.0004539)
(0.0184376 -0.0104183 -0.00069698)
(0.0200209 -0.00612869 0.00155367)
(0.0192001 -0.00904348 0.000366003)
(0.0176007 -0.0104094 -0.000607647)
(0.0130887 -0.0143671 0.00106177)
(0.0131139 -0.0133468 0.000859165)
(0.0127953 -0.0111481 0.000259776)
(0.0128987 -0.0121751 0.000167569)
(0.0129912 -0.0134729 0.000936504)
(0.012803 -0.0116609 0.000281328)
(0.0122354 -0.0199701 0.00358877)
(0.012554 -0.0191504 0.00306088)
(0.0129276 -0.0173272 0.00222921)
(0.0125427 -0.0163473 0.00139731)
(0.00830762 -0.0101444 0.00555008)
(0.00930912 -0.0118623 0.00624335)
(0.00875426 -0.0102783 0.00650044)
(0.0098467 -0.0118429 0.00576352)
(0.00958775 -0.012818 0.0055814)
(0.00890388 -0.00935969 0.00657953)
(0.0115883 -0.0102587 0.00226451)
(0.011229 -0.010912 0.00283174)
(0.0117839 -0.00960376 0.00310861)
(0.0123363 -0.0081057 0.00222846)
(0.0108102 -0.0105134 0.00338542)
(0.0108195 -0.0111228 0.00350007)
(0.013504 -0.00154613 0.00207838)
(0.0131261 -0.000625064 0.00272486)
(0.013177 -0.00189142 0.00188957)
(0.0127378 -0.00180538 0.001934)
(0.0127166 -0.00068508 0.00246843)
(0.0116886 -0.0013062 0.00147015)
(0.0134955 -0.00196685 0.00181082)
(0.0130586 -0.00229802 0.00104972)
(0.0138605 -0.00362741 0.000713246)
(0.0132604 -0.00354108 0.000797589)
(0.0150625 -0.00258314 0.00192955)
(0.0137324 -0.00273592 0.00131733)
(0.0136026 -0.00121131 0.00279699)
(0.0142989 -0.00201758 0.0018356)
(0.0131441 -0.000863904 0.00361151)
(0.0113352 -0.000129945 0.00616635)
(0.0125009 -0.00021944 0.00412346)
(0.0122621 -0.000297483 0.0042674)
(0.0108192 -0.000170789 0.00581095)
(0.0116231 0.000101669 0.00516008)
(0.0103315 3.66473e-05 0.00632887)
(0.0104711 -0.000143128 0.00639119)
(0.0134741 -0.00125006 0.0022278)
(0.014597 -0.00237416 0.00194637)
(0.0110571 0.000151768 0.00617951)
(0.0115223 4.59333e-05 0.0051516)
(0.0109467 0.000583433 0.00468834)
(0.0113088 0.000327611 0.00602818)
(0.0127352 -0.000346994 0.00323232)
(0.0129326 -0.00108412 0.00237112)
(0.0113742 8.64685e-05 0.00371078)
(0.0127774 -0.000480591 0.00321101)
(0.0122222 0.000199496 0.00371104)
(0.0132707 -0.0015984 0.00186462)
(0.0128638 -0.00263891 0.00159838)
(0.0118206 -0.0178854 0.00413662)
(0.0105328 -0.0106455 0.0062818)
(0.0101498 -0.0111913 0.0057484)
(0.0134582 -0.00677796 0.00302103)
(0.0137839 -0.00801756 0.0029929)
(0.0143259 -0.00770827 0.00244262)
(0.0136667 -0.00766225 0.00381144)
(0.00899269 -0.00985495 0.00575562)
(0.00808364 -0.0130689 0.0065259)
(0.00745585 -0.013394 0.00595878)
(0.00999536 -0.0158208 0.00375726)
(0.0103989 -0.0168582 0.00315552)
(0.0109139 -0.0166665 0.00326016)
(0.0089611 -0.0150637 0.00468428)
(0.00801347 -0.0148189 0.00528606)
(0.00896616 -0.0163374 0.00359408)
(0.0158473 -0.0161128 -0.00102367)
(0.0157162 -0.0162134 -0.000709765)
(0.0166979 -0.0144676 -0.00080553)
(0.0185946 -0.0146161 -0.000941652)
(0.0183105 -0.0148148 -0.000930081)
(0.0158531 -0.0163347 -0.000123187)
(0.012296 -0.0183181 0.00163758)
(0.00646149 -0.00666625 0.00630867)
(0.00633904 -0.00646537 0.00658542)
(0.011131 -0.00568763 0.00140389)
(0.0124205 -0.00677782 0.00153305)
(0.0121868 -0.00676273 0.00198814)
(0.0113372 -0.00540721 0.00168362)
(0.0130125 -0.0106003 0.000489426)
(0.0117429 -0.00614787 0.001503)
(0.0122112 -0.00729716 0.00138543)
(0.0131156 -0.00884982 0.000858377)
(0.0130933 -0.00983741 0.00012491)
(0.0126513 -0.0144467 0.000981757)
(0.0195842 -0.00575484 0.00146457)
(0.0202941 -0.00900988 8.29594e-05)
(0.0202872 -0.00776114 0.0002873)
(0.0187111 -0.00333653 0.00356299)
(0.0161709 -0.00193023 0.00595573)
(0.0157194 -0.00161547 0.00464389)
(0.0137957 -0.0015009 0.00853969)
(0.0130995 -0.00259505 0.0102861)
(0.00889304 -0.00621549 0.010722)
(0.00838977 -0.0068555 0.0103301)
(0.00836668 -0.0070323 0.0102241)
(0.00792675 -0.00726356 0.00981664)
(0.0113686 -0.00262926 0.0100493)
(0.010026 -0.00432531 0.0116464)
(0.0104751 -0.00276348 0.0101902)
(0.0101163 -0.00397809 0.0112658)
(0.0105457 -0.00245053 0.00968949)
(0.010063 -0.00150196 0.00841939)
(0.00903704 -0.00284335 0.00958544)
(0.00950252 -0.00540563 0.0113198)
(0.00935835 -0.00454688 0.0110891)
(0.00993019 -0.00400374 0.0106781)
(0.00896681 -0.00581103 0.0109639)
(0.00907747 -0.00582274 0.0109154)
(0.00868306 -0.00451968 0.0103604)
(0.0102806 -0.00403026 0.00857691)
(0.0105884 -0.00441912 0.00873484)
(0.00984257 -0.00229051 0.00859331)
(0.0109178 -0.00280913 0.00921402)
(0.0106886 -0.00206032 0.00924633)
(0.0104579 -0.00184326 0.00842481)
(0.0109353 -0.00146798 0.00905783)
(0.0113047 -0.00560846 0.00872637)
(0.0111427 -0.00576913 0.00820752)
(0.0116254 -0.00467768 0.0092194)
(0.011363 -0.0049153 0.00904772)
(0.0107983 -0.00464055 0.00800414)
(0.0110593 -0.00550646 0.00736945)
(0.0114841 -0.00481282 0.00805546)
(0.011422 -0.00572304 0.00756595)
(0.0119827 -0.00521503 0.00822658)
(0.0108639 -0.0049714 0.0079575)
(0.012152 -0.00559437 0.00845458)
(0.0116911 -0.00483583 0.00841445)
(0.0105891 -0.00075789 0.00810055)
(0.0119945 -0.00583527 0.00734384)
(0.0125247 -0.0059803 0.00726014)
(0.0134298 -0.00626806 0.00234282)
(0.0119731 -0.00637813 0.00618062)
(0.0131224 -0.00712878 0.00337057)
(0.0121857 -0.00711577 0.00603205)
(0.0119535 -0.0063678 0.00826781)
(0.0134753 -0.00751516 0.00412535)
(0.0128062 -0.00696533 0.00625854)
(0.0123031 -0.00711575 0.00705628)
(0.0177207 -0.0105973 0.000845322)
(0.0195034 -0.00948004 0.000672637)
(0.0151701 -0.0084265 0.000544496)
(0.0165995 -0.00927496 3.58034e-06)
(0.0150043 -0.0103097 0.00313907)
(0.0150671 -0.0085659 0.00179976)
(0.0141956 -0.00887399 0.00233792)
(0.0153502 -0.00950448 0.00224951)
(0.0155329 -0.00868785 0.00140386)
(0.0134087 -0.00797215 0.00446749)
(0.0126633 -0.00832676 0.00506038)
(0.00966194 -0.00396506 0.009114)
(0.00971628 -0.00245342 0.00895065)
(0.00982289 -0.00302445 0.00934697)
(0.0100668 -0.00355991 0.00934186)
(0.00886592 -0.00709653 0.00985592)
(0.00917864 -0.00542109 0.0102222)
(0.0102257 -0.00508796 0.00911831)
(0.0103094 -0.00655094 0.00899653)
(0.0101914 -0.00560404 0.0094302)
(0.00958565 -0.00628776 0.00898236)
(0.0102219 -0.00495024 0.00951468)
(0.00940908 -0.00532184 0.00962838)
(0.00953483 -0.00411898 0.00926892)
(0.00973784 -0.00555009 0.00973147)
(0.00971089 -0.00238137 0.00930248)
(0.00907851 -0.00371344 0.00965021)
(0.00952096 -0.00273881 0.00963356)
(0.00903751 -0.00298725 0.0096421)
(0.00865495 -0.00416867 0.0098075)
(0.00930119 -0.00290611 0.0096354)
(0.00897985 -0.00394459 0.00969906)
(0.00950774 -0.00435404 0.00999244)
(0.0096361 -0.00151856 0.00860985)
(0.0102079 -0.00252811 0.00907334)
(0.00959533 -0.00163507 0.00844595)
(0.00927579 -0.00321541 0.0089592)
(0.00934321 -0.004208 0.00920098)
(0.00939027 -0.00437124 0.00910728)
(0.0101132 -0.00106039 0.00313391)
(0.0103786 -0.000983888 0.00343986)
(0.0102257 -0.000711243 0.00361814)
(0.0117636 -0.00176809 0.00258484)
(0.0117274 -0.00113242 0.00325821)
(0.0119285 -0.00081676 0.00347678)
(0.0105492 -0.000523059 0.00305529)
(0.0115198 -0.000632782 0.00370085)
(0.0111709 -0.0012841 0.00276251)
(0.011573 -0.0011775 0.00302894)
(0.0116675 -0.00145738 0.00278335)
(0.0118884 -0.00107241 0.00318802)
(0.0124447 -0.00200993 0.00270763)
(0.0124401 -0.00309098 0.00295125)
(0.0123331 -0.00383332 0.00271087)
(0.0122869 -0.00246472 0.00265782)
(0.0125766 -0.00278337 0.00297123)
(0.0122166 -0.00420822 0.00294153)
(0.0120203 -0.00402142 0.00345314)
(0.012179 -0.00357389 0.00311334)
(0.011069 0.000143414 0.0046388)
(0.0111506 -0.00115953 0.00289753)
(0.0111201 -0.000911526 0.0030866)
(0.0108851 -0.000455878 0.00364755)
(0.0111759 -0.000888872 0.00325907)
(0.0106808 -0.00155558 0.00296691)
(0.0110823 -0.00146255 0.00306755)
(0.0112148 -0.00173984 0.00278963)
(0.00958343 -0.00148067 0.00688736)
(0.00909721 -0.00156462 0.00654603)
(0.00939631 -0.0013406 0.0063332)
(0.0104979 -0.000128925 0.00687385)
(0.00978648 -0.000534931 0.0067246)
(0.00986576 -0.000333413 0.00622334)
(0.00972662 -0.000479387 0.00603615)
(0.0100261 -0.00101947 0.00703581)
(0.00965861 -0.00110434 0.00650242)
(0.0107037 -0.000158109 0.00616135)
(0.010142 -0.00399993 0.00829531)
(0.010893 -0.0051375 0.0080546)
(0.010855 -0.00453015 0.00839159)
(0.0102164 -0.00507664 0.00834914)
(0.0103953 -0.004602 0.00867368)
(0.0125958 -0.0076584 0.00641285)
(0.0114051 -0.00717097 0.00680705)
(0.0100295 -0.000631039 0.00461552)
(0.00949604 -0.00103879 0.00562248)
(0.0104233 -0.000588714 0.00576324)
(0.0104085 -0.000424098 0.00500608)
(0.0100981 -0.000703106 0.00614979)
(0.00986652 -0.00127854 0.00313154)
(0.00974351 -0.00114471 0.00366336)
(0.00963328 -0.00129327 0.00415894)
(0.00942598 -0.00138318 0.00479704)
(0.00981001 -0.00109492 0.00423509)
(0.0187795 -0.0113477 -0.000265334)
(0.0180678 -0.0124464 0.000441688)
(0.0167345 -0.0118787 0.0010133)
(0.0184941 -0.0104013 -0.000489747)
(0.018131 -0.0104338 -0.000100297)
(0.0123841 -0.013624 0.00354993)
(0.0177389 -0.0146354 -0.00032093)
(0.0166955 -0.0156434 0.000373203)
(0.0110345 -0.00791269 0.00691972)
(0.0113428 -0.0120282 0.0050512)
(0.0111237 -0.0124807 0.00381313)
(0.0102398 -0.0114009 0.00542153)
(0.0119214 -0.011407 0.00488327)
(0.0104413 -0.0102151 0.00532968)
(0.0123412 -0.00778393 0.00704643)
(0.0112716 -0.00768662 0.00559064)
(0.0122824 -0.00802628 0.00562738)
(0.0156522 -0.0123978 0.00260063)
(0.0154258 -0.0119322 0.00182316)
(0.015301 -0.012333 0.00109737)
(0.0142137 -0.0128714 0.00285925)
(0.0143823 -0.0112142 0.00281463)
(0.0141803 -0.0104846 0.00369626)
(0.0130819 -0.0113213 0.00320347)
(0.0124425 -0.00916725 0.0052795)
(0.0130182 -0.00970165 0.00469869)
(0.0133051 -0.0100266 0.00441978)
(0.00876572 -0.00394225 0.0069574)
(0.00888158 -0.00473099 0.00747596)
(0.00820749 -0.00347622 0.00597732)
(0.00824727 -0.00384107 0.00615731)
(0.00810142 -0.00488725 0.00610651)
(0.00780818 -0.004244 0.00594463)
(0.00774177 -0.00375324 0.00581898)
(0.00819927 -0.00309064 0.00584121)
(0.0081627 -0.00273709 0.00540086)
(0.00903984 -0.00427118 0.0070169)
(0.00873314 -0.0044884 0.00670331)
(0.00848234 -0.00515948 0.00675296)
(0.00878769 -0.00483007 0.00687869)
(0.00833096 -0.00441487 0.00643189)
(0.00936702 -0.00137577 0.00309021)
(0.00892079 -0.00115809 0.00326135)
(0.00961754 -0.00125847 0.00401592)
(0.00933993 -0.0012756 0.00419008)
(0.00850009 -0.00238969 0.0049176)
(0.00919769 -0.00137837 0.00455304)
(0.0089649 -0.00284291 0.00643988)
(0.00907668 -0.00129029 0.00494298)
(0.0117706 -0.00757438 0.00781464)
(0.0113499 -0.00710089 0.00718443)