/*--------------------------------*- C++ -*----------------------------------*\
| =========                 |                                                 |
| \\      /  F ield         | OpenFOAM: The Open Source CFD Toolbox           |
|  \\    /   O peration     | Version:  v1612+                                |
|   \\  /    A nd           | Web:      www.OpenFOAM.com                      |
|    \\/     M anipulation  |                                                 |
\*---------------------------------------------------------------------------*/
FoamFile
{
    version     2.0;
    format      ascii;
    class       surfaceScalarField;
    location    "100";
    object      phi;
}
// * * * * * * * * * * * * * * * * * * * * * * * * * * * * * * * * * * * * * //

dimensions      [0 3 -1 0 0 0 0];

internalField   nonuniform List<scalar> 
37033
(
-1.12704e-08
-5.19739e-09
4.06075e-09
1.24072e-08
-7.32609e-09
-2.42859e-09
-1.51564e-09
-1.07693e-08
1.30731e-08
1.15813e-08
-3.46864e-09
-1.53276e-08
1.11167e-09
9.01853e-09
-5.88663e-09
-2.53403e-09
1.96679e-08
-4.99651e-09
1.37681e-08
8.62317e-09
1.29475e-08
1.15209e-08
-1.34454e-09
2.66911e-09
1.76693e-08
2.28339e-09
9.31953e-09
-8.59372e-10
2.29252e-08
1.51921e-08
-3.16399e-08
3.02593e-08
-2.72727e-09
4.1076e-09
-1.76286e-09
-2.60566e-08
-1.11406e-08
1.59019e-08
2.12953e-08
-1.77704e-08
-1.2871e-09
-6.99904e-09
1.93821e-08
2.01966e-08
-2.03884e-08
1.72409e-08
4.20142e-10
-9.21258e-09
-1.29388e-08
1.42099e-08
-1.23125e-08
-1.45075e-09
4.52007e-09
2.59226e-09
5.62751e-09
1.11623e-08
6.20251e-09
1.36306e-08
4.99188e-09
2.03077e-08
-1.9097e-08
-3.85493e-09
2.47487e-08
-9.08456e-09
1.08571e-08
-1.00919e-08
9.89783e-09
4.65682e-09
2.14e-09
-5.9944e-09
1.04815e-08
-6.62719e-09
-5.3691e-09
-4.72369e-09
1.22328e-08
7.31471e-09
-5.62664e-09
-7.09927e-11
-1.61711e-09
-6.93728e-09
8.88284e-09
-7.05846e-10
-1.04497e-08
5.16103e-09
4.827e-09
-1.02714e-08
4.73844e-09
-6.17328e-09
6.27661e-09
6.40454e-09
-5.94932e-09
-6.08185e-09
-8.1026e-10
2.77546e-10
2.42066e-09
-7.41294e-09
-5.27915e-09
-2.81015e-09
-5.21893e-09
-7.22174e-09
2.3817e-10
-5.77749e-09
-5.75229e-09
8.71949e-09
-2.14338e-09
-1.17157e-08
8.08152e-09
-1.08777e-08
2.78495e-09
1.09907e-08
-8.60726e-11
-1.17054e-08
8.00439e-10
7.78463e-10
5.14922e-10
9.6972e-09
5.26606e-09
-2.93055e-09
4.74321e-09
-7.07877e-09
3.59038e-09
1.6824e-09
-6.78364e-12
4.99772e-09
-7.59687e-09
-3.31509e-10
1.60504e-09
3.48908e-09
-9.65567e-11
-6.9497e-09
2.78802e-10
7.44919e-09
-8.02835e-09
9.92479e-10
5.24862e-09
-1.22924e-08
-4.66177e-09
1.91001e-09
-8.3334e-09
-9.7392e-09
8.18262e-09
5.14688e-09
1.30347e-09
-6.29953e-09
-1.29963e-08
1.35981e-09
1.21512e-08
-6.44416e-09
4.9162e-09
2.55169e-10
5.07192e-10
9.03519e-09
5.7022e-09
1.19801e-09
1.05926e-08
-7.77675e-09
-4.01375e-09
-5.36838e-09
1.57033e-08
-9.1369e-09
1.88839e-09
-1.3161e-09
7.15065e-09
-7.72296e-09
6.62693e-09
2.95797e-09
-7.69654e-09
9.55309e-09
-9.69743e-09
-5.22408e-09
3.5195e-09
1.03588e-08
-3.28579e-09
1.74727e-08
1.74992e-09
8.39859e-09
5.81572e-09
-7.58754e-09
-2.18753e-09
3.03672e-09
7.54933e-09
1.18969e-08
-3.67519e-09
-2.40606e-09
1.37793e-09
8.3314e-09
1.07918e-08
-4.10831e-09
-8.6721e-09
9.86154e-09
9.60215e-09
1.26623e-08
-1.52387e-09
-1.58538e-09
3.08825e-09
5.71221e-09
1.96631e-09
9.00494e-09
-7.93473e-09
2.35186e-09
8.88755e-09
6.98845e-09
8.76206e-09
1.13066e-08
-1.05279e-09
-2.16532e-09
-6.51395e-09
9.73205e-09
-1.06453e-08
-3.88981e-09
1.34823e-08
-9.31445e-09
-8.08699e-09
6.75605e-09
-1.18594e-09
5.63148e-09
-6.61087e-09
-1.1299e-08
6.22321e-09
2.24258e-09
-1.10027e-08
-5.5431e-10
1.68708e-09
-8.43816e-09
-1.33595e-09
-9.62353e-11
-4.73064e-09
-1.02927e-08
1.23637e-09
-8.46598e-09
-1.09749e-08
7.79865e-09
-1.47963e-08
-1.46838e-09
-6.21787e-11
-2.4319e-09
2.7867e-09
2.42217e-09
-2.14201e-09
-3.06695e-09
4.14146e-09
-1.26369e-09
-9.11369e-11
3.47225e-09
-9.70825e-10
-7.92947e-11
2.98544e-09
4.62829e-09
3.75469e-09
-1.69675e-09
-4.19992e-09
2.64243e-09
-1.5147e-10
1.1038e-09
-7.04197e-09
4.24136e-09
-2.65546e-09
6.76565e-09
-1.1247e-09
5.14407e-09
-7.91777e-09
3.8775e-09
3.42543e-09
-1.30219e-10
1.23965e-09
-4.53483e-09
4.9278e-09
-4.15782e-09
1.72871e-10
4.8409e-09
-3.0777e-09
7.06159e-09
-5.3756e-09
1.39167e-09
-6.20712e-09
3.728e-09
-5.98818e-10
2.05151e-09
1.659e-09
3.35103e-09
3.27254e-09
6.18926e-09
-7.41042e-09
-9.44539e-10
-9.40756e-10
-3.49023e-09
-2.64193e-09
-4.50974e-09
2.92574e-09
-9.23528e-10
-3.09971e-09
1.0971e-09
-4.0803e-09
-6.16071e-10
7.62201e-09
-5.13232e-10
-4.49071e-09
-5.60417e-09
4.16346e-09
-7.86597e-09
7.42532e-10
1.89087e-09
5.23246e-09
-4.19374e-09
6.85018e-09
-3.4258e-09
-4.04351e-09
-5.41876e-10
8.01091e-09
-6.48518e-09
-4.80671e-09
6.65478e-09
-2.77445e-09
-6.52257e-09
1.29206e-09
8.58293e-10
4.50409e-09
-3.4049e-09
-3.14005e-09
-5.95758e-09
2.5063e-09
3.66737e-09
-6.03158e-10
-9.54958e-09
-3.7812e-09
-6.38011e-09
1.71452e-09
-9.75779e-09
-4.02454e-09
-1.13475e-08
8.42746e-09
6.94446e-09
-5.13096e-09
8.33038e-10
2.73289e-10
8.41671e-09
-7.17611e-09
-6.37162e-09
-2.19301e-09
-7.37776e-10
-2.32252e-09
1.67824e-09
9.07169e-09
-1.51971e-08
1.14974e-09
1.17247e-08
-1.40881e-08
-3.30206e-09
-4.30626e-09
-1.54527e-10
6.139e-09
-3.84707e-09
3.73863e-10
1.735e-09
-1.67846e-09
-7.23265e-09
-1.00077e-08
-2.34542e-09
-9.04654e-09
-4.81984e-09
6.6418e-09
7.22458e-09
-4.21236e-10
-8.87177e-09
2.46458e-10
1.30156e-08
-8.31639e-10
-1.26053e-08
2.9553e-09
1.121e-08
4.30412e-09
-7.37831e-09
-5.79757e-09
-7.47506e-10
2.31801e-10
4.72765e-09
2.33976e-10
-6.64008e-09
1.33097e-10
9.44256e-09
-9.78019e-09
2.63586e-09
8.11989e-10
-4.25834e-09
2.4223e-09
1.02431e-09
-3.99907e-09
3.57617e-09
1.23496e-09
-8.23865e-10
-1.3799e-09
-2.0544e-09
4.12084e-09
-1.57139e-09
-3.37323e-09
-1.11929e-09
2.63367e-09
-4.70091e-09
3.1866e-09
-4.12292e-09
1.34071e-09
1.66293e-09
-2.68641e-09
4.06348e-09
1.25665e-09
-2.03441e-09
2.15618e-09
2.22034e-09
4.09287e-09
-1.42097e-09
-4.89198e-09
-1.24742e-10
9.65319e-10
2.49059e-09
1.47755e-09
1.95591e-09
-1.02467e-09
-2.50264e-09
5.24838e-10
-3.90345e-09
-1.32222e-09
-1.97973e-09
-1.81799e-10
8.5811e-11
-1.64268e-10
1.94717e-09
-4.39273e-09
-7.43107e-10
-8.89202e-10
-2.78761e-09
-1.85894e-09
-1.71111e-09
-1.82777e-10
-2.55153e-09
2.01119e-09
-2.6423e-09
6.01833e-09
-5.38721e-09
-2.11897e-10
9.13697e-09
-6.91386e-09
-4.2477e-09
-3.86561e-09
-1.12829e-09
9.24163e-09
4.38498e-09
-3.78983e-09
-4.84287e-09
3.34487e-09
1.01801e-09
2.22025e-11
4.75645e-09
-1.66541e-09
2.53835e-10
-1.17505e-09
5.71961e-09
2.53649e-09
-2.94805e-09
-3.37825e-09
-2.01455e-09
4.37666e-09
1.7441e-10
4.25036e-09
6.11531e-09
-2.28472e-09
-8.08085e-09
6.90511e-09
-2.27509e-09
-6.64453e-09
2.65888e-09
5.24414e-11
4.82879e-09
-3.42254e-09
-5.27185e-09
8.09634e-09
9.82848e-10
-6.66797e-09
9.46844e-09
3.31488e-09
2.32974e-09
-2.09262e-09
-4.77452e-09
-1.51968e-09
5.11917e-09
2.14082e-10
1.20124e-09
6.74753e-09
6.65527e-09
-4.96841e-10
-1.56672e-09
1.22795e-08
-1.0216e-08
-1.36726e-09
7.19516e-09
-6.32481e-09
-1.53968e-09
1.21946e-08
-1.20223e-08
-1.23836e-09
1.32297e-08
-1.35581e-08
1.26568e-08
-1.54349e-08
-6.18227e-09
1.54639e-08
-2.08663e-09
1.56919e-08
-9.6795e-09
1.6697e-08
-1.69642e-08
4.80401e-09
-4.53695e-09
7.32459e-09
-1.04959e-08
1.98683e-08
3.48943e-09
-1.74316e-08
1.92155e-08
-5.27343e-09
-8.17915e-10
9.26883e-09
-1.34707e-08
5.9684e-09
1.00103e-08
-3.69914e-09
5.21693e-09
3.87095e-09
6.37602e-09
7.9363e-09
1.29725e-08
-8.3199e-09
-4.79445e-09
2.04389e-08
4.42037e-09
-2.60289e-09
1.13225e-08
-6.89121e-09
-8.11822e-09
1.0215e-08
-1.54973e-08
6.00331e-09
-2.60096e-10
5.763e-09
2.13662e-08
-2.56798e-10
-5.30045e-09
-1.5809e-08
1.24362e-08
-7.4207e-09
1.63506e-08
6.70453e-09
-7.99287e-09
-1.51684e-08
1.64569e-08
-5.93056e-10
-8.52182e-09
1.58195e-08
4.36394e-09
-2.05711e-08
2.15087e-08
-5.30153e-09
-2.05942e-08
2.56869e-08
-7.28719e-10
3.28728e-09
9.32335e-10
-2.47908e-08
4.14514e-09
-2.14521e-08
1.94985e-08
-1.56103e-08
1.03944e-08
7.69313e-10
8.33479e-09
6.38111e-09
1.64495e-08
1.99843e-08
-3.51365e-09
-2.17712e-08
7.33523e-09
5.22838e-09
-4.7907e-09
1.05788e-08
-1.40776e-08
1.29403e-09
1.63194e-10
-1.45607e-08
5.8757e-09
-2.53868e-08
1.03816e-08
1.18954e-08
-1.24159e-08
5.67361e-09
-6.16468e-09
2.28655e-09
1.44177e-08
-1.69991e-08
-4.1628e-09
8.54559e-09
-2.05266e-09
-6.35373e-09
-1.39111e-10
-1.67503e-10
-1.1326e-09
9.84584e-09
4.99834e-09
-6.92545e-09
-1.25393e-10
-1.69637e-09
6.52709e-09
6.8284e-09
-6.93574e-09
-6.24627e-09
-1.11867e-09
6.81461e-09
-2.12924e-09
7.83889e-09
-7.40595e-09
-1.88121e-09
-1.59666e-09
-3.4475e-09
-2.50338e-10
-9.48764e-09
7.60896e-09
-7.91915e-09
6.55039e-09
-1.89983e-09
-6.91711e-09
2.87103e-09
-7.45928e-09
-3.33082e-09
-6.45525e-09
-1.61309e-10
-2.27975e-09
-8.43876e-09
4.26335e-09
-1.16389e-08
3.18159e-09
9.9924e-09
-1.51738e-08
1.99961e-09
1.00679e-08
-1.28985e-08
6.01209e-09
1.64211e-08
-1.25476e-08
-2.73662e-09
-1.13679e-09
2.16516e-09
-1.51097e-09
1.5767e-08
2.00753e-09
-1.29068e-09
9.27547e-09
3.85367e-10
1.169e-08
1.71008e-09
1.17342e-08
-1.12791e-08
6.3722e-09
-6.25945e-09
-1.52868e-08
-1.79589e-09
-4.73039e-09
1.65253e-08
-1.07673e-08
-1.83056e-08
1.37236e-08
-1.02135e-08
1.23088e-08
6.65042e-09
-5.76536e-09
-2.68124e-09
-8.07023e-09
4.50695e-09
-1.14797e-08
-5.57366e-09
8.98277e-09
-3.00134e-09
-1.42438e-08
-2.00281e-08
2.94829e-09
-1.13559e-08
1.33146e-08
-4.90726e-09
-1.02371e-08
-1.99333e-09
1.51785e-08
1.20975e-08
5.89406e-09
5.6007e-09
-2.35923e-08
2.66502e-09
-1.92339e-09
8.11449e-09
-1.63784e-08
-8.44077e-09
1.67045e-08
-2.77755e-09
5.08147e-09
5.81028e-09
7.46107e-09
3.07581e-09
1.04853e-08
-1.48283e-08
1.65064e-08
1.06667e-08
-2.15724e-08
2.793e-09
-1.72909e-08
-3.5124e-09
-3.47004e-09
-2.1679e-08
-3.41245e-09
7.80048e-09
-1.89577e-08
-6.1686e-09
-1.77099e-08
1.44097e-09
-2.68889e-09
4.68399e-09
-1.19086e-08
-6.3282e-09
7.12615e-09
-3.10625e-09
6.91256e-09
-1.0933e-08
-2.02835e-09
8.26896e-09
8.85318e-10
3.51711e-09
-2.87723e-09
-5.35549e-09
4.71512e-09
5.01525e-09
1.05109e-11
-1.50894e-09
-4.55191e-09
4.60788e-09
-2.08477e-09
-1.05355e-08
2.70228e-09
-2.09772e-09
4.41009e-09
5.17992e-09
3.11232e-09
-1.38005e-09
5.14184e-09
8.30688e-09
6.09407e-09
-1.47596e-09
4.10287e-09
1.42093e-09
-2.41192e-09
-1.65507e-09
7.36407e-09
-1.60655e-09
-1.23444e-09
4.72074e-09
2.04096e-09
2.81813e-09
3.4423e-11
-1.96752e-09
7.61405e-09
-1.69684e-09
5.9854e-09
6.37854e-10
5.12341e-09
2.48407e-09
5.9157e-09
6.83335e-09
-6.04603e-09
1.85184e-09
5.60487e-09
1.57228e-10
7.69033e-09
-4.60478e-09
-2.05852e-09
-1.02642e-09
6.52463e-09
-4.76591e-09
5.9318e-09
2.71187e-09
-2.15904e-09
-6.01624e-09
5.46386e-09
6.00584e-10
8.63583e-09
8.75728e-10
7.91364e-09
-1.09482e-08
-8.59069e-09
1.90289e-09
7.56345e-09
6.82494e-09
-2.01568e-09
1.10667e-09
-9.21822e-10
-5.81695e-09
-6.17593e-09
4.89227e-09
6.88828e-09
-1.23289e-09
1.04214e-09
7.14537e-09
-4.91686e-09
1.147e-09
-1.24986e-09
7.39557e-09
-5.4285e-09
-3.22453e-09
-1.37363e-09
1.00265e-08
-1.59522e-09
-5.82388e-09
1.99055e-09
9.99508e-09
-2.25316e-09
-2.05938e-09
-5.68259e-09
-6.2757e-09
1.30462e-08
-3.42702e-09
-3.17183e-09
5.22516e-09
-5.01263e-09
-9.66873e-12
-3.78734e-09
-4.28973e-09
-1.18193e-08
-3.39172e-09
8.93529e-09
-4.88814e-09
-8.99052e-09
5.56299e-09
7.82256e-09
-5.09432e-09
-8.29123e-09
1.20267e-09
4.70842e-09
-3.4812e-10
3.81511e-09
-1.6128e-09
-5.98968e-09
5.13736e-12
-4.72065e-09
6.25722e-09
-9.33464e-10
4.03538e-09
9.15714e-09
-3.83692e-09
-1.02084e-08
4.83198e-09
-1.05441e-08
-1.79245e-08
5.30363e-09
-3.49051e-09
1.61111e-08
-4.42297e-09
-1.38582e-09
-1.21158e-08
1.27318e-08
-3.66972e-09
-1.34852e-08
1.11713e-08
-1.25387e-09
2.81434e-09
1.5512e-08
9.62823e-10
-1.28884e-08
2.08699e-09
7.31076e-09
-4.01299e-09
-1.02613e-08
1.06473e-08
2.3369e-09
-1.6654e-08
4.61221e-11
9.34729e-09
9.83331e-09
-1.15094e-08
-8.53846e-09
8.00448e-09
2.62095e-09
7.63496e-10
5.31348e-10
9.16216e-09
2.95178e-09
-3.63311e-09
-8.48105e-09
-7.09975e-09
1.74287e-09
-9.05038e-09
1.44072e-08
-1.08949e-08
1.00927e-09
2.78587e-09
-5.24463e-09
-6.10957e-09
4.59254e-10
-6.72795e-09
-6.32184e-09
1.47925e-08
-8.82108e-09
3.10233e-09
-4.8269e-09
5.16797e-09
-1.02165e-10
-9.96943e-09
-1.06122e-08
-5.09824e-09
6.6598e-09
-9.41102e-09
-4.72746e-09
-3.50298e-09
-1.1807e-09
-1.03122e-08
1.33046e-09
4.25406e-09
6.91752e-09
2.45166e-09
-1.44677e-08
-1.27749e-08
1.33704e-08
-4.35702e-09
-5.46622e-09
6.5388e-09
-1.055e-08
-1.05087e-08
-5.48766e-09
7.10974e-11
2.39928e-09
3.04614e-09
-1.33595e-08
7.91416e-09
4.85415e-09
2.48893e-09
-4.94377e-09
2.08745e-09
-4.7161e-09
1.31468e-09
-4.65095e-09
-2.06963e-09
-5.8385e-09
9.54949e-09
-8.57284e-09
-2.95156e-09
-9.03019e-09
-2.5302e-09
6.75356e-09
-5.24729e-10
-3.26178e-09
-5.24378e-09
-4.71085e-10
1.09379e-08
-6.84362e-09
-3.62337e-09
5.37163e-09
-6.36778e-09
2.23518e-09
-1.23918e-09
-1.42294e-08
5.41914e-09
6.28e-09
-9.64759e-09
-5.10663e-09
6.08537e-09
-6.79989e-09
-2.54742e-09
7.84049e-09
3.14815e-09
-8.31244e-09
-2.67627e-09
-2.4195e-09
-3.43583e-09
5.3132e-09
-7.47967e-09
1.27892e-09
3.83407e-09
-5.43931e-09
-5.87446e-09
9.82376e-09
-2.79736e-09
2.36265e-09
5.23242e-09
-4.79831e-09
1.27096e-09
5.87321e-09
-9.94209e-09
-2.08288e-09
6.64521e-09
-2.19987e-09
6.85271e-09
-7.66496e-09
1.41452e-09
-2.64516e-09
7.10323e-09
-3.99942e-09
4.66806e-09
-1.32138e-09
6.52229e-10
1.06348e-08
-7.06698e-09
-7.56749e-09
4.5304e-09
1.07724e-08
1.20017e-09
8.75852e-09
1.56862e-09
-3.68226e-09
4.1236e-09
3.31333e-09
-5.84933e-09
1.18519e-09
8.78711e-09
-7.31672e-09
6.26659e-10
8.40411e-10
5.97668e-09
6.46168e-11
-8.08941e-10
1.01162e-08
-4.40112e-09
2.2859e-10
3.0138e-10
-2.19867e-10
8.36132e-09
-1.55604e-10
6.60215e-09
3.24015e-09
4.26611e-09
1.14046e-09
-5.45396e-09
4.09379e-09
4.22496e-09
3.81695e-09
1.08323e-08
-1.23972e-08
1.57438e-09
-9.05735e-12
-5.34008e-09
5.92516e-09
1.02473e-08
-1.33702e-08
4.72568e-09
3.30447e-09
-4.36534e-09
1.08557e-08
-5.6524e-10
-2.29617e-09
-3.11543e-09
-7.9588e-09
-4.22036e-09
-1.04732e-08
-8.57303e-09
-4.0564e-09
8.26405e-09
-7.9097e-09
9.10987e-10
2.19159e-09
-6.54324e-09
-7.36247e-10
5.08788e-09
-2.75726e-09
3.44827e-09
1.50058e-09
4.07902e-09
-7.00675e-09
-4.98219e-09
-1.09013e-09
1.11264e-09
-2.70688e-09
-6.95184e-09
1.43136e-09
3.51828e-09
1.13371e-09
-6.08388e-09
2.05769e-09
-3.33356e-09
4.64244e-09
9.33577e-10
-1.00934e-08
7.95067e-10
-2.72412e-09
5.36416e-10
-5.17891e-10
2.7057e-09
-1.14106e-09
-1.40031e-09
-1.82706e-10
-2.66654e-09
2.28932e-10
2.97406e-09
-3.07555e-09
-1.99657e-10
6.088e-10
-1.72309e-09
-1.844e-09
4.91602e-10
-2.29785e-09
-5.66227e-10
-3.29071e-09
2.18695e-10
2.55416e-09
-2.77858e-09
-1.91237e-09
3.96932e-09
-4.576e-09
4.07155e-10
-5.35344e-10
4.73363e-09
1.28952e-09
-2.99982e-09
-5.87535e-10
-4.72849e-09
4.41185e-09
3.37095e-09
-1.96284e-09
-3.2521e-09
1.55805e-09
2.50363e-09
-2.06695e-09
-1.99475e-09
3.5306e-10
3.37277e-10
-1.82632e-09
-1.88759e-09
2.22814e-09
3.39898e-09
-2.16627e-09
-3.46151e-09
-2.98459e-09
5.5017e-09
-2.89609e-10
-1.40204e-09
1.30759e-08
-3.13848e-09
-8.53598e-09
5.08007e-09
-4.25651e-09
-2.2264e-09
1.53713e-09
-3.3657e-09
-1.15653e-09
-8.01164e-10
1.79984e-09
4.50241e-09
5.77101e-10
2.01966e-09
-3.98629e-09
3.71454e-09
1.33465e-08
1.67045e-09
3.81313e-09
-5.87939e-09
-1.07266e-09
-5.40033e-09
7.80353e-10
6.41925e-09
7.38586e-10
-6.42218e-09
2.82867e-10
7.19919e-09
-1.01433e-08
1.16938e-08
1.1559e-10
-5.00077e-09
-6.21463e-09
5.88835e-09
-3.92833e-09
-6.67177e-09
4.7118e-09
-4.63748e-09
-1.97791e-09
1.25037e-08
-7.08879e-09
-3.2273e-09
5.67855e-09
4.87415e-09
-7.89873e-09
-9.03527e-10
-2.43804e-09
-6.73319e-09
2.08242e-09
-9.07778e-09
-3.21248e-11
6.5926e-09
5.88112e-09
-7.59986e-09
9.60028e-09
-4.98586e-09
3.22122e-09
-7.44992e-10
-1.15541e-08
2.18635e-09
-5.69833e-09
-9.46603e-09
3.33234e-09
2.90563e-09
2.64434e-09
-1.12882e-08
-7.06046e-10
-6.57379e-09
-8.74264e-09
1.06807e-08
-9.45191e-09
3.07783e-09
1.18924e-09
5.18481e-09
-1.84761e-09
-5.70317e-09
-1.90118e-09
-5.95717e-09
-5.82946e-09
1.02067e-08
1.58005e-09
-6.47151e-09
7.26638e-09
-6.75198e-09
7.3813e-09
-2.56478e-09
5.17319e-09
-9.98982e-09
7.13821e-09
3.32089e-09
-1.16775e-08
3.28323e-09
1.90923e-09
-1.05459e-08
2.16519e-09
-6.63624e-09
2.69388e-09
5.13165e-09
-5.34478e-09
1.04338e-08
5.11773e-09
1.60362e-09
3.18121e-10
3.12049e-09
3.69547e-09
-4.9067e-09
-6.75763e-09
9.78954e-10
-8.57484e-10
-5.48474e-09
4.96303e-09
3.36076e-10
-5.4607e-09
7.05751e-09
1.09713e-09
4.8129e-10
-9.69899e-09
-2.76668e-09
1.159e-09
1.13067e-08
-8.68918e-09
-2.35021e-09
1.34039e-09
1.21705e-09
1.85316e-08
-8.29607e-09
-1.14524e-08
1.46796e-08
-7.24303e-09
-6.2194e-09
1.44607e-09
1.60408e-08
1.04484e-09
1.29224e-08
3.20325e-09
-1.03997e-08
-2.5773e-09
1.02103e-08
-1.34574e-08
-8.87857e-09
-2.10382e-10
1.02479e-08
-1.16128e-08
3.84009e-10
-1.1473e-09
-7.91126e-09
8.72802e-09
3.3054e-10
-1.26835e-08
-7.6593e-11
-3.62754e-09
-2.24693e-09
-2.03682e-09
6.84211e-09
-6.34341e-09
-4.12621e-09
9.06224e-09
-8.54473e-09
3.92456e-09
-4.44205e-09
-2.80789e-09
9.29282e-09
-1.40269e-08
-2.81387e-09
1.16536e-10
1.63603e-09
1.11698e-08
1.33494e-08
-1.06186e-08
4.77718e-09
-1.39376e-09
9.91139e-09
8.97652e-09
-3.49252e-09
-7.7309e-09
9.21877e-09
-7.74347e-09
1.04545e-08
9.72772e-10
-3.68379e-09
1.56953e-09
-8.29068e-09
-1.02232e-09
5.08579e-09
1.47563e-09
-5.46473e-09
-1.09664e-09
-1.86247e-09
7.31706e-09
2.4253e-09
-7.87983e-09
3.3222e-09
-9.88746e-11
1.9054e-09
-5.36321e-09
4.93352e-09
1.29378e-10
-3.38287e-09
5.15889e-09
1.15422e-09
-1.89184e-09
8.05475e-09
-4.66184e-09
1.13594e-10
5.70249e-09
-1.02883e-09
-3.10774e-10
6.42079e-09
-4.72186e-09
-4.052e-12
8.56683e-09
-9.33449e-10
5.92479e-09
-4.8777e-09
5.4833e-09
9.83348e-09
1.81522e-09
-1.23423e-08
6.93714e-10
3.85795e-09
-5.77498e-09
-1.04928e-08
-3.40926e-09
-1.14353e-08
2.75778e-09
1.62855e-08
-9.61879e-09
-4.71846e-09
-1.94828e-09
1.45685e-08
-9.24612e-09
1.09631e-08
-3.58307e-09
-1.07992e-08
2.04e-09
-4.24957e-09
-6.80261e-09
-3.83189e-10
1.46219e-08
-3.46255e-09
1.04169e-08
-6.44565e-09
-1.35901e-08
-3.07874e-09
-9.35061e-09
8.07525e-09
-4.49941e-09
-1.35905e-08
6.56575e-10
-2.69334e-09
4.76638e-11
-1.09448e-08
-1.56746e-09
-1.1812e-08
1.06864e-08
-9.5121e-09
-8.08982e-09
-9.30494e-10
-8.53395e-09
-8.94356e-09
-2.04056e-08
-8.24927e-10
1.71227e-08
4.10751e-09
-7.55308e-09
8.01395e-09
-2.08666e-08
9.00486e-09
1.88656e-09
-1.17167e-08
-1.4954e-08
-7.34242e-09
1.01277e-08
1.21685e-08
1.00829e-08
5.58919e-09
-1.10834e-08
-4.5886e-09
1.79013e-08
5.63066e-09
-1.34488e-08
-1.00351e-08
6.70176e-10
-1.35083e-08
1.54241e-08
1.62625e-09
-3.54224e-09
-1.04679e-09
5.12353e-09
-1.83389e-08
1.4262e-08
1.15011e-08
4.28795e-09
-1.68359e-08
8.11834e-09
-1.85338e-09
1.16365e-08
6.11118e-09
4.4579e-09
4.26968e-09
-5.19248e-09
-3.53507e-09
-1.39266e-09
5.34778e-09
5.02759e-10
-1.72935e-09
5.9455e-10
5.40444e-09
3.82625e-09
-5.5438e-10
-8.46432e-09
-3.53491e-09
3.88702e-09
8.91561e-10
-1.24303e-09
2.37593e-10
-4.51416e-09
6.35923e-09
5.69603e-09
-1.36032e-09
-4.09807e-09
-4.47918e-09
-1.76428e-09
1.52615e-09
5.2133e-09
-3.79789e-10
-4.2239e-09
2.4575e-09
-1.76839e-09
5.97379e-09
3.30116e-09
-5.44872e-09
4.12682e-09
4.54327e-10
-8.78257e-09
3.74908e-09
-4.64992e-09
4.55284e-09
-8.40573e-10
-5.08169e-10
-3.56215e-10
1.33941e-08
5.77172e-10
-1.36149e-08
-2.39921e-10
1.54984e-08
-1.56147e-08
-2.84866e-10
1.9792e-08
-4.14092e-10
-1.9093e-08
-3.17944e-11
1.23687e-08
-1.26218e-08
-1.25063e-08
4.1304e-09
-1.55875e-09
9.93466e-09
-1.27781e-08
-5.77469e-10
9.79177e-09
3.15431e-09
1.4455e-08
4.75948e-09
-5.61964e-10
1.08698e-08
3.08631e-09
3.70032e-09
1.12362e-08
1.23619e-08
1.56026e-09
-1.22397e-08
-1.10068e-08
-1.41825e-09
2.46648e-08
-1.02709e-08
1.24862e-08
-6.43748e-09
6.30055e-09
-1.65789e-08
-1.29454e-10
-1.64158e-08
2.21797e-08
-1.1236e-08
4.53916e-09
-5.57654e-10
-1.05681e-08
-1.16e-09
-8.90556e-10
1.26186e-08
4.39453e-09
-3.48406e-09
-1.14786e-08
-6.18619e-09
1.15636e-08
-2.8408e-09
-9.5294e-09
6.02682e-09
-1.03585e-08
3.98171e-09
3.536e-09
-5.3065e-09
-6.18025e-09
-8.39812e-09
-2.29128e-09
5.36042e-09
-1.2267e-08
-8.34421e-09
7.61814e-09
-1.04023e-08
-5.33303e-10
3.31788e-09
-6.20917e-09
1.33545e-08
4.7301e-10
3.22656e-09
-1.58161e-08
2.49765e-09
8.04892e-09
-8.73885e-09
3.91656e-09
-9.57793e-09
1.14177e-08
-2.05313e-09
-1.96496e-08
-3.33433e-09
1.21123e-08
-1.02935e-08
1.26543e-08
-1.25936e-09
-8.24084e-09
9.95093e-09
4.68738e-09
-2.73958e-10
-4.36225e-09
-5.28289e-10
-9.2319e-09
-3.8692e-09
-1.25442e-08
9.83805e-09
-2.21761e-09
1.90845e-09
1.4825e-09
-1.69025e-09
1.00458e-08
6.74882e-09
-5.82528e-09
-3.1098e-10
-6.12516e-10
1.06467e-10
8.12484e-09
-7.5429e-10
7.98496e-10
1.24958e-08
-1.8231e-09
8.41039e-09
-6.48083e-09
9.23404e-09
-1.15243e-09
2.16703e-08
-1.07604e-08
-9.75757e-09
-8.19182e-09
1.66178e-08
-9.57848e-09
6.10257e-09
-1.07937e-08
-3.50071e-09
3.6228e-09
4.63444e-09
1.3413e-08
6.5949e-09
1.36458e-08
1.35276e-08
-1.14845e-08
4.05946e-09
8.54182e-09
8.90015e-09
-3.91434e-09
-9.51318e-09
-1.70255e-09
1.38375e-08
-2.6218e-09
-1.20655e-08
-3.92593e-09
6.47825e-09
1.21232e-08
-2.34572e-09
-1.14801e-08
2.73914e-09
1.23976e-08
-6.87171e-09
4.45074e-09
8.69187e-09
-6.27088e-09
-1.16294e-09
6.84427e-09
-1.2553e-08
1.39815e-08
-1.06302e-09
9.1904e-10
6.97771e-09
9.77994e-09
-3.04846e-09
1.02383e-08
6.19915e-09
6.61943e-09
1.01284e-08
4.12489e-09
-9.38939e-09
-7.74249e-09
1.30067e-08
-5.01201e-09
1.51231e-08
-5.98624e-09
-8.59402e-09
-2.25928e-09
1.46369e-09
-8.62732e-09
-3.42798e-09
5.08573e-09
6.96939e-09
-1.1112e-08
-5.0515e-09
7.53604e-09
-9.91051e-09
8.6878e-10
5.61362e-09
1.59134e-09
-5.61267e-09
-5.88924e-09
9.59872e-09
-2.23517e-09
-1.04972e-08
3.1335e-09
-6.52096e-09
1.11076e-08
-1.4524e-08
8.87182e-09
-5.57417e-09
-7.35855e-09
-1.05794e-08
6.01628e-10
1.23405e-09
-6.09743e-09
-3.73082e-09
-6.26427e-09
-1.04604e-08
-8.2579e-09
-7.81356e-09
-7.12838e-09
-2.21705e-09
1.99413e-09
-1.33922e-08
-1.95516e-08
1.96587e-08
-1.03737e-08
1.02663e-08
-6.42929e-09
-1.53394e-08
1.43262e-08
5.93394e-09
-1.55653e-08
-4.14555e-09
9.33692e-09
-2.1022e-09
2.10169e-09
2.144e-08
-9.21563e-09
1.25429e-08
1.45077e-08
-1.0789e-08
-1.62619e-08
6.24196e-10
7.77114e-09
4.14714e-09
5.31467e-09
9.81713e-09
-7.34137e-09
2.24497e-08
2.99725e-09
-1.06323e-08
8.675e-09
-3.02069e-10
6.64825e-09
-3.59964e-09
-5.9576e-09
3.39793e-10
9.21765e-09
1.53325e-09
-5.25395e-09
1.21201e-10
-5.52997e-09
-6.12983e-09
5.70223e-09
-5.49949e-09
2.30813e-09
-2.33856e-09
-9.12464e-09
2.68097e-09
9.443e-10
9.00799e-10
-1.02061e-08
3.17544e-09
2.61266e-09
-3.76461e-09
2.68534e-09
-4.39057e-09
7.34306e-09
-3.74942e-09
8.03683e-10
9.38883e-09
-5.80936e-09
-3.45487e-09
-1.24682e-10
2.66347e-10
-4.70985e-09
6.78955e-10
1.74519e-09
-5.86934e-09
2.91639e-10
5.1746e-11
-5.0531e-09
-3.71409e-09
2.56389e-10
1.27373e-09
1.28578e-09
1.29347e-08
-1.5718e-09
-1.11228e-09
1.02762e-08
-7.59215e-09
2.90537e-09
1.16023e-08
-3.45845e-09
1.31879e-08
1.62702e-08
-6.44672e-09
-2.09918e-09
7.43364e-09
-1.38756e-09
2.66047e-10
8.27005e-09
1.06137e-08
-4.62498e-09
-5.59507e-09
-3.93661e-10
4.1547e-09
1.70537e-09
4.75356e-09
-1.34402e-08
6.08549e-09
-1.36972e-08
1.63764e-09
-1.38067e-09
-5.17561e-09
-1.31466e-08
2.69029e-09
-1.61243e-08
8.2584e-09
-1.00006e-08
7.21106e-09
3.79195e-09
-1.00239e-09
-1.44924e-08
7.18206e-09
5.37304e-09
6.4667e-09
-1.01344e-08
-5.38896e-09
2.90785e-10
1.11836e-08
-9.08431e-09
1.8916e-09
1.80381e-09
1.18686e-08
-1.02304e-08
-1.07226e-08
-5.54964e-09
1.12135e-08
-8.13328e-09
4.47526e-09
-1.33012e-09
4.07922e-10
1.05044e-09
5.55215e-09
-1.32282e-08
6.62507e-09
3.98345e-09
5.58618e-09
-8.51953e-09
-5.64066e-09
-3.644e-09
-1.53406e-09
1.08181e-08
-1.57169e-09
1.48293e-09
5.63536e-09
3.50053e-10
-7.55754e-09
-4.9542e-09
6.94563e-09
-4.67716e-09
-6.89298e-09
-1.6583e-09
-3.70272e-09
6.15217e-09
4.68972e-09
-1.9762e-09
-6.83855e-09
4.12461e-09
5.83281e-09
6.48836e-10
-1.79229e-09
6.87269e-09
-3.90727e-10
-6.49296e-10
8.49965e-09
-7.61743e-09
-7.6789e-10
-1.14574e-10
-4.08469e-09
7.62969e-09
-3.47962e-09
-6.66672e-09
5.46868e-09
4.35801e-09
-9.81419e-09
6.09021e-09
-1.08387e-09
-1.48471e-09
4.65455e-09
-8.21179e-09
2.64189e-09
-9.73912e-09
-5.06961e-09
5.46964e-09
-1.82841e-09
1.42849e-09
1.30638e-09
-1.00751e-08
5.70149e-09
5.64417e-09
-1.00392e-08
9.10588e-09
2.12679e-09
1.39847e-08
-8.5433e-09
7.95566e-09
-1.10433e-08
9.0909e-09
1.16996e-09
-5.46427e-09
1.45093e-08
-4.22633e-09
1.33519e-08
-9.95584e-09
-2.03798e-09
8.43668e-09
3.55717e-09
4.33232e-09
-8.32844e-09
6.17411e-10
3.37873e-09
6.85775e-09
6.68618e-09
-9.21172e-09
-1.02435e-08
-3.71445e-09
5.62954e-09
2.31469e-09
6.26744e-10
4.25905e-09
-8.0898e-09
4.48707e-10
5.94686e-09
-8.39246e-09
-3.57504e-09
3.84321e-10
6.59462e-09
-3.40385e-09
-8.71734e-10
4.7324e-09
-7.43562e-09
6.00078e-09
-1.03156e-08
3.44304e-09
7.71486e-09
-3.80665e-09
-3.52388e-09
-2.14611e-09
-3.23697e-09
-6.41859e-10
6.02501e-09
-6.95061e-10
6.26379e-09
-3.77454e-09
7.13219e-09
1.00708e-09
-4.92117e-11
-2.24769e-09
-4.11917e-09
5.72496e-09
-9.38994e-09
6.44712e-09
-7.6932e-09
8.16727e-09
-9.86404e-09
2.90582e-09
-4.5982e-09
-2.06249e-10
1.7658e-09
6.20148e-09
-7.10134e-09
7.94533e-09
-6.06303e-10
9.41732e-09
1.20558e-08
1.18136e-08
8.9665e-09
1.016e-08
5.8297e-09
2.50089e-10
2.08747e-09
-8.16718e-09
3.367e-10
-2.63438e-09
8.1274e-09
6.31741e-09
3.88855e-09
-6.84244e-09
-3.36343e-09
5.73919e-09
-6.38954e-09
9.00517e-10
-1.13627e-09
7.21218e-09
-6.31478e-09
-1.60752e-09
1.53284e-09
-5.79798e-10
-6.41159e-09
6.76646e-10
5.00449e-09
2.57454e-10
-5.84168e-09
3.94873e-09
-5.51738e-10
9.56058e-10
4.86859e-09
-4.26572e-09
-1.55887e-09
5.16517e-09
-2.6034e-10
-9.31239e-10
4.9602e-09
4.11045e-10
3.52632e-09
4.0941e-09
-5.21469e-09
1.20649e-09
1.04999e-09
9.40082e-09
1.45931e-10
-1.05965e-08
1.38673e-08
-1.38092e-08
9.91949e-10
-5.22624e-09
-1.00608e-08
7.74745e-09
7.5398e-09
1.17526e-08
-6.6872e-09
-8.22042e-09
3.1553e-09
8.80141e-09
-1.18882e-09
-1.39373e-08
-1.14897e-08
8.06637e-09
-2.41672e-09
8.2177e-09
6.84163e-09
1.06256e-08
6.66473e-09
-8.7212e-09
-1.31022e-08
2.41965e-09
4.83268e-09
1.26201e-08
-1.10767e-08
1.38011e-08
-4.34027e-09
8.971e-09
-1.33949e-08
8.76392e-09
2.2505e-09
-7.72571e-09
1.13387e-09
4.51038e-09
-5.82973e-09
1.75691e-08
-3.3134e-09
1.94048e-08
-7.44483e-09
4.25039e-09
-8.65701e-09
1.1851e-08
-6.37444e-09
1.17996e-09
-4.71229e-09
1.79335e-08
-9.03924e-09
-2.22749e-09
-2.12833e-09
-8.16018e-09
-8.60487e-09
-4.42712e-09
9.24918e-09
-8.13565e-09
4.76316e-09
-1.50202e-08
1.79189e-09
6.8567e-09
8.92035e-09
8.88415e-09
1.26406e-08
-5.619e-09
1.68125e-08
-6.24823e-09
4.44789e-09
-9.52889e-09
-3.09388e-09
-1.29259e-08
-4.32898e-09
-3.00043e-09
-2.27275e-09
9.6023e-09
-2.5709e-09
-4.58439e-09
2.82647e-09
-6.70303e-09
1.02297e-08
-1.59429e-09
2.73026e-09
-2.79064e-09
-3.28475e-09
3.80284e-09
-4.33691e-09
-1.02454e-09
-6.4736e-09
2.94923e-10
5.12127e-09
2.14359e-09
-4.97983e-09
-2.2849e-09
1.71117e-09
4.98209e-09
-6.25979e-09
-3.05912e-09
-3.22038e-09
-4.73099e-09
1.47786e-09
-1.54886e-09
6.75294e-10
7.14467e-09
-6.27111e-09
8.18609e-09
9.80328e-10
-1.07153e-08
7.97501e-09
6.89966e-09
-6.68858e-09
-2.48411e-09
9.44847e-09
-6.2891e-09
1.00832e-08
-1.1587e-08
1.32787e-10
5.3327e-09
2.50952e-09
-3.94467e-10
7.00399e-09
2.90178e-10
5.83398e-09
7.70541e-09
-6.39468e-09
5.24533e-09
1.94173e-10
7.60158e-09
2.61433e-09
5.36182e-09
6.97486e-09
-2.9795e-09
2.70024e-09
5.52462e-09
-1.75764e-10
4.90165e-09
8.10628e-10
9.28684e-09
-2.49596e-09
-9.77585e-09
1.3073e-08
-2.48655e-09
7.00634e-09
-7.33377e-09
-4.0832e-10
8.47036e-09
-4.37237e-09
1.32509e-08
-2.21677e-09
1.09174e-08
4.61377e-09
-3.88101e-09
1.36213e-09
-7.08576e-09
9.6046e-09
-9.61449e-09
-3.10614e-09
8.83967e-09
-4.94042e-09
-8.5201e-09
3.8461e-09
3.22465e-09
-7.63722e-09
-5.27866e-10
-2.06527e-09
-6.70444e-09
1.01318e-08
6.33409e-09
2.86878e-09
-3.67033e-09
-5.53251e-09
3.52914e-09
3.29544e-09
-4.90544e-10
-3.31954e-10
8.98083e-10
3.06268e-09
-1.46015e-08
1.06409e-08
-1.096e-08
8.75193e-09
-1.03814e-08
1.13787e-08
7.73685e-09
-7.93496e-09
-7.4391e-09
5.48339e-10
-1.33162e-09
-9.03747e-09
2.59252e-09
-2.59548e-10
-8.4521e-09
2.71007e-09
-1.18194e-09
-4.40138e-09
-3.64896e-09
-9.17848e-09
-1.77411e-09
-9.65161e-09
-4.95733e-09
-9.56898e-09
1.78009e-09
-4.55019e-10
-1.11503e-08
-9.92411e-09
-8.82335e-09
-8.93952e-09
-1.63759e-10
2.90318e-09
-1.22977e-08
-8.20288e-09
-3.17142e-09
3.77074e-09
5.73891e-09
-6.3383e-09
-1.99617e-09
-4.854e-09
6.67e-09
1.80043e-10
-1.15311e-08
2.56557e-09
5.79413e-09
1.53403e-09
-9.29718e-09
-3.76804e-09
3.32657e-10
-4.48766e-09
-3.52062e-09
7.67531e-09
-3.60284e-09
-3.63927e-09
7.57464e-09
-1.82825e-09
1.66995e-09
-7.85047e-10
1.85611e-10
-8.03101e-09
3.3576e-09
-7.48673e-09
4.033e-09
-4.88189e-09
-7.39048e-09
4.78559e-09
-6.50658e-09
-2.03626e-10
-8.15947e-09
7.20443e-09
-6.08773e-09
-5.37731e-10
-9.91376e-10
1.00215e-09
-7.40137e-09
-2.95551e-10
-7.2024e-09
-9.71317e-11
-5.40654e-11
-9.14598e-09
-6.731e-09
5.83534e-10
-7.61244e-09
-5.55829e-09
-3.14188e-10
-3.10437e-09
1.09904e-09
2.31976e-09
-3.20141e-09
6.2914e-10
2.25815e-09
1.80183e-09
-3.04722e-09
-1.85893e-09
-1.24284e-09
-1.56631e-10
-1.73271e-09
3.29e-09
1.4169e-09
-2.73525e-09
-2.40204e-10
2.60642e-10
-2.1734e-09
-1.00311e-09
2.91617e-09
-2.98378e-09
-1.33014e-09
4.57481e-09
-3.55156e-09
-1.60491e-09
2.91606e-09
-6.28844e-09
1.45127e-09
4.60115e-09
2.36201e-10
1.99207e-10
-6.08034e-09
7.73783e-11
-2.20378e-09
-3.73021e-09
3.49917e-09
3.00691e-09
1.69423e-10
-2.97691e-09
7.27949e-10
5.78327e-09
-2.8004e-09
-1.95137e-08
2.41306e-09
1.13075e-08
5.79306e-09
-9.25419e-09
3.06787e-09
-1.33273e-08
-7.81566e-09
6.13268e-10
1.10233e-08
-3.82095e-09
-2.16625e-09
-1.49036e-08
-4.03532e-09
-2.83729e-09
7.48582e-09
-4.22032e-09
5.80864e-09
-5.62369e-09
8.50004e-09
4.93626e-09
-9.17671e-09
8.49514e-09
1.1989e-08
-1.98197e-09
-4.12688e-09
4.9603e-09
-5.04084e-09
7.1644e-09
-7.08392e-09
-1.16851e-09
6.93633e-09
-8.07584e-10
-1.14274e-08
5.57058e-09
-9.30523e-10
-7.94113e-09
7.98651e-09
6.89092e-09
-2.75873e-09
6.87011e-10
-1.95306e-09
9.76597e-09
-2.08651e-09
1.12686e-08
-9.47284e-10
7.32528e-09
-8.33111e-09
7.86293e-10
6.27112e-09