/*--------------------------------*- C++ -*----------------------------------*\
| =========                 |                                                 |
| \\      /  F ield         | OpenFOAM: The Open Source CFD Toolbox           |
|  \\    /   O peration     | Version:  v1612+                                |
|   \\  /    A nd           | Web:      www.OpenFOAM.com                      |
|    \\/     M anipulation  |                                                 |
\*---------------------------------------------------------------------------*/
FoamFile
{
    version     2.0;
    format      ascii;
    class       surfaceScalarField;
    location    "50";
    object      phi;
}
// * * * * * * * * * * * * * * * * * * * * * * * * * * * * * * * * * * * * * //

dimensions      [0 3 -1 0 0 0 0];

internalField   nonuniform List<scalar> 
45443
(
4.20308e-09
-3.6882e-09
-9.28063e-10
4.13183e-10
-4.41445e-09
1.88311e-09
2.68602e-09
-1.54584e-10
-6.95803e-10
3.43572e-09
-2.70296e-09
-3.69512e-11
-5.66032e-09
3.89655e-09
-2.68451e-09
4.44828e-09
-2.49365e-09
4.60213e-09
-2.21025e-09
1.01772e-10
1.96327e-09
-4.00162e-09
6.33151e-09
-4.29312e-09
1.99746e-09
-1.69104e-09
-4.66355e-09
4.35714e-09
1.42821e-09
-2.08747e-09
-1.88802e-09
2.54729e-09
3.04753e-09
-9.55748e-09
5.8368e-09
6.7315e-10
1.87899e-09
2.99511e-09
-5.85253e-10
-4.28885e-09
-2.65296e-09
8.97375e-10
1.89541e-09
-1.39839e-10
1.23285e-09
3.09581e-09
-8.74996e-10
-3.45359e-09
-2.63571e-09
-9.47399e-09
8.28864e-09
3.82101e-09
-2.94733e-09
-7.60831e-10
3.80285e-09
-9.46662e-11
-2.89596e-09
9.38648e-09
-4.70798e-09
-1.7825e-09
-1.5356e-10
-2.91831e-09
1.51607e-09
1.55583e-09
-5.48938e-09
3.90956e-09
-3.76579e-09
5.34558e-09
4.71812e-09
6.22397e-09
-7.82121e-09
-3.12088e-09
1.87633e-09
-2.81547e-09
4.3821e-09
-3.44292e-09
8.95571e-09
-1.70524e-09
-1.99976e-09
-5.25069e-09
-4.01342e-10
4.37937e-09
-2.03978e-09
-1.93824e-09
-4.48809e-09
7.59757e-10
4.59345e-09
-8.65108e-10
-4.64952e-09
-2.23473e-10
4.3584e-09
5.14607e-10
4.87319e-09
-5.83449e-11
-2.10345e-09
-2.7113e-09
-7.16251e-09
4.65108e-09
-3.60168e-09
6.11311e-09
-1.03415e-08
-5.4428e-10
1.4917e-08
-4.03129e-09
-1.60948e-09
2.25432e-09
-5.36744e-09
4.72259e-09
3.36451e-09
-2.79925e-09
2.15014e-09
-2.71534e-09
2.59001e-09
-1.6892e-09
-5.89051e-09
4.9897e-09
-4.3734e-09
-1.07029e-09
5.30188e-09
1.41831e-10
7.37474e-09
-2.0757e-09
1.35964e-09
-6.65868e-09
-4.03988e-09
-3.06846e-09
7.10338e-09
4.95894e-12
-4.45001e-09
3.94323e-09
5.70282e-10
-6.35215e-11
5.17581e-09
-8.33829e-09
3.73422e-09
-5.71723e-10
2.66118e-09
1.96617e-09
-4.42629e-09
-2.0112e-10
-8.12152e-09
-2.98891e-09
3.60795e-09
7.50251e-09
-4.48418e-09
1.02974e-08
-1.08854e-09
-4.7247e-09
6.73689e-09
-2.07064e-09
-2.71204e-09
-1.95423e-09
-3.77614e-09
-1.21591e-09
6.63431e-09
-1.64225e-09
-3.83265e-09
7.07695e-09
-6.89463e-09
3.65033e-09
9.85039e-09
-5.19661e-09
-5.6472e-09
9.93403e-10
2.86551e-09
-4.86043e-09
-3.15682e-09
5.15175e-09
-3.30645e-09
-6.53045e-09
6.52529e-09
3.3116e-09
-6.00846e-10
-1.74834e-09
-2.21676e-09
4.56595e-09
-8.80843e-09
2.03022e-10
4.10387e-09
4.50158e-09
1.84103e-09
-1.68389e-09
1.86332e-09
-2.02052e-09
6.23335e-10
2.46904e-09
-2.87615e-09
-2.16295e-10
4.7658e-09
8.37811e-10
-4.34972e-09
-1.2539e-09
3.65161e-09
-4.40582e-09
-1.76986e-09
2.52402e-09
-2.41316e-09
-1.326e-09
8.27093e-09
-4.75397e-09
-8.64595e-09
5.129e-09
2.25189e-09
1.11031e-10
-1.93832e-09
-4.24417e-10
-1.50956e-09
-1.098e-08
9.56458e-09
2.92501e-09
6.19211e-09
-3.00759e-09
-2.76731e-09
-4.17197e-10
5.33942e-09
4.55494e-09
-3.51846e-09
-6.3759e-09
4.4174e-10
-2.79974e-09
2.37724e-09
-1.91791e-11
-2.70237e-09
3.53673e-09
-3.7748e-09
2.94045e-09
-2.70803e-09
2.45309e-09
2.8246e-10
-2.75145e-11
-3.96827e-09
1.42487e-09
4.35593e-09
-1.81251e-09
6.15247e-09
3.90391e-09
-3.29946e-09
-6.75687e-09
-3.2116e-09
5.33485e-10
-3.56132e-10
3.03424e-09
6.97604e-09
-3.64447e-09
-1.82883e-09
-1.50271e-09
6.01e-09
-1.32805e-09
-4.89322e-09
2.11251e-10
-2.25034e-09
4.25008e-09
-6.944e-09
4.94426e-09
-4.83905e-09
3.33123e-09
1.81264e-09
-3.0477e-10
5.8651e-10
2.25123e-09
-2.29619e-09
-5.41568e-10
1.19519e-09
-3.37474e-09
2.48601e-09
-3.06216e-10
-3.64328e-09
-2.66115e-09
6.02691e-09
2.77507e-10
6.25813e-09
-1.61997e-09
-4.65427e-09
1.608e-11
-2.70663e-09
-1.91432e-09
2.76257e-10
4.34469e-09
9.42154e-10
-3.47729e-09
-5.98531e-09
8.52044e-09
-5.22334e-09
5.01906e-09
2.10509e-10
-6.24438e-12
9.32517e-09
-2.07519e-09
-4.37549e-09
-2.87451e-09
7.8378e-09
-1.23339e-09
-3.41225e-09
-3.19215e-09
1.89975e-09
-3.61962e-09
-2.00895e-09
3.72883e-09
-7.34871e-09
1.25118e-08
2.87991e-10
-5.45105e-09
-5.94817e-09
5.31324e-09
-6.71378e-09
1.36448e-09
4.89663e-09
-1.543e-09
6.64821e-09
4.69222e-09
-1.00674e-08
-1.27305e-09
-5.12325e-09
8.20662e-09
-1.00134e-08
6.93005e-09
2.81455e-09
9.59519e-10
-3.88614e-09
1.12029e-10
7.10361e-09
-2.70134e-09
2.30173e-09
-6.70398e-09
3.1759e-09
4.5921e-09
-4.53528e-09
-3.2327e-09
-6.62649e-09
-1.80873e-09
8.3742e-09
6.10407e-11
5.94427e-09
3.76643e-09
-6.32264e-09
5.5321e-09
8.52472e-10
-6.1901e-11
3.92941e-09
-1.94379e-09
-6.90849e-09
4.92286e-09
-4.13595e-09
-1.33844e-09
7.82988e-09
-2.35549e-09
-3.86796e-09
2.97541e-09
1.04975e-09
-1.57247e-10
2.16693e-09
-5.94849e-09
3.92682e-09
-1.4528e-10
-3.72012e-09
-9.58883e-10
4.4872e-09
1.91791e-10
3.44228e-09
-4.50454e-09
9.71778e-10
9.05021e-11
-5.48739e-09
7.27218e-09
9.39041e-09
-1.11752e-08
5.15327e-09
-4.48668e-09
1.99459e-09
2.01686e-09
-5.64044e-09
3.7039e-09
-8.03446e-11
3.20965e-09
6.63238e-09
-4.68876e-09
6.8259e-09
-1.60151e-09
1.9496e-10
-5.41935e-09
2.03713e-09
-2.59301e-13
1.52052e-09
-3.55734e-09
-2.29612e-09
3.9955e-10
1.83809e-09
5.84763e-11
3.91136e-09
3.64379e-09
-3.25032e-09
-4.30483e-09
2.32931e-09
-5.07388e-09
-1.7573e-09
4.50187e-09
3.32726e-09
1.01545e-09
-3.69436e-09
-6.48379e-10
4.58969e-09
9.19646e-10
-5.20442e-09
-3.04909e-10
-2.22029e-09
-5.68848e-10
2.38558e-09
4.03555e-10
-2.0254e-09
5.89543e-09
-4.15259e-09
2.82621e-10
-7.41749e-11
3.65277e-09
5.22074e-10
-1.69351e-09
-2.76969e-09
-2.74637e-09
7.20962e-09
6.72645e-09
-5.28826e-10
-2.86649e-09
-3.33114e-09
1.78512e-09
-4.55458e-09
2.92849e-09
-1.59068e-10
-9.47733e-09
4.3724e-09
3.68718e-09
1.41774e-09
-4.25025e-09
3.3357e-09
1.18817e-09
-2.73601e-10
-1.23454e-09
7.39305e-09
-3.54627e-09
-2.61226e-09
8.37755e-09
-7.68816e-09
-3.23541e-09
2.54602e-09
-1.88625e-09
4.99745e-09
-3.13644e-09
2.52163e-11
-3.8974e-09
8.677e-10
-2.60909e-11
7.57452e-09
-6.22655e-09
-1.26869e-09
-7.92841e-11
-4.34449e-09
-4.94133e-10
3.43147e-10
4.49551e-09
-3.96084e-09
5.33962e-09
-1.57318e-09
1.94437e-10
-5.09295e-09
4.91915e-09
6.41868e-09
-6.24488e-09
-7.17556e-09
4.03292e-09
-1.95029e-09
4.46932e-09
-4.00225e-09
-5.04355e-09
4.57649e-09
4.19818e-09
3.36936e-09
-6.2448e-09
-1.32273e-09
-4.84846e-09
5.90417e-09
-4.88572e-09
3.83e-09
5.92811e-10
-2.74084e-10
5.0207e-09
-1.76994e-09
-2.61641e-09
4.38054e-09
5.83995e-12
-6.49994e-09
6.8805e-09
-3.9153e-09
3.53477e-09
1.32893e-09
4.18412e-10
4.03755e-09
-5.78491e-09
-5.32234e-09
3.59044e-09
6.6612e-09
-4.92932e-09
-2.62185e-09
8.14361e-09
-3.34375e-09
-2.178e-09
5.0341e-09
-5.25402e-10
-3.03861e-09
-1.47009e-09
-5.63026e-09
4.2603e-09
6.83578e-09
-2.28109e-09
3.30712e-09
9.38373e-10
3.68823e-09
-6.02242e-09
3.35664e-09
-1.02247e-09
-4.13891e-09
-2.74689e-09
5.25007e-09
1.63574e-09
-1.54581e-09
-9.55123e-10
2.40774e-09
9.31782e-11
-4.01893e-09
4.15339e-09
-1.68028e-09
1.76531e-09
-1.40203e-10
-4.65335e-09
3.02827e-09
2.59011e-09
4.65849e-09
-7.17292e-09
-7.56771e-11
-4.61377e-09
-1.08063e-09
5.1317e-09
5.62712e-10
2.833e-09
1.99811e-09
3.60553e-09
-8.43671e-09
8.63968e-09
-4.53786e-09
1.61913e-09
-5.72097e-09
4.17038e-09
-5.33409e-09
1.20399e-09
-4.02713e-11
2.56439e-09
-1.53627e-10
-4.90039e-09
2.48961e-09
-1.81766e-09
5.93664e-09
4.52067e-09
1.41079e-09
-2.67807e-09
-6.44661e-09
7.7139e-09
-2.18809e-09
9.00761e-09
-5.40873e-09
4.59768e-09
-4.0912e-09
-2.69457e-09
5.28054e-09
-4.35758e-09
2.36167e-10
-1.15914e-09
2.49953e-09
-7.11246e-09
1.05861e-08
-5.97314e-09
2.85883e-09
2.90837e-09
-1.01116e-09
9.0153e-10
-1.19072e-08
8.34526e-09
2.66037e-09
2.05168e-09
3.90753e-10
-2.34128e-09
-1.0114e-10
-1.42483e-09
-2.39862e-09
3.42212e-09
-8.95538e-10
-2.98595e-09
-1.59167e-11
5.35149e-09
-3.24217e-09
-2.26238e-09
1.53061e-10
1.28676e-09
3.1344e-09
-2.45627e-09
-1.96489e-09
-4.41085e-09
-3.92866e-10
2.58539e-09
2.21829e-09
1.43797e-09
-1.87604e-09
1.85566e-09
-1.41751e-09
-4.65021e-09
3.71498e-09
9.3833e-10
-3.09196e-12
4.74074e-09
4.62754e-10
-6.08121e-10
-4.59537e-09
7.91012e-09
-3.44888e-09
-4.59112e-09
1.29887e-10
8.74172e-09
-4.221e-09
-5.06779e-09
5.47077e-10
-1.11458e-08
6.34832e-09
4.78609e-09
1.13725e-11
-5.54783e-09
4.33592e-09
6.6463e-09
-5.43439e-09
-3.73261e-09
3.98544e-09
-3.56173e-10
1.03341e-10
-1.9218e-09
2.25599e-09
-4.71572e-10
1.37441e-10
-4.04891e-09
-5.55796e-10
4.70851e-09
-1.03793e-10
1.73101e-10
-1.72773e-10
4.21182e-09
-4.21215e-09
-4.12776e-09
5.25266e-09
-1.07378e-09
-5.11369e-11
-4.30545e-10
-2.36608e-09
2.66314e-09
1.33468e-10
5.48157e-09
-5.36621e-09
3.38454e-09
-3.49991e-09
1.51976e-09
1.78881e-09
-6.77858e-09
3.47007e-09
3.86991e-09
-7.65153e-09
3.82621e-09
-4.45952e-11
-2.02841e-09
1.10724e-10
3.71485e-09
-1.79715e-09
-2.49733e-09
4.70094e-09
-7.98127e-10
-1.40549e-09
4.43681e-09
8.52702e-10
9.11598e-10
-6.2011e-09
1.89162e-09
-1.3966e-09
-5.61546e-10
6.6599e-11
-2.65348e-09
-2.2108e-09
1.57289e-09
3.29133e-09
-1.25285e-09
3.09732e-09
2.24136e-09
-4.08579e-09
-6.09732e-09
2.75396e-09
2.09055e-09
3.04784e-09
3.98484e-09
1.17356e-09
-8.20625e-09
2.48708e-09
9.96691e-10
-9.66791e-10
-2.51698e-09
3.91232e-10
2.0821e-09
1.3721e-11
1.36452e-09
2.3983e-09
2.12233e-09
-3.48844e-09
1.22593e-09
-1.08071e-08
6.75983e-09
3.31161e-09
7.35697e-10
3.20593e-09
6.06404e-09
-1.02352e-09
-8.24647e-09
1.59307e-09
7.71357e-09
-5.13111e-09
-4.17553e-09
7.3118e-09
-3.26872e-09
-5.75108e-09
1.70798e-09
2.94889e-09
-2.38764e-09
6.75055e-09
2.57135e-09
-2.84421e-10
-2.18472e-09
-1.02069e-10
-3.22856e-09
5.42132e-09
-6.67695e-09
7.94151e-09
-1.39776e-09
1.29404e-09
-1.61457e-09
-1.66576e-09
3.35151e-09
-7.11351e-11
2.4271e-09
5.70366e-09
-5.3866e-09
-3.55144e-09
3.92615e-09
5.01189e-09
-2.58054e-09
-3.4844e-09
5.9573e-09
1.07613e-10
-1.28256e-09
8.4652e-09
1.22715e-09
-8.4098e-09
2.99707e-09
-2.14126e-09
2.28706e-09
-3.1429e-09
-4.5504e-09
4.738e-09
-3.50591e-10
1.62976e-10
4.03699e-09
-3.20998e-09
-8.54407e-10
2.74205e-11
2.54493e-09
-7.70396e-09
-1.62146e-10
1.3418e-09
-3.94583e-09
6.9937e-09
-4.38965e-09
2.5313e-09
-1.41713e-09
1.72582e-10
-4.85065e-09
-1.22146e-09
8.2623e-09
-2.19017e-09
-3.33244e-09
3.60231e-09
-3.86819e-09
3.59832e-09
1.71709e-09
-3.97039e-09
2.27886e-09
-2.55667e-11
-5.05401e-09
5.71776e-09
-8.68232e-10
2.04491e-10
-2.41784e-09
-4.90465e-09
5.26109e-09
2.06138e-09
3.36426e-09
-3.49086e-09
9.01901e-11
3.64224e-11
2.84257e-09
-6.70861e-09
2.0898e-09
1.77632e-09
4.06393e-09
1.08367e-09
-5.10945e-09
-3.81245e-11
-6.9775e-09
9.18883e-09
1.59631e-09
-3.80761e-09
-1.71156e-09
-9.70076e-10
2.8661e-11
-7.11452e-09
-5.78404e-09
2.09142e-09
-1.99878e-09
4.7645e-09
-2.82132e-09
5.56154e-11
2.42927e-09
-3.52585e-09
4.66059e-09
-3.56399e-09
2.70021e-09
-3.59723e-09
1.02609e-09
-1.29068e-10
-1.98731e-09
2.23913e-09
5.20356e-09
-5.45537e-09
7.51788e-09
-3.31684e-09
-7.71898e-10
-3.42914e-09
3.9651e-09
1.97827e-09
-7.30855e-09
1.36516e-09
-5.21481e-10
-2.80467e-09
3.30796e-09
1.81823e-11
-7.08726e-09
-8.05222e-10
7.37098e-09
-5.90391e-09
5.17411e-09
6.15931e-10
1.13866e-10
3.71652e-09
-9.28441e-09
3.25837e-09
2.30948e-09
3.01803e-09
2.62105e-10
-1.29078e-10
-3.13681e-09
5.09699e-09
-3.64176e-09
1.68156e-09
-6.79862e-09
1.69443e-09
3.2683e-09
1.83589e-09
2.35893e-09
6.77941e-10
-3.00219e-09
-3.46602e-11
2.42287e-09
3.46619e-09
-3.76326e-09
-2.12578e-09
-2.4394e-09
1.91047e-09
6.72159e-10
-1.43197e-10
-1.77516e-09
1.61083e-09
5.92681e-09
-5.76254e-09
-1.82006e-09
2.21968e-09
-1.52033e-09
1.12073e-09
-1.76551e-09
3.99094e-09
-2.26444e-09
3.89993e-11
-6.67213e-09
4.85613e-09
5.20718e-09
-3.39117e-09
7.82497e-10
-1.81008e-09
1.81336e-09
-7.85762e-10
2.89833e-09
-1.23329e-09
2.39672e-09
-4.06169e-09
8.66485e-09
8.76014e-10
-2.43723e-09
-5.19887e-09
2.16878e-09
3.05851e-09
-2.84229e-11
-4.22502e-09
-2.9441e-09
1.97029e-09
2.77151e-09
7.9026e-10
2.02687e-09
-5.58864e-09
-3.16463e-09
3.87525e-09
7.61775e-10
-1.47243e-09
2.49499e-09
8.95306e-10
-1.26791e-09
-2.71732e-09
3.41052e-09
6.43174e-09
-7.12493e-09
6.52654e-09
-1.78429e-09
-3.42641e-09
-1.31583e-09
-1.21427e-09
3.58815e-09
-6.9151e-09
4.54117e-09
-3.33776e-09
2.34663e-09
-4.55648e-09
5.54761e-09
1.37314e-09
3.09592e-09
-2.49265e-09
-1.97641e-09
1.1718e-08
-6.22542e-09
-2.40555e-09
-3.087e-09
1.34132e-09
1.80911e-09
-2.88895e-09
-2.61473e-10
3.71116e-09
-6.67835e-10
-3.64418e-09
6.34593e-09
-6.30712e-09
3.67233e-09
4.87151e-09
-6.4878e-09
1.83604e-09
-2.19753e-10
1.70223e-09
7.31864e-09
-2.90515e-09
-6.11572e-09
-3.64448e-09
4.72255e-09
-2.83726e-09
1.7592e-09
-2.20232e-09
-1.60102e-09
1.58862e-10
-5.40543e-09
6.81863e-09
-7.37367e-10
-6.75832e-10
-2.61691e-09
-4.16687e-09
3.88785e-09
-5.50422e-09
2.97112e-10
1.03829e-08
5.96911e-09
7.55837e-09
-6.17033e-09
-7.35712e-09
-2.18701e-09
1.55157e-09
-1.12624e-09
1.76175e-09
2.79307e-09
4.78178e-09
-9.58364e-09
2.0088e-09
-4.06819e-09
3.66669e-09
5.12537e-10
-1.11019e-10
-4.5661e-09
2.17506e-09
-3.93217e-09
6.32321e-09
2.80937e-09
-5.37731e-09
2.70127e-09
-1.33324e-10
-2.85305e-09
-7.39235e-10
-1.43103e-09
5.02334e-09
-6.43546e-09
4.42146e-09
2.64047e-09
-6.26442e-10
4.50394e-09
-2.95262e-09
1.22767e-09
-2.77897e-09
2.24688e-09
4.49664e-09
-2.23953e-09
6.57605e-09
-6.96413e-09
-4.15889e-10
8.03995e-10
3.65396e-09
-7.99269e-10
2.01686e-09
7.9389e-10
-1.11362e-09
-5.16549e-10
-2.97486e-09
-3.42647e-09
4.8958e-10
6.07496e-09
-3.13809e-09
1.08489e-10
-5.79937e-09
-3.15275e-09
8.84365e-09
-4.58874e-10
6.14594e-09
-5.65994e-09
-2.7156e-11
-6.28017e-09
-1.25072e-09
7.45791e-09
7.29723e-11
5.03327e-09
-3.17521e-09
-5.03928e-09
3.18121e-09
2.9144e-09
-6.72126e-09
4.73393e-09
-9.27012e-10
-3.69375e-09
-6.65833e-09
3.1716e-09
7.18049e-09
-2.11401e-09
4.44324e-09
-5.65462e-09
1.99844e-09
2.66759e-09
9.88571e-10
-5.54301e-09
7.56787e-09
7.36163e-09
-4.44976e-09
-3.99793e-09
4.03683e-09
-2.34674e-09
7.74994e-10
1.8252e-09
-2.53442e-10
1.48229e-09
-2.32286e-09
1.92961e-09
-1.08904e-09
1.97156e-09
-3.59552e-09
3.56524e-09
-1.94127e-09
-4.02989e-09
-7.04159e-09
3.39117e-09
7.68031e-09
4.34768e-09
2.24659e-09
-4.78031e-09
-1.814e-09
2.4076e-09
1.34307e-09
-5.42192e-10
-3.20848e-09
3.3526e-09
-5.72079e-09
7.52642e-09
-5.15827e-09
1.38629e-09
-5.03527e-09
-8.36481e-11
-2.17673e-09
3.29293e-09
-1.10931e-09
-6.7393e-12
-2.545e-09
4.48994e-10
-8.07272e-11
-4.50435e-10
4.26529e-09
-1.1724e-09
-2.64245e-09
3.72687e-09
-6.36796e-10
-6.42252e-09
3.77854e-10
-6.28041e-09
-7.31989e-10
6.63458e-09
-1.41426e-09
-6.78624e-10
-1.79775e-09
3.89064e-09
-6.65228e-09
5.7936e-09
-3.48672e-10
1.20739e-09
-1.10755e-09
-3.31613e-10
2.49127e-11
-1.31196e-09
1.48154e-09
-2.09198e-10
3.96263e-11
1.63273e-09
-3.78024e-09
1.99398e-09
7.33571e-10
4.08461e-09
-4.84372e-09
2.55821e-11
-4.25e-09
4.90796e-09
7.56279e-11
8.45175e-10
-4.91375e-10
-5.19497e-09
4.84117e-09
-6.424e-09
3.46802e-09
5.40777e-09
-2.45176e-09
5.68912e-09
-6.08608e-09
-2.96928e-09
3.36623e-09
-2.52973e-09
2.8859e-09
3.78903e-09
-4.14516e-09
4.88458e-09
2.84801e-09
-2.04346e-09
-4.29891e-09
-6.55689e-09
3.63499e-09
2.91779e-09
-5.40229e-09
4.10819e-09
-1.62369e-09
5.70633e-10
6.82279e-09
-1.05303e-08
-2.41894e-09
1.93538e-09
5.30082e-11
4.48452e-10
3.00447e-09
-3.49256e-09
3.96775e-11
-1.33427e-09
-4.09371e-10
1.70468e-09
3.89661e-11
-3.21824e-09
2.9263e-09
4.53453e-10
-1.61517e-10
5.89556e-10
1.96645e-09
-1.33072e-10
-3.6309e-09
5.81226e-09
-2.32665e-09
1.45298e-10
1.26288e-09
2.28046e-09
-3.54764e-09
4.34541e-12
-2.87729e-09
9.98994e-10
5.0127e-09
-3.52706e-09
1.03345e-08
-3.20518e-09
-4.29946e-09
2.27957e-09
-1.53767e-10
7.28973e-09
-7.7373e-10
-3.75983e-09
-2.75616e-09
4.15195e-09
-2.25424e-09
-3.82611e-09
1.92841e-09
1.22292e-08
-1.23369e-08
-2.13954e-09
2.24732e-09
-2.36356e-09
3.86754e-09
1.98254e-10
-2.28135e-09
-3.43808e-09
5.55438e-09
1.6508e-10
-1.45655e-10
-1.62827e-09
4.90897e-09
-3.13504e-09
-1.97047e-09
-1.83036e-09
3.61712e-09
1.83706e-10
-3.28282e-09
1.71148e-09
6.36904e-09
-4.79772e-09
-4.78353e-09
1.53814e-09
-3.74398e-11
-1.39017e-09
-6.14649e-10
-2.98609e-09
4.99086e-09
3.72746e-09
-3.27619e-09
-2.65504e-09
2.20375e-09
-4.20954e-09
-7.9449e-11
-1.50018e-09
-4.91498e-09
-6.58786e-09
7.65047e-09
2.47782e-09
-3.54044e-09
8.46787e-10
-3.73051e-09
-3.70414e-09
-4.17387e-09
4.57886e-09
-2.07272e-09
1.66775e-09
-6.42858e-09
-1.92685e-09
5.56911e-09
2.78632e-09
2.86649e-09
1.00793e-09
-3.7443e-09
-1.30107e-10
-1.99719e-09
-4.76118e-10
2.50671e-09
-3.34048e-11
2.90441e-09
7.20762e-09
-1.73448e-09
3.67824e-09
-3.6797e-09
-4.02083e-09
4.02228e-09
-2.02813e-09
4.19036e-10
-2.5176e-09
4.12672e-09
3.85032e-09
7.44529e-09
1.27414e-09
1.79222e-09
7.03018e-09
-5.19966e-09
1.21734e-09
3.65868e-09
-2.53409e-09
-1.18002e-09
5.54313e-11
3.82318e-09
-3.86114e-09
-3.09045e-09
3.12839e-09
-6.14688e-09
2.41195e-09
3.91219e-09
-1.77244e-10
8.50483e-09
2.06126e-09
-3.13684e-09
-7.42925e-09
2.39017e-09
-2.75489e-09
-6.43852e-09
6.80323e-09
3.15943e-09
-5.71398e-09
5.94098e-09
-3.3864e-09
3.53123e-09
-5.44784e-09
8.39933e-10
1.07664e-09
1.17695e-09
-5.69929e-09
4.64989e-09
-1.27555e-10
-4.96276e-09
6.16128e-09
-2.15804e-11
-5.47736e-09
5.05656e-09
-5.02988e-09
5.45067e-09
-3.34639e-09
-6.23513e-09
3.88223e-09
-4.43459e-09
-4.5959e-10
1.00129e-08
-5.11872e-09
5.79453e-09
-9.85918e-11
-4.85298e-09
-8.42936e-10
-2.77707e-09
3.10767e-09
1.17855e-10
4.23785e-09
5.20243e-10
-6.74391e-11
-4.69066e-09
-4.9393e-09
8.4803e-09
2.33681e-10
-3.77467e-09
-5.26131e-09
1.31684e-08
-1.44405e-09
-6.4631e-09
3.98514e-09
1.95666e-09
-3.02409e-09
-2.76562e-09
6.85262e-09
-1.26975e-09
-2.81722e-09
9.82389e-10
-1.03943e-10
-4.58276e-10
3.23854e-09
-2.86495e-09
8.46745e-11
-3.79038e-09
-6.45843e-09
7.03723e-09
1.55244e-09
-4.07497e-09
2.39588e-10
2.28296e-09
-2.56603e-09
-2.03412e-09
-2.1283e-09
6.72849e-09
-5.72543e-09
1.60397e-09
7.05847e-09
-2.937e-09
2.66218e-09
7.7548e-10
-3.48185e-09
4.42069e-11
4.40956e-09
-2.53185e-09
-1.82292e-09
-5.47936e-11
6.9331e-09
-4.32824e-09
-7.56763e-09
2.44081e-09
-4.78069e-09
2.57112e-09
-2.31206e-10
-2.25604e-09
1.4224e-09
-4.64372e-09
-1.74737e-09
2.12158e-09
1.70094e-11
5.23901e-09
-4.70092e-09
3.86754e-09
-4.40564e-09
5.95296e-09
-5.56305e-09
-7.55241e-09
-4.7735e-09
6.74959e-09
-5.09388e-09
3.1178e-09
7.93973e-10
3.9433e-09
-4.76596e-09
2.86748e-11
7.18413e-10
-3.10353e-09
2.40691e-09
-2.18078e-11
1.01202e-09
-2.73002e-09
1.74744e-09
-2.93592e-11
2.7552e-09
-7.1314e-09
-4.08583e-09
8.462e-09
-4.15165e-09
2.50933e-09
-1.23206e-10
-3.3632e-09
-1.40039e-09
1.10229e-10
-3.20023e-09
4.60978e-09
1.42896e-10
-1.99767e-10
2.73356e-09
-4.5276e-09
1.99379e-09
6.28648e-09
-1.08306e-08
4.34432e-09
-4.99344e-09
5.40122e-09
3.11147e-09
-3.51923e-09
2.5397e-09
3.25676e-09
-9.11577e-10
-4.88489e-09
-1.39514e-09
2.54208e-09
-1.32904e-09
1.82081e-10
1.17454e-09
-3.00007e-11
4.19708e-09
-2.69598e-09
2.15998e-10
2.3485e-09
1.63958e-09
1.16763e-09
-5.15567e-09
3.12261e-09
-2.63554e-09
-4.76355e-10
-1.06489e-11
2.95292e-09
3.50124e-10
-3.3173e-09
1.4295e-11
-2.27461e-09
1.1403e-09
1.22627e-09
-9.19666e-11
7.53204e-09
4.60376e-09
-3.39407e-09
-1.84258e-09
-9.68101e-10
4.85796e-09
-1.06909e-09
-3.78499e-09
-3.90191e-12
-1.87544e-09
-1.46349e-09
4.10587e-09
-7.66929e-10
-2.1944e-09
3.43193e-10
-2.42214e-11
-2.58317e-09
4.71927e-09
-2.21321e-09
7.70786e-11
-2.17596e-09
2.91714e-09
5.20496e-09
-5.94615e-09
-5.77641e-09
2.14669e-09
3.68523e-09
-5.55401e-11
-1.23907e-09
-1.67596e-09
-2.86138e-09
-5.03725e-09
-2.80253e-09
2.59565e-09
5.24413e-09
7.93253e-09
-5.95636e-09
-3.29385e-09
1.68229e-09
-2.38402e-09
-5.39444e-10
2.35968e-09
-4.0072e-09
-3.41249e-09
-8.34796e-10
-3.56938e-09
7.81667e-09
2.6109e-09
-1.60813e-10
-3.51048e-09
2.01932e-09
3.91758e-09
-2.4264e-09
-5.08058e-09
2.81901e-09
4.91185e-09
-2.65028e-09
-3.42899e-09
-6.17892e-09
4.75727e-09
4.53627e-10
-3.95605e-09
-8.06393e-12
-2.97693e-09
1.17082e-09
1.7333e-09
7.27548e-11
-5.3249e-10
8.50922e-10
3.32159e-09
-3.37137e-09
1.90805e-09
-2.27706e-10
2.632e-09
-2.03769e-09
-6.5045e-10
5.61713e-11
4.07113e-09
-4.10927e-09
-3.92656e-09
3.9647e-09
3.5924e-09
-4.52268e-09
1.00656e-09
-7.6289e-11
-2.2981e-10
5.18309e-09
1.80721e-10
-5.13399e-09
-3.67895e-09
3.4513e-09
3.45221e-10
-1.17572e-10
-5.67989e-09
1.69956e-09
-2.6918e-09
1.0497e-09
-1.15703e-09
2.46709e-10
-1.39313e-10
-2.91259e-09
-2.95492e-10
3.21028e-09
-2.18118e-12
2.59927e-09
2.21447e-09
-9.11293e-11
-3.60409e-09
6.64396e-09
-4.96418e-09
1.92433e-09
2.88207e-09
-1.62459e-09
-1.4983e-09
2.40854e-10
1.19349e-09
2.61002e-09
1.78743e-09
-5.59077e-09
-6.59656e-09
7.80569e-09
-4.82461e-09
3.61551e-09
3.47248e-09
-2.9685e-09
-5.03475e-10
-4.74688e-13
3.0834e-09
-2.49403e-09
2.57661e-10
-8.47011e-10
2.46472e-09
3.19966e-09
-5.71731e-09
5.2923e-11
1.65451e-09
1.07868e-09
3.68067e-13
-2.32569e-09
-1.48665e-09
3.69426e-09
1.18094e-10
3.18267e-09
-5.76748e-09
1.72508e-09
8.59741e-10
-4.26305e-09
1.44002e-11
-4.65779e-09
2.37291e-09
-4.08065e-11
-2.55008e-09
-1.84939e-10
2.70475e-09
3.02638e-11
-5.31606e-09
3.66358e-09
3.53688e-09
-1.88437e-09
2.20613e-09
-3.28197e-09
1.00328e-09
7.25745e-11
2.56362e-09
8.42707e-11
-2.96567e-09
4.66943e-10
2.49825e-09
4.82874e-13
1.0253e-09
1.52779e-09
-4.78904e-09
2.23595e-09
-2.43361e-09
3.90779e-09
-3.53757e-09
2.06339e-09
3.9959e-09
4.30695e-09
-4.11566e-09
-4.18721e-09
2.84584e-09
-2.7173e-09
-2.099e-09
-3.63039e-09
-2.3556e-09
6.03032e-09
-4.43322e-11
2.84486e-09
-1.17449e-09
3.60866e-09
-5.27901e-09
5.15083e-09
2.0939e-09
-1.73692e-09
4.26764e-10
4.46633e-09
-3.83929e-09
-1.05381e-09
-4.3308e-09
1.3497e-09
-5.48238e-10
3.52934e-09
5.89476e-09
-4.77974e-09
-1.25058e-09
1.35577e-10
1.44413e-09
3.78089e-10
4.07257e-09
-3.71212e-09
2.34213e-09
1.91834e-09
-5.48309e-10
-2.09805e-09
-8.32282e-10
3.02878e-09
-9.84717e-11
-6.83034e-10
-1.47455e-09
1.29153e-10
-8.26775e-10
4.49253e-09
-6.79229e-09
3.12655e-09
2.04163e-09
-4.10668e-09
1.94548e-09
1.19589e-10
3.31415e-09
-2.25566e-09
-1.04737e-09
-1.10617e-11
-1.47265e-09
-3.01682e-09
-1.33958e-09
5.82903e-09
-2.19753e-09
-3.13338e-09
2.55709e-09
-5.16381e-09
4.55859e-10
2.15087e-09
-2.81278e-09
5.5859e-09
-6.10039e-10
-2.16306e-09
4.37246e-09
8.32188e-10
-4.74534e-09
-4.59298e-10
-2.98762e-09
-4.79972e-09
1.96702e-09
5.82034e-09
-2.63735e-09
-1.62692e-09
5.30996e-09
-1.04569e-09
7.74971e-10
1.56582e-09
-2.1534e-09
-1.87375e-10
7.6245e-10
-6.42767e-09
5.61174e-09
5.34731e-11
8.84456e-09
-6.17282e-09
4.15417e-09
-2.91361e-09
-2.08733e-09
4.81408e-09
1.86878e-10
-1.34053e-09
1.62345e-09
-2.9063e-10
7.7005e-12
1.80251e-09
5.8932e-09
-9.83381e-09
2.1381e-09
-1.65682e-09
2.06351e-09
2.0077e-11
-8.08018e-10
-3.10037e-09
3.83339e-09
7.49916e-11
1.42516e-09
-2.10652e-09
8.02638e-10
-1.21287e-10
-4.50278e-10
-5.29247e-09
3.66867e-09
2.07413e-09
1.61189e-09
-6.43119e-09
-6.26818e-10
5.44612e-09
-3.33271e-09
3.27173e-09
-3.39264e-09
3.4536e-09
1.65907e-09
-2.24016e-09
-3.66252e-09
4.2436e-09
5.45142e-09
-5.07313e-09
7.13958e-09
3.18304e-09
2.22164e-09
-4.53084e-09
2.65006e-09
3.20269e-09
-1.32189e-09
2.04774e-09
-2.88711e-09
4.55587e-09
-4.3757e-09
-1.1272e-09
2.38641e-09
3.11647e-09
3.2774e-09
-4.23892e-09
2.8268e-09
-1.86526e-09
-3.65983e-09
-1.50645e-09
4.92415e-09
2.42108e-10
5.19232e-09
-2.73182e-09
-3.57114e-09
1.1107e-09
2.18591e-09
-6.24282e-09
4.73526e-09
-6.78329e-10
-3.66096e-10
2.72111e-09
-2.3158e-09
-3.92121e-11
5.87493e-09
-1.03361e-09
-4.87838e-09
3.70542e-11
2.52329e-09
-4.38499e-09
4.62563e-09
-2.76391e-09
-2.24367e-09
-3.20575e-10
2.5093e-09
5.49598e-11
3.67205e-09
-4.2641e-09
4.9228e-10
9.97863e-11
-1.80192e-09
2.13541e-09
6.06008e-09
-6.39356e-09
-4.85211e-10
-2.69407e-09
3.20536e-09
-2.60681e-11
2.11877e-09
-3.27359e-09
1.18355e-09
-2.87291e-11
2.80871e-09
5.36334e-09
-6.05328e-09
4.21988e-09
-3.67091e-09
-5.49343e-10
3.74198e-13
5.09374e-10
6.94869e-09
-1.00867e-09
-6.44937e-09
-2.4648e-09
6.1244e-09
-7.08015e-10
-2.95157e-09
1.15941e-09
4.25539e-09
-7.23316e-09
1.81835e-09
2.11875e-09
-4.87822e-09
3.91889e-09
-4.40315e-09
3.35886e-09
1.08671e-09
-4.24045e-11
-2.90501e-10
3.16717e-09
7.08873e-11
1.87687e-09
-2.90749e-10
2.64481e-09
-2.41431e-09
-3.63221e-09
8.16698e-09
-2.12049e-09
-6.08663e-09
-1.74952e-09
-3.17372e-09
2.57354e-09
6.03214e-10
-3.0034e-12
4.67282e-09
-6.82519e-09
3.85732e-09
-1.70495e-09
-4.89078e-10
-1.96043e-09
3.24226e-11
-1.74617e-09
6.51514e-09
-1.86759e-09
4.17064e-09
-4.80858e-09
2.50555e-09
-2.605e-09
9.26151e-10
-1.88701e-10
4.89118e-09
4.19379e-09
-9.47786e-09
-4.46284e-09
-1.93102e-09
3.56479e-09
2.8291e-09
-1.82719e-09
4.94297e-09
6.37376e-09
-9.48955e-09
-2.80772e-09
1.01928e-09
1.86284e-09
-7.43998e-11
4.68762e-09
1.36135e-09
-5.96084e-09
-8.81286e-11
4.15616e-09
7.45387e-10
-8.98346e-09
4.08192e-09
-1.71089e-09
6.88189e-09
-3.03632e-09
-2.13469e-09
2.10768e-09
1.64285e-09
-3.93801e-09
1.875e-10
5.06508e-09
2.72624e-09
-1.40864e-10
4.13482e-09
-1.55815e-09
2.32047e-10
-1.89379e-09
-3.75078e-09
3.54428e-09
2.10029e-09
-1.7712e-09
5.46365e-09
5.0919e-09
-8.78433e-09
4.0681e-09
-1.56748e-09
1.76099e-10
5.73014e-09
-3.65933e-10
-5.48382e-09
1.19651e-10
-1.9583e-09
-2.14606e-09
4.05147e-09
5.295e-11
-1.7867e-09
-2.30803e-09
-4.12056e-11
1.85421e-09
-2.15326e-09
2.93496e-10
5.5397e-12
6.499e-09
-5.31451e-09
4.83505e-11
2.48913e-09
4.62879e-09
-9.56638e-10
2.33929e-09
-3.57483e-09
1.21129e-09
2.43118e-11
-4.05584e-09
7.08257e-09
-3.1959e-09
1.69196e-10
-1.66058e-09
5.80361e-09
-5.36444e-09
5.51374e-09
-5.30086e-09
-4.74373e-09
3.40758e-09
-2.81309e-09
-7.5569e-10
1.61173e-10
2.80708e-09
5.5619e-10
4.42559e-11
4.28294e-09
-8.87421e-10
-3.40216e-09
6.63886e-12
7.56298e-10
-6.55771e-09
-7.95142e-10
5.03741e-09
-4.22231e-09
-8.29843e-10
1.47603e-11
-3.29734e-09
4.00986e-09
-6.87362e-10
-2.51329e-11
4.1671e-09
-1.01031e-09
1.88063e-09
7.73083e-09
1.07811e-08
-5.80155e-09
-1.27104e-08
5.58097e-09
-5.36535e-10
2.06427e-11
2.65928e-09
-3.97671e-10
6.77094e-11
-5.35355e-09
5.75429e-10
4.85754e-09
-7.94316e-11
6.00925e-09
-4.80664e-09
-1.24454e-09
4.19445e-11
5.23097e-09
-4.91214e-09
5.69044e-09
-1.97811e-09
2.25543e-09
-4.42714e-10
1.65391e-10
-4.69718e-09
1.55696e-09
9.38519e-09
-6.24498e-09
4.35306e-09
-1.22138e-09
6.45298e-09
-9.58462e-09
-9.50618e-09
7.48837e-09
5.84066e-09
-3.82288e-09
6.6735e-09
-6.50516e-10
8.89552e-11
9.7027e-09
1.52803e-09
-4.67325e-09
-6.55749e-09
4.83533e-09
1.12492e-08
-9.60247e-09
-6.48204e-09
5.40999e-09
4.34052e-09
-3.73397e-09
-6.01653e-09
-3.72707e-09
5.75237e-09
-9.26826e-09
7.24296e-09
-6.89323e-10
-2.45787e-09
3.11513e-09
3.20669e-11
4.58219e-09
-4.04214e-10
-4.39546e-09
2.17453e-10
-1.01792e-08
5.56005e-09
-6.33339e-09
1.09525e-08
8.1538e-11
-9.15596e-09
5.85708e-09
3.21734e-09
-9.62432e-09
4.88425e-09
6.44394e-09
-1.70387e-09
-4.05109e-09
4.26147e-09
-1.03014e-10
-1.07377e-10
-9.09047e-09
6.00305e-09
-9.83808e-10
4.07125e-09
-1.09984e-08
5.39471e-09
1.15122e-09
4.45243e-09
-4.53645e-09
6.92111e-09
-7.15814e-09
6.11247e-09
-5.10984e-09
9.31838e-09
-1.0321e-08
-4.30078e-09
-1.09385e-09
1.06163e-08
-5.2216e-09
8.99283e-10
3.81335e-09
4.35288e-09
4.44766e-09
-7.52234e-10
-9.40111e-09
5.7057e-09
1.01644e-09
9.6058e-09
-4.29151e-09
-6.33072e-09
3.10653e-09
-4.83144e-10
-2.79398e-09
1.70578e-10
2.9033e-09
3.2114e-09
-5.96671e-09
-1.47973e-10
1.61944e-09
4.60895e-09
-2.74967e-09
-3.47871e-09
1.68931e-09
-2.07818e-09
5.47477e-10
-1.58598e-10
-1.10355e-08
1.60824e-09
4.56627e-09
4.861e-09
-5.09347e-09
-1.11457e-08
6.56347e-09
9.6757e-09
4.44784e-09
-4.65722e-09
7.35719e-09
-7.14782e-09
9.0998e-09
-1.15989e-08
8.08262e-09
-5.58354e-09
3.92032e-10
-5.80149e-10
3.53871e-09
-3.35069e-09
1.49105e-09
4.1504e-09
4.67362e-09
-1.03151e-08
2.55954e-09
-1.15831e-10
-9.82362e-09
4.55665e-09
6.61718e-09
-1.3502e-09
-9.7034e-09
6.46999e-09
4.42597e-09
-1.19252e-09
-1.2606e-09
6.49253e-09
4.54804e-09
-9.77999e-09
5.42414e-09
-9.91476e-09
1.1098e-08
-6.60735e-09
-5.29442e-09
-1.1089e-08
9.78455e-09
6.5989e-09
-5.33924e-09
-1.24223e-09
1.10564e-08
-4.47494e-09
-1.10557e-08
5.36633e-09
1.17753e-09
4.51186e-09
6.3733e-09
9.61478e-09
-1.07662e-08
-5.22193e-09
6.36263e-09
-5.29418e-09
-1.07718e-08
9.55044e-09
-1.0751e-08
-5.1253e-09
6.32593e-09
-1.14728e-09
6.02176e-09
4.28287e-09
-9.15733e-09
1.06056e-09
-4.51984e-09
-6.52565e-09
9.98494e-09
1.03037e-09
-1.08994e-08
4.49486e-09
5.37417e-09
-4.30226e-09
-1.12355e-09
1.02379e-08
-4.8121e-09
-1.24633e-09
-2.0432e-09
5.69418e-09
-2.40466e-09
1.38759e-09
-2.92428e-09
1.73529e-09
-1.98568e-10
-3.35604e-09
2.46573e-09
5.08851e-09
-3.08641e-09
-2.44254e-09
2.20632e-09
3.32264e-09
-2.43014e-09
-2.70613e-09
1.63928e-09
3.49699e-09
-3.99585e-09
-5.20871e-09
7.9582e-09
1.05403e-08
-4.51096e-09
-4.55117e-09
-1.47811e-09
-9.96432e-09
4.46558e-09
4.15572e-09
1.34298e-09
-1.12157e-08
9.63936e-09
-4.92717e-09
6.50353e-09
7.49923e-09
1.02827e-08
-1.19942e-08
-5.78772e-09
-4.86841e-09
-4.86214e-09
1.14047e-08
-1.67418e-09
-1.62452e-09
-4.81446e-09
1.13526e-08
-4.91366e-09
-4.85495e-09
9.64714e-09
-6.45462e-09
1.66243e-09
9.6077e-09
6.38903e-09
-1.11963e-08
-4.80044e-09
4.63483e-09
-6.28409e-09
-9.51107e-09
-9.76486e-09
4.96373e-09
-6.57487e-09
1.1376e-08
-4.94527e-09
4.03761e-09
-3.22489e-09
4.13255e-09
1.61785e-09
-4.6358e-09
-6.24808e-09
9.26603e-09
1.55761e-09
4.72143e-09
-1.12641e-08
4.98508e-09
-1.44425e-09
1.04986e-08
-4.38308e-09
-4.67127e-09
2.80041e-09
-2.38209e-09
5.03798e-09
-5.45628e-09
-8.09321e-09
8.13856e-09
-2.7514e-10
8.75159e-09
6.14638e-09
-1.02562e-08
-4.64172e-09
4.31256e-09
-4.54098e-09
-3.72095e-09
3.94936e-09
-5.25638e-09
-9.7318e-10
8.26874e-11
-4.45029e-09
-6.45188e-09
9.60079e-09
1.30138e-09
2.65276e-10
-3.07186e-09
-2.91881e-09
5.28977e-09
-9.78724e-11
2.94223e-09
-8.13412e-09
-4.09422e-09
9.5536e-09
2.12884e-09
-7.58822e-09