/*--------------------------------*- C++ -*----------------------------------*\
| =========                 |                                                 |
| \\      /  F ield         | OpenFOAM: The Open Source CFD Toolbox           |
|  \\    /   O peration     | Version:  v1612+                                |
|   \\  /    A nd           | Web:      www.OpenFOAM.com                      |
|    \\/     M anipulation  |                                                 |
\*---------------------------------------------------------------------------*/
FoamFile
{
    version     2.0;
    format      ascii;
    class       volVectorField;
    location    "50";
    object      U;
}
// * * * * * * * * * * * * * * * * * * * * * * * * * * * * * * * * * * * * * //

dimensions      [0 1 -1 0 0 0 0];

internalField   nonuniform List<vector> 
21109
(
(-0.112079 0.628033 -0.242662)
(-0.135827 0.607877 -0.197882)
(-0.101598 0.621325 -0.228369)
(-0.155989 0.786739 -0.27319)
(-0.0873129 0.635503 -0.227613)
(-0.140259 0.755273 -0.253724)
(-0.106869 0.660349 -0.236561)
(-0.129922 0.601965 -0.24035)
(-0.155345 0.722619 -0.297102)
(-0.171822 0.742022 -0.230111)
(-0.090928 0.588484 -0.194797)
(-0.131157 0.653616 -0.213921)
(-0.128932 0.772789 -0.288943)
(-0.114421 0.540812 -0.212157)
(-0.135711 0.6664 -0.234835)
(-0.09036 0.620211 -0.222746)
(-0.147142 0.610565 -0.201487)
(-0.121037 0.716853 -0.240516)
(-0.215569 0.897118 -0.294961)
(-0.125723 0.734758 -0.256868)
(-0.139099 0.674299 -0.31279)
(-0.134687 0.638423 -0.278755)
(-0.116471 0.608572 -0.278674)
(-0.125797 0.682477 -0.277935)
(-0.126971 0.708558 -0.259861)
(-0.16917 0.777309 -0.258147)
(-0.110664 0.655414 -0.234036)
(-0.109647 0.659469 -0.217534)
(-0.110132 0.699507 -0.228622)
(-0.0856155 0.637229 -0.235843)
(-0.118164 0.663555 -0.230676)
(-0.14547 0.733239 -0.278073)
(-0.117519 0.638452 -0.245783)
(-0.158197 0.726491 -0.254636)
(-0.100708 0.564675 -0.244216)
(-0.104081 0.653287 -0.256851)
(-0.129281 0.678017 -0.251348)
(-0.131315 0.654516 -0.254567)
(-0.149897 0.750643 -0.273919)
(-0.136373 0.704023 -0.273984)
(-0.162861 0.820904 -0.296254)
(-0.171593 0.782878 -0.258982)
(-0.152152 0.687436 -0.240996)
(-0.179104 0.763783 -0.247974)
(-0.192211 0.815529 -0.26474)
(-0.129381 0.581742 -0.239384)
(-0.107762 0.538016 -0.224339)
(-0.111856 0.560944 -0.249828)
(-0.14857 0.760867 -0.340359)
(-0.145026 0.754829 -0.335669)
(-0.140783 0.747136 -0.285674)
(-0.113068 0.671883 -0.252205)
(-0.147584 0.808667 -0.296725)
(-0.110969 0.659159 -0.247826)
(-0.121694 0.687725 -0.252442)
(-0.120183 0.62594 -0.23981)
(-0.137856 0.72601 -0.264906)
(-0.102777 0.582169 -0.272182)
(-0.126138 0.684919 -0.254779)
(-0.157891 0.699527 -0.213597)
(-0.11479 0.691684 -0.266136)
(-0.145975 0.716875 -0.252283)
(-0.135401 0.698328 -0.293259)
(-0.138503 0.70044 -0.293043)
(-0.123516 0.6053 -0.236636)
(-0.137308 0.684239 -0.277451)
(-0.131504 0.560598 -0.19374)
(-0.152651 0.676437 -0.283636)
(-0.145613 0.719999 -0.324896)
(-0.129501 0.642671 -0.290347)
(-0.125292 0.70743 -0.238362)
(-0.115423 0.681335 -0.222996)
(-0.141793 0.722542 -0.252858)
(-0.138393 0.702032 -0.257383)
(-0.130807 0.679244 -0.248432)
(-0.152013 0.775715 -0.27046)
(-0.157824 0.786922 -0.269061)
(-0.108896 0.671595 -0.228299)
(-0.157171 0.710217 -0.249071)
(-0.143182 0.71043 -0.249831)
(-0.118225 0.629045 -0.231041)
(-0.142541 0.70868 -0.221246)
(-0.136865 0.692502 -0.209374)
(-0.111323 0.666918 -0.235397)
(-0.113032 0.680958 -0.234818)
(-0.115615 0.623863 -0.2212)
(-0.133798 0.687087 -0.232634)
(-0.121919 0.608051 -0.247453)
(-0.112268 0.597165 -0.232255)
(-0.110982 0.628323 -0.217856)
(-0.114699 0.62525 -0.254981)
(-0.128795 0.640229 -0.25476)
(-0.149675 0.730423 -0.275473)
(-0.116297 0.608937 -0.263944)
(-0.119648 0.58528 -0.226735)
(-0.128334 0.662247 -0.281765)
(-0.119192 0.735135 -0.26517)
(-0.121709 0.577579 -0.255892)
(-0.101118 0.593624 -0.238256)
(-0.118624 0.721688 -0.286948)
(-0.139048 0.650391 -0.287313)
(-0.107829 0.682069 -0.274218)
(-0.10936 0.663157 -0.275128)
(-0.108808 0.651635 -0.264897)
(-0.125506 0.704341 -0.242057)
(-0.129972 0.684387 -0.245444)
(-0.127514 0.645427 -0.219998)
(-0.138625 0.646504 -0.282038)
(-0.123272 0.623333 -0.291184)
(-0.153693 0.725321 -0.254543)
(-0.122023 0.718675 -0.284504)
(-0.156013 0.749307 -0.263067)
(-0.14202 0.687883 -0.301872)
(-0.129948 0.611841 -0.279101)
(-0.0968552 0.593382 -0.288087)
(-0.116596 0.657625 -0.283771)
(-0.106027 0.651853 -0.231809)
(-0.131539 0.723948 -0.248329)
(-0.131218 0.715898 -0.261339)
(-0.103615 0.60417 -0.238382)
(-0.122539 0.6667 -0.245363)
(-0.136446 0.70784 -0.246962)
(-0.135514 0.718813 -0.262856)
(-0.123923 0.703949 -0.252272)
(-0.0904429 0.602864 -0.191861)
(-0.123217 0.695472 -0.22611)
(-0.139099 0.702812 -0.29487)
(-0.104579 0.673516 -0.253211)
(-0.155329 0.732919 -0.265497)
(-0.18049 0.746426 -0.245223)
(-0.158544 0.679757 -0.204923)
(-0.161423 0.634787 -0.206524)
(-0.120117 0.660672 -0.291996)
(-0.116304 0.582964 -0.259947)
(-0.100013 0.58981 -0.210505)
(-0.112906 0.651321 -0.232473)
(-0.104131 0.667225 -0.229305)
(-0.11037 0.660944 -0.220445)
(-0.105525 0.678975 -0.251811)
(-0.142676 0.754521 -0.285957)
(-0.124717 0.726019 -0.28125)
(-0.110999 0.681801 -0.272692)
(-0.104821 0.62904 -0.246778)
(-0.118992 0.675111 -0.267113)
(-0.119786 0.683977 -0.224507)
(-0.136086 0.742568 -0.244905)
(-0.118665 0.677062 -0.222567)
(-0.114246 0.63789 -0.287182)
(-0.140187 0.727515 -0.22712)
(-0.123485 0.705525 -0.223715)
(-0.139827 0.716114 -0.234659)
(-0.0949757 0.609 -0.229695)
(-0.149678 0.719092 -0.320354)
(-0.101392 0.627121 -0.290163)
(-0.130622 0.67508 -0.266877)
(-0.126531 0.659325 -0.261241)
(-0.136225 0.678918 -0.242536)
(-0.120927 0.593224 -0.211472)
(-0.0928681 0.607031 -0.212502)
(-0.131085 0.719875 -0.244321)
(-0.0929793 0.650318 -0.22188)
(-0.122284 0.704697 -0.235332)
(-0.165662 0.773343 -0.24271)
(-0.138488 0.686265 -0.27344)
(-0.12852 0.653289 -0.25402)
(-0.116376 0.637977 -0.263489)
(-0.110156 0.591512 -0.237896)
(-0.114982 0.624127 -0.261352)
(-0.101141 0.589449 -0.237864)
(-0.102843 0.542131 -0.264335)
(-0.118993 0.628426 -0.286151)
(-0.14147 0.668363 -0.307041)
(-0.144274 0.628409 -0.273757)
(-0.122755 0.672213 -0.213742)
(-0.118882 0.712668 -0.223418)
(-0.130987 0.734936 -0.251309)
(-0.0951354 0.576176 -0.216047)
(-0.0965529 0.63858 -0.247383)
(-0.109216 0.647783 -0.234953)
(-0.131153 0.677455 -0.242386)
(-0.133066 0.707995 -0.264589)
(-0.12316 0.62806 -0.263298)
(-0.117176 0.595725 -0.254438)
(-0.114152 0.666106 -0.2312)
(-0.109159 0.680662 -0.230988)
(-0.135455 0.706004 -0.251233)
(-0.128744 0.653536 -0.317212)
(-0.14644 0.696773 -0.208067)
(-0.122314 0.637987 -0.24205)
(-0.133556 0.665979 -0.250958)
(-0.100341 0.517818 -0.206804)
(-0.120646 0.626528 -0.243687)
(-0.127754 0.663261 -0.252744)
(-0.122857 0.548523 -0.190527)
(-0.126186 0.735805 -0.220453)
(-0.125411 0.674801 -0.206173)
(-0.121685 0.687817 -0.224786)
(-0.121864 0.690709 -0.270241)
(-0.113358 0.622119 -0.258245)
(-0.113115 0.605989 -0.238893)
(-0.096062 0.582979 -0.215384)
(-0.120017 0.664371 -0.280079)
(-0.131581 0.645041 -0.256266)
(-0.116608 0.621947 -0.253725)
(-0.130125 0.658206 -0.319338)
(-0.113443 0.643327 -0.268321)
(-0.117578 0.621495 -0.250808)
(-0.125493 0.647479 -0.246534)
(-0.119375 0.633404 -0.214296)
(-0.087273 0.61796 -0.212294)
(-0.121509 0.70296 -0.228751)
(-0.0921617 0.584771 -0.19442)
(-0.123518 0.696318 -0.227031)
(-0.0943131 0.619724 -0.206019)
(-0.135984 0.715843 -0.25415)
(-0.104917 0.598697 -0.21459)
(-0.119095 0.669298 -0.231467)
(-0.112926 0.625704 -0.282162)
(-0.110653 0.646665 -0.282856)
(-0.148544 0.751015 -0.313786)
(-0.148818 0.671616 -0.309527)
(-0.0897065 0.571182 -0.220292)
(-0.103093 0.684586 -0.250899)
(-0.0907453 0.640491 -0.233065)
(-0.163066 0.672221 -0.224801)
(-0.125403 0.540012 -0.199836)
(-0.127911 0.59771 -0.268232)
(-0.120283 0.699171 -0.241759)
(-0.102831 0.644585 -0.223726)
(-0.120615 0.611688 -0.251427)
(-0.114673 0.55094 -0.215993)
(-0.131604 0.64983 -0.255773)
(-0.129411 0.573638 -0.256294)
(-0.118643 0.661113 -0.218721)
(-0.136724 0.662402 -0.239439)
(-0.13651 0.625277 -0.225253)
(-0.128145 0.609851 -0.228087)
(-0.143878 0.697793 -0.223259)
(-0.133133 0.65341 -0.215509)
(-0.141592 0.695803 -0.226427)
(-0.116005 0.680126 -0.243103)
(-0.115812 0.687045 -0.24931)
(-0.0982073 0.639725 -0.215089)
(-0.139321 0.612906 -0.255258)
(-0.128545 0.613137 -0.256573)
(-0.137684 0.658453 -0.273944)
(-0.140815 0.611153 -0.229462)
(-0.133205 0.619561 -0.234203)
(-0.160531 0.685109 -0.221402)
(-0.125826 0.571332 -0.186781)
(-0.150504 0.667171 -0.205608)
(-0.14854 0.665066 -0.202044)
(-0.113052 0.65039 -0.208565)
(-0.143751 0.728605 -0.228482)
(-0.109129 0.618009 -0.209215)
(-0.0830661 0.570661 -0.178272)
(-0.141925 0.680042 -0.240013)
(-0.135543 0.645197 -0.220992)
(-0.159423 0.745965 -0.265466)
(-0.142038 0.681672 -0.245992)
(-0.125282 0.606629 -0.212419)
(-0.149436 0.701098 -0.299106)
(-0.11925 0.637712 -0.28803)
(-0.12391 0.637499 -0.246576)
(-0.0980524 0.633003 -0.223329)
(-0.10075 0.647802 -0.237541)
(-0.115312 0.707787 -0.264823)
(-0.110674 0.591492 -0.224414)
(-0.127375 0.632244 -0.236806)
(-0.11351 0.659379 -0.250851)
(-0.117247 0.64594 -0.20929)
(-0.124907 0.558111 -0.209668)
(-0.14073 0.690647 -0.296684)
(-0.129574 0.628164 -0.254596)
(-0.137601 0.650574 -0.266041)
(-0.118969 0.668278 -0.260824)
(-0.124652 0.64369 -0.243293)
(-0.143763 0.653729 -0.281245)
(-0.11929 0.631254 -0.29915)
(-0.12232 0.67504 -0.3114)
(-0.113496 0.694658 -0.243868)
(-0.140667 0.708944 -0.262399)
(-0.145694 0.743888 -0.255958)
(-0.129809 0.672121 -0.241602)
(-0.126962 0.536771 -0.185328)
(-0.136721 0.59958 -0.217952)
(-0.133816 0.637422 -0.236102)
(-0.124112 0.683948 -0.276503)
(-0.130923 0.637649 -0.257065)
(-0.1211 0.620474 -0.248748)
(-0.144258 0.720268 -0.304379)
(-0.121695 0.647647 -0.245018)
(-0.0902135 0.5767 -0.204624)
(-0.0979479 0.613549 -0.22088)
(-0.113672 0.642723 -0.292035)
(-0.120036 0.711077 -0.303317)
(-0.11961 0.684866 -0.231001)
(-0.0866835 0.587815 -0.220442)
(-0.100314 0.654891 -0.242343)
(-0.0775195 0.544435 -0.207993)
(-0.0782358 0.573331 -0.21333)
(-0.0893219 0.606578 -0.217641)
(-0.102221 0.607032 -0.232643)
(-0.0909487 0.586677 -0.229605)
(-0.101806 0.645415 -0.24621)
(-0.130695 0.658612 -0.252407)
(-0.110345 0.697645 -0.239491)
(-0.0976415 0.634407 -0.208945)
(-0.100513 0.670614 -0.237318)
(-0.126387 0.659422 -0.265856)
(-0.143245 0.659973 -0.290418)
(-0.1481 0.671573 -0.294648)
(-0.0942351 0.544295 -0.262841)
(-0.0974727 0.606213 -0.223645)
(-0.078635 0.552275 -0.210464)
(-0.103338 0.58297 -0.25908)
(-0.105756 0.530146 -0.2271)
(-0.120635 0.609317 -0.257309)
(-0.0997253 0.566227 -0.24643)
(-0.125483 0.665035 -0.268438)
(-0.125928 0.711136 -0.292497)
(-0.144024 0.593613 -0.28129)
(-0.146721 0.733905 -0.297213)
(-0.0861376 0.620181 -0.224043)
(-0.159522 0.779153 -0.247227)
(-0.119437 0.660168 -0.202253)
(-0.121062 0.653778 -0.208729)
(-0.1099 0.677598 -0.243721)
(-0.126586 0.639824 -0.263168)
(-0.118134 0.637154 -0.301495)
(-0.122191 0.640607 -0.299851)
(-0.107063 0.687635 -0.229922)
(-0.112792 0.637876 -0.236665)
(-0.151653 0.668196 -0.310835)
(-0.143961 0.637149 -0.299381)
(-0.140351 0.649732 -0.281469)
(-0.150147 0.703687 -0.306331)
(-0.121431 0.599615 -0.227296)
(-0.11952 0.657286 -0.243776)
(-0.104121 0.610016 -0.224976)
(-0.0863864 0.589078 -0.214109)
(-0.149299 0.71685 -0.3092)
(-0.112439 0.643101 -0.292673)
(-0.110643 0.645907 -0.282157)
(-0.156354 0.626502 -0.212842)
(-0.165295 0.704007 -0.22095)
(-0.1343 0.713546 -0.269117)
(-0.119974 0.603588 -0.247533)
(-0.101237 0.652744 -0.260141)
(-0.107273 0.674006 -0.26443)
(-0.130707 0.714446 -0.315456)
(-0.132042 0.66455 -0.264773)
(-0.109128 0.685484 -0.265653)
(-0.128818 0.698831 -0.291048)
(-0.111983 0.631467 -0.270618)
(-0.107286 0.644917 -0.281362)
(-0.11495 0.674429 -0.266987)
(-0.110873 0.660254 -0.279698)
(-0.136126 0.668396 -0.311118)
(-0.134133 0.639237 -0.238093)
(-0.0901822 0.599704 -0.227409)
(-0.119506 0.678087 -0.240274)
(-0.12985 0.737462 -0.288031)
(-0.145929 0.720565 -0.316016)
(-0.126431 0.59032 -0.268919)
(-0.100547 0.637813 -0.225349)
(-0.101847 0.637072 -0.215938)
(-0.0969559 0.589388 -0.230419)
(-0.113865 0.682629 -0.261511)
(-0.131617 0.682531 -0.253879)
(-0.134354 0.692083 -0.252924)
(-0.135861 0.662002 -0.270427)
(-0.0895027 0.615075 -0.209388)
(-0.103089 0.541826 -0.212373)
(-0.110416 0.680938 -0.288285)
(-0.125702 0.57788 -0.21121)
(-0.109235 0.713359 -0.282263)
(-0.111726 0.5779 -0.24907)
(-0.110934 0.717415 -0.263838)
(-0.10773 0.650948 -0.240275)
(-0.118982 0.732977 -0.263806)
(-0.0961073 0.611946 -0.272573)
(-0.0818488 0.597283 -0.213845)
(-0.0866554 0.592163 -0.195549)
(-0.129064 0.701057 -0.252389)
(-0.111467 0.669841 -0.221567)
(-0.0942149 0.640599 -0.221284)
(-0.124029 0.674281 -0.244254)
(-0.119024 0.673112 -0.219705)
(-0.127598 0.725805 -0.243234)
(-0.118305 0.689468 -0.221646)
(-0.12285 0.650496 -0.255347)
(-0.110595 0.582641 -0.224167)
(-0.109102 0.595646 -0.235503)
(-0.123539 0.622229 -0.248364)
(-0.135459 0.703379 -0.27109)
(-0.105032 0.544547 -0.227646)
(-0.117152 0.585352 -0.270737)
(-0.116426 0.5618 -0.203652)
(-0.120265 0.707651 -0.242663)
(-0.119012 0.627095 -0.258326)
(-0.107289 0.594904 -0.247363)
(-0.123186 0.669924 -0.251277)
(-0.103586 0.589518 -0.231543)
(-0.143948 0.589586 -0.271781)
(-0.157433 0.698224 -0.302206)
(-0.126585 0.669558 -0.221344)
(-0.133972 0.679894 -0.224577)
(-0.141751 0.703637 -0.230847)
(-0.129156 0.689713 -0.257677)
(-0.104375 0.623964 -0.277504)
(-0.145486 0.661654 -0.234662)
(-0.107631 0.642519 -0.218664)
(-0.141999 0.614975 -0.272838)
(-0.121554 0.603874 -0.30532)
(-0.127634 0.62643 -0.304788)
(-0.11929 0.608414 -0.306056)
(-0.113787 0.571273 -0.280367)
(-0.104587 0.646427 -0.229627)
(-0.1048 0.621891 -0.224328)
(-0.088568 0.599473 -0.216125)
(-0.0888752 0.615563 -0.224514)
(-0.111939 0.694374 -0.276446)
(-0.102876 0.64493 -0.240457)
(-0.104359 0.687666 -0.251353)
(-0.117375 0.575161 -0.221532)
(-0.144526 0.688297 -0.24044)
(-0.098321 0.496624 -0.197818)
(-0.111919 0.586093 -0.226204)
(-0.088562 0.588351 -0.189236)
(-0.115331 0.674785 -0.219401)
(-0.0825998 0.56465 -0.1809)
(-0.119198 0.705036 -0.258237)
(-0.119571 0.720934 -0.276406)
(-0.11558 0.584266 -0.228558)
(-0.123249 0.574067 -0.228096)
(-0.120738 0.67271 -0.217799)
(-0.100145 0.610848 -0.202153)
(-0.129909 0.652551 -0.228208)
(-0.141775 0.709679 -0.251396)
(-0.101319 0.608883 -0.236762)
(-0.128466 0.666028 -0.228329)
(-0.119488 0.607903 -0.210464)
(-0.140788 0.728219 -0.24)
(-0.128033 0.619999 -0.222839)
(-0.109418 0.595076 -0.225126)
(-0.119118 0.641001 -0.24342)
(-0.117874 0.672338 -0.255867)
(-0.10998 0.592338 -0.238881)
(-0.124678 0.67798 -0.271242)
(-0.130182 0.665176 -0.265471)
(-0.115749 0.606547 -0.187965)
(-0.116806 0.652792 -0.212607)
(-0.11636 0.670284 -0.212927)
(-0.115317 0.670329 -0.302837)
(-0.126869 0.670989 -0.234123)
(-0.0974624 0.645091 -0.247789)
(-0.102071 0.655969 -0.255329)
(-0.144721 0.675062 -0.205982)
(-0.106626 0.581163 -0.157934)
(-0.085025 0.579115 -0.184838)
(-0.141282 0.719064 -0.231456)
(-0.107801 0.598809 -0.276803)
(-0.0994737 0.532551 -0.148964)
(-0.141247 0.686885 -0.217257)
(-0.110521 0.66383 -0.224038)
(-0.127175 0.691031 -0.287986)
(-0.134617 0.676977 -0.269309)
(-0.136352 0.641255 -0.238862)
(-0.118668 0.685685 -0.225073)
(-0.127395 0.66317 -0.28098)
(-0.117322 0.572543 -0.16057)
(-0.134238 0.681561 -0.249246)
(-0.118716 0.734304 -0.267684)
(-0.11756 0.618204 -0.236727)
(-0.0961003 0.57017 -0.265188)
(-0.128335 0.680886 -0.293734)
(-0.102402 0.625439 -0.284812)
(-0.117779 0.549304 -0.251913)
(-0.128402 0.537127 -0.242835)
(-0.153871 0.687628 -0.237299)
(-0.133452 0.697453 -0.252783)
(-0.114743 0.6379 -0.307038)
(-0.118208 0.619115 -0.292925)
(-0.12921 0.70096 -0.292841)
(-0.120711 0.635027 -0.25936)
(-0.116672 0.668729 -0.288104)
(-0.157176 0.654407 -0.210437)
(-0.140163 0.650372 -0.272354)
(-0.127909 0.618556 -0.239586)
(-0.108471 0.63086 -0.256477)
(-0.145852 0.667461 -0.299353)
(-0.129891 0.597599 -0.247847)
(-0.111094 0.578407 -0.229481)
(-0.123348 0.596388 -0.229208)
(-0.128759 0.726102 -0.251895)
(-0.111928 0.554461 -0.216023)
(-0.13561 0.647445 -0.230923)
(-0.142907 0.745223 -0.262511)
(-0.115151 0.589005 -0.249133)
(-0.125907 0.573992 -0.246572)
(-0.141721 0.653516 -0.278037)
(-0.101227 0.625212 -0.232292)
(-0.108424 0.676794 -0.24828)
(-0.10036 0.656899 -0.238912)
(-0.112333 0.664967 -0.251144)
(-0.105141 0.643459 -0.242824)
(-0.0920089 0.624845 -0.221832)
(-0.142874 0.555239 -0.190798)
(-0.138192 0.615513 -0.231046)
(-0.130391 0.711543 -0.245868)
(-0.149369 0.610791 -0.216724)
(-0.0970011 0.613803 -0.252178)
(-0.11343 0.699065 -0.268322)
(-0.111522 0.596252 -0.292104)
(-0.153442 0.722513 -0.21575)
(-0.127862 0.647124 -0.236677)
(-0.113337 0.593503 -0.217754)
(-0.138434 0.674058 -0.249097)
(-0.120894 0.675274 -0.231724)
(-0.137461 0.738303 -0.256904)
(-0.116516 0.604511 -0.215482)
(-0.11229 0.641854 -0.290208)
(-0.113817 0.698116 -0.287859)
(-0.132854 0.631393 -0.259204)
(-0.103956 0.60709 -0.219176)
(-0.140087 0.636828 -0.280727)
(-0.131955 0.59579 -0.258055)
(-0.13134 0.663637 -0.274239)
(-0.136484 0.707353 -0.258592)
(-0.145729 0.686935 -0.227844)
(-0.137697 0.682994 -0.227882)
(-0.129357 0.653945 -0.210032)
(-0.120247 0.539492 -0.217737)
(-0.101442 0.610425 -0.236835)
(-0.132735 0.643124 -0.214305)
(-0.102618 0.647311 -0.28221)
(-0.129689 0.586859 -0.180243)
(-0.140838 0.620367 -0.190598)
(-0.129913 0.630589 -0.296888)
(-0.107091 0.668879 -0.283973)
(-0.107444 0.604582 -0.29321)
(-0.0969313 0.587258 -0.283133)
(-0.104828 0.649076 -0.282137)
(-0.0971875 0.653836 -0.256711)
(-0.104925 0.621359 -0.234056)
(-0.0891065 0.61903 -0.238406)
(-0.105596 0.6566 -0.250587)
(-0.140086 0.74475 -0.265829)
(-0.136429 0.59928 -0.269566)
(-0.126099 0.570051 -0.260898)
(-0.118151 0.615299 -0.282346)
(-0.0862085 0.610812 -0.244044)
(-0.10753 0.679633 -0.263897)
(-0.129099 0.619678 -0.206375)
(-0.178376 0.885211 -0.354194)
(-0.177778 0.905396 -0.315844)
(-0.174916 0.803316 -0.270413)
(-0.10503 0.661976 -0.233284)
(-0.177843 0.921594 -0.351108)
(-0.178302 0.909232 -0.360714)
(-0.125156 0.667814 -0.252862)
(-0.16373 0.797687 -0.3368)
(-0.0941384 0.581947 -0.247503)
(-0.119634 0.665953 -0.28703)
(-0.218026 0.933675 -0.304119)
(-0.147104 0.753434 -0.305879)
(-0.179982 0.912296 -0.371445)
(-0.121136 0.561872 -0.265196)
(-0.173276 0.842879 -0.292631)
(-0.186683 0.930576 -0.31752)
(-0.133188 0.770677 -0.273507)
(-0.190424 0.871044 -0.292404)
(-0.183953 0.887157 -0.306528)
(-0.15893 0.763867 -0.267706)
(-0.209513 0.861678 -0.29099)
(-0.185263 0.899666 -0.300454)
(-0.0978431 0.623556 -0.263573)
(-0.105197 0.660162 -0.236936)
(-0.117091 0.718032 -0.253826)
(-0.0840256 0.609639 -0.2096)
(-0.183886 0.889485 -0.366398)
(-0.175968 0.916563 -0.339864)
(-0.119657 0.691324 -0.268233)
(-0.162956 0.861347 -0.317617)
(-0.0905594 0.598138 -0.229702)
(-0.152683 0.845504 -0.321471)
(-0.094522 0.561717 -0.203527)
(-0.181401 0.929425 -0.333869)
(-0.182841 0.918565 -0.315807)
(-0.186137 0.922337 -0.327766)
(-0.18748 0.93414 -0.319205)
(-0.180624 0.926122 -0.328258)
(-0.183027 0.925853 -0.323781)
(-0.187727 0.928601 -0.322634)
(-0.183587 0.901223 -0.308655)
(-0.181727 0.9107 -0.313156)
(-0.180162 0.895319 -0.311354)
(-0.177256 0.869681 -0.303196)
(-0.195445 0.933893 -0.315473)
(-0.194781 0.920088 -0.313225)
(-0.178734 0.859781 -0.306245)
(-0.140679 0.641672 -0.277235)
(-0.117432 0.589318 -0.230516)
(-0.128741 0.677981 -0.244995)
(-0.113325 0.669079 -0.238002)
(-0.12545 0.668224 -0.250664)
(-0.158859 0.71582 -0.300161)
(-0.173589 0.862528 -0.339558)
(-0.160447 0.811114 -0.312231)
(-0.177119 0.910454 -0.351895)
(-0.158469 0.7836 -0.297467)
(-0.181075 0.917662 -0.370818)
(-0.181372 0.917271 -0.365109)
(-0.181163 0.909468 -0.369648)
(-0.182528 0.904909 -0.365428)
(-0.177352 0.890644 -0.366997)
(-0.180455 0.924009 -0.359183)
(-0.151114 0.754814 -0.29173)
(-0.169765 0.885104 -0.352809)
(-0.179007 0.920136 -0.356399)
(-0.165392 0.865093 -0.329222)
(-0.114391 0.670194 -0.264373)
(-0.134289 0.772519 -0.280507)
(-0.156956 0.838619 -0.310402)
(-0.134596 0.755155 -0.280597)
(-0.107816 0.658823 -0.259147)
(-0.177774 0.913083 -0.32515)
(-0.138033 0.683499 -0.279754)
(-0.13824 0.67134 -0.258326)
(-0.161645 0.796261 -0.311549)
(-0.128411 0.636259 -0.245772)
(-0.149809 0.810769 -0.301549)
(-0.161015 0.819471 -0.301977)
(-0.153809 0.711353 -0.291946)
(-0.133273 0.699069 -0.297186)
(-0.121531 0.630601 -0.262262)
(-0.115427 0.689303 -0.256989)
(-0.0959054 0.615125 -0.23747)
(-0.109572 0.656915 -0.276745)
(-0.150037 0.840458 -0.329592)
(-0.1333 0.755656 -0.313803)
(-0.151194 0.792798 -0.329609)
(-0.103219 0.614556 -0.284129)
(-0.193024 0.878655 -0.290286)
(-0.119952 0.699711 -0.238464)
(-0.193234 0.918284 -0.306826)
(-0.173011 0.840817 -0.280877)
(-0.158301 0.755243 -0.245148)
(-0.214985 0.90168 -0.298287)
(-0.11952 0.649714 -0.198044)
(-0.124601 0.605595 -0.175815)
(-0.194012 0.89664 -0.294849)
(-0.111506 0.663083 -0.202994)
(-0.165821 0.756648 -0.238808)
(-0.203244 0.926387 -0.303042)
(-0.213267 0.909644 -0.293564)
(-0.168089 0.830978 -0.276435)
(-0.199483 0.899371 -0.296597)
(-0.207099 0.907448 -0.296081)
(-0.160533 0.795362 -0.313782)
(-0.165628 0.744528 -0.313422)
(-0.181005 0.927762 -0.339292)
(-0.153953 0.693155 -0.29322)
(-0.180815 0.878727 -0.325529)
(-0.151799 0.634429 -0.263696)
(-0.175366 0.904908 -0.34393)
(-0.141607 0.746143 -0.309361)
(-0.146663 0.672614 -0.269348)
(-0.107101 0.643758 -0.279167)
(-0.109798 0.693265 -0.279997)
(-0.177586 0.917691 -0.357428)
(-0.150187 0.84335 -0.354969)
(-0.158213 0.799133 -0.329344)
(-0.178404 0.904674 -0.361515)
(-0.1378 0.749785 -0.325412)
(-0.106841 0.592207 -0.262798)
(-0.174508 0.920528 -0.352372)
(-0.118391 0.600789 -0.279768)
(-0.123992 0.656093 -0.283566)
(-0.142388 0.806379 -0.341347)
(-0.12828 0.631065 -0.237192)
(-0.145784 0.68727 -0.244641)
(-0.160076 0.805993 -0.294637)
(-0.166534 0.822983 -0.294791)
(-0.108644 0.56983 -0.225089)
(-0.130794 0.620776 -0.226995)
(-0.133467 0.66244 -0.204405)
(-0.124839 0.671438 -0.20953)
(-0.150614 0.76059 -0.274424)
(-0.186118 0.914043 -0.313036)
(-0.178812 0.923628 -0.330163)
(-0.169577 0.871398 -0.297806)
(-0.168893 0.857118 -0.315004)
(-0.181544 0.917314 -0.320607)
(-0.161258 0.843008 -0.294339)
(-0.119616 0.636098 -0.216025)
(-0.184802 0.912912 -0.304936)
(-0.171292 0.844582 -0.298733)
(-0.126174 0.688347 -0.242799)
(-0.185285 0.883888 -0.293026)
(-0.159951 0.765848 -0.263809)
(-0.168189 0.878851 -0.316208)
(-0.151305 0.81093 -0.287056)
(-0.134472 0.751239 -0.260901)
(-0.120369 0.549977 -0.211779)
(-0.139417 0.721034 -0.228576)
(-0.213612 0.919141 -0.297193)
(-0.191787 0.875907 -0.290233)
(-0.150605 0.671866 -0.228211)
(-0.213877 0.920401 -0.30556)
(-0.15879 0.724515 -0.239448)
(-0.194933 0.933239 -0.313511)
(-0.193764 0.906072 -0.305661)
(-0.205869 0.925936 -0.307127)
(-0.19583 0.911542 -0.311623)
(-0.204627 0.935541 -0.306398)
(-0.0985741 0.557692 -0.214328)
(-0.179191 0.825927 -0.275505)
(-0.182047 0.840924 -0.276386)
(-0.16519 0.798419 -0.277846)
(-0.121352 0.566641 -0.220763)
(-0.201682 0.89332 -0.296795)
(-0.16454 0.764621 -0.267908)
(-0.21145 0.929778 -0.303002)
(-0.195843 0.927989 -0.309517)
(-0.142901 0.77319 -0.259172)
(-0.200006 0.91924 -0.300785)
(-0.198917 0.902606 -0.294308)
(-0.193973 0.912583 -0.301515)
(-0.16862 0.815654 -0.272563)
(-0.173725 0.920779 -0.33101)
(-0.149331 0.790499 -0.28718)
(-0.15242 0.731847 -0.270177)
(-0.142907 0.747136 -0.287939)
(-0.180041 0.926073 -0.325422)
(-0.168331 0.864896 -0.31206)
(-0.158806 0.794965 -0.309191)
(-0.150321 0.8081 -0.318957)
(-0.0978673 0.64589 -0.25807)
(-0.138885 0.764181 -0.290443)
(-0.104571 0.601858 -0.257085)
(-0.140993 0.781843 -0.28598)
(-0.146964 0.643604 -0.285939)
(-0.128194 0.562537 -0.241314)
(-0.176391 0.901043 -0.354284)
(-0.153563 0.742308 -0.321207)
(-0.175784 0.89086 -0.358611)
(-0.167407 0.810919 -0.335746)
(-0.178326 0.89474 -0.351394)
(-0.177935 0.865801 -0.347251)
(-0.171709 0.83781 -0.347872)
(-0.1001 0.580556 -0.224066)
(-0.121767 0.679606 -0.264419)
(-0.110724 0.639007 -0.258036)
(-0.184447 0.911719 -0.310491)
(-0.185731 0.92348 -0.316974)
(-0.189284 0.927362 -0.313295)
(-0.186114 0.926021 -0.318719)
(-0.178178 0.898383 -0.310005)
(-0.178284 0.901864 -0.312734)
(-0.187154 0.927589 -0.318882)
(-0.126641 0.593538 -0.210695)
(-0.132052 0.64408 -0.209716)
(-0.157389 0.748308 -0.266333)
(-0.118855 0.552982 -0.178601)
(-0.155359 0.732369 -0.251347)
(-0.113236 0.540504 -0.217539)
(-0.132483 0.553237 -0.254942)
(-0.178449 0.923348 -0.352428)
(-0.181338 0.929121 -0.347101)
(-0.178688 0.924819 -0.355893)
(-0.181134 0.930517 -0.350075)
(-0.179667 0.926051 -0.351363)
(-0.178749 0.925266 -0.345617)
(-0.179614 0.929138 -0.35036)
(-0.177724 0.886434 -0.361986)
(-0.180217 0.906266 -0.366144)
(-0.171412 0.879343 -0.308472)
(-0.174754 0.890097 -0.316374)
(-0.169405 0.869004 -0.305757)
(-0.161936 0.861369 -0.309976)
(-0.15597 0.833549 -0.301949)
(-0.148873 0.811335 -0.293953)
(-0.162294 0.859376 -0.306095)
(-0.106642 0.636659 -0.274587)
(-0.149911 0.73333 -0.304255)
(-0.167012 0.842803 -0.334277)
(-0.161351 0.801971 -0.332579)
(-0.153999 0.743415 -0.317532)
(-0.146564 0.718579 -0.311814)
(-0.159902 0.790657 -0.326765)
(-0.1025 0.640696 -0.272435)
(-0.115104 0.704811 -0.296151)
(-0.13017 0.712382 -0.230253)
(-0.11379 0.651644 -0.222191)
(-0.106245 0.637266 -0.189957)
(-0.21772 0.927898 -0.299135)
(-0.217614 0.932433 -0.303351)
(-0.216775 0.933043 -0.30385)
(-0.152889 0.763923 -0.313396)
(-0.178082 0.886617 -0.352389)
(-0.173187 0.869851 -0.341968)
(-0.173219 0.875931 -0.345868)
(-0.161168 0.753634 -0.300264)
(-0.159823 0.776032 -0.308357)
(-0.174837 0.880112 -0.341844)
(-0.108549 0.545903 -0.251977)
(-0.10783 0.557778 -0.251656)
(-0.112088 0.527445 -0.236129)
(-0.113572 0.595648 -0.257739)
(-0.0962505 0.588916 -0.267569)
(-0.142701 0.752251 -0.336176)
(-0.155197 0.814279 -0.352897)
(-0.171911 0.876713 -0.369907)
(-0.157351 0.813862 -0.359982)
(-0.17325 0.889352 -0.364211)
(-0.131407 0.717939 -0.321968)
(-0.162703 0.817166 -0.355282)
(-0.12757 0.631153 -0.309663)
(-0.155839 0.813312 -0.353676)
(-0.148603 0.785757 -0.342673)
(-0.142535 0.733556 -0.335054)
(-0.0914964 0.569123 -0.250689)
(-0.133036 0.651391 -0.208243)
(-0.100959 0.594285 -0.234774)
(-0.151872 0.747783 -0.273264)
(-0.133382 0.703546 -0.255945)
(-0.120955 0.633301 -0.237096)
(-0.140731 0.68861 -0.243515)
(-0.168928 0.824904 -0.286715)
(-0.170093 0.810167 -0.281214)
(-0.144553 0.695244 -0.281328)
(-0.139943 0.725 -0.275676)
(-0.168563 0.83846 -0.331527)
(-0.153736 0.786016 -0.304753)
(-0.140825 0.6807 -0.270664)
(-0.126092 0.625094 -0.251979)
(-0.157271 0.799884 -0.312959)
(-0.165901 0.883682 -0.309328)
(-0.146818 0.827592 -0.284204)
(-0.147041 0.816468 -0.29167)
(-0.166918 0.862974 -0.287884)
(-0.179046 0.91596 -0.313328)
(-0.18113 0.915702 -0.312769)
(-0.15572 0.835658 -0.289226)
(-0.103774 0.577756 -0.206858)
(-0.115368 0.65011 -0.230808)
(-0.105898 0.578706 -0.205837)
(-0.138905 0.718738 -0.244037)
(-0.137468 0.7869 -0.26191)
(-0.0955997 0.636456 -0.232149)
(-0.136487 0.768429 -0.27032)
(-0.13179 0.753174 -0.261724)
(-0.137081 0.557755 -0.177748)
(-0.159827 0.694799 -0.222742)
(-0.180075 0.859265 -0.292517)
(-0.159226 0.781961 -0.275773)
(-0.185439 0.881715 -0.296483)
(-0.176022 0.826699 -0.279307)
(-0.180348 0.82927 -0.279852)
(-0.181397 0.86376 -0.29619)
(-0.188684 0.916036 -0.310096)
(-0.178801 0.849011 -0.292191)
(-0.169912 0.852425 -0.296331)
(-0.166929 0.835469 -0.292359)
(-0.194034 0.926139 -0.311259)
(-0.194209 0.920949 -0.310476)
(-0.171932 0.864042 -0.295047)
(-0.216972 0.92907 -0.301636)
(-0.212833 0.903153 -0.296901)
(-0.187617 0.839586 -0.27043)
(-0.173131 0.820362 -0.270122)
(-0.221421 0.918953 -0.294966)
(-0.218783 0.932426 -0.301591)
(-0.222072 0.931081 -0.303633)
(-0.201157 0.827493 -0.280614)
(-0.20774 0.862456 -0.285475)
(-0.222246 0.927544 -0.300743)
(-0.0974955 0.631069 -0.214167)
(-0.169837 0.832589 -0.284129)
(-0.116095 0.723219 -0.253203)
(-0.174918 0.867845 -0.296053)
(-0.163368 0.820142 -0.277071)
(-0.180971 0.88236 -0.29166)
(-0.167433 0.838552 -0.280567)
(-0.116697 0.603287 -0.260312)
(-0.114082 0.607848 -0.2547)
(-0.113428 0.600611 -0.241812)
(-0.117448 0.70519 -0.260535)
(-0.108696 0.68568 -0.257717)
(-0.107787 0.662632 -0.271762)
(-0.102198 0.643896 -0.267441)
(-0.139241 0.799645 -0.290538)
(-0.0938407 0.639673 -0.23957)
(-0.121964 0.751563 -0.266269)
(-0.12427 0.731212 -0.258169)
(-0.0761686 0.582655 -0.219541)
(-0.112627 0.557813 -0.273058)
(-0.122003 0.692601 -0.244083)
(-0.108925 0.643823 -0.220446)
(-0.120528 0.7139 -0.246804)
(-0.115416 0.687352 -0.241516)
(-0.123823 0.711634 -0.249967)
(-0.161673 0.836926 -0.294034)
(-0.128703 0.744017 -0.264921)
(-0.145202 0.793642 -0.276761)
(-0.0961015 0.649241 -0.22558)
(-0.104931 0.677572 -0.242373)
(-0.121796 0.705228 -0.249559)
(-0.100918 0.631812 -0.213124)
(-0.151236 0.652751 -0.287305)
(-0.182648 0.879942 -0.358517)
(-0.164095 0.767722 -0.336754)
(-0.159331 0.695989 -0.309886)
(-0.167553 0.784535 -0.333775)
(-0.166769 0.754694 -0.328268)
(-0.147857 0.650656 -0.286516)
(-0.181042 0.885247 -0.366608)
(-0.1766 0.803813 -0.348787)
(-0.165043 0.733971 -0.309857)
(-0.158057 0.704472 -0.310797)
(-0.113112 0.58008 -0.218434)
(-0.0906031 0.600908 -0.21729)
(-0.109091 0.676643 -0.267942)
(-0.152891 0.845416 -0.328951)
(-0.170385 0.899928 -0.339138)
(-0.178269 0.925713 -0.344057)
(-0.174781 0.916487 -0.337401)
(-0.175993 0.916201 -0.347632)
(-0.176577 0.918306 -0.34766)
(-0.17497 0.915635 -0.338261)
(-0.104733 0.653223 -0.265548)
(-0.0923002 0.603445 -0.246634)
(-0.13049 0.760376 -0.290185)
(-0.137027 0.740421 -0.268298)
(-0.145971 0.782103 -0.284477)
(-0.139622 0.744313 -0.272123)
(-0.123935 0.738856 -0.28019)
(-0.10449 0.604885 -0.236012)
(-0.114966 0.716549 -0.275669)
(-0.130877 0.72883 -0.275152)
(-0.146042 0.826455 -0.318042)
(-0.174427 0.910356 -0.335659)
(-0.143252 0.802415 -0.302822)
(-0.159581 0.874144 -0.325724)
(-0.159397 0.876339 -0.325985)