/*--------------------------------*- C++ -*----------------------------------*\
| =========                 |                                                 |
| \\      /  F ield         | OpenFOAM: The Open Source CFD Toolbox           |
|  \\    /   O peration     | Version:  v1612+                                |
|   \\  /    A nd           | Web:      www.OpenFOAM.com                      |
|    \\/     M anipulation  |                                                 |
\*---------------------------------------------------------------------------*/
FoamFile
{
    version     2.0;
    format      ascii;
    class       surfaceScalarField;
    location    "200";
    object      phi;
}
// * * * * * * * * * * * * * * * * * * * * * * * * * * * * * * * * * * * * * //

dimensions      [0 3 -1 0 0 0 0];

internalField   nonuniform List<scalar> 
41553
(
-2.4982e-09
5.6812e-09
-3.19614e-09
1.31389e-11
-2.82331e-09
-1.40514e-09
5.34319e-09
-1.11477e-09
-4.75625e-09
1.70234e-09
3.79766e-09
-7.43718e-10
8.24042e-09
-6.71467e-09
1.032e-08
-1.18457e-08
1.01129e-08
-1.00108e-08
1.71775e-08
-1.72795e-08
2.95378e-09
7.75862e-09
-5.99564e-10
1.68647e-08
-4.64096e-09
-1.12178e-08
-1.00597e-09
-6.92045e-09
1.7303e-08
-9.16429e-12
-1.03734e-08
1.80391e-08
-8.09486e-09
-1.21921e-09
8.99351e-09
-1.09685e-08
3.19402e-09
9.36275e-09
-1.35441e-08
2.96205e-09
3.07702e-09
-1.17068e-08
1.76233e-08
-5.70113e-09
1.81409e-08
9.80822e-09
-3.47369e-09
-1.38376e-08
1.1939e-08
2.27796e-09
-1.561e-08
3.32124e-09
-1.71725e-08
1.48095e-08
-5.94748e-10
-9.99556e-09
-6.28855e-09
1.049e-08
1.9134e-08
6.59641e-09
-8.55299e-09
1.72359e-08
9.65675e-09
2.26665e-08
-8.08139e-09
-7.9887e-09
-9.3147e-09
1.29818e-08
1.89994e-08
1.0186e-08
-2.57892e-08
2.45165e-08
-2.64331e-09
-7.44276e-09
4.49282e-09
5.59323e-09
-1.43377e-10
-2.85851e-09
3.58547e-10
-3.33708e-09
3.90531e-10
-4.44915e-09
7.3957e-09
-4.02112e-09
5.4065e-10
6.10913e-09
-5.48313e-09
-3.48451e-09
1.31098e-09
-2.6446e-09
1.06327e-08
-5.7493e-09
-4.57719e-09
6.83396e-10
-5.5534e-10
-7.3811e-10
-7.8602e-09
5.53155e-09
-1.17528e-08
-1.66194e-08
8.91826e-09
1.32327e-08
6.52395e-09
1.10825e-08
-6.196e-09
-1.14105e-08
6.64667e-09
8.8052e-11
-2.1078e-10
1.09901e-08
-1.12791e-09
1.2203e-09
5.49969e-09
1.21371e-08
4.13252e-09
-9.33225e-10
-6.2274e-09
3.02813e-09
-5.27101e-10
1.01593e-08
3.70848e-09
3.4748e-09
-3.504e-09
-3.67927e-09
3.74636e-09
5.01694e-11
-3.02372e-09
-3.43939e-09
5.936e-09
-4.4442e-09
4.87238e-10
-4.11088e-09
4.41785e-09
-4.31104e-10
-2.04975e-10
-3.31753e-09
-4.38508e-09
3.25844e-09
-3.6322e-09
-1.16411e-10
-1.04131e-09
4.07425e-09
-9.22892e-09
-6.5927e-09
-7.62602e-10
2.31396e-09
-6.85926e-09
-2.73851e-09
7.4203e-10
-2.38856e-09
-4.05675e-09
-1.77641e-09
3.5135e-09
6.46074e-10
3.1413e-09
-7.30086e-09
2.57837e-09
2.05701e-09
-1.12188e-09
5.30444e-09
5.21427e-09
-9.87264e-09
6.17303e-09
1.70978e-09
-1.48649e-08
2.87128e-09
7.65414e-09
4.33943e-09
7.26331e-09
-1.69139e-08
1.89692e-09
4.89174e-09
-3.64735e-09
4.42065e-09
-4.66718e-10
3.83016e-09
5.21416e-09
-1.43513e-08
1.3947e-08
8.05842e-09
-1.37281e-10
-6.95066e-09
9.25192e-09
-4.49744e-09
-2.35121e-09
-6.52029e-09
8.19572e-09
6.75813e-10
-4.31322e-09
-4.03639e-09
8.19247e-09
1.57152e-10
9.98734e-10
-1.48179e-09
-3.33488e-09
2.97229e-10
-4.27434e-10
7.32815e-09
-5.61491e-09
-5.4028e-09
6.58341e-10
-2.37829e-09
5.4338e-09
-8.31443e-09
5.2588e-09
7.15422e-09
4.531e-09
-9.10263e-10
-1.07751e-08
4.19471e-09
-5.93208e-09
8.89153e-09
6.58621e-09
-1.00546e-08
7.99934e-09
-5.37399e-09
1.61548e-08
3.40076e-09
2.34343e-09
-8.12257e-09
6.31637e-09
-4.30956e-09
1.39388e-09
-2.07729e-09
-2.54361e-09
-2.36528e-10
6.20651e-10
-7.66122e-09
-7.04315e-09
9.33025e-09
-6.21577e-09
-3.52275e-09
6.83079e-09
-1.07032e-08
-4.48887e-10
8.51951e-09
1.35262e-08
2.38873e-09
-1.49812e-08
-4.76003e-10
1.30685e-08
-1.22137e-08
1.5536e-09
1.30489e-08
-2.27198e-09
-5.05949e-10
-3.04829e-09
-2.03894e-09
1.2112e-08
2.07509e-09
1.04979e-08
1.10511e-08
1.49471e-08
-6.26252e-09
-2.3809e-09
-6.30373e-09
-7.53597e-09
1.01707e-08
1.23124e-08
2.52825e-08
-8.47722e-09
-2.30678e-08
1.07409e-08
7.00569e-09
-2.62367e-09
4.67353e-09
8.12084e-09
-9.75398e-09
2.34246e-09
4.78784e-09
-5.20425e-09
-6.93064e-09
-8.58818e-09
-3.08563e-09
1.63473e-08
-1.29944e-08
1.51472e-08
5.62531e-09
-7.98844e-09
4.70553e-09
-1.20932e-08
1.46329e-08
-4.34544e-09
-1.01693e-08
2.42147e-09
-1.00498e-08
-2.28405e-09
1.13114e-08
-2.12956e-08
1.50695e-09
-5.492e-09
-2.49895e-09
-2.17843e-09
-7.9208e-09
-7.62106e-09
-4.18199e-09
3.08864e-09
-1.39016e-08
-4.90425e-09
1.57172e-08
-6.92383e-09
-2.37873e-09
1.23912e-08
1.35469e-08
-1.41295e-09
-6.93077e-09
-5.20321e-09
1.81958e-09
4.62293e-09
7.1044e-09
-5.02536e-10
-1.75308e-08
4.13175e-09
-8.69682e-09
1.27046e-09
3.80762e-09
-1.59163e-08
7.20439e-09
9.35708e-09
-7.92819e-09
-1.38009e-08
6.92364e-09
-7.97867e-09
-7.23518e-09
-8.98795e-09
7.41853e-09
-8.27951e-09
9.84894e-09
-1.48167e-09
-1.44371e-08
4.28174e-09
-8.5462e-09
-1.32663e-08
-4.21599e-09
-1.80065e-08
5.6676e-09
-8.28198e-09
-8.53359e-11
2.69973e-09
-1.13515e-08
3.51542e-09
1.35037e-08
-7.84121e-09
-4.79265e-09
1.28234e-09
-7.11994e-09
-9.00325e-09
6.06917e-09
-9.23046e-09
3.07597e-09
7.93326e-09
2.39511e-09
-1.74483e-08
-4.25082e-09
7.39143e-09
3.41939e-09
-1.06883e-08
1.33381e-08
1.52172e-08
-8.28242e-09
1.07854e-08
-1.76208e-08
-2.8073e-09
2.90443e-09
6.30835e-09
9.14369e-09
-9.45047e-09
-6.00155e-09
8.7178e-09
-5.45092e-09
3.04147e-09
-6.43016e-09
6.49261e-09
-3.32726e-09
3.26481e-09
-9.12724e-11
-5.18216e-09
-1.15671e-09
-1.45737e-09
3.04528e-10
9.87066e-09
-4.37455e-10
8.12379e-09
-6.74838e-09
-2.79337e-09
-5.98904e-09
1.10571e-10
-9.04131e-11
5.96893e-09
-6.40083e-09
1.17901e-09
-7.67164e-10
1.08714e-09
6.04514e-09
-6.8832e-09
-2.49038e-10
-6.22158e-09
9.07916e-10
-2.09994e-10
6.26517e-09
6.2687e-09
-4.37242e-09
-7.07844e-09
3.44757e-09
-5.06123e-10
-4.69711e-09
4.5977e-09
-7.05439e-11
2.84004e-09
-7.4579e-10
-8.8426e-09
1.04423e-09
-3.65511e-09
6.25926e-09
8.49343e-10
-1.24754e-09
-5.82336e-09
-4.9896e-09
-6.36575e-09
1.39418e-08
3.88239e-09
-7.86781e-09
-9.9564e-09
1.35036e-08
-4.11529e-09
4.55341e-09
9.96649e-09
-2.89013e-09
1.01586e-08
1.33115e-08
3.59286e-08
3.80937e-09
-2.77989e-08
9.78803e-09
5.95099e-09
2.01895e-08
9.52293e-09
2.07564e-09
-1.57139e-08
5.53015e-09
-1.70005e-08
7.99662e-09
7.35555e-09
-4.20682e-09
2.38139e-09
8.85374e-09
1.85575e-08
3.10023e-08
-6.62454e-09
-2.05684e-08
1.51819e-08
2.17714e-08
1.93924e-08
-1.86614e-08
1.43196e-08
4.81198e-09
2.60726e-10
4.15618e-11
1.89708e-08
9.88388e-09
1.96176e-08
1.15588e-08
2.77604e-09
2.14843e-08
3.49342e-09
4.32563e-09
-2.66481e-09
-5.15415e-09
-7.53849e-10
4.16423e-09
8.30524e-11
3.41801e-09
1.7e-09
-1.68888e-09
-3.42903e-09
2.60892e-09
5.53427e-11
4.05827e-09
1.62499e-09
-1.35759e-09
3.7366e-09
4.48583e-09
1.86268e-09
1.8743e-09
-7.06605e-13
-2.40267e-09
4.63675e-09
-3.71409e-10
-4.46203e-09
4.64314e-09
2.42782e-09
2.6541e-10
-3.02741e-09
1.37786e-09
-5.7315e-09
-2.91699e-10
2.53219e-09
-3.71935e-09
-5.88448e-10
5.93279e-09
-7.02398e-09
3.83792e-09
2.89434e-09
-3.09494e-09
-3.66359e-09
-5.43639e-09
-5.72228e-09
-1.13126e-08
1.4132e-08
2.90289e-09
-1.60705e-08
1.42326e-08
-3.88436e-09
-2.6183e-10
-1.06229e-08
-5.18573e-09
-3.91263e-09
-7.66182e-09
1.54583e-08
-2.3508e-08
1.26984e-08
-4.64866e-09
-9.81784e-09
3.7761e-09
-2.48992e-08
3.09409e-08
-3.38572e-09
8.97423e-09
8.64415e-09
2.24051e-08
-4.18782e-09
-2.80351e-08
9.74876e-09
9.27065e-09
-1.71735e-08
2.3628e-09
8.52909e-09
-1.03856e-08
1.73148e-08
-2.86129e-09
1.97442e-08
-8.3538e-09
-1.52886e-08
-4.44335e-09
1.24057e-08
-1.27622e-09
3.00251e-09
1.85186e-08
2.40818e-09
-1.407e-08
-1.44533e-08
-2.57592e-09
1.3009e-08
4.02022e-09
-1.01989e-08
3.44194e-09
-7.69635e-09
-1.89265e-08
1.47741e-08
1.57645e-09
-5.92023e-09
-1.94179e-09
-1.10645e-08
-4.15327e-09
-1.19659e-08
-6.68341e-09
-5.22459e-09
1.535e-08
-5.84845e-09
-8.33436e-09
1.2241e-08
2.65158e-09
2.43076e-09
-9.23561e-09
5.26414e-09
-9.29598e-09
-1.25396e-09
7.47198e-09
-9.49693e-10
-5.26833e-09
-7.89823e-09
3.74948e-09
9.41288e-09
-8.44203e-09
5.02433e-09
8.76861e-09
-2.83278e-09
-7.1898e-09
7.98742e-09
-1.36275e-08
-1.64428e-09
7.2844e-09
1.05682e-08
-2.13905e-10
-2.36686e-09
1.01596e-08
1.1416e-09
-1.38354e-08
2.53419e-09
6.4938e-09
8.25072e-10
3.24931e-09
1.01632e-08
6.49024e-09
-8.64346e-09
-1.20665e-08
7.07958e-09
1.36304e-08
6.49454e-10
1.54219e-10
-9.44715e-09
-9.98062e-09
1.70857e-08
-1.09053e-08
3.80019e-09
5.70944e-10
-9.90213e-09
-9.77624e-09
-1.10129e-09
4.7667e-09
6.11082e-09
-3.32095e-10
-3.28867e-09
-6.15549e-09
-3.39186e-09
1.01191e-08
-7.05931e-09
8.60077e-09
-9.36489e-10
-1.10562e-08
-1.09069e-08
-2.51433e-09
1.10938e-08
2.3274e-09
5.60768e-09
-7.91389e-09
7.49282e-09
1.11945e-10
-2.22045e-08
9.01141e-09
1.20917e-08
-6.05926e-09
-1.94339e-08
-2.13257e-09
9.74914e-09
3.47718e-09
3.40671e-09
6.83105e-11
6.56099e-09
5.69848e-09
-1.85648e-08
1.15691e-08
1.29918e-09
1.50109e-08
6.77976e-09
1.65192e-08
-1.42876e-08
1.0599e-08
-8.24047e-10
-6.36828e-09
1.86779e-08
5.39812e-09
1.04565e-09
-5.22054e-10
-5.92172e-09
6.66139e-09
1.65497e-09
-2.91822e-09
2.07264e-09
2.60494e-09
1.98382e-09
3.38417e-09
-1.46142e-09
-2.67752e-10
-7.76781e-10
-7.08048e-09
8.90293e-09
2.63837e-09
2.81844e-09
2.98122e-09
2.11191e-11
-3.52437e-09
1.89136e-09
-3.71547e-10
9.15555e-10
-4.56619e-09
3.67176e-09
-3.16782e-09
5.09958e-09
7.06609e-10
3.01615e-09
9.00352e-10
4.55546e-10
-4.37205e-09
3.29453e-09
-3.4462e-09
6.30253e-09
-6.16376e-09
1.90375e-09
5.29915e-09
4.47111e-09
1.43464e-10
1.64722e-09
-6.26182e-09
3.30502e-09
1.69126e-09
-1.09144e-08
5.91811e-09
4.63148e-09
-5.70436e-09
4.37786e-09
-5.15877e-09
3.90262e-09
5.72724e-09
1.23877e-09
-7.75497e-09
1.35739e-09
-1.44867e-09
1.0364e-08
-5.01273e-09
-4.66571e-09
-1.88396e-09
-3.43365e-11
6.58393e-09
-7.67846e-09
7.64422e-09
-1.17109e-08
6.75167e-09
1.25209e-08
-7.56173e-09
-5.76289e-09
-1.26799e-08
6.73188e-09
6.0048e-09
-1.00764e-08
5.04869e-09
1.09955e-09
1.03517e-08
-2.25476e-09
1.03931e-08
-1.03126e-09
-7.1071e-09
7.80293e-09
-1.55871e-09
-8.49897e-09
4.8443e-09
3.93743e-09
-9.78812e-10
7.88241e-09
7.355e-09
8.15439e-09
-1.09953e-09
-3.11745e-09
-3.68743e-10
1.09688e-09
7.42624e-09
-1.86722e-09
5.52617e-09
-4.6902e-09
8.69698e-10
2.3854e-09
-4.81381e-09
3.14898e-09
-4.14651e-09
-6.53872e-09
5.1282e-10
5.65712e-09
-4.05221e-09
-3.58604e-09
4.98086e-10
8.4812e-09
-1.50915e-09
5.72714e-09
1.30818e-09
2.80395e-09
-4.47076e-09
3.0601e-09
1.75762e-10
-4.3193e-10
2.10675e-09
-4.66919e-10
5.16711e-10
3.05621e-09
-2.75123e-10
6.50034e-09
2.58473e-09
-3.02224e-10
2.82632e-09
-1.90157e-09
1.17308e-08
2.1182e-08
-3.10113e-08
1.02704e-08
1.9135e-08
-3.1307e-08
7.57697e-09
1.7522e-08
-1.33683e-08
1.79395e-08
1.15572e-08
-8.31471e-09
-1.43692e-09
1.62941e-08
-1.72415e-08
2.38433e-09
-2.33967e-08
2.10861e-08
8.73624e-10
8.76952e-09
2.21866e-08
-2.06857e-08
-7.05017e-09
7.4139e-09
-5.54332e-09
1.92155e-08
2.31002e-08
6.07763e-10
-7.96363e-09
-1.55114e-09
2.74543e-08
2.02844e-08
-9.11303e-09
2.41665e-08
4.91272e-09
6.65698e-09
-1.7119e-09
1.20244e-08
6.59877e-09
4.35349e-09
2.25879e-08
6.58647e-09
-1.56648e-08
2.75997e-09
6.31842e-09
-1.58618e-08
1.66273e-08
5.82097e-09
8.93253e-11
2.82075e-09
4.0308e-09
-6.94085e-09
3.32258e-09
3.96371e-09
-7.19696e-09
2.06847e-09
6.15955e-09
-5.40729e-09
-2.76665e-09
-5.16935e-09
1.00044e-08
5.7791e-09
-5.22317e-09
5.94349e-10
7.18979e-09
-3.82041e-09
6.73649e-09
-2.11132e-09
-3.4241e-09
-6.65855e-09
-1.18991e-08
-5.27506e-09
-5.45454e-09
9.0729e-09
1.65669e-09
1.81917e-09
4.23168e-09
1.08665e-10
-7.91972e-09
5.40463e-09
-4.10712e-09
4.71757e-10
-5.29034e-09
2.0659e-08
-1.77804e-08
-1.18914e-08
9.01285e-09
-9.68751e-09
2.61821e-08
4.16438e-09
2.03689e-08
-3.92119e-09
4.13437e-09
-2.05822e-08
7.85507e-09
2.82634e-09
-8.85821e-10
-2.08158e-08
3.3337e-09
3.24808e-08
-9.63246e-09
1.83186e-08
-1.46678e-08
4.83573e-10
1.60329e-08
1.01408e-08
-2.98195e-08
1.64669e-08
5.92e-09
7.43264e-09
-2.16066e-09
5.40579e-09
-3.30647e-08
1.59881e-08
-1.90346e-08
2.09136e-08
1.15414e-08
2.80509e-08
-1.93087e-08
1.21714e-08
2.99485e-09
1.95952e-08
5.46077e-09
1.66118e-08
6.29538e-09
-6.87424e-09
-2.96877e-08
2.27455e-08
1.28621e-08
-2.789e-08
3.60809e-09
-5.32006e-09
2.52655e-08
1.98149e-08
1.72261e-08
-1.42954e-08
1.74897e-08
-1.82442e-09
7.10726e-09
-1.23422e-08
-8.36725e-09
-1.17877e-08
4.92481e-09
1.52301e-08
-4.60124e-11
-2.21048e-09
-8.64393e-09
-3.18981e-09
6.27053e-09
-1.42505e-08
-8.93667e-09
6.6427e-09
2.40584e-09
3.5639e-09
-5.39333e-09
3.59165e-09
-5.96511e-09
-8.93601e-09
6.51212e-09
9.06652e-09
-1.78048e-09
1.71354e-08
2.90679e-08
-3.7101e-08
1.25722e-08
-4.53908e-09
-1.74813e-09
1.0604e-08
2.02119e-08
-2.51758e-08
7.83781e-09
1.55898e-08
-5.99024e-09
-6.0071e-09
-1.31784e-08
-1.97926e-08
2.18786e-08
-1.44687e-08
1.23827e-08
-1.31045e-08
-1.26783e-08
-1.55242e-08
-2.75839e-08
-1.86608e-08
3.87486e-09
2.53898e-08
-1.73037e-08
1.12151e-08
8.90941e-09
2.0807e-08
6.09467e-09
-9.9487e-09
-9.25041e-09
-6.25468e-09
-2.11938e-09
-1.29663e-08
4.37916e-09
1.80735e-08
-9.4864e-09
-2.0491e-09
-2.08658e-08
7.39793e-09
1.69724e-08
-9.7238e-09
-1.46465e-08
1.77931e-08
-6.01603e-09
3.13864e-08
-2.05118e-09
-1.23628e-08
2.7259e-09
1.13568e-08
-1.35667e-08
2.6351e-08
1.54125e-08
-3.59362e-09
8.52344e-09
-2.02963e-08
-9.05196e-09
1.18881e-08
8.63095e-09
1.37339e-08
-5.98259e-09
4.75183e-09
-5.61865e-09
6.84937e-09
-5.09425e-09
-1.46857e-09
5.80259e-10
-4.32544e-09
-8.713e-09
7.94417e-09
-1.73522e-08
9.40932e-09
-4.8475e-09
1.27904e-08
5.25698e-09
-8.55254e-09
-1.40566e-08
5.41143e-09
-4.29002e-09
-6.66704e-09
5.54563e-09
2.15226e-09
-2.33547e-10
3.49281e-09
8.57199e-09
-1.91691e-10
-3.12333e-09
4.24953e-09
1.37317e-08
-1.15877e-08
2.97222e-09
2.51591e-09
-1.10269e-08
3.66345e-09
6.5632e-11
5.60187e-09
-1.41806e-09
7.75386e-09
-1.97812e-09
-5.71012e-09
2.45417e-08
1.36506e-08
-1.01408e-08
1.94552e-08
-1.65772e-08
2.16636e-08
4.69158e-09
-3.62702e-10
1.51262e-08
-1.80266e-08
2.22122e-08
7.56464e-09
5.76293e-09
6.13212e-09
-1.37585e-08
1.03475e-08
9.71721e-09
1.13132e-08
-4.33242e-09
1.17658e-09
-8.15724e-09
-5.92686e-10
2.45113e-09
9.45474e-09
-2.88076e-09
3.80929e-09
6.36372e-09
-7.29224e-09
1.83573e-09
5.44282e-09
7.01541e-09
-9.51209e-09
1.09967e-08
-6.01078e-09
-1.39955e-09
2.36773e-10
7.52648e-09
-1.42724e-09
5.47051e-09
-8.32952e-09
6.48999e-09
1.24685e-09
4.5895e-09
-5.9036e-09
1.49074e-09
8.79304e-09
7.12978e-10
-8.96426e-10
9.51978e-10
-6.56982e-09
6.51425e-09
-3.92519e-10
5.63032e-09
-6.13422e-09
-4.20536e-09
6.00692e-09
4.68847e-09
1.59677e-11
3.68191e-10
-1.64258e-09
4.006e-10
-5.67062e-09
3.52286e-10
5.23815e-09
1.49979e-08
-4.717e-09
-1.5519e-08
1.08201e-08
-1.42872e-09
-4.15318e-09
-5.95452e-09
8.44843e-09
8.3262e-09
8.19554e-09
8.47787e-10
4.79227e-09
5.04701e-09
-1.45562e-08
6.99209e-09
-3.62853e-09
-4.51801e-09
1.03292e-08
2.38431e-09
1.17637e-08
-1.59456e-08
-4.16479e-09
-8.40064e-09
6.64043e-09
9.9763e-10
-3.18496e-09
1.26165e-08
-1.06696e-09
4.82568e-09
-1.88808e-09
-8.68567e-09
5.74809e-09
1.05669e-09
5.06248e-09
-1.29347e-09
-3.42302e-09
5.70293e-09
-1.22325e-09
1.86364e-09
1.26197e-08
-1.12888e-08
-3.19459e-09
6.72145e-09
-1.29335e-09
-3.65624e-10
4.50155e-09
4.14606e-09
-1.05357e-08
5.98718e-09
-4.90865e-09
-7.54141e-10
5.06664e-09
1.39043e-09
-6.06644e-11
8.64575e-09
-8.49636e-09
-2.33261e-10
6.62183e-09
2.1078e-09
-6.46718e-09
2.75866e-09
9.69243e-09
-7.46027e-09
2.28434e-09
-4.5165e-09
1.77462e-09
7.68456e-09
4.52434e-09
7.08684e-10
-1.37717e-09
6.38316e-09
-9.7814e-09
-7.96773e-09
8.36519e-09
-1.15905e-09
2.06736e-09
-3.21017e-09
1.36907e-08
-1.25479e-08
-2.02318e-09
1.92527e-08
-1.51622e-08
-5.15988e-09
1.85805e-08
6.19698e-09
-1.46768e-09
1.47475e-08
-1.649e-08
4.43641e-10
5.28857e-09
-7.19992e-09
-5.71529e-09
-6.37736e-09
9.31468e-09
2.77801e-09
-2.82936e-09
-1.79078e-08
1.50219e-08
-1.36897e-08
-2.72801e-09
1.43945e-08
1.05863e-08
-3.22208e-09
-1.25241e-08
-7.01294e-09
3.90945e-09
-8.16287e-09
5.87849e-09
1.05758e-08
-4.59998e-09
9.82402e-10
-7.92575e-09
1.2698e-09
5.67353e-09
-2.91455e-09
-4.64158e-09
1.36042e-08
-6.04808e-09
-6.00757e-09
-5.74916e-09
8.84206e-09
-6.54272e-09
1.51753e-09
-4.37568e-09
1.21907e-11
-5.36297e-09
9.72646e-09
-9.18071e-09
-3.12073e-09
-7.64492e-09
-4.51298e-09
7.51627e-09
5.01357e-09
-4.37051e-09
-7.18587e-09
-3.21657e-09
2.48091e-09
-2.97272e-09
-4.66001e-09
4.87095e-09
-4.63264e-09
-3.21109e-09
-1.11361e-08
8.40632e-09
7.60064e-09
-1.47307e-08
-1.03801e-09
6.76738e-10
7.32217e-09
-4.59506e-09
1.4672e-08
-1.73991e-08
6.43293e-10
2.36697e-08
-1.69909e-08
-3.44027e-09
6.23269e-09
1.77918e-08
-2.05842e-08
-2.0863e-08
1.28276e-08
2.27334e-08
-1.58574e-08
-9.84687e-10
9.35469e-09
6.30201e-09
1.45902e-08
1.63991e-08
1.5469e-09
1.36311e-08
7.89104e-09
1.21118e-09
1.23685e-08
1.58529e-08
-1.40671e-08
3.83107e-09
1.34707e-08
-3.2346e-09
1.0223e-08
-4.36886e-09
1.19653e-08
6.06951e-10
-3.21759e-09
1.20663e-08
-4.46987e-09
2.92675e-10
8.74593e-10
-1.22396e-08
1.10723e-08
8.74086e-10
-1.02153e-08
9.63393e-09
-3.12814e-10
-1.88815e-10
-6.91454e-09
7.41621e-09
-7.55903e-09
8.12026e-09
-1.10094e-08
1.16951e-08
1.282e-09
-1.79524e-09
-1.17263e-08
-3.52317e-09
-9.40911e-09
5.37324e-09
-1.11427e-08
7.04985e-10
-6.28545e-09
-6.79363e-09
3.66998e-09
7.35059e-09
-1.02769e-08
-3.35913e-09
-8.09249e-09
3.58368e-09
-5.70657e-09
-1.35164e-08
-1.36963e-09
1.72786e-09
1.51226e-09
-1.67566e-08
6.75264e-10
-1.04027e-08
1.65696e-10
-3.95778e-09
1.97623e-09
-1.05253e-08
1.00541e-09
1.17399e-08
-1.12331e-08
-6.47154e-09
9.45317e-09
5.33111e-09
9.37623e-10
-1.1662e-08
2.52383e-09
7.07979e-09
-4.27252e-09
3.96287e-09
4.40462e-09
-7.42988e-09
6.47095e-09
1.56883e-11
2.91925e-09
6.56635e-09
-9.02076e-09
-3.14535e-09
7.93968e-09
4.22624e-09
5.62167e-09
-8.17159e-09
4.42709e-10
2.03345e-09
8.95295e-09
-6.32886e-09
-5.17275e-09
1.50688e-08
-8.29705e-10
4.22287e-09
-1.37707e-08
-1.71672e-08
1.78166e-08
-6.64707e-09
-8.57392e-10
-6.26628e-09
-2.70967e-09
-9.85112e-09
3.80439e-09
1.56769e-08
-6.46197e-09
-1.5862e-08
8.94047e-10
1.11171e-08
-7.15697e-09
4.12006e-09
-8.08022e-09
-3.60235e-10
-9.78982e-09
-1.16418e-09
-5.35915e-09
-5.34937e-09
2.13165e-09
-1.57506e-08
-6.65142e-09
9.81667e-10
-9.87893e-09
8.19588e-09
-3.5901e-09
-2.06002e-09
-2.5458e-09
4.37885e-09
7.54352e-09
-3.72653e-09
-6.18239e-09
-2.95932e-09
5.55155e-09
6.23183e-09
-4.44648e-09
-3.25275e-09
1.46718e-09
3.69468e-09
1.57094e-09
9.66104e-10
1.2527e-09
8.46465e-09
-5.33851e-09
-4.36464e-09
-6.26424e-09
8.65578e-09
-8.05047e-09
4.58174e-10
-1.0636e-09
2.9045e-09
9.87417e-09
-4.12291e-09
3.67382e-09
-3.02643e-09
-7.66708e-09
7.01969e-09
9.93565e-09
-5.77848e-09
-6.02562e-09
-6.66902e-09
4.64411e-09
-1.31056e-08
5.81009e-09
3.02975e-09
4.2657e-09
9.45718e-11
-9.52633e-09
9.32887e-10
-8.32398e-09
-3.15093e-09
-7.99552e-09
1.12409e-08
-8.24369e-09
-4.88185e-09
-4.81394e-09
4.66058e-09
5.03518e-09
-5.95556e-09
5.85527e-10
4.88162e-10
-7.63161e-09
1.0284e-09
1.78927e-09
-1.32564e-09
-7.76814e-09
1.46215e-09
-7.32717e-09
4.59598e-11
9.78777e-10
-8.25677e-09
4.79631e-09
2.48162e-09
-6.85577e-09
5.55915e-09
2.2754e-09
-4.25525e-09
-6.21495e-09
4.8572e-09
5.61299e-09
-3.97071e-09
3.00983e-10
-9.51729e-09
3.68989e-09
5.82053e-09
-3.40018e-09
-9.74753e-09
2.46927e-09
-4.41689e-09
-8.07578e-09
1.07077e-08
-1.08886e-08
7.48307e-10
-3.7507e-09
-5.07339e-09
2.91398e-09
-3.48412e-09
-3.40055e-09
-2.55269e-09
-2.67072e-09
-4.37731e-09
-7.85133e-09
9.67025e-10
1.01697e-08
4.90571e-10
-1.41983e-08
3.53801e-09
-8.53179e-09
2.58761e-09
1.61138e-08
3.29956e-09
4.28103e-09
-1.42331e-08
6.65251e-09
-1.88452e-08
1.3613e-08
6.14866e-09
-8.86128e-09
3.20316e-09
-3.84219e-09
1.25784e-08
-9.09826e-09
-8.52118e-09
1.37772e-08
-1.11308e-08
6.3136e-09
-4.16895e-09
-2.03556e-10
-1.44727e-08
-2.77334e-09
-1.56287e-08
-9.40283e-09
1.05832e-09
-1.76688e-10
-8.21085e-09
-1.23228e-08
-3.35707e-09
-1.10448e-08
-7.86893e-09
6.59594e-11
2.15587e-09
-1.31401e-08
-9.07014e-09
5.01296e-09
1.34416e-08
3.7576e-09
7.75958e-09
-2.01457e-08
-1.28455e-08
4.3791e-10
4.39315e-09
8.01437e-09
-1.18715e-08
-1.10134e-08
1.00393e-08
9.98005e-09
-1.50654e-08
5.52318e-09
-1.26992e-08
9.86954e-09
1.28097e-08
-1.26202e-08
-3.10274e-09
3.02367e-09
-1.89666e-08
-8.71896e-09
-3.94687e-09
-4.95461e-09
-1.00651e-08
1.85708e-08
-1.47581e-08
-1.47671e-08
1.23721e-08
3.09603e-09
-7.14014e-09
1.15339e-08
1.30224e-08
-9.93138e-09
1.38904e-10
-3.23002e-09
6.32474e-09
2.07344e-09
4.62421e-09
7.36243e-09
1.0022e-08
-1.10597e-08
-1.11464e-09
-8.13904e-09
3.31384e-09
5.93978e-09
-6.49134e-09
5.42678e-09
1.29195e-09
-2.27382e-10
-5.62554e-09
6.57325e-09
-7.43909e-09
3.98128e-09
8.55865e-09
-1.03249e-08
-2.21505e-09
5.07292e-09
4.62312e-09
-7.62262e-09
-1.0199e-08
3.45884e-09
-9.21964e-09
8.43778e-09
6.20863e-09
-5.38172e-09
2.73532e-09
2.12563e-10
1.11311e-08
3.04134e-09
8.89171e-09
-3.4953e-09
8.32681e-09
2.96657e-09
6.19668e-09
-6.92873e-09
-2.23456e-09
9.97396e-10
7.00883e-09
-5.11464e-09
-2.8916e-09
8.45409e-09
-4.49016e-09
2.34472e-09
3.6157e-09
2.36206e-10
2.54564e-10
4.49824e-09
1.15936e-09
-5.9121e-09
5.10801e-09
1.92537e-09
-6.77879e-09
6.57702e-09
4.22177e-09
-1.12292e-08
8.64204e-10
-2.28077e-10
1.05931e-08
1.63656e-09
-5.85697e-09
3.77078e-10
5.02886e-09
-2.97935e-10
3.84545e-09
1.47314e-10
1.91554e-10
7.24965e-09
-8.05103e-09
3.93097e-10
-1.91622e-09
-1.95992e-10
4.23299e-09
5.22596e-09
9.90606e-10
1.8997e-08
-8.0478e-09
-1.19398e-08
-1.46993e-08
3.07444e-09
6.94176e-09
4.68309e-09
-6.46073e-09
-1.48967e-08
6.65816e-09
1.98773e-08
-2.75224e-09
1.10213e-08
8.62325e-09
2.5411e-09
8.71298e-09
-5.45624e-09
1.46936e-08
-8.24672e-09
-8.82722e-09
6.44542e-09
4.13879e-09
-3.77693e-09
-6.8226e-09
-4.41461e-09
-2.73823e-10
8.66504e-09
-1.91926e-09
6.1697e-09
-1.63892e-09
-7.69363e-09
2.3917e-09
-6.03399e-09
4.15278e-09
2.42293e-10
-1.62248e-09
8.66628e-10
-6.93777e-09
-5.15011e-10
-7.14145e-09
-1.2334e-08
4.50374e-09
6.33355e-10
-1.30421e-09
-1.09588e-08
8.49387e-09
6.96868e-09
-1.58195e-09
-1.0681e-08
-9.51009e-10
8.99197e-09
-9.62288e-09
6.51302e-09
-7.97906e-09
-2.07382e-09
8.19292e-10
-3.89391e-09
7.051e-09
5.83486e-09
5.45289e-10
3.15936e-09
1.11323e-10
5.04102e-09
-5.73148e-09
-3.8783e-09
1.47068e-09
-7.14209e-09
-1.89003e-09
3.30062e-09
4.30999e-09
-5.08541e-09
1.87362e-09
-1.44195e-09
-3.25015e-09
-1.72297e-09
6.4438e-09
5.03221e-11
8.09385e-09
-3.8594e-09
6.67611e-09
5.00139e-09
-4.3907e-09
-7.28679e-09
7.44301e-09
1.32061e-09
-2.08752e-09
-2.28701e-09
2.30452e-09
7.42548e-09
3.16131e-09
-4.46926e-10
-5.51097e-09
8.0072e-10
5.94427e-09
-1.23403e-09
5.92884e-11
-2.40894e-09
1.5637e-09
2.49379e-09
-8.44819e-09
-3.59801e-09
1.67568e-09
-4.44133e-09
6.36365e-09
-8.27729e-09
6.24298e-09
7.22477e-09
-6.02118e-09
-4.02878e-10
-7.61595e-09
9.15597e-09
-2.19421e-10
1.85387e-09
-6.97602e-09
8.36189e-09
1.01042e-10
6.93025e-10
-5.21169e-09
8.74124e-09
-3.52422e-09
-1.99079e-09
5.82665e-09
-3.11638e-10
-7.70225e-09
1.26007e-10
2.81771e-09
4.75857e-09
-5.83283e-09
-5.39364e-09
-3.0758e-09
-5.33313e-09
2.96322e-09
5.4457e-09
-4.59783e-09
-4.68764e-10
2.91201e-09
2.19212e-09
-1.5753e-09
-3.52883e-09
-1.6355e-09
-5.03229e-11
-5.94821e-09
-7.21263e-09
1.10377e-08
2.12319e-09
-9.02258e-09
3.20038e-09
2.14527e-10
-3.85523e-09
-6.74313e-09
7.26486e-09
-2.15724e-09
-1.03158e-08
1.99742e-09
-5.75965e-09
-3.04841e-09
2.39785e-10
1.69195e-09
3.2836e-09
-1.02564e-08
-3.64336e-09
9.62821e-09
-9.36232e-09
3.37748e-09
-8.02703e-09
4.88479e-09
-5.01127e-10
4.24563e-09
-3.73999e-09
9.12259e-09
-6.91123e-09
6.3084e-10
1.0526e-08
-1.03041e-08
1.12523e-08
-9.81266e-09
8.86453e-09
3.61144e-10
-5.92512e-09
-4.7401e-09
-5.04228e-09
-3.95889e-09
-4.84111e-09
-8.22819e-09
3.03803e-09
4.47424e-09
-2.16568e-09
1.39241e-10
5.74413e-09
-1.28616e-08
1.01556e-08
-1.05348e-08
1.69097e-08
-1.22373e-08
4.3275e-09
-1.90281e-09
-4.9329e-09
-1.32296e-08
8.59622e-10
7.36615e-09
-1.31587e-08
6.05342e-09
-1.00349e-08
3.3298e-09
6.63599e-09
-3.91238e-09
8.75208e-09
-3.58229e-09
-1.83999e-09
-4.53189e-09
8.75915e-09
4.52481e-09
-6.15688e-11
-1.34429e-09
-4.313e-10
-1.13853e-08
-2.82063e-09
8.27031e-09
-4.48644e-09
1.21257e-09
-1.31141e-09
-3.52262e-09
1.09494e-08
-6.11528e-09
8.92288e-09
-3.975e-09
6.92062e-09
3.90564e-11
9.17154e-09
-1.61312e-08
9.66262e-09
-6.26461e-09
-8.30331e-09
-1.13259e-09
-5.77227e-09
1.52081e-08
1.02903e-08
-5.93472e-09
-1.2659e-08
2.02151e-09
2.08273e-09
6.18606e-09
1.87855e-09
5.75408e-09
3.3168e-09
5.94049e-09
4.86096e-09
-1.43573e-08
1.31702e-08
-7.29728e-09
8.48432e-09
-8.91031e-09
-6.57953e-09
-9.83763e-09
1.38435e-08
5.65677e-09
-9.57641e-09
7.57147e-10
2.18268e-08
-9.41371e-09
5.28788e-09
2.67414e-09
8.76747e-09
-2.22128e-09
-7.76236e-09
1.38074e-08
6.75918e-09
1.24645e-09
-1.2627e-08
5.12467e-09
6.25581e-09
-7.36883e-09
4.01275e-09
4.6025e-09
-1.03142e-08
-2.51646e-09
5.46184e-09
1.00483e-10
-5.87491e-09
-4.5398e-09
-1.45995e-08
-1.17136e-08
1.36861e-08
-9.36631e-09
-5.13274e-09
4.5447e-09
-3.95265e-09
-6.46696e-09
1.11296e-08
-9.56551e-10
-5.62831e-09
3.69281e-09
4.92029e-09
-1.05298e-08
6.46465e-10
1.62e-09
8.26334e-09
-5.18088e-09
-6.3055e-09
-5.39789e-09
-9.57828e-09
1.10439e-08
3.93221e-09
-8.07599e-09
-1.47804e-09
4.15609e-09
1.09708e-09
-1.00597e-08
8.86595e-10
-1.04125e-08
1.93129e-09
-9.86081e-09
3.01827e-09
-4.87103e-09
-4.17564e-09
-1.50515e-08
-5.89453e-09
5.36099e-09
1.17998e-09
-1.591e-09
-9.48441e-09
-9.7193e-09
1.33514e-09
2.4143e-09
-5.22754e-09
2.73615e-09
-7.43483e-09
-4.65806e-09
1.24298e-09
-7.46462e-09
-2.39962e-10
6.46152e-09
7.84768e-09
-8.23305e-09
1.62838e-09
-4.27804e-09
1.1528e-08
5.9767e-10
-4.03345e-09
-1.05679e-08
9.26192e-09
5.33925e-09
-5.7502e-09
4.36738e-09
-2.65074e-09
-6.95379e-09
1.80052e-09
-5.41473e-09
-3.15655e-10
-1.23883e-08
-1.70059e-09
-1.39665e-09
1.47152e-09
-8.32799e-09
-1.3766e-09
1.08714e-09
-3.89366e-09
7.79436e-09
-2.17773e-09
3.64525e-09
5.0061e-09
-1.1876e-08
6.55419e-09
-5.0225e-09
-4.77075e-09
1.35508e-08
-6.97957e-09
1.08858e-08
-6.00779e-09
2.73655e-09
-7.61451e-09
2.6235e-09
6.88484e-09
1.37741e-09
-6.73893e-09
3.65828e-09
5.88318e-09
-2.80253e-09
-1.70128e-09
-4.69086e-09
-3.46792e-10
5.17177e-09
1.1268e-08
-1.38163e-08
1.43061e-08
-1.91984e-08
7.28672e-09
-2.39446e-09
1.56522e-08
-6.25516e-09
4.90909e-09
1.33029e-09
1.94937e-08
1.53397e-09
9.7336e-09
-7.6093e-09
-6.48119e-09
6.67407e-09
7.45165e-09
-7.64452e-09
-3.68642e-09
5.02318e-09
-7.81791e-09
-7.97579e-09
1.084e-08
-1.06809e-08
-3.5501e-09
1.12923e-09
-6.79608e-10
6.22445e-09
3.25675e-09
-1.26358e-08
5.69264e-09
1.12077e-08
9.10765e-09
-1.70586e-08
9.08898e-09
-1.70797e-08
-4.43991e-10
1.83756e-08
1.09688e-09
-5.34132e-09
-1.41312e-08
1.43352e-09
3.10798e-09
1.38341e-08
-1.74135e-08
4.4055e-09
1.44416e-08
-4.47191e-09
-1.18447e-08
3.88956e-09
4.23764e-09
-3.83093e-10
-7.74407e-09
7.86659e-09
-8.44892e-09
5.49948e-09
-2.96364e-09
-7.87716e-09
2.29718e-09
-7.02567e-09
2.75511e-09
1.97338e-09
-5.39441e-09
3.92721e-09
3.7644e-09
2.26169e-09
4.16859e-09
-2.1926e-09
1.05674e-08
-4.39078e-10
-7.69308e-09
9.53097e-09
1.2701e-09
-3.17311e-09
9.79533e-10
3.51971e-09
-6.86645e-09
1.96022e-09
-4.81727e-09
-1.86874e-09
-1.56545e-09
-2.81018e-09
4.39852e-09
1.16681e-09
1.21627e-08
-1.52215e-09
-4.07249e-09
4.33011e-09
3.19474e-09
-3.45245e-09
4.08552e-09
-1.03458e-08
2.18773e-09
7.21773e-10
-5.04653e-09
4.16516e-09
1.59518e-10
3.64738e-09
3.71566e-09
7.86027e-11
-7.44169e-09
7.9049e-10
-3.45567e-09
-4.29728e-09
6.96244e-09
-5.25881e-09
9.69663e-09
-4.48519e-09
-2.87928e-09
8.7348e-10
6.49087e-09
-8.04875e-09
-3.73042e-10
1.42464e-09
-2.63919e-09
1.58739e-09
2.52957e-09
1.78644e-09
-2.30492e-10
-5.60458e-09
9.82327e-10
-5.72358e-09
-2.94029e-11
-5.00541e-09
4.7389e-09
2.95897e-10
5.93024e-09
9.92717e-10
-6.20123e-09
2.55312e-09
-2.24971e-09
-1.79574e-09
1.16617e-09
-8.288e-09
-2.01049e-09
3.0873e-09
4.34943e-10
4.2832e-10
-4.00508e-09
3.2464e-09
3.30197e-10
-1.6642e-09
3.2806e-09
1.69918e-10
2.1613e-09
-6.85024e-09
-8.87944e-09
-1.08638e-08
4.01345e-09
-1.63534e-09
-1.50473e-09
2.71904e-09
6.34785e-09
-5.88081e-09
-3.18608e-09
5.03818e-09
-2.8278e-09
5.08666e-10
5.86595e-09
3.16232e-09
-2.68041e-09
1.50444e-09
9.39968e-09
1.04178e-09
2.29127e-09
2.05882e-09
-5.39189e-09
2.59349e-09
1.9925e-09
-3.54422e-09
-4.04725e-09
-6.70687e-09
4.87331e-09
-7.31543e-10
4.44985e-09
-1.12482e-09
-2.48753e-09
6.21778e-09
-5.02655e-09
3.87336e-10
-1.57856e-09
3.59493e-09
-6.91924e-09
9.54208e-09
-1.19879e-09
-1.51016e-09
2.79793e-09
-8.90223e-11
-4.78504e-09
5.64179e-09
-2.05555e-09
1.74249e-10
5.26915e-09
-3.38459e-09
-2.61829e-09
1.11887e-10
-3.14045e-09
8.23981e-09
5.0176e-09
-1.3234e-09
1.94757e-09
4.67508e-09
9.72624e-09
-9.48366e-09
1.4836e-09
-3.19643e-09
-1.08417e-08
3.33281e-10
1.37047e-08
-1.57196e-08
-3.98629e-09
1.65093e-08
-1.10067e-08
5.51927e-09
-1.02323e-08
6.1718e-09
-1.86903e-08
7.25525e-09
5.26309e-09
-8.56853e-09
-1.19887e-08
2.29588e-08
-2.40168e-09
-1.85329e-08
1.61361e-08
-1.898e-08
-1.31483e-08
2.01395e-08
-1.97467e-08
4.74507e-09
-3.97838e-09
1.68505e-08
-4.92119e-09
-2.2936e-08
9.60305e-10
5.04846e-09
1.84722e-08
-1.43364e-08
-2.38825e-08
6.28417e-09
-6.96912e-09
-6.20199e-09
-1.35099e-08
-2.77999e-10
8.43926e-09
-2.76969e-08
-1.20398e-08
9.82847e-09
-9.36294e-10
-8.40037e-09
-4.9181e-10
-1.4325e-09
-1.92348e-09
1.31844e-08
-1.06443e-08
-4.13484e-09
1.33467e-08
-1.06683e-09
-1.05137e-08
-8.15801e-09
1.09496e-08
5.47341e-09
-8.26494e-09
-6.73336e-09
6.93538e-10
-2.11818e-09
4.99288e-10
2.34147e-09
-9.57409e-09
-8.89491e-09
-2.43299e-09
9.40439e-09
-2.9747e-11
6.84444e-09
6.35718e-09
2.1403e-09
-7.99821e-09
1.0786e-09
-8.12455e-09
9.38742e-09
-6.20171e-09
8.3102e-09
-1.41497e-09
8.00206e-09
-7.84662e-09
7.55699e-09
-8.14004e-09
-7.81734e-09
-1.86771e-09
5.29747e-10
-7.5593e-09
5.09651e-09
-4.92114e-09
-5.98143e-09
6.73229e-09
1.52929e-10
-7.26538e-09
-7.56242e-09
6.59745e-09
8.23035e-09
-3.25969e-09
-3.99331e-09
-1.23917e-11
-5.77936e-09
-3.6793e-09
3.49948e-09
5.95917e-09
-3.41781e-09
-2.30484e-09
-5.67179e-11
6.47899e-09
2.6783e-10
3.75502e-10
-7.12233e-09
-1.98497e-10
1.29897e-08