/*--------------------------------*- C++ -*----------------------------------*\
| =========                 |                                                 |
| \\      /  F ield         | OpenFOAM: The Open Source CFD Toolbox           |
|  \\    /   O peration     | Version:  v1612+                                |
|   \\  /    A nd           | Web:      www.OpenFOAM.com                      |
|    \\/     M anipulation  |                                                 |
\*---------------------------------------------------------------------------*/
FoamFile
{
    version     2.0;
    format      ascii;
    class       volVectorField;
    location    "200";
    object      wallShearStress;
}
// * * * * * * * * * * * * * * * * * * * * * * * * * * * * * * * * * * * * * //

dimensions      [0 2 -2 0 0 0 0];

internalField   uniform (0 0 0);

boundaryField
{
    WALL
    {
        type            calculated;
        value           nonuniform List<vector> 
1656
(
(0.00800421 0.0044795 0.0162561)
(0.010442 0.00419714 0.0185502)
(0.00129163 -0.00438982 0.0115475)
(0.00153483 -0.00459359 0.0112868)
(0.00695042 -0.00605004 0.0030612)
(0.00629703 -0.00629987 0.00449869)
(0.0184835 -0.0102232 0.0152938)
(0.0125355 -0.00108629 0.0159259)
(0.0137845 -0.00123336 0.0170079)
(0.0157187 -0.00375071 0.0150367)
(0.0139078 -0.00244871 0.0146892)
(0.00516662 0.00544646 0.0129616)
(0.00389666 0.00543653 0.0128759)
(0.00622317 0.00632958 0.0145714)
(0.00503128 0.00516354 0.0139642)
(0.00487806 -0.00586666 0.0110224)
(0.00742619 -0.00440633 0.00327654)
(0.00722657 -0.00380001 0.00370493)
(0.0038132 -0.00579621 0.0104547)
(0.00372811 -0.00611671 0.010297)
(0.00384344 -0.0077053 0.00860021)
(0.00224251 -0.00486614 0.00961289)
(0.00172697 -0.00583481 0.00854227)
(0.0056683 -0.00303691 0.00531026)
(0.00581932 -0.00221455 0.00493106)
(0.00203838 -0.00477976 0.0119943)
(0.00282156 -0.00526217 0.012441)
(0.00137031 -0.0056472 0.00985451)
(0.00168327 -0.0039698 0.010819)
(0.00313333 -0.00567631 0.0106062)
(0.00232484 -0.00569219 0.0107294)
(0.00694725 -8.30093e-05 0.0082348)
(0.00772149 0.00185712 0.0139609)
(0.007928 0.00142188 0.011356)
(0.00643311 -0.000489708 0.00655792)
(0.00682286 0.000324716 0.00776049)
(0.0145392 -0.00093467 0.0144105)
(0.0140692 -0.000170649 0.0116182)
(0.0128363 -7.55175e-05 0.0148429)
(0.0113995 9.78911e-05 0.0145314)
(0.0183788 -0.00310096 0.0292956)
(0.0162013 -0.00458833 0.0280233)
(0.0109476 -0.000817905 0.0240527)
(0.00239535 0.00466952 0.0128391)
(0.0157791 -0.00290716 0.0281666)
(0.0141282 -0.00214409 0.0243336)
(0.0095899 0.000375101 0.0114529)
(0.0104615 0.000149345 0.0148793)
(0.00226965 -0.00129313 0.0113423)
(0.00302409 -0.000364783 0.0118921)
(0.015963 -0.0035906 0.0269853)
(0.0172396 -0.00296323 0.0262969)
(0.0158158 -0.00115795 0.0251186)
(0.0147955 -0.00191116 0.0250551)
(0.0143356 -0.000375958 0.0224156)
(0.013438 -0.00158948 0.025319)
(0.00841469 -0.00272299 0.00857518)
(0.00196213 -0.00431226 0.00939777)
(0.00235192 -0.00425163 0.0104379)
(0.00225554 -0.00511834 0.0099196)
(0.00217053 -0.00489449 0.0111628)
(0.005816 -0.00338824 0.00540775)
(0.00585443 -0.00271432 0.00488887)
(0.0107948 -0.000969541 0.0250063)
(0.0101677 -0.000874972 0.0260829)
(0.00399096 0.00450343 0.0133807)
(0.00535225 0.00491363 0.0133853)
(0.00361049 0.00472989 0.0139304)
(0.00486232 0.00481105 0.0142564)
(0.0108727 -0.00196371 0.0253927)
(0.0117247 -0.0017287 0.0251415)
(0.0112834 -0.00152323 0.0250153)
(0.0119376 -0.00188213 0.0252336)
(0.0113271 -0.00131688 0.0260518)
(0.00839831 -0.00413039 0.00304779)
(0.00755331 -0.00433293 0.00319446)
(0.00842656 -0.0041806 0.00289327)
(0.00854998 -0.00478757 0.00282593)
(0.0081757 -0.00429418 0.00311161)
(0.00821972 -0.00491173 0.00302894)
(0.0026661 -0.00420609 0.00966896)
(0.00325617 -0.00513719 0.0100808)
(0.00304377 -0.00476635 0.010535)
(0.00327353 -0.00505343 0.0103772)
(0.00261423 -0.0042395 0.0103957)
(0.00260792 -0.00428318 0.0104255)
(0.00265616 -0.0058152 0.00977978)
(0.00403631 -0.0059361 0.00879741)
(0.00339617 -0.00654159 0.00848125)
(0.00330261 -0.00593405 0.00893646)
(0.00548257 -0.00404805 0.00556332)
(0.00510716 -0.0035076 0.00513907)
(0.00555161 -0.00351613 0.00523347)
(0.00554932 -0.00355838 0.00552971)
(0.00597387 -0.00278069 0.00515408)
(0.00578768 -0.00327121 0.00486661)
(0.0179666 -0.00500656 0.0244823)
(0.0184087 -0.00562582 0.0251336)
(0.0173352 -0.0043762 0.0226281)
(0.0162744 -0.00465883 0.021858)
(0.0177727 -0.00488642 0.0230302)
(0.0137225 -0.00316707 0.0125905)
(0.0141279 -0.00322995 0.0123594)
(0.0179817 -0.00305076 0.0222005)
(0.016909 -0.00335979 0.0211254)
(0.0176393 -0.00351782 0.0203583)
(0.0172874 -0.00305988 0.0204306)
(0.0178009 -0.00260913 0.0224409)
(0.0178108 -0.00367865 0.0215866)
(0.0177995 -0.00696675 0.0199328)
(0.0198014 -0.00764083 0.0227161)
(0.0191026 -0.00677681 0.021083)
(0.0181743 -0.00952681 0.0186368)
(0.0188154 -0.0100096 0.0195123)
(0.0191797 -0.00746748 0.0204169)
(0.0111164 0.00110371 0.0178467)
(0.00964058 0.00156434 0.0170521)
(0.00932989 0.00214908 0.0170451)
(0.0108007 0.00184615 0.0177208)
(0.0111284 0.00116759 0.0171483)
(0.00906412 0.00210758 0.0171548)
(0.00567952 -0.00405648 0.00776809)
(0.00525031 -0.00475323 0.00789225)
(0.00524806 -0.00522084 0.00731746)
(0.0059117 -0.00416183 0.00754102)
(0.00495767 -0.00568469 0.00738759)
(0.00648144 -0.00403312 0.00778543)
(0.00402012 -0.00956035 0.00926959)
(0.00141999 -0.00487737 0.0101068)
(0.00128797 -0.00428891 0.010065)
(0.00147216 -0.00434019 0.00957659)
(0.00135623 -0.00434121 0.0101694)
(0.00203096 -0.0049348 0.00972834)
(0.00179631 -0.00615603 0.00987828)
(0.0140115 -0.00153086 0.0214933)
(0.0145984 -0.000714676 0.0230649)
(0.0137022 -0.00264223 0.0234985)
(0.0162945 -0.000477327 0.0248823)
(0.0153139 -0.000643238 0.0224281)
(0.01438 0.000433743 0.0215353)
(0.0156917 0.000778443 0.0224529)
(0.0162503 -0.00100064 0.0236537)
(0.015499 0.000972923 0.021886)
(0.0180147 -0.000233902 0.0256742)
(0.0152478 -0.000430473 0.021862)
(0.0152528 -0.000723728 0.0231434)
(0.016939 -0.000153341 0.024164)
(0.0166575 0.000416813 0.024996)
(0.0143647 -0.00135836 0.0218159)
(0.0159247 -0.000232668 0.0228953)
(0.015817 -0.000833045 0.0239233)
(0.0079332 0.00160243 0.0154283)
(0.0063353 0.00136805 0.0142244)
(0.00735626 0.00214619 0.015633)
(0.0073967 0.00167403 0.0152804)
(0.00655747 0.00129267 0.0141576)
(0.00651397 0.00165368 0.0140871)
(0.0121123 -0.000139659 0.0197854)
(0.0104149 -3.91804e-05 0.0174679)
(0.0117137 0.000151103 0.0160145)
(0.0116974 -0.000447938 0.0182727)
(0.0107387 0.000138004 0.0150596)
(0.0116183 -9.40832e-05 0.0118547)
(0.0101393 -0.000556826 0.00935871)
(0.0111777 -0.000206609 0.0103541)
(0.0107216 7.67207e-05 0.0128471)
(0.0134429 -0.00368762 0.0263648)
(0.0153869 -0.00344594 0.0261165)
(0.015108 -0.00305058 0.0256232)
(0.0119538 -0.00114485 0.0225958)
(0.0122614 -0.00169971 0.0232963)
(0.0124768 -0.00244177 0.0243654)
(0.0131055 -0.00192563 0.0244975)
(0.0118158 -0.00112785 0.0213967)
(0.0167142 -0.00752824 0.019815)
(0.0156855 -0.00614373 0.0179816)
(0.0156776 -0.00342989 0.0176413)
(0.0169478 -0.00548804 0.0193587)
(0.0210359 -0.00883655 0.0195123)
(0.0192581 -0.00970536 0.0163668)
(0.0180285 -0.00891039 0.0204747)
(0.018289 -0.00718264 0.0196176)
(0.0197209 -0.00611131 0.0220709)
(0.0175069 -0.00524368 0.0191443)
(0.0206596 -0.00707231 0.0238075)
(0.018383 -0.00518069 0.0216033)
(0.0126985 0.00055279 0.0190911)
(0.0148084 -0.000697192 0.0196129)
(0.0152427 -0.000194957 0.021539)
(0.0152336 -0.000451006 0.0204108)
(0.0127174 0.00134657 0.0194697)
(0.0133696 -0.00103237 0.0179937)
(0.00661336 0.000832485 0.0133089)
(0.00758072 0.000476328 0.013765)
(0.00629265 0.000553127 0.013315)
(0.00739558 0.000437762 0.0144643)
(0.00702337 0.00108091 0.0140526)
(0.00606553 0.00052784 0.0135587)
(0.00941249 0.000372495 0.0153171)
(0.0109914 0.000273686 0.0167605)
(0.0111827 0.000535724 0.0168887)
(0.011022 0.000541872 0.0169071)
(0.00962569 0.00114468 0.016458)
(0.00883313 0.00125315 0.0159297)
(0.00862416 -0.00135273 0.0130943)
(0.00682522 -0.00151207 0.0120504)
(0.00680063 -0.00156037 0.0119471)
(0.00777027 -0.000893046 0.012776)
(0.00805657 -0.00159892 0.0121817)
(0.00894594 -0.00155709 0.0121695)
(0.00900978 -0.000725162 0.0133725)
(0.0103817 -0.000868928 0.0147418)
(0.0109986 -0.00106024 0.0144198)
(0.00840001 -0.000891953 0.0136494)
(0.00899237 -0.000932437 0.013249)
(0.0103099 -0.00129377 0.0137993)
(0.00491275 0.00101793 0.0139393)
(0.00549137 0.00129947 0.0136297)
(0.00557228 0.00177025 0.0145248)
(0.0059663 0.00167066 0.0142963)
(0.00439441 0.00169644 0.0143514)
(0.00394003 0.00123642 0.0140074)
(0.00515294 0.00256521 0.0142524)
(0.00425229 0.00234018 0.0135948)
(0.00461441 0.00209011 0.0132543)
(0.00478604 0.0033884 0.0145736)
(0.0052403 0.00298446 0.0142618)
(0.00427074 0.00266085 0.0131153)
(0.00141401 0.00180011 0.0126803)
(0.0025128 0.00263278 0.0124295)
(0.00146449 0.00153926 0.0127386)
(0.00171536 0.00242776 0.012277)
(0.00225485 0.00230498 0.0128442)
(0.00126914 0.00120359 0.01251)
(0.0153348 0.0020453 0.0226001)
(0.0126901 0.00210354 0.0185369)
(0.0130911 0.00440602 0.0189186)
(0.0140882 0.000893588 0.020073)
(0.01558 0.00123861 0.0216046)
(0.0137353 0.00334663 0.019421)
(0.0123195 0.00366612 0.0174575)
(0.00418661 0.00641979 0.0123132)
(0.00609764 0.00701163 0.014166)
(0.00848025 0.00640002 0.0153092)
(0.00691241 0.00629527 0.0139264)
(0.00803824 0.00599382 0.0137261)
(0.00714198 0.0069287 0.014663)
(0.00852387 0.00669052 0.0145527)
(0.0140288 0.0004264 0.0205805)
(0.0127572 0.00247708 0.0187854)
(0.0147514 0.00360116 0.0211363)
(0.0145804 0.00252463 0.0206909)
(0.0153182 0.00134279 0.0226282)
(0.0128946 0.00347399 0.0194376)
(0.0101463 0.00478285 0.0172454)
(0.0112413 0.00504578 0.0179981)
(0.01088 0.00468139 0.0168051)
(0.0109076 0.00452901 0.0177447)
(0.00965532 0.00454571 0.0154047)
(0.0117343 0.00562057 0.018929)
(0.0144316 0.00187846 0.0213823)
(0.0108014 0.00285251 0.0177244)
(0.0107357 0.00344081 0.0195581)
(0.00892555 0.0032334 0.0172613)
(0.0113256 0.00212022 0.0186737)
(0.0137247 0.00236498 0.0218077)
(0.0123678 0.00178276 0.0190188)
(0.0101016 0.00295875 0.0171606)
(0.00610422 0.00386545 0.0155189)
(0.00651516 0.00375319 0.016165)
(0.00948476 0.00441606 0.0174963)
(0.00829473 0.0044732 0.0173559)
(0.00684721 0.00421379 0.0156256)
(0.00851652 0.00304704 0.0169934)
(0.00944737 0.00458549 0.0176712)
(0.00894136 0.00336376 0.0163688)
(0.00305623 0.0049852 0.0127021)
(0.00271874 0.00460648 0.0125577)
(0.00202717 0.00376999 0.0122654)
(0.00216285 0.00321234 0.0126617)
(0.00154911 0.00279355 0.0121047)
(0.00200922 0.00385949 0.0124828)
(0.00256753 0.0031557 0.0130435)
(0.0100994 0.000878797 0.0204699)
(0.00909266 0.000207944 0.0221252)
(0.00928657 0.000534077 0.0235886)
(0.00901851 0.00100542 0.0207949)
(0.0091087 0.00101594 0.0180888)
(0.00928097 0.00114579 0.019946)
(0.0100314 0.000440617 0.0258555)
(0.00921607 0.000198868 0.0253021)
(0.00882649 0.000575051 0.0257448)
(0.0099494 0.0013519 0.0254668)
(0.00977038 0.00174805 0.0262044)
(0.00893906 0.00205257 0.0260248)
(0.0198446 -0.00671492 0.0227484)
(0.0168261 -0.00754804 0.0218123)
(0.0183281 -0.00666664 0.0230091)
(0.0183015 -0.00635996 0.021968)
(0.0169101 -0.00585887 0.0209068)
(0.0200424 -0.00655535 0.0249866)
(0.0165315 -0.00453029 0.0248148)
(0.0170921 -0.0035286 0.0264684)
(0.0166839 -0.00421002 0.0242198)
(0.017651 -0.00395801 0.0265463)
(0.017113 -0.00314489 0.0260416)
(0.0167832 -0.00275186 0.0230771)
(0.0138784 -0.000647993 0.0148431)
(0.0152932 -0.000855516 0.016286)
(0.013934 -0.00188648 0.0158025)
(0.0140049 -0.000367501 0.0129598)
(0.0137232 -4.40078e-05 0.0120765)
(0.0141809 -5.94636e-05 0.0113591)
(0.0134608 -0.000288499 0.0137347)
(0.0125995 9.45322e-06 0.0127552)
(0.0135065 0.000158874 0.0115314)
(0.0137973 -8.80915e-05 0.015978)
(0.012178 -0.000206026 0.0106662)
(0.0145334 -0.00189587 0.0204866)
(0.0146624 -0.00077427 0.0194909)
(0.0148418 -0.00100353 0.0212812)
(0.0156575 -0.00188237 0.0228738)
(0.0139595 -0.000688209 0.0170653)
(0.0139208 -0.00143599 0.0180415)
(0.0128499 0.000132511 0.00906871)
(0.0136725 0.000280957 0.00827969)
(0.0141436 0.000474833 0.0101547)
(0.013654 0.000180785 0.00977528)
(0.0134082 -2.13292e-05 0.00815006)
(0.0134452 0.000193993 0.00753401)
(0.00508145 -0.00380115 0.00469911)
(0.00558709 -0.00351437 0.00412225)
(0.00586475 -0.00369768 0.00413092)
(0.00558579 -0.00346302 0.00452345)
(0.00584489 -0.00389497 0.00500939)
(0.00566964 -0.00441714 0.00502784)
(0.00562108 -0.0043841 0.0068432)
(0.00570147 -0.0043546 0.00624948)
(0.00535112 -0.00404925 0.00584855)
(0.00567779 -0.00399906 0.00569045)
(0.00507527 -0.00434312 0.00644569)
(0.00568326 -0.00387441 0.00580359)
(0.00604198 -0.00110162 0.00538463)
(0.00675934 -0.00110459 0.00598787)
(0.00639475 -0.000698172 0.00600455)
(0.00620072 -0.0015336 0.00497364)
(0.0070569 -0.000266305 0.00741749)
(0.00688167 -0.00045728 0.00675033)
(0.00747054 0.000892901 0.011119)
(0.00779895 0.000684191 0.0101689)
(0.00751286 0.00130271 0.0129604)
(0.00796472 0.00103953 0.0131483)
(0.00794169 0.000268828 0.00904456)
(0.00752125 0.00166558 0.0145454)
(0.00872332 0.00170334 0.0172179)
(0.00794897 0.00186935 0.0193434)
(0.0071172 0.00259948 0.0162823)
(0.00874729 0.00261331 0.0202941)
(0.00159869 -0.00632432 0.00948928)
(0.00220494 -0.00530215 0.0107152)
(0.00241101 -0.00644026 0.00962939)
(0.00265446 -0.00667443 0.0100289)
(0.0027816 -0.00645743 0.00942864)
(0.00149487 -0.0063248 0.0103813)
(0.00447783 -0.00506212 0.00629792)
(0.00451145 -0.00560517 0.00588079)
(0.00563906 -0.00495878 0.00664163)
(0.00524818 -0.00454102 0.00661182)
(0.00499337 -0.00550004 0.00772636)
(0.00436868 -0.00550461 0.00640252)
(0.00436667 -0.00536126 0.00754913)
(0.00452607 -0.00528966 0.00692095)
(0.00451349 -0.00554918 0.00837342)
(0.00365031 -0.00564849 0.00795047)
(0.00364657 -0.00633865 0.00847395)
(0.00460546 -0.00597058 0.0070397)
(0.00452102 -0.00589075 0.00778933)
(0.000748143 -0.00396891 0.0112884)
(0.00146612 -0.00443146 0.011646)
(0.00113512 -0.00463778 0.0105511)
(0.000965119 -0.00389069 0.0116352)
(0.00101178 -0.00421066 0.0108973)
(0.00116886 -0.00155273 0.0118076)
(0.00152777 -0.00209818 0.0121612)
(0.000871735 -0.00299973 0.0118336)
(0.00144034 -0.00197624 0.0122069)
(0.000989311 -0.00165876 0.0115661)
(0.00109474 -0.00287979 0.0119462)
(0.00095643 0.00160385 0.0118127)
(0.00117818 0.00151899 0.0121998)
(0.000935792 0.000540053 0.0124747)
(0.000851659 0.000744767 0.0123629)
(0.000938048 0.00201675 0.0120675)
(0.000455275 0.000839313 0.0127859)
(0.001795 -0.00488937 0.0118404)
(0.00161657 -0.00404301 0.0119203)
(0.000973543 -0.00384535 0.0124304)
(0.00117912 -0.00446481 0.0121074)
(0.00218028 -0.00478129 0.011793)
(0.000916145 -0.00375317 0.01213)
(0.00240859 -0.00549342 0.0108045)
(0.00209974 -0.00563669 0.0115896)
(0.00243331 -0.0053852 0.0121098)
(0.00204614 -0.0038297 0.0126113)
(0.00243028 -0.00572625 0.0116274)
(0.00189167 -0.00496272 0.0120139)
(0.00119484 0.000769572 0.0121841)
(0.00121177 0.000634757 0.0133353)
(0.00087593 -0.000743276 0.0127725)
(0.00113352 -0.000172837 0.0130286)
(0.00105582 -0.00090708 0.0130752)
(0.000999998 -3.80267e-05 0.0130088)
(0.000753641 -0.00206533 0.0124922)
(0.000792656 -0.00256671 0.0125303)
(0.000837306 -0.00264798 0.0129703)
(0.000928535 -0.00107894 0.0125983)
(0.000955651 -0.00113289 0.0130747)
(0.00087886 -0.00163267 0.0128812)
(0.00132855 -0.00353892 0.0127054)
(0.000900195 -0.00242678 0.0130233)
(0.000944431 -0.00319177 0.0127992)
(0.00112996 -0.0035525 0.0120553)
(0.000703832 -0.00242179 0.0128945)
(0.00125019 -0.00285903 0.0129785)
(0.00656271 0.00013174 0.00730594)
(0.00648566 -0.000460235 0.00641693)
(0.00664191 0.000670484 0.00775108)
(0.00684356 0.000896913 0.00843505)
(0.00646628 0.000175692 0.00725056)
(0.00715475 0.00110814 0.00886384)
(0.0092008 0.0012075 0.00992391)
(0.00985874 0.00192197 0.0105452)
(0.00897599 0.00343413 0.0113961)
(0.0094822 0.00257144 0.0104522)
(0.00961408 0.00362907 0.0118761)
(0.00893736 0.00235047 0.0108703)
(0.00737489 0.0017566 0.0108146)
(0.0075406 0.00239372 0.0122769)
(0.00752806 0.00217553 0.0124741)
(0.00797823 0.00215032 0.0112295)
(0.00739194 0.00228304 0.0130922)
(0.0076 0.00310195 0.0148161)
(0.0102889 0.00503583 0.0148451)
(0.00913389 0.00488607 0.0162435)
(0.00873475 0.00550822 0.016763)
(0.00970237 0.00391411 0.0139227)
(0.00460679 -0.00165322 0.0106072)
(0.00416685 -0.0014895 0.0112891)
(0.00527858 -0.0020958 0.0120986)
(0.00508378 -0.00122737 0.0108409)
(0.00433101 -0.002343 0.0110469)
(0.00439471 -0.0023572 0.0109639)
(0.00414239 -0.00320373 0.0115357)
(0.00429259 -0.00290528 0.0111447)
(0.00441014 -0.00337661 0.0115471)
(0.00371164 -0.00364764 0.0109723)
(0.00363325 -0.00362633 0.0107053)
(0.00608072 -0.00198082 0.0113037)
(0.00526407 -0.00212426 0.0113584)
(0.00484539 -0.00269399 0.011557)
(0.00557345 -0.00267738 0.0117185)
(0.00727944 -0.00206929 0.0119675)
(0.0063377 -0.00247488 0.0123478)
(0.00307932 -0.00234414 0.0101112)
(0.00275566 -0.003595 0.0109765)
(0.00285311 -0.00359144 0.0109205)
(0.00307331 -0.00298256 0.0110867)
(0.00388348 -0.00245272 0.01095)
(0.00351327 -0.00319988 0.0113738)
(0.00211017 -0.00632309 0.0099091)
(0.00180041 -0.00640443 0.00974352)
(0.00172781 -0.00574933 0.00951333)
(0.00171166 -0.00641657 0.00850491)
(0.00256632 -0.00606451 0.00926855)
(0.00177794 -0.0042592 0.0101211)
(0.00166945 -0.00270333 0.0122204)
(0.00164395 -0.00317037 0.0117798)
(0.00174343 -0.00233132 0.0118237)
(0.00121857 -0.00392536 0.0116748)
(0.00134921 -0.00435025 0.0103956)
(0.001466 -0.00449877 0.0118301)
(0.00132095 -0.00338148 0.0120696)
(0.00117156 -0.00406132 0.0120327)
(0.00494147 -0.00910455 0.00691582)
(0.00507146 -0.00983116 0.00724454)
(0.0063667 -0.00965946 0.00656884)
(0.00635309 -0.00938536 0.00624257)
(0.0048871 -0.00928713 0.00604967)
(0.00558634 -0.0102887 0.00685083)
(0.00358928 -0.00802801 0.00726998)
(0.00334354 -0.0080684 0.00778385)
(0.00340458 -0.00732311 0.0082946)
(0.00362286 -0.00817264 0.00738142)
(0.00351108 -0.00816338 0.00817862)
(0.00383911 -0.00496425 0.0105782)
(0.00329088 -0.00414948 0.00995309)
(0.00369713 -0.00550395 0.0106504)
(0.00375017 -0.0052611 0.00968733)
(0.00325143 -0.00434348 0.0105214)
(0.00339619 -0.00425494 0.00964382)
(0.00367017 -0.00860654 0.00777771)
(0.00372911 -0.00725187 0.00843554)
(0.00376512 -0.00833983 0.00834265)
(0.00367112 -0.00817988 0.0075909)
(0.00377569 -0.00800995 0.00830651)
(0.00502518 -0.00897903 0.00702328)
(0.00510101 -0.00949332 0.0073654)
(0.00388924 -0.00820935 0.00805265)
(0.00494284 -0.00891587 0.00799447)
(0.00392127 -0.00858044 0.00825797)
(0.00469425 -0.0081041 0.00784543)
(0.00365602 -0.00708765 0.00934777)
(0.0037107 -0.00879514 0.00796815)
(0.00379251 -0.00864915 0.00825647)
(0.00371493 -0.00720234 0.00957491)
(0.00397472 -0.00770222 0.00895552)
(0.00385027 -0.007677 0.0080506)
(0.00342985 -0.00716237 0.009076)
(0.00494709 -0.00853347 0.00602894)
(0.00441393 -0.00758883 0.0058144)
(0.00550726 -0.00721425 0.00586403)
(0.00471292 -0.00865665 0.00635506)
(0.00448411 -0.00720695 0.00531714)
(0.0056753 -0.00711074 0.00564545)
(0.00499736 -0.00938149 0.00678997)
(0.00384496 -0.00881843 0.00818935)
(0.00370961 -0.00796878 0.00739889)
(0.00464366 -0.00831713 0.00618954)
(0.00447463 -0.0078712 0.00765847)
(0.00507962 -0.00825141 0.00776397)
(0.00481566 -0.00871369 0.00574678)
(0.00541906 -0.0100041 0.00661817)
(0.00486027 -0.00973389 0.00693874)
(0.00594118 -0.00869413 0.00615619)
(0.00453678 -0.00881406 0.0061713)
(0.00603255 -0.00845671 0.00573211)
(0.00688662 -0.0103644 0.00478383)
(0.00782572 -0.0088736 0.00341044)
(0.00716298 -0.0090675 0.00444479)
(0.00648851 -0.0095865 0.0044043)
(0.0069594 -0.00975792 0.00495383)
(0.0062069 -0.00923907 0.00500936)
(0.00632336 -0.00921299 0.00630556)
(0.00606396 -0.00888332 0.00640476)
(0.00644536 -0.00959074 0.00508409)
(0.00583271 -0.00754519 0.00390005)
(0.00608031 -0.00791241 0.0058576)
(0.00582845 -0.0080357 0.00612363)
(0.00584436 -0.00793118 0.00454365)
(0.00624773 -0.00825467 0.00489853)
(0.0062818 -0.00794015 0.00448579)
(0.00622783 -0.00859195 0.00392004)
(0.00653772 -0.00872989 0.00428534)
(0.00758223 -0.00784511 0.0030513)
(0.00706868 -0.00804949 0.00380331)
(0.0069077 -0.00681474 0.00287214)
(0.00702578 -0.00751951 0.00442597)
(0.0104643 -0.00433711 0.00225461)
(0.00963384 -0.00405115 0.00273321)
(0.0110436 -0.00392953 0.00257929)
(0.0109114 -0.00361751 0.00238527)
(0.00999932 -0.00449798 0.00266134)
(0.010427 -0.00373131 0.00274446)
(0.00919489 -0.00664171 0.00226178)
(0.00959659 -0.00654376 0.00214247)
(0.00912783 -0.00551599 0.00220033)
(0.00907467 -0.00573755 0.00222357)
(0.0086131 -0.00596454 0.00234308)
(0.00933579 -0.00536619 0.0025584)
(0.0084144 -0.00325217 0.00333275)
(0.00877106 -0.00336329 0.00350313)
(0.00952412 -0.00248686 0.0032858)
(0.00943047 -0.00268919 0.00471268)
(0.00934963 -0.00277859 0.00365399)
(0.0091913 -0.00148447 0.00553768)
(0.0103886 -0.00135812 0.00552872)
(0.0101931 -0.00114062 0.0071762)
(0.009261 -0.00158382 0.00621838)
(0.00996748 -0.00197639 0.00478936)
(0.0111368 -0.00105488 0.00731607)
(0.0106585 -0.00113962 0.00570243)
(0.0119202 -0.000610177 0.00747796)
(0.0125084 -0.000130171 0.00828729)
(0.0126034 -0.000229398 0.00846061)
(0.0115163 -0.00104698 0.00553514)
(0.0124258 -0.000307033 0.00650385)
(0.0120684 -0.000666686 0.00569932)
(0.00499208 -0.00665439 0.00548928)
(0.00534882 -0.00599273 0.00431053)
(0.00521556 -0.00584581 0.00400939)
(0.00535154 -0.00632898 0.00509049)
(0.00506317 -0.00663766 0.00540332)
(0.00522311 -0.00621221 0.00446858)
(0.00722268 -0.00453802 0.00376638)
(0.00774597 -0.00409839 0.00325737)
(0.00687865 -0.0042538 0.00340293)
(0.00687856 -0.0048381 0.00395949)
(0.00638451 -0.00488335 0.00324931)
(0.00595903 -0.00559965 0.00442356)
(0.00588683 -0.00700067 0.00438521)
(0.00641969 -0.00530167 0.00383419)
(0.00564799 -0.0067997 0.00398875)
(0.0066254 -0.00638686 0.00453915)
(0.00679431 -0.00607148 0.003901)
(0.00684698 -0.00577255 0.00348895)
(0.00668539 -0.00594838 0.00361062)
(0.00655501 -0.0023678 0.00415023)
(0.00724378 -0.00238733 0.00435058)
(0.00664837 -0.0018847 0.00448561)
(0.00718808 -0.0016951 0.00489796)
(0.00708953 -0.00187602 0.00474862)
(0.00683777 -0.00252788 0.00396202)
(0.0066156 -0.00261446 0.00450373)
(0.00572614 -0.00343655 0.00374833)
(0.00658492 -0.00270514 0.00469702)
(0.0059898 -0.00355136 0.0041946)
(0.00667264 -0.00272082 0.00403399)
(0.00570377 -0.00274572 0.00423133)
(0.00605742 -0.00380733 0.00435215)
(0.00595406 -0.00305627 0.00367312)
(0.00819909 -0.0011498 0.00657632)
(0.00919608 -0.000299023 0.00908607)
(0.00783818 -0.000198866 0.00865724)
(0.00803002 -0.000408889 0.00757715)
(0.0078823 -0.00080708 0.00656939)
(0.00890993 0.000790848 0.012774)
(0.00900282 0.00019633 0.0132759)
(0.00881086 0.000673942 0.015032)
(0.0090038 0.000668503 0.0144238)
(0.00318744 -0.00714352 0.00656247)
(0.00442902 -0.0079225 0.00601664)
(0.00352717 -0.00722924 0.00710146)
(0.00439089 -0.00722446 0.00687076)
(0.00402787 -0.00697835 0.00551838)
(0.00358273 -0.00707746 0.00620436)
(0.00221728 -0.000777027 0.0120407)
(0.0022937 -0.00151618 0.0114821)
(0.00225559 -0.00174047 0.0115485)
(0.00238834 -0.0012409 0.0120278)
(0.0023515 -0.00218124 0.0115546)
(0.00231269 -0.00246791 0.0119855)
(0.00206682 -0.00231327 0.010255)
(0.00191302 -0.00303234 0.0104987)
(0.00155201 -0.00347167 0.0103995)
(0.00152392 -0.0034954 0.0105946)
(0.00220017 -0.00241537 0.0105947)
(0.00191606 -0.00291971 0.0109604)
(0.0106808 6.47806e-05 0.0274671)
(0.00854644 0.00106726 0.0239374)
(0.00988428 -0.000642933 0.0257586)
(0.00917692 0.00160948 0.0253648)
(0.00807952 0.000251872 0.0249394)
(0.00982376 0.000493715 0.0254072)
(0.00638042 0.0058657 0.014466)
(0.00653317 0.00542424 0.0143823)
(0.00843211 0.00592529 0.0156007)
(0.00880156 0.00578191 0.0152604)
(0.00712445 0.00547903 0.0143516)
(0.00661591 0.0064081 0.0149909)
(0.00323942 0.00387406 0.013019)
(0.00295877 0.00289474 0.012353)
(0.00296256 0.00305943 0.0128891)
(0.00353247 0.00386805 0.0132077)
(0.0033771 0.00341277 0.0133535)
(0.00278424 0.00330841 0.0123542)
(0.0168202 -0.00476191 0.0153562)
(0.0170164 -0.0054161 0.0137202)
(0.0148517 -0.0035069 0.0136654)
(0.0166749 -0.00473954 0.0140878)
(0.0144521 -0.00329831 0.0128981)
(0.0151896 -0.00353934 0.0141561)
(0.0125438 -0.00128291 0.0158525)
(0.0146967 -0.00280707 0.0158165)
(0.0126244 -0.00171301 0.01518)
(0.0151988 -0.00239251 0.0183929)
(0.0154847 -0.00282052 0.0168388)
(0.0197495 -0.00856937 0.0194396)
(0.0182255 -0.00670252 0.017817)
(0.0192691 -0.00698954 0.0183974)
(0.0186277 -0.00749353 0.0163957)
(0.0187107 -0.00710802 0.0189304)
(0.0190898 -0.0050243 0.018898)
(0.0180571 -0.00591914 0.0187149)
(0.0162708 -0.00475714 0.0157636)
(0.0159058 -0.00318636 0.0172308)
(0.016637 -0.00460694 0.0157704)
(0.0168429 -0.00560366 0.0152648)
(0.0195647 -0.00674961 0.0176034)
(0.0173967 -0.00543632 0.0160565)
(0.00420644 0.00352599 0.0138629)
(0.00473568 0.00407264 0.0148715)
(0.0039136 0.00416542 0.0138125)
(0.0039855 0.00408072 0.0139991)
(0.00402986 0.00369668 0.0140269)
(0.00480492 0.00465961 0.0151751)
(0.00530606 0.00432513 0.0151503)
(0.00653982 0.00416152 0.0155052)
(0.00352647 0.00484519 0.0145352)
(0.00393059 0.00430432 0.0135484)
(0.00269226 0.00395317 0.0128732)
(0.00246989 0.00388015 0.0132203)
(0.0025866 0.00436744 0.0129554)
(0.00337069 0.00499744 0.0139727)
(0.00262634 0.00460939 0.0128431)
(0.00770359 0.00522392 0.0162148)
(0.0074038 0.00450707 0.015652)
(0.00817807 0.00525409 0.0163587)
(0.00389208 0.00525553 0.0135653)
(0.0031884 0.00509798 0.0129737)
(0.00525992 0.00657279 0.0136131)
(0.00433585 0.00518854 0.0131774)
(0.00507832 0.00492777 0.0150154)
(0.00675809 0.00466423 0.0157725)
(0.00767586 0.00609769 0.0158057)
(0.00650895 0.00481295 0.0139952)
(0.00755427 0.00593596 0.0159907)
(0.0062399 0.00533351 0.0148594)
(0.00548913 0.00566366 0.0131794)
(0.00627804 0.00629116 0.0143446)
(0.00534423 0.00501495 0.0142379)
(0.00850119 -0.00025696 0.0243313)
(0.00915492 -0.000159379 0.0255661)
(0.00903569 -0.000884555 0.0246454)
(0.00891894 0.000593555 0.0258213)
(0.0081398 -0.000408866 0.0253473)
(0.0130796 -0.00190522 0.0272461)
(0.011627 -0.00122413 0.027233)
(0.0103567 -0.000519226 0.0268317)
(0.011837 -0.00162766 0.0262684)
(0.0105613 -0.000822862 0.0257836)
(0.0103654 -0.00109696 0.0257767)
(0.0126672 -0.00227336 0.0255357)
(0.00267727 -0.00180738 0.0108161)
(0.00212101 -0.00145217 0.010166)
(0.0024979 -0.00157295 0.0108624)
(0.00242778 -0.00102108 0.0110354)
(0.0078896 -0.0022704 0.00472935)
(0.00719529 -0.00246402 0.00418331)
(0.00467083 -0.0078864 0.00580105)
(0.00566296 -0.00723957 0.00461172)
(0.00713109 -0.00291015 0.00387779)
(0.0128804 -0.000275977 0.0187226)
(0.00882273 -0.00442274 0.00257719)
(0.0109135 -0.00250705 0.00337378)
(0.0114024 -0.00296991 0.00310164)
(0.00963494 -0.0051191 0.00258238)
(0.00738412 -0.00566443 0.00362637)
(0.00897803 -0.00229311 0.00445308)
(0.00831949 -0.00345693 0.00353928)
(0.00790303 -0.00274519 0.00372296)
(0.00806704 -0.00246318 0.00434497)
(0.00811784 -0.00273577 0.00400512)
(0.00855457 -0.00238806 0.00449463)
(0.0080484 -0.00222481 0.00437097)
(0.00718427 -0.00362267 0.0037311)
(0.00772728 -0.0030764 0.00364337)
(0.00754972 -0.00354529 0.00345951)
(0.00778692 -0.00294058 0.00391498)
(0.00722962 -0.00313055 0.00354403)
(0.00893382 -0.00545642 0.00253431)
(0.00828996 -0.00506813 0.00284269)
(0.00880098 -0.00556633 0.00290786)
(0.00799597 -0.00624573 0.00285195)
(0.00834052 -0.00572767 0.00328252)
(0.00823166 -0.00540041 0.00341116)
(0.00777839 -0.00499097 0.00354336)
(0.00789038 -0.00609133 0.00303329)
(0.00687129 -0.0052896 0.00337353)
(0.00892777 -0.00474661 0.00277024)
(0.00897417 -0.00439036 0.00277299)
(0.00894822 -0.00458818 0.00296759)
(0.00860119 -0.00485785 0.00282922)
(0.00857451 -0.0038409 0.0028796)
(0.0103197 -0.00293361 0.00290223)
(0.00951387 -0.00320744 0.00288547)
(0.00930633 -0.0036014 0.00320912)
(0.0102442 -0.00282335 0.0032563)
(0.00991339 -0.00304351 0.00336052)
(0.00911338 -0.00369958 0.00327515)
(0.00688545 -0.00610143 0.0029579)
(0.00751646 -0.00678285 0.00337578)
(0.00831658 -0.00760646 0.00332632)
(0.00740734 -0.00697763 0.00357475)
(0.00707075 -0.00683974 0.00431676)
(0.00563288 -0.00707717 0.0045993)
(0.00622086 -0.00900946 0.00477651)
(0.0111885 -0.00260989 0.00279507)
(0.00756286 -0.00741616 0.00258242)
(0.00872442 -0.00676652 0.00291879)
(0.00729904 -0.00850688 0.00432679)
(0.00751554 -0.00932109 0.00452289)
(0.00762785 -0.00860461 0.00270588)
(0.00749314 -0.00916958 0.00367419)
(0.0083148 -0.00927009 0.00276383)
(0.0060599 -0.00893789 0.0045324)
(0.00530561 -0.00944428 0.0064586)
(0.00466957 -0.00820467 0.00544741)
(0.00499462 -0.00925779 0.00606719)
(0.00373857 -0.00748781 0.00820394)
(0.00497008 -0.00794906 0.00809853)
(0.00489238 -0.00816478 0.00775395)
(0.00319937 -0.00694777 0.0097879)
(0.00292343 -0.0066848 0.00998098)
(0.00341549 -0.00695892 0.0104742)
(0.00328172 -0.00477184 0.0105011)
(0.00347119 -0.00520168 0.0101923)
(0.00322805 -0.00715455 0.00995361)
(0.00349306 -0.00674918 0.0089412)
(0.00369633 -0.00645069 0.00875142)
(0.00295797 -0.0067217 0.00997906)
(0.00263088 -0.00610538 0.00906739)
(0.00361914 -0.00502526 0.00972159)
(0.00274366 -0.00657168 0.00893881)
(0.00313893 -0.00809179 0.00778498)
(0.00432964 -0.00760565 0.00716424)
(0.00468813 -0.00795626 0.00738484)
(0.00366742 -0.00721958 0.00889861)
(0.00370891 -0.0079387 0.00816493)
(0.0029047 -0.00638695 0.0099536)
(0.00287965 -0.00696772 0.00943926)
(0.00331562 -0.00635731 0.00879196)
(0.00337175 -0.00696867 0.0094476)
(0.00281568 -0.00648156 0.00923187)
(0.00276358 -0.0059362 0.0093292)
(0.00302377 -0.00689788 0.00874985)
(0.00363657 -0.0083692 0.00861021)
(0.00370842 -0.00702439 0.00868764)
(0.00284905 -0.00679231 0.00910578)
(0.00282871 -0.00693775 0.00980957)
(0.00281995 -0.00675948 0.00884313)
(0.00529089 -0.00972374 0.006609)
(0.00657125 -0.0101486 0.00536966)
(0.00462718 -0.0084407 0.00794043)
(0.00520297 -0.00952696 0.00824603)
(0.00455802 -0.00549033 0.0105867)
(0.00404453 -0.00418729 0.0097745)