/*--------------------------------*- C++ -*----------------------------------*\
| =========                 |                                                 |
| \\      /  F ield         | OpenFOAM: The Open Source CFD Toolbox           |
|  \\    /   O peration     | Version:  v1612+                                |
|   \\  /    A nd           | Web:      www.OpenFOAM.com                      |
|    \\/     M anipulation  |                                                 |
\*---------------------------------------------------------------------------*/
FoamFile
{
    version     2.0;
    format      ascii;
    class       volVectorField;
    location    "239";
    object      U;
}
// * * * * * * * * * * * * * * * * * * * * * * * * * * * * * * * * * * * * * //

dimensions      [0 1 -1 0 0 0 0];

internalField   nonuniform List<vector> 
16731
(
(-0.146218 0.292722 -0.251825)
(-0.355282 0.975311 -0.442357)
(-0.350318 0.96811 -0.441614)
(-0.366444 0.978784 -0.443092)
(-0.346994 0.966253 -0.439074)
(-0.324295 0.901974 -0.406819)
(-0.349394 0.94807 -0.428899)
(-0.34951 0.978173 -0.436342)
(-0.341982 0.96114 -0.423542)
(-0.332154 0.908377 -0.406779)
(-0.296797 0.839248 -0.379622)
(-0.318044 0.946427 -0.425083)
(-0.311683 0.88857 -0.405499)
(-0.329496 0.964255 -0.436006)
(-0.338125 0.97237 -0.434027)
(-0.320221 0.947167 -0.419284)
(-0.290859 0.842721 -0.374237)
(-0.33115 0.966397 -0.435334)
(-0.313486 0.9316 -0.412214)
(-0.306233 0.92221 -0.408025)
(-0.36396 0.871514 -0.485815)
(-0.368622 0.905374 -0.495433)
(-0.388922 0.908638 -0.517377)
(-0.382082 0.900964 -0.51601)
(-0.375659 0.897244 -0.514526)
(-0.374426 0.900288 -0.504769)
(-0.371273 0.901602 -0.504151)
(-0.360454 0.893706 -0.497046)
(-0.372457 0.899631 -0.489841)
(-0.367079 0.902472 -0.497013)
(-0.384138 0.909496 -0.507633)
(-0.359978 0.89866 -0.501806)
(-0.366064 0.904242 -0.503194)
(-0.381752 0.889464 -0.493633)
(-0.313063 0.580029 -0.320637)
(-0.284977 0.52026 -0.302833)
(-0.311078 0.584981 -0.319261)
(-0.304371 0.555053 -0.305651)
(-0.315999 0.584563 -0.319299)
(-0.308696 0.585692 -0.320225)
(-0.273034 0.496082 -0.299008)
(-0.316562 0.609774 -0.327547)
(-0.255948 0.454881 -0.291395)
(-0.275268 0.525616 -0.292428)
(-0.24646 0.461697 -0.292892)
(-0.236675 0.433686 -0.274631)
(-0.251043 0.46125 -0.286734)
(-0.245368 0.453502 -0.26942)
(-0.267545 0.507008 -0.288813)
(-0.259261 0.467835 -0.276104)
(-0.161495 0.320749 -0.243046)
(-0.168882 0.323146 -0.235761)
(-0.148007 0.288194 -0.212049)
(-0.136778 0.277191 -0.225264)
(-0.124949 0.254166 -0.208956)
(-0.234105 0.633388 -0.376305)
(-0.213771 0.581805 -0.349114)
(-0.220493 0.604116 -0.361312)
(-0.195321 0.547955 -0.326847)
(-0.233277 0.64557 -0.393176)
(-0.27196 0.70624 -0.423729)
(-0.292043 0.753754 -0.445288)
(-0.23189 0.635069 -0.377427)
(-0.215461 0.599126 -0.360938)
(-0.315945 0.794785 -0.468489)
(-0.308303 0.785848 -0.466238)
(-0.29684 0.744375 -0.437264)
(-0.306335 0.772337 -0.463121)
(-0.318606 0.801536 -0.4764)
(-0.235074 0.648075 -0.383245)
(-0.221517 0.618831 -0.377068)
(-0.196402 0.546111 -0.331579)
(-0.219634 0.583384 -0.35812)
(-0.232301 0.6348 -0.382809)
(-0.202954 0.561618 -0.339117)
(-0.300443 0.751104 -0.446879)
(-0.300383 0.763298 -0.450479)
(-0.300214 0.748186 -0.441643)
(-0.251047 0.684355 -0.41953)
(-0.3337 0.904953 -0.43013)
(-0.321096 0.885394 -0.415426)
(-0.335883 0.95679 -0.446698)
(-0.347134 0.96742 -0.45268)
(-0.31732 0.871302 -0.415795)
(-0.298622 0.824819 -0.396024)
(-0.32832 0.926412 -0.437871)
(-0.344241 0.956686 -0.44967)
(-0.355706 0.950929 -0.452332)
(-0.288534 0.834915 -0.389778)
(-0.340256 0.954195 -0.450126)
(-0.350847 0.962903 -0.45654)
(-0.326248 0.898698 -0.430612)
(-0.311666 0.854292 -0.416703)
(-0.323794 0.927955 -0.444469)
(-0.367984 0.890512 -0.473177)
(-0.357902 0.881182 -0.471668)
(-0.298498 0.832327 -0.43818)
(-0.321399 0.862299 -0.457039)
(-0.281053 0.810491 -0.427474)
(-0.269082 0.781373 -0.408196)
(-0.356365 0.876829 -0.457454)
(-0.233499 0.738837 -0.364599)
(-0.308512 0.83458 -0.439529)
(-0.272223 0.783521 -0.401086)
(-0.316548 0.841488 -0.432315)
(-0.25846 0.774768 -0.396567)
(-0.231248 0.477871 -0.341842)
(-0.221061 0.489038 -0.363269)
(-0.233358 0.545119 -0.363496)
(-0.224802 0.540637 -0.37663)
(-0.222951 0.569019 -0.380007)
(-0.234605 0.466512 -0.313236)
(-0.24325 0.506524 -0.333908)
(-0.259369 0.591319 -0.347703)
(-0.266643 0.592374 -0.350134)
(-0.227368 0.501876 -0.359735)
(-0.232317 0.481569 -0.335739)
(-0.227016 0.539775 -0.372278)
(-0.287885 0.56079 -0.32717)
(-0.296312 0.58384 -0.327513)
(-0.23946 0.554849 -0.35666)
(-0.269503 0.522575 -0.317372)
(-0.252047 0.493672 -0.329638)
(-0.287474 0.788626 -0.405055)
(-0.373113 0.894275 -0.479002)
(-0.308911 0.832424 -0.437217)
(-0.296213 0.795386 -0.391646)
(-0.287517 0.778292 -0.384943)
(-0.383164 0.861329 -0.455347)
(-0.373198 0.855232 -0.448755)
(-0.368279 0.878935 -0.463244)
(-0.357113 0.812505 -0.412137)
(-0.34873 0.813539 -0.411563)
(-0.374235 0.855188 -0.443568)
(-0.112736 0.673266 -0.45059)
(-0.119364 0.670965 -0.458949)
(-0.123473 0.698109 -0.456179)
(-0.148623 0.735763 -0.473619)
(-0.162134 0.708063 -0.478163)
(-0.161518 0.696045 -0.480902)
(-0.16079 0.751851 -0.481692)
(-0.15574 0.726735 -0.487217)
(-0.0987637 0.653308 -0.434214)
(-0.112147 0.666336 -0.453207)
(-0.101813 0.653897 -0.444001)
(-0.113201 0.672431 -0.45811)
(-0.136101 0.709896 -0.464957)
(-0.150068 0.682683 -0.480292)
(-0.149922 0.66689 -0.474132)
(-0.10266 0.604524 -0.436893)
(-0.111421 0.613764 -0.45219)
(-0.0952138 0.616455 -0.428386)
(-0.136423 0.683929 -0.473582)
(-0.115856 0.633419 -0.455065)
(-0.10411 0.603225 -0.447755)
(-0.0922989 0.584026 -0.425741)
(-0.102533 0.65143 -0.443792)
(-0.0888101 0.628171 -0.424726)
(-0.113942 0.69222 -0.456352)
(-0.168314 0.771843 -0.478623)
(-0.160178 0.770344 -0.465118)
(-0.142266 0.733672 -0.464685)
(-0.108048 0.697282 -0.442108)
(-0.102469 0.666349 -0.437045)
(-0.164382 0.778783 -0.480828)
(-0.159865 0.773171 -0.476629)
(-0.13531 0.733531 -0.457808)
(-0.1133 0.697072 -0.431748)
(-0.112769 0.691225 -0.437214)
(-0.100732 0.646063 -0.416376)
(-0.228766 0.592289 -0.404277)
(-0.2153 0.56927 -0.415699)
(-0.232794 0.566635 -0.381896)
(-0.249559 0.557592 -0.353655)
(-0.218222 0.57418 -0.396204)
(-0.195085 0.531638 -0.407536)
(-0.196507 0.536172 -0.406656)
(-0.227997 0.495436 -0.354024)
(-0.211814 0.472912 -0.37705)
(-0.24627 0.491285 -0.329465)
(-0.225809 0.453848 -0.313765)
(-0.204276 0.47636 -0.371359)
(-0.206582 0.480148 -0.377189)
(-0.209926 0.422292 -0.319963)
(-0.206604 0.438717 -0.353826)
(-0.366654 0.667797 -0.35847)
(-0.33104 0.59194 -0.323717)
(-0.349866 0.626032 -0.337054)
(-0.372346 0.66112 -0.355564)
(-0.381213 0.685682 -0.372193)
(-0.362461 0.690661 -0.369671)
(-0.332333 0.629941 -0.338631)
(-0.330223 0.649953 -0.347741)
(-0.326883 0.611303 -0.316009)
(-0.33111 0.619555 -0.328169)
(-0.330062 0.607898 -0.3249)
(-0.383438 0.717973 -0.395188)
(-0.342371 0.642099 -0.343844)
(-0.372175 0.636551 -0.351361)
(-0.355602 0.638 -0.347845)
(-0.32696 0.585708 -0.31711)
(-0.371253 0.645802 -0.354956)
(-0.287149 0.518015 -0.283692)
(-0.298286 0.53521 -0.288324)
(-0.272878 0.503619 -0.270638)
(-0.270839 0.494835 -0.269048)
(-0.231477 0.436178 -0.25523)
(-0.253046 0.477696 -0.258261)
(-0.294742 0.510427 -0.285537)
(-0.318613 0.567872 -0.304648)
(-0.277969 0.492339 -0.286568)
(-0.237732 0.430218 -0.25422)
(-0.254339 0.469292 -0.267755)
(-0.231669 0.439502 -0.249342)
(-0.211083 0.405492 -0.240804)
(-0.302007 0.536122 -0.292427)
(-0.24191 0.430914 -0.278083)
(-0.259332 0.469595 -0.290578)
(-0.310911 0.577195 -0.304346)
(-0.244271 0.436002 -0.266881)
(-0.288909 0.536123 -0.289997)
(-0.291858 0.523924 -0.289656)
(-0.244596 0.453731 -0.264159)
(-0.212671 0.398178 -0.254435)
(-0.226916 0.421259 -0.251293)
(-0.248113 0.440609 -0.272521)
(-0.298281 0.868489 -0.441111)
(-0.297151 0.855045 -0.440879)
(-0.310747 0.882475 -0.447163)
(-0.330481 0.912657 -0.463982)
(-0.35062 0.892705 -0.460784)
(-0.349412 0.930236 -0.473299)
(-0.325008 0.91653 -0.463241)
(-0.341808 0.892071 -0.465396)
(-0.351253 0.909057 -0.461492)
(-0.352613 0.869817 -0.453423)
(-0.341001 0.867691 -0.442458)
(-0.31893 0.761808 -0.405461)
(-0.310383 0.779905 -0.417169)
(-0.297493 0.792425 -0.422643)
(-0.30729 0.795176 -0.420788)
(-0.32571 0.814134 -0.43493)
(-0.306395 0.769517 -0.411396)
(-0.329571 0.791551 -0.428618)
(-0.322924 0.900809 -0.472939)
(-0.294663 0.893425 -0.467459)
(-0.297105 0.923136 -0.475887)
(-0.284178 0.912602 -0.477522)
(-0.301487 0.895258 -0.472288)
(-0.314323 0.903544 -0.481104)
(-0.322122 0.922369 -0.482643)
(-0.33206 0.926464 -0.484324)
(-0.303902 0.918728 -0.475612)
(-0.286804 0.907894 -0.471833)
(-0.279604 0.921354 -0.479177)
(-0.320736 0.921217 -0.484236)
(-0.316418 0.921081 -0.483264)
(-0.321321 0.917293 -0.478004)
(-0.310182 0.889198 -0.467829)
(-0.288229 0.87947 -0.455059)
(-0.390337 0.907146 -0.50104)
(-0.37345 0.902548 -0.493205)
(-0.387264 0.905666 -0.491635)
(-0.40475 0.898983 -0.498614)
(-0.359503 0.883868 -0.471828)
(-0.399581 0.820551 -0.449256)
(-0.40083 0.816888 -0.450039)
(-0.393938 0.887081 -0.49014)
(-0.412735 0.868469 -0.477455)
(-0.407064 0.85096 -0.46821)
(-0.381489 0.849083 -0.449762)
(-0.223893 0.538775 -0.287775)
(-0.238217 0.576002 -0.314849)
(-0.228932 0.577866 -0.324251)
(-0.216849 0.547965 -0.307098)
(-0.220026 0.534676 -0.286892)
(-0.211103 0.53653 -0.29424)
(-0.265713 0.610509 -0.346077)
(-0.267073 0.62361 -0.347213)
(-0.249731 0.629227 -0.347166)
(-0.252138 0.627828 -0.337075)
(-0.222965 0.533484 -0.291514)
(-0.222831 0.570261 -0.311045)
(-0.272021 0.636685 -0.349992)
(-0.257093 0.575126 -0.319595)
(-0.286418 0.693034 -0.385902)
(-0.304901 0.721734 -0.383298)
(-0.300319 0.693029 -0.369988)
(-0.310732 0.732247 -0.397347)
(-0.24992 0.645927 -0.348772)
(-0.319547 0.736641 -0.402743)
(-0.305818 0.741286 -0.403683)
(-0.265187 0.669171 -0.359068)
(-0.167567 0.773556 -0.461486)
(-0.173982 0.794454 -0.455103)
(-0.170775 0.784369 -0.46064)
(-0.169643 0.751416 -0.478149)
(-0.173402 0.787831 -0.479699)
(-0.177411 0.795961 -0.46045)
(-0.181829 0.808395 -0.452814)
(-0.203196 0.811759 -0.445237)
(-0.22004 0.779618 -0.415234)
(-0.205702 0.72945 -0.433572)
(-0.217978 0.747341 -0.415689)
(-0.180182 0.793514 -0.462083)
(-0.195231 0.816675 -0.449628)
(-0.197294 0.799958 -0.450978)
(-0.198824 0.782863 -0.446176)
(-0.196218 0.756536 -0.453889)
(-0.346736 0.957676 -0.391359)
(-0.348136 0.940334 -0.383783)
(-0.340858 0.924383 -0.376592)
(-0.368657 0.978802 -0.404645)
(-0.375439 0.982586 -0.411721)
(-0.383681 0.981866 -0.416031)
(-0.363961 0.955849 -0.397639)
(-0.390143 0.979478 -0.416347)
(-0.391717 0.997199 -0.418591)
(-0.400989 1.00075 -0.420243)
(-0.262419 0.499765 -0.309672)
(-0.255536 0.493566 -0.315088)
(-0.271774 0.485112 -0.286225)
(-0.262221 0.473304 -0.297542)
(-0.231607 0.433207 -0.260323)
(-0.244628 0.446221 -0.265876)
(-0.229975 0.459327 -0.31291)
(-0.228239 0.449403 -0.31716)
(-0.277229 0.499806 -0.295521)
(-0.239635 0.446485 -0.291678)
(-0.256818 0.456243 -0.277567)
(-0.25302 0.46857 -0.276083)
(-0.210606 0.399685 -0.278156)
(-0.223344 0.419007 -0.268858)
(-0.242252 0.437827 -0.287736)
(-0.259398 0.466865 -0.290724)
(-0.393869 0.886485 -0.442065)
(-0.381349 0.864408 -0.426144)
(-0.373625 0.82382 -0.419263)
(-0.382108 0.812358 -0.424522)
(-0.361244 0.798228 -0.40369)
(-0.39854 0.869364 -0.449988)
(-0.379664 0.893861 -0.423803)
(-0.400135 0.933869 -0.454807)
(-0.384728 0.892702 -0.42552)
(-0.401371 0.897761 -0.446948)
(-0.396913 0.901941 -0.433074)
(-0.40607 0.93607 -0.462954)
(-0.40824 0.925393 -0.463171)
(-0.406642 0.930613 -0.461479)
(-0.394412 0.82957 -0.436445)
(-0.402426 0.890358 -0.452678)
(-0.265663 0.739769 -0.375032)
(-0.282218 0.765125 -0.388098)
(-0.253999 0.726365 -0.369736)
(-0.234097 0.67702 -0.346632)
(-0.275014 0.777418 -0.394311)
(-0.310009 0.803061 -0.413217)
(-0.314871 0.81627 -0.423484)
(-0.25364 0.733747 -0.377647)
(-0.286034 0.776616 -0.399886)
(-0.280127 0.792408 -0.41769)
(-0.238795 0.70873 -0.368137)
(-0.273004 0.787851 -0.413045)
(-0.333754 0.836943 -0.439319)
(-0.29657 0.811895 -0.42318)
(-0.263845 0.664251 -0.382686)
(-0.255617 0.65055 -0.380596)
(-0.260392 0.610103 -0.373476)
(-0.257377 0.595957 -0.372484)
(-0.286638 0.649051 -0.357863)
(-0.281166 0.639871 -0.365687)
(-0.274682 0.593116 -0.35296)
(-0.300814 0.584851 -0.334331)
(-0.273969 0.639302 -0.364893)
(-0.257646 0.585456 -0.371516)
(-0.261096 0.537803 -0.344343)
(-0.317657 0.614885 -0.344828)
(-0.286927 0.55761 -0.339065)
(-0.257141 0.530652 -0.338211)
(-0.275861 0.552068 -0.324725)
(-0.281586 0.553621 -0.327192)
(-0.277791 0.554521 -0.335904)
(-0.344829 0.904829 -0.491398)
(-0.329522 0.912913 -0.48809)
(-0.350035 0.909795 -0.491132)
(-0.331795 0.893078 -0.480228)
(-0.330122 0.905203 -0.485261)
(-0.349422 0.922577 -0.492431)
(-0.34709 0.923643 -0.495997)
(-0.319256 0.930854 -0.489815)
(-0.31788 0.901846 -0.479596)
(-0.352071 0.907957 -0.49094)
(-0.342851 0.93818 -0.493737)
(-0.340935 0.91548 -0.49387)
(-0.334799 0.890277 -0.48412)
(-0.31829 0.881538 -0.467608)
(-0.142512 0.475555 -0.419481)
(-0.132589 0.433808 -0.39493)
(-0.167772 0.426159 -0.389865)
(-0.166671 0.442452 -0.407034)
(-0.138079 0.427522 -0.388119)
(-0.127467 0.402077 -0.366466)
(-0.152051 0.483855 -0.425961)
(-0.139176 0.463897 -0.414792)
(-0.145115 0.495907 -0.429492)
(-0.17032 0.524806 -0.443759)
(-0.157076 0.447145 -0.402254)
(-0.138697 0.405486 -0.373365)
(-0.178653 0.565692 -0.460895)
(-0.161317 0.449433 -0.399794)
(-0.136916 0.423778 -0.388018)
(-0.169793 0.529803 -0.444388)
(-0.149161 0.479543 -0.418897)
(-0.195346 0.528423 -0.440213)
(-0.18734 0.717789 -0.469406)
(-0.19588 0.74663 -0.470916)
(-0.174113 0.771828 -0.48699)
(-0.197763 0.747806 -0.464532)
(-0.190034 0.704195 -0.468513)
(-0.159874 0.687988 -0.47432)
(-0.151055 0.692123 -0.470179)
(-0.158701 0.754733 -0.471014)
(-0.259541 0.673923 -0.386728)
(-0.254104 0.709602 -0.402401)
(-0.252401 0.676091 -0.394895)
(-0.244241 0.720146 -0.417018)
(-0.254143 0.731367 -0.409841)
(-0.253098 0.703455 -0.403114)
(-0.25736 0.715163 -0.412261)
(-0.257281 0.922729 -0.43182)
(-0.235956 0.904083 -0.431992)
(-0.297901 0.945354 -0.441017)
(-0.251426 0.907885 -0.424641)
(-0.280764 0.931661 -0.435406)
(-0.29494 0.901879 -0.430726)
(-0.259336 0.918019 -0.438028)
(-0.250306 0.922959 -0.450178)
(-0.254932 0.921646 -0.44618)
(-0.253529 0.867962 -0.429122)
(-0.29075 0.879899 -0.420975)
(-0.245191 0.906671 -0.429811)
(-0.251147 0.928954 -0.461311)
(-0.240682 0.921166 -0.449429)
(-0.264164 0.868227 -0.431018)
(-0.279568 0.87539 -0.426935)
(-0.250496 0.895709 -0.438271)
(-0.243209 0.919726 -0.447237)
(-0.407539 0.924513 -0.504955)
(-0.405061 0.928754 -0.50275)
(-0.370588 0.907232 -0.50342)
(-0.376892 0.913155 -0.504667)
(-0.379483 0.907137 -0.492719)
(-0.327867 0.868551 -0.474668)
(-0.30425 0.823146 -0.451254)
(-0.352103 0.881791 -0.489716)
(-0.333451 0.861788 -0.476275)
(-0.317409 0.838255 -0.466907)
(-0.37045 0.902081 -0.49756)
(-0.336026 0.866192 -0.476715)
(-0.411503 0.92385 -0.505104)
(-0.331031 0.854133 -0.473464)
(-0.351072 0.890781 -0.486891)
(-0.340299 0.884702 -0.486531)
(-0.326166 0.864682 -0.470683)
(-0.372486 0.916424 -0.507879)
(-0.400578 0.922767 -0.508364)
(-0.388196 0.910514 -0.502184)
(-0.369866 0.778791 -0.43948)
(-0.357926 0.744825 -0.420598)
(-0.30246 0.623612 -0.362825)
(-0.311415 0.617509 -0.358893)
(-0.304508 0.609735 -0.363461)
(-0.307689 0.605732 -0.35494)
(-0.362432 0.753593 -0.422923)
(-0.361815 0.762125 -0.426657)
(-0.351785 0.715564 -0.399805)
(-0.315656 0.649688 -0.360964)
(-0.318901 0.650323 -0.371413)
(-0.326947 0.666674 -0.370244)
(-0.358412 0.716796 -0.397417)
(-0.342232 0.681594 -0.379033)
(-0.320574 0.650249 -0.362371)
(-0.347918 0.712529 -0.400719)
(-0.351053 0.716454 -0.400736)
(-0.353652 0.853119 -0.491876)
(-0.345333 0.829667 -0.472968)
(-0.349684 0.803552 -0.459875)
(-0.38513 0.851259 -0.485192)
(-0.344583 0.806258 -0.462186)
(-0.327651 0.807155 -0.459634)
(-0.337566 0.82294 -0.476996)
(-0.343293 0.830424 -0.475245)
(-0.358099 0.803149 -0.450823)
(-0.366936 0.841912 -0.485571)
(-0.374917 0.844758 -0.492154)
(-0.362542 0.803413 -0.460343)
(-0.383903 0.827303 -0.48559)
(-0.356161 0.856562 -0.496673)
(-0.364169 0.849073 -0.492908)
(-0.347188 0.82041 -0.465653)
(-0.338356 0.778345 -0.434591)
(-0.353975 0.77886 -0.441283)
(-0.380411 0.844896 -0.488868)
(-0.239001 0.588125 -0.405654)
(-0.255701 0.554155 -0.356054)
(-0.234294 0.534672 -0.388943)
(-0.236441 0.495853 -0.367843)
(-0.234836 0.490044 -0.3595)
(-0.217155 0.463655 -0.361044)
(-0.222669 0.547682 -0.40696)
(-0.214839 0.481206 -0.380078)
(-0.222665 0.595468 -0.423547)
(-0.219738 0.545207 -0.412761)
(-0.221517 0.494191 -0.391748)
(-0.247654 0.555277 -0.375822)
(-0.24701 0.494627 -0.344399)
(-0.215447 0.500204 -0.391468)
(-0.212824 0.564691 -0.423089)
(-0.203764 0.497436 -0.400677)
(-0.247243 0.576542 -0.394107)
(-0.2306 0.606349 -0.423037)
(-0.206026 0.526621 -0.420801)
(-0.219455 0.57567 -0.423071)
(-0.308876 0.963796 -0.434845)
(-0.283486 0.9352 -0.424431)
(-0.265637 0.912741 -0.409352)
(-0.26512 0.908593 -0.405045)
(-0.250414 0.892001 -0.398235)
(-0.229712 0.880293 -0.399195)
(-0.235853 0.916893 -0.417743)
(-0.282293 0.919699 -0.421775)
(-0.261439 0.915036 -0.412044)
(-0.278507 0.933661 -0.428296)
(-0.26642 0.918427 -0.425811)
(-0.239433 0.890762 -0.401939)
(-0.288405 0.935261 -0.427708)
(-0.29038 0.941415 -0.427405)
(-0.271123 0.879395 -0.409722)
(-0.284954 0.924964 -0.422693)
(-0.290907 0.947598 -0.424893)
(-0.28537 0.939636 -0.42865)
(-0.263185 0.938729 -0.433525)
(-0.253265 0.921492 -0.430946)
(-0.267075 0.92886 -0.42826)
(-0.17023 0.425681 -0.348036)
(-0.16295 0.421359 -0.351267)
(-0.182389 0.393968 -0.324256)
(-0.183285 0.406732 -0.318307)
(-0.218885 0.437578 -0.307267)
(-0.213684 0.441681 -0.312926)
(-0.223295 0.459307 -0.320841)
(-0.206366 0.497532 -0.352921)
(-0.170285 0.399858 -0.332439)
(-0.157801 0.395332 -0.333412)
(-0.203342 0.520318 -0.361873)
(-0.15563 0.417759 -0.34862)
(-0.164552 0.483379 -0.374356)
(-0.198428 0.463764 -0.334272)
(-0.176661 0.41163 -0.329137)
(-0.167403 0.422547 -0.345968)
(-0.170203 0.492569 -0.380131)
(-0.155364 0.467511 -0.37201)
(-0.138315 0.430473 -0.376282)
(-0.147692 0.411695 -0.363809)
(-0.135191 0.394709 -0.361124)
(-0.126093 0.431313 -0.381657)
(-0.167738 0.477501 -0.394094)
(-0.172412 0.45409 -0.379745)
(-0.144162 0.422267 -0.373413)
(-0.191658 0.43045 -0.356177)
(-0.182183 0.402423 -0.347148)
(-0.195871 0.430639 -0.358539)
(-0.184656 0.444978 -0.37606)
(-0.167426 0.538734 -0.43805)
(-0.183204 0.552319 -0.431227)
(-0.16889 0.483748 -0.400419)
(-0.182348 0.440907 -0.365815)
(-0.40176 0.921709 -0.48027)
(-0.378317 0.883829 -0.469898)
(-0.38954 0.920193 -0.4958)
(-0.361285 0.871735 -0.471021)
(-0.396421 0.918725 -0.479858)
(-0.409061 0.9359 -0.482359)
(-0.434845 0.956559 -0.48171)
(-0.435683 0.955179 -0.486688)
(-0.441122 0.94132 -0.488388)
(-0.428288 0.941724 -0.502553)
(-0.424049 0.931138 -0.49488)
(-0.425572 0.930224 -0.492966)
(-0.422865 0.939776 -0.500025)
(-0.397192 0.932131 -0.509646)
(-0.385995 0.913408 -0.494161)
(-0.411891 0.936752 -0.490299)
(-0.400208 0.93046 -0.495752)
(-0.292166 0.583842 -0.325425)
(-0.337768 0.800862 -0.384719)
(-0.331514 0.685791 -0.352819)
(-0.321047 0.687841 -0.337898)
(-0.340624 0.720931 -0.36956)
(-0.33414 0.625223 -0.337377)
(-0.293028 0.604544 -0.328292)
(-0.338641 0.652533 -0.354731)
(-0.304153 0.736156 -0.358851)
(-0.297652 0.674612 -0.339582)
(-0.274219 0.551893 -0.303265)
(-0.311293 0.617297 -0.331556)
(-0.337556 0.623206 -0.33548)
(-0.270002 0.615604 -0.336467)
(-0.284507 0.650104 -0.332715)
(-0.307854 0.619847 -0.329491)
(-0.274956 0.612352 -0.324381)
(-0.34369 0.654605 -0.351092)
(-0.346785 0.719306 -0.368094)
(-0.333588 0.710405 -0.363118)
(-0.316549 0.732023 -0.351252)
(-0.271385 0.667953 -0.341178)
(-0.290345 0.637589 -0.334997)
(-0.220327 0.412704 -0.246138)
(-0.201937 0.372463 -0.241673)
(-0.189304 0.36708 -0.231698)
(-0.223176 0.448034 -0.24487)
(-0.188197 0.365894 -0.210999)
(-0.248639 0.495679 -0.263582)
(-0.318157 0.974763 -0.439384)
(-0.334195 0.973746 -0.445453)
(-0.315097 0.955086 -0.42336)
(-0.2893 0.912871 -0.405381)
(-0.297752 0.89105 -0.39739)
(-0.273858 0.8387 -0.375194)
(-0.300725 0.947967 -0.423157)
(-0.277323 0.880493 -0.388192)
(-0.280667 0.91107 -0.404008)
(-0.146536 0.301499 -0.253508)
(-0.156813 0.318409 -0.275475)
(-0.15756 0.333365 -0.297392)
(-0.156915 0.339836 -0.307935)
(-0.149082 0.316645 -0.289449)
(-0.137114 0.289197 -0.252126)
(-0.141255 0.290286 -0.250556)
(-0.145194 0.294085 -0.255259)
(-0.133903 0.280713 -0.243103)
(-0.171097 0.335311 -0.269006)
(-0.168264 0.335951 -0.27516)
(-0.215277 0.429199 -0.310511)
(-0.201287 0.382089 -0.279262)
(-0.187661 0.399096 -0.331073)
(-0.184937 0.392829 -0.327389)
(-0.153268 0.327641 -0.295217)
(-0.157611 0.31651 -0.256551)
(-0.185565 0.398778 -0.338116)
(-0.200794 0.40352 -0.304697)
(-0.193731 0.363462 -0.277795)
(-0.202383 0.405326 -0.315132)
(-0.170407 0.327856 -0.269473)
(-0.183253 0.409966 -0.345451)
(-0.194315 0.450373 -0.368268)
(-0.17633 0.463429 -0.396231)
(-0.183789 0.507492 -0.424946)
(-0.183244 0.517333 -0.42807)
(-0.191102 0.501619 -0.40231)
(-0.192183 0.428444 -0.353265)
(-0.204764 0.483352 -0.390844)
(-0.165265 0.480659 -0.408294)
(-0.192412 0.499447 -0.407879)
(-0.13792 0.414868 -0.388025)
(-0.14803 0.454058 -0.409215)
(-0.146654 0.394436 -0.362035)
(-0.151462 0.375109 -0.342704)
(-0.140839 0.36386 -0.335222)
(-0.130375 0.425858 -0.390859)
(-0.1258 0.388488 -0.365251)
(-0.142548 0.449453 -0.401377)
(-0.135918 0.438194 -0.393464)
(-0.189448 0.446051 -0.368063)
(-0.115312 0.360811 -0.345438)
(-0.141635 0.363562 -0.333827)
(-0.125166 0.347477 -0.33025)
(-0.12722 0.377163 -0.348357)
(-0.182193 0.427846 -0.359913)
(-0.150114 0.391202 -0.354152)
(-0.388743 0.876236 -0.510037)
(-0.395124 0.904316 -0.519691)
(-0.394305 0.866135 -0.500241)
(-0.394349 0.896864 -0.512438)
(-0.387287 0.897698 -0.527742)
(-0.385495 0.857185 -0.495378)
(-0.392079 0.864398 -0.498325)
(-0.362676 0.858955 -0.505116)
(-0.374158 0.868679 -0.513362)
(-0.378944 0.887912 -0.514515)
(-0.38324 0.881854 -0.510392)
(-0.396624 0.91039 -0.521669)
(-0.37682 0.86031 -0.50008)
(-0.377157 0.859184 -0.501379)
(-0.370536 0.874741 -0.516255)
(-0.367305 0.87474 -0.515455)
(-0.346203 0.829431 -0.483795)
(-0.365035 0.874195 -0.509842)
(-0.366594 0.867352 -0.503286)
(-0.377731 0.889013 -0.521918)
(-0.168028 0.810462 -0.448656)
(-0.156626 0.761974 -0.422873)
(-0.154758 0.761197 -0.424915)
(-0.129769 0.672651 -0.388269)
(-0.126272 0.696427 -0.405709)
(-0.136104 0.736223 -0.415037)
(-0.135388 0.726935 -0.434599)
(-0.118737 0.674153 -0.401922)
(-0.155141 0.772926 -0.450218)
(-0.139785 0.747064 -0.444242)
(-0.134997 0.731624 -0.438722)
(-0.143914 0.763646 -0.457887)
(-0.157338 0.79043 -0.471975)
(-0.218275 0.879905 -0.46222)
(-0.210611 0.868311 -0.447107)
(-0.188726 0.8272 -0.430792)
(-0.19272 0.847025 -0.427631)
(-0.193132 0.828821 -0.423076)
(-0.191044 0.79806 -0.404468)
(-0.185678 0.833228 -0.431363)
(-0.199135 0.84307 -0.421221)
(-0.242179 0.890446 -0.457615)
(-0.244468 0.883256 -0.46273)
(-0.20417 0.864593 -0.457226)
(-0.202933 0.837231 -0.416109)
(-0.219828 0.865165 -0.423016)
(-0.242798 0.865954 -0.451062)
(-0.246839 0.897652 -0.449572)
(-0.216239 0.883369 -0.448653)
(-0.217297 0.877441 -0.4621)
(-0.224351 0.878874 -0.435461)
(-0.248997 0.905243 -0.454325)
(-0.253946 0.891651 -0.454515)
(-0.24868 0.912458 -0.449668)
(-0.392065 0.876456 -0.502895)
(-0.386082 0.864865 -0.495624)
(-0.384471 0.848892 -0.482378)
(-0.393605 0.866323 -0.495467)
(-0.373457 0.869119 -0.506929)
(-0.340057 0.827949 -0.463535)
(-0.36726 0.851943 -0.487001)
(-0.370955 0.864618 -0.495868)
(-0.372602 0.860732 -0.48949)
(-0.346531 0.837053 -0.482335)
(-0.332836 0.830114 -0.480129)
(-0.382464 0.883202 -0.512386)
(-0.388401 0.884941 -0.503243)
(-0.403452 0.915444 -0.522393)
(-0.37088 0.879545 -0.517325)
(-0.150955 0.764584 -0.445347)
(-0.140508 0.73208 -0.423788)
(-0.146575 0.744273 -0.429579)
(-0.180911 0.823595 -0.473612)
(-0.18258 0.828028 -0.474014)
(-0.166699 0.808816 -0.450402)
(-0.188809 0.822603 -0.461347)
(-0.198219 0.839255 -0.456304)
(-0.173574 0.801681 -0.440127)
(-0.166549 0.754923 -0.43026)
(-0.168605 0.790041 -0.432034)
(-0.156577 0.741115 -0.41688)
(-0.178768 0.791316 -0.42966)
(-0.164535 0.74492 -0.409843)
(-0.176869 0.793869 -0.429431)
(-0.336204 0.670784 -0.358382)
(-0.321356 0.643052 -0.354164)
(-0.308111 0.643382 -0.347777)
(-0.367173 0.731347 -0.397031)
(-0.381994 0.755864 -0.415133)
(-0.345484 0.651441 -0.353379)
(-0.346423 0.658319 -0.355368)
(-0.356673 0.687483 -0.371801)
(-0.368357 0.748696 -0.407976)
(-0.316679 0.614649 -0.34257)
(-0.314707 0.621574 -0.348721)
(-0.357903 0.691482 -0.387023)
(-0.385175 0.758146 -0.421706)
(-0.317567 0.609778 -0.345511)
(-0.34032 0.846589 -0.438817)
(-0.326187 0.808267 -0.420854)
(-0.354252 0.879375 -0.453789)
(-0.350041 0.860669 -0.441994)
(-0.333971 0.872885 -0.429999)
(-0.351996 0.901777 -0.441466)
(-0.346087 0.871919 -0.441445)
(-0.376853 0.928776 -0.467648)
(-0.377084 0.950997 -0.46592)
(-0.37529 0.952596 -0.469726)
(-0.371016 0.944392 -0.467062)
(-0.335201 0.835347 -0.420021)
(-0.326421 0.848371 -0.424829)
(-0.345981 0.907002 -0.441425)
(-0.334887 0.852734 -0.431163)
(-0.318977 0.799858 -0.409082)
(-0.374224 0.934392 -0.466459)
(-0.384872 0.945937 -0.468428)
(-0.360106 0.892208 -0.452846)
(-0.325555 0.786323 -0.440587)
(-0.331652 0.764731 -0.440723)
(-0.341579 0.83479 -0.4679)
(-0.348864 0.858468 -0.479562)
(-0.314556 0.761523 -0.429415)
(-0.322197 0.745227 -0.422957)
(-0.367358 0.87215 -0.493082)
(-0.353659 0.807112 -0.466885)
(-0.332496 0.782301 -0.443615)
(-0.367594 0.821475 -0.476291)
(-0.347041 0.783064 -0.454083)
(-0.351312 0.846896 -0.470639)
(-0.33999 0.748636 -0.431131)
(-0.332349 0.763251 -0.428786)
(-0.416551 0.957809 -0.489609)
(-0.41613 0.947215 -0.486543)
(-0.427342 0.949804 -0.498176)
(-0.418044 0.94657 -0.486283)
(-0.412912 0.964873 -0.479531)
(-0.406758 0.955114 -0.475203)
(-0.411723 0.965854 -0.473327)
(-0.419725 0.953316 -0.482809)
(-0.415275 0.961758 -0.477979)
(-0.4119 0.98196 -0.471937)
(-0.340812 0.756214 -0.394521)
(-0.345365 0.753543 -0.394987)
(-0.304153 0.753454 -0.395126)
(-0.319712 0.752651 -0.403831)
(-0.350234 0.73233 -0.397004)
(-0.301537 0.71879 -0.382492)
(-0.355387 0.741192 -0.397899)
(-0.286422 0.661588 -0.354602)
(-0.310517 0.623827 -0.347396)
(-0.336689 0.640175 -0.350446)
(-0.333184 0.741344 -0.398018)
(-0.356822 0.730125 -0.395182)
(-0.357994 0.729073 -0.398369)
(-0.324355 0.665203 -0.368879)
(-0.357926 0.690105 -0.38138)
(-0.337857 0.679327 -0.378634)
(-0.23458 0.88885 -0.480889)
(-0.223952 0.880531 -0.487569)
(-0.227472 0.861854 -0.483522)
(-0.239526 0.861201 -0.481934)
(-0.19939 0.839988 -0.481837)
(-0.207132 0.852248 -0.480231)
(-0.212619 0.872629 -0.486001)
(-0.228483 0.818658 -0.476306)
(-0.231931 0.814998 -0.473334)
(-0.201274 0.848329 -0.479922)
(-0.196071 0.840551 -0.486639)
(-0.199128 0.833977 -0.485719)
(-0.197187 0.834342 -0.489026)
(-0.198232 0.844713 -0.489033)
(-0.213298 0.864637 -0.488105)
(-0.231518 0.847316 -0.48836)
(-0.211062 0.851887 -0.486389)
(-0.130414 0.705112 -0.466401)
(-0.129137 0.675716 -0.450662)
(-0.123921 0.671518 -0.470361)
(-0.104345 0.655791 -0.45106)
(-0.121156 0.684201 -0.475556)
(-0.170844 0.72581 -0.505487)
(-0.164278 0.719648 -0.50754)
(-0.179898 0.757017 -0.503574)
(-0.183557 0.769505 -0.506218)
(-0.128367 0.698606 -0.461227)
(-0.147516 0.744783 -0.487912)
(-0.175076 0.753023 -0.514664)
(-0.173483 0.783495 -0.503137)
(-0.171599 0.760487 -0.504019)
(-0.144169 0.737424 -0.470374)
(-0.146033 0.738732 -0.476038)
(-0.133891 0.711443 -0.483746)
(-0.167137 0.79256 -0.510413)
(-0.182165 0.801102 -0.508632)
(-0.161856 0.770801 -0.514297)
(-0.270019 0.864809 -0.426733)
(-0.290346 0.926833 -0.453867)
(-0.266622 0.921629 -0.450891)
(-0.286483 0.933983 -0.449967)
(-0.280581 0.935237 -0.460185)
(-0.245815 0.843945 -0.415012)
(-0.233579 0.775748 -0.374821)
(-0.307295 0.925179 -0.44655)
(-0.282265 0.873283 -0.419681)
(-0.307723 0.923052 -0.448182)
(-0.286379 0.870742 -0.41793)
(-0.286884 0.935997 -0.45387)
(-0.301822 0.939343 -0.458709)
(-0.257066 0.861475 -0.419592)
(-0.261739 0.878889 -0.431253)
(-0.267205 0.837622 -0.403356)
(-0.305231 0.931048 -0.448861)
(-0.27631 0.860124 -0.415253)
(-0.251165 0.796166 -0.386737)
(-0.191615 0.798017 -0.507372)
(-0.178026 0.790001 -0.506674)
(-0.17176 0.774839 -0.511729)
(-0.164975 0.753498 -0.515644)
(-0.180447 0.795456 -0.507092)
(-0.169657 0.798277 -0.499561)
(-0.173198 0.775428 -0.520661)
(-0.171201 0.760236 -0.511064)
(-0.137586 0.711897 -0.4956)
(-0.138247 0.710736 -0.486816)
(-0.170378 0.778784 -0.502675)
(-0.122828 0.691817 -0.471199)
(-0.144243 0.755205 -0.488083)
(-0.141829 0.728393 -0.494288)
(-0.179577 0.794909 -0.506289)
(-0.13868 0.730375 -0.469313)
(-0.140109 0.734735 -0.473539)
(-0.125265 0.686061 -0.479127)
(-0.117106 0.670575 -0.458845)
(-0.142846 0.735284 -0.484899)
(-0.139501 0.724668 -0.469211)
(-0.132636 0.704182 -0.455477)
(-0.37534 0.871163 -0.514284)
(-0.380699 0.888198 -0.51611)
(-0.371887 0.847738 -0.494777)
(-0.36763 0.80679 -0.467106)
(-0.376757 0.889393 -0.521339)
(-0.375706 0.865466 -0.513524)
(-0.367462 0.849298 -0.493225)
(-0.371064 0.824194 -0.477041)
(-0.361903 0.816108 -0.468453)
(-0.372636 0.91011 -0.520319)
(-0.373032 0.880273 -0.515951)
(-0.370877 0.897004 -0.507559)
(-0.25959 0.491518 -0.286691)
(-0.268388 0.495524 -0.296861)
(-0.287407 0.538777 -0.310968)
(-0.295848 0.560978 -0.312914)
(-0.254276 0.466617 -0.300329)
(-0.250443 0.465022 -0.275944)
(-0.277608 0.513892 -0.313367)
(-0.260734 0.485281 -0.315859)
(-0.257789 0.486487 -0.308348)
(-0.279923 0.53909 -0.307417)
(-0.2801 0.741831 -0.427676)
(-0.263824 0.690501 -0.405246)
(-0.256917 0.68139 -0.402094)
(-0.196838 0.572352 -0.35186)
(-0.211266 0.586321 -0.361611)
(-0.169292 0.394075 -0.248339)
(-0.163924 0.38568 -0.24595)
(-0.149517 0.323227 -0.267251)
(-0.158966 0.326381 -0.26856)
(-0.157337 0.324323 -0.261198)
(-0.235706 0.751071 -0.385877)
(-0.250616 0.762213 -0.393816)