/*--------------------------------*- C++ -*----------------------------------*\
| =========                 |                                                 |
| \\      /  F ield         | OpenFOAM: The Open Source CFD Toolbox           |
|  \\    /   O peration     | Version:  v1612+                                |
|   \\  /    A nd           | Web:      www.OpenFOAM.com                      |
|    \\/     M anipulation  |                                                 |
\*---------------------------------------------------------------------------*/
FoamFile
{
    version     2.0;
    format      ascii;
    class       volScalarField;
    location    "100";
    object      p;
}
// * * * * * * * * * * * * * * * * * * * * * * * * * * * * * * * * * * * * * //

dimensions      [0 2 -2 0 0 0 0];

internalField   nonuniform List<scalar> 
21121
(
2.35072
2.37745
2.36081
2.37203
2.35612
2.34682
2.39748
2.42792
2.37599
2.40251
2.34794
2.46883
2.42253
2.41723
2.41417
2.41118
2.39091
2.38928
2.39378
2.47488
2.38722
2.38549
2.35177
2.40662
2.40559
2.38777
2.39142
2.39859
2.3726
2.4027
2.36526
2.39044
2.38218
2.35109
2.34503
2.36817
2.37206
2.34122
2.35022
2.40841
2.34969
2.40007
2.41773
2.41721
2.38141
2.35428
2.36741
2.36639
2.4294
2.42763
2.34736
2.32583
2.40571
2.42751
2.37003
2.33001
2.4242
2.36558
2.46883
2.44772
2.37332
2.37013
2.45184
2.45841
2.43951
2.36868
2.36401
2.35631
2.31444
2.38717
2.37603
2.39358
2.38392
2.36856
2.39398
2.44211
2.36786
2.43265
2.40047
2.39781
2.40411
2.40239
2.36955
2.37967
2.36448
2.44545
2.44644
2.45642
2.45799
2.45996
2.46173
2.42247
2.38753
2.38426
2.35607
2.43125
2.43455
2.36982
2.33847
2.33668
2.40181
2.3579
2.35002
2.41918
2.41651
2.31397
2.42661
2.3986
2.4042
2.40185
2.47284
2.44797
2.34683
2.40278
2.42972
2.46787
2.48028
2.47477
2.37684
2.36889
2.37231
2.36473
2.31623
2.31955
2.32001
2.42412
2.36422
2.38726
2.38099
2.41057
2.41518
2.4076
2.404
2.41761
2.43317
2.46664
2.34368
2.34654
2.36902
2.4075
2.35291
2.43616
2.36952
2.3828
2.38249
2.38596
2.36275
2.40619
2.40184
2.39063
2.36985
2.37802
2.33056
2.42479
2.42797
2.43866
2.38408
2.38372
2.35205
2.35045
2.34585
2.3466
2.3714
2.46733
2.47224
2.42507
2.42781
2.40965
2.31796
2.32065
2.33954
2.33526
2.40709
2.31277
2.31393
2.43219
2.39208
2.39159
2.39613
2.38297
2.38888
2.41277
2.41563
2.35443
2.36405
2.38337
2.33866
2.38529
2.33947
2.47527
2.46692
2.36185
2.43558
2.43113
2.468
2.48311
2.47916
2.4753
2.48507
2.48063
2.39305
2.39127
2.36628
2.36669
2.35585
2.36246
2.37093
2.35249
2.33139
2.37697
2.40225
2.37871
2.37589
2.38455
2.42158
2.42017
2.37694
2.36015
2.33217
2.3383
2.33475
2.33539
2.33446
2.3329
2.32577
2.3248
2.43835
2.42186
2.42986
2.35083
2.35246
2.35688
2.41815
2.41356
2.41241
2.41546
2.41622
2.3918
2.37076
2.38935
2.35435
2.34912
2.342
2.41725
2.40738
2.35805
2.36583
2.35077
2.34312
2.40396
2.42035
2.36757
2.36283
2.42758
2.43586
2.43906
2.4399
2.4533
2.43395
2.42895
2.34555
2.3475
2.34932
2.34512
2.34483
2.34734
2.34887
2.34751
2.35398
2.34689
2.35024
2.34548
2.36058
2.35402
2.35915
2.35393
2.35023
2.35132
2.34474
2.37318
2.32377
2.42082
2.41873
2.42072
2.42588
2.41105
2.40849
2.31739
2.34427
2.35052
2.36764
2.47157
2.35164
2.35901
2.35894
2.34813
2.35671
2.43017
2.36551
2.36964
2.37495
2.40877
2.41127
2.43944
2.44519
2.43973
2.44806
2.44327
2.45659
2.44191
2.43631
2.45421
2.4572
2.37833
2.40447
2.45467
2.38103
2.40493
2.35802
2.37322
2.34845
2.40991
2.41343
2.38554
2.3121
2.32501
2.32864
2.39728
2.43046
2.42257
2.34897
2.4349
2.34716
2.35814
2.3602
2.34819
2.3779
2.35464
2.36552
2.41933
2.35202
2.35211
2.31793
2.31542
2.32971
2.3287
2.44196
2.44939
2.4486
2.4385
2.4487
2.44649
2.44415
2.45655
2.43549
2.40274
2.44678
2.43616
2.41706
2.38518
2.37826
2.39521
2.34694
2.34259
2.37134
2.39872
2.38927
2.39084
2.3627
2.37121
2.37588
2.45021
2.46442
2.36012
2.35682
2.41195
2.40201
2.39949
2.32143
2.32595
2.32164
2.37281
2.39376
2.38196
2.36197
2.35515
2.35078
2.3541
2.35323
2.36293
2.32113
2.32886
2.32948
2.32646
2.34491
2.45468
2.38951
2.33205
2.38477
2.38045
2.3926
2.44039
2.32723
2.43773
2.44824
2.44599
2.3865
2.39947
2.3552
2.34062
2.33966
2.39881
2.37116
2.37944
2.38499
2.37908
2.40129
2.36069
2.36826
2.4042
2.39823
2.3846
2.38813
2.38985
2.34714
2.34097
2.44108
2.46605
2.41022
2.36862
2.4665
2.47073
2.40517
2.33801
2.33035
2.32778
2.32155
2.3307
2.32851
2.32844
2.33311
2.33496
2.41531
2.33146
2.38581
2.37728
2.33248
2.33123
2.33354
2.32553
2.35391
2.35433
2.34577
2.3456
2.33342
2.3149
2.31686
2.40779
2.45755
2.47771
2.37892
2.38185
2.36562
2.32277
2.38664
2.383
2.38486
2.36422
2.44908
2.45364
2.3225
2.32369
2.4712
2.41947
2.3624
2.38051
2.44445
2.41729
2.36905
2.38538
2.37673
2.38392
2.37447
2.32904
2.32984
2.37769
2.36342
2.39436
2.38415
2.42837
2.38633
2.39883
2.40975
2.40638
2.33001
2.41714
2.41591
2.3197
2.35388
2.39091
2.38204
2.35472
2.34311
2.30315
2.30299
2.37197
2.40051
2.41876
2.41606
2.41494
2.41066
2.36452
2.42349
2.47051
2.48142
2.46426
2.40266
2.41722
2.38909
2.40036
2.44069
2.4447
2.43789
2.36903
2.36355
2.45181
2.45871
2.46315
2.35345
2.37227
2.31733
2.38933
2.39143
2.38251
2.44934
2.38308
2.36426
2.37235
2.36365
2.46661
2.41577
2.37761
2.41176
2.31968
2.35983
2.31319
2.46841
2.41664
2.37989
2.35456
2.36265
2.47394
2.40887
2.40626
2.42265
2.41802
2.4084
2.39442
2.34374
2.34205
2.3739
2.47075
2.45056
2.43865
2.43685
2.43926
2.4312
2.39916
2.36445
2.36138
2.37811
2.38754
2.43788
2.44665
2.31787
2.30473
2.39486
2.40065
2.37537
2.43403
2.42991
2.43631
2.35732
2.3629
2.4371
2.42133
2.44805
2.36905
2.37393
2.35396
2.38459
2.36987
2.37824
2.3826
2.38505
2.44553
2.34342
2.35464
2.3919
2.43075
2.43053
2.33918
2.3795
2.4324
2.41612
2.43577
2.36766
2.37307
2.39783
2.39789
2.46307
2.45264
2.43693
2.3844
2.38649
2.38805
2.33433
2.33921
2.35381
2.35877
2.41701
2.36561
2.35247
2.40462
2.41399
2.3917
2.4126
2.41117
2.32717
2.3594
2.35566
2.35693
2.34769
2.34621
2.38244
2.42053
2.37475
2.37936
2.39864
2.39586
2.38435
2.32976
2.36168
2.39523
2.41936
2.40202
2.31052
2.47753
2.44718
2.43057
2.42708
2.43528
2.41101
2.41791
2.34001
2.32306
2.36535
2.38366
2.38463
2.33225
2.34119
2.36906
2.3559
2.46434
2.33333
2.33155
2.32096
2.32589
2.3267
2.32444
2.35468
2.3583
2.35457
2.34977
2.35243
2.39548
2.39137
2.34022
2.33588
2.43625
2.42624
2.41401
2.42387
2.40863
2.41566
2.42823
2.45019
2.4491
2.43996
2.36925
2.44867
2.3192
2.36513
2.37077
2.33496
2.36367
2.34574
2.37088
2.34967
2.34543
2.40158
2.39245
2.42952
2.39352
2.45396
2.37596
2.38753
2.43555
2.44794
2.34852
2.37915
2.39512
2.36834
2.38358
2.39166
2.40715
2.45896
2.46552
2.44793
2.45428
2.47937
2.42811
2.39307
2.31858
2.2982
2.35512
2.37072
2.36454
2.34315
2.34457
2.33433
2.34921
2.34369
2.35506
2.33989
2.33876
2.35921
2.35858
2.34832
2.34514
2.35781
2.34463
2.3704
2.33188
2.35817
2.35103
2.33945
2.4356
2.36767
2.38317
2.36549
2.37135
2.33189
2.31005
2.37024
2.37666
2.38467
2.37233
2.34896
2.3287
2.3297
2.33414
2.35789
2.33055
2.33541
2.38562
2.37644
2.4013
2.39813
2.39236
2.42314
2.38159
2.39311
2.40745
2.3938
2.38551
2.38297
2.36833
2.39858
2.36352
2.3699
2.39549
2.40242
2.43963
2.44047
2.43389
2.42393
2.44542
2.42605
2.3993
2.39611
2.42365
2.40796
2.41401
2.40523
2.39788
2.4332
2.4241
2.40256
2.42084
2.43166
2.48422
2.44285
2.41801
2.41984
2.43956
2.44467
2.46138
2.40175
2.36372
2.38979
2.37509
2.3879
2.35987
2.34256
2.35656
2.36949
2.35347
2.3643
2.37159
2.36513
2.40588
2.41481
2.41305
2.39002
2.42799
2.4239
2.38702
2.38501
2.36376
2.40082
2.37373
2.383
2.37403
2.38759
2.3602
2.36801
2.40084
2.37227
2.36212
2.38392
2.41818
2.38794
2.37939
2.38828
2.44682
2.43937
2.46584
2.44752
2.45888
2.41278
2.39859
2.3902
2.38049
2.41357
2.37821
2.40601
2.36478
2.45633
2.47746
2.45954
2.47033
2.45408
2.45468
2.46769
2.32044
2.31675
2.37364
2.3775
2.37377
2.36737
2.36823
2.36248
2.35844
2.36111
2.36136
2.32283
2.32566
2.33213
2.35925
2.35291
2.35995
2.35224
2.35831
2.34778
2.35081
2.34707
2.34781
2.35051
2.36407
2.36066
2.37514
2.36912
2.37129
2.35577
2.38019
2.36517
2.3652
2.36639
2.36794
2.3449
2.35337
2.36034
2.3584
2.35915
2.3574
2.35474
2.35314
2.36069
2.43236
2.424
2.42961
2.43167
2.39705
2.39111
2.4093
2.34307
2.34271
2.3384
2.36969
2.32148
2.32708
2.32115
2.32449
2.3764
2.39308
2.38058
2.39367
2.3902
2.39266
2.39679
2.42971
2.40919
2.41759
2.40817
2.43052
2.42512
2.41123
2.39445
2.41011
2.40689
2.41331
2.39649
2.39597
2.40789
2.44293
2.43577
2.45264
2.44905
2.37046
2.39016
2.36731
2.38299
2.37342
2.38243
2.38064
2.3903
2.36807
2.38691
2.3857
2.39235
2.38134
2.43686
2.42786
2.44166
2.43885
2.42472
2.43124
2.43687
2.44063
2.43465
2.4437
2.43454
2.47059
2.44611
2.46093
2.44439
2.45906
2.45499
2.44964
2.36854
2.36234
2.36291
2.3442
2.34408
2.35276
2.37987
2.38294
2.37595
2.37184
2.39196
2.38298
2.37572
2.37372
2.37591
2.39017
2.39142
2.37479
2.38269
2.37328
2.37353
2.36896
2.37683
2.37343
2.37252
2.39133
2.38292
2.39312
2.39603
2.37556
2.3806
2.37922
2.40123
2.40762
2.39782
2.3965
2.392
2.41003
2.40409
2.47816
2.46829
2.46946
2.43718
2.4243
2.41062
2.43948
2.44222
2.45787
2.44791
2.46159
2.43919
2.44492
2.46228
2.45524
2.46411
2.45689
2.46239
2.45933
2.45951
2.4681
2.4515
2.45607
2.48353
2.4508
2.47051
2.43712
2.42746
2.42992
2.4245
2.40915
2.3148
2.33102
2.31735
2.32083
2.31585
2.3205
2.31261
2.30843
2.30987
2.31306
2.31475
2.31498
2.31266
2.34634
2.35305
2.35781
2.3577
2.36838
2.367
2.36316
2.35615
2.35962
2.3595
2.37076
2.34823
2.36863
2.36288
2.35961
2.36354
2.36528
2.37489
2.34692
2.33818
2.35043
2.34365
2.32987
2.34789
2.33406
2.31934
2.32035
2.31135
2.34147
2.35459
2.35212
2.35464
2.35543
2.35222
2.35092
2.34582
2.35292
2.34017
2.34204
2.33657
2.33213
2.34292
2.34448
2.33054
2.34265
2.33601
2.32734
2.33347
2.33409
2.3326
2.33434
2.34799
2.34098
2.33995
2.33671
2.34184
2.33809
2.34107
2.34805
2.33999
2.34086
2.34466
2.34004
2.33972
2.32654
2.32762
2.33418
2.33122
2.33243
2.33551
2.34923
2.35566
2.35492
2.35162
2.34788
2.35754
2.35795
2.35375
2.35658
2.36049
2.32681
2.34272
2.35219
2.34401
2.34403
2.33467
2.3736
2.37944
2.33257
2.3386
2.33072
2.33047
2.32856
2.33095
2.35168
2.35816
2.35698
2.35811
2.35193
2.35013
2.35702
2.33724
2.35533
2.35019
2.34802
2.34421
2.34807
2.34336
2.35976
2.35863
2.35712
2.35012
2.36557
2.36238
2.35193
2.33992
2.34152
2.33478
2.34526
2.33288
2.33378
2.34114
2.34596
2.36204
2.3427
2.34721
2.35217
2.35349
2.34368
2.3539
2.35263
2.33077
2.34686
2.34388
2.34747
2.34237
2.33701
2.36379
2.36487
2.37101
2.35606
2.37746
2.3741
2.37224
2.38823
2.36399
2.37515
2.37078
2.35675
2.3559
2.36459
2.36846
2.32706
2.3369
2.33808
2.33077
2.3572
2.3492
2.36659
2.35988
2.36331
2.34147
2.36202
2.34662
2.34932
2.35363
2.34695
2.33497
2.3511
2.35153
2.35782
2.34949
2.36383
2.35707
2.41769
2.43823
2.44775
2.4314
2.43024
2.3618
2.35047
2.34966
2.36022
2.35507
2.35784
2.34313
2.35707
2.35028
2.37773
2.38464
2.38102
2.34667
2.38466
2.36871
2.37395
2.35117
2.35903
2.36468
2.38213
2.40026
2.359
2.36088
2.40337
2.38612
2.37215
2.39744
2.39107
2.376
2.34215
2.3357
2.33767
2.33395
2.33707
2.33715
2.32301
2.31781
2.32
2.33858
2.32758
2.32316
2.32263
2.32763
2.32742
2.3214
2.31048
2.32114
2.31848
2.3312
2.32556
2.32881
2.32393
2.32938
2.32837
2.37674
2.38531
2.38105
2.38699
2.38377
2.37538
2.37938
2.35396
2.36526
2.36927
2.37202
2.36258
2.38295
2.36427
2.37688
2.38167
2.38891
2.38966
2.38979
2.37945
2.37376
2.38405
2.38246
2.37295
2.38139
2.3686
2.37039
2.38413
2.3152
2.31493
2.32624
2.32881
2.33304
2.32263
2.32122
2.3185
2.35871
2.34764
2.36488
2.35937
2.35882
2.36909
2.35226
2.33644
2.33921
2.34287
2.3392
2.34208
2.32718
2.32968
2.3344
2.34727
2.35458
2.34176
2.34939
2.34983
2.34438
2.33684
2.33665
2.32986
2.35212
2.33823
2.33936
2.33924
2.33957
2.35683
2.34385
2.32786
2.33087
2.35635
2.36573
2.35735
2.36089
2.34284
2.3446
2.30777
2.32643
2.31628
2.31921
2.3178
2.31811
2.30834
2.31284
2.36871
2.38675
2.35596
2.37009
2.36391
2.37032
2.36058
2.371
2.3748
2.37788
2.37473
2.33152
2.34778
2.35567
2.33758
2.3405
2.35795
2.34438
2.35637
2.39829
2.409
2.41337
2.4114
2.38552
2.38403
2.35847
2.37225
2.37307
2.3733
2.37175
2.39142
2.38378
2.39852
2.38849
2.3972
2.39471
2.4126
2.39308
2.4133
2.40241
2.39906
2.40841
2.40659
2.39626
2.40872
2.38396
2.38314
2.39201
2.39536
2.38229
2.38183
2.39293
2.43486
2.42614
2.42493
2.43218
2.41754
2.41864
2.4072
2.40362
2.3985
2.41065
2.42938
2.42154
2.42658
2.41071
2.42769
2.43188
2.43461
2.39485
2.37453
2.38807
2.3842
2.3811
2.3704
2.37402
2.38713
2.39149
2.40912
2.39252
2.39119
2.39285
2.40167
2.39652
2.39194
2.40716
2.40285
2.40232
2.40146
2.38488
2.39061
2.39657
2.40249
2.39594
2.38155
2.39283
2.38128
2.37467
2.39012
2.38988
2.37578
2.3702
2.36088
2.36724
2.36608
2.37456
2.37668
2.36271
2.36291
2.36244
2.35597
2.36899
2.35495
2.35719
2.36817
2.37058
2.39533
2.3884
2.38706
2.38256
2.38761
2.38214
2.39037
2.36797
2.36569
2.37453
2.37623
2.3735
2.37668
2.39733
2.38023
2.36874
2.37835
2.38661
2.38365
2.37948
2.36693
2.38882
2.3802
2.3823
2.37454
2.37815
2.37761
2.39914
2.40536
2.37931
2.39564
2.38694
2.39188
2.3915
2.42242
2.44289
2.43475
2.4475
2.43164
2.43447
2.44348
2.41399
2.43792
2.43359
2.43226
2.42776
2.43382
2.42784
2.44927
2.44636
2.44157
2.43451
2.45269
2.44879
2.43704
2.41188
2.41389
2.40999
2.42233
2.40349
2.40534
2.42097
2.43195
2.45207
2.41877
2.43122
2.4279
2.43542
2.42619
2.44234
2.43524
2.40775
2.42527
2.42744
2.42935
2.42466
2.42534
2.42971
2.37895
2.40948
2.387
2.3864
2.38094
2.39751
2.40005
2.39695
2.41659
2.39672
2.40953
2.39037
2.38433
2.41144
2.39422
2.3965
2.43474
2.44122
2.45105
2.42769
2.44853
2.43197
2.43869
2.43005
2.43727
2.39062
2.39554
2.41079
2.40413
2.40969
2.39082
2.39782
2.40662
2.43132
2.43028
2.41194
2.44
2.4132
2.41062
2.42558
2.4189
2.42396
2.42621
2.42627
2.39322
2.39942
2.4123
2.39259
2.38595
2.40322
2.37479
2.385
2.38467
2.38994
2.38046
2.41027
2.42097
2.41947
2.42357
2.4205
2.41991
2.42101
2.38787
2.40902
2.40567
2.39391
2.39652
2.39586
2.43201
2.42062
2.41612
2.41236
2.40717
2.39977
2.38681
2.4035
2.38961
2.39148
2.40295
2.42405
2.43219
2.40393
2.41386
2.42341
2.42609
2.41227
2.41411
2.39086
2.40997
2.40161
2.40636
2.40741
2.41841
2.43239
2.44124
2.43609
2.41781
2.48274
2.46807
2.47132
2.4758
2.47714
2.47331
2.47932
2.47135
2.48869
2.45696
2.4353
2.45569
2.44386
2.45449
2.45947
2.44414
2.44788
2.47578
2.47729
2.45879
2.47281
2.47569
2.48033
2.46474
2.46336
2.43125
2.45428
2.44197
2.44844
2.4355
2.41051
2.41971
2.44776
2.42888
2.41773
2.48374
2.48284
2.48738
2.46284
2.48375
2.48347
2.43204
2.45114
2.44697
2.43653
2.44309
2.40492
2.4029
2.42221
2.42552
2.42885
2.41807
2.46841
2.47264
2.4427
2.43445
2.46807
2.44574
2.45513
2.45136
2.45092
2.43695
2.43094
2.4468
2.45702
2.434
2.43076
2.44174
2.42497
2.43082
2.43989
2.47454
2.45781
2.47485
2.39825
2.39667
2.42884
2.40786
2.41248
2.4099
2.41032
2.36356
2.378
2.36165
2.37213
2.36168
2.36668
2.36894
2.37637
2.38243
2.38101
2.37338
2.36589
2.37904
2.37426
2.37338
2.37011
2.38092
2.38061
2.39342
2.39521
2.38853
2.39417
2.39627
2.3811
2.38844
2.37925
2.37477
2.36807
2.37891
2.37974
2.37079
2.37775
2.38251
2.38171
2.4117
2.39178
2.39861
2.38774
2.39647
2.37643
2.35766
2.36819
2.35861
2.36777
2.36384
2.36134
2.36825
2.34829
2.34303
2.34864
2.35541
2.35059
2.35605
2.34993
2.34659
2.34847
2.35321
2.34459
2.35279
2.3757
2.37955
2.37485
2.36778
2.38109
2.3839
2.36565
2.36075
2.3526
2.37544
2.3612
2.36581
2.36222
2.3639
2.35057
2.35013
2.37722
2.35873
2.35324
2.35461
2.36028
2.35408
2.36859
2.36057
2.35955
2.36446
2.36815
2.35855
2.36095
2.38746
2.37174
2.36399
2.36915
2.36281
2.35905
2.3597
2.37544
2.369
2.3651
2.37283
2.36761
2.35741
2.36327
2.36559
2.40145
2.39614
2.41249
2.39321
2.3918
2.40949
2.4329
2.4414
2.43963
2.43592
2.42198
2.42043
2.43815
2.42069
2.42486
2.41908
2.41102
2.42306
2.43136
2.40978
2.42158
2.39553
2.39217
2.40076
2.40535
2.40127
2.406
2.39591
2.42324
2.41778
2.41601
2.40609
2.41382
2.41247
2.39222
2.41336
2.42594
2.41245
2.4085
2.40982
2.41089
2.42042
2.39219
2.40331
2.40406
2.40638
2.40164
2.40876
2.40014
2.37827
2.38661
2.38689
2.38855
2.39214
2.3933
2.37251
2.41127
2.39714
2.42904
2.41225
2.41719
2.41254
2.41748
2.37905
2.36908
2.38997
2.38039
2.37719
2.37429
2.38455
2.37899
2.37823
2.40494
2.38535
2.39308
2.3839
2.38883
2.37069
2.3677
2.3746
2.3781
2.37318
2.36658
2.37897
2.39261
2.39437
2.40197
2.38855
2.4054
2.40309
2.39016
2.38375
2.36843
2.35913
2.36435
2.37218
2.36996
2.36685
2.35405
2.35806
2.35893
2.35885
2.39149
2.39169
2.41723
2.40354
2.39458
2.39714
2.40225
2.39378
2.37524
2.38047
2.3679
2.35686
2.37982
2.37451
2.36763
2.36284
2.37552
2.37079
2.35471
2.36796
2.3648
2.3675
2.37983
2.3936
2.38688
2.38475
2.39321
2.39361
2.37937
2.40282
2.40542
2.43857
2.42144
2.41715
2.41434
2.42478
2.40229
2.38929
2.38744
2.3799
2.38409
2.38428
2.40256
2.40549
2.39758
2.41362
2.39594
2.38815
2.39652
2.39812
2.37881
2.39977
2.38446
2.38823
2.39083
2.47713
2.45921
2.44683
2.45528
2.46455
2.46251
2.45478
2.42059
2.43458
2.4704
2.46955
2.45235
2.43625
2.45665
2.46029
2.45358
2.47077
2.45358
2.43997
2.44507
2.44441
2.453
2.47631
2.47775
2.41418
2.41918
2.40415
2.43716
2.42635
2.42104
2.41562
2.43132
2.38721
2.41547
2.3976
2.39221
2.39214
2.39699
2.38983
2.41363
2.39759
2.40135
2.39465
2.38266
2.38574
2.39231
2.3845
2.38884
2.39558
2.40266
2.41709
2.4046
2.41958
2.41907
2.40815
2.38219
2.41329
2.4258
2.43932
2.445
2.45304
2.43604
2.43696
2.42605
2.4224
2.38688
2.39198
2.38442
2.33526
2.32374
2.31152
2.33204
2.33956
2.32285
2.32091
2.32046
2.37041
2.38057
2.3577
2.37338
2.37416
2.37402
2.36525
2.39455
2.39421
2.38494
2.38568
2.37295
2.38601
2.34148
2.34506
2.3562
2.34574
2.40365
2.39802
2.37144
2.35567
2.36841
2.36052
2.36208
2.36746
2.36437
2.39029
2.36276
2.38308
2.37686
2.36586
2.41893
2.44725
2.45255
2.45838
2.45235
2.45164
2.45028
2.45078
2.35487
2.35921
2.36212
2.37171
2.37316
2.37431
2.34036
2.33351
2.33728
2.32768
2.34023
2.33507
2.33741
2.35953
2.36168
2.35478
2.36063
2.34981
2.35162
2.34605
2.34593
2.34483
2.34575
2.34907
2.37203
2.37652
2.36377
2.36541
2.3705
2.37143
2.36747
2.35704
2.35293
2.34489
2.34695
2.3426
2.34946
2.34438
2.3465
2.43011
2.42285
2.40768
2.41742
2.39935
2.3215
2.40011
2.41596
2.4229
2.4194
2.39636
2.40489
2.40071
2.39869
2.40062
2.39939
2.39827
2.44882
2.38275
2.38567
2.38593
2.39534
2.38388
2.39893
2.39363
2.39396
2.38865
2.39848
2.44247
2.4342
2.44818
2.45935
2.46023
2.44374
2.4635
2.44654
2.44828
2.45129
2.45994
2.45313
2.45233
2.43073
2.43769
2.4353
2.44279
2.43181
2.43753
2.43831
2.37891
2.37476
2.38359
2.37496
2.37301
2.34566
2.34554
2.3508
2.34781
2.35095
2.3525
2.35055
2.37193
2.38367
2.38937
2.3761
2.39599
2.38462
2.3912
2.39189
2.39083
2.38939
2.39353
2.35748
2.36254
2.36611
2.36959
2.36348
2.36854
2.3657
2.37469
2.38668
2.3765
2.38
2.38205
2.38637
2.38015
2.37777
2.3807
2.39346
2.38603
2.383
2.38628
2.37779
2.41483
2.41494
2.4418
2.44795
2.4603
2.47189
2.47605
2.45419
2.44812
2.45318
2.45507
2.45691
2.45286
2.45011
2.46484
2.44882
2.45569
2.45219
2.45818
2.45079
2.46663
2.46782
2.46832
2.46237
2.42556
2.42174
2.41412
2.42123
2.42277
2.4262
2.42108
2.40796
2.40704
2.41048
2.4076
2.40312
2.32599
2.31856
2.32216
2.31935
2.32398
2.32022
2.32161
2.30527
2.30748
2.30529
2.31139
2.30705
2.35895
2.36232
2.36409
2.35847
2.36014
2.35946
2.35952
2.36832
2.36097
2.36702
2.36982
2.36569
2.37804
2.36787
2.36348
2.37244
2.3733
2.36872
2.36814
2.37641
2.37141
2.36706
2.34828
2.35251
2.32319
2.31429
2.32528
2.38179
2.37627
2.38049
2.33991
2.35026
2.34477
2.34881
2.34372
2.34698
2.34168
2.35011
2.34172
2.33147
2.33025
2.32729
2.33063
2.32873
2.33268
2.32918
2.33188
2.33432
2.33406
2.32991
2.33427
2.32922
2.34545
2.34301
2.35027
2.34585
2.3447
2.34317
2.34798
2.3472
2.34065
2.34862
2.34684
2.34593
2.3436
2.34776
2.32911
2.3326
2.32885
2.32981
2.33034
2.32831
2.3563
2.35429
2.34963
2.34794
2.35645
2.35126
2.3576
2.35239
2.35781
2.34338
2.34354
2.33243
2.33771
2.34299
2.33733
2.35276
2.35153
2.33936
2.33358
2.3838
2.38163
2.33247
2.33726
2.33894
2.33686
2.33208
2.33266
2.33084
2.36985
2.36705
2.36485
2.36121
2.36415
2.36314
2.35977
2.35654
2.3498
2.36206
2.35766
2.35596
2.35385
2.36074
2.3486
2.34616
2.34492
2.34805
2.34752
2.35263
2.34786
2.34214
2.34707
2.35012
2.34432
2.34471
2.34341
2.34777
2.3472
2.34921
2.35309
2.35516
2.34844
2.35236
2.35153
2.33428
2.34196
2.33879
2.34563
2.33833
2.34175
2.34375
2.33177
2.33329
2.34431
2.33164
2.37388
2.38464
2.3663
2.37156
2.37374
2.34214
2.33628
2.33376
2.37112
2.36863
2.36553
2.36857
2.37307
2.3658
2.369
2.36037
2.34916
2.35128
2.34726
2.3406
2.3452
2.33525
2.34257
2.33585
2.41252
2.40442
2.44136
2.43884
2.36605
2.36095
2.37478
2.36667
2.36602
2.36642
2.37027
2.37411
2.3708
2.36814
2.37506
2.37433
2.36796
2.3655
2.3576
2.38684
2.38254
2.3871
2.39385
2.39106
2.3867
2.37497
2.38085
2.37145
2.38531
2.38307
2.36787
2.33311
2.33921
2.33891
2.33496
2.34288
2.33641
2.33612
2.33099
2.33146
2.33187
2.32901
2.32977
2.33073
2.32639
2.33444
2.3195
2.30995
2.31987
2.31428
2.3135
2.31633
2.31587
2.31048
2.33018
2.32937
2.32639
2.39216
2.36388
2.36566
2.36387
2.37614
2.37728
2.38096
2.37397
2.38334
2.3789
2.38652
2.38274
2.39117
2.39265
2.38241
2.38263
2.3896
2.37412
2.38691
2.37606
2.37719
2.38737
2.37829
2.37625
2.36401
2.35093
2.36149
2.33114
2.33675
2.32649
2.33165
2.33078
2.33389
2.32848
2.33039
2.33255
2.33631
2.33223
2.33722
2.33219
2.33074
2.34626
2.33979
2.34226
2.33895
2.34492
2.3371
2.33909
2.33861
2.34095
2.33693
2.33961
2.35065
2.35152
2.36146
2.35469
2.36397
2.36584
2.33981
2.34252
2.33465
2.34599
2.33645
2.32827
2.33804
2.33213
2.34128
2.3139
2.31063
2.31162
2.30759
2.30311
2.37322
2.36437
2.35041
2.36158
2.35144
2.36986
2.38245
2.38371
2.37596
2.38347
2.37427
2.39203
2.38008
2.38936
2.35549
2.34243
2.42316
2.41133
2.41408
2.41585
2.36376
2.37333
2.36879
2.37383
2.36833
2.37172
2.36929
2.39228
2.40114
2.40246
2.40082
2.4007
2.40032
2.40267
2.39515
2.40089
2.39625
2.39045
2.40896
2.39589
2.38782
2.39755
2.39891
2.40341
2.39727
2.39714
2.39723
2.39871
2.44588
2.44073
2.44172
2.41452
2.42673
2.39918
2.40144
2.40747
2.39763
2.40696
2.41778
2.41058
2.42474
2.41634
2.42198
2.41832
2.42198
2.4099
2.41532
2.37882
2.37933
2.37383
2.38287
2.3664
2.37434
2.39585
2.40308
2.39844
2.38901
2.38582
2.38187
2.38789
2.38622
2.38123
2.37615
2.37674
2.37917
2.37539
2.37829
2.3742
2.38766
2.37942
2.37736
2.38006
2.38271
2.38159
2.3817
2.36586
2.3733
2.37593
2.37476
2.37171
2.37224
2.37136
2.39538
2.38805
2.40097
2.39736
2.3959
2.39322
2.40046
2.36211
2.37185
2.35873
2.36534
2.36338
2.36826
2.36177
2.36463
2.37337
2.36008
2.36836
2.36659
2.37113
2.36491
2.39019
2.38679
2.40093
2.39422
2.39073
2.39019
2.39627
2.38845
2.39717
2.39889
2.39981
2.39301
2.39458
2.39683
2.45368
2.45458
2.45119
2.44723
2.45379
2.45178
2.44888
2.43063
2.44056
2.43603
2.43884
2.4455
2.43248
2.43008
2.42204
2.42737
2.43018
2.43037
2.42232
2.42198
2.42796
2.4343
2.42784
2.42723
2.42565
2.42848
2.42915
2.43318
2.43927
2.44004
2.43317
2.43428
2.43781
2.41258
2.42355
2.41598
2.42539
2.41768
2.42226
2.41796
2.38829
2.38148
2.3809
2.37473
2.37408
2.38118
2.39921
2.41055
2.39137
2.40184
2.39709
2.4018
2.39324
2.40058
2.40388
2.40374
2.40621
2.44418
2.44775
2.45581
2.40737
2.42013
2.41145
2.42189
2.41294
2.41831
2.41581
2.38639
2.40103
2.41271
2.41717
2.41021
2.40596
2.40507
2.40794
2.42097
2.40406
2.42701
2.41779
2.41846
2.42239
2.42046
2.43307
2.42153
2.43129
2.41852
2.41837
2.41004
2.40711
2.39512
2.42168
2.41057
2.38343
2.387
2.39238
2.39348
2.38673
2.38829
2.39079
2.43232
2.42788
2.4375
2.44094
2.42624
2.40065
2.40716
2.40762
2.42132
2.41778
2.41693
2.42111
2.4152
2.39791
2.40621
2.4045
2.4032
2.4016
2.40267
2.40204
2.40677
2.41161
2.40911
2.41592
2.40922
2.41362
2.41188
2.40026
2.41562
2.41009
2.41381
2.4061
2.41021
2.40929
2.41072
2.40718
2.41156
2.4248
2.41977
2.43077
2.43088
2.43023
2.41792
2.40172
2.4152
2.41838
2.41957
2.40952
2.41364
2.40792
2.47852
2.47501
2.47458
2.48945
2.47611
2.48164
2.48149
2.48314
2.48358
2.45617
2.45973
2.44721
2.46039
2.46098
2.42093
2.43104
2.4613
2.46601
2.46949
2.46174
2.45253
2.45379
2.46802
2.46537
2.43282
2.4296
2.42677
2.42486
2.42628
2.42371
2.41956
2.43153
2.42701
2.42308
2.41433
2.42847
2.47804
2.46638
2.47859
2.45617
2.44873
2.44463
2.44411
2.45031
2.44903
2.44288
2.45261
2.44859
2.44261
2.44192
2.45979
2.45411
2.44965
2.45694
2.45453
2.44845
2.45477
2.41758
2.40492
2.40803
2.40627
2.41159
2.4062
2.40974
2.37782
2.37244
2.39425
2.40352
2.38913
2.39455
2.38161
2.38246
2.36425
2.37055
2.39257
2.38153
2.38666
2.38822
2.38735
2.38684
2.39161
2.38496
2.3763
2.38274
2.37841
2.38331
2.38277
2.38214
2.37822
2.37138
2.40357
2.39217
2.39435
2.38874
2.39905
2.39506
2.39435
2.34862
2.35532
2.3528
2.35786
2.34649
2.35484
2.35294
2.33985
2.35164
2.33652
2.34196
2.34425
2.34664
2.33649
2.35548
2.35824
2.36411
2.36388
2.35671
2.35718
2.36059
2.36711
2.36266
2.35977
2.3652
2.36273
2.36408
2.36313
2.3656
2.35871
2.35627
2.35631
2.36136
2.35975
2.3581
2.36656
2.3587
2.37117
2.37167
2.35865
2.36037
2.35436
2.35404
2.36663
2.36059
2.35911
2.35934
2.37662
2.36645
2.36611
2.37754
2.36972
2.37604
2.37339
2.36715
2.37479
2.37163
2.37685
2.36231
2.3771
2.36372
2.36367
2.36418
2.36585
2.37084
2.36562
2.36662
2.36581
2.36479
2.414
2.41381
2.41949
2.41136
2.40654
2.40591
2.41822
2.408
2.42047
2.41888
2.41643
2.41277
2.41483
2.41482
2.41046
2.40636
2.40151
2.40854
2.40584
2.40637
2.4059
2.38806
2.39916
2.38463
2.39033
2.39122
2.39499
2.38529
2.42431
2.41661
2.43242
2.42766
2.42857
2.42207
2.43262
2.43007
2.41792
2.43451
2.42407
2.42757
2.42284
2.42963
2.39138
2.39844
2.38308
2.38878
2.39352
2.39264
2.38808
2.38718
2.38017
2.38052
2.389
2.36502
2.41664
2.41068
2.40458
2.404
2.41174
2.40874
2.40661
2.38377
2.38061
2.37852
2.37503
2.38205
2.37938
2.37943
2.39623
2.38566
2.38738
2.38324
2.39121
2.38842
2.38832
2.37959
2.38273
2.38231
2.37902
2.3807
2.37924
2.38076
2.39116
2.38363
2.38114
2.38621
2.38793
2.38912
2.38622
2.3565
2.36203
2.35765
2.35819
2.35732
2.3587
2.35345
2.36874
2.36395
2.3664
2.4187
2.40962
2.40866
2.40455
2.40442
2.40227
2.40225
2.38497
2.37612
2.3768
2.3723
2.38331
2.38191
2.37777
2.37333
2.37096
2.3651
2.36275
2.37343
2.3688
2.37123
2.36152
2.37214
2.36833
2.36803
2.36493
2.37222
2.36744
2.38126
2.37509
2.37738
2.38309
2.382
2.38059
2.38633
2.38017
2.38493
2.38689
2.3849
2.38554
2.3846
2.38496
2.38521
2.39487
2.39352
2.39429
2.3931
2.38903
2.38459
2.38951
2.39025
2.38505
2.44062
2.45061
2.43415
2.4431
2.43892
2.44432
2.43791
2.42973
2.44044
2.46646
2.44986
2.46402
2.46065
2.45806
2.4575
2.4333
2.46287
2.46173
2.37587
2.38061
2.3957
2.42988
2.42518
2.42196
2.41765
2.42856
2.42346
2.42423
2.41195
2.4042
2.39958
2.40342
2.40177
2.40452
2.40178
2.39623
2.39196
2.39152
2.39648
2.39582
2.39391
2.38754
2.39115
2.38761
2.3854
2.39008
2.38837
2.38657
2.4052
2.41003
2.41066
2.37126
2.38273
2.43347
2.44888
2.41804
2.38736
2.4868
2.48017
2.47641
2.49239
2.33036
2.32406
2.31787
2.31991
2.31657
2.3172
2.36697
2.37548
2.37804
2.3831
2.37168
2.37602
2.37824
2.38277
2.39394
2.38294
2.36749
2.38781
2.38084
2.39469
2.39323
2.39866
2.32128
2.33865
2.39611
2.35614
2.45866
2.4632
2.45056
2.45288
2.45407
2.45763
2.45575
2.45645
2.47432
2.47381
2.46442
2.47366
2.47173
2.47574
2.4727
2.45754
2.46893
2.46765
2.46089
2.45998
2.46203
2.45645
2.45395
2.46338
2.45755
2.46486
2.45794
2.46263
2.45821
2.46793
2.4665
2.45893
2.45967
2.46471
2.46496
2.45902
2.46952
2.4605
2.46617
2.46149
2.46873
2.46447
2.46635
2.45259
2.45485
2.45876
2.46229
2.45504
2.45702
2.45988
2.31399
2.32082
2.31799
2.31614
2.317
2.31947
2.31519
2.32067
2.31896
2.31971
2.3138
2.31803
2.31595
2.31715
2.31778
2.31417
2.31721
2.32029
2.37244
2.36507
2.36915
2.36749
2.37047
2.3688
2.37017
2.37581
2.3593
2.37317
2.37234
2.37607
2.37529
2.38631
2.38744
2.38107
2.37968
2.37273
2.36719
2.36996
2.37088
2.36157
2.35944
2.37141
2.3782
2.37351
2.37556
2.37177
2.37839
2.37076
2.37623
2.37358
2.37046
2.37652
2.3683
2.37244
2.36245
2.36738
2.36933
2.37694
2.3697
2.37318
2.37318
2.36197
2.36504
2.36077
2.3607
2.36685
2.36195
2.35943
2.36466
2.36356
2.36001
2.3626
2.35945
2.35908
2.3674
2.366
2.36607
2.37101
2.36465
2.36296
2.36369
2.36536
2.36658
2.36291
2.36875
2.3723
2.36454
2.36232
2.35725
2.32575
2.32692
2.32534
2.32489
2.32821
2.32625
2.32339
2.32513
2.33539
2.33607
2.32512
2.33071
2.32345
2.32757
2.32383
2.33218
2.32964
2.32829
2.32345
2.32785
2.3314
2.32943
2.32235
2.33743
2.32614
2.33152
2.33073
2.33059
2.32913
2.32525
2.32331
2.32721
2.32498
2.3534
2.34064
2.35317
2.35588
2.35417
2.35642
2.36189
2.35596
2.36304
2.35567
2.35642
2.35596
2.35761
2.35749
2.35326
2.3517
2.34597
2.3563
2.35654
2.35581
2.35763
2.35613
2.35478
2.35384
2.34741
2.33964
2.34176
2.34372
2.34599
2.34574
2.34414
2.3474
2.35181
2.34616
2.35387
2.35525
2.35169
2.35793
2.35765
2.35579
2.35386
2.35669
2.34805
2.35607
2.35263
2.34542
2.35159
2.34438
2.34857
2.34656
2.34672
2.34751
2.344
2.34863
2.34613
2.35358
2.34556
2.34219
2.34558
2.35261
2.35048
2.35198
2.34765
2.35389
2.35005
2.38474
2.35981
2.36837
2.3668
2.36566
2.36139
2.36336
2.36055
2.36196
2.36732
2.38402
2.38164
2.36767
2.37253
2.37681
2.3668
2.371
2.36452
2.3723
2.35849
2.37172
2.36335
2.37023
2.3661
2.35671
2.36909
2.36851
2.38316
2.37017
2.38118
2.36023
2.36861
2.36695
2.36961
2.36525
2.36769
2.36478
2.35152
2.35393
2.35475
2.35772
2.34961
2.3467
2.35353
2.37052
2.37982
2.37558
2.36386
2.36923
2.36138
2.37598
2.36803
2.36732
2.3627
2.37106
2.36096
2.35657
2.36675
2.36583
2.36567
2.36108
2.36994
2.36204
2.36037
2.35804
2.36201
2.35826
2.35789
2.36011
2.37133
2.37629
2.37527
2.36845
2.3748
2.36892
2.37303
2.34546
2.34932
2.34994
2.35905
2.35273
2.35234
2.36004
2.35994
2.35954
2.34755
2.35413
2.35644
2.35001
2.35853
2.34392
2.34585
2.34922
2.3527
2.35699
2.34926
2.35964
2.35292
2.36319
2.36146
2.36426
2.35647
2.36634
2.3507
2.35407
2.35101
2.35322
2.35764
2.36105
2.35456
2.35976
2.35759
2.34944
2.34704
2.34967
2.3551
2.3534
2.35602
2.34842
2.3668
2.36334
2.3543
2.36014
2.36331
2.35425
2.35631
2.35109
2.35253
2.35994
2.35644
2.35177
2.35359
2.3569
2.44712
2.42715
2.41739
2.4249
2.443
2.41342
2.43311
2.43476
2.4472
2.43103
2.38471
2.37618
2.38819
2.38837
2.38643
2.38734
2.38331
2.37982
2.37967
2.37732
2.39364
2.37959
2.37776
2.38274
2.40973
2.40644
2.39769
2.40344
2.39795