/*--------------------------------*- C++ -*----------------------------------*\
| =========                 |                                                 |
| \\      /  F ield         | OpenFOAM: The Open Source CFD Toolbox           |
|  \\    /   O peration     | Version:  v1612+                                |
|   \\  /    A nd           | Web:      www.OpenFOAM.com                      |
|    \\/     M anipulation  |                                                 |
\*---------------------------------------------------------------------------*/
FoamFile
{
    version     2.0;
    format      ascii;
    class       volVectorField;
    location    "100";
    object      U;
}
// * * * * * * * * * * * * * * * * * * * * * * * * * * * * * * * * * * * * * //

dimensions      [0 1 -1 0 0 0 0];

internalField   nonuniform List<vector> 
21121
(
(-0.48177 0.136843 -0.360957)
(-0.649826 0.250845 -0.384922)
(-0.694747 0.261117 -0.424209)
(-0.802163 0.237827 -0.459472)
(-0.519893 0.244639 -0.35768)
(-0.495325 0.213547 -0.263058)
(-0.54178 0.157198 -0.314392)
(-0.810015 0.1473 -0.472127)
(-0.600836 0.158443 -0.328258)
(-0.626111 0.161855 -0.448437)
(-0.583994 0.0760098 -0.362512)
(-0.705791 0.0723281 -0.402336)
(-0.705663 0.0734215 -0.385794)
(-0.690541 0.0956739 -0.389417)
(-0.652586 0.0732649 -0.352267)
(-0.724474 0.177663 -0.499402)
(-0.531748 0.193041 -0.360135)
(-0.719007 -0.00592134 -0.387857)
(-0.762132 -0.0128938 -0.411084)
(-0.658285 0.0872847 -0.372408)
(-0.689218 0.202787 -0.476398)
(-0.602574 0.183859 -0.423381)
(-0.516555 0.0814108 -0.314092)
(-0.666306 0.164802 -0.403437)
(-0.643681 0.164817 -0.427886)
(-0.572052 0.0169454 -0.349294)
(-0.535747 0.0362561 -0.337709)
(-0.633773 0.0368487 -0.385176)
(-0.697081 0.241331 -0.445058)
(-0.652064 0.217493 -0.37891)
(-0.488763 0.0777674 -0.243463)
(-0.648098 0.176091 -0.414661)
(-0.629287 0.184809 -0.384153)
(-0.362527 0.0710103 -0.26195)
(-0.729098 0.292359 -0.439877)
(-0.493459 0.116607 -0.355752)
(-0.574552 0.0647063 -0.28443)
(-0.595381 0.222666 -0.325955)
(-0.588768 0.244208 -0.352356)
(-0.686093 0.192572 -0.38977)
(-0.482947 0.0858362 -0.241923)
(-0.59402 0.187315 -0.367612)
(-0.586512 0.198054 -0.333906)
(-0.670316 0.1815 -0.377752)
(-0.670955 0.194641 -0.451051)
(-0.52019 0.172718 -0.389997)
(-0.542612 0.0488645 -0.28958)
(-0.589655 0.0690777 -0.30506)
(-0.708426 0.170477 -0.374507)
(-0.647579 0.143031 -0.43784)
(-0.531987 0.251198 -0.325268)
(-0.630796 0.267159 -0.398419)
(-0.649415 0.163912 -0.404319)
(-0.752577 0.163563 -0.403938)
(-0.607616 0.157704 -0.332936)
(-0.688534 0.288889 -0.443886)
(-0.678049 0.134449 -0.456881)
(-0.463248 0.0583068 -0.266026)
(-0.546017 0.100201 -0.267167)
(-0.595838 0.121741 -0.405463)
(-0.514463 0.0914945 -0.246466)
(-0.487853 0.0868825 -0.228273)
(-0.689934 0.106566 -0.384614)
(-0.666652 0.104696 -0.369921)
(-0.682185 0.121377 -0.433383)
(-0.606941 0.235738 -0.396585)
(-0.705002 0.233497 -0.458173)
(-0.700945 0.206735 -0.452063)
(-0.337109 0.0914643 -0.225111)
(-0.661822 0.223844 -0.384844)
(-0.527911 0.0331094 -0.310754)
(-0.656694 0.125914 -0.361573)
(-0.50431 0.143179 -0.264785)
(-0.523688 0.0709045 -0.248007)
(-0.665515 0.106912 -0.356538)
(-0.76558 0.134854 -0.40214)
(-0.422528 0.0347471 -0.24722)
(-0.718212 0.140151 -0.427325)
(-0.670768 0.175495 -0.463409)
(-0.62971 0.174361 -0.437702)
(-0.613016 0.18908 -0.43288)
(-0.630349 0.173581 -0.459592)
(-0.610706 0.127468 -0.314211)
(-0.693718 0.133074 -0.369784)
(-0.571691 0.127274 -0.298254)
(-0.688234 0.120072 -0.367399)
(-0.730758 0.102472 -0.446477)
(-0.726292 0.0899248 -0.421852)
(-0.653869 0.112241 -0.339852)
(-0.69375 0.117719 -0.352508)
(-0.693705 0.0899545 -0.353996)
(-0.692037 0.178338 -0.369732)
(-0.664025 0.212103 -0.476457)
(-0.563466 0.182384 -0.414005)
(-0.604892 0.0825997 -0.377159)
(-0.764491 0.113882 -0.457204)
(-0.70217 0.123888 -0.411857)
(-0.523733 0.219138 -0.32286)
(-0.607289 0.269505 -0.409941)
(-0.648812 0.270217 -0.427851)
(-0.643557 0.142588 -0.401125)
(-0.5772 0.246924 -0.411996)
(-0.617364 0.270612 -0.434684)
(-0.728355 0.0867039 -0.420802)
(-0.609872 0.131114 -0.354167)
(-0.333144 0.107032 -0.249944)
(-0.687207 0.175709 -0.357989)
(-0.6421 0.186643 -0.395046)
(-0.602782 0.16344 -0.37921)
(-0.67213 0.165111 -0.419773)
(-0.64059 0.0397869 -0.374972)
(-0.626706 0.0885425 -0.342057)
(-0.454676 0.089856 -0.256961)
(-0.739047 0.179317 -0.481201)
(-0.727106 0.124928 -0.47404)
(-0.61529 0.0908745 -0.335355)
(-0.731109 0.034464 -0.387063)
(-0.736024 0.057774 -0.400328)
(-0.703519 0.202662 -0.439409)
(-0.703602 0.212852 -0.419442)
(-0.703695 0.207397 -0.422795)
(-0.424503 0.0842868 -0.316416)
(-0.335831 0.0942083 -0.240143)
(-0.467474 0.121907 -0.329261)
(-0.353558 0.0887936 -0.202394)
(-0.61645 0.139668 -0.355771)
(-0.531628 0.0808608 -0.274529)
(-0.595789 0.204545 -0.380899)
(-0.626144 0.0398955 -0.317819)
(-0.711748 0.158507 -0.479415)
(-0.698731 0.152296 -0.475195)
(-0.762627 0.162754 -0.506906)
(-0.622189 0.192332 -0.457287)
(-0.596348 0.15731 -0.422948)
(-0.701827 0.123351 -0.448364)
(-0.709039 0.0636335 -0.401611)
(-0.525798 0.168398 -0.264317)
(-0.621633 0.165722 -0.328744)
(-0.435735 0.0526779 -0.281208)
(-0.703975 0.176395 -0.483938)
(-0.47948 0.161366 -0.232231)
(-0.703817 0.166558 -0.391244)
(-0.521467 0.0436212 -0.314514)
(-0.606611 0.195929 -0.43542)
(-0.58306 0.205916 -0.436104)
(-0.628619 0.181471 -0.430104)
(-0.769789 0.233612 -0.460672)
(-0.760324 0.177674 -0.453479)
(-0.719744 0.21021 -0.397068)
(-0.610907 0.0155625 -0.364227)
(-0.416185 0.0428932 -0.274815)
(-0.444357 0.0422729 -0.291748)
(-0.616581 0.265528 -0.421517)
(-0.639045 0.141917 -0.380049)
(-0.705973 0.155893 -0.39792)
(-0.63319 0.133087 -0.353711)
(-0.561858 0.0458646 -0.271955)
(-0.53161 0.100017 -0.253893)
(-0.515333 0.0826459 -0.321108)
(-0.383916 0.0725515 -0.275851)
(-0.426828 0.0920286 -0.225238)
(-0.502853 0.0991793 -0.267286)
(-0.741135 0.249837 -0.420218)
(-0.693603 0.0898525 -0.368579)
(-0.665956 0.0885277 -0.358764)
(-0.652992 0.148187 -0.454332)
(-0.673636 0.143223 -0.451094)
(-0.577504 0.151064 -0.362466)
(-0.430299 0.117836 -0.229373)
(-0.454956 0.156532 -0.216903)
(-0.602461 0.229227 -0.324634)
(-0.521218 0.206082 -0.263496)
(-0.691943 0.176584 -0.477895)
(-0.414499 0.104504 -0.257954)
(-0.41119 0.113864 -0.288853)
(-0.721053 0.126866 -0.453152)
(-0.654626 0.196256 -0.453927)
(-0.64591 0.206426 -0.456623)
(-0.623731 0.182163 -0.447509)
(-0.609519 0.207505 -0.43911)
(-0.663571 0.0143452 -0.323406)
(-0.673565 0.158575 -0.393374)
(-0.758077 0.169885 -0.44187)
(-0.500522 0.239196 -0.330422)
(-0.481262 0.0456819 -0.274418)
(-0.446276 0.105078 -0.331681)
(-0.42447 0.105317 -0.31663)
(-0.429226 0.0994025 -0.328979)
(-0.724577 0.281402 -0.43616)
(-0.683033 0.0827855 -0.32628)
(-0.612765 0.107785 -0.300428)
(-0.522162 0.0687544 -0.283117)
(-0.697821 0.0794776 -0.412065)
(-0.616908 0.110239 -0.357536)
(-0.677863 0.0624048 -0.405039)
(-0.615545 0.0417223 -0.302811)
(-0.610545 0.0514719 -0.36371)
(-0.638633 0.0522718 -0.337939)
(-0.630176 0.0559192 -0.352283)
(-0.60274 0.0565414 -0.317097)
(-0.565229 0.0445539 -0.353543)
(-0.592613 0.0523331 -0.385417)
(-0.671068 0.227148 -0.377026)
(-0.712971 0.236675 -0.403941)
(-0.764514 0.272444 -0.441434)
(-0.737067 0.244823 -0.424376)
(-0.649307 0.230866 -0.370979)
(-0.501764 0.101456 -0.356563)
(-0.428437 0.116454 -0.217882)
(-0.538031 0.224101 -0.40277)
(-0.667712 0.159744 -0.459673)
(-0.53099 0.0199718 -0.303136)
(-0.575284 0.0294538 -0.351978)
(-0.522029 0.0323999 -0.337934)
(-0.603703 0.144922 -0.419347)
(-0.720705 0.144033 -0.454233)
(-0.72503 0.243437 -0.411488)
(-0.699492 0.254364 -0.413381)
(-0.385689 0.09438 -0.210397)
(-0.466761 0.104466 -0.253624)
(-0.416506 0.0818478 -0.259335)
(-0.385858 0.0855282 -0.22762)
(-0.413412 0.109287 -0.308688)
(-0.376677 0.0777805 -0.249726)
(-0.407109 0.0915762 -0.267315)
(-0.427919 0.0921671 -0.28149)
(-0.656254 0.133252 -0.357503)
(-0.582783 0.134205 -0.342153)
(-0.530924 0.156522 -0.321313)
(-0.579532 0.244093 -0.398849)
(-0.635671 0.233972 -0.425715)
(-0.530871 0.218731 -0.384338)
(-0.669025 0.182946 -0.354578)
(-0.720277 0.180023 -0.389823)
(-0.770496 0.185768 -0.421405)
(-0.765701 0.18279 -0.428391)
(-0.652988 0.167091 -0.362983)
(-0.619588 0.142975 -0.403949)
(-0.513045 0.128916 -0.371829)
(-0.668496 0.236654 -0.382176)
(-0.522837 0.130698 -0.251326)
(-0.507342 0.123867 -0.254804)
(-0.485098 0.114999 -0.241202)
(-0.578658 0.125043 -0.356175)
(-0.505768 0.0936112 -0.334496)
(-0.596009 0.184567 -0.313354)
(-0.65006 0.216731 -0.399064)
(-0.487185 0.184027 -0.371487)
(-0.539736 0.24382 -0.306938)
(-0.648754 0.163286 -0.455179)
(-0.739065 0.139081 -0.472554)
(-0.588763 0.115415 -0.293118)
(-0.519391 0.101533 -0.272634)
(-0.793675 0.123548 -0.421617)
(-0.765052 0.140219 -0.41156)
(-0.823705 0.117118 -0.437193)
(-0.763275 0.119415 -0.39837)
(-0.691281 0.14176 -0.357441)
(-0.705856 0.142233 -0.364878)
(-0.789928 0.125302 -0.42675)
(-0.534927 0.154429 -0.400773)
(-0.468171 0.122423 -0.351153)
(-0.465203 0.135105 -0.366239)
(-0.569906 0.118385 -0.397391)
(-0.550969 0.118985 -0.38895)
(-0.412238 0.128755 -0.333852)
(-0.440747 0.132128 -0.344927)
(-0.524802 0.134278 -0.385062)
(-0.558238 0.150284 -0.413639)
(-0.466383 0.140682 -0.352735)
(-0.628162 0.137732 -0.426354)
(-0.410317 0.12299 -0.324498)
(-0.440342 0.126983 -0.349945)
(-0.451465 0.0825288 -0.322698)
(-0.418249 0.103619 -0.324191)
(-0.442771 0.139264 -0.350248)
(-0.529756 0.126417 -0.388081)
(-0.485539 0.111455 -0.362199)
(-0.398506 0.0650698 -0.281215)
(-0.656391 0.112912 -0.342794)
(-0.596057 0.264313 -0.423405)
(-0.700676 0.157813 -0.477393)
(-0.694382 0.13646 -0.46451)
(-0.616541 0.14792 -0.435202)
(-0.684416 0.14856 -0.455941)
(-0.607706 0.175401 -0.445279)
(-0.707758 0.167599 -0.488444)
(-0.34118 0.0975671 -0.233032)
(-0.446128 0.108046 -0.227136)
(-0.463975 0.122479 -0.226454)
(-0.366679 0.0492815 -0.270193)
(-0.660347 0.0567588 -0.378988)
(-0.472241 0.0730977 -0.277874)
(-0.431359 0.0680026 -0.269442)
(-0.470517 0.0731453 -0.29589)
(-0.425695 0.0681109 -0.268734)
(-0.464625 0.0653349 -0.290297)
(-0.626299 0.0934356 -0.360029)
(-0.39797 0.0330997 -0.264912)
(-0.570529 0.229321 -0.421198)
(-0.580891 0.197889 -0.421913)
(-0.594424 0.16504 -0.414135)
(-0.662741 0.159218 -0.444926)
(-0.646189 0.0999917 -0.403603)
(-0.674256 0.0944082 -0.42807)
(-0.732183 0.0896326 -0.443907)
(-0.593356 0.0902841 -0.375406)
(-0.693507 0.0984057 -0.432797)
(-0.684245 0.067992 -0.413758)
(-0.578894 0.104506 -0.373416)
(-0.617735 0.0977869 -0.387333)
(-0.658351 0.0713483 -0.399822)
(-0.627439 0.0804473 -0.385625)
(-0.520481 0.0731688 -0.246498)
(-0.720507 0.176655 -0.415684)
(-0.726139 0.0962211 -0.422934)
(-0.518366 0.071806 -0.354428)
(-0.678143 0.127024 -0.415213)
(-0.620723 0.255459 -0.391093)
(-0.424131 0.0249181 -0.247829)
(-0.415785 0.104917 -0.314336)
(-0.657738 0.151387 -0.404851)
(-0.656653 0.153945 -0.408394)
(-0.64466 0.175141 -0.389297)
(-0.37647 0.105721 -0.220691)
(-0.596063 0.273835 -0.401246)
(-0.683229 0.280597 -0.444856)
(-0.659572 0.216269 -0.38224)
(-0.635841 0.125878 -0.423302)
(-0.659657 0.133143 -0.425996)
(-0.700706 0.271597 -0.418759)
(-0.679502 0.0805247 -0.390926)
(-0.492043 0.0583938 -0.29252)
(-0.496739 0.076095 -0.256254)
(-0.458148 0.077754 -0.230831)
(-0.496958 0.0696884 -0.27164)
(-0.639354 0.215033 -0.39915)
(-0.657322 0.256622 -0.410966)
(-0.519913 0.0451845 -0.305686)
(-0.61595 0.148563 -0.434183)
(-0.700036 0.273718 -0.407927)
(-0.712201 0.246654 -0.40768)
(-0.464872 0.154735 -0.223779)
(-0.42006 0.127345 -0.220082)
(-0.434272 0.101813 -0.237103)
(-0.430908 0.116049 -0.223111)
(-0.646334 0.1323 -0.332543)
(-0.615766 0.133296 -0.323254)
(-0.58946 0.0832144 -0.36497)
(-0.58679 0.0880903 -0.35341)
(-0.674987 0.0670811 -0.396172)
(-0.627848 0.0867351 -0.383371)
(-0.634445 0.125905 -0.338814)
(-0.547482 0.123831 -0.275693)
(-0.740639 0.163985 -0.404737)
(-0.642864 0.079207 -0.33046)
(-0.687116 0.14733 -0.355923)
(-0.70811 0.141029 -0.360757)
(-0.699409 0.0561601 -0.381594)
(-0.624006 0.185408 -0.401553)
(-0.695946 0.224622 -0.387274)
(-0.73615 0.202638 -0.41565)
(-0.448715 0.0973658 -0.317642)
(-0.451718 0.0772668 -0.272602)
(-0.65675 0.234525 -0.473356)
(-0.606121 0.19265 -0.439685)
(-0.591023 0.187877 -0.43921)
(-0.5925 0.173201 -0.431371)
(-0.563256 0.244308 -0.42249)
(-0.55102 0.224945 -0.416009)
(-0.694743 0.257868 -0.400414)
(-0.687711 0.0796296 -0.43033)
(-0.678751 0.0862059 -0.419599)
(-0.550039 0.225528 -0.319296)
(-0.545311 0.206393 -0.285372)
(-0.606232 0.203261 -0.335426)
(-0.67891 0.210853 -0.390327)
(-0.657903 0.187115 -0.4551)
(-0.486641 0.178376 -0.384823)
(-0.446789 0.152968 -0.357638)
(-0.504836 0.198779 -0.390576)
(-0.560548 0.179788 -0.296906)
(-0.691322 0.13656 -0.383974)
(-0.711597 0.207545 -0.410086)
(-0.471874 0.0652122 -0.27697)
(-0.451555 0.0837984 -0.23559)
(-0.354193 0.0703808 -0.219039)
(-0.369781 0.0571752 -0.233771)
(-0.597668 0.0846842 -0.38966)
(-0.442468 0.106923 -0.329791)
(-0.3812 0.116332 -0.294031)
(-0.365663 0.0973618 -0.276684)
(-0.438536 0.113129 -0.323141)
(-0.375029 0.0857859 -0.238078)
(-0.385746 0.0726381 -0.274)
(-0.713342 0.100527 -0.390811)
(-0.756016 0.196703 -0.487583)
(-0.496814 0.167193 -0.377065)
(-0.690124 0.235088 -0.393747)
(-0.744938 0.234714 -0.423552)
(-0.56305 0.180041 -0.421818)
(-0.56499 0.101169 -0.377268)
(-0.439158 0.118502 -0.224779)
(-0.633358 0.117604 -0.424419)
(-0.642459 0.12129 -0.335348)
(-0.635831 0.108468 -0.368465)
(-0.671544 0.16437 -0.397165)
(-0.600085 0.211217 -0.363491)
(-0.669535 0.16783 -0.447571)
(-0.383553 0.111929 -0.313628)
(-0.433968 0.119361 -0.339375)
(-0.587524 0.210955 -0.360174)
(-0.533616 0.214773 -0.364882)
(-0.670916 0.200448 -0.412438)
(-0.564518 0.196054 -0.420155)
(-0.520155 0.215648 -0.339792)
(-0.755392 0.164055 -0.501082)
(-0.685539 0.272807 -0.487192)
(-0.619296 0.201669 -0.373492)
(-0.589398 0.177768 -0.426262)
(-0.650576 0.177151 -0.38223)
(-0.694371 0.192624 -0.474406)
(-0.552583 0.201719 -0.351427)
(-0.647319 0.187491 -0.410263)
(-0.385495 0.0665982 -0.210862)
(-0.407365 0.0814334 -0.224944)
(-0.722792 0.121399 -0.454245)
(-0.582154 0.0664989 -0.365084)
(-0.601896 0.162276 -0.366717)
(-0.556653 0.0709362 -0.282058)
(-0.646613 0.0727401 -0.38172)
(-0.672293 0.079106 -0.356046)
(-0.597616 0.160504 -0.371422)
(-0.546951 0.207775 -0.283026)
(-0.476683 0.175724 -0.22713)
(-0.490084 0.153849 -0.235338)
(-0.462491 0.169266 -0.224066)
(-0.462613 0.121879 -0.231287)
(-0.412937 0.129649 -0.19923)
(-0.376619 0.116701 -0.180268)
(-0.481335 0.139554 -0.235874)
(-0.564601 0.211631 -0.283759)
(-0.6505 0.15967 -0.451622)
(-0.49663 0.131954 -0.256311)
(-0.45731 0.0407873 -0.306844)
(-0.465905 0.0409915 -0.307063)
(-0.53535 0.253972 -0.305619)
(-0.479985 0.245159 -0.267981)
(-0.562143 0.258201 -0.321932)
(-0.418189 0.109877 -0.309661)
(-0.382584 0.0943697 -0.299967)
(-0.446013 0.0921827 -0.328475)
(-0.445613 0.0955684 -0.3316)
(-0.448371 0.118713 -0.339155)
(-0.653908 0.279431 -0.436887)
(-0.512634 0.259965 -0.332316)
(-0.590387 0.269787 -0.408521)
(-0.711274 0.16794 -0.421075)
(-0.689459 0.0840859 -0.36839)
(-0.646979 0.0814199 -0.333731)
(-0.553923 0.217241 -0.417577)
(-0.645965 0.0403438 -0.315382)
(-0.549591 0.242702 -0.395125)
(-0.54314 0.258945 -0.380437)
(-0.61205 0.0422076 -0.294703)
(-0.54516 0.0378239 -0.261452)
(-0.598867 0.157562 -0.322727)
(-0.660353 0.255362 -0.383524)
(-0.682999 0.121311 -0.366773)
(-0.653032 0.10959 -0.362318)
(-0.496215 0.138061 -0.258024)
(-0.411172 0.104725 -0.228233)
(-0.629803 0.0978397 -0.298692)
(-0.660213 0.130724 -0.389106)
(-0.601677 0.20918 -0.429953)
(-0.654638 0.219525 -0.426113)
(-0.674755 0.136443 -0.357898)
(-0.503396 0.0940257 -0.321047)
(-0.580037 0.149034 -0.298529)
(-0.612405 0.0939537 -0.305979)
(-0.650504 0.101687 -0.330134)
(-0.57858 0.0990103 -0.282138)
(-0.574466 0.0692699 -0.283284)
(-0.484448 0.122391 -0.253804)
(-0.425441 0.0956817 -0.23755)
(-0.636766 0.245458 -0.38646)
(-0.622832 0.252371 -0.423879)
(-0.566317 0.203065 -0.40313)
(-0.611943 0.20172 -0.411303)
(-0.628345 0.14805 -0.428342)
(-0.632079 0.205303 -0.421517)
(-0.628702 0.202425 -0.421858)
(-0.591909 0.164549 -0.402488)
(-0.647474 0.189625 -0.380176)
(-0.539232 0.221512 -0.416338)
(-0.64898 0.150139 -0.37921)
(-0.726886 0.168458 -0.416893)
(-0.616126 0.254791 -0.435567)
(-0.48842 0.210167 -0.380433)
(-0.679238 0.188752 -0.422765)
(-0.579328 0.168345 -0.40092)
(-0.681352 0.250807 -0.385719)
(-0.400538 0.0930287 -0.201837)
(-0.478948 0.165935 -0.367644)
(-0.367429 0.131954 -0.283805)
(-0.529305 0.146628 -0.379361)
(-0.5561 0.129231 -0.290089)
(-0.697714 0.0955293 -0.398723)
(-0.631105 0.114081 -0.368678)
(-0.677257 0.196379 -0.373179)
(-0.675444 0.202528 -0.384344)
(-0.68937 0.253823 -0.392453)
(-0.666282 0.144985 -0.418947)
(-0.674002 0.10227 -0.334141)
(-0.740222 0.0630829 -0.362019)
(-0.691588 0.0884567 -0.335719)
(-0.671842 0.175959 -0.477389)
(-0.676314 0.124041 -0.408714)
(-0.571042 0.116033 -0.286023)
(-0.661244 0.107133 -0.349546)
(-0.612183 0.100815 -0.377987)
(-0.622552 0.0816941 -0.371352)
(-0.619596 0.0946928 -0.365933)
(-0.659302 0.208919 -0.389001)
(-0.623653 0.256269 -0.437184)
(-0.624292 0.109902 -0.322262)
(-0.671765 0.100597 -0.355946)
(-0.654267 0.0861717 -0.392554)
(-0.509402 0.222145 -0.285616)
(-0.532734 0.206027 -0.315203)
(-0.416185 0.1381 -0.326715)
(-0.509168 0.0554776 -0.341405)
(-0.635065 0.237733 -0.366446)
(-0.658233 0.212638 -0.474193)
(-0.711405 0.0973265 -0.397727)
(-0.595908 0.226446 -0.393336)
(-0.516833 0.189159 -0.281661)
(-0.631059 0.221959 -0.432076)
(-0.37856 0.0744102 -0.303262)
(-0.674854 0.0759825 -0.395242)
(-0.693928 0.154862 -0.470498)
(-0.561303 0.109459 -0.279655)
(-0.706943 0.154095 -0.479097)
(-0.36439 0.091811 -0.199506)
(-0.456793 0.0648505 -0.316095)
(-0.36856 0.0990127 -0.245342)
(-0.591838 0.0577988 -0.356896)
(-0.641849 0.138075 -0.387368)
(-0.637156 0.197913 -0.370297)
(-0.333583 0.0720865 -0.267119)
(-0.382526 0.0778864 -0.301633)
(-0.563541 0.0591133 -0.349775)
(-0.733932 0.16506 -0.482698)
(-0.726538 0.180554 -0.407704)
(-0.72508 0.147396 -0.438566)
(-0.761192 0.159936 -0.455046)
(-0.71422 0.174462 -0.404533)
(-0.670694 0.180951 -0.391353)
(-0.447421 0.14134 -0.213085)
(-0.449936 0.139611 -0.220306)
(-0.593679 0.23687 -0.443637)
(-0.651953 0.10293 -0.330204)
(-0.675009 0.148403 -0.348677)
(-0.636437 0.155381 -0.330851)
(-0.704615 0.163801 -0.370635)
(-0.643656 0.165454 -0.342629)
(-0.599415 0.177054 -0.3105)
(-0.663098 0.159552 -0.404121)
(-0.453143 0.0632373 -0.244253)
(-0.523799 0.229405 -0.362835)
(-0.48728 0.206801 -0.334113)
(-0.539776 0.216349 -0.34137)
(-0.653773 0.16721 -0.335556)
(-0.670469 0.139734 -0.343377)
(-0.463548 0.131223 -0.243992)
(-0.560103 0.215383 -0.426012)
(-0.662399 0.1975 -0.416845)
(-0.579654 0.197026 -0.3634)
(-0.505083 0.115136 -0.363823)
(-0.583483 0.155185 -0.326405)
(-0.654441 0.151406 -0.377233)
(-0.644614 0.144789 -0.359364)
(-0.552868 0.200888 -0.324823)
(-0.587037 0.200614 -0.324013)
(-0.664407 0.129286 -0.361113)
(-0.56638 0.121606 -0.322104)
(-0.611303 0.0920327 -0.371476)
(-0.497079 0.0337963 -0.258359)
(-0.490183 0.0326165 -0.266948)
(-0.44276 0.112409 -0.217325)
(-0.582833 0.0668826 -0.277414)
(-0.494011 0.0628921 -0.243061)
(-0.725519 0.192348 -0.436326)
(-0.703981 0.192243 -0.427662)
(-0.66093 0.194112 -0.419932)
(-0.662159 0.0935001 -0.348137)
(-0.45925 0.23433 -0.276412)
(-0.463997 0.156722 -0.22834)
(-0.721449 0.207832 -0.408676)
(-0.662177 0.127813 -0.445248)
(-0.628618 0.12855 -0.42769)
(-0.361677 0.0789181 -0.246195)
(-0.675932 0.232531 -0.413766)
(-0.627207 0.138978 -0.426626)
(-0.709238 0.148333 -0.475122)
(-0.554809 0.118968 -0.390784)
(-0.506097 0.132573 -0.236681)
(-0.624395 0.110381 -0.311577)
(-0.581206 0.205981 -0.350274)
(-0.626064 0.198199 -0.378989)
(-0.613936 0.0703661 -0.385255)
(-0.589379 0.103081 -0.386435)
(-0.602387 0.127895 -0.408109)
(-0.530262 0.186495 -0.321824)
(-0.542957 0.181849 -0.320474)
(-0.509476 0.191456 -0.293893)
(-0.443142 0.128898 -0.343921)
(-0.556148 0.245391 -0.315611)
(-0.433366 0.120227 -0.335659)
(-0.42955 0.143099 -0.342374)
(-0.692917 0.177692 -0.377586)
(-0.537319 0.246244 -0.344977)
(-0.525679 0.244247 -0.323223)
(-0.640936 0.184054 -0.457224)
(-0.683319 0.150909 -0.455928)
(-0.676771 0.20294 -0.475781)
(-0.607515 0.0741856 -0.32102)
(-0.76511 0.0512021 -0.40964)
(-0.409848 0.140752 -0.200181)
(-0.553646 0.17947 -0.400608)
(-0.485992 0.140829 -0.373976)
(-0.671588 0.266245 -0.414668)
(-0.633049 0.262863 -0.416981)
(-0.676155 0.269835 -0.418667)
(-0.572075 0.013385 -0.284581)
(-0.599725 0.100182 -0.317483)
(-0.564256 0.237234 -0.41597)
(-0.558105 0.221583 -0.421578)
(-0.658061 0.0628547 -0.326806)
(-0.587857 0.0756591 -0.285436)
(-0.611873 0.20598 -0.435)
(-0.482191 0.226747 -0.385919)
(-0.463518 0.215415 -0.281091)
(-0.705553 0.225085 -0.39725)
(-0.587602 0.197344 -0.317924)
(-0.566664 0.168336 -0.419538)
(-0.349577 0.105347 -0.255116)
(-0.624306 0.0570892 -0.342715)
(-0.750664 0.0769514 -0.453577)
(-0.667677 0.107305 -0.389258)
(-0.629079 0.134952 -0.379856)
(-0.625995 0.125362 -0.409391)
(-0.685981 0.160922 -0.403015)
(-0.649132 0.149729 -0.435234)
(-0.431162 0.118638 -0.217314)
(-0.530807 0.249622 -0.370475)
(-0.685903 0.224149 -0.3919)
(-0.749939 0.242225 -0.435826)
(-0.58341 0.224478 -0.429274)
(-0.459222 0.126319 -0.22737)
(-0.482945 0.171546 -0.235796)
(-0.664798 0.251198 -0.383804)
(-0.680664 0.270689 -0.422831)
(-0.613888 0.124481 -0.318052)
(-0.321672 0.0728932 -0.181488)
(-0.427924 0.163697 -0.197551)
(-0.430487 0.118996 -0.212862)
(-0.443046 0.152374 -0.208144)
(-0.414165 0.11109 -0.216026)
(-0.441977 0.110294 -0.235994)
(-0.575412 0.153877 -0.290832)
(-0.498057 0.142925 -0.244447)
(-0.618829 0.267824 -0.41777)
(-0.509101 0.251665 -0.355271)
(-0.505189 0.25399 -0.352627)
(-0.716183 0.0825599 -0.370881)
(-0.660359 0.0281613 -0.327791)
(-0.376729 0.0760188 -0.231813)
(-0.39719 0.0766019 -0.241491)
(-0.684892 0.108518 -0.433026)
(-0.557263 0.13824 -0.37748)
(-0.652642 0.155668 -0.443355)
(-0.695455 0.142569 -0.430892)
(-0.731764 0.198466 -0.394672)
(-0.690002 0.168523 -0.385675)
(-0.698329 0.16944 -0.370585)
(-0.635464 0.137888 -0.31041)
(-0.622963 0.146856 -0.31143)
(-0.580536 0.158048 -0.292478)
(-0.682661 0.218507 -0.385069)
(-0.910078 0.0557893 -0.499685)
(-0.425207 0.112364 -0.248334)
(-0.690209 0.252714 -0.482758)
(-0.543883 0.136977 -0.266589)
(-0.543679 0.127834 -0.285512)
(-0.411515 0.053842 -0.25673)
(-0.514521 0.078166 -0.310394)
(-0.844659 0.195876 -0.530336)
(-0.442658 0.136699 -0.212584)
(-0.638928 0.171122 -0.337933)
(-0.654038 0.225555 -0.365807)
(-0.633362 0.17423 -0.451221)
(-0.788917 0.0813105 -0.467596)
(-0.922615 0.149134 -0.524588)
(-0.68897 0.10318 -0.431667)
(-0.614551 0.207452 -0.372306)
(-0.829963 0.110984 -0.472727)
(-0.62286 0.0901153 -0.374032)
(-0.91705 0.0295408 -0.486049)
(-0.484168 0.121786 -0.360092)
(-0.452229 0.10051 -0.335596)
(-0.939045 0.0767469 -0.527842)
(-0.715434 0.0587118 -0.391677)
(-0.505595 0.16864 -0.36271)
(-0.590229 0.0817871 -0.383216)
(-0.733223 0.177493 -0.418509)
(-0.748297 0.107164 -0.378592)
(-0.603689 0.0747488 -0.3309)
(-0.816888 0.10254 -0.455763)
(-0.853808 0.0741951 -0.477304)
(-0.625774 0.0735381 -0.323355)
(-0.872476 0.0133101 -0.47093)
(-0.677307 0.0579836 -0.342533)
(-0.648226 0.150122 -0.412303)
(-0.403344 0.11856 -0.30298)
(-0.900347 0.212829 -0.548523)
(-0.773969 0.217801 -0.518528)
(-0.56159 0.234345 -0.423888)
(-0.423574 0.101333 -0.310456)
(-0.585507 0.0998327 -0.320494)
(-0.807301 0.152675 -0.468781)
(-0.773556 0.126601 -0.460918)
(-0.754616 0.122883 -0.424814)
(-0.458023 0.0711614 -0.321836)
(-0.438186 0.085009 -0.313613)
(-0.601825 0.15685 -0.310854)
(-0.803276 0.170978 -0.462549)
(-0.91636 0.184602 -0.544199)
(-0.767902 0.214801 -0.457109)
(-0.789395 0.130295 -0.449553)
(-0.877136 0.14756 -0.513737)
(-0.821937 0.21023 -0.493194)
(-0.521501 0.207091 -0.323067)
(-0.497616 0.166221 -0.241603)
(-0.710346 0.233212 -0.451224)
(-0.493098 0.183418 -0.252927)
(-0.551821 0.207314 -0.284833)
(-0.642678 0.152821 -0.345578)
(-0.623571 0.244175 -0.381718)
(-0.645691 0.245287 -0.39006)
(-0.670979 0.229654 -0.420225)
(-0.588556 0.202836 -0.396998)
(-0.540245 0.182461 -0.409732)
(-0.383188 0.144048 -0.316264)
(-0.841252 0.226854 -0.505426)
(-0.669178 0.21154 -0.459024)
(-0.632078 0.175778 -0.395291)
(-0.741539 0.222767 -0.492339)
(-0.529042 0.254898 -0.361597)
(-0.84539 0.184067 -0.495075)
(-0.669785 0.246615 -0.372763)
(-0.774919 0.198466 -0.446941)
(-0.508294 0.243792 -0.342189)
(-0.56432 0.262272 -0.319877)
(-0.526668 0.219688 -0.268178)
(-0.72187 0.195821 -0.441814)
(-0.893163 0.201669 -0.542568)
(-0.713022 0.166218 -0.465543)
(-0.694906 0.177726 -0.404024)
(-0.878982 0.180592 -0.536911)
(-0.611511 0.135452 -0.399515)
(-0.648368 0.132929 -0.334547)
(-0.75573 0.104865 -0.395916)
(-0.738987 0.122236 -0.446296)
(-0.624068 0.114042 -0.326169)
(-0.845471 0.181196 -0.537791)
(-0.922729 0.125206 -0.538249)
(-0.917228 0.187688 -0.528894)
(-0.913493 0.157361 -0.537493)
(-0.905158 0.14764 -0.531495)
(-0.925199 0.137085 -0.532331)
(-0.901728 0.170537 -0.53337)
(-0.915684 0.0891933 -0.526086)
(-0.868259 0.0717486 -0.500749)
(-0.777964 0.107664 -0.449811)
(-0.785923 0.114469 -0.485444)
(-0.932819 0.0743416 -0.521355)
(-0.888525 0.0720622 -0.500533)
(-0.820578 0.124089 -0.498413)
(-0.718659 0.173991 -0.468488)
(-0.746356 0.177619 -0.485556)
(-0.892934 0.0683713 -0.508548)
(-0.854446 0.116057 -0.50963)
(-0.767057 0.115739 -0.454613)
(-0.664378 0.174649 -0.439802)
(-0.921951 0.111351 -0.535346)
(-0.846645 0.124188 -0.491757)
(-0.758798 0.140196 -0.49434)
(-0.902891 0.147588 -0.535612)
(-0.829137 0.145875 -0.505195)
(-0.707809 0.10593 -0.434161)
(-0.680074 0.0488292 -0.348584)
(-0.761152 0.0745049 -0.45247)
(-0.768096 0.153029 -0.432197)
(-0.801084 0.0948726 -0.451789)
(-0.898013 0.0607134 -0.479714)
(-0.643813 0.139588 -0.345256)
(-0.810532 0.0781063 -0.426799)
(-0.874129 0.0226707 -0.471882)
(-0.511121 0.110504 -0.241241)
(-0.893805 0.0324581 -0.482243)
(-0.720958 0.041261 -0.379307)
(-0.922873 0.135376 -0.517645)
(-0.808757 0.0971265 -0.470355)
(-0.771853 0.179614 -0.482795)
(-0.700497 0.161545 -0.455462)
(-0.929627 0.139042 -0.529233)
(-0.833208 0.121168 -0.484498)
(-0.604997 0.0478625 -0.346601)
(-0.551959 0.0811348 -0.373311)
(-0.55665 0.103314 -0.384851)
(-0.864549 0.061238 -0.479814)
(-0.954877 0.0420191 -0.52339)
(-0.930506 0.106925 -0.516658)
(-0.934627 0.0592047 -0.517398)
(-0.907515 0.0729162 -0.493752)
(-0.941583 0.0641056 -0.518337)
(-0.914053 0.0862381 -0.509833)
(-0.488708 0.0680111 -0.345385)
(-0.454645 0.0424164 -0.291192)
(-0.934485 0.0330317 -0.516454)
(-0.76204 0.0600043 -0.436874)
(-0.745 0.0195537 -0.42023)
(-0.699474 0.0336647 -0.380642)
(-0.917697 0.0535379 -0.510601)
(-0.696357 0.090128 -0.419538)
(-0.478586 0.12821 -0.365972)
(-0.701163 0.189767 -0.411828)
(-0.643122 0.123324 -0.423578)
(-0.709313 0.161892 -0.45655)
(-0.811117 0.117554 -0.471521)
(-0.958301 -0.0181944 -0.511871)
(-0.670127 0.0159018 -0.33649)
(-0.65599 0.0125342 -0.346902)
(-0.725229 0.0271926 -0.369537)
(-0.903285 0.0190564 -0.479997)
(-0.590965 0.115376 -0.333852)
(-0.624401 0.0777313 -0.307109)
(-0.677152 0.114297 -0.354675)
(-0.597568 0.12405 -0.314275)
(-0.935362 0.0178105 -0.508111)
(-0.584457 0.0548734 -0.367456)
(-0.748987 -0.00236041 -0.405901)
(-0.693256 0.0167719 -0.394671)
(-0.798789 0.0179247 -0.443841)
(-0.782692 0.219938 -0.449562)
(-0.745985 0.170329 -0.454381)
(-0.604918 0.252539 -0.349956)
(-0.876472 0.0412351 -0.485193)
(-0.753125 0.0540053 -0.402719)
(-0.806876 0.0593015 -0.46267)
(-0.791166 0.0553189 -0.432314)
(-0.902388 0.0419595 -0.491826)
(-0.897918 0.0488005 -0.488292)
(-0.799063 0.0499266 -0.439682)
(-0.497634 0.122013 -0.266726)
(-0.471558 0.129185 -0.249783)
(-0.80127 0.223453 -0.531232)
(-0.620385 0.215902 -0.456152)
(-0.630204 0.219394 -0.45621)
(-0.761261 0.232338 -0.517781)
(-0.735796 0.237592 -0.510283)
(-0.542002 0.096718 -0.279386)
(-0.453151 0.138117 -0.216994)
(-0.578333 0.104355 -0.286182)
(-0.602528 0.102783 -0.299771)
(-0.523671 0.123238 -0.283779)
(-0.514397 0.111263 -0.281107)
(-0.524501 0.114706 -0.297245)
(-0.607366 0.0816193 -0.34944)
(-0.40249 0.0786141 -0.212141)
(-0.692796 0.0904204 -0.38428)
(-0.395602 0.077487 -0.280047)
(-0.510857 0.0748958 -0.272245)
(-0.591438 0.117703 -0.309518)
(-0.621728 0.108953 -0.332815)
(-0.533738 0.0890357 -0.298019)
(-0.384881 0.071769 -0.210753)
(-0.51076 0.0841969 -0.275471)
(-0.593191 0.161807 -0.31079)
(-0.530765 0.128653 -0.266032)
(-0.64499 0.190204 -0.374001)
(-0.547756 0.154421 -0.29137)
(-0.826495 0.213227 -0.539742)
(-0.687621 0.249754 -0.455022)
(-0.75056 0.224393 -0.509044)
(-0.705205 0.239772 -0.475859)
(-0.832675 0.207626 -0.527347)
(-0.834523 0.200057 -0.527758)
(-0.708898 0.242139 -0.486342)
(-0.430961 0.123044 -0.205876)
(-0.615782 0.127563 -0.321356)
(-0.77645 0.175734 -0.448919)
(-0.604452 0.197669 -0.333489)
(-0.763743 0.156146 -0.425879)
(-0.602979 0.174484 -0.316278)
(-0.719033 0.178877 -0.405742)
(-0.670334 0.185872 -0.36688)
(-0.588315 0.174159 -0.310024)
(-0.68124 0.168507 -0.348529)
(-0.651472 0.169657 -0.340109)
(-0.643315 0.182934 -0.338959)
(-0.688659 0.171462 -0.351285)
(-0.805081 0.206048 -0.452975)
(-0.74217 0.204325 -0.439808)
(-0.689919 0.207364 -0.379951)
(-0.444554 0.167857 -0.358862)
(-0.426632 0.14058 -0.342825)
(-0.477921 0.142418 -0.362342)
(-0.641614 0.196894 -0.395746)
(-0.560106 0.141073 -0.29989)
(-0.564331 0.200253 -0.287641)
(-0.623493 0.179729 -0.327394)
(-0.649213 0.194432 -0.347412)
(-0.796525 0.212462 -0.525637)
(-0.760784 0.186378 -0.507914)
(-0.690966 0.20728 -0.48654)
(-0.651434 0.17471 -0.453688)
(-0.759445 0.193812 -0.510719)
(-0.745129 0.183746 -0.500224)
(-0.720123 0.188829 -0.491626)
(-0.924748 0.0333106 -0.513049)
(-0.85554 0.0492546 -0.47754)
(-0.924296 0.0445268 -0.518368)
(-0.850888 0.0592612 -0.476557)
(-0.884814 0.0486043 -0.497136)
(-0.830278 0.0611951 -0.469814)
(-0.881834 0.0505678 -0.496604)
(-0.843795 0.195317 -0.477734)
(-0.858935 0.162558 -0.506713)