/*--------------------------------*- C++ -*----------------------------------*\
| =========                 |                                                 |
| \\      /  F ield         | OpenFOAM: The Open Source CFD Toolbox           |
|  \\    /   O peration     | Version:  v1612+                                |
|   \\  /    A nd           | Web:      www.OpenFOAM.com                      |
|    \\/     M anipulation  |                                                 |
\*---------------------------------------------------------------------------*/
FoamFile
{
    version     2.0;
    format      ascii;
    class       volVectorField;
    location    "100";
    object      wallShearStress;
}
// * * * * * * * * * * * * * * * * * * * * * * * * * * * * * * * * * * * * * //

dimensions      [0 2 -2 0 0 0 0];

internalField   uniform (0 0 0);

boundaryField
{
    WALL
    {
        type            calculated;
        value           nonuniform List<vector> 
1518
(
(0.0158976 -0.00423214 0.0065561)
(0.0159677 -0.00457959 0.00677767)
(0.0086257 -0.0023756 0.0047421)
(0.00900465 -0.00281091 0.00439536)
(0.0167529 -0.00524725 0.00768565)
(0.0170036 -0.00606997 0.00746124)
(0.00974551 -0.00480751 0.00390358)
(0.0103619 -0.00552775 0.00400362)
(0.00890052 -0.00278313 0.00452144)
(0.00888598 -0.00308781 0.00393157)
(0.0108952 -0.00519181 0.00376784)
(0.0104165 -0.00404636 0.00380717)
(0.0114361 -0.00435095 0.00404364)
(0.0111611 -0.00394566 0.00414129)
(0.0104177 -0.005332 0.00431542)
(0.0103198 -0.00461453 0.00429734)
(0.0113817 -0.00804964 0.0101805)
(0.0101061 -0.00931663 0.00842612)
(0.0114691 -0.0054094 0.00422072)
(0.0131888 -0.00622637 0.00486716)
(0.0109705 -0.00962642 0.0105843)
(0.0103225 -0.00780938 0.00876728)
(0.0130649 -0.00315155 0.0047039)
(0.00809687 -0.00208662 0.0056127)
(0.00807318 -0.00201367 0.00545043)
(0.0102753 -0.00644179 0.00966861)
(0.011806 -0.00771707 0.0108727)
(0.0115394 -0.00850819 0.0104109)
(0.014851 -0.00398914 0.0114577)
(0.0152791 -0.00369988 0.0108666)
(0.0176631 -0.00579329 0.0087071)
(0.0171455 -0.00592479 0.00806972)
(0.015321 -0.00745105 0.00722271)
(0.0157544 -0.00777041 0.00775243)
(0.0157812 -0.00846724 0.00706956)
(0.0160245 -0.00760228 0.00664024)
(0.0144593 -0.00731302 0.00558306)
(0.0145288 -0.00811117 0.0064939)
(0.0157751 -0.00341231 0.00814356)
(0.0168321 -0.00415591 0.00850092)
(0.0162136 -0.00620617 0.00801216)
(0.0103901 -0.00929062 0.0095211)
(0.0100435 -0.00708304 0.00906765)
(0.00993313 -0.0090294 0.00958662)
(0.0101005 -0.00794778 0.0100046)
(0.0106712 -0.00814131 0.00935245)
(0.00928914 -0.00809566 0.00916252)
(0.00953663 -0.00377105 0.00397493)
(0.00942959 -0.00365764 0.00377736)
(0.0106473 -0.00477555 0.004624)
(0.00949238 -0.00382244 0.00404659)
(0.00999574 -0.0037373 0.00433474)
(0.00928228 -0.00383253 0.00389421)
(0.0105076 -0.00588332 0.00357493)
(0.00970356 -0.00432403 0.0039084)
(0.0138418 -0.00428456 0.0112526)
(0.0141487 -0.00401923 0.0102327)
(0.0138558 -0.0045801 0.0116596)
(0.0145772 -0.00445918 0.0112204)
(0.0145499 -0.00409875 0.0111331)
(0.0142233 -0.00407175 0.0110822)
(0.0120733 -0.0103489 0.00865995)
(0.0131334 -0.0102461 0.00890121)
(0.0118084 -0.0087973 0.00814946)
(0.0131757 -0.0105633 0.00889999)
(0.0134219 -0.0107922 0.00887096)
(0.0152131 -0.00941614 0.00760828)
(0.0165459 -0.00832885 0.00827925)
(0.0152246 -0.00911427 0.00742074)
(0.0156585 -0.00797996 0.00827975)
(0.0155862 -0.0100865 0.00780367)
(0.0154286 -0.0100833 0.00768257)
(0.0111297 -0.00812726 0.00590579)
(0.0109365 -0.00743097 0.00619379)
(0.00984355 -0.00731329 0.00475555)
(0.0104098 -0.00742476 0.00505768)
(0.010013 -0.00754738 0.00525174)
(0.0107514 -0.00808492 0.00517235)
(0.00888841 -0.00696902 0.00993053)
(0.00913368 -0.00586685 0.0096629)
(0.00840562 -0.00567648 0.00910089)
(0.00868516 -0.00644568 0.00935134)
(0.0082751 -0.0053191 0.00943188)
(0.0083607 -0.00474841 0.00913803)
(0.0127539 -0.0055669 0.0123476)
(0.0123163 -0.00569328 0.0119679)
(0.0126704 -0.00562858 0.012652)
(0.0132229 -0.00504254 0.0126112)
(0.0137129 -0.00545862 0.0129823)
(0.0127776 -0.00613921 0.0127046)
(0.0137422 -0.00711211 0.00579288)
(0.0135876 -0.00741152 0.00567073)
(0.0144412 -0.00804941 0.00665792)
(0.0147394 -0.00755831 0.00527411)
(0.0137876 -0.00800774 0.0048458)
(0.0151225 -0.00751763 0.00573135)
(0.0121941 -0.0101757 0.00936412)
(0.0127388 -0.00916593 0.00995146)
(0.0116025 -0.0089355 0.00878111)
(0.0116565 -0.00880774 0.00896284)
(0.0114141 -0.00895841 0.00972873)
(0.0114162 -0.00849874 0.00969941)
(0.00840278 -0.00271855 0.00580376)
(0.00846924 -0.00312673 0.00667665)
(0.00840072 -0.00293898 0.00623554)
(0.00835573 -0.003058 0.00648143)
(0.0100433 -0.00702132 0.00983074)
(0.00991978 -0.00762198 0.0102389)
(0.00943818 -0.00613615 0.0095933)
(0.00928415 -0.00679261 0.00994205)
(0.00985218 -0.00726687 0.0102067)
(0.00907509 -0.00589354 0.00905125)
(0.00822613 -0.00408227 0.00830183)
(0.00848355 -0.00375919 0.00828058)
(0.00885966 -0.00474299 0.00887631)
(0.0083264 -0.0038262 0.00794934)
(0.0087534 -0.00429418 0.00854118)
(0.00913336 -0.00452155 0.00868442)
(0.00876186 -0.00575533 0.00928104)
(0.00858713 -0.00501198 0.0088718)
(0.00850179 -0.00453862 0.00855385)
(0.00882611 -0.00450789 0.00885059)
(0.00900829 -0.00584231 0.00949106)
(0.00893349 -0.00540122 0.00928133)
(0.00973682 -0.00726681 0.00993705)
(0.00970229 -0.00744424 0.00919738)
(0.00989471 -0.00695924 0.00987223)
(0.0102421 -0.0093832 0.0102774)
(0.0100519 -0.00845451 0.00959446)
(0.0107252 -0.00826476 0.0104536)
(0.0170932 -0.00689823 0.00813157)
(0.0168516 -0.00684763 0.00761131)
(0.0165222 -0.00682247 0.00781488)
(0.0168913 -0.00636875 0.00787031)
(0.016783 -0.0072436 0.00827093)
(0.0168753 -0.00649157 0.007885)
(0.0167543 -0.00554919 0.00836487)
(0.016672 -0.00483155 0.00910234)
(0.0168358 -0.00500378 0.0089304)
(0.0158698 -0.00447365 0.00904877)
(0.0164741 -0.00498088 0.00913356)
(0.0168026 -0.00549302 0.00839824)
(0.0130774 -0.00959323 0.00961683)
(0.0116922 -0.00994833 0.00955485)
(0.0134753 -0.0094045 0.00896882)
(0.0130529 -0.010311 0.0100552)
(0.0120619 -0.00983677 0.00988593)
(0.013476 -0.00988753 0.00952499)
(0.0136017 -0.010661 0.00791656)
(0.0129668 -0.00981731 0.00825952)
(0.0144994 -0.00958529 0.00886199)
(0.0152894 -0.00968184 0.00861506)
(0.0149345 -0.0111814 0.0101844)
(0.0129578 -0.0104662 0.00775813)
(0.0144236 -0.00954999 0.00875929)
(0.0111055 -0.00876945 0.0100224)
(0.0114697 -0.00832121 0.00946044)
(0.0114355 -0.00866956 0.0101937)
(0.015105 -0.00254832 0.00941587)
(0.0152151 -0.00288934 0.00993756)
(0.0160923 -0.00294832 0.00917573)
(0.0148018 -0.00264598 0.00927204)
(0.0155158 -0.00267756 0.0105438)
(0.0144677 -0.00247033 0.0106732)
(0.0142324 -0.00227743 0.00766568)
(0.0139661 -0.00202363 0.006938)
(0.01454 -0.00250183 0.00686447)
(0.0141763 -0.00209774 0.00786901)
(0.0145793 -0.00242579 0.0071986)
(0.0144394 -0.0020367 0.00758741)
(0.0130238 -0.00817941 0.00587846)
(0.0116505 -0.00795646 0.00593078)
(0.0125514 -0.00820949 0.00718234)
(0.012864 -0.0087422 0.00636115)
(0.0122919 -0.00758993 0.00580176)
(0.0125285 -0.00780581 0.00687357)
(0.0131784 -0.00494191 0.00400866)
(0.0137837 -0.00454617 0.0043318)
(0.0135689 -0.00400777 0.00432112)
(0.0148843 -0.00639475 0.00553926)
(0.0148158 -0.00707954 0.00538575)
(0.0152693 -0.00656812 0.00592081)
(0.0149493 -0.00756581 0.00558844)
(0.014969 -0.00459159 0.00540351)
(0.0158809 -0.00446289 0.00621604)
(0.0153996 -0.00402328 0.00607164)
(0.0155426 -0.00378934 0.00629079)
(0.015717 -0.00521796 0.00559945)
(0.01486 -0.0051626 0.0052864)
(0.0160108 -0.00474082 0.0065488)
(0.015005 -0.00279773 0.0082622)
(0.0151646 -0.00281084 0.00796402)
(0.0159828 -0.00317765 0.00848845)
(0.0154907 -0.00307729 0.00734981)
(0.0159677 -0.00378067 0.0071336)
(0.0159788 -0.00356818 0.00756517)
(0.0164754 -0.00414237 0.00749762)
(0.0157951 -0.00502289 0.00930337)
(0.0162184 -0.00536264 0.0087008)
(0.0158732 -0.00500254 0.00891399)
(0.0151737 -0.00469072 0.00908801)
(0.0160449 -0.00513474 0.00906663)
(0.0158716 -0.00514479 0.00886222)
(0.01534 -0.00481452 0.00942981)
(0.0145595 -0.00479447 0.0102199)
(0.0148743 -0.00467111 0.00998499)
(0.0150887 -0.00470769 0.00972352)
(0.0151509 -0.00471389 0.0102152)
(0.0146848 -0.00457575 0.00984861)
(0.0148216 -0.00837493 0.00703794)
(0.0158439 -0.0096428 0.00763841)
(0.0164454 -0.00817428 0.00829739)
(0.0162354 -0.00998379 0.00754305)
(0.0166707 -0.00679052 0.0081105)
(0.0162693 -0.00583741 0.00809398)
(0.0164503 -0.0058187 0.00838137)
(0.0162843 -0.006493 0.00780483)
(0.0164331 -0.00621636 0.00807743)
(0.0166636 -0.00634973 0.00796335)
(0.00998333 -0.00518208 0.0100316)
(0.0102861 -0.00582992 0.00990836)
(0.0111901 -0.000712742 0.00679824)
(0.0110403 -0.00101972 0.0063291)
(0.0117577 -0.000950766 0.00627432)
(0.0113881 -0.00118846 0.00588637)
(0.0120626 -0.00107988 0.00603575)
(0.0118856 -0.0014504 0.00556606)
(0.0158072 -0.00871994 0.00702666)
(0.0164003 -0.0082708 0.0069334)
(0.0155673 -0.00995452 0.00708511)
(0.0145072 -0.00929033 0.00664939)
(0.0156754 -0.00689692 0.00707517)
(0.0160742 -0.00788498 0.00759515)
(0.014149 -0.00993922 0.00671037)
(0.0143199 -0.00986668 0.00680743)
(0.0147043 -0.00886576 0.00788025)
(0.0139272 -0.00934413 0.00784234)
(0.0142139 -0.00956391 0.00677434)
(0.0130793 -0.0088766 0.00684159)
(0.0169235 -0.00419622 0.00949801)
(0.0170489 -0.00444902 0.00910745)
(0.0167131 -0.00401474 0.00948184)
(0.0165148 -0.00403888 0.00979423)
(0.0164947 -0.00399466 0.0103682)
(0.0165511 -0.00382261 0.0102724)
(0.0153446 -0.00896766 0.0080976)
(0.0133411 -0.0108132 0.00802238)
(0.0144901 -0.00970745 0.008477)
(0.012735 -0.00994913 0.00795911)
(0.0144571 -0.00917313 0.00800785)
(0.0131864 -0.0108588 0.00821532)
(0.0125836 -0.00309985 0.0106725)
(0.0134201 -0.00290819 0.0112189)
(0.0125476 -0.00307223 0.0108412)
(0.0145046 -0.00597077 0.00649564)
(0.0129923 -0.00660173 0.00474722)
(0.0140597 -0.00661428 0.00607244)
(0.0136641 -0.00754823 0.00610211)
(0.0125655 -0.00688276 0.00578878)
(0.0131996 -0.00559278 0.00510831)
(0.0121319 -0.00779635 0.0118553)
(0.0110129 -0.00798991 0.010348)
(0.0116743 -0.00819966 0.0113044)
(0.0123926 -0.00747106 0.0115666)
(0.0116426 -0.00853846 0.0108427)
(0.0128615 -0.0051502 0.0122479)
(0.0123957 -0.00655561 0.0125245)
(0.0120165 -0.0056665 0.0121557)
(0.0122163 -0.00603591 0.012468)
(0.0121338 -0.005313 0.0123656)
(0.0120684 -0.00619558 0.0120031)
(0.0125057 -0.00347736 0.0113523)
(0.0134227 -0.00457226 0.0123306)
(0.0127593 -0.00347789 0.011577)
(0.0122071 -0.00493306 0.0121525)
(0.0119399 -0.00369879 0.0111966)
(0.0125679 -0.00470703 0.0116832)
(0.0116761 -0.00602738 0.01189)
(0.0119407 -0.00682841 0.011848)
(0.0121109 -0.00627967 0.0119468)
(0.012387 -0.00717988 0.0116456)
(0.0116781 -0.00690353 0.011404)
(0.0121257 -0.00615557 0.0122968)
(0.00871248 -0.00638509 0.00961071)
(0.0093978 -0.00713122 0.00981177)
(0.00915905 -0.0069389 0.00962458)
(0.00901165 -0.00665269 0.00995216)
(0.0101444 -0.00766729 0.00980889)
(0.00991352 -0.00787681 0.00950941)
(0.008311 -0.00194825 0.00757569)
(0.00882574 -0.00141296 0.00674659)
(0.00843386 -0.00179716 0.00760888)
(0.00823349 -0.00151 0.0067635)
(0.00834331 -0.00177281 0.00734989)
(0.00853794 -0.00153467 0.00727493)
(0.00859257 -0.00455907 0.00948706)
(0.00845157 -0.00514299 0.00940046)
(0.00816109 -0.0042505 0.00920767)
(0.00900579 -0.00507505 0.00964551)
(0.00834877 -0.00396121 0.00929106)
(0.00833619 -0.00478072 0.00941234)
(0.00765567 -0.00232536 0.00655774)
(0.00753965 -0.00205004 0.00606174)
(0.00770478 -0.00214231 0.00612303)
(0.00775626 -0.00197092 0.00598789)
(0.0078215 -0.00257969 0.00714341)
(0.00747652 -0.00222081 0.00636466)
(0.00786036 -0.00408973 0.00910885)
(0.00811358 -0.00408873 0.00904723)
(0.00797739 -0.00373842 0.00873154)
(0.0085791 -0.00488951 0.00960282)
(0.00783411 -0.00461286 0.00927335)
(0.00767321 -0.00270524 0.00785638)
(0.00801403 -0.00294973 0.00826385)
(0.00767752 -0.00228971 0.00733567)
(0.00779929 -0.002461 0.00779003)
(0.00802253 -0.00315693 0.00819986)
(0.00799014 -0.00210439 0.00745179)
(0.0116895 -0.00342184 0.00451326)
(0.0112994 -0.00302027 0.00448727)
(0.0122499 -0.00475901 0.00469233)
(0.0117304 -0.00393642 0.00423194)
(0.0114619 -0.00388681 0.00444028)
(0.0112974 -0.00348321 0.00408457)
(0.0102464 -0.00188998 0.00473911)
(0.0102828 -0.00162796 0.00534768)
(0.0106349 -0.00252403 0.0047817)
(0.0100945 -0.00211899 0.00451685)
(0.0100191 -0.00172754 0.00495622)
(0.0109224 -0.0022596 0.00488408)
(0.0120895 -0.0071329 0.00938019)
(0.0132175 -0.00695325 0.0111438)
(0.0131367 -0.00720516 0.0103984)
(0.0126343 -0.00916454 0.00846497)
(0.0118859 -0.00713409 0.0095186)
(0.0135666 -0.00840629 0.009464)
(0.0135144 -0.0075696 0.010085)
(0.0123496 -0.00831967 0.0101217)
(0.0130088 -0.00754849 0.00853219)
(0.0122097 -0.00725437 0.0124302)
(0.0123356 -0.00715806 0.0121024)
(0.0120184 -0.00782428 0.0121103)
(0.0110636 -0.00771572 0.0110747)
(0.0111546 -0.00776622 0.0118249)
(0.011282 -0.00815433 0.0116065)
(0.0111256 -0.00803764 0.0116378)
(0.0114937 -0.00773278 0.0110512)
(0.0121896 -0.00831984 0.0108747)
(0.0110206 -0.00823122 0.00979278)
(0.0108321 -0.00703326 0.0104877)
(0.0113353 -0.00986787 0.00935755)
(0.0114265 -0.00772193 0.0103847)
(0.012171 -0.00872115 0.0100014)
(0.011647 -0.00856079 0.00912949)
(0.0116729 -0.00852302 0.0102604)
(0.0118022 -0.00897843 0.0111554)
(0.0117013 -0.00849134 0.00859565)
(0.0105738 -0.00937301 0.00887792)
(0.010251 -0.00820194 0.00807697)
(0.0110416 -0.00937972 0.00895391)
(0.0120063 -0.00887239 0.00834253)
(0.0111697 -0.00905302 0.0091687)
(0.011196 -0.00593001 0.00485507)
(0.0106261 -0.00659502 0.0044094)
(0.0111679 -0.00731597 0.00507921)
(0.0106582 -0.0058526 0.00491676)
(0.0119883 -0.00742729 0.00550435)
(0.011422 -0.00788488 0.00542991)
(0.0130881 -0.00817116 0.00647009)
(0.012855 -0.0080155 0.00623462)
(0.0134023 -0.0080657 0.00706315)
(0.0140494 -0.00784688 0.0080144)
(0.0121769 -0.00736044 0.0064485)
(0.012985 -0.00720355 0.00792513)
(0.0115607 -0.00800281 0.00673686)
(0.0111543 -0.00733288 0.00661264)
(0.0107654 -0.0089653 0.0067247)
(0.0101717 -0.00813237 0.00623396)
(0.0110579 -0.00796678 0.00588368)
(0.0109853 -0.00708541 0.00563743)
(0.0107001 -0.00603413 0.00488644)
(0.0108243 -0.00588442 0.00476166)
(0.0104545 -0.00655951 0.00488445)
(0.0104812 -0.0057078 0.00431335)
(0.0103956 -0.00530407 0.00419756)
(0.0109877 -0.00683157 0.00501554)
(0.0113736 -0.00850379 0.00789319)
(0.0107469 -0.00944707 0.00706442)
(0.0104797 -0.00878512 0.00715604)
(0.010135 -0.00748795 0.00655744)
(0.0107923 -0.00932102 0.00715974)
(0.0111231 -0.00948357 0.00799976)
(0.0113255 -0.00968114 0.00973884)
(0.0103572 -0.0100949 0.00861676)
(0.0101459 -0.0101568 0.00844923)
(0.0111959 -0.0087222 0.00896712)
(0.00971287 -0.00840934 0.00771297)
(0.0111493 -0.00870925 0.0104528)
(0.0103734 -0.00860658 0.0101571)
(0.0116641 -0.00894117 0.00969639)
(0.0102959 -0.00811549 0.00937891)
(0.0112835 -0.00845352 0.00981119)
(0.0102187 -0.00865971 0.00975391)
(0.010484 -0.00670686 0.00486865)
(0.00984394 -0.0070331 0.00377321)
(0.0100631 -0.00579801 0.00498433)
(0.0108661 -0.00686797 0.00451928)
(0.0111669 -0.00831312 0.00534704)
(0.0102103 -0.00767863 0.00439712)
(0.0104034 -0.00753415 0.00488101)
(0.010412 -0.00669403 0.00509546)
(0.0107618 -0.00644907 0.00399259)
(0.0107568 -0.00611083 0.00448203)
(0.00984793 -0.00442508 0.00408446)
(0.0100234 -0.00495923 0.00384135)
(0.00994817 -0.00485687 0.0044691)
(0.0103049 -0.0053457 0.00438922)
(0.0105319 -0.00612875 0.00439344)
(0.00956285 -0.00555246 0.00427681)
(0.0106184 -0.00798985 0.00662024)
(0.0101952 -0.0075917 0.0060598)
(0.0106643 -0.00978246 0.00686099)
(0.011351 -0.00813524 0.00609717)
(0.0100366 -0.00851036 0.0057885)
(0.0100962 -0.00939553 0.00648676)
(0.0117304 -0.00789727 0.00625558)
(0.0108697 -0.00966053 0.00871069)
(0.00996983 -0.00896293 0.0066855)
(0.0112485 -0.00932849 0.0082828)
(0.0163097 -0.00807092 0.00833947)
(0.0167044 -0.00850958 0.00809669)
(0.0151467 -0.00865492 0.00798384)
(0.0163807 -0.0088375 0.0071654)
(0.0153698 -0.00809905 0.00694478)
(0.0158837 -0.00916509 0.00786945)
(0.0110377 -0.0101524 0.00961342)
(0.0113988 -0.0104239 0.00973273)
(0.0105369 -0.00844259 0.00850629)
(0.0126769 -0.00941152 0.00954073)
(0.0118338 -0.00995839 0.00933804)
(0.0130869 -0.0103967 0.0095288)
(0.0117784 -0.00852137 0.00768669)
(0.0120211 -0.00979158 0.00770779)
(0.0122093 -0.00921213 0.00775198)
(0.0125786 -0.00940141 0.00934194)
(0.0127942 -0.00972361 0.00924485)
(0.0127965 -0.00997046 0.00869722)
(0.0114184 -0.00907199 0.0100999)
(0.00986834 -0.00868447 0.00996559)
(0.0104288 -0.0083721 0.00951797)
(0.011626 -0.00914285 0.00911355)
(0.0102026 -0.00836797 0.0100259)
(0.0118801 -0.00975739 0.00992768)
(0.0130053 -0.00951706 0.00825051)
(0.013741 -0.0108956 0.00858134)
(0.014835 -0.0093661 0.00867339)
(0.0138644 -0.00897767 0.0073208)
(0.0148132 -0.010057 0.00774021)
(0.0147278 -0.00931689 0.00843659)
(0.0126367 -0.0052376 0.0119564)
(0.0132818 -0.00523124 0.0119874)
(0.013952 -0.00508431 0.0121833)
(0.0131734 -0.00442491 0.0114213)
(0.0140948 -0.00474677 0.0121974)
(0.0154294 -0.00411485 0.0103597)
(0.0157156 -0.00427579 0.00989953)
(0.0158453 -0.00399512 0.0104063)
(0.0155632 -0.00410424 0.00963172)
(0.0149369 -0.00391073 0.00999317)
(0.00922331 -0.00323047 0.00425312)
(0.00819543 -0.00264332 0.00423052)
(0.00871737 -0.00304168 0.00403471)
(0.00893582 -0.00286012 0.00471107)
(0.00853616 -0.00279891 0.00441645)
(0.00992153 -0.00464591 0.00406855)
(0.00973163 -0.00342877 0.00430787)
(0.00999882 -0.00394642 0.00442289)
(0.00974871 -0.00372497 0.00407812)
(0.0102411 -0.00427411 0.00433069)
(0.00896631 -0.00227773 0.00487055)
(0.00910434 -0.00282054 0.00439795)
(0.00893472 -0.00247394 0.00445818)
(0.00944328 -0.00285899 0.00450194)
(0.00946366 -0.00314098 0.00434972)
(0.00899142 -0.00251981 0.00478657)
(0.0115987 -0.00526501 0.00480413)
(0.0105716 -0.00466556 0.0039001)
(0.0108085 -0.00491614 0.00444296)
(0.0100483 -0.00406241 0.00357154)
(0.0108292 -0.00476174 0.00375065)
(0.0111709 -0.00523906 0.00496627)
(0.00936392 -0.00126675 0.00635325)
(0.00919602 -0.00137381 0.00609362)
(0.00923948 -0.00122946 0.00582867)
(0.00995361 -0.00135498 0.00580809)
(0.00950181 -0.00143599 0.00572816)
(0.00870107 -0.00141283 0.00608988)
(0.00850446 -0.00189144 0.0047587)
(0.00854111 -0.00205092 0.00439842)
(0.00853707 -0.00166628 0.00499554)
(0.00888878 -0.00217667 0.00435982)
(0.00893855 -0.00203327 0.00470228)
(0.00868939 -0.00184928 0.00482017)
(0.00988595 -0.00340176 0.0038561)
(0.00935008 -0.00285845 0.00385819)
(0.00957131 -0.00272557 0.00409558)
(0.0100431 -0.00372157 0.00367876)
(0.0098715 -0.0031525 0.00405477)
(0.00986694 -0.00329464 0.00393593)
(0.00790273 -0.00242966 0.00482519)
(0.00802976 -0.00252931 0.00511961)
(0.00790692 -0.00249015 0.00552051)
(0.00832672 -0.00256867 0.00558124)
(0.00808605 -0.00252286 0.00473342)
(0.00806599 -0.00250706 0.00588814)
(0.00806136 -0.00348101 0.00784063)
(0.0082232 -0.00254368 0.00696561)
(0.00763564 -0.00292351 0.00736389)
(0.0083155 -0.0030715 0.00758691)
(0.00803246 -0.0034335 0.00790301)
(0.00773074 -0.00266628 0.00679845)
(0.00819 -0.00221177 0.00650823)
(0.0082094 -0.00202593 0.00499188)
(0.00807744 -0.00196786 0.00535131)
(0.00771104 -0.00196199 0.00512085)
(0.00804658 -0.00191725 0.0055962)
(0.00809843 -0.00203786 0.00524397)
(0.00912525 -0.00293043 0.00433812)
(0.00890597 -0.00255761 0.00450791)
(0.00902994 -0.00269624 0.0046149)
(0.0096043 -0.00339231 0.00430696)
(0.00927275 -0.00320675 0.00424942)
(0.00934665 -0.00347054 0.00407411)
(0.008963 -0.00296538 0.00418661)
(0.00861304 -0.00247894 0.0045952)
(0.0122944 -0.00669232 0.01209)
(0.0116819 -0.00700873 0.011972)
(0.0125629 -0.00614572 0.0122911)
(0.0122337 -0.0065173 0.0123216)
(0.0123781 -0.00598913 0.0120396)
(0.011929 -0.00722101 0.0121008)
(0.0114894 -0.00831496 0.00959575)
(0.0110052 -0.00852594 0.00758621)
(0.0113335 -0.00882439 0.00807798)
(0.0102313 -0.00765913 0.00735664)
(0.0107425 -0.00838308 0.00852088)
(0.0119545 -0.00935466 0.00831438)
(0.0107826 -0.00838385 0.00925014)
(0.0130313 -0.00328654 0.0115853)
(0.0132691 -0.00421169 0.0124226)
(0.0134646 -0.00382869 0.0119104)
(0.0139796 -0.00281591 0.0113767)
(0.0142508 -0.00332077 0.0118857)
(0.0128311 -0.00386909 0.0119102)
(0.0129679 -0.00289993 0.0104688)
(0.0129767 -0.0033755 0.0115207)
(0.0137157 -0.00363573 0.0115339)
(0.0127517 -0.00364426 0.0113934)
(0.014006 -0.00301968 0.0116173)
(0.016073 -0.00898013 0.00722805)
(0.0146371 -0.00941117 0.00688404)
(0.0149444 -0.00962502 0.00695891)
(0.0158055 -0.00961548 0.0073702)
(0.016212 -0.00910839 0.00770942)
(0.0163446 -0.0078932 0.00761871)
(0.0176894 -0.00697019 0.00851234)
(0.0166642 -0.00722133 0.00783609)
(0.0167998 -0.00720069 0.00746157)
(0.015653 -0.00599428 0.00639368)
(0.0170537 -0.0062125 0.00752895)
(0.0160617 -0.00670838 0.00692022)
(0.0163097 -0.00549841 0.00694546)
(0.0166223 -0.00583542 0.00687351)
(0.0170626 -0.00720861 0.00714138)
(0.0172954 -0.00635763 0.00816666)
(0.0175873 -0.00658138 0.00801191)
(0.0168716 -0.0049888 0.00857506)
(0.0179189 -0.0066098 0.00832404)
(0.0170895 -0.00527907 0.00823317)
(0.0173073 -0.00590884 0.0081664)
(0.0168899 -0.00498741 0.00767128)
(0.0168943 -0.00442588 0.00833654)
(0.0172808 -0.00565559 0.00762842)
(0.0167549 -0.0059844 0.00786479)
(0.0171809 -0.00465582 0.00838877)
(0.0174294 -0.00514521 0.0083041)
(0.0168672 -0.00654868 0.00719033)
(0.0168428 -0.00727734 0.00765721)
(0.0131714 -0.00340655 0.0115071)
(0.0131503 -0.00457792 0.0120968)
(0.012702 -0.00467258 0.0123938)
(0.0101968 -0.00941642 0.00943554)
(0.00919443 -0.00624479 0.00974961)
(0.0119252 -0.00667443 0.0116493)
(0.0108144 -0.00572289 0.00435313)
(0.010607 -0.00529716 0.00421552)
(0.00860056 -0.00239774 0.00488952)
(0.00827383 -0.00236091 0.00442995)
(0.00910749 -0.00273875 0.00462886)
(0.0086987 -0.00276823 0.00420547)
(0.00896344 -0.00285255 0.004393)
(0.00825579 -0.00242316 0.00488456)
(0.0102946 -0.00461897 0.00413024)
(0.0100885 -0.00434832 0.00408083)
(0.0103461 -0.00831553 0.0102843)
(0.011649 -0.00719038 0.011265)
(0.0110832 -0.00788502 0.0109876)
(0.0110237 -0.00831409 0.0108764)
(0.011693 -0.00688109 0.0114517)
(0.0119436 -0.00725819 0.0111854)
(0.0112701 -0.00653862 0.0109918)
(0.0116217 -0.00842216 0.0109383)
(0.0116436 -0.00785677 0.011243)
(0.0113757 -0.00776233 0.0117163)
(0.0113551 -0.00681183 0.0109642)
(0.0115585 -0.00769656 0.0108028)
(0.00846824 -0.00400125 0.00857616)
(0.00945257 -0.00221161 0.00458413)
(0.00907866 -0.00224041 0.00438857)
(0.00967523 -0.00236039 0.0041514)
(0.0104188 -0.00307089 0.00411385)
(0.0100225 -0.00268447 0.00406535)
(0.0109943 -0.00377003 0.00408515)
(0.0103137 -0.00350119 0.00396781)
(0.0100045 -0.00272964 0.0042443)
(0.0100884 -0.00269123 0.00435661)
(0.0112811 -0.00443671 0.00430296)
(0.0113255 -0.00492235 0.00455274)
(0.0106816 -0.00458912 0.0039848)
(0.0105331 -0.00453739 0.00418684)
(0.0105971 -0.00438932 0.00397237)
(0.0117836 -0.00614757 0.00470071)
(0.01182 -0.00500907 0.00479775)
(0.00841217 -0.0022163 0.00480316)
(0.0100443 -0.00432974 0.00410145)
(0.00975935 -0.00391273 0.00415029)
(0.0099205 -0.00438843 0.00443634)
(0.00946103 -0.0035795 0.00392721)
(0.00959872 -0.00343671 0.00413465)
(0.00956084 -0.00376227 0.00425479)
(0.00956635 -0.00344412 0.00414338)
(0.00879223 -0.00296494 0.00413021)
(0.00932605 -0.00387382 0.00405877)
(0.00991275 -0.00408934 0.00404566)
(0.00912124 -0.00337681 0.00416254)
(0.00961316 -0.00413977 0.00387815)
(0.00959869 -0.00387107 0.00407616)
(0.00890961 -0.00200395 0.00499892)
(0.00866654 -0.00217172 0.0048699)
(0.00842274 -0.00207668 0.00432348)
(0.00932276 -0.00259868 0.00419124)
(0.00873796 -0.00231834 0.00442449)
(0.00888858 -0.00255914 0.0041361)
(0.010201 -0.00424307 0.00400227)
(0.00972766 -0.00358761 0.00386944)
(0.0102397 -0.00425025 0.00394916)
(0.00940574 -0.00315629 0.00394816)
(0.0103154 -0.00391523 0.00431187)
(0.00934797 -0.00329807 0.00390256)
(0.00894017 -0.00255925 0.00421467)
(0.00916906 -0.00239551 0.00464563)
(0.0094794 -0.00297356 0.00430371)
(0.00941325 -0.00304145 0.00431209)
(0.00752296 -0.00265827 0.00612526)
(0.00826442 -0.0023994 0.00475363)
(0.00828945 -0.00259637 0.00455997)
(0.00953789 -0.00347344 0.00411471)
(0.00943006 -0.00383028 0.00401686)
(0.0125736 -0.00574722 0.0120851)
(0.0135002 -0.0103818 0.010216)
(0.0127542 -0.00974217 0.01023)
(0.0122605 -0.0100013 0.00893825)
(0.0135402 -0.00975747 0.00908146)
(0.0144984 -0.00911598 0.00888997)
(0.0149997 -0.0104026 0.00859844)
(0.0144271 -0.0098141 0.00913416)
(0.0139792 -0.00909477 0.0078429)
(0.0128486 -0.0101809 0.00936227)
(0.010095 -0.00696041 0.0101497)
(0.00978617 -0.00683468 0.00956414)
(0.00929258 -0.00736309 0.00955144)
(0.0113147 -0.00889209 0.00849411)
(0.0123818 -0.00942271 0.0103735)
(0.00999058 -0.00834852 0.0101801)
(0.0104075 -0.00989701 0.0102701)
(0.0114667 -0.00843872 0.00917128)
(0.0114587 -0.010015 0.00958687)
(0.0112599 -0.00841988 0.0100663)
(0.0114865 -0.00918509 0.00941935)
(0.0152365 -0.010726 0.00791675)
(0.0148727 -0.0100497 0.00772583)
(0.0148306 -0.00955369 0.00744902)
(0.0168371 -0.00842461 0.00735316)
(0.0157281 -0.00701058 0.00782819)
(0.0120588 -0.00535008 0.0115192)
(0.012305 -0.00564184 0.011448)
(0.0131771 -0.00564662 0.0119424)
(0.00911585 -0.00801961 0.0058348)
(0.00979201 -0.00460729 0.00382905)
(0.0101069 -0.00489322 0.00373832)
(0.009641 -0.00764892 0.00485257)
(0.010596 -0.00767704 0.00467811)
(0.0105299 -0.00784853 0.00541819)
(0.0103656 -0.0053163 0.00426082)
(0.0101542 -0.00553899 0.00383292)
(0.00987898 -0.00526117 0.00419196)
(0.0100467 -0.0054816 0.0043313)
(0.010513 -0.00848348 0.0105175)
(0.0112765 -0.00781026 0.0112884)
(0.0105867 -0.0082601 0.0104335)
(0.0111866 -0.00908266 0.00769678)
(0.011886 -0.00904101 0.0103303)
(0.0105442 -0.00806506 0.00977156)
(0.0107045 -0.00872129 0.0103719)
(0.00977018 -0.00777481 0.00903117)
(0.0105947 -0.00833815 0.00870306)
(0.010503 -0.0095254 0.00875169)
(0.0102146 -0.00824432 0.00762286)
(0.00990436 -0.00801834 0.0054733)
(0.0105101 -0.00826672 0.0062515)
(0.010136 -0.00844036 0.00733443)
(0.0106894 -0.00495827 0.00438396)
(0.0108269 -0.00473706 0.00436508)
(0.0102162 -0.0046081 0.00441925)
(0.0104064 -0.0052921 0.00435876)
(0.0102771 -0.0061368 0.00414789)
(0.00981322 -0.00508695 0.00419658)
(0.0103691 -0.005583 0.00409608)
(0.00985808 -0.00813696 0.00665784)
(0.0110642 -0.00780867 0.00684576)
(0.0105753 -0.00786591 0.0070577)
(0.0101243 -0.00711342 0.004154)
(0.0103372 -0.00659585 0.00382959)
(0.0105463 -0.00629882 0.00469601)
(0.0110871 -0.00756879 0.00501774)
(0.0102934 -0.00870735 0.00578527)
(0.00991382 -0.00766083 0.00515683)
(0.0106804 -0.00688318 0.0059653)
(0.0114319 -0.00771413 0.0058158)
(0.0103044 -0.00762332 0.00585817)
(0.0107166 -0.00913899 0.00611552)
(0.0122561 -0.00686958 0.00460433)
(0.0119691 -0.00650112 0.00446671)
(0.0122148 -0.00677439 0.00471465)
(0.0124056 -0.00611007 0.00490154)
(0.0122098 -0.00553826 0.00452049)
(0.0126238 -0.00795902 0.00638027)
(0.0129561 -0.0078217 0.00618727)
(0.0124889 -0.00917205 0.00839696)
(0.01297 -0.00765407 0.00741846)
(0.0123941 -0.00837443 0.00848329)
(0.0118188 -0.00753104 0.00766694)
(0.0131764 -0.00832104 0.00718588)
(0.0120537 -0.00860746 0.00672522)
(0.0107987 -0.00719063 0.00496339)
(0.0110845 -0.00546551 0.00484592)
(0.0106777 -0.00517924 0.0041948)
(0.0107948 -0.00510296 0.00424851)
(0.0108958 -0.0054743 0.00438571)
(0.012337 -0.00671941 0.0054556)
(0.0130034 -0.00711638 0.00530646)
(0.0113903 -0.0066745 0.00581573)
(0.0111615 -0.00717919 0.00592641)
(0.0121185 -0.00797132 0.00645618)
(0.0126077 -0.00749346 0.00533171)
(0.0124699 -0.00692175 0.00628431)
(0.0108438 -0.00698999 0.00602008)
(0.0115158 -0.00881209 0.0063688)
(0.0117191 -0.00711716 0.00635192)
(0.0117328 -0.00687965 0.0057918)
(0.0110772 -0.00712935 0.0048428)
(0.0113435 -0.00669852 0.00482784)
(0.0121284 -0.00722095 0.00483844)
(0.0109499 -0.00582295 0.00437111)
(0.0117763 -0.00732703 0.00481997)
(0.0108538 -0.00830312 0.00710514)
(0.0111076 -0.00791472 0.00646755)
(0.0113099 -0.00792002 0.00823522)
(0.010828 -0.00973296 0.00886001)
(0.0110331 -0.00887162 0.00841502)
(0.0122959 -0.00931013 0.00855889)
(0.012595 -0.00877385 0.0081494)
(0.0116578 -0.00876751 0.00866036)
(0.0113072 -0.00720652 0.00645578)
(0.0127505 -0.00832409 0.00770469)
(0.0107528 -0.00769736 0.00760669)
(0.0108665 -0.00880355 0.00600457)
(0.0116044 -0.00793392 0.00772567)
(0.0118264 -0.00775831 0.00833275)
(0.0116832 -0.00965724 0.0087243)
(0.0112747 -0.00978259 0.00832113)
(0.0121541 -0.00783559 0.00809377)
(0.0134161 -0.0083214 0.00818266)
(0.0111128 -0.00719774 0.0112469)
(0.0116415 -0.00805797 0.0113472)
(0.0113822 -0.00741073 0.0115184)
(0.0120276 -0.00870325 0.0113684)
(0.0126747 -0.00653676 0.0121954)
(0.0116164 -0.00771179 0.0119368)
(0.0119069 -0.00911786 0.0110363)
(0.0107733 -0.00957237 0.0102414)
(0.010758 -0.00941846 0.00956243)
(0.0119672 -0.00863736 0.0112993)
(0.0110016 -0.00970892 0.0096032)
(0.0104538 -0.00794007 0.00833718)
(0.0108726 -0.00901244 0.0098394)
(0.0103465 -0.00908433 0.00940257)
(0.0104152 -0.00828774 0.00894733)
(0.0111785 -0.00881644 0.00913609)
(0.0116709 -0.00889986 0.00882121)
(0.0110045 -0.00983622 0.00994598)
(0.0120365 -0.00848846 0.0104456)
(0.0106536 -0.00730766 0.0102482)
(0.0114318 -0.00865899 0.0114204)
(0.0111452 -0.00817518 0.0111719)
(0.0108863 -0.00791607 0.0107614)
(0.011919 -0.00880031 0.0108585)
(0.0114883 -0.00800273 0.0106289)
(0.0111213 -0.00853851 0.00941228)
(0.0118827 -0.0092044 0.0103561)
(0.0112712 -0.00787151 0.0114884)
(0.0113861 -0.00745171 0.011778)
(0.0119617 -0.00816097 0.0119374)
(0.0132562 -0.00908019 0.0096455)
(0.0142163 -0.00824826 0.0100186)
(0.0125734 -0.00766164 0.00764419)
(0.00941115 -0.00182453 0.00478868)
(0.00962312 -0.00206886 0.00440725)
(0.00949458 -0.00154667 0.00524854)
(0.00996149 -0.0023269 0.00420309)
(0.0109487 -0.00256818 0.00449778)
(0.0109726 -0.00317704 0.00425036)
(0.0115636 -0.00257965 0.00460226)
(0.0118298 -0.00288548 0.00451972)
(0.00963317 -0.00137707 0.00528614)
(0.0097865 -0.00134776 0.00563397)