/*--------------------------------*- C++ -*----------------------------------*\
| =========                 |                                                 |
| \\      /  F ield         | OpenFOAM: The Open Source CFD Toolbox           |
|  \\    /   O peration     | Version:  v1612+                                |
|   \\  /    A nd           | Web:      www.OpenFOAM.com                      |
|    \\/     M anipulation  |                                                 |
\*---------------------------------------------------------------------------*/
FoamFile
{
    version     2.0;
    format      ascii;
    class       volScalarField;
    location    "100";
    object      p;
}
// * * * * * * * * * * * * * * * * * * * * * * * * * * * * * * * * * * * * * //

dimensions      [0 2 -2 0 0 0 0];

internalField   nonuniform List<scalar> 
16914
(
2.62979
2.63387
2.63157
2.62467
2.61804
2.61974
2.6222
2.62751
2.62394
2.62092
2.61925
2.62014
2.62021
2.62039
2.61951
2.61849
2.63851
2.63953
2.63312
2.64255
2.64542
2.64301
2.64489
2.64352
2.64397
2.64997
2.64928
2.644
2.63506
2.64158
2.64352
2.63892
2.64158
2.64207
2.64042
2.64082
2.64982
2.65596
2.65375
2.65202
2.64923
2.64613
2.6512
2.64485
2.64633
2.64415
2.6473
2.65589
2.64167
2.6387
2.63389
2.6364
2.64334
2.63461
2.6377
2.63729
2.64085
2.63949
2.64477
2.64036
2.64339
2.64493
2.64142
2.64456
2.64238
2.63773
2.64177
2.64779
2.64047
2.64099
2.65006
2.65621
2.65298
2.65333
2.65288
2.65305
2.65015
2.66139
2.65434
2.66009
2.66121
2.64452
2.63616
2.63701
2.6413
2.64452
2.64662
2.64699
2.64958
2.64358
2.64484
2.64048
2.62292
2.61956
2.62077
2.62157
2.61653
2.62323
2.61976
2.61579
2.62024
2.62067
2.61306
2.6252
2.62876
2.62834
2.62843
2.63095
2.6334
2.63191
2.63861
2.63921
2.6236
2.62505
2.62872
2.63601
2.62621
2.63474
2.63346
2.63062
2.63285
2.63003
2.63355
2.63581
2.63584
2.63016
2.63243
2.62917
2.63093
2.6324
2.6311
2.62651
2.63146
2.63014
2.62724
2.62781
2.63198
2.63159
2.63357
2.63385
2.63144
2.63684
2.63447
2.58769
2.58558
2.58864
2.58476
2.58891
2.58988
2.59039
2.59229
2.59733
2.59413
2.59167
2.60043
2.59324
2.59862
2.60216
2.59922
2.66814
2.66729
2.66183
2.66667
2.66671
2.65745
2.65863
2.65639
2.6535
2.65532
2.65817
2.6586
2.65418
2.65542
2.65289
2.65317
2.65262
2.65425
2.6531
2.6531
2.65025
2.64853
2.65483
2.64991
2.64951
2.65083
2.63963
2.64416
2.64011
2.64369
2.63934
2.64164
2.64251
2.64348
2.6456
2.64436
2.64356
2.65014
2.64983
2.65021
2.64454
2.64484
2.65412
2.65013
2.64593
2.65275
2.65397
2.65355
2.64849
2.65104
2.65602
2.64945
2.65269
2.6474
2.64677
2.65082
2.6514
2.65453
2.62494
2.62443
2.62272
2.62825
2.61912
2.61586
2.62198
2.61959
2.61575
2.62235
2.61835
2.61916
2.62184
2.6297
2.62458
2.6185
2.61897
2.61514
2.6195
2.62396
2.62669
2.62652
2.62561
2.63076
2.63124
2.62632
2.63078
2.61691
2.62182
2.61895
2.62404
2.63851
2.62183
2.61929
2.64897
2.6488
2.64975
2.64865
2.64969
2.64824
2.64755
2.65531
2.64949
2.65266
2.64914
2.65605
2.65575
2.65028
2.65527
2.65734
2.65709
2.65828
2.65186
2.65719
2.64991
2.65359
2.65173
2.64719
2.6555
2.65272
2.64652
2.6518
2.64463
2.64603
2.64187
2.64468
2.64958
2.64849
2.64517
2.64063
2.64523
2.64438
2.65246
2.64699
2.63637
2.64377
2.64518
2.56408
2.56189
2.56684
2.56641
2.56381
2.56929
2.56236
2.56623
2.5676
2.56766
2.56644
2.56311
2.56319
2.57155
2.56768
2.57024
2.56905
2.57059
2.56901
2.56886
2.56903
2.56941
2.60867
2.60862
2.60834
2.60453
2.6112
2.61051
2.61461
2.61427
2.60898
2.60932
2.61537
2.60578
2.61111
2.60615
2.60828
2.61637
2.61443
2.61527
2.56776
2.56619
2.56033
2.63348
2.63673
2.64289
2.64387
2.64209
2.63982
2.64424
2.64158
2.64793
2.65233
2.64226
2.64403
2.64339
2.64076
2.64048
2.63773
2.63542
2.63081
2.63305
2.63671
2.63692
2.63278
2.63631
2.62939
2.63738
2.64243
2.6356
2.64201
2.64013
2.64558
2.64596
2.64469
2.63999
2.64418
2.64882
2.64857
2.65435
2.647
2.64686
2.6506
2.64909
2.65699
2.65556
2.65596
2.65765
2.65774
2.65048
2.65495
2.64695
2.57355
2.56906
2.56199
2.55852
2.55976
2.55874
2.56691
2.56177
2.56244
2.56364
2.55776
2.56067
2.56558
2.56342
2.56043
2.66344
2.66435
2.66642
2.66187
2.66714
2.66434
2.65843
2.65897
2.6649
2.66623
2.66252
2.6692
2.66461
2.66812
2.66631
2.63142
2.63349
2.62334
2.6317
2.63378
2.62979
2.63205
2.6307
2.63525
2.6366
2.63103
2.62894
2.63865
2.64132
2.62755
2.6355
2.63723
2.63641
2.61739
2.61079
2.61526
2.61676
2.60609
2.6079
2.61067
2.61311
2.60783
2.61078
2.60358
2.60679
2.6089
2.61106
2.61231
2.61788
2.62275
2.61137
2.6073
2.61213
2.60495
2.61058
2.61105
2.60875
2.61486
2.61325
2.61603
2.61605
2.61317
2.6182
2.57207
2.57226
2.56916
2.57241
2.56869
2.56988
2.57304
2.60625
2.61584
2.6096
2.60942
2.60843
2.60672
2.60048
2.60557
2.61101
2.60882
2.60921
2.61415
2.61508
2.61277
2.61004
2.63897
2.63992
2.6414
2.64207
2.63882
2.64166
2.63876
2.63785
2.64153
2.64407
2.64601
2.64054
2.64168
2.64447
2.64553
2.63998
2.66893
2.66811
2.67352
2.66772
2.66701
2.66844
2.66592
2.67032
2.67135
2.67408
2.66739
2.67147
2.66899
2.55109
2.55667
2.55951
2.55543
2.55206
2.55329
2.55231
2.55512
2.56047
2.55005
2.55349
2.5581
2.55424
2.5604
2.55944
2.55676
2.55933
2.55584
2.55741
2.55726
2.56624
2.56174
2.56845
2.56514
2.56515
2.56721
2.55811
2.56561
2.56627
2.5621
2.562
2.5668
2.56269
2.56379
2.56263
2.56394
2.56553
2.56173
2.56179
2.60207
2.60162
2.60633
2.60639
2.60195
2.61368
2.60784
2.61361
2.61553
2.5895
2.58152
2.59546
2.59008
2.58419
2.58257
2.59241
2.5912
2.59784
2.59254
2.58355
2.59279
2.59376
2.58539
2.58903
2.59373
2.5973
2.59593
2.59718
2.57992
2.5887
2.58906
2.5974
2.63658
2.63336
2.63853
2.6381
2.63967
2.64226
2.64597
2.63418
2.64134
2.637
2.63633
2.63965
2.63966
2.63683
2.64028
2.64365
2.63854
2.63946
2.6423
2.58741
2.58331
2.5835
2.58286
2.58779
2.58839
2.58365
2.58009
2.5824
2.58287
2.58509
2.58112
2.58073
2.58115
2.5853
2.58506
2.58821
2.58388
2.58603
2.58695
2.54973
2.55463
2.55524
2.55786
2.5524
2.55464
2.55226
2.55346
2.55156
2.59197
2.5885
2.58699
2.58949
2.59457
2.59117
2.59818
2.59492
2.59587
2.59455
2.58931
2.59166
2.59463
2.59714
2.59095
2.59138
2.59291
2.5936
2.59128
2.58355
2.58756
2.5867
2.58817
2.5898
2.59721
2.58916
2.59138
2.59652
2.59186
2.59062
2.59371
2.59428
2.59506
2.59757
2.59758
2.59688
2.59587
2.59838
2.59719
2.59517
2.60832
2.60779
2.6
2.59175
2.59693
2.6027
2.60408
2.60635
2.60517
2.60902
2.60605
2.59977
2.60413
2.60267
2.5983
2.64193
2.64646
2.64918
2.64828
2.65395
2.65394
2.64497
2.64431
2.6498
2.65258
2.65105
2.65669
2.64678
2.64604
2.64288
2.65287
2.64913
2.65313
2.64728
2.62116
2.62523
2.61937
2.62172
2.62017
2.61929
2.61737
2.61979
2.61919
2.61459
2.6105
2.61444
2.61938
2.61453
2.60846
2.61775
2.61458
2.61975
2.6233
2.6234
2.63037
2.62865
2.6275
2.62679
2.62757
2.62913
2.62268
2.62525
2.63387
2.63878
2.6289
2.62806
2.6278
2.63305
2.63691
2.63965
2.63085
2.64685
2.64889
2.64745
2.65124
2.64795
2.6533
2.6482
2.65156
2.6535
2.65496
2.65323
2.65032
2.6507
2.65606
2.65287
2.653
2.65208
2.6576
2.65184
2.65322
2.5859
2.58326
2.58614
2.58347
2.5921
2.58998
2.58361
2.59094
2.58818
2.58733
2.58323
2.58126
2.58472
2.59099
2.58769
2.58522
2.58162
2.58166
2.59
2.5819
2.63639
2.63717
2.63371
2.63797
2.63567
2.63178
2.63551
2.63131
2.63186
2.63648
2.64952
2.64683
2.64699
2.64715
2.64437
2.65019
2.64337
2.64491
2.6464
2.64325
2.64324
2.6474
2.64047
2.64802
2.62358
2.62425
2.61869
2.61964
2.62318
2.62563
2.62671
2.62941
2.62661
2.62109
2.6243
2.62294
2.62722
2.61918
2.61785
2.61941
2.61697
2.62623
2.61681
2.61946
2.62562
2.6213
2.63147
2.62405
2.62103
2.63044
2.63112
2.62736
2.63705
2.6368
2.63034
2.63621
2.63432
2.63344
2.63655
2.63692
2.63373
2.64153
2.62771
2.63258
2.63849
2.64392
2.63372
2.6356
2.63012
2.62631
2.62638
2.63288
2.62747
2.6208
2.62331
2.61988
2.62035
2.62252
2.62344
2.62846
2.62439
2.62471
2.62884
2.62201
2.61968
2.64311
2.64156
2.64434
2.64676
2.6469
2.63964
2.6422
2.64064
2.64452
2.64073
2.64031
2.65075
2.63322
2.64241
2.64309
2.64386
2.64093
2.64135
2.64314
2.64088
2.6177
2.61497
2.6232
2.62116
2.62495
2.62592
2.62067
2.62052
2.60725
2.62615
2.62778
2.62014
2.62525
2.61398
2.61376
2.6271
2.61738
2.62019
2.6213
2.61396
2.59519
2.59285
2.59323
2.59236
2.60167
2.60083
2.59752
2.59348
2.59741
2.59789
2.60134
2.59591
2.6006
2.59985
2.59405
2.59879
2.60266
2.60136
2.63331
2.63795
2.63627
2.62957
2.63143
2.63844
2.63343
2.63165
2.63249
2.63728
2.63227
2.63667
2.63177
2.63657
2.6374
2.64072
2.64891
2.63428
2.6406
2.64189
2.63943
2.64343
2.6349
2.64237
2.61067
2.61558
2.61263
2.60531
2.60606
2.60954
2.61432
2.60433
2.60419
2.60571
2.60802
2.61211
2.60229
2.60023
2.59856
2.61481
2.60851
2.60387
2.60769
2.60494
2.58817
2.58871
2.59156
2.59478
2.59308
2.58567
2.58902
2.58729
2.58939
2.58074
2.5847
2.58901
2.58475
2.58197
2.58143
2.59162
2.58562
2.626
2.62417
2.62039
2.61986
2.6216
2.62448
2.61983
2.62859
2.62362
2.61909
2.61715
2.61807
2.62188
2.62442
2.62666
2.62557
2.62594
2.63187
2.62512
2.62674
2.62268
2.62395
2.62527
2.62058
2.62701
2.63131
2.63082
2.62676
2.62573
2.63382
2.62064
2.62047
2.62111
2.62763
2.62639
2.67458
2.67556
2.67463
2.6786
2.66016
2.66521
2.66811
2.673
2.67115
2.67078
2.67391
2.66277
2.66823
2.66865
2.6717
2.66291
2.66697
2.66586
2.66771
2.66335
2.66418
2.60561
2.61264
2.60688
2.60555
2.65503
2.65871
2.66226
2.62814
2.63168
2.65134
2.65193
2.59264
2.59629
2.5974
2.66981
2.67547
2.67114
2.65367
2.65105
2.64847
2.61854
2.61572
2.6213
2.64272
2.64175
2.63547
2.63969
2.62512
2.62151
2.62064
2.6026
2.59656
2.59991
2.621
2.6225
2.65779
2.6526
2.65579
2.56603
2.56764
2.6161
2.62281
2.61446
2.61562
2.58287
2.58744
2.58145
2.665
2.66785
2.66529
2.56622
2.5691
2.55978
2.58904
2.63932
2.6382
2.64262
2.55872
2.55871
2.67223
2.66451
2.6671
2.61724
2.6177
2.62584
2.66251
2.65702
2.66008
2.63689
2.63787
2.61656
2.61744
2.6206
2.6248
2.58433
2.58371
2.62481
2.62178
2.61152
2.61417
2.61447
2.61938
2.61707
2.64873
2.65016
2.65648
2.59183
2.59363
2.58911
2.59514
2.57932
2.57579
2.57299
2.61474
2.61627
2.62736
2.62527
2.65224
2.65305
2.648
2.64331
2.644
2.63913
2.56291
2.56624
2.56727
2.60887
2.61203
2.64113
2.64314
2.62996
2.6352
2.63512
2.63269
2.63201
2.62758
2.63286
2.58214
2.58131
2.64984
2.65297
2.64713
2.64859
2.59944
2.59905
2.62782
2.62622
2.61606
2.62275
2.64896
2.6467
2.64029
2.63575
2.63386
2.6405
2.64242
2.60649
2.60166
2.636
2.63745
2.63131
2.63484
2.63674
2.66154
2.66406
2.66576
2.6663
2.66295
2.6652
2.64509
2.64828
2.65092
2.63868
2.62317
2.6282
2.62478
2.63633
2.63219
2.63998
2.63855
2.63661
2.63597
2.63453
2.6325
2.6326
2.62284
2.64113
2.63988
2.63936
2.63914
2.64043
2.63365
2.64353
2.63554
2.62565
2.63801
2.6371
2.6418
2.63456
2.62845
2.62621
2.63296
2.62922
2.6284
2.62703
2.63277
2.62522
2.6286
2.64082
2.64519
2.63891
2.64275
2.64044
2.65084
2.63864
2.63409
2.63012
2.63694
2.64278
2.5988
2.60507
2.60091
2.59626
2.59779
2.60025
2.59755
2.60821
2.6218
2.61861
2.60857
2.61489
2.60635
2.60077
2.60115
2.61618
2.61422
2.61238
2.59973
2.5986
2.60695
2.60776
2.60179
2.60646
2.59608
2.60225
2.60169
2.60909
2.60875
2.60772
2.60981
2.60986
2.61525
2.60335
2.60362
2.60363
2.60382
2.60657
2.609
2.61543
2.6123
2.63797
2.64412
2.6455
2.63817
2.64303
2.64286
2.64325
2.63795
2.65133
2.64327
2.64453
2.64466
2.65427
2.65107
2.6552
2.64814
2.63207
2.64297
2.63984
2.63207
2.64004
2.63539
2.63005
2.63248
2.63342
2.63791
2.63625
2.63199
2.63817
2.63618
2.63357
2.64432
2.64827
2.65493
2.65148
2.65242
2.64913
2.65054
2.6607
2.66688
2.65716
2.65169
2.65285
2.65016
2.64885
2.6537
2.63446
2.64287
2.63947
2.64176
2.65042
2.64141
2.64568
2.64838
2.64172
2.63743
2.64197
2.6371
2.61643
2.61785
2.62523
2.62028
2.62608
2.6264
2.63282
2.627
2.63267
2.62445
2.62017
2.6122
2.61262
2.62002
2.61136
2.6167
2.61038
2.60703
2.60424
2.59814
2.59977
2.59758
2.60169
2.59208
2.59746
2.59531
2.59657
2.59441
2.59449
2.59537
2.59597
2.60468
2.59749
2.6039
2.60142
2.59532
2.5949
2.59562
2.60055
2.64579
2.64421
2.65612
2.65978
2.65259
2.65421
2.65377
2.65094
2.64701
2.65146
2.64787
2.64462
2.63913
2.64295
2.64376
2.65173
2.64735
2.65263
2.57216
2.57596
2.57949
2.57796
2.58664
2.59243
2.58805
2.5784
2.57145
2.57536
2.58234
2.5927
2.58186
2.58127
2.57811
2.57877
2.58149
2.58391
2.58551
2.58841
2.58716
2.63866
2.63952
2.63093
2.61278
2.61602
2.62114
2.63126
2.64092
2.64269
2.63272
2.62884
2.63306
2.62297
2.62764
2.63297
2.6232
2.62343
2.61294
2.61681
2.61621
2.61551
2.62338
2.62506
2.62264
2.62337
2.6218
2.63811
2.63468
2.6289
2.62921
2.62751
2.63044
2.62804
2.63439
2.63249
2.63772
2.63667
2.63394
2.63188
2.63351
2.63368
2.62891
2.63708
2.63267
2.62668
2.63249
2.63728
2.63223
2.63533
2.63887
2.63097
2.63069
2.62062
2.59487
2.59227
2.61531
2.61393
2.61827
2.62211
2.61162
2.61156
2.62688
2.61973
2.62201
2.61649
2.62856
2.6172
2.61256
2.61667
2.61315
2.6124
2.61565
2.61441
2.59789
2.60338
2.6088
2.60842
2.61639
2.60569
2.60086
2.60065
2.60197
2.57669
2.56859
2.57354
2.56767
2.56299
2.56725
2.56169
2.56424
2.55262
2.56225
2.55858
2.56076
2.56783
2.56084
2.56465
2.56596
2.57293
2.56494
2.56725
2.65461
2.64946
2.65182
2.64922
2.64581
2.63869
2.64004
2.63853
2.64289
2.64036
2.6403
2.63835
2.64059
2.63881
2.6408
2.64705
2.64673
2.64295
2.64063
2.64451
2.64522
2.66118
2.656
2.66351
2.65418
2.6518
2.65608
2.6538
2.65441
2.65165
2.64536
2.64602
2.64478
2.63909
2.64948
2.65096
2.66439
2.66075
2.65327
2.65676
2.65346
2.65154
2.65507
2.65317
2.65388
2.65116
2.62784
2.62887
2.62382
2.62144
2.61387
2.63015
2.62685
2.63535
2.63131
2.64149
2.63534
2.63275
2.62412
2.62899
2.6293
2.60085
2.59635
2.6009
2.62586
2.61773
2.62111
2.61451
2.60446
2.61258
2.61786
2.61395
2.61861
2.57682
2.58083
2.57978
2.59605
2.59397
2.59082
2.58854
2.56609
2.56546
2.57125
2.57091
2.57658
2.56834
2.57419
2.57098
2.58097
2.57428
2.57789
2.57766
2.5726
2.57418
2.57519
2.57
2.58273
2.57577
2.57694
2.58697
2.57915
2.5811
2.58477
2.58709
2.59813
2.60342
2.59404
2.60313
2.58339
2.58932
2.58656
2.59762
2.59776
2.59812
2.59425
2.59056
2.58942
2.5935
2.59261
2.58216
2.58498
2.59486
2.59278
2.60053
2.59879
2.60128
2.59683
2.59768
2.59527
2.59257
2.58937
2.59082
2.58932
2.59518
2.59944
2.59962
2.59921
2.59697
2.64365
2.65061
2.65003
2.64459
2.64641
2.63589
2.64112
2.64584
2.65364
2.65507
2.65978
2.66342
2.654
2.65165
2.6605
2.61882
2.6107
2.62885
2.62243
2.61971
2.6154
2.61459
2.6133
2.61248
2.62432
2.62675
2.62364
2.608
2.61157
2.60734
2.61283
2.61792
2.61201
2.61334
2.61316
2.61203
2.6148
2.61765
2.6199
2.61348
2.61414
2.61277
2.62547
2.62879
2.63516
2.6275
2.62918
2.62366
2.62662
2.62689
2.62754
2.63442
2.62722
2.63156
2.62609
2.63588
2.63271
2.61734
2.61535
2.61805
2.62018
2.61795
2.57559
2.58192
2.5807
2.58282
2.58357
2.58659
2.58405
2.58075
2.57332
2.58209
2.5877
2.5788
2.57968
2.58179
2.57824
2.57646
2.57577
2.59152
2.59623
2.59906
2.59227
2.58889
2.5975
2.59341
2.58978
2.59236
2.58505
2.59098
2.5921
2.58649
2.61052
2.61543
2.61328
2.61592
2.61135
2.62265
2.61938
2.61701
2.62332
2.61286
2.61021
2.61113
2.6144
2.62005
2.64085
2.64046
2.63212
2.64644
2.64153
2.64861
2.63282
2.63361
2.6374
2.6382
2.63268
2.63684
2.63935
2.64048
2.63862
2.64986
2.64473
2.65852
2.65614
2.66646
2.66507
2.66848
2.66622
2.66019
2.66168
2.66471
2.66219
2.6604
2.66142
2.66547
2.66605
2.66139
2.6682
2.66548
2.62827
2.62187
2.62716
2.62956
2.63072
2.62372
2.62385
2.62089
2.62233
2.61742
2.63016
2.62768
2.61887
2.6165
2.60622
2.61209
2.6124
2.61748
2.62813
2.6569
2.66485
2.66273
2.66753
2.66624
2.67045
2.66855
2.67368
2.67213
2.65511
2.66543
2.66474
2.66137
2.67067
2.6772
2.67415
2.67052
2.5592
2.56511
2.56232
2.56067
2.56076
2.55646
2.56356
2.56049
2.55738
2.55211
2.55162
2.55718
2.55542
2.55413
2.55535
2.55685
2.64603
2.64046
2.64415
2.6331
2.64234
2.64392
2.64466
2.63697
2.63517
2.64124
2.63752
2.6397
2.64227
2.63259
2.63125
2.63346
2.6362
2.63815
2.6008
2.60356
2.6095
2.59678
2.59687
2.58644
2.58901
2.57506
2.58031
2.58161
2.58109
2.58007
2.57779
2.57841
2.59791
2.58988
2.59438
2.59164
2.57498
2.56884
2.57254
2.55609
2.55975
2.5626
2.56368
2.56576
2.56879
2.57193
2.57029
2.56672
2.56883
2.6552
2.66445
2.66538
2.66206
2.66477
2.66042
2.66301
2.66353
2.66369
2.65839
2.65768
2.65805
2.65708
2.66198
2.66207
2.57926
2.58313
2.58065
2.57676
2.57622
2.58293
2.58587
2.58919
2.59683
2.59437
2.58369
2.58113
2.57627
2.57853
2.58117
2.57159
2.58068
2.57909
2.57927
2.57981
2.58524
2.58107
2.58139
2.58237
2.58035
2.59136
2.58418
2.58605
2.58614
2.5839
2.58591
2.61441
2.6196
2.61539
2.61848
2.62101
2.61371
2.61211
2.61837
2.61673
2.62304
2.62883
2.62897
2.62926
2.622
2.62284
2.62166
2.61943
2.6139
2.61334
2.61162
2.61053
2.60957
2.61535
2.57247
2.57674
2.57712
2.5716
2.57089
2.56573
2.56578
2.56781
2.57559
2.57182
2.57057
2.56878
2.56861
2.57532
2.57097
2.5693
2.64618
2.64743
2.64538
2.63897
2.64466
2.65239
2.64677
2.64913
2.65086
2.65141
2.65787
2.65481
2.65985
2.66154
2.66303
2.65386
2.6513
2.65424
2.64772
2.64758
2.65206
2.64983
2.65083
2.66119
2.66043
2.65335
2.6545
2.65763
2.65306
2.65725
2.65767
2.60524
2.61176
2.61546
2.61066
2.61728
2.61676
2.61492
2.61393
2.61536
2.60482
2.59964
2.59729
2.59842
2.5929
2.61394
2.60864
2.60803
2.60444
2.60567
2.61679
2.61267
2.60165
2.60584
2.60332
2.60065
2.60779
2.60055
2.60859
2.61241
2.61072
2.59361
2.59512
2.58102
2.59217
2.59359
2.60982
2.61165
2.61532
2.62211
2.61586
2.61407
2.61814
2.61959
2.62137
2.62783
2.6206
2.62396
2.62898
2.62673
2.62284
2.6205
2.61714
2.60848
2.60988
2.61951
2.61482
2.61708
2.61874
2.64084
2.64993
2.64342
2.64344
2.64921
2.64609
2.63805
2.63831
2.63767
2.63645
2.6384
2.63947
2.64044
2.64684
2.6451
2.6443
2.64629
2.64868
2.64274
2.6406
2.6395
2.63268
2.62964
2.63112
2.63594
2.64017
2.6365
2.6403
2.63222
2.64316
2.63849
2.6054
2.62384
2.61943
2.61774
2.63026
2.62328
2.62651
2.62363
2.61318
2.61719
2.60945
2.61397
2.61549
2.60945
2.61836
2.60652
2.60191
2.65456
2.65125
2.65544
2.65143
2.65296
2.65421
2.65159
2.64689
2.67333
2.6674
2.67362
2.66834
2.6696
2.67675
2.6683
2.67231
2.5901
2.59531
2.59318
2.59238
2.59411
2.65842
2.65168
2.64951
2.64951
2.65141
2.65194
2.65045
2.65553
2.65518
2.64742
2.6555
2.65463
2.65978
2.65445
2.64687
2.64875
2.63995
2.65161
2.64488
2.64839
2.64711
2.64775
2.65616
2.65271
2.64979
2.65403
2.65286
2.6465
2.64729
2.6459
2.64275
2.65349
2.64692
2.64921
2.65087
2.64867
2.63489
2.63405
2.63315
2.63881
2.6384
2.63624
2.63101
2.62756
2.62861
2.62623
2.62701
2.62489
2.61562
2.61515
2.62657
2.62677
2.62542
2.62639
2.62416
2.61948
2.62078
2.64016
2.64064
2.64122
2.63941
2.63351
2.63376
2.63604
2.62703
2.63061
2.63213
2.63289
2.6639
2.66726
2.66103
2.66069
2.65963
2.5977
2.60049
2.60092
2.60446
2.60695
2.60652
2.61184
2.61719
2.61908
2.60115
2.60599
2.60621
2.61893
2.61207
2.60878
2.61663
2.61301
2.61028
2.60932
2.60753
2.61004
2.60453
2.60564
2.59252
2.59793
2.59466
2.60092
2.59858
2.5985
2.59699
2.59795
2.59729
2.59876
2.59669
2.59969
2.59952
2.60112
2.60234
2.60591
2.60432
2.60005
2.60447
2.66408
2.66244
2.66392
2.66192
2.66084
2.65672
2.65793
2.66867
2.66256
2.66514
2.66748
2.66419
2.63567
2.64052
2.63174
2.63738
2.63731
2.63388
2.65372
2.66077
2.65405
2.65668
2.6592
2.65726
2.66019
2.65835
2.65581
2.66157
2.6549
2.65411
2.65196
2.6587
2.6563
2.55216
2.55254
2.55716
2.55177
2.55268
2.59131
2.59459
2.59165
2.59009
2.59006
2.58494
2.58753
2.59427
2.5921
2.66351
2.67122
2.66842
2.66411
2.66182
2.66478
2.66119
2.56553
2.64582
2.64386
2.64138
2.64481
2.66438
2.65975
2.65517
2.65152
2.65612
2.65766
2.65499
2.65507
2.61161
2.60591
2.61033
2.60806
2.61344
2.61806
2.61589
2.62267
2.61856
2.6008
2.60414
2.59878
2.60005
2.60707
2.60299
2.60489
2.60746
2.62953
2.63
2.62862
2.65358
2.66078
2.66094
2.65102
2.64924
2.64718
2.65087
2.6432
2.64733
2.64518
2.64718
2.64099
2.65116
2.64891
2.64711
2.64071
2.64106
2.64103
2.64452
2.64147
2.64155
2.64079
2.64702
2.64411
2.62861
2.62642
2.62298
2.62586
2.61933
2.62887
2.62192
2.62274
2.62435
2.61903
2.62178
2.6235
2.62618
2.62337
2.6216
2.6016
2.59866
2.60971
2.60801
2.61069
2.6127
2.6099
2.60689
2.60838
2.61122
2.6083
2.61039
2.60588
2.60777
2.62048
2.6167
2.61758
2.6167
2.61388
2.61304
2.61881
2.6142
2.61177
2.61278
2.61025
2.58448
2.58856
2.5902
2.59041
2.58146
2.57721
2.58147
2.58981
2.58771
2.58814
2.58774
2.5787
2.57751
2.59259
2.5896
2.58995
2.58686
2.60005
2.60236
2.59597
2.60564
2.60152
2.60385
2.59836
2.65373
2.66128
2.66044
2.66398
2.66439
2.65981
2.66119
2.65802
2.66393
2.65868
2.65822
2.66235
2.66106
2.66159
2.66487
2.66565
2.66454
2.66208
2.66219
2.65858
2.66115
2.66174
2.60435
2.60913
2.60698
2.60825
2.6068
2.62195
2.62538
2.62201
2.63044
2.63137
2.63161
2.62515
2.62451
2.61991
2.62152
2.62055
2.62905
2.63019
2.62075
2.6149
2.62524
2.62041
2.66681
2.67284
2.57641
2.57293
2.57704
2.57675
2.57816
2.57257
2.57437
2.56852
2.57429
2.56696
2.56422
2.56382
2.56283
2.56498
2.56459
2.55492
2.55853
2.5629
2.5626
2.5939
2.59975
2.59852
2.59291
2.58601
2.59088
2.59479
2.59398
2.58311
2.57893
2.57727
2.57756
2.58486
2.5808
2.58479
2.58602
2.59564
2.59707
2.5927
2.59987
2.59394
2.59097
2.5917
2.59427
2.59692
2.60492
2.59996
2.59713
2.60468
2.60676
2.60175
2.60286
2.60413
2.60713
2.59802
2.59731
2.59812
2.59935
2.57168
2.58132
2.57017
2.57406
2.57317
2.57545
2.57316
2.56487
2.57487
2.5693
2.57292
2.56809
2.56795
2.5726
2.57564
2.59645
2.58029
2.58762
2.58258
2.588
2.5868
2.58767
2.58539
2.59219
2.63692
2.64804
2.65101
2.64913
2.64199
2.64212
2.63909
2.6369
2.64157
2.6425
2.6342
2.63425
2.63333
2.63176
2.63618
2.63804
2.63215
2.63476
2.62941
2.63142
2.64734
2.63926
2.64087
2.57142
2.5702
2.57058
2.57656
2.57546
2.56981
2.56493
2.56667
2.67437
2.66271
2.66681
2.66306
2.65462
2.65833
2.66624
2.6617
2.65662
2.65662
2.65014
2.6595
2.66627
2.67373
2.66879
2.66667
2.66373
2.66846
2.67027
2.66419
2.66866
2.66521
2.66589
2.66826
2.65973
2.66813
2.66255
2.66415
2.66395
2.66558
2.6618
2.66032
2.65502
2.65298
2.66298
2.66311
2.65636
2.65745
2.65547
2.61656
2.62516
2.61979
2.62583
2.61883
2.62432
2.61703
2.62607
2.62801
2.62195
2.63058
2.62008
2.62388
2.63447
2.63013
2.62607
2.6344
2.63108
2.62705
2.6325
2.63046
2.67458
2.66976
2.67244
2.66802
2.67023
2.63097
2.64004
2.63608
2.63644
2.6353
2.63722
2.63098
2.62885
2.63558
2.63517
2.63226
2.63301
2.63181
2.63288
2.62931
2.58187
2.58106
2.58304
2.59112
2.58217
2.57101
2.58769
2.58694
2.5939
2.59701
2.59324
2.5879
2.5868
2.58782
2.58836
2.58264
2.58906
2.58642
2.57088
2.57255
2.57282
2.57642
2.57815
2.57177
2.57476
2.61626
2.62466
2.61896
2.58521
2.5868
2.5853
2.58933
2.58969
2.58456
2.5857
2.59596
2.5942
2.58955
2.59583
2.59196
2.58791
2.5937
2.59164
2.59546
2.59846
2.59428
2.59567
2.59674
2.59588
2.60308
2.60069
2.60639
2.59827
2.59529
2.59026
2.59371
2.60239
2.60346
2.56102
2.5675
2.56477
2.58498
2.57985
2.58449
2.58181
2.5767
2.58198
2.57926
2.58134
2.57999
2.58502
2.57664
2.57362
2.57327
2.57514
2.5756
2.59389
2.59667
2.59344
2.62678
2.62154
2.61558
2.62316
2.61994
2.6273
2.62928
2.62081
2.61858
2.61618
2.61856
2.61808
2.61836
2.62821
2.61978
2.62682
2.62728
2.63192
2.62735
2.6285
2.62313
2.62411
2.63629
2.64072
2.64354
2.62863
2.62582
2.63054
2.62931
2.62739
2.6326
2.62991
2.62073
2.62809
2.62492
2.62355
2.63238
2.62641
2.624
2.62296
2.6566
2.65675
2.65704
2.66087
2.66458
2.65344
2.65373
2.66062
2.66177
2.6569
2.65258
2.65534
2.65073
2.65091
2.64908
2.6535
2.65616
2.56407
2.56485
2.5637
2.56288
2.55771
2.56345
2.55939
2.5597
2.5834
2.57723
2.57576
2.5689
2.56727
2.57264
2.57792
2.57613
2.56457
2.56532
2.57058
2.56516
2.56832
2.56943
2.65418
2.65707
2.6008
2.6005
2.60696
2.59393
2.5927
2.59919
2.59539
2.59164
2.59439
2.59473
2.59483
2.59406
2.58986
2.58961
2.63947
2.62869
2.63979
2.63213
2.63273
2.6321
2.62538
2.62748
2.6258
2.6316
2.63183
2.62898
2.63145
2.63507
2.63021
2.62518
2.63719
2.55503
2.55671
2.55603
2.55892
2.55862
2.55832
2.62716
2.62745
2.63429
2.62607
2.63428
2.62946
2.63408
2.62951
2.64254
2.63569
2.6401
2.63586
2.63659
2.63314
2.61755
2.61794
2.61541
2.61855
2.61825
2.61812
2.60928
2.61513
2.61952
2.61447
2.60619
2.60953
2.60538
2.60556
2.61591
2.60883
2.6132
2.60986
2.60633
2.61098
2.60768
2.605
2.60077
2.60473
2.60743
2.55927
2.56769
2.57063
2.56103
2.56313
2.57376
2.56954
2.56818
2.56899
2.56853
2.56972
2.57097
2.63332
2.63469
2.63767
2.63455
2.63842
2.64351
2.6385
2.64492
2.63478
2.6433
2.63713
2.63193
2.64262
2.65164
2.64197
2.64533
2.63319
2.63491
2.64417
2.64535
2.64702
2.64152
2.6449
2.63983
2.63646
2.64879
2.64684
2.59925
2.595
2.59533
2.59685
2.59326
2.59067
2.59301
2.58426
2.58467
2.5944
2.59511
2.59538
2.59587
2.62446
2.61921
2.62217
2.62036
2.61969
2.6269
2.62384
2.61729
2.61888
2.62059
2.61726
2.62068
2.61466
2.62913
2.62942
2.62285
2.62093
2.62907
2.62283
2.62858
2.62322
2.61962
2.62014
2.62011
2.62496
2.6214
2.62418
2.62328
2.61968
2.61135
2.63202
2.62189
2.6272
2.64622
2.63657
2.63967
2.63538
2.64545
2.64439
2.64739
2.64212
2.63674
2.64652
2.64066
2.64459
2.64693
2.64968
2.6394
2.64828
2.65001
2.64463
2.63767
2.64154
2.64344
2.64369
2.62918
2.63538
2.63144
2.64486
2.63162
2.63352
2.6398
2.63518
2.63154
2.63259
2.62943
2.62768
2.62858
2.63204
2.60976
2.61289
2.61784
2.61022
2.60546
2.60395
2.61314
2.61243
2.60625
2.61024
2.61887
2.61134
2.62617
2.62125
2.61652
2.61429
2.62392
2.61969
2.61494
2.6246
2.62968
2.59468
2.59647
2.58652
2.59598
2.59847
2.59381
2.59561
2.59859
2.59817
2.59683
2.59663
2.59657
2.59443
2.59423
2.60028
2.60599
2.60419
2.59862
2.60012
2.62648
2.6242
2.6187
2.61735
2.62244
2.62381
2.61974
2.62209
2.63928
2.64018
2.63479
2.62814
2.63509
2.63641
2.62449
2.63203
2.63168
2.63027
2.63696
2.63607
2.64019
2.64322
2.63898
2.63788
2.64842
2.64212
2.63974
2.63856
2.63055
2.63274
2.63414
2.63463
2.63537
2.63776
2.63649
2.63922
2.63674
2.64771
2.64811
2.65126
2.66063
2.65978
2.64689
2.647
2.6533
2.65785
2.65985
2.66603
2.65892
2.66302
2.65916
2.65656
2.66235
2.66581
2.62716
2.62855
2.62307
2.62617
2.62859
2.62545
2.62723
2.63351
2.63151
2.62686
2.63479
2.63535
2.64024
2.63597
2.63088
2.64044
2.63925
2.63572
2.63694
2.63696
2.62207
2.62532
2.62129
2.62472
2.62981
2.62601
2.62534
2.62425
2.62986
2.64769
2.64841
2.65742
2.6492
2.64511
2.64834
2.66222
2.66012
2.65564
2.66248
2.66625
2.66383
2.60217
2.59837
2.60623
2.60735
2.60753
2.60673
2.60852
2.60326
2.6032
2.66036
2.65815
2.66366
2.6709
2.61925
2.62159
2.62565
2.62281
2.63016
2.64223
2.64158
2.64888
2.61287
2.61151
2.60987
2.61359
2.60966
2.61142
2.60926
2.60556
2.60256
2.60993
2.61394
2.60691
2.60223
2.60849
2.615
2.60853
2.61414
2.61373
2.60266
2.61474
2.63264
2.63294
2.63589
2.63951
2.64098
2.64186
2.64777
2.64298
2.6437
2.6399
2.63316
2.62621
2.62407
2.6331
2.62788
2.62403
2.62821
2.63167
2.62925
2.63279
2.63396
2.62902
2.63509
2.63149
2.63229
2.63053
2.6336
2.60554
2.60672
2.60545
2.60164
2.61134
2.6112
2.60377
2.60356
2.60626
2.62577
2.64276
2.63628
2.63894
2.64289
2.62889
2.64292
2.63981
2.63531
2.63968
2.64017
2.63599
2.63625
2.61366
2.6176
2.65124
2.64921
2.64797
2.64971
2.64419
2.64763
2.6444
2.64349
2.64475
2.64423
2.64094
2.64664
2.64165
2.64058
2.63114
2.64892
2.64453
2.64089
2.64846
2.65193
2.64378
2.64302
2.65463
2.66226
2.64709
2.64395
2.65002
2.63939
2.65224
2.64843
2.65413
2.655
2.64775
2.65407
2.65298
2.64998
2.65128
2.60602
2.57823
2.57839
2.57918
2.57775
2.58143
2.58269
2.58471
2.58934
2.57544
2.57757
2.5833
2.58255
2.5902
2.64291
2.65363
2.64909
2.64826
2.63696
2.63716
2.6398
2.64423
2.64613
2.64255
2.64509
2.64204
2.63932
2.64371
2.64218
2.64063
2.65124
2.64958
2.64978
2.65085
2.64975
2.64898
2.65704
2.61754
2.61104
2.61743
2.61276
2.61804
2.62242
2.62394
2.61588
2.61393
2.62192
2.62198
2.62362
2.63422
2.63721
2.63595
2.63716
2.63451
2.63168
2.63114
2.62393
2.63767
2.63354
2.63601
2.62787
2.63054
2.61074
2.60272
2.60403
2.60744
2.60462
2.60533
2.61263
2.61133
2.6081
2.60992
2.62181
2.62761
2.62636
2.62161
2.61992
2.62683
2.62579
2.62805
2.62603
2.62502
2.62271
2.61679
2.62216
2.62519
2.62282
2.62217
2.62795
2.63236
2.6305
2.62755
2.62543
2.67119
2.66983
2.65742
2.6626
2.67094
2.66918
2.66721
2.66883
2.66753
2.66298
2.66686
2.66977
2.67017
2.66961
2.66214
2.67069
2.66882
2.66259
2.65983
2.66796
2.66545
2.65619
2.59338
2.59572
2.59461
2.60139
2.59682
2.59657
2.58175
2.58141
2.58331
2.58647
2.57826
2.57076
2.5833
2.58221
2.57642
2.57345
2.57984
2.58258
2.57877
2.58441
2.60925
2.60257
2.61181
2.61636
2.61136
2.61527
2.6161
2.61479
2.61936
2.64577
2.64793
2.64598
2.65445
2.65111
2.65121
2.65775
2.64296
2.6373
2.63936
2.63519
2.6393
2.64388
2.64336
2.64182
2.64158
2.64196
2.64563
2.64544
2.64469
2.64409
2.6602
2.66041
2.6624
2.66388
2.66507
2.66117
2.65745
2.66476
2.66172
2.65937
2.66506
2.6653
2.66499
2.66367
2.61562
2.61881
2.61715
2.6131
2.61423
2.61114
2.61855
2.61639
2.61338
2.6092
2.61007
2.61697
2.61525
2.60507
2.61495
2.63367
2.62592
2.63024
2.62758
2.63072
2.62934
2.62713
2.62596
2.62194
2.62637
2.62058
2.62956
2.62853
2.62674
2.62815
2.63517
2.6337
2.63791
2.64027
2.64242
2.64362
2.6399
2.64665
2.64374
2.65099
2.64461
2.59586
2.59742
2.5946
2.6238
2.61762
2.61052
2.61179
2.62471
2.61399
2.61565
2.61821
2.61569
2.61736
2.6212
2.61978
2.62074
2.61761
2.61895
2.60291
2.60399
2.61302
2.6072
2.61319
2.60819
2.61546
2.61423
2.61831
2.64902
2.64391
2.65107
2.65327
2.6495
2.64536
2.64443
2.64721
2.64625
2.65032
2.64892
2.64536
2.64574
2.64973
2.64938
2.67439
2.59321
2.59679
2.59924
2.58901
2.59298
2.598
2.59787
2.59802
2.60096
2.59624
2.60095
2.64353
2.63707
2.64453
2.65186
2.63944
2.63828
2.64745
2.65079
2.63791
2.64047
2.64004
2.63682
2.63408
2.63905
2.63508
2.64331
2.64253
2.64312
2.64384
2.64352
2.64305
2.63586
2.63822
2.64063
2.6388
2.64089
2.60918
2.62299
2.6159
2.59756
2.60272
2.60332
2.6026
2.60325
2.5605
2.55456
2.56057
2.56353
2.56526
2.5657
2.55908
2.55668
2.55663
2.55717
2.55828
2.55505
2.56046
2.55848
2.6004
2.60442
2.60409
2.60932
2.61145
2.61177
2.60738
2.6044
2.61236
2.61219
2.61751
2.62714
2.61675
2.6152
2.62017
2.62614
2.62558
2.62138
2.60712
2.62096
2.64152
2.64328
2.6518
2.6499
2.64477
2.62702
2.61691
2.62038
2.61504
2.61572
2.58791
2.59533
2.59328
2.59364
2.59301
2.59028
2.59073
2.59629
2.59385
2.60321
2.59487
2.60309
2.66072
2.65967
2.6545
2.65313
2.6598
2.65215
2.65511
2.6576
2.65843
2.65747
2.65686
2.65745
2.65541
2.6065
2.60733
2.60022
2.59964
2.6064
2.5983
2.59487
2.60265
2.60685
2.60322
2.60288
2.60302
2.61138
2.66907
2.67441
2.67268
2.57129
2.57474
2.56811
2.57531
2.57894
2.57566
2.56434