/*--------------------------------*- C++ -*----------------------------------*\
| =========                 |                                                 |
| \\      /  F ield         | OpenFOAM: The Open Source CFD Toolbox           |
|  \\    /   O peration     | Version:  v1612+                                |
|   \\  /    A nd           | Web:      www.OpenFOAM.com                      |
|    \\/     M anipulation  |                                                 |
\*---------------------------------------------------------------------------*/
FoamFile
{
    version     2.0;
    format      ascii;
    class       volScalarField;
    location    "150";
    object      p;
}
// * * * * * * * * * * * * * * * * * * * * * * * * * * * * * * * * * * * * * //

dimensions      [0 2 -2 0 0 0 0];

internalField   nonuniform List<scalar> 
17021
(
1.21571
0.997271
1.1798
1.08436
1.17811
1.10197
1.16317
1.16087
1.16111
1.15084
1.15645
1.15114
1.1412
1.15268
1.14107
1.13649
1.13143
1.13598
1.14302
1.1448
1.15746
1.16254
1.14176
1.15181
1.15804
1.16374
1.16398
1.16506
1.16386
1.16491
1.17429
1.17491
1.16389
1.14917
1.15557
1.1648
1.16862
1.15728
1.16236
1.17079
1.16394
1.17008
1.18668
1.17945
1.18152
1.17373
1.17436
1.18416
1.18477
1.16717
1.16533
1.18669
1.18576
1.18915
1.16699
1.17179
1.1744
1.17095
1.17435
1.18307
1.18615
1.19045
1.18589
1.16838
1.16451
1.16842
1.16778
1.17672
1.18509
1.18802
1.1655
1.17048
1.16774
1.18301
1.16633
1.17314
1.17973
1.17682
1.17999
1.17441
1.17079
1.17057
1.18366
1.17063
1.17325
1.16249
1.17127
1.17009
1.17493
1.17376
1.17392
1.05535
1.0604
1.06628
1.09012
1.08481
1.06849
1.06686
1.07405
1.07068
1.06209
1.06419
1.09798
1.09424
1.08624
1.07653
1.08647
1.07039
1.16656
1.17449
1.1661
1.15943
1.17474
1.17625
1.17469
1.14769
1.15923
1.15636
1.14954
1.16562
1.15531
1.16159
1.158
1.15185
1.14541
1.16333
1.1652
1.15308
1.16552
1.12223
1.12335
1.11088
1.11512
1.1018
1.11998
1.11015
1.12233
1.11251
1.12499
1.13481
1.13771
1.12169
1.12715
1.12471
1.11193
1.15542
1.15608
1.15747
1.15806
1.14115
1.14123
1.16307
1.14772
1.15367
1.15921
1.16812
1.15315
1.15103
1.14753
1.14901
1.14872
1.14872
1.1635
1.18746
1.17524
1.18711
1.1847
1.17514
1.1732
1.15019
1.14391
1.16055
1.15094
1.15614
1.15891
1.16246
1.14051
1.14768
1.16055
1.15238
1.15295
1.159
1.16008
1.16051
1.16489
1.15704
1.18096
1.17098
1.15932
1.15744
1.18
1.1843
1.17164
1.1733
1.1723
1.16754
1.16533
1.17891
1.17219
1.16621
1.17183
1.17378
1.17253
1.18015
1.1823
1.17595
1.18368
1.17116
1.17525
1.17625
1.18601
1.17943
1.18443
1.1722
1.18265
1.18326
1.18476
1.11796
1.12652
1.1247
1.11983
1.13116
1.12317
1.13824
1.11502
1.11346
1.11647
1.10563
1.12524
1.14222
1.10196
1.1017
1.10152
1.104
1.10485
1.14859
1.13917
1.13436
1.14735
1.13919
1.14341
1.12206
1.10706
1.10823
1.11009
1.1336
1.1426
1.12996
1.12658
1.10974
1.11598
1.11732
1.13695
1.13986
1.1368
1.14899
1.14306
1.14649
1.15977
1.15803
1.12774
1.13276
1.14206
1.14937
1.14538
1.15649
1.16553
1.14199
1.15642
1.11948
1.12408
1.12818
1.13555
1.12795
1.12854
1.13539
1.12867
1.13202
1.12676
1.13242
1.14866
1.15052
1.13407
1.13128
1.07568
1.07367
1.08022
1.08214
1.06763
1.08707
1.08561
1.07096
1.08738
1.08627
1.08124
1.09494
1.10117
1.10372
1.09652
1.09208
1.14648
1.14832
1.15439
1.15311
1.14109
1.15281
1.15568
1.16914
1.16545
1.17739
1.17552
1.16477
1.15954
1.15704
1.1693
1.16322
1.16635
1.1666
1.16635
1.16712
1.15963
1.15106
1.16929
1.01722
1.0185
1.00198
1.00265
1.02037
1.01961
1.01383
1.01483
1.00832
1.00906
1.00712
1.02563
1.0197
1.11493
1.11776
1.11503
1.11309
1.12905
1.12313
1.13011
1.13261
1.11679
1.10525
1.11011
1.11976
1.12337
1.09675
1.10683
1.11023
1.09753
1.10055
1.10045
1.10548
1.108
1.1643
1.16907
1.17273
1.18013
1.15719
1.16077
1.17467
1.17231
1.18169
1.18728
1.16994
1.17761
1.17327
1.17555
1.18059
1.16975
1.16576
1.17383
1.17748
1.18323
1.08044
1.07709
1.06559
1.0766
1.09494
1.08636
1.08873
1.0915
1.08942
1.08822
1.09642
1.08749
1.10209
1.07571
1.09741
1.06994
1.06292
1.06117
1.06475
0.971898
0.957666
0.975571
0.970055
0.981187
0.976977
0.980789
0.973285
0.985279
0.977843
0.980562
1.17656
1.18154
1.18159
1.18449
1.174
1.17024
1.17099
1.18424
1.18111
1.17037
1.17656
1.1825
1.09697
1.10688
1.10059
1.09592
1.09606
1.102
1.08974
1.095
1.10454
1.11559
1.10499
1.11282
1.11701
1.14494
1.14818
1.14476
1.14655
1.15119
1.14851
1.15059
1.14659
1.14919
1.15045
1.15619
1.16408
1.032
1.02284
1.03478
1.03965
1.04158
1.0401
1.02763
1.03811
1.0307
1.04245
1.03559
1.02689
1.02291
1.02602
1.03709
1.02531
1.03012
1.02572
1.14888
1.14007
1.15808
1.15865
1.15844
1.14855
1.14566
1.14514
1.14251
1.1465
1.14377
1.14574
1.156
1.16029
1.15041
1.14751
1.14764
1.13994
1.09282
1.09635
1.08434
1.0945
1.09941
1.10335
1.0991
1.08935
1.0872
1.0957
1.07016
1.11014
1.08329
1.11592
1.12095
1.13315
1.11682
1.09826
1.09228
1.09909
1.12008
1.10594
1.15253
1.1455
1.14944
1.15299
1.15398
1.15118
1.14932
1.14301
1.15578
1.13804
1.14731
1.14738
1.14742
1.13191
1.15666
1.14913
1.14003
1.0396
1.02871
1.02778
1.04045
1.01841
1.02326
1.04831
1.05314
1.03151
1.04655
1.04603
1.07218
1.07409
1.05586
1.05914
1.05736
1.06122
1.07366
1.05379
1.17859
1.17691
1.18004
1.16557
1.16429
1.16454
1.18446
1.17917
1.18515
1.18236
1.18357
1.17805
1.18059
1.18495
1.18758
1.18348
1.18922
1.17455
1.18291
1.17389
1.04359
1.04581
1.04182
1.05381
1.04529
1.06455
1.07587
1.07425
1.06957
1.06967
1.06625
1.0469
1.04511
1.06038
1.06375
1.04808
1.07066
1.05562
1.08742
1.07305
1.07509
1.05687
1.0801
1.07018
1.14253
1.13999
1.13777
1.1408
1.14998
1.15853
1.16033
1.16149
1.16098
1.1536
1.15474
1.13316
1.12853
1.14515
1.14262
1.13888
1.13586
1.15276
1.15726
1.15441
1.13583
1.14472
1.05053
1.04308
1.04657
1.05404
1.05655
1.05243
1.05265
1.03431
1.0491
1.07149
1.03954
1.03801
1.0332
1.04196
1.0467
1.05083
1.05631
1.06304
1.05805
1.04026
1.05285
1.04495
1.0662
1.06588
1.02377
1.02189
1.02532
1.03759
1.04941
1.05762
1.05815
1.03093
1.06637
1.14339
1.13961
1.16374
1.16738
1.15966
1.15674
1.16854
1.16449
1.16957
1.1515
1.15154
1.15325
1.16303
1.14593
1.14948
1.16066
1.16278
1.1693
1.15375
1.15828
1.14889
1.11449
1.11722
1.11869
1.1187
1.11638
1.09782
1.10633
1.13255
1.11573
1.12731
1.12252
1.13261
1.09843
1.11874
1.11995
1.12479
1.10444
1.1113
1.10499
1.12182
1.12204
1.15545
1.14331
1.15581
1.15544
1.16488
1.14668
1.15313
1.15571
1.16265
1.15428
1.03368
1.02484
1.0331
1.035
1.0489
1.05031
1.04265
1.04087
1.02526
1.03251
1.03906
1.03281
1.02963
1.11909
1.12711
1.12175
1.12799
1.11889
1.12589
1.13418
1.14775
1.15355
1.12429
1.13456
1.12553
1.14526
1.09784
1.07704
1.08491
1.08031
1.08929
1.08605
1.08475
1.08548
1.08259
1.08123
1.09099
1.08131
1.086
1.09556
1.08591
1.08007
1.08692
1.07658
1.07237
1.06739
1.06533
1.06376
1.06525
1.07374
1.07361
1.07636
1.07008
1.06975
1.0578
1.06466
1.06288
1.06375
1.06669
1.06224
1.06399
1.07117
1.07516
1.07041
1.07388
1.08172
1.0739
1.08749
1.09085
1.08192
1.09562
1.0894
1.09473
1.09765
1.08431
1.09953
1.01519
1.01977
1.01607
1.0051
1.00629
1.02099
1.00991
1.01427
1.00655
1.03135
1.02482
1.01872
1.01166
0.998494
1.01385
1.007
1.01367
1.15548
1.14988
1.1617
1.15986
1.1714
1.16968
1.17477
1.17504
1.16408
1.17326
1.14344
1.15076
1.17172
1.16066
1.16899
1.16441
1.164
1.15353
1.16592
1.15042
1.13075
1.12873
1.12801
1.12826
1.10763
1.11124
1.1314
1.11354
1.11253
1.11086
1.11641
1.11221
1.12808
1.1271
1.12307
1.15685
1.16111
1.15184
1.14483
1.15777
1.15838
1.13228
1.1274
1.15117
1.14185
1.14479
1.13691
1.13731
1.13056
1.13568
1.14488
1.10542
1.11243
1.11217
1.10246
1.10799
1.10524
1.13253
1.11246
1.12411
1.14143
1.13808
1.13637
1.12766
1.12236
1.13866
1.12804
1.13349
1.13698
1.14074
1.06926
1.06789
1.06122
1.05799
1.03811
1.03946
1.05108
1.03756
1.03843
1.04122
1.1096
1.10521
1.11828
1.10974
1.11889
1.10069
1.10467
1.12117
1.12241
1.10021
1.08825
1.1028
1.08226
1.0868
1.09468
1.09396
1.09004
1.09328
1.07032
1.08697
1.0763
1.08435
1.07874
1.08738
1.07621
1.0891
1.08296
1.09229
1.0806
1.07015
1.06712
1.06951
1.07764
1.19099
1.19103
1.18758
1.18303
1.20609
1.19234
1.1948
1.20075
1.18961
1.18509
1.17205
1.16512
1.17234
1.17527
1.18522
1.19343
1.18839
1.19176
1.1726
1.17899
1.1797
1.18493
1.16378
1.17251
1.17948
1.17689
1.20372
1.2092
1.21122
1.19884
1.20968
1.21753
1.20404
1.19745
1.19288
1.20231
1.21147
1.20795
1.21255
1.18669
1.18346
1.19557
1.1977
1.20671
1.1856
1.18599
1.18546
1.17905
1.17857
1.18375
1.04778
1.05251
1.04654
1.04127
1.04581
1.05542
1.04981
1.0638
1.04894
1.04094
1.04398
1.05384
1.05604
1.05486
1.04309
1.15445
1.14731
1.16379
1.16069
1.14493
1.15191
1.14968
1.14858
1.14467
1.16208
1.15528
1.16125
1.15176
1.15603
1.168
1.16657
1.16577
1.17001
1.18599
1.19308
1.16802
1.1788
1.17991
1.1803
1.18753
1.17653
1.17808
1.17634
1.19187
1.19561
1.18039
1.18787
1.19125
1.18944
1.11559
1.11316
1.13525
1.13182
1.12481
1.12277
1.12256
1.11635
1.12907
1.1322
1.14029
1.14215
1.13943
1.13161
1.12695
1.12684
1.14476
1.13599
1.13273
1.13227
1.14778
1.15537
1.15392
1.1634
1.15782
1.14681
1.14691
1.15845
1.16708
1.14458
1.16855
1.15209
1.15617
1.16122
1.15661
1.17602
1.18155
1.18034
1.18186
1.16859
1.15839
1.16457
1.17585
1.17419
1.17674
1.16287
1.15972
1.16968
1.1772
1.17026
1.18925
1.1738
1.16886
1.17527
1.17937
1.19014
1.1969
1.18481
1.18613
1.18477
1.17662
1.18421
1.18365
1.18291
1.18713
1.18215
1.18474
1.17744
1.18419
1.17804
1.17392
1.17292
1.18039
1.16355
1.16209
1.14991
1.17666
1.17179
1.1436
1.14171
1.1337
1.14236
1.14087
1.13804
1.13365
1.12886
1.13252
1.12984
1.13167
1.13833
1.13108
1.1313
0.963414
0.965918
0.964177
0.96254
0.971899
0.972254
0.968699
0.969816
0.993474
0.970737
0.989818
0.987759
0.979933
0.992058
0.974885
0.997029
0.987158
0.987674
1.00137
1.00291
1.01539
1.00148
0.994776
1.00533
1.00909
1.00309
1.15084
1.1613
1.1534
1.15262
1.16699
1.16379
1.1487
1.15593
1.17105
1.1524
1.16167
1.15854
1.16926
1.17522
1.16707
1.16534
1.16944
1.16156
1.17347
1.17165
1.2087
1.21214
1.20166
1.21042
1.21709
1.20678
1.20786
1.19739
1.19088
1.19029
1.19967
1.21031
1.19827
1.2028
1.20915
1.20338
1.20471
1.20127
1.16338
1.15674
1.1504
1.15413
1.15894
1.1538
1.165
1.1619
1.16521
1.16733
1.163
1.16611
1.16479
1.09052
1.08849
1.09725
1.09951
1.09746
1.10019
1.10087
1.09498
1.0873
1.02347
1.01442
1.02241
1.16239
1.15717
1.14809
1.15869
1.14882
1.14081
1.14615
1.17486
1.17201
1.16771
1.19618
1.19768
1.19868
1.13932
1.14012
1.13548
1.13525
1.12
1.11999
1.06254
1.0586
1.21778
1.21661
1.21181
1.20881
1.02797
1.03918
1.02877
1.18353
1.17867
1.18721
1.18431
1.13195
1.13622
1.20374
1.21314
1.21214
1.21086
0.989056
1.00155
0.982569
1.06638
1.05789
1.09077
1.08511
1.01041
1.00291
1.00539
1.14379
1.1252
1.12466
1.21692
1.21854
1.22239
1.15988
1.15212
1.19171
1.19095
1.18478
1.19248
1.19149
1.19618
1.19967
1.19376
1.19704
1.14382
1.13777
1.18363
1.18077
1.15245
1.15763
1.11032
1.10686
1.19299
1.19388
0.956469
0.953852
1.18492
1.16871
1.11945
1.12177
1.20049
1.19695
1.19813
1.20831
1.21122
1.20807
1.20311
1.20577
1.19088
1.18699
1.17461
1.17058
1.17577
1.17753
1.18317
1.18482
1.06571
1.07053
1.0755
1.08348
1.07809
1.08201
1.13627
1.14655
1.14463
1.04939
1.04533
1.05763
1.14728
1.14294
1.14449
1.20754
1.2059
1.19039
1.18494
1.19522
1.19453
1.11537
1.11315
1.12133
1.08578
1.08348
1.00654
1.16417
1.16128
1.12391
1.1213
1.06752
1.07647
1.07455
1.21351
1.21577
1.21919
1.20498
1.19989
1.19632
1.17818
1.17215
1.17894
1.17379
1.21031
1.21852
1.21604
1.2127
1.00698
1.00078
1.13215
1.12578
1.18287
1.18051
1.18463
1.18459
1.14842
1.14499
1.20025
1.20396
1.02784
1.02476
1.02663
1.16435
1.15823
1.18723
1.18209
1.18465
1.15149
1.14519
1.14797
0.975265
0.979065
0.985366
1.17668
1.1763
1.18377
1.07096
1.06709
0.970346
0.972951
1.02557
1.01851
1.01609
1.00281
1.05757
1.05302
1.11165
1.11189
1.10408
1.0977
1.098
1.10175
1.10011
1.10832
1.08518
1.0838
1.10565
1.11238
1.03602
1.04002
1.04689
1.04686
1.0331
1.04997
1.06197
1.08168
1.07215
1.09294
1.08076
1.07736
1.08847
1.10038
1.06293
1.05361
1.0555
1.0776
1.07221
1.05851
1.06757
1.16391
1.15984
1.16558
1.15084
1.15737
1.15987
1.16101
1.16567
1.18666
1.19504
1.19465
1.18508
1.18126
1.18972
1.18634
1.17736
1.19412
1.19928
1.18962
1.1908
1.18903
1.19095
1.18936
1.17375
1.18217
1.18449
1.17392
1.16791
1.17977
1.17197
1.16566
1.18011
1.17494
1.17417
0.97979
0.972573
0.992821
0.999264
0.998517
0.984796
0.989907
0.99054
1.00223
0.989832
0.992136
0.985793
0.99432
0.966306
0.967985
0.976705
1.11524
1.12271
1.11601
1.16537
1.15904
1.16226
1.14824
1.12239
1.12453
1.1704
1.16468
1.1493
1.15545
1.1516
1.16172
1.15559
1.14237
1.14605
1.15422
1.15262
1.15366
1.13742
1.13637
1.19051
1.18948
1.17952
1.19781
1.19028
1.18303
1.16839
1.17048
1.17663
1.17249
1.17584
1.19489
1.1944
1.19804
1.19048
1.18098
1.1797
1.18671
1.18927
1.18183
1.18898
1.18055
1.18793
1.12535
1.12804
1.15851
1.1685
1.16799
1.18523
1.1784
1.1836
1.17462
1.16872
1.17378
1.14413
1.14593
1.14923
1.15544
1.13494
1.13368
1.16323
1.16443
1.15898
1.16383
1.16986
1.15461
1.15048
1.0549
1.05283
1.03164
1.03764
1.03463
1.05135
1.01801
1.03003
1.02535
1.02398
1.01805
1.02374
1.03507
1.02933
1.02427
1.02671
1.01919
1.02787
1.05135
1.04277
1.03906
1.04522
1.04325
1.0429
1.05216
1.03854
1.03964
1.04159
1.03013
1.03231
1.0339
1.0402
1.0445
1.20914
1.20875
1.20129
1.2011
1.20816
1.20304
1.20177
1.20696
1.20199
1.20286
1.18979
1.2027
1.19779
1.17855
1.16121
1.15793
1.15387
1.18949
1.18348
1.17465
1.18386
1.17577
1.17957
1.17578
1.17968
1.18489
1.17388
1.1807
1.18388
1.1762
1.18437
1.18027
1.17262
1.18297
1.17756
1.1126
1.11953
1.12037
1.12076
1.13816
1.1375
1.14983
1.13687
1.13363
1.12685
1.12528
1.12697
1.13033
1.10966
1.10772
1.09611
1.00609
0.997083
0.994688
0.997976
1.21691
1.21249
1.21447
1.21386
1.21177
1.20827
1.20804
1.20257
1.20543
1.20262
1.21282
1.20652
1.21789
1.22051
1.21965
1.21453
1.21946
1.2123
1.21638
1.20691
1.21446
1.19687
1.19803
1.19809
1.19862
1.20222
1.19573
1.19316
1.19595
1.18998
1.1841
1.1572
1.16233
1.16448
1.16797
1.17397
1.17928
1.17218
1.16905
1.16166
1.17264
1.16978
1.182
1.18261
1.17208
1.1854
1.19755
1.20197
1.20119
1.19059
1.20191
1.18864
1.18338
1.18142
1.20254
1.20281
1.1992
1.19655
1.21041
1.20704
1.20235
1.20249
1.21356
1.21315
1.20949
1.21173
1.21633
1.20927
1.21442
1.21007
1.22095
1.21743
1.20792
1.21792
1.20591
1.21044
1.20921
1.21216
1.21225
1.20835
1.05161
1.04907
1.04464
1.04848
1.06249
1.09369
1.08323
1.07832
1.07938
1.09099
1.08214
1.0954
1.0547
1.05688
1.06079
1.05456
1.06001
1.04493
1.07899
1.07795
1.06567
1.06579
1.063
1.09553
1.08806
1.10771
1.09589
1.10298
1.07935
1.0784
1.08463
1.08551
1.10692
1.10494
1.1066
1.10985
1.1169
1.10943
1.10751
1.10356
1.11989
1.12288
1.13166
1.13821
1.14196
1.14332
1.13144
1.13248
1.12344
1.11653
1.11521
1.11638
1.11707
1.1246
1.12146
1.11919
1.12169
1.11674
1.1319
1.17086
1.16573
1.15884
1.16596
1.1526
1.15023
1.02005
1.01942
1.01108
1.00833
1.01525
1.01434
1.00958
1.02069
1.00117
1.00538
1.02126
1.02539
1.01969
1.01099
1.0144
1.01804
1.01441
1.00499
1.01216
1.01691
1.00783
1.0194
1.01951
0.949909
0.955149
0.946414
0.952692
1.0744
1.07876
1.06167
1.0652
1.09444
1.11407
1.119
1.10611
1.10242
1.09752
1.10178
1.09788
1.06318
1.06946
1.08491
1.06772
1.06634
1.06218
1.05971
1.09913
1.09671
1.08772
1.11242
1.09807
1.09685
1.11518
1.07293
1.08597
1.08533
1.08986
1.19623
1.19431
1.18321
1.18198
1.16977
1.17982
1.16829
1.18081
1.17526
0.95246
0.955809
1.21156
1.21033
1.20355
1.20198
1.20166
1.20409
1.2034
1.20511
1.20345
1.19835
1.20768
1.207
1.20155
1.1989
1.202
1.19817
1.20095
1.20709
1.20463
1.2085
1.20256
1.13654
1.14865
1.13727
1.1329
1.14013
1.14784
1.14707
1.1503
1.13886
1.13864
1.1741
1.17939
1.17109
1.14623
1.15075
1.14639
1.15612
1.16178
1.15352
1.15063
1.15885
1.16628
1.15312
1.16143
1.15629
1.16669
1.15945
1.15127
1.15098
1.15109
1.15371
1.09195
1.10129
1.14133
1.12013
1.12253
1.13339
1.12574
1.05667
1.05311
1.05824
1.05598
1.06595
1.07098
1.04054
1.03866
1.04245
1.03588
1.03287
1.04197
1.03617
1.04003
1.13518
1.13583
1.13605
1.12014
1.10003
1.09491
1.10905
1.1042
1.09331
1.0949
1.08962
1.10074
1.10236
1.07497
1.07825
1.05642
1.05291
1.06717
1.08478
1.06579
1.09891
1.09172
1.08996
1.06501
1.07055
1.07292
1.07072
1.06414
1.06436
1.07802
1.0843
1.0768
1.07475
1.0777
1.07018
1.07645
1.07648
1.0717
1.07628
1.05853
1.06607
1.06464
1.06636
1.06311
1.06973
1.18953
1.17669
1.17783
1.182
1.1712
1.18172
1.17956
1.17372
1.18758
1.18021
1.13098
1.14389
1.14745
1.13645
1.15729
1.16487
1.17054
1.15476
1.16871
1.1667
1.17471
1.16698
1.17818
1.18014
1.18009
1.16875
1.16498
1.1748
1.196
1.19624
1.1948
1.18684
1.17709
1.17651
1.17228
1.18347
1.18908
1.18613
1.17848
1.18234
1.1915
1.18069
1.19134
1.18677
1.18734
1.19249
1.18709
1.18649
1.18163
1.18313
1.1642
1.1697
1.1821
1.21073
1.21485
1.20844
1.18214
1.18638
1.20109
1.19062
1.20263
1.20354
1.19652
1.21055
1.21393
1.20541
1.20475
1.19512
1.20079
1.20602
1.20366
1.20166
1.19514
1.20182
1.20787
1.19518
1.20533
1.20396
1.20857
1.20875
1.20412
1.20611
1.19286
1.19513
1.19576
1.19478
1.19786
1.20524
1.21011
1.21658
1.20569
1.20265
1.19544
1.20433
1.20319
1.21424
1.21388
1.21127
1.21579
1.2119
1.20965
1.19945
1.19269
1.2024
1.19345
1.20467
1.20408
1.20002
1.1999
1.1946
1.20501
1.20522
1.20785
1.21882
1.21639
1.20736
1.21858
1.20642
1.21085
1.2142
1.212
1.13603
1.13281
1.20127
1.19606
1.19668
1.19188
1.18635
1.19501
1.18946
1.18142
1.18735
1.18826
1.19112
1.17644
1.19246
1.18729
1.1927
1.20815
1.20588
1.20873
1.2068
1.19681
1.1995
1.19886
1.17016
1.18719
1.18514
1.16533
1.18699
1.18988
1.18011
1.18944
1.18851
1.17382
1.17043
1.1688
1.17616
1.17541
1.11553
1.11641
1.11339
1.12709
1.13685
1.12988
1.12416
1.11337
1.11824
1.13026
1.11741
1.14301
1.15663
1.15194
1.16462
1.16613
1.16776
1.17616
1.15455
1.18925
1.19814
1.16755
1.16917
1.17692
0.95872
0.959599
0.959632
0.954332
0.962306
0.964398
0.963644
0.971136
0.963394
0.960981
0.960545
0.95273
0.948359
1.08848
1.12819
1.12795
1.11918
1.11879
1.13484
1.12824
1.1151
1.112
1.10401
1.11551
1.11788
1.11769
1.12317
1.13112
1.12599
1.10788
1.12956
1.12938
1.1332
1.1968
1.19338
1.19256
1.19185
1.18609
1.19827
1.19162
1.19256
1.19978
1.18766
1.19439
1.18634
1.18675
1.19188
1.18669
1.19652
1.17874
1.18631
1.19068
1.18531
1.16712
1.17181
1.16467
1.16989
1.15933
1.17669
1.17622
1.17195
1.16911
1.17261
1.17325
1.17648
1.14313
1.16309
1.15534
1.14605
1.16315
1.14209
1.14944
1.16156
1.16372
1.15228
1.15159
1.15202
1.14514
1.14796
1.16144
1.16825
1.17068
1.19039
1.19622
1.18937
1.1992
1.19248
1.19998
1.20204
1.19019
1.16858
1.18464
1.18547
1.18621
1.18152
1.17126
1.16761
1.16981
1.16588
1.18613
1.18743
1.19405
1.18832
1.18504
1.19624
1.18418
1.19625
1.19253
1.18106
1.1785
1.17475
1.1848
1.17931
1.17889
1.17183
1.17787
1.17867
1.1564
1.16187
1.16061
1.12412
1.13106
1.16973
1.16898
1.16887
1.16538
1.17042
1.15067
1.15664
1.17637
1.17252
1.16362
1.15914
1.14377
1.14156
1.12735
1.14823
1.14777
1.16059
1.17246
1.16186
1.14992
1.15549
1.14698
1.21743
1.20716
1.2148
1.20248
1.21371
1.21895
1.21599
1.22098
1.2093
1.20666
1.21206
1.2192
1.21363
1.2237
1.21842
1.21154
1.21047
1.21598
1.21972
1.21711
1.21839
1.21054
1.21749
1.21238
1.21616
1.21113
1.11822
1.11364
1.11833
1.10553
1.10918
1.10879
1.09944
1.09684
1.08473
1.01437
1.01187
1.00879
1.00489
1.0083
1.01493
1.0158
1.03761
1.03452
1.0217
1.02377
1.02158
1.02285
1.03135
1.0362
1.04118
1.03674
1.01589
1.02176
1.02408
1.02167
1.11479
1.11085
1.11668
1.10353
1.11362
1.1103
1.10215
1.10248
1.11183
1.10601
1.09184
1.08209
1.08822
1.0888
1.095
1.0902
1.09593
1.09677
1.0947
1.05668
1.05715
1.0597
1.0542
1.06734
1.07034
1.07152
1.06249
1.04578
1.04199
1.04823
1.04753
1.0388
1.03743
1.09024
1.09242
1.08232
1.08267
1.018
1.01262
1.00234
1.00974
1.01842
0.994983
1.00212
0.999809
1.00753
1.20825
1.20681
1.20694
1.20047
1.21773
1.20948
1.19656
1.20281
1.20213
1.19761
1.2115
1.12512
1.12893
1.13256
1.11845
1.11543
1.12788
1.1331
1.11211
1.11724
1.13282
1.13066
1.12695
1.13625
1.13526
1.12617
1.1429
1.14894
1.13636
1.13489
1.13168
1.12168
1.12143
1.1333
1.12706
1.1076
1.12488
1.13063
1.10856
1.10928
1.19832
1.19629
1.18762
1.18184
1.18462
1.17905
1.17794
1.16265
1.18026
1.22388
1.22464
1.21262
1.21278
1.01928
1.02236
1.02193
1.01611
1.01706
1.02516
1.02269
1.01034
1.02183
1.01897
1.01222
1.01678
1.02575
1.02437
1.054
1.04776
1.05219
1.03913
1.04724
1.04403
1.05578
1.04156
1.03088
1.03169
1.21485
1.21437
1.209
1.20705
1.20097
1.21274
1.20537
1.21377
1.20761
1.19754
1.20969
1.20166
1.19942
1.19391
1.20981
1.20021
1.19717
1.20582
1.2032
1.20268
1.21103
1.20834
1.16619
1.16075
1.16619
1.15797
1.15375
1.15491
1.16713
1.16882
1.15388
1.15372
1.22503
1.21165
1.2175
1.21149
1.22431
1.21653
1.21043
1.21814
1.07141
1.08577
1.07192
1.0717
1.0761
1.06287
1.0634
1.06485
1.05382
1.05585
1.11649
1.1139
1.11987
1.11314
1.15222
1.15609
1.15784
1.15153
1.20344
1.19917
1.19179
1.20409
1.19919
1.15541
1.15129
1.15554
1.16103
1.16967
1.16042
1.15458
1.14693
1.13819
1.13029
1.13177
1.13547
1.16803
1.16976
1.16418
1.15595
1.16686
1.15757
1.1729
1.16761
1.16713
1.16847
1.15467
1.17
1.16347
1.1593
1.15684
1.17866
1.16805
1.16962
1.16312
1.16163
1.14292
1.14597
1.13989
1.14153
1.13023
1.12833
1.13193
1.13973
1.09667
1.1203
1.10849
1.10778
1.11798
1.12417
1.13265
1.13441
1.14606
1.19861
1.20774
1.20449
1.19636
1.19527
1.2087
1.20143
1.19874
1.10057
1.09678
1.1091
1.09891
1.09718
1.09381
1.10734
1.10584
1.10603
1.10521
1.10456
1.10957
1.10561
1.09893
1.10102
1.10258
1.10743
1.10311
1.10358
1.10046
1.1051
1.09988
1.06862
1.06468
1.06538
1.07287
1.07536
1.07219
1.064
1.06543
1.08839
1.07511
1.07647
1.0657
1.07125
1.07103
1.06977
1.07439
1.10162
1.10442
1.1054
1.09223
1.10362
1.11398
1.08944
1.09186
1.06781
1.07609
1.07291
1.06629
1.05723
1.05556
1.06143
1.06327
1.21872
1.17776
1.19202
1.19228
1.19689
1.19234
1.18294
1.18621
1.18831
1.19198
1.19307
1.19513
1.19919
1.19618
1.19593
1.18691
1.19172
1.2067
1.19582
1.19575
1.19707
1.21054
1.20885
1.20241
1.19063
1.19245
1.19354
1.19954
1.21067
1.20422
1.00986
1.01286
1.02121
1.0196
1.11932
1.1053
1.09379
1.09352
1.12568
1.12327
1.11507
1.11507
1.10696
1.06964
1.08054
1.04567
1.05779
1.05815
1.04671
0.979728
1.00307
1.0037
0.987853
0.974199
0.977284
0.995735
1.00038
1.0953
1.08668
1.08068
1.0894
1.08762
1.07493
1.07401
1.11177
1.11057
1.11821
1.09288
1.0955
1.21474
1.20954
1.22013
1.21498
1.20664
1.21165
1.2048
1.21775
1.20639
1.20444
1.21034
1.22593
1.21403
1.21549
1.22515
1.22091
1.21917
1.21125
1.21146
1.2114
1.21176
1.21295
1.12879
1.14719
1.1436
1.13196
1.15067
1.15
1.14427
1.1509
1.15125
1.13099
1.13452
1.13261
1.13747
1.13582
1.13697
1.13703
1.12713
1.12911
1.07346
1.08497
1.08731
1.06972
1.06036
1.06792
1.09212
1.08213
1.15245
1.16283
1.16012
1.1313
1.15443
1.14439
1.14968
1.14569
1.14624
1.15364
1.14734
1.15332
1.14363
1.13409
1.15576
1.15581
1.15417
1.15682
1.08502
1.08382
1.0831
1.09706
1.08648
1.07749
1.07816
1.08585
1.07503
1.07295
1.14227
1.13918
1.15355
1.14757
1.15492
1.15751
1.16292
1.15291
1.1453
1.14159
1.10097
1.10632
1.11108
1.11101
1.09595
1.09635
1.2033
1.21027
1.2046
1.2008
1.20901
1.20447
1.2043
1.20742
1.21501
1.20819
1.19957
1.21311
1.20363
1.20951
1.19604
1.20222
1.2066
1.19921
1.19716
1.19908
1.20755
1.21016
1.19995
1.21119
1.21318
1.205
1.2083
1.20912
1.20647
1.20745
1.18945
1.18973
1.18801
1.18706
1.19691
1.19055
1.18199
1.18823
1.19956
1.19712
1.18952
1.17787
1.19459
1.19048
1.18333
1.196
1.1855
1.18652
1.18653
1.19102
1.19072
1.18537
1.18141
1.18826
1.18584
1.16235
1.15473
1.16781
1.16121
1.1628
1.14009
1.13938
1.15303
1.14691
1.1525
1.14656
1.13622
1.13386
1.19489
1.18419
1.19634
1.19189
1.1877
1.18996
1.18119
1.18364
1.19206
1.18671
1.18144
1.1834
1.04866
1.05222
1.05905
1.05383
1.05855
1.05774
1.0702
1.07531
1.0585
1.06497
1.15575
1.16061
1.1472
1.14532
1.14711
1.1464
1.15752
1.15283
1.14003
1.1395
1.14296
1.14185
1.03023
1.03816
1.03427
1.04206
1.04357
1.04706
1.04416
1.03735
1.04207
1.09396
1.09546
1.09604
1.09213
1.08357
1.09444
1.09505
1.08672
1.08631
1.15897
1.15912
1.15118
1.15459
1.15076
1.19034
1.19496
1.20087
1.19603
1.20038
1.19958
1.20627
1.12903
1.12464
1.13419
1.14331
1.13546
1.13911
1.10357
1.09879
1.09648
1.10739
1.11894
1.11707
1.11073
1.11281
1.09823
1.09749
1.0791
1.09198
1.08509
1.07376
1.09814
1.08757
1.09359
1.08705
1.07793
1.09481
1.10035
1.19393
1.19655
1.19094
1.19754
1.2008
1.19569
1.1944
1.20733
1.19977
1.20189
1.19614
1.19526
1.19996
1.17601
1.18434
1.18547
1.18416
1.19542
1.18933
1.18843
1.17864
1.1757
1.18467
1.1997
1.20629
1.204
1.20194
1.1902
1.18941
1.18932
1.20218
1.20389
1.19675
1.19419
1.18761
0.994008
0.988267
0.990093
1.0021
1.00264
0.98994
0.99382
0.987054
0.999332
1.16106
1.16979
1.16204
1.15896
1.1696
1.16792
1.16191
1.15687
1.15452
1.17477
1.16815
1.16482
1.17572
1.17175
1.1908
1.20069
1.19962
1.19575
1.19258
1.20224
1.19863
1.20186
1.20248
1.19663
1.16657
1.1692
1.16493
1.17108
1.17953
1.1831
1.17114
1.16894
1.18031
1.18278
1.18727
1.18478
1.18217
1.17077
1.17457
1.17435
1.17411
1.1667
1.17907
1.16996
1.16746
1.178
1.17244
1.17778
1.16931
1.16274
1.17268
1.16316
1.16204
1.18268
1.18107
1.14824
1.15808
1.13097
1.1566
1.14105
1.14786
1.1426
1.15175
1.16543
1.15881
1.15169
1.14689
1.13132
1.12521
1.14168
1.13987
1.13982
1.14128
1.14084
0.964929
0.966243
0.970466
0.978346
0.985048
0.968493
0.972399
0.973118
0.964864
0.964996
0.97461
0.966728
0.975748
0.965513
0.976158
0.985366
0.970707
0.971494
0.968904
1.10075
1.10794
1.09724
1.09516
1.11536
1.11726
1.10207
1.10116
1.09414
1.10546
1.09215
1.08591
1.0948
1.09321
1.10209
1.11316
1.09826
1.10659
1.10759
1.09857
1.06029
1.04665
1.06417
0.993943
0.985906
0.990158
1.00365
1.01233
0.992416
0.992082
1.00266
0.999799
1.0063
1.1081
1.11126
1.11909
1.12208
1.1272
1.13092
1.13725
1.11423
1.10784
1.12737
1.13663
1.12741
1.12966
1.13528
1.15922
1.16223
1.16661
1.16831
1.15651
1.17705
1.17668
1.16976
1.17596
1.16794
1.18298
1.19194
1.18728
1.19758
1.185
1.17837
1.18331
1.19393
1.19507
1.20085
1.2028
1.18666
1.19054
1.18401
1.19559
1.19355
1.18906
1.18862
1.18871
1.19544
1.19515
1.19436
1.20036
1.19965
1.20508
1.1955
1.20242
1.19569
1.0524
1.05098
1.0472
1.05325
1.04139
1.04148
1.03056
1.031
1.03408
1.02722
1.0228
1.0197
1.11606
1.11285
1.11936
1.12844
1.12748
1.10909
1.12196
1.13157
1.11734
1.10724
1.1101
1.1108
1.14031
1.13142
1.07484
1.08223
1.08661
1.05832
1.05587
1.08995
1.06217
1.05293
1.17443
1.04281
1.03216
1.02453
1.02059
1.02366
1.02455
1.03379
1.03393
1.04002
1.03197
1.02781
1.04535
1.03996
1.18739
1.18823
1.19526
1.18951
1.19958
1.19376
1.20082
1.19024
1.19385
1.19037
1.19519
1.10838
1.11033
1.1239
1.13378
1.13222
1.12295
1.12007
1.10927
1.12579
1.12745
1.09843
1.11584
1.11299
1.05572
1.07034
1.05932
1.05864
1.06147
1.08775
1.07062
1.08636
1.16448
1.18566
1.16687
1.16565
1.17345
1.1832
1.18216
1.17763
1.18436
1.20003
1.18946
1.18418
1.19158
1.1889
1.19843
1.20148
1.20048
1.19203
1.19317
1.19489
1.19118
1.19915
1.19803
1.1135
1.11507
1.11573
1.14306
1.13342
1.1429
1.15042
1.15853
1.18236
1.16054
1.17253
1.16867
1.16859
1.16375
1.1734
1.16174
1.1775
1.17398
1.17142
1.17504
1.18628
1.18749
1.18929
1.18182
1.19507
1.18799
1.16179
1.17011
1.1709
1.0627
1.07342
1.06732
1.07641
1.07032
1.08623
1.07035
1.06828
1.08204
1.08435
1.08989
1.08638
1.09343
1.03868
1.04094
1.04703
1.04306
1.02108
1.00543
1.01814
0.99757
1.01278
1.01541
1.00112
1.00146
1.01175
1.01326
0.999233
1.00578
1.20955
1.20676
1.1762
1.18003
1.17209
1.16373
1.17946
1.17746
1.12965
1.12734
1.12977
1.1643
1.16619
1.17532
1.18771
1.19264
1.18524
1.18779
1.17814
1.18395
1.20265
1.19845
1.20261
1.20178
1.20341
1.20252
1.21341
1.20227
1.2065
1.20243
1.21114
1.20425
1.20602
1.20326
1.20199
1.1967
1.06162
1.07359
1.09699
1.08468
1.07531
1.09034
1.08092
1.08602
1.09147
1.13693
1.14259
1.13606
1.14451
1.15578
1.15274
1.1545
1.14502
1.13603
1.151
1.17368
1.1637
1.16782
1.16683
1.14983
1.16829
1.16521
1.1608
1.15108
1.16693
1.15816
1.01653
1.0109
1.02335
1.04935
1.0643
1.05266
1.04091
1.05217
1.04022
1.03625
1.04069
1.0426
1.06136
1.07484
1.0645
1.07769
1.09068
1.08418
1.0619
1.05827
1.06796
1.05722
1.05918
1.18027
1.17305
1.17843
1.19442
1.18343
1.18706
1.19234
1.1894
1.16113
1.16562
1.16897
1.16678
1.17283
1.17403
0.96279
0.965366
0.952105
0.957109
0.959972
0.95221
0.947908
1.19432
1.19288
1.19182
1.1937
1.05768
1.04311
1.04172
1.05526
1.0667
1.06072
1.0407
1.05131
1.0504
1.05442
1.03655
1.02215
1.03317
1.03068
1.02436
1.02026
1.02409
1.15281
1.16422
1.1514
1.16404
1.16653
1.15208
1.1402
1.14421
1.15005
1.15307
1.15697
1.15676
1.1472
1.14356
1.15544
1.14442
1.14328
1.13472
0.988046
0.978365
1.16487
1.17308
1.1699
1.17858
1.17251
1.17526
1.18343
1.17618
1.18079
1.17945
1.18921
1.18535
1.18378
1.16948
1.16459
1.16388
1.16965
1.17192
1.16773
1.16202
1.1744
1.17687
1.17576
1.16958
1.17106
1.18251
1.17861
1.21336
1.1991
1.19885
1.20469
1.20861
1.20547
1.20733
1.20877
1.20397
1.21904
1.20794
1.18459
1.19793
1.19871
1.19829
1.20032
1.19689
1.20316
1.20704
1.1978
1.1924
1.20274
1.19872
1.18416
1.18628
1.18877
1.19889
1.19932
1.19705
1.19719
1.20404
1.19727
1.204
1.20435
1.20095
1.20467
1.11226
1.1367
1.12358
1.19159
1.19377
1.20072
1.20318
1.18972
1.1924
1.18139
0.973255
0.975874
0.977623
0.973846
0.971988
0.986817
0.984371
0.970812
0.998873
1.00466
0.999247
0.992315
0.977681
0.990529
0.995899
0.968764
0.972871
1.14774
1.13422
1.13637
1.14314
1.13594
1.13863
1.1444
1.15257
1.15608
1.15135
1.14956
1.15563
1.11181
1.09309
1.10793
1.14981
1.15984
1.15169
1.1661
1.1579
1.17032
1.16616
1.14633
1.14767
1.14087
1.19484
1.19956
1.19903
1.20641
1.19683
1.20041
1.20017
1.19969
1.20454
1.20367
1.20348
1.20249
1.19983
1.18599
1.17856
1.18097
1.18287
1.18376
1.18487
1.18065
1.18642
1.19
1.18672
1.18876
1.16513
1.18088
1.17953
1.18605
1.18568
1.18316
1.19293
1.19041
1.1899
1.17156
1.16587
1.16304
1.1637
1.16535
1.17768
1.17866
1.18442
1.17796
1.16937
1.15207
1.17011
1.1674
1.16608
1.14095
1.13538
1.14458
1.14362
1.14656
1.14334
1.1422
1.13495
1.13547
1.12952
1.12706
1.12701
1.15882
1.17073
1.16537
1.16482
1.15918
1.17287
1.16985
1.15612
1.16045
1.15399
1.17062
1.16808
1.16979
1.16498
1.15796
1.13612
1.12347
1.14504
1.14058
1.14045
1.14783
1.15106
1.15152
1.15134
1.15254
1.21206
1.21402
1.2071
1.20341
1.20774
1.21928
1.21917
1.21256
1.2106
1.21053
1.20776
1.2111
1.2156
1.2147