/*--------------------------------*- C++ -*----------------------------------*\
| =========                 |                                                 |
| \\      /  F ield         | OpenFOAM: The Open Source CFD Toolbox           |
|  \\    /   O peration     | Version:  v1612+                                |
|   \\  /    A nd           | Web:      www.OpenFOAM.com                      |
|    \\/     M anipulation  |                                                 |
\*---------------------------------------------------------------------------*/
FoamFile
{
    version     2.0;
    format      ascii;
    class       volVectorField;
    location    "150";
    object      U;
}
// * * * * * * * * * * * * * * * * * * * * * * * * * * * * * * * * * * * * * //

dimensions      [0 1 -1 0 0 0 0];

internalField   nonuniform List<vector> 
17021
(
(-0.3456 0.538717 0.678295)
(-0.224994 0.707402 0.489459)
(-0.445479 0.267155 0.359879)
(-0.471388 0.483003 0.484967)
(-0.260904 0.604262 0.434028)
(-0.502094 0.490424 0.634729)
(-0.498377 0.594185 0.451785)
(-0.345812 0.5333 0.382015)
(-0.355505 0.52208 0.38343)
(-0.429958 0.552128 0.286744)
(-0.364251 0.515128 0.33789)
(-0.384197 0.526332 0.288391)
(-0.401839 0.549749 0.273695)
(-0.374595 0.540826 0.289915)
(-0.440451 0.570203 0.292175)
(-0.397973 0.565114 0.322622)
(-0.37707 0.581149 0.34586)
(-0.447127 0.575522 0.284695)
(-0.418532 0.571207 0.304473)
(-0.398497 0.561156 0.301481)
(-0.351391 0.528785 0.387973)
(-0.33989 0.536572 0.402566)
(-0.350761 0.546471 0.382966)
(-0.335351 0.539044 0.387834)
(-0.331326 0.531856 0.398154)
(-0.34405 0.524572 0.379987)
(-0.326319 0.534349 0.417105)
(-0.334973 0.543066 0.392116)
(-0.314989 0.558237 0.391112)
(-0.310834 0.544209 0.389863)
(-0.330687 0.568806 0.431535)
(-0.322364 0.56313 0.458741)
(-0.297027 0.561112 0.444454)
(-0.337045 0.548005 0.379383)
(-0.355697 0.539876 0.350291)
(-0.32833 0.539768 0.393613)
(-0.313177 0.556743 0.451954)
(-0.295646 0.56102 0.435237)
(-0.307089 0.550267 0.428594)
(-0.295669 0.558547 0.453583)
(-0.30589 0.547395 0.422499)
(-0.306337 0.554562 0.459441)
(-0.142486 0.534338 0.417673)
(-0.16481 0.546764 0.436772)
(-0.169284 0.59586 0.457729)
(-0.196969 0.612699 0.475499)
(-0.187444 0.616422 0.472077)
(-0.180496 0.568834 0.444712)
(-0.192239 0.59757 0.457888)
(-0.209673 0.621188 0.467834)
(-0.199955 0.623723 0.465688)
(-0.149766 0.52789 0.415357)
(-0.184063 0.584663 0.449041)
(-0.161946 0.545554 0.423241)
(-0.16253 0.629477 0.471825)
(-0.182629 0.623114 0.468102)
(-0.147173 0.562834 0.428753)
(-0.152878 0.59675 0.450819)
(-0.173368 0.594159 0.452491)
(-0.632709 0.623429 0.572013)
(-0.609358 0.599864 0.544401)
(-0.658809 0.618957 0.582722)
(-0.657904 0.624354 0.579873)
(-0.639076 0.651512 0.576997)
(-0.632485 0.648992 0.574687)
(-0.632175 0.649824 0.572122)
(-0.610282 0.631463 0.55566)
(-0.658707 0.633311 0.580344)
(-0.603657 0.603976 0.535955)
(-0.657828 0.616497 0.573443)
(-0.57346 0.596002 0.519964)
(-0.627174 0.639909 0.559399)
(-0.547798 0.568446 0.488891)
(-0.644383 0.630267 0.576332)
(-0.567027 0.588802 0.50787)
(-0.64187 0.645759 0.578471)
(-0.675531 0.641174 0.580589)
(-0.656432 0.643307 0.57474)
(-0.566338 0.591816 0.511196)
(-0.574494 0.603159 0.519142)
(-0.636107 0.642762 0.568976)
(-0.618403 0.630695 0.558805)
(-0.650954 0.641277 0.577591)
(-0.369199 0.464642 0.325663)
(-0.436291 0.515808 0.385541)
(-0.370013 0.47267 0.342791)
(-0.335288 0.378171 0.223198)
(-0.49325 0.533362 0.439736)
(-0.499061 0.524138 0.437147)
(-0.436614 0.473394 0.352783)
(-0.384694 0.438214 0.298345)
(-0.315262 0.764437 0.385528)
(-0.346424 0.735602 0.383701)
(-0.290767 0.784278 0.386873)
(-0.362143 0.72105 0.370069)
(-0.397721 0.701473 0.34975)
(-0.291266 0.773456 0.399937)
(-0.293747 0.770167 0.39615)
(-0.305054 0.75058 0.386235)
(-0.337439 0.741486 0.360583)
(-0.373815 0.713256 0.37505)
(-0.403187 0.699819 0.362511)
(-0.313765 0.724267 0.398116)
(-0.329919 0.722621 0.375724)
(-0.387897 0.710563 0.346181)
(-0.37061 0.715172 0.352503)
(-0.314394 0.735702 0.372307)
(-0.401137 0.720382 0.347965)
(-0.238492 0.708373 0.474133)
(-0.188661 0.659814 0.455613)
(-0.214727 0.702182 0.461839)
(-0.218764 0.737564 0.4775)
(-0.242929 0.714331 0.48852)
(-0.215512 0.669482 0.491298)
(-0.2261 0.660582 0.508237)
(-0.289895 0.734991 0.475065)
(-0.208976 0.701384 0.479144)
(-0.265142 0.717672 0.48081)
(-0.312765 0.741677 0.487263)
(-0.213758 0.685608 0.497089)
(-0.324014 0.672313 0.501084)
(-0.28085 0.677043 0.521466)
(-0.280245 0.690661 0.492181)
(-0.351341 0.736031 0.494939)
(-0.321756 0.696684 0.487389)
(-0.240533 0.684948 0.50035)
(-0.255329 0.668392 0.508726)
(-0.305178 0.684946 0.499407)
(-0.274846 0.67171 0.503937)
(-0.0190816 0.67418 0.412967)
(-0.0165253 0.655728 0.402708)
(-0.0507109 0.718392 0.416348)
(-0.0453806 0.721658 0.430795)
(-0.116296 0.770489 0.448457)
(-0.0921551 0.715075 0.449142)
(-0.0890763 0.74854 0.444577)
(-0.105536 0.715422 0.448313)
(-0.0257911 0.686465 0.40491)
(-0.0521972 0.69114 0.425742)
(-0.0390033 0.655869 0.417636)
(-0.0429794 0.665444 0.408215)
(-0.062953 0.69088 0.420014)
(-0.0576739 0.668109 0.434684)
(-0.0502266 0.674831 0.418207)
(-0.0513693 0.707091 0.411954)
(-0.394266 0.447809 0.210546)
(-0.408876 0.451902 0.163247)
(-0.438375 0.431519 0.22887)
(-0.419124 0.426625 0.239746)
(-0.464571 0.499622 0.183473)
(-0.457842 0.496127 0.141138)
(-0.404401 0.426241 0.177586)
(-0.52832 0.492678 0.191075)
(-0.501659 0.47538 0.238237)
(-0.491963 0.440471 0.24342)
(-0.479874 0.432803 0.239273)
(-0.510125 0.484276 0.241511)
(-0.538543 0.473859 0.155321)
(-0.521676 0.44711 0.143703)
(-0.520645 0.455837 0.191956)
(-0.554829 0.464708 0.121231)
(-0.508123 0.41539 0.12441)
(-0.485747 0.447419 0.199677)
(-0.445104 0.383324 0.305288)
(-0.371352 0.333682 0.222587)
(-0.407752 0.398625 0.293512)
(-0.474017 0.447757 0.383902)
(-0.416137 0.455788 0.33087)
(-0.351331 0.338508 0.182717)
(-0.566083 0.52301 0.255472)
(-0.542687 0.490023 0.287729)
(-0.497381 0.433612 0.27515)
(-0.543973 0.482968 0.24742)
(-0.548642 0.496399 0.307977)
(-0.496963 0.408778 0.124636)
(-0.447333 0.406678 0.213581)
(-0.485241 0.420994 0.150641)
(-0.504276 0.425971 0.222951)
(-0.5115 0.468017 0.194305)
(-0.510319 0.413208 0.079504)
(-0.534996 0.456246 0.146351)
(-0.402948 0.636508 0.508614)
(-0.398436 0.686928 0.498938)
(-0.335945 0.644606 0.569301)
(-0.350382 0.690942 0.539482)
(-0.361467 0.653322 0.542372)
(-0.307501 0.632474 0.5984)
(-0.310851 0.644023 0.580624)
(-0.388898 0.717363 0.495683)
(-0.366957 0.691812 0.523884)
(-0.296979 0.649036 0.590824)
(-0.280431 0.677026 0.588825)
(-0.322839 0.693965 0.559007)
(-0.395582 0.454026 0.408086)
(-0.401877 0.45397 0.393204)
(-0.421767 0.440115 0.313271)
(-0.445662 0.443387 0.323615)
(-0.397231 0.456016 0.451772)
(-0.408378 0.43909 0.425563)
(-0.420417 0.433369 0.307853)
(-0.445268 0.443203 0.337094)
(-0.417571 0.451556 0.397754)
(-0.402452 0.428068 0.329982)
(-0.425589 0.445651 0.368021)
(-0.445783 0.454967 0.406155)
(-0.407277 0.444532 0.425995)
(-0.405087 0.462199 0.451602)
(-0.422218 0.429351 0.383313)
(-0.425178 0.42088 0.397292)
(-0.433683 0.414574 0.367696)
(-0.419994 0.428725 0.435473)
(-0.453916 0.428803 0.365916)
(-0.44507 0.450357 0.415278)
(-0.419001 0.425332 0.33441)
(-0.434496 0.462073 0.44577)
(-0.432563 0.446799 0.451109)
(-0.426539 0.457358 0.463832)
(-0.284918 0.512739 0.335516)
(-0.303796 0.518729 0.289939)
(-0.370647 0.512827 0.289795)
(-0.350618 0.526685 0.354946)
(-0.286777 0.53889 0.301289)
(-0.425152 0.553987 0.258964)
(-0.438814 0.519581 0.211637)
(-0.264536 0.538328 0.325698)
(-0.277556 0.529659 0.356606)
(-0.453585 0.538179 0.274867)
(-0.419307 0.568296 0.304594)
(-0.354446 0.543788 0.27457)
(-0.30835 0.534638 0.27882)
(-0.351843 0.545918 0.397864)
(-0.312937 0.528779 0.394893)
(-0.335585 0.553892 0.378368)
(-0.369216 0.563433 0.37841)
(-0.284015 0.543878 0.371785)
(-0.487109 0.351119 0.431971)
(-0.432316 0.350405 0.403647)
(-0.551871 0.372878 0.527881)
(-0.483639 0.370548 0.432716)
(-0.44665 0.362411 0.415826)
(-0.611483 0.416862 0.480437)
(-0.62092 0.41715 0.55231)
(-0.574057 0.458759 0.578585)
(-0.629562 0.466446 0.562182)
(-0.667754 0.464316 0.533287)
(-0.504325 0.389268 0.531555)
(-0.47834 0.368465 0.464288)
(-0.482095 0.397264 0.453264)
(-0.4439 0.385874 0.450447)
(-0.523568 0.417793 0.519467)
(-0.636529 0.447059 0.519473)
(-0.535979 0.411044 0.569348)
(-0.339654 0.636808 0.379867)
(-0.324353 0.652317 0.346579)
(-0.329015 0.637841 0.354408)
(-0.321611 0.649018 0.370308)
(-0.319807 0.647292 0.335366)
(-0.32642 0.644432 0.403249)
(-0.339039 0.601546 0.423586)
(-0.349359 0.632027 0.432705)
(-0.308435 0.638125 0.312753)
(-0.297414 0.598927 0.308896)
(-0.310673 0.608651 0.330308)
(-0.326294 0.569671 0.349354)
(-0.325638 0.610422 0.368042)
(-0.336247 0.622065 0.421978)
(-0.332787 0.605046 0.4125)
(-0.345784 0.566042 0.311108)
(-0.318664 0.584715 0.339307)
(-0.379627 0.640587 0.431455)
(-0.42816 0.648286 0.469077)
(-0.384892 0.63126 0.444157)
(-0.373735 0.641534 0.423314)
(-0.494958 0.655126 0.495422)
(-0.447948 0.653666 0.471377)
(-0.433817 0.639191 0.428835)
(-0.460684 0.620675 0.455256)
(-0.483236 0.642608 0.485169)
(-0.426188 0.642488 0.448211)
(-0.383304 0.624849 0.418383)
(-0.477236 0.64308 0.45484)
(-0.366322 0.577623 0.354269)
(-0.453694 0.632092 0.461257)
(-0.461165 0.641856 0.476973)
(-0.216192 0.80941 0.40592)
(-0.249721 0.78739 0.41007)
(-0.198103 0.797729 0.427103)
(-0.195251 0.80441 0.429644)
(-0.269914 0.794347 0.397321)
(-0.194133 0.769303 0.438669)
(-0.195679 0.792892 0.435683)
(-0.262786 0.784944 0.397003)
(-0.203047 0.786145 0.436216)
(-0.333655 0.739023 0.380171)
(-0.201576 0.803772 0.424378)
(-0.212297 0.745305 0.439413)
(-0.183768 0.767357 0.445767)
(-0.287235 0.723134 0.393408)
(-0.298016 0.729878 0.39464)
(-0.237665 0.76101 0.432283)
(-0.386921 0.653787 0.484782)
(-0.448576 0.639274 0.426197)
(-0.477185 0.662119 0.408196)
(-0.445203 0.567025 0.408981)
(-0.441749 0.528589 0.396783)
(-0.395726 0.542306 0.467456)
(-0.404804 0.650561 0.488298)
(-0.31188 0.635717 0.546345)
(-0.315938 0.666009 0.517919)
(-0.283296 0.642281 0.546415)
(-0.303435 0.646524 0.532526)
(-0.382925 0.544264 0.444378)
(-0.440486 0.533393 0.39783)
(-0.372123 0.583068 0.494769)
(-0.297332 0.650456 0.542043)
(-0.369153 0.546324 0.488921)
(-0.345117 0.595027 0.515855)
(-0.382984 0.677348 0.481004)
(-0.306756 0.611627 0.53865)
(-0.306412 0.624295 0.535387)
(-0.327118 0.603517 0.510121)
(-0.38457 0.603391 0.460469)
(-0.332761 0.59252 0.53807)
(-0.331295 0.574291 0.494877)
(-0.352903 0.578796 0.501433)
(-0.304402 0.565318 0.466849)
(-0.302261 0.550094 0.43005)
(-0.353533 0.636706 0.560223)
(-0.338446 0.599928 0.512689)
(-0.347387 0.632342 0.541673)
(-0.337255 0.599381 0.511336)
(-0.310099 0.589279 0.495328)
(-0.299032 0.568685 0.459195)
(-0.342571 0.583994 0.478972)
(-0.367674 0.652367 0.572678)
(-0.364613 0.654372 0.571652)
(-0.0694361 0.717923 0.415283)
(-0.0775328 0.697853 0.403397)
(-0.163039 0.76645 0.447803)
(-0.166762 0.760041 0.453736)
(-0.109708 0.719098 0.421243)
(-0.122195 0.719735 0.426845)
(-0.0907223 0.696492 0.415406)
(-0.0868038 0.702108 0.405163)
(-0.0944927 0.731863 0.422589)
(-0.0575234 0.70494 0.389451)
(-0.0593829 0.679031 0.364928)
(-0.164642 0.758121 0.444408)
(-0.098607 0.711519 0.418342)
(-0.098483 0.748063 0.396165)
(-0.0938753 0.739469 0.374615)
(-0.067684 0.690815 0.361215)
(-0.186796 0.810387 0.428148)
(-0.175976 0.78753 0.425288)
(-0.143894 0.780359 0.425471)
(-0.117084 0.76237 0.388907)
(-0.0812391 0.711512 0.382475)
(-0.172424 0.634291 0.448492)
(-0.179071 0.627973 0.439674)
(-0.171276 0.594029 0.43507)
(-0.174477 0.588835 0.437205)
(-0.173761 0.640472 0.455954)
(-0.195913 0.63256 0.446786)
(-0.157219 0.603672 0.438673)
(-0.156413 0.601746 0.433255)
(-0.165229 0.588676 0.43116)
(-0.157796 0.571635 0.416812)
(-0.180426 0.631802 0.460167)
(-0.179862 0.602383 0.453754)
(-0.194648 0.628816 0.457275)
(-0.137618 0.57917 0.43254)
(-0.136295 0.5363 0.40464)
(-0.170992 0.627496 0.465364)
(-0.157667 0.642147 0.466285)
(-0.141097 0.622886 0.458421)
(-0.14392 0.587729 0.438945)
(-0.133249 0.562011 0.419513)
(-0.221965 0.792791 0.407126)
(-0.20339 0.797779 0.393653)
(-0.204764 0.816674 0.408267)
(-0.194534 0.795714 0.410919)
(-0.21781 0.780561 0.389962)
(-0.204046 0.783719 0.397345)
(-0.176952 0.758066 0.328464)
(-0.194928 0.754925 0.344996)
(-0.22117 0.775005 0.377719)
(-0.188263 0.768426 0.311726)
(-0.184984 0.758466 0.321175)
(-0.189331 0.795418 0.385552)
(-0.209705 0.783418 0.3765)
(-0.155191 0.780387 0.326281)
(-0.167917 0.760479 0.330416)
(-0.16396 0.782915 0.362635)
(-0.165086 0.782738 0.377746)
(-0.162912 0.785484 0.36353)
(-0.188255 0.812245 0.399698)
(-0.173114 0.755367 0.500793)
(-0.133714 0.655203 0.442803)
(-0.0909224 0.685771 0.433432)
(-0.0699696 0.653737 0.415302)
(-0.171002 0.80298 0.512711)
(-0.095526 0.728481 0.444617)
(-0.120069 0.703318 0.449628)
(-0.105676 0.681084 0.440619)
(-0.137542 0.802329 0.482862)
(-0.142874 0.724985 0.467317)
(-0.15105 0.756541 0.47114)
(-0.193826 0.650109 0.471714)
(-0.177599 0.619871 0.45735)
(-0.204501 0.650415 0.510272)
(-0.179783 0.595587 0.464527)
(-0.250904 0.646996 0.512958)
(-0.241322 0.665654 0.504867)
(-0.248727 0.652077 0.517478)
(-0.199364 0.622849 0.497157)
(-0.197567 0.622369 0.494334)
(-0.200609 0.641409 0.485738)
(-0.23763 0.643759 0.514035)
(-0.209776 0.624991 0.506373)
(-0.0951527 0.787235 0.432053)
(-0.0519856 0.731732 0.412566)
(-0.0424617 0.718769 0.387509)
(-0.0638618 0.74707 0.393631)
(-0.0810297 0.789691 0.414562)
(-0.0408515 0.756963 0.406059)
(-0.0293836 0.737211 0.388093)
(-0.0344442 0.726771 0.375431)
(0.00255834 0.682166 0.356181)
(-0.0427636 0.696796 0.406206)
(-0.0290485 0.710887 0.402247)
(-0.00657036 0.666331 0.370923)
(-0.0205905 0.681491 0.383054)
(-0.314897 0.693626 0.426481)
(-0.311419 0.69055 0.423284)
(-0.31762 0.698426 0.433312)
(-0.313348 0.705833 0.439046)
(-0.265607 0.658163 0.395614)
(-0.259921 0.662868 0.392836)
(-0.241749 0.630282 0.370782)
(-0.300709 0.699343 0.423482)
(-0.281635 0.669923 0.39474)
(-0.293734 0.674665 0.421897)
(-0.280918 0.652608 0.402187)
(-0.266676 0.652036 0.397493)
(-0.349727 0.644951 0.565862)
(-0.308471 0.598634 0.513814)
(-0.34788 0.673149 0.559884)
(-0.354478 0.679734 0.579631)
(-0.339081 0.668393 0.559821)
(-0.342289 0.674723 0.564687)
(-0.344128 0.653554 0.560178)
(-0.360543 0.6776 0.585237)
(-0.334194 0.640655 0.545335)
(-0.316878 0.696687 0.547346)
(-0.313893 0.693319 0.564672)
(-0.321329 0.693382 0.561595)
(-0.317866 0.669685 0.53592)
(-0.326818 0.689614 0.546511)
(-0.335639 0.690439 0.551857)
(-0.332459 0.673852 0.55677)
(-0.328825 0.681648 0.537488)
(-0.313821 0.635022 0.522505)
(-0.392546 0.565806 0.427533)
(-0.413079 0.589975 0.468604)
(-0.509557 0.594686 0.500382)
(-0.445795 0.53397 0.450063)
(-0.425754 0.531886 0.431146)
(-0.332939 0.465758 0.345219)
(-0.433905 0.579226 0.461263)
(-0.461889 0.597765 0.488119)
(-0.287798 0.474222 0.310528)
(-0.287738 0.463761 0.300254)
(-0.291274 0.486493 0.340281)
(-0.33414 0.495039 0.355577)
(-0.398568 0.537317 0.424986)
(-0.333375 0.466775 0.357087)
(-0.420709 0.540626 0.438944)
(-0.395821 0.552199 0.443106)
(-0.426805 0.576888 0.469779)
(-0.456928 0.589478 0.476986)
(-0.563244 0.560534 0.47916)
(-0.63276 0.537673 0.491136)
(-0.538336 0.527136 0.588046)
(-0.522224 0.499116 0.589995)
(-0.626339 0.509904 0.512792)
(-0.572653 0.506359 0.570884)
(-0.67297 0.517691 0.474478)
(-0.548288 0.560077 0.484708)
(-0.518577 0.526583 0.626358)
(-0.538371 0.500051 0.590471)
(-0.535108 0.549506 0.585672)
(-0.619559 0.487338 0.526869)
(-0.558372 0.547702 0.518706)
(-0.634252 0.494145 0.518921)
(-0.642509 0.486112 0.543003)
(-0.657734 0.473664 0.493999)
(-0.61466 0.468154 0.531008)
(-0.525008 0.519742 0.584223)
(-0.529889 0.476076 0.557578)
(-0.556376 0.531794 0.534823)
(-0.599033 0.483729 0.519745)
(-0.545938 0.45936 0.522705)
(-0.366849 0.719336 0.459719)
(-0.368405 0.728592 0.483922)
(-0.382265 0.633373 0.45222)
(-0.324268 0.625487 0.478161)
(-0.32964 0.627035 0.495482)
(-0.383508 0.602327 0.448454)
(-0.433622 0.57308 0.374929)
(-0.461246 0.585486 0.353398)
(-0.425331 0.588444 0.388209)
(-0.472212 0.588432 0.337724)
(-0.427773 0.583173 0.39095)
(-0.408788 0.626324 0.455755)
(-0.390044 0.6929 0.470633)
(-0.447803 0.643454 0.408978)
(-0.3648 0.712186 0.47636)
(-0.348085 0.734164 0.47312)
(-0.422656 0.654142 0.402575)
(-0.438688 0.688181 0.431241)
(-0.412529 0.676527 0.429101)
(-0.474153 0.712699 0.429696)
(-0.483434 0.658366 0.453649)
(-0.449173 0.699358 0.467192)
(-0.440829 0.714432 0.464726)
(-0.484459 0.663556 0.397533)
(-0.392332 0.672188 0.373047)
(-0.462513 0.7418 0.391456)
(-0.42628 0.715531 0.428691)
(-0.504971 0.706458 0.386146)
(-0.45982 0.695253 0.362166)
(-0.473846 0.69867 0.384245)
(-0.381699 0.686664 0.382704)
(-0.392965 0.690906 0.371454)
(-0.466122 0.720262 0.402565)
(-0.385133 0.705305 0.352212)
(-0.419337 0.692302 0.361094)
(-0.420876 0.70542 0.401853)
(-0.35906 0.580463 0.505631)
(-0.336808 0.586617 0.502885)
(-0.336137 0.588057 0.512897)
(-0.362982 0.530711 0.399622)
(-0.367368 0.521165 0.389713)
(-0.344579 0.532839 0.391932)
(-0.353973 0.574357 0.514823)
(-0.37044 0.591255 0.511208)
(-0.353215 0.586765 0.523574)
(-0.38607 0.566693 0.511233)
(-0.396069 0.582127 0.523735)
(-0.384574 0.581737 0.50334)
(-0.325599 0.54593 0.481253)
(-0.341351 0.569583 0.513)
(-0.362901 0.574745 0.521009)
(-0.370888 0.565827 0.514949)
(-0.373139 0.57914 0.517644)
(-0.350744 0.546329 0.462209)
(-0.357508 0.564591 0.516849)
(-0.324225 0.517399 0.434761)
(-0.218119 0.750913 0.417524)
(-0.21925 0.779568 0.421002)
(-0.19602 0.761628 0.436683)
(-0.183834 0.775349 0.403297)
(-0.169565 0.778442 0.39642)
(-0.215158 0.750271 0.348248)
(-0.199339 0.735651 0.335274)
(-0.231288 0.742245 0.327266)
(-0.248344 0.744565 0.342366)
(-0.2231 0.725444 0.348741)
(-0.256824 0.745845 0.344958)
(-0.241276 0.742507 0.400778)
(-0.227308 0.749067 0.399124)
(-0.198733 0.748246 0.38788)
(-0.224835 0.756014 0.39629)
(-0.215205 0.744766 0.421482)
(-0.183284 0.756786 0.362708)
(-0.241393 0.752315 0.345446)
(-0.227516 0.725227 0.325073)
(-0.282565 0.741055 0.320159)
(-0.21946 0.735213 0.366783)
(-0.217393 0.773666 0.401036)
(-0.21483 0.73879 0.353776)
(-0.222209 0.754148 0.37149)
(-0.29491 0.616295 0.416605)
(-0.267398 0.658851 0.448225)
(-0.291072 0.631531 0.426214)
(-0.268125 0.619028 0.43446)
(-0.25946 0.599071 0.432744)
(-0.228332 0.615314 0.468857)
(-0.210009 0.643603 0.481168)
(-0.216572 0.616871 0.473652)
(-0.20829 0.629951 0.475062)
(-0.210744 0.62567 0.473445)
(-0.202051 0.63354 0.467205)
(-0.271376 0.7108 0.442897)
(-0.292016 0.67789 0.426042)
(-0.239161 0.624259 0.442027)
(-0.266552 0.609129 0.426545)
(-0.208025 0.680489 0.467565)
(-0.222636 0.701212 0.46453)
(-0.200312 0.646839 0.478133)
(-0.19809 0.6455 0.476451)
(-0.231963 0.658415 0.468144)
(-0.261086 0.666886 0.43481)
(-0.204123 0.661906 0.478799)
(-0.276121 0.734288 0.474542)
(-0.269802 0.717478 0.488873)
(-0.259143 0.735483 0.48024)
(-0.255854 0.735561 0.455315)
(-0.229992 0.712436 0.402383)
(-0.365957 0.683084 0.439823)
(-0.32935 0.699148 0.397064)
(-0.290151 0.701644 0.501524)
(-0.26649 0.719159 0.462794)
(-0.317285 0.680052 0.383207)
(-0.330919 0.679584 0.439671)
(-0.323569 0.666196 0.48839)
(-0.291753 0.703856 0.504479)
(-0.313766 0.667038 0.458836)
(-0.295741 0.661252 0.458852)
(-0.363079 0.691193 0.423287)
(-0.327689 0.692738 0.398299)
(-0.252434 0.691434 0.40804)
(-0.298089 0.683848 0.427428)
(-0.302196 0.718848 0.543457)
(-0.293287 0.705408 0.418798)
(-0.314635 0.694053 0.443094)
(-0.254316 0.696933 0.400775)
(-0.282549 0.721153 0.37197)
(-0.353964 0.732725 0.41886)
(-0.395741 0.726739 0.432411)
(-0.39279 0.733912 0.449072)
(-0.34831 0.741104 0.405425)
(-0.366829 0.735662 0.382046)
(-0.361476 0.730336 0.370836)
(-0.371342 0.752192 0.410192)
(-0.358237 0.755036 0.433583)
(-0.350445 0.759484 0.367351)
(-0.248361 0.638059 0.351138)
(-0.253434 0.640019 0.368203)
(-0.238719 0.647815 0.427072)
(-0.254846 0.66203 0.44186)
(-0.232851 0.643404 0.431274)
(-0.24654 0.637924 0.395532)
(-0.227099 0.652136 0.443521)
(-0.247642 0.650321 0.428785)
(-0.230708 0.644002 0.428217)
(-0.232113 0.680412 0.418525)
(-0.232708 0.679853 0.405362)
(-0.233559 0.63964 0.376779)
(-0.259194 0.655516 0.422142)
(-0.235941 0.67638 0.374346)
(-0.262709 0.691743 0.401557)
(-0.229002 0.650765 0.411312)
(-0.245218 0.65882 0.414433)
(-0.243419 0.651687 0.419785)
(-0.223387 0.669952 0.41823)
(-0.214374 0.669665 0.430914)
(-0.254587 0.687913 0.408886)
(-0.663826 0.482838 0.495348)
(-0.651888 0.520621 0.469139)
(-0.66934 0.441714 0.553412)
(-0.599625 0.52372 0.486558)
(-0.618304 0.535567 0.510658)
(-0.487476 0.517032 0.554978)
(-0.476054 0.503648 0.599436)
(-0.61823 0.446498 0.629069)
(-0.641116 0.456206 0.549248)
(-0.639837 0.42058 0.595924)
(-0.576644 0.402713 0.602524)
(-0.547992 0.418108 0.608821)
(-0.522082 0.522963 0.556692)
(-0.588453 0.503518 0.574312)
(-0.524446 0.417974 0.634509)
(-0.52638 0.410808 0.624005)
(-0.521598 0.486346 0.618225)
(-0.529587 0.465055 0.663129)
(-0.549874 0.507913 0.589175)
(-0.52549 0.476966 0.667305)
(-0.533496 0.459617 0.656303)
(-0.395675 0.508641 0.392103)
(-0.279997 0.46163 0.283434)
(-0.2903 0.437701 0.30721)
(-0.408652 0.523448 0.401106)
(-0.295504 0.399838 0.240962)
(-0.313731 0.484434 0.346971)
(-0.25369 0.448378 0.272325)
(-0.423736 0.539202 0.416304)
(-0.318416 0.435726 0.280642)
(-0.355401 0.506594 0.350512)
(-0.283385 0.761573 0.500088)
(-0.2777 0.775705 0.514663)
(-0.264919 0.736663 0.503038)
(-0.252917 0.745966 0.481652)
(-0.297241 0.758287 0.491143)
(-0.293438 0.762032 0.485513)
(-0.299579 0.761966 0.489075)
(-0.293973 0.751353 0.497177)
(-0.270326 0.739342 0.494751)
(-0.287495 0.753958 0.492581)
(-0.271438 0.778139 0.479183)
(-0.274917 0.73427 0.506673)
(-0.285538 0.75429 0.505835)
(-0.35153 0.494198 0.367428)
(-0.383408 0.503246 0.338411)
(-0.281842 0.492243 0.353523)
(-0.287988 0.505144 0.396739)
(-0.367361 0.484636 0.332394)
(-0.414413 0.475656 0.33139)
(-0.271429 0.481421 0.281821)
(-0.305882 0.390348 0.217764)
(-0.351815 0.441146 0.211344)
(-0.441519 0.448862 0.169685)
(-0.32822 0.485821 0.222983)
(-0.29557 0.481535 0.366198)
(-0.285584 0.445989 0.254325)
(-0.258491 0.468247 0.282236)
(-0.35486 0.560016 0.533859)
(-0.437533 0.568749 0.631113)
(-0.424231 0.589049 0.609021)
(-0.391025 0.579691 0.579394)
(-0.425146 0.546823 0.6232)
(-0.454544 0.5833 0.662262)
(-0.393457 0.550406 0.56957)
(-0.404812 0.537524 0.545322)
(-0.391676 0.564092 0.585848)
(-0.478159 0.526231 0.631355)
(-0.437149 0.512039 0.590536)
(-0.525849 0.567502 0.469113)
(-0.513876 0.531562 0.553115)
(-0.408245 0.567311 0.480023)
(-0.392484 0.566674 0.548441)
(-0.472926 0.51761 0.57369)
(-0.453656 0.562227 0.605127)
(-0.393054 0.609053 0.605153)
(-0.415866 0.576343 0.607109)
(-0.407517 0.592463 0.604722)
(-0.392522 0.602149 0.585283)
(-0.395669 0.609956 0.601875)
(-0.38608 0.582918 0.536476)
(-0.426249 0.579727 0.591176)
(-0.383517 0.583667 0.525436)
(-0.363404 0.591949 0.54037)
(-0.369493 0.590642 0.513019)
(-0.388069 0.608218 0.590784)
(-0.393362 0.61526 0.61106)
(-0.40596 0.60665 0.61107)
(-0.413538 0.579698 0.598575)
(-0.360154 0.609683 0.573524)
(-0.386922 0.59737 0.565499)
(-0.406428 0.593532 0.540161)
(-0.412788 0.577695 0.559704)
(-0.431072 0.580927 0.586902)
(-0.45557 0.586718 0.601172)
(-0.361211 0.594674 0.562981)
(-0.328292 0.61348 0.525766)
(-0.371691 0.591597 0.561014)
(-0.330616 0.572192 0.510174)
(-0.341421 0.590713 0.543418)
(-0.363376 0.564058 0.496016)
(-0.330197 0.588984 0.503999)
(-0.357836 0.5922 0.553806)
(-0.337417 0.573944 0.502571)
(-0.30923 0.566586 0.421619)
(-0.336404 0.574268 0.412655)
(-0.313937 0.594766 0.486149)
(-0.243228 0.772635 0.520388)
(-0.240562 0.750052 0.510471)
(-0.265336 0.753001 0.550366)
(-0.259259 0.753161 0.532743)
(-0.229623 0.755511 0.490518)
(-0.24669 0.784683 0.495055)
(-0.249779 0.761746 0.536022)
(-0.244227 0.755083 0.522814)
(-0.219336 0.755093 0.501015)
(-0.223395 0.775824 0.474682)
(-0.2382 0.796467 0.486243)
(-0.203928 0.784776 0.485901)
(-0.238465 0.760173 0.511813)
(-0.24973 0.765357 0.532025)
(-0.215533 0.785564 0.497966)
(-0.222857 0.778249 0.517897)
(-0.231421 0.790398 0.491478)
(-0.271993 0.698969 0.489942)
(-0.266931 0.70582 0.492296)
(-0.226138 0.680434 0.497233)
(-0.240871 0.692999 0.493841)
(-0.178986 0.639244 0.456778)
(-0.191795 0.648058 0.4766)
(-0.172743 0.621039 0.446935)
(-0.187785 0.637913 0.478036)
(-0.190517 0.668844 0.472505)
(-0.174093 0.633034 0.445004)
(-0.262041 0.726582 0.479936)
(-0.257559 0.728273 0.473268)
(-0.167455 0.622711 0.44229)
(-0.183567 0.688419 0.449374)
(-0.169644 0.658933 0.431667)
(-0.203621 0.69893 0.454909)
(-0.217159 0.692058 0.487184)
(-0.189121 0.7055 0.448217)
(-0.1921 0.693815 0.451837)
(-0.232025 0.720052 0.47464)
(-0.340164 0.718639 0.4333)
(-0.338587 0.714503 0.428528)
(-0.334188 0.738118 0.430475)
(-0.326748 0.705488 0.394076)
(-0.303777 0.76986 0.424754)
(-0.304875 0.761851 0.422188)
(-0.333961 0.715217 0.429945)
(-0.300952 0.728513 0.386433)
(-0.300509 0.73543 0.401344)
(-0.327084 0.758505 0.434752)
(-0.297864 0.724901 0.417917)
(-0.31007 0.724426 0.417325)
(-0.309802 0.713637 0.411724)
(-0.298926 0.719726 0.422155)
(-0.301411 0.723809 0.414664)
(-0.300838 0.56749 0.408481)
(-0.282512 0.573707 0.420995)
(-0.281418 0.577594 0.408989)
(-0.327045 0.574213 0.372723)
(-0.285486 0.574987 0.421641)
(-0.271864 0.577038 0.439102)
(-0.390089 0.618034 0.345195)
(-0.391702 0.600656 0.324718)
(-0.32665 0.567223 0.369849)
(-0.278742 0.600705 0.407361)
(-0.328396 0.601702 0.365149)
(-0.365097 0.586276 0.35478)
(-0.36673 0.609857 0.366704)
(-0.368276 0.624456 0.371759)
(-0.366906 0.603287 0.349298)
(-0.308661 0.603468 0.40792)
(-0.348414 0.664121 0.279228)
(-0.302567 0.665739 0.262844)
(-0.454088 0.659345 0.276332)
(-0.462756 0.666794 0.270527)
(-0.457694 0.647298 0.288276)
(-0.48028 0.639218 0.286407)
(-0.330973 0.630457 0.270217)
(-0.340003 0.64512 0.255802)
(-0.306218 0.633517 0.265534)
(-0.326446 0.570653 0.257719)
(-0.403128 0.573783 0.266384)
(-0.400092 0.624222 0.284168)
(-0.430443 0.655696 0.268444)
(-0.445538 0.624278 0.291204)
(-0.373417 0.576696 0.310979)
(-0.368561 0.611052 0.24439)
(-0.418056 0.599984 0.272054)
(-0.388537 0.615693 0.293379)
(-0.362501 0.566402 0.304975)
(-0.288648 0.735004 0.346318)
(-0.228891 0.727096 0.359035)
(-0.21419 0.724211 0.377955)
(-0.21965 0.746314 0.414736)
(-0.227303 0.745441 0.462351)
(-0.232496 0.746775 0.455079)
(-0.244934 0.72092 0.412427)
(-0.240241 0.740198 0.458174)
(-0.252395 0.72832 0.456179)
(-0.243428 0.730282 0.424301)
(-0.299839 0.709545 0.30329)
(-0.245739 0.68686 0.303304)
(-0.210945 0.725526 0.313421)
(-0.195882 0.752703 0.323156)
(-0.238871 0.704836 0.295025)
(-0.28212 0.793749 0.289479)
(-0.24809 0.74845 0.310919)
(-0.222548 0.705494 0.309152)
(-0.194249 0.738892 0.343885)
(-0.218503 0.73793 0.332479)
(-0.201024 0.757004 0.318054)
(-0.217277 0.748057 0.338118)
(-0.286656 0.774324 0.422486)
(-0.329713 0.763228 0.451092)
(-0.304371 0.764242 0.422214)
(-0.331576 0.76078 0.43337)
(-0.289859 0.759617 0.401053)
(-0.307133 0.76247 0.426412)
(-0.293421 0.785973 0.435493)
(-0.277321 0.773331 0.421723)
(-0.272694 0.770236 0.404631)
(-0.28393 0.721383 0.419407)
(-0.257206 0.733671 0.410032)
(-0.274551 0.744646 0.415097)
(-0.271526 0.786269 0.428545)
(-0.269964 0.729928 0.413265)
(-0.240689 0.698382 0.391163)
(-0.298094 0.739051 0.419823)
(-0.262651 0.710787 0.414064)
(-0.259076 0.738748 0.423348)
(-0.262657 0.760027 0.438672)
(-0.276518 0.78711 0.438778)
(-0.262323 0.758933 0.425219)
(-0.257168 0.69473 0.351739)
(-0.229284 0.672131 0.34779)
(-0.236222 0.694806 0.361245)
(-0.25521 0.711157 0.362671)
(-0.230115 0.711163 0.397275)
(-0.222456 0.695094 0.392916)
(-0.223198 0.733479 0.447905)
(-0.215397 0.697413 0.415041)
(-0.266251 0.731116 0.403045)
(-0.291271 0.776885 0.440186)
(-0.379385 0.731077 0.404812)
(-0.39347 0.72056 0.410175)
(-0.373737 0.753938 0.473065)
(-0.387958 0.75741 0.455027)
(-0.24342 0.717068 0.395807)
(-0.240238 0.733041 0.458616)
(-0.261232 0.755778 0.49291)
(-0.270718 0.746354 0.388642)
(-0.368926 0.721332 0.399406)
(-0.362869 0.729285 0.387657)
(-0.349275 0.756273 0.472584)
(-0.265458 0.754406 0.448942)
(-0.373604 0.749836 0.461893)
(-0.333466 0.764954 0.436769)
(-0.376027 0.753146 0.46927)
(-0.344184 0.762531 0.47738)
(-0.273442 0.551918 0.601248)
(-0.264096 0.529568 0.603314)
(-0.300277 0.528101 0.597539)
(-0.286878 0.552431 0.632882)
(-0.327128 0.544485 0.636691)
(-0.313104 0.53453 0.618246)
(-0.318755 0.541032 0.624075)
(-0.29783 0.554174 0.602006)
(-0.272251 0.578507 0.611679)
(-0.27148 0.594834 0.59637)
(-0.340811 0.555801 0.631612)
(-0.341842 0.543967 0.635377)
(-0.327322 0.538901 0.621356)
(-0.303272 0.581671 0.591995)
(-0.29351 0.597188 0.590518)
(-0.336937 0.533742 0.61219)
(-0.341724 0.538497 0.599262)
(-0.337645 0.553035 0.619821)
(-0.337509 0.525587 0.575298)
(-0.352762 0.513819 0.551946)
(-0.316736 0.539641 0.578699)
(-0.322038 0.555568 0.569064)
(-0.340417 0.542234 0.567516)
(-0.326523 0.547441 0.591243)
(-0.336269 0.643025 0.54056)
(-0.348392 0.637177 0.547866)
(-0.357091 0.656489 0.5677)
(-0.381761 0.637408 0.597058)
(-0.406829 0.620546 0.598432)
(-0.443431 0.629004 0.492345)
(-0.422215 0.628712 0.488317)
(-0.485513 0.589785 0.596157)
(-0.456167 0.594383 0.597549)
(-0.406493 0.629052 0.594663)
(-0.398323 0.629552 0.556228)
(-0.384461 0.625932 0.593782)
(-0.445103 0.59734 0.57216)
(-0.472449 0.613518 0.529997)
(-0.430589 0.630223 0.516379)
(-0.220942 0.68116 0.482764)
(-0.211035 0.685275 0.481439)
(-0.162766 0.648157 0.462778)
(-0.165598 0.632263 0.468182)
(-0.198759 0.714679 0.463013)
(-0.163152 0.669822 0.455909)
(-0.161407 0.696994 0.454365)
(-0.214179 0.70503 0.475525)
(-0.202145 0.713509 0.469177)
(-0.137358 0.631194 0.445439)
(-0.14541 0.668582 0.43604)
(-0.1232 0.615067 0.418176)
(-0.150044 0.676034 0.448949)
(-0.186769 0.676469 0.463395)
(-0.152238 0.634328 0.448178)
(-0.138701 0.610762 0.428177)
(-0.234316 0.601194 0.502708)
(-0.241804 0.604628 0.504276)
(-0.18777 0.569159 0.478411)
(-0.184476 0.543653 0.470361)