/*--------------------------------*- C++ -*----------------------------------*\
| =========                 |                                                 |
| \\      /  F ield         | OpenFOAM: The Open Source CFD Toolbox           |
|  \\    /   O peration     | Version:  v1612+                                |
|   \\  /    A nd           | Web:      www.OpenFOAM.com                      |
|    \\/     M anipulation  |                                                 |
\*---------------------------------------------------------------------------*/
FoamFile
{
    version     2.0;
    format      ascii;
    class       volScalarField;
    location    "200";
    object      p;
}
// * * * * * * * * * * * * * * * * * * * * * * * * * * * * * * * * * * * * * //

dimensions      [0 2 -2 0 0 0 0];

internalField   nonuniform List<scalar> 
16801
(
0.320822
0.592423
0.587189
0.588259
0.594431
0.580745
0.59198
0.59024
0.590394
0.587367
0.590833
0.565394
0.560855
0.574014
0.560752
0.563502
0.587185
0.580939
0.593617
0.566442
0.56948
0.57406
0.504458
0.496908
0.511494
0.508972
0.501068
0.515866
0.516168
0.526238
0.516914
0.53164
0.531726
0.540631
0.55259
0.551119
0.558891
0.539332
0.547636
0.609727
0.601668
0.571469
0.575665
0.568996
0.585138
0.588533
0.602601
0.618937
0.571844
0.587135
0.604297
0.543794
0.539757
0.572416
0.583735
0.566114
0.584402
0.583137
0.571714
0.52311
0.551881
0.497955
0.504526
0.522638
0.516635
0.540722
0.493192
0.501145
0.499679
0.499638
0.500565
0.48716
0.48906
0.473533
0.517684
0.517326
0.50951
0.466894
0.473487
0.49294
0.481005
0.463488
0.469193
0.480398
0.49182
0.492186
0.488279
0.475438
0.461404
0.457188
0.444638
0.481238
0.476919
0.474108
0.463295
0.362761
0.334154
0.346626
0.333229
0.330901
0.328987
0.33112
0.311449
0.300308
0.335837
0.316162
0.328373
0.506762
0.511286
0.522002
0.524999
0.506855
0.505993
0.514045
0.517123
0.513619
0.521392
0.526501
0.508937
0.525803
0.544788
0.538734
0.533951
0.531057
0.568601
0.59969
0.528988
0.557415
0.565456
0.575038
0.566891
0.59523
0.589714
0.612403
0.607428
0.533706
0.575698
0.58647
0.60204
0.438389
0.434938
0.445779
0.454019
0.444666
0.436496
0.435142
0.472212
0.450695
0.427094
0.436059
0.461683
0.451639
0.452598
0.481395
0.460105
0.479078
0.436154
0.620727
0.631153
0.599964
0.588204
0.604702
0.629575
0.610028
0.596373
0.624525
0.634828
0.602443
0.55834
0.571069
0.570123
0.559509
0.644592
0.601853
0.574079
0.616168
0.607165
0.48943
0.504275
0.483395
0.48327
0.518634
0.516666
0.498809
0.475336
0.488838
0.472728
0.466436
0.492556
0.491348
0.511102
0.503455
0.509786
0.497361
0.499776
0.486302
0.639884
0.656829
0.659594
0.681448
0.620087
0.632841
0.670924
0.695601
0.658288
0.683727
0.68004
0.642575
0.663745
0.657751
0.668561
0.494354
0.486109
0.505678
0.50748
0.474014
0.510921
0.465562
0.473731
0.487445
0.46244
0.492178
0.440243
0.475719
0.506107
0.469608
0.467335
0.460346
0.450153
0.464564
0.483097
0.434322
0.465383
0.4997
0.511703
0.481688
0.470429
0.47068
0.431413
0.502034
0.465127
0.441867
0.447804
0.42852
0.470369
0.442671
0.486121
0.282309
0.295317
0.277126
0.273823
0.26526
0.262558
0.255688
0.264146
0.262213
0.254914
0.263472
0.245084
0.271393
0.247045
0.249224
0.253354
0.25288
0.59007
0.586356
0.612703
0.605098
0.630494
0.605262
0.583634
0.581852
0.633034
0.582185
0.587017
0.586489
0.597059
0.61298
0.627389
0.613593
0.624373
0.611284
0.624022
0.468669
0.478969
0.48183
0.492473
0.451172
0.459225
0.443878
0.436038
0.465319
0.448104
0.425201
0.451961
0.45357
0.463768
0.439
0.454095
0.437844
0.600028
0.617866
0.56405
0.530958
0.544899
0.613932
0.607945
0.621332
0.556316
0.548746
0.555964
0.596995
0.590141
0.617133
0.629355
0.614024
0.63991
0.599341
0.584446
0.575253
0.627924
0.609864
0.576359
0.627372
0.608311
0.618129
0.512542
0.505682
0.518552
0.506961
0.469184
0.47456
0.518546
0.482985
0.497983
0.472328
0.477503
0.448103
0.491787
0.483966
0.491509
0.315676
0.299683
0.273721
0.290088
0.256641
0.249675
0.267221
0.244787
0.234523
0.244408
0.25572
0.252588
0.231956
0.214944
0.235584
0.259969
0.238951
0.251796
0.241949
0.23052
0.20601
0.224435
0.531552
0.557185
0.51845
0.508563
0.509212
0.530108
0.535191
0.533096
0.552456
0.554298
0.560174
0.537024
0.540601
0.541267
0.518437
0.625764
0.616806
0.619
0.623726
0.630373
0.623691
0.62879
0.629575
0.627769
0.630983
0.629143
0.617982
0.632358
0.632158
0.630987
0.628295
0.426476
0.40943
0.409025
0.401842
0.368868
0.401302
0.384484
0.366805
0.396852
0.327179
0.311068
0.347871
0.415178
0.417209
0.336015
0.305858
0.32628
0.305821
0.348407
0.325259
0.376552
0.417655
0.446958
0.431626
0.434864
0.417885
0.402046
0.393162
0.402034
0.443211
0.424206
0.412144
0.409739
0.394333
0.401366
0.4001
0.397815
0.380865
0.395815
0.384529
0.408378
0.409066
0.408685
0.397249
0.387782
0.342529
0.358709
0.426048
0.419704
0.412563
0.400429
0.381289
0.372388
0.380882
0.367112
0.392076
0.41254
0.37221
0.381525
0.351354
0.360198
0.390804
0.558273
0.562894
0.560667
0.559266
0.587951
0.588431
0.575703
0.573637
0.573926
0.582938
0.572302
0.570082
0.585996
0.588308
0.578408
0.563275
0.58273
0.436634
0.456854
0.466397
0.437561
0.431816
0.434158
0.458064
0.446044
0.440378
0.420564
0.419981
0.442742
0.424449
0.362186
0.35559
0.364964
0.338054
0.353229
0.336965
0.319313
0.340368
0.364522
0.300399
0.341023
0.299308
0.311848
0.327046
0.304452
0.351084
0.301575
0.330517
0.615047
0.623673
0.610782
0.598842
0.588139
0.589069
0.593884
0.63417
0.627385
0.574952
0.623105
0.615232
0.637325
0.577634
0.600502
0.591048
0.605941
0.614508
0.634354
0.624143
0.531996
0.533588
0.489251
0.522704
0.562035
0.552569
0.490543
0.465202
0.485227
0.52989
0.534726
0.544369
0.486841
0.515255
0.535846
0.519244
0.520457
0.522026
0.573195
0.56556
0.521786
0.536758
0.544977
0.566969
0.526677
0.544608
0.556691
0.392384
0.381171
0.402348
0.405016
0.361386
0.36133
0.365104
0.394469
0.420855
0.427285
0.393398
0.360577
0.372611
0.347887
0.349135
0.34875
0.334164
0.333519
0.606771
0.585553
0.641384
0.658838
0.655482
0.640711
0.636489
0.622188
0.593774
0.576906
0.62513
0.592498
0.633864
0.657576
0.661977
0.620541
0.59386
0.606299
0.246247
0.260805
0.257004
0.252779
0.245199
0.259547
0.251325
0.249181
0.246852
0.245162
0.248382
0.248481
0.247829
0.498304
0.47186
0.468915
0.461262
0.471272
0.420498
0.430939
0.389756
0.372382
0.41913
0.388906
0.403346
0.396699
0.462956
0.412194
0.423673
0.42753
0.424077
0.395233
0.391185
0.37316
0.374352
0.399801
0.376314
0.37811
0.4288
0.421234
0.440013
0.449837
0.43839
0.410107
0.445499
0.433545
0.401743
0.407278
0.459439
0.390479
0.41973
0.427551
0.374818
0.400094
0.319021
0.302186
0.309207
0.30922
0.672595
0.675672
0.662698
0.647574
0.643228
0.66779
0.667304
0.660504
0.677763
0.644079
0.651638
0.638383
0.622246
0.622119
0.658341
0.657713
0.648889
0.630228
0.66014
0.667533
0.519076
0.509832
0.524105
0.538009
0.510545
0.50284
0.520805
0.517307
0.516149
0.538925
0.513804
0.518321
0.519478
0.5238
0.51065
0.501588
0.516386
0.521117
0.521483
0.512156
0.496602
0.493375
0.46114
0.479445
0.458474
0.467682
0.438366
0.422373
0.429393
0.451662
0.457571
0.456681
0.427672
0.417995
0.43722
0.433178
0.441001
0.464747
0.445285
0.460012
0.416141
0.404762
0.442626
0.425756
0.637875
0.634645
0.636584
0.637807
0.636498
0.633642
0.63663
0.642678
0.627798
0.632328
0.621708
0.622985
0.629083
0.624947
0.409739
0.391072
0.403957
0.429678
0.393917
0.418653
0.416494
0.383908
0.385358
0.38673
0.386107
0.433717
0.450152
0.415699
0.424884
0.39548
0.416747
0.448994
0.449007
0.440082
0.429139
0.42423
0.453462
0.448016
0.287583
0.281675
0.282094
0.273065
0.30935
0.303537
0.287076
0.274368
0.261137
0.339854
0.307695
0.308218
0.319325
0.291414
0.303573
0.322469
0.307242
0.328624
0.287744
0.27984
0.315886
0.294546
0.445508
0.430457
0.430786
0.47267
0.392047
0.419073
0.467006
0.449116
0.427176
0.433065
0.44195
0.41706
0.406176
0.402094
0.413098
0.406652
0.609044
0.601376
0.623668
0.616712
0.620732
0.620877
0.602724
0.602286
0.611303
0.625813
0.615522
0.607596
0.6043
0.615515
0.617398
0.619395
0.614336
0.623249
0.622876
0.618995
0.571791
0.556598
0.537582
0.546802
0.547277
0.574223
0.554364
0.560409
0.580816
0.517111
0.530128
0.527769
0.526029
0.517462
0.489971
0.507142
0.491397
0.478263
0.466568
0.403949
0.377637
0.371523
0.41075
0.393763
0.416502
0.408295
0.417446
0.423427
0.414115
0.426804
0.448839
0.402677
0.430458
0.446508
0.482306
0.483011
0.40944
0.431749
0.45884
0.486691
0.440335
0.442614
0.439926
0.470044
0.467585
0.474834
0.449713
0.609537
0.620451
0.594338
0.58352
0.606194
0.591138
0.59699
0.613471
0.610736
0.61836
0.600458
0.605153
0.459339
0.451345
0.402292
0.40271
0.399373
0.407821
0.48366
0.474037
0.46106
0.447936
0.466059
0.385546
0.457875
0.407841
0.424816
0.397082
0.498125
0.471063
0.442263
0.442857
0.472812
0.550366
0.538898
0.561126
0.567264
0.538914
0.523515
0.583166
0.566175
0.572656
0.591451
0.549724
0.583423
0.584493
0.589974
0.589608
0.580229
0.562213
0.554645
0.548756
0.596413
0.540157
0.606025
0.614364
0.591806
0.585696
0.595977
0.618068
0.625797
0.62717
0.622839
0.576893
0.613794
0.602308
0.570132
0.587979
0.264407
0.256427
0.258149
0.250077
0.274429
0.25979
0.266923
0.262362
0.267556
0.278216
0.264626
0.262483
0.293137
0.293079
0.250344
0.257626
0.253217
0.391425
0.366505
0.417065
0.451523
0.42971
0.416972
0.440235
0.427451
0.363324
0.417265
0.445567
0.445892
0.388432
0.430765
0.429468
0.403455
0.41237
0.427571
0.445957
0.45226
0.591503
0.595522
0.592652
0.347245
0.348426
0.573746
0.582477
0.581422
0.583976
0.42268
0.432402
0.449452
0.611677
0.607752
0.342715
0.322797
0.33474
0.470942
0.474866
0.614
0.608294
0.610964
0.548243
0.544182
0.535604
0.312164
0.301247
0.292676
0.59142
0.589775
0.438886
0.43742
0.420569
0.324045
0.310812
0.294168
0.30126
0.337238
0.251041
0.251244
0.250949
0.271601
0.303085
0.622076
0.623319
0.607088
0.606484
0.380312
0.371784
0.355621
0.341457
0.333806
0.320038
0.542507
0.536506
0.526786
0.222849
0.216256
0.22163
0.219128
0.631986
0.631484
0.646375
0.641848
0.645515
0.22869
0.236895
0.248064
0.549394
0.554834
0.48186
0.474405
0.505142
0.518055
0.548688
0.572162
0.566029
0.631675
0.632132
0.191942
0.213181
0.193773
0.650393
0.645512
0.427732
0.388608
0.41799
0.2233
0.219863
0.206807
0.221555
0.223922
0.250351
0.4213
0.431141
0.405111
0.678396
0.68176
0.611366
0.613847
0.594552
0.205369
0.214888
0.636867
0.639444
0.428621
0.440838
0.690181
0.692275
0.533643
0.517498
0.354626
0.315814
0.33143
0.338586
0.283582
0.272331
0.273235
0.619624
0.631068
0.548038
0.55183
0.543953
0.524063
0.557978
0.56056
0.565544
0.617383
0.62233
0.60749
0.618597
0.599085
0.690136
0.691484
0.698424
0.677461
0.245785
0.245434
0.240178
0.496527
0.512706
0.507652
0.342988
0.344195
0.387643
0.401683
0.487488
0.477527
0.482709
0.255573
0.256007
0.250133
0.251648
0.473243
0.470978
0.462602
0.473701
0.467574
0.446571
0.46048
0.456439
0.258019
0.264076
0.261009
0.268061
0.266635
0.261931
0.35084
0.268657
0.260999
0.260004
0.266912
0.438943
0.432277
0.432187
0.435059
0.289843
0.289982
0.299432
0.281705
0.403026
0.400036
0.392694
0.369263
0.325954
0.323682
0.312807
0.335863
0.350986
0.300729
0.300222
0.291859
0.257334
0.256371
0.258023
0.255283
0.257341
0.254595
0.253956
0.255135
0.254957
0.251189
0.260626
0.261489
0.261526
0.259729
0.261369
0.263088
0.448969
0.44583
0.446492
0.446953
0.437924
0.423601
0.425687
0.410186
0.252733
0.252153
0.249417
0.257501
0.258246
0.257481
0.26245
0.261847
0.262991
0.256211
0.258009
0.263606
0.2642
0.275211
0.265304
0.270712
0.26323
0.4765
0.4767
0.470711
0.465235
0.490362
0.473229
0.479607
0.493914
0.494473
0.453505
0.439968
0.432119
0.405425
0.459541
0.469716
0.468654
0.452481
0.429066
0.456807
0.43571
0.459744
0.456737
0.448273
0.469072
0.463397
0.451607
0.467728
0.468612
0.458895
0.497381
0.49406
0.479598
0.4563
0.452068
0.452471
0.482112
0.478056
0.478432
0.485597
0.497364
0.480323
0.46039
0.453213
0.4321
0.438233
0.444533
0.449228
0.455368
0.433056
0.439634
0.451819
0.435251
0.519935
0.489687
0.494685
0.531535
0.507192
0.239907
0.237371
0.23336
0.253101
0.263328
0.261045
0.24892
0.248198
0.246586
0.244059
0.246236
0.252663
0.451857
0.446302
0.466104
0.543746
0.514365
0.514071
0.482818
0.493463
0.4762
0.514314
0.476644
0.506464
0.520431
0.490544
0.485873
0.494521
0.471419
0.493641
0.474728
0.476361
0.47824
0.315128
0.310049
0.327062
0.319873
0.344282
0.365865
0.407798
0.425563
0.386523
0.392021
0.412722
0.425655
0.415745
0.383983
0.399991
0.36564
0.354368
0.319225
0.301036
0.320224
0.325263
0.332503
0.410455
0.399024
0.407578
0.407907
0.419227
0.439712
0.402282
0.368931
0.318289
0.31779
0.308767
0.296596
0.54664
0.532011
0.528973
0.508701
0.520094
0.524377
0.525603
0.530995
0.524742
0.486352
0.487027
0.476114
0.478334
0.47246
0.502215
0.486814
0.470695
0.464161
0.471363
0.496828
0.498046
0.498229
0.496842
0.486776
0.475652
0.505685
0.51669
0.505173
0.52069
0.238172
0.243002
0.249408
0.239484
0.236406
0.241769
0.245746
0.242894
0.253544
0.250335
0.251428
0.249408
0.253972
0.25157
0.252223
0.652599
0.658052
0.674056
0.632075
0.637317
0.649265
0.637549
0.659801
0.665393
0.664947
0.697443
0.697213
0.704292
0.684094
0.657116
0.680605
0.662038
0.65768
0.683438
0.685384
0.663804
0.672794
0.660094
0.701674
0.67869
0.680368
0.666084
0.642294
0.648551
0.706574
0.706592
0.705437
0.686853
0.70099
0.677685
0.688393
0.709627
0.702276
0.683498
0.700995
0.685588
0.565791
0.567326
0.557649
0.571363
0.547484
0.545942
0.586681
0.577861
0.58543
0.611372
0.62913
0.599346
0.516233
0.569131
0.567176
0.538287
0.525641
0.585378
0.637563
0.620085
0.63334
0.619621
0.591984
0.626353
0.630102
0.617169
0.600868
0.599362
0.597293
0.532623
0.534984
0.605456
0.614772
0.598627
0.612282
0.604137
0.636034
0.630551
0.641185
0.631935
0.607761
0.601688
0.607296
0.596612
0.612629
0.606363
0.600357
0.625781
0.624044
0.617688
0.620564
0.614
0.632009
0.572966
0.604154
0.586576
0.584695
0.588813
0.605186
0.621832
0.633204
0.628245
0.628688
0.624022
0.632334
0.625665
0.628466
0.622579
0.619948
0.628933
0.56436
0.578122
0.579177
0.564356
0.543442
0.506702
0.498408
0.51296
0.482885
0.441109
0.53738
0.532544
0.529028
0.540726
0.514436
0.534969
0.53003
0.52947
0.537663
0.525864
0.523318
0.595112
0.572711
0.55473
0.566742
0.568593
0.563647
0.551981
0.556007
0.556925
0.546874
0.524423
0.522659
0.523616
0.513923
0.533405
0.484288
0.513927
0.499255
0.484461
0.470819
0.441051
0.628648
0.614017
0.612671
0.601245
0.641873
0.646641
0.642181
0.612621
0.631511
0.621618
0.225039
0.213814
0.21128
0.286799
0.320324
0.285182
0.307916
0.342752
0.302955
0.278887
0.255535
0.252129
0.266195
0.230415
0.23253
0.246668
0.25479
0.254115
0.249523
0.246961
0.237718
0.236999
0.262474
0.265598
0.256073
0.277369
0.279445
0.272302
0.274514
0.258419
0.260923
0.283248
0.268317
0.338424
0.344654
0.336185
0.356579
0.330862
0.317402
0.323886
0.321227
0.305917
0.322602
0.343988
0.378086
0.33924
0.363276
0.338287
0.489179
0.46374
0.448024
0.439294
0.393825
0.410968
0.416734
0.474885
0.49579
0.481919
0.51819
0.520346
0.494249
0.467387
0.449112
0.421505
0.469936
0.478877
0.406332
0.404838
0.558264
0.530678
0.52776
0.576422
0.588343
0.550453
0.559441
0.59311
0.604606
0.60366
0.574478
0.545553
0.58268
0.584639
0.666972
0.667464
0.662096
0.661425
0.624399
0.635622
0.700914
0.690029
0.706463
0.67084
0.675762
0.673642
0.666907
0.694991
0.694783
0.688588
0.659458
0.692466
0.685256
0.690943
0.69141
0.652022
0.651606
0.668608
0.668831
0.659998
0.655765
0.668426
0.653029
0.642911
0.657859
0.69959
0.673429
0.705163
0.673844
0.676542
0.700638
0.681933
0.687453
0.661871
0.696038
0.682906
0.702985
0.670261
0.689015
0.69954
0.674791
0.292076
0.268324
0.267073
0.307783
0.403451
0.421253
0.418819
0.381352
0.363209
0.338371
0.424241
0.446467
0.438681
0.446525
0.442724
0.415259
0.411594
0.417596
0.391767
0.35612
0.373802
0.405804
0.390933
0.329657
0.345533
0.359144
0.369493
0.382686
0.391902
0.407929
0.383799
0.502864
0.519344
0.481538
0.457822
0.498015
0.502246
0.511132
0.515951
0.458331
0.485389
0.645977
0.64784
0.641436
0.641173
0.638135
0.645824
0.642521
0.648343
0.64723
0.642454
0.638715
0.632788
0.644146
0.644964
0.639209
0.642976
0.63459
0.635199
0.629604
0.641814
0.641135
0.635652
0.639207
0.630017
0.637771
0.634218
0.631887
0.631456
0.656157
0.623329
0.634728
0.651629
0.64763
0.63169
0.622544
0.648818
0.643155
0.636373
0.651276
0.627678
0.631551
0.637606
0.630077
0.234386
0.21793
0.205652
0.233748
0.230604
0.241907
0.225497
0.238166
0.220158
0.236423
0.217092
0.237891
0.55764
0.571171
0.573186
0.541061
0.554408
0.572839
0.569682
0.565307
0.578665
0.574109
0.58087
0.561834
0.554893
0.573991
0.562115
0.561612
0.538436
0.611117
0.611483
0.605775
0.60537
0.584959
0.597984
0.582074
0.565806
0.582259
0.639583
0.641208
0.634239
0.625172
0.640493
0.643962
0.658567
0.665996
0.665299
0.650372
0.646496
0.651247
0.670834
0.664542
0.677387
0.313579
0.317966
0.341569
0.364977
0.384024
0.376342
0.381306
0.378718
0.395448
0.417786
0.408778
0.402535
0.486397
0.491902
0.492853
0.512989
0.537523
0.526343
0.466373
0.459602
0.499244
0.495867
0.48298
0.460383
0.476738
0.512603
0.499092
0.25301
0.258879
0.213846
0.239242
0.182726
0.226565
0.206004
0.219345
0.207166
0.222877
0.27371
0.282309
0.283349
0.272881
0.415626
0.397577
0.432035
0.4241
0.503799
0.515124
0.514856
0.537069
0.483988
0.469
0.441191
0.333147
0.348893
0.332678
0.409823
0.380595
0.353083
0.379199
0.319384
0.306119
0.379545
0.364375
0.387253
0.338731
0.34775
0.374422
0.344817
0.640264
0.640269
0.633389
0.631071
0.63183
0.629211
0.631407
0.654864
0.644938
0.655515
0.639607
0.640802
0.629425
0.632837
0.628471
0.625505
0.622303
0.64204
0.636003
0.633316
0.642756
0.638105
0.644075
0.658817
0.660648
0.649559
0.656358
0.65687
0.647221
0.651015
0.641508
0.631213
0.629609
0.633085
0.627828
0.639563
0.634073
0.648992
0.65077
0.637533
0.261609
0.197372
0.207828
0.186249
0.237358
0.262927
0.208743
0.233623
0.208202
0.225562
0.613732
0.612681
0.600372
0.606448
0.58017
0.597196
0.608268
0.601935
0.600708
0.600218
0.596043
0.598132
0.577645
0.598137
0.601206
0.604951
0.613034
0.638478
0.640217
0.636041
0.633605
0.631039
0.631377
0.636919
0.636076
0.635236
0.616428
0.621903
0.624589
0.612873
0.627702
0.62366
0.513737
0.51027
0.510022
0.525947
0.535788
0.435116
0.48917
0.492905
0.483986
0.601099
0.608647
0.591794
0.571975
0.570755
0.556016
0.545483
0.568616
0.49042
0.505704
0.490969
0.480236
0.403455
0.416321
0.387506
0.383583
0.419783
0.407878
0.564488
0.555366
0.551469
0.466838
0.443624
0.475278
0.470261
0.487015
0.598445
0.5961
0.595491
0.582105
0.558495
0.55688
0.576907
0.564319
0.586412
0.57625
0.605277
0.589806
0.60042
0.58575
0.584395
0.562538
0.279151
0.219164
0.240285
0.220978
0.293911
0.214929
0.253672
0.643981
0.645542
0.646301
0.638149
0.634647
0.631405
0.633677
0.626458
0.63037
0.653424
0.639277
0.652615
0.652244
0.657633
0.63962
0.645153
0.630905
0.641122
0.636182
0.645759
0.638929
0.61823
0.61636
0.615218
0.62255
0.618353
0.621971
0.618186
0.614545
0.621522
0.626111
0.365678
0.316585
0.310706
0.28878
0.266942
0.29507
0.266354
0.308509
0.2456
0.263539
0.285589
0.235836
0.259111
0.338638
0.243349
0.25661
0.300873
0.249746
0.28137
0.240249
0.33504
0.254849
0.278916
0.302003
0.563541
0.548916
0.573403
0.581123
0.578837
0.298197
0.320741
0.309329
0.337952
0.334103
0.363825
0.366767
0.360379
0.363503
0.365324
0.377677
0.407248
0.614319
0.616934
0.61233
0.603198
0.611082
0.613785
0.615683
0.612273
0.613711
0.613541
0.629682
0.630692
0.632455
0.62588
0.626845
0.622674
0.624952
0.623401
0.626766
0.622945
0.619578
0.621367
0.618321
0.614517
0.618263
0.618454
0.31571
0.337212
0.290852
0.333547
0.302677
0.293109
0.298494
0.296161
0.273729
0.246924
0.302116
0.297241
0.34491
0.2673
0.241969
0.274374
0.305508
0.263729
0.280963
0.299758
0.304528
0.32172
0.331674
0.378966
0.382451
0.361396
0.368675
0.367341
0.384127
0.4942
0.503935
0.480214
0.47018
0.480411
0.570696
0.579187
0.579177
0.576233
0.577886
0.602058
0.604558
0.595165
0.581294
0.599663
0.600682
0.599454
0.587005
0.581363
0.583841
0.598589
0.590555
0.606955
0.603899
0.60572
0.35626
0.35381
0.347493
0.339243
0.347364
0.547412
0.550925
0.54715
0.544345
0.582444
0.599241
0.593606
0.606923
0.602972
0.590383
0.595195
0.604261
0.583783
0.599682
0.599499
0.597378
0.609791
0.619003
0.619696
0.614042
0.59037
0.270789
0.301622
0.322816
0.269447
0.36756
0.287573
0.305954
0.279019
0.329812
0.291957
0.317295
0.346135
0.278398
0.603584
0.601807
0.600153
0.597702
0.596081
0.604749
0.616916
0.619389
0.615788
0.611223
0.608147
0.620677
0.607667
0.495201
0.506802
0.489149
0.410671
0.396163
0.418693
0.424003
0.604174
0.601569
0.60255
0.604929
0.603666
0.600481
0.599655
0.578571
0.581804
0.57126
0.573951
0.570822
0.574115
0.572134
0.551409
0.563368
0.56196
0.56404
0.567187
0.554658
0.560851
0.5726
0.569766
0.582938
0.581737
0.448
0.457018
0.470263
0.365361
0.326616
0.359729
0.329524
0.373307
0.327905
0.353204
0.32056
0.326059
0.351857
0.354162
0.60338
0.59906
0.497521
0.496816
0.487754
0.488574
0.504119
0.537145
0.528277
0.508781
0.512101
0.520726
0.518819
0.540714
0.537735
0.516861
0.517579
0.508282
0.496923
0.528304
0.523851
0.519628
0.530049
0.53817
0.578632
0.576334
0.574242
0.601167
0.601079
0.602106
0.601907
0.60128
0.600044
0.566885
0.560138
0.563084
0.565001
0.57018
0.570705
0.446363
0.454669
0.43692
0.485505
0.449605
0.455379
0.468416
0.473461
0.486594
0.618473
0.625911
0.622908
0.619671
0.620856
0.61734
0.606557
0.625015
0.609548
0.63088
0.618782
0.619395
0.616053
0.608137
0.617724
0.594404
0.607837
0.600502
0.604432
0.597651
0.594645
0.599977
0.600585
0.603061
0.606561
0.505836
0.520105
0.499961
0.52871
0.532643
0.618799
0.618451
0.618911
0.617174
0.611843
0.616194
0.614227
0.609044
0.614321
0.614447
0.599723
0.604259
0.609471
0.607832
0.605064
0.604799
0.596066
0.601677
0.605548
0.60535
0.605938
0.600412
0.602709
0.616295
0.604955
0.605566
0.605932
0.603825
0.615581
0.619057
0.616473
0.612324
0.617532
0.611885
0.615082
0.593886
0.592164
0.592345
0.596317
0.598595
0.603268
0.583554
0.545346
0.542105
0.539361
0.54707
0.550914
0.55696
0.283713
0.262863
0.337187
0.277327
0.239646
0.269512
0.260887
0.291632
0.635104
0.617951
0.638516
0.635159
0.63851
0.620413
0.636254
0.638303
0.625553
0.640876
0.643713
0.632692
0.644728
0.658923
0.641973
0.660415
0.646936
0.636674
0.651382
0.642337
0.665633
0.650527
0.644068
0.630487
0.648825
0.63323
0.645954
0.631787
0.63147
0.640038
0.634302
0.539981
0.558108
0.561158
0.567623
0.582671
0.55838
0.567981
0.553535
0.527289
0.511335
0.478585
0.516081
0.49388
0.544758
0.530538
0.483081
0.494771
0.523573
0.530745
0.626276
0.584561
0.622411
0.616116
0.626197
0.619543
0.603522
0.580429
0.566941
0.601917
0.582587
0.568688
0.518616
0.540229
0.580833
0.557141
0.558426
0.58694
0.601158
0.240755
0.19646
0.240119
0.224717
0.227486
0.256674
0.260168
0.207886
0.229929
0.207859
0.233584
0.237395
0.242915
0.385481
0.386221
0.369471
0.38517
0.351481
0.271926
0.284437
0.307921
0.345784
0.301968
0.314499
0.29933
0.524096
0.521198
0.514039
0.532006
0.547641
0.500715
0.339375
0.328424
0.31766
0.310268
0.313031
0.340727
0.378416
0.344046
0.299437
0.341126
0.683732
0.686042
0.67092
0.69224
0.67464
0.679193
0.666884
0.68028
0.675441
0.666816
0.678795
0.66157
0.650737
0.649613
0.662666
0.656098
0.66594
0.674579
0.65684
0.643916
0.638668
0.642747
0.605113
0.626553
0.636404
0.634104
0.634516
0.677903
0.658368
0.674264
0.652281
0.668255
0.660572
0.647463
0.642976
0.664153
0.666053
0.538773
0.5557
0.579663
0.556425
0.555967
0.549153
0.540933
0.508618
0.227953
0.228339
0.236512
0.233533
0.231041
0.237842
0.664859
0.674608
0.66073
0.647976
0.670674
0.674754
0.64766
0.641138
0.655789
0.62984
0.642998
0.658034
0.668087
0.644795
0.630664
0.626459
0.637359
0.626124
0.625141
0.633681
0.62835
0.632723
0.630492
0.643007
0.642084
0.643183
0.63104
0.63895
0.640336
0.638969
0.636174
0.640218
0.291951
0.274154
0.289878
0.283426
0.251157
0.267374
0.285419
0.343779
0.295272
0.332737
0.354455
0.383639
0.325402
0.338356
0.324679
0.409636
0.410934
0.339006
0.36689
0.332436
0.35486
0.310088
0.30026
0.705891
0.690827
0.682929
0.708649
0.713041
0.688848
0.694822
0.689661
0.678966
0.670547
0.696452
0.697792
0.70186
0.679592
0.682136
0.675863
0.6974
0.657266
0.651952
0.676161
0.667499
0.694097
0.684675
0.588289
0.628857
0.613846
0.610412
0.594299
0.5772
0.62966
0.620447
0.681728
0.652334
0.670229
0.681641
0.67057
0.660448
0.675273
0.67666
0.666464
0.670295
0.656119
0.446924
0.438605
0.497748
0.480492
0.462098
0.478788
0.511811
0.486166
0.510445
0.549606
0.536739
0.546539
0.495632
0.560684
0.515489
0.532168
0.511655
0.275135
0.273188
0.306409
0.327541
0.282779
0.318106
0.325461
0.308854
0.317356
0.32318
0.372486
0.325394
0.334652
0.66577
0.635892
0.652194
0.648792
0.622827
0.633436
0.613316
0.468705
0.432682
0.48692
0.480442
0.49453
0.463065
0.477168
0.580587
0.585173
0.577449
0.555994
0.55057
0.5753
0.560752
0.563671
0.560461
0.589796
0.593841
0.579002
0.589418
0.596645
0.596644
0.578368
0.573203
0.580055
0.582004
0.584671
0.579394
0.54432
0.512648
0.556057
0.532748
0.550017
0.523607
0.50476
0.554244
0.601963
0.6054
0.564698
0.607877
0.597949
0.577634
0.587277
0.589649
0.504454
0.516568
0.526934
0.498742
0.522228
0.517583
0.50817
0.490622
0.484511
0.481756
0.451014
0.470442
0.453862
0.625905
0.639936
0.63258
0.622352
0.625042
0.63572
0.620953
0.623438
0.634061
0.632488
0.558751
0.58811
0.536095
0.596433
0.577884
0.58776
0.579515
0.584712
0.581732
0.559368
0.552454
0.607115
0.602897
0.623485
0.638323
0.618565
0.61736
0.647794
0.636972
0.631193
0.620433
0.624693
0.639387
0.640905
0.639903
0.632265
0.645236
0.635333
0.633096
0.638831
0.636539
0.638853
0.634309
0.629171
0.600688
0.609913
0.615868
0.614772
0.607373
0.609805
0.596604
0.597453
0.607879
0.604051
0.601716
0.585594
0.572987
0.591055
0.590564
0.583741
0.570351
0.558771
0.581339
0.578941
0.672824
0.689157
0.670503
0.562304
0.595556
0.573183
0.615139
0.607044
0.61317
0.580931
0.59788
0.641065
0.62535
0.644712
0.618852
0.504884
0.509365
0.494152
0.537069
0.529298
0.578517
0.553345
0.533035
0.523233
0.537743
0.562924
0.637072
0.620823
0.645791
0.659782
0.591706
0.630469
0.607876
0.53844
0.548889
0.561728
0.539173
0.530911
0.50057
0.514882
0.506852
0.550348
0.541154
0.520443
0.558086
0.543782
0.534832
0.668352
0.692739
0.691322
0.679039
0.673966
0.662374
0.656562
0.680342
0.664825
0.702913
0.686659
0.690969
0.674924
0.684637
0.690141
0.702154
0.684659
0.706455
0.67322
0.669985
0.669622
0.670948
0.68499
0.671912
0.685572
0.659839
0.662421
0.66244
0.660994
0.67676
0.67032
0.689368
0.663878
0.670425
0.663699
0.694079
0.674901
0.66953
0.657434
0.67636
0.674998
0.639563
0.648073
0.636294
0.65904
0.658626
0.536696
0.532338
0.539734
0.543928
0.553278
0.546533
0.543107
0.53777
0.533206
0.511942
0.542587
0.54449
0.413797
0.395294
0.402148
0.386797
0.377851
0.358314
0.360611
0.374662
0.350171
0.380408
0.392444
0.377977
0.36878
0.366759
0.363821
0.375299
0.383202
0.316314
0.325077
0.359213
0.340061
0.333457
0.374422
0.333075
0.361273
0.340722
0.322367
0.317587
0.362451
0.36916
0.364114
0.406999
0.401981
0.369842
0.372598
0.386233
0.431345
0.420019
0.402679
0.421418
0.344804
0.349992
0.350762
0.346022
0.405435
0.393036
0.461948
0.448709
0.465827
0.451195
0.447635
0.455214
0.439631
0.452919
0.433634
0.441704
0.449842
0.448123
0.423356
0.434039
0.432486
0.452249
0.448841
0.451996
0.458938
0.4535
0.477646
0.412664
0.26359
0.262074
0.264199
0.27361
0.267448
0.263106
0.260772
0.282722
0.263923
0.260699
0.465837
0.460999
0.461167
0.456493
0.442608
0.260947
0.255056
0.257644
0.253237
0.262448
0.262628
0.251761
0.264656
0.277196
0.34066
0.325055
0.326469
0.344221
0.31953
0.371382
0.351791
0.364391
0.325843
0.311617
0.333152
0.329261
0.251965
0.260753
0.260669
0.259436
0.251689
0.288615
0.2877
0.280057
0.297054
0.302819
0.284611
0.27741
0.267047
0.263988
0.26002
0.258053
0.251595
0.256852
0.261636
0.25629
0.259115
0.26268
0.2642
0.262484
0.260112
0.259832
0.301816
0.270272
0.271037
0.273161
0.265022
0.259484
0.264956
0.270045
0.264592
0.684369
0.659536
0.694574
0.664891
0.661463
0.672688
0.697486
0.679754
0.688106
0.683647
0.681302
0.670104
0.621324
0.648295
0.628467
0.671573
0.656296
0.672705
0.642988
0.651245
0.621978
0.596841
0.57312
0.580895
0.598181
0.595877
0.61068
0.602394
0.606404
0.588473
0.590872
0.588155
0.605465
0.644785
0.626013
0.619588
0.664854
0.639101
0.648465
0.590851
0.604461
0.665539
0.640019
0.658388
0.64222
0.642914
0.493296
0.461283
0.472413
0.427863
0.401115
0.409497
0.437646
0.433409
0.453468
0.666683
0.674378
0.674953
0.672083
0.679891
0.668815
0.685984
0.675695
0.695968
0.680928
0.623474
0.634214
0.631707
0.637616
0.643131
0.636996
0.640519
0.640737
0.635716
0.631031
0.634559
0.62909
0.630611
0.64016
0.628536
0.658581
0.643512
0.661309
0.648353
0.649832
0.646654
0.660595
0.652372
0.221149
0.22443
0.204625
0.263312
0.237398
0.277065
0.306247
0.261593
0.297662
0.217765
0.253824
0.550888
0.545061
0.55666
0.547769
0.554981
0.562637
0.548987
0.530911
0.532941
0.522264
0.517396
0.527302
0.520054
0.481132
0.500596
0.452922
0.404334
0.469145
0.433661
0.4495
0.472477
0.418757
0.413927
0.42168
0.391999
0.444661
0.438901
0.620986
0.612704
0.649538
0.652259
0.631395
0.650618
0.637689
0.632375
0.617946
0.612843
0.623719
0.66629
0.652833
0.635245
0.617752
0.624861
0.606889
0.614923
0.624401
0.61583
0.608407
0.62384
0.582728
0.5934
0.609676
0.590752
0.625713
0.64311
0.633467
0.630628
0.628148
0.649951
0.652863
0.637999
0.628206
0.632954
0.646984
0.249789
0.249798
0.245709
0.242917
0.243607
0.244207
0.258009
0.248379
0.245918
0.247059
0.245448
0.594796
0.609404
0.559179
0.596332
0.57359
0.583726
0.606809
0.603058
0.584292
0.580136
0.597079
0.552819
0.555294
0.452535
0.429129
0.409686
0.430773
0.436096
0.414136
0.424731
0.445153
0.443992
0.446876
0.495142
0.461631
0.459059
0.469519
0.263398
0.263666
0.26392
0.263509
0.25904
0.26499
0.265267
0.260998
0.252426
0.249906
0.253648
0.25541
0.253161
0.2533
0.25461
0.272786
0.272705
0.262529
0.28022
0.267749
0.270364
0.274331
0.447835
0.411835
0.419007
0.445973
0.415632
0.454725
0.445809
0.485863
0.477805
0.447735
0.447131
0.442912
0.479779
0.482056
0.467084
0.459654
0.460228
0.411345