/*--------------------------------*- C++ -*----------------------------------*\
| =========                 |                                                 |
| \\      /  F ield         | OpenFOAM: The Open Source CFD Toolbox           |
|  \\    /   O peration     | Version:  v1612+                                |
|   \\  /    A nd           | Web:      www.OpenFOAM.com                      |
|    \\/     M anipulation  |                                                 |
\*---------------------------------------------------------------------------*/
FoamFile
{
    version     2.0;
    format      ascii;
    class       volVectorField;
    location    "200";
    object      U;
}
// * * * * * * * * * * * * * * * * * * * * * * * * * * * * * * * * * * * * * //

dimensions      [0 1 -1 0 0 0 0];

internalField   nonuniform List<vector> 
16801
(
(1.01599 0.435594 -0.617391)
(0.209311 0.101311 0.0265952)
(0.262598 0.10508 -0.0145722)
(0.315536 0.114517 -0.0819032)
(0.257066 0.0861572 -0.01742)
(0.225906 0.148927 0.0295397)
(0.237195 0.0952027 0.00236778)
(0.172736 0.139664 0.0228868)
(0.184877 0.100763 0.0210887)
(0.215277 0.156883 -0.0150069)
(0.191393 0.138684 -0.00251024)
(0.274106 0.189116 -0.0287929)
(0.308616 0.191184 -0.0437766)
(0.343079 0.163355 -0.0635219)
(0.276329 0.21527 -0.0169551)
(0.256794 0.202313 -0.0167765)
(0.229146 0.179997 -0.0123592)
(0.21906 0.14579 0.0262916)
(0.220126 0.114543 0.0446393)
(0.253593 0.225621 -0.0107597)
(0.252635 0.231501 -0.0197207)
(0.270171 0.172772 0.00228355)
(0.364637 0.60071 0.238699)
(0.404583 0.658667 0.219603)
(0.376826 0.697598 0.223302)
(0.290114 0.679856 0.267566)
(0.303782 0.772519 0.231)
(0.271984 0.773824 0.245533)
(0.300804 0.647389 0.247265)
(0.257976 0.690342 0.263206)
(0.25014 0.8304 0.194257)
(0.235279 0.790951 0.230126)
(0.254399 0.73572 0.238176)
(0.218518 0.738519 0.255654)
(0.270587 0.749651 0.154247)
(0.323117 0.759175 0.132987)
(0.263369 0.77291 0.130382)
(0.303401 0.802667 0.075623)
(0.343319 0.725155 0.0899506)
(0.206891 0.781622 0.0219976)
(0.236386 0.763578 0.0305604)
(0.289831 0.799758 0.061681)
(0.307423 0.772322 0.0267223)
(0.209035 0.813268 0.0956152)
(0.235698 0.806564 0.0485861)
(0.206451 0.78093 0.116967)
(0.168422 0.776667 0.0647339)
(0.182556 0.762639 0.0542849)
(0.245451 0.735876 0.108648)
(0.249232 0.784395 0.0603967)
(0.166624 0.770844 0.0895447)
(0.703598 0.285756 -0.0279024)
(0.760989 0.328923 -0.103767)
(0.521557 0.289935 0.0725018)
(0.509264 0.321553 0.0532733)
(0.52029 0.255698 0.103177)
(0.527346 0.293512 0.0404116)
(0.606335 0.283996 -0.000284751)
(0.53723 0.313844 0.0449937)
(0.749208 0.292994 -0.00637515)
(0.644706 0.322823 -0.0289565)
(0.713288 0.314944 0.0343324)
(0.734246 0.353486 -0.0837964)
(0.716328 0.314605 -0.000127057)
(0.724078 0.328478 -0.0267656)
(0.649398 0.293543 0.112073)
(0.448224 0.321773 0.109374)
(0.452202 0.368435 0.152291)
(0.481277 0.39373 0.137628)
(0.437326 0.355511 0.109176)
(0.445411 0.361516 0.0280043)
(0.438274 0.40515 -0.0385545)
(0.422926 0.404223 0.0550952)
(0.442516 0.424946 0.0503036)
(0.360854 0.39477 -0.0157852)
(0.364144 0.363976 -0.0053771)
(0.337512 0.412952 -0.0444956)
(0.393449 0.418489 -0.0316472)
(0.389511 0.433124 -0.0167231)
(0.426715 0.407024 -0.0577558)
(0.403254 0.462405 -0.070058)
(0.368414 0.476458 -0.0174244)
(0.360043 0.442272 -0.0947441)
(0.38335 0.459555 -0.123023)
(0.557488 0.32613 -0.100303)
(0.724481 0.339671 -0.215468)
(0.553962 0.286956 -0.0708573)
(0.618762 0.307391 -0.103013)
(0.74794 0.390788 -0.196505)
(0.798982 0.41255 -0.206651)
(0.758942 0.451738 -0.164581)
(0.739583 0.442528 -0.19205)
(0.485817 0.41664 -0.0376206)
(0.449504 0.387095 -0.0202327)
(0.740528 0.482297 -0.150804)
(0.886383 0.665794 0.131948)
(0.803543 0.505906 0.1806)
(0.867282 0.581084 0.139412)
(0.893421 0.590228 0.135036)
(0.860252 0.560691 0.159979)
(0.915079 0.615514 0.146926)
(0.90669 0.604901 0.129399)
(0.951035 0.630911 0.101761)
(0.956513 0.637148 0.0684926)
(0.925601 0.556434 0.0794089)
(0.935928 0.62353 0.0840911)
(0.973071 0.626453 0.0670863)
(0.417385 0.277546 -0.217001)
(0.451548 0.251936 -0.280605)
(0.313457 0.311274 -0.0846101)
(0.373478 0.309401 -0.0262469)
(0.357404 0.315073 -0.154633)
(0.353981 0.305219 -0.243944)
(0.461708 0.276068 -0.160751)
(0.357431 0.331342 -0.0571825)
(0.388978 0.318256 -0.0366857)
(0.479649 0.247956 -0.215423)
(0.407063 0.271615 -0.154464)
(0.349872 0.294708 -0.225632)
(0.51172 0.458512 -0.159822)
(0.494915 0.567182 -0.201275)
(0.515198 0.511754 -0.229656)
(0.543752 0.497796 -0.339628)
(0.514818 0.475973 -0.141153)
(0.45668 0.632954 -0.275664)
(0.422852 0.648591 -0.313112)
(0.547363 0.491607 -0.251537)
(0.463622 0.631814 -0.27427)
(0.436965 0.692673 -0.346938)
(0.507188 0.551015 -0.435784)
(0.527626 0.503345 -0.441722)
(0.470102 0.581186 -0.426123)
(0.466618 0.567858 -0.466181)
(0.437167 0.57809 -0.455865)
(0.425287 0.639309 -0.441786)
(0.561337 0.549121 -0.34607)
(0.503349 0.57328 -0.457221)
(0.454479 0.636754 -0.403724)
(0.435108 0.700403 -0.327963)
(0.543808 0.617886 0.0203455)
(0.550291 0.636406 -0.0233971)
(0.553316 0.641484 -0.0395367)
(0.516013 0.630458 -0.0450582)
(0.686763 0.425009 -0.0780169)
(0.647825 0.437133 -0.0575793)
(0.594098 0.484656 0.0810168)
(0.520563 0.603746 -0.124791)
(0.603501 0.573809 -0.158855)
(0.669739 0.435048 -0.0162114)
(0.658849 0.423897 0.0152903)
(0.662253 0.563154 -0.218237)
(0.664303 0.529708 -0.172608)
(0.537817 0.542711 -0.106773)
(0.527275 0.578937 -0.145051)
(0.587619 0.537219 -0.0678769)
(0.581159 0.525373 -0.136555)
(0.610868 0.459138 0.0196831)
(0.544051 0.497142 -0.537642)
(0.555497 0.523577 -0.552278)
(0.556455 0.466469 -0.454752)
(0.603951 0.48263 -0.506965)
(0.639167 0.456926 -0.5647)
(0.598485 0.453835 -0.571914)
(0.62933 0.417296 -0.601723)
(0.680112 0.430344 -0.554233)
(0.517597 0.504219 -0.551599)
(0.527166 0.484904 -0.568307)
(0.645222 0.466989 -0.552479)
(0.645087 0.424559 -0.531862)
(0.60481 0.408496 -0.520901)
(0.560353 0.464977 -0.497972)
(0.616029 0.425558 -0.481491)
(0.57057 0.461114 -0.566044)
(0.592733 0.441346 -0.583643)
(0.586766 0.447054 -0.499692)
(0.556781 0.458005 -0.589629)
(0.552321 0.485176 -0.564277)
(0.406387 0.564704 0.263115)
(0.314287 0.650077 0.283545)
(0.424114 0.572639 0.258604)
(0.398498 0.608862 0.276896)
(0.37004 0.549556 0.27511)
(0.293687 0.607358 0.27925)
(0.307079 0.658115 0.283877)
(0.37321 0.59852 0.285834)
(0.314856 0.655683 0.296908)
(0.454072 0.537558 0.256557)
(0.425094 0.570397 0.277535)
(0.356611 0.568843 0.276715)
(0.297011 0.615113 0.284849)
(0.284259 0.618537 0.276231)
(0.340659 0.548834 0.253512)
(0.297544 0.598482 0.274641)
(0.374453 0.520843 0.26326)
(0.379909 0.52199 0.250678)
(0.437468 0.489704 0.271433)
(0.588164 0.527781 -0.489866)
(0.590125 0.489315 -0.468413)
(0.563788 0.525713 -0.449566)
(0.545892 0.502715 -0.406383)
(0.604852 0.533704 -0.516645)
(0.605879 0.507504 -0.501852)
(0.516116 0.470121 -0.453766)
(0.466179 0.487968 -0.432723)
(0.496183 0.500235 -0.495667)
(0.471653 0.507899 -0.461737)
(0.484136 0.480256 -0.390092)
(0.477754 0.574902 -0.447517)
(0.467854 0.567051 -0.447172)
(0.530118 0.545284 -0.461486)
(0.478035 0.527301 -0.427324)
(0.745088 0.662283 -0.221544)
(0.774671 0.662127 -0.18263)
(0.708234 0.699847 -0.190501)
(0.728758 0.677667 -0.190205)
(0.774814 0.640605 -0.203995)
(0.729789 0.670276 -0.166102)
(0.835572 0.590135 -0.168353)
(0.809854 0.625699 -0.158424)
(0.822906 0.607993 -0.11885)
(0.834705 0.647146 -0.140111)
(0.726836 0.680553 -0.204842)
(0.844182 0.626086 -0.150365)
(0.796299 0.661213 -0.127276)
(0.750317 0.659419 -0.112413)
(0.728995 0.66479 -0.209714)
(0.743654 0.711447 -0.160604)
(0.755131 0.694053 -0.143833)
(0.791168 0.658013 -0.176126)
(0.442275 0.816041 -0.114131)
(0.408748 0.830049 -0.0962588)
(0.432621 0.833283 -0.0290892)
(0.416024 0.833379 -0.0439951)
(0.398024 0.873767 -0.139423)
(0.364967 0.875169 -0.102853)
(0.384494 0.901196 -0.106883)
(0.393978 0.899193 -0.0982073)
(0.437574 0.845757 -0.146609)
(0.444822 0.812143 -0.0129288)
(0.372434 0.878671 -0.109518)
(0.36968 0.908133 -0.0301905)
(0.383448 0.909747 -0.0465199)
(0.425227 0.858389 -0.0869094)
(0.456835 0.853772 -0.0998716)
(0.404107 0.853376 -0.011004)
(0.414511 0.863441 -0.00647528)
(0.369926 0.882985 -0.0505471)
(0.810525 0.587387 0.0115484)
(0.844119 0.652512 0.0357875)
(0.550586 0.417984 0.0177505)
(0.786232 0.593003 0.0194391)
(0.555988 0.437009 0.0166046)
(0.358587 0.284988 0.00122155)
(0.381744 0.310875 0.0165813)
(0.689957 0.570536 0.0219324)
(0.427355 0.356031 0.00439508)
(0.316315 0.24264 0.0117491)
(0.574982 0.417278 0.0258037)
(0.38347 0.29762 -0.0200438)
(0.64843 0.42635 -0.0140119)
(0.407007 0.332516 -0.0204785)
(0.345881 0.273993 -0.0224751)
(0.326385 0.254112 -0.00198107)
(0.510934 0.405002 -0.00323565)
(0.617785 0.299477 -0.731056)
(0.598852 0.328361 -0.728981)
(0.539499 0.318488 -0.722388)
(0.569033 0.276655 -0.732753)
(0.532002 0.293187 -0.675502)
(0.566632 0.281865 -0.706837)
(0.662137 0.295782 -0.689549)
(0.605593 0.325291 -0.742744)
(0.526538 0.330625 -0.701956)
(0.58689 0.300878 -0.699763)
(0.574686 0.340772 -0.726923)
(0.622589 0.327485 -0.695113)
(0.632982 0.311487 -0.69482)
(0.581197 0.303914 -0.66885)
(0.538973 0.295622 -0.639179)
(0.569643 0.349563 -0.698559)
(0.551447 0.313995 -0.655276)
(0.578156 0.319768 -0.672817)
(0.535509 0.3283 -0.689221)
(0.298917 0.912 0.0857302)
(0.282669 0.892506 0.0935442)
(0.31137 0.898624 0.0687081)
(0.297734 0.88538 0.0752606)
(0.295233 0.92121 0.095794)
(0.290945 0.912588 0.0988238)
(0.330084 0.919508 0.109928)
(0.332794 0.938975 0.0752809)
(0.309817 0.92666 0.0616493)
(0.342882 0.903532 0.12328)
(0.358513 0.908688 0.0909349)
(0.306127 0.917689 0.0900142)
(0.325991 0.928968 0.041284)
(0.313106 0.900096 0.0728414)
(0.34744 0.901133 0.116687)
(0.332939 0.929457 0.0288722)
(0.359329 0.897538 0.0687581)
(0.335793 0.787285 -0.194625)
(0.310659 0.767363 -0.203188)
(0.373389 0.805357 -0.187115)
(0.42774 0.794923 -0.224479)
(0.423359 0.794679 -0.184078)
(0.374336 0.759789 -0.201711)
(0.412865 0.750515 -0.254894)
(0.402615 0.749224 -0.233682)
(0.439661 0.79114 -0.250644)
(0.459641 0.73244 -0.251098)
(0.414967 0.771435 -0.18969)
(0.43822 0.747503 -0.261334)
(0.447812 0.759812 -0.248265)
(0.537598 0.417406 -0.659475)
(0.488087 0.442883 -0.6588)
(0.509628 0.405263 -0.682348)
(0.484383 0.424279 -0.668793)
(0.556936 0.409352 -0.652938)
(0.549041 0.39374 -0.563876)
(0.577538 0.385843 -0.591602)
(0.492244 0.448918 -0.649214)
(0.533965 0.433597 -0.629452)
(0.535538 0.426357 -0.639116)
(0.489174 0.422398 -0.658704)
(0.507859 0.429267 -0.647588)
(0.507235 0.455143 -0.627486)
(0.410174 0.599346 0.203291)
(0.406017 0.578886 0.268219)
(0.386729 0.709003 0.170172)
(0.423758 0.647539 0.223401)
(0.562675 0.382209 0.287216)
(0.593618 0.364711 0.257777)
(0.402307 0.666231 0.190328)
(0.405688 0.714719 0.165751)
(0.389705 0.725904 0.155426)
(0.423108 0.694194 0.216845)
(0.599603 0.387722 0.254752)
(0.527551 0.547348 0.245355)
(0.508757 0.573307 0.214266)
(0.494118 0.550667 0.208967)
(0.466136 0.58711 0.180242)
(1.09557 0.696316 -0.151918)
(1.01566 0.621498 -0.214303)
(0.942602 0.582912 -0.174954)
(1.02042 0.620182 -0.15972)
(0.829997 0.451985 -0.230264)
(0.855631 0.582969 -0.192749)
(0.955858 0.597735 -0.21361)
(0.592454 0.396826 -0.0757886)
(0.460503 0.314927 -0.0648946)
(0.932841 0.610972 -0.160585)
(0.912009 0.585661 -0.130538)
(0.958172 0.535116 -0.270551)
(0.583255 0.379604 -0.119937)
(0.367324 0.270414 -0.084374)
(0.610331 0.406697 -0.102688)
(0.836317 0.485995 -0.186755)
(0.777691 0.491811 -0.20124)
(0.838723 0.534762 -0.189846)
(0.756205 0.405177 -0.20445)
(0.646568 0.423197 -0.127478)
(0.439418 0.291908 -0.107212)
(0.560673 0.364719 -0.131087)
(0.254219 0.832597 0.165703)
(0.244581 0.792779 0.16794)
(0.366349 0.689203 0.181589)
(0.373489 0.71255 0.139264)
(0.349511 0.820856 0.137411)
(0.353864 0.823252 0.0675604)
(0.347681 0.800674 0.0837716)
(0.287634 0.844947 0.136007)
(0.252682 0.834765 0.112089)
(0.278072 0.764256 0.143807)
(0.242521 0.805378 0.103002)
(0.297589 0.839476 0.0883401)
(0.303261 0.822823 0.0991207)
(0.262645 0.85362 0.0769434)
(0.284229 0.858341 0.109993)
(0.303275 0.051008 -0.0507178)
(0.290565 0.0564661 -0.0322384)
(0.190995 0.039087 0.015144)
(0.193746 0.0425085 0.0217892)
(0.134527 0.0103585 -0.022963)
(0.119858 0.0130778 0.0137387)
(0.263965 0.0294899 -0.0873415)
(0.240864 0.0433365 -0.0920973)
(0.278137 0.0544677 -0.108244)
(0.0743019 0.0140372 0.0186217)
(0.0771972 0.00522561 -0.00245345)
(0.280058 0.0455089 -0.0457713)
(0.219482 0.0360012 -0.0868478)
(0.162943 0.0295549 -0.0630276)
(0.0929648 0.0287023 0.0268953)
(0.0887198 0.0156459 -0.0263365)
(0.611845 0.668274 -0.14457)
(0.582846 0.66404 -0.171161)
(0.549117 0.61819 -0.166327)
(0.521632 0.643867 -0.161225)
(0.70239 0.843425 -0.225685)
(0.708705 0.786646 -0.24076)
(0.797551 0.858485 -0.194614)
(0.880801 0.740274 -0.210459)
(0.880163 0.757211 -0.297656)
(0.885225 0.77597 -0.320586)
(0.936541 0.833098 -0.3143)
(0.842962 0.863149 -0.277557)
(0.716264 0.646619 -0.203291)
(0.733936 0.685578 -0.152056)
(0.934183 0.808224 -0.215655)
(0.897634 0.827761 -0.292195)
(0.905946 0.781801 -0.324921)
(0.943959 0.818727 -0.328781)
(0.777601 0.832542 -0.30195)
(0.84522 0.810165 -0.294493)
(0.79934 0.763715 -0.280132)
(0.657653 0.688422 -0.20421)
(0.603086 0.374638 0.33797)
(0.629979 0.358421 0.387554)
(0.538169 0.467478 0.307146)
(0.570876 0.438265 0.258316)
(0.580311 0.459617 0.290123)
(0.571584 0.496331 0.344432)
(0.602088 0.447028 0.326563)
(0.65155 0.376742 0.311783)
(0.671668 0.356085 0.364805)
(0.638693 0.484982 0.265958)
(0.574632 0.436302 0.277284)
(0.624834 0.44793 0.363111)
(0.658083 0.434424 0.370861)
(0.659293 0.403859 0.304301)
(0.689141 0.383039 0.376294)
(0.66505 0.484796 0.264763)
(0.660968 0.461504 0.21317)
(0.637736 0.46511 0.279846)
(0.622675 0.425689 0.240258)
(0.686414 0.402248 0.287171)
(0.659733 0.45136 0.229052)
(0.560017 0.703693 0.120155)
(0.560364 0.66088 0.195444)
(0.632007 0.650689 0.110372)
(0.578141 0.696792 0.0416915)
(0.394552 0.878675 0.0479271)
(0.420205 0.909918 0.0124824)
(0.465296 0.835175 0.0328473)
(0.407298 0.854001 0.0928875)
(0.464796 0.8203 0.175048)
(0.544849 0.695439 0.081038)
(0.519022 0.702299 0.0880034)
(0.610343 0.653438 0.261531)
(0.428094 0.854485 0.0114501)
(0.416919 0.888921 -0.0106132)
(0.494467 0.760002 0.201699)
(0.485473 0.794826 0.216387)
(0.495401 0.819934 0.184257)
(0.5852 0.690203 0.167453)
(0.459763 0.813846 -0.000895586)
(0.505585 0.336945 -0.558836)
(0.509652 0.355556 -0.67569)
(0.50079 0.300311 -0.462189)
(0.487955 0.319648 -0.508936)
(0.363077 0.314069 -0.263984)
(0.352573 0.286561 -0.321873)
(0.432216 0.391617 -0.609209)
(0.433694 0.356329 -0.463914)
(0.391647 0.328723 -0.314669)
(0.389225 0.299137 -0.373865)
(0.471351 0.375719 -0.61354)
(0.51565 0.337258 -0.56182)
(0.331226 0.290867 -0.31058)
(0.354646 0.301757 -0.287454)
(0.444082 0.369516 -0.569056)
(0.456141 0.327419 -0.412266)
(0.391002 0.358971 -0.462594)
(0.726525 0.621574 -0.134722)
(0.669998 0.513561 -0.109632)
(0.489749 0.469997 -0.0417909)
(0.477416 0.48836 0.0171229)
(0.498478 0.516828 -0.0142663)
(0.731689 0.615823 -0.155963)
(0.458986 0.459641 0.0292655)
(0.427031 0.499354 0.026502)
(0.455293 0.521445 -0.0180526)
(0.544754 0.581543 -0.17839)
(0.569717 0.592011 -0.166798)
(0.431829 0.520761 -0.026935)
(0.465001 0.569207 -0.101328)
(0.678052 0.846119 0.0369078)
(0.699633 0.93508 0.0183158)
(0.652447 0.822707 0.0458439)
(0.64743 0.827338 0.0103131)
(0.667751 0.89493 0.01783)
(0.668157 0.95961 1.25201e-05)
(0.629802 0.827894 0.043866)
(0.623303 0.837509 0.0448598)
(0.669568 0.844194 0.0171593)
(0.629456 0.86479 0.0758696)
(0.678196 0.931454 0.0161625)
(0.616402 0.829858 0.0778007)
(0.627524 0.859203 0.110157)
(0.642791 0.856312 0.0760231)
(0.634061 0.852664 0.0811789)
(0.671389 0.855019 0.074237)
(0.618966 0.844078 0.113709)
(0.632126 0.850254 0.0888697)
(0.240143 0.128583 0.0588553)
(0.209193 0.0962909 0.0519012)
(0.244331 0.134552 0.0785252)
(0.434368 0.130871 0.102882)
(0.339571 0.150602 0.123527)
(0.362744 0.151238 0.136105)
(0.320793 0.117413 0.126372)
(0.4089 0.119531 -0.00905472)
(0.264594 0.0858969 0.0353931)
(0.460045 0.173484 0.0942197)
(0.225863 0.098533 0.0596941)
(0.26612 0.148621 0.0665852)
(0.259739 0.0669909 0.0269727)
(0.517749 0.172896 0.0461232)
(0.340354 0.112017 0.114663)
(0.452405 0.130805 0.037912)
(0.509242 0.135218 -0.0494007)
(0.458981 0.114174 -0.046383)
(0.307978 0.0786158 -0.00271799)
(0.264495 0.0808787 0.0695108)
(0.520816 0.607431 -0.314489)
(0.559363 0.557456 -0.267624)
(0.492021 0.656109 -0.116225)
(0.505832 0.684585 -0.249388)
(0.516883 0.642717 -0.335066)
(0.56033 0.587001 -0.306767)
(0.589 0.504257 -0.195179)
(0.579147 0.500273 -0.0891299)
(0.521499 0.627815 -0.0787112)
(0.490514 0.668847 -0.251295)
(0.533879 0.671604 -0.285939)
(0.58901 0.631918 -0.353446)
(0.565754 0.523698 -0.192562)
(0.570241 0.59671 -0.271444)
(0.640311 0.319966 -0.484763)
(0.682455 0.30106 -0.461982)
(0.717757 0.282821 -0.531691)
(0.681419 0.300204 -0.560604)
(0.629355 0.381987 -0.643532)
(0.637517 0.337018 -0.658794)
(0.627856 0.32019 -0.475017)
(0.644452 0.28152 -0.570272)
(0.682194 0.308421 -0.629799)
(0.616273 0.366426 -0.581415)
(0.635556 0.322094 -0.524736)
(0.640759 0.270959 -0.521757)
(0.607122 0.341215 -0.600427)
(0.515366 0.698171 -0.0873618)
(0.54745 0.701402 -0.104189)
(0.553126 0.685227 -0.102205)
(0.490717 0.640221 -0.0303917)
(0.679672 0.843031 -0.104267)
(0.710923 0.823874 -0.0871412)
(0.562248 0.725999 -0.0522632)
(0.558923 0.651918 0.0248754)
(0.483768 0.583636 0.0697378)
(0.583703 0.624037 -0.0182993)
(0.642313 0.718434 -0.0255937)
(0.851094 0.883671 -0.0965324)
(0.709654 0.807543 -0.138796)
(0.765837 0.849539 -0.124768)
(0.589674 0.688811 -0.101932)
(0.781665 0.810927 -0.170387)
(0.814254 0.864149 -0.120517)
(0.778636 0.809682 -0.168194)
(0.571191 0.531013 -0.461182)
(0.617783 0.538853 -0.459224)
(0.545844 0.570172 -0.426713)
(0.520384 0.565535 -0.423017)
(0.594384 0.524934 -0.399915)
(0.609259 0.536696 -0.411415)
(0.624792 0.501343 -0.422792)
(0.612051 0.541771 -0.426244)
(0.629068 0.528051 -0.50131)
(0.647989 0.506397 -0.456905)
(0.538223 0.592227 -0.411636)
(0.583665 0.597771 -0.415966)
(0.520151 0.586697 -0.428801)
(0.506526 0.572578 -0.427501)
(0.572565 0.522778 -0.433142)
(0.6127 0.531998 -0.450659)
(0.654234 0.510802 -0.452212)
(0.652222 0.482548 -0.439766)
(0.229312 0.251744 -0.0161165)
(0.50519 0.400214 0.00939019)
(0.328577 0.297089 0.00505771)
(0.188566 0.163849 0.000408352)
(0.166458 0.146526 -0.0213897)
(0.336354 0.311931 -0.0134899)
(0.240475 0.267862 0.00624257)
(0.187933 0.209789 0.018663)
(0.0592616 0.0694501 -0.0124864)
(0.132756 0.183589 0.0113066)
(0.188806 0.166541 -0.0102016)
(0.107391 0.129344 -0.00348604)
(0.283662 0.234064 -0.0389605)
(0.506603 0.736521 -0.17875)
(0.483658 0.801314 -0.18927)
(0.535181 0.742223 -0.223131)
(0.532703 0.703672 -0.170317)
(0.50476 0.7893 -0.17406)
(0.553894 0.714598 -0.103761)
(0.553411 0.759042 -0.165833)
(0.618334 0.594573 0.00467888)
(0.57244 0.645329 0.0109634)
(0.496149 0.76804 -0.0658059)
(0.612328 0.602506 0.0197942)
(0.561338 0.670513 0.0614389)
(0.528213 0.719556 0.0295176)
(0.465277 0.79409 -0.114704)
(0.537903 0.689866 -0.0220007)
(0.473832 0.754157 0.0133771)
(0.515841 0.709069 -0.0179501)
(0.701461 0.467405 0.210007)
(0.734081 0.470568 0.184428)
(0.687131 0.497793 0.183399)
(0.607628 0.546798 0.161824)
(0.570038 0.593966 0.0712009)
(0.692005 0.761832 -0.0176473)
(0.688642 0.734923 0.0113876)
(0.576072 0.593839 0.0746017)
(0.695143 0.686153 -0.00109591)
(0.687906 0.671877 0.035841)
(0.692548 0.51263 0.150589)
(0.695467 0.563066 0.0956947)
(0.718969 0.533639 0.156283)
(0.723018 0.488436 0.155047)
(0.709727 0.46934 0.209459)
(0.741124 0.57215 0.0388323)
(0.620943 0.586877 0.132075)
(0.729832 0.505361 0.178761)
(0.743556 0.563601 0.0901296)
(0.713994 0.667463 0.0797782)
(0.700635 0.508514 0.202471)
(0.669232 0.491888 0.224296)
(0.648472 0.57523 0.180044)
(0.715635 0.51603 0.218147)
(0.93448 0.608797 0.123526)
(0.67245 0.579779 0.145529)
(0.844259 0.591574 0.0805623)
(0.831365 0.589163 0.0979306)
(0.264344 0.449384 -0.481009)
(0.231926 0.431668 -0.423256)
(0.303857 0.502492 -0.506711)
(0.400416 0.523812 -0.535396)
(0.364326 0.557399 -0.513233)
(0.28394 0.46654 -0.493319)
(0.312722 0.486521 -0.523119)
(0.227419 0.462029 -0.447941)
(0.205801 0.443286 -0.422229)
(0.333683 0.533536 -0.478241)
(0.263371 0.496358 -0.447535)
(0.347326 0.535652 -0.51755)
(0.362977 0.561153 -0.521888)
(0.387123 0.541357 -0.514789)
(0.29673 0.499888 -0.487133)
(0.224928 0.485588 -0.416324)
(0.261542 0.528835 -0.425221)
(0.343656 0.560834 -0.470866)
(0.208965 0.48333 -0.40117)
(0.186363 0.456959 -0.39132)
(0.576945 0.419667 -0.28318)
(0.578638 0.392712 -0.232339)
(0.616818 0.370431 -0.390889)
(0.588849 0.437476 -0.384091)
(0.518229 0.326509 -0.0162223)
(0.523211 0.314905 0.0169022)
(0.513051 0.364341 -0.161484)
(0.619567 0.286036 -0.371913)
(0.621615 0.331612 -0.397095)
(0.586264 0.361897 -0.357758)
(0.611593 0.332186 -0.294877)
(0.55625 0.278908 -0.233956)
(0.58963 0.255049 -0.242807)
(0.521184 0.382186 -0.180082)
(0.518439 0.290884 0.0298076)
(0.639494 0.275045 -0.313146)
(0.520877 0.283731 -0.127011)
(0.482797 0.297382 -0.0722168)
(0.53448 0.313666 -0.0912846)
(0.49259 0.291298 -0.0717672)
(0.523923 0.281789 -0.0920741)
(0.605801 0.277134 -0.233896)
(0.567477 0.367432 0.227503)
(0.544474 0.371752 0.205546)
(0.637802 0.337721 0.230781)
(0.585097 0.355705 0.164717)
(0.4544 0.534801 0.103118)
(0.465966 0.530047 0.146479)
(0.460706 0.532949 0.078763)
(0.497322 0.516821 0.0567194)
(0.555978 0.414089 0.263832)
(0.552054 0.395023 0.304482)
(0.610011 0.383465 0.323324)
(0.59465 0.41653 0.294211)
(0.586765 0.374842 0.345482)
(0.610296 0.368031 0.328563)
(0.585123 0.426476 0.18318)
(0.524836 0.408213 0.148642)
(0.543167 0.471148 0.10369)
(0.596127 0.424733 0.12232)
(0.479513 0.521787 0.128293)
(0.511424 0.496869 0.226408)
(0.480892 0.472544 0.235738)
(0.568951 0.428224 0.267449)
(0.147417 0.0324862 -0.0158281)
(0.195905 0.0522078 -0.0627793)
(0.140059 0.0316516 -0.0320414)
(0.128084 0.0285518 -0.00876834)
(0.133276 0.0389165 -0.0362476)
(0.137279 0.0274671 0.0154017)
(0.222716 0.0347792 -0.0351845)
(0.247818 0.0616517 -0.0726286)
(0.302372 0.0578194 -0.117542)
(0.304993 0.0620402 -0.0880214)
(0.368615 0.0774739 -0.0766271)
(0.367719 0.0655735 -0.0978508)
(0.227317 0.0378566 0.0128571)
(0.280622 0.0492043 -0.00962254)
(0.83106 0.659455 -0.111311)
(0.793538 0.659645 -0.0802282)
(0.737541 0.688173 -0.114341)
(0.744044 0.747251 -0.154238)
(0.751761 0.557392 -0.0299845)
(0.833682 0.643625 -0.092207)
(0.843582 0.616959 -0.0799101)
(0.709316 0.584241 -0.0224844)
(0.762886 0.574505 -0.0310399)
(0.692926 0.601147 -0.0140208)
(0.778308 0.543015 -0.0200328)
(0.838026 0.597402 -0.100649)
(0.804522 0.650204 -0.118412)
(0.779475 0.576466 -0.0901633)
(0.721417 0.625444 -0.128759)
(0.679538 0.674351 -0.0740861)
(0.685861 0.579803 -0.0762222)
(0.774326 0.684341 -0.149276)
(0.733327 0.704806 -0.165834)
(0.768824 0.649005 -0.146373)
(0.793741 0.605467 -0.113511)
(0.665098 0.737165 -0.142142)
(0.751832 0.688908 -0.161273)
(0.718873 0.741507 -0.157585)
(0.695149 0.820389 0.00504139)
(0.609051 0.696246 0.0522008)
(0.594021 0.715193 0.053441)
(0.519717 0.57323 0.131065)
(0.692366 0.865023 -0.0474146)
(0.659227 0.782157 0.0352507)
(0.612681 0.726446 0.0682911)
(0.560102 0.638673 0.114944)
(0.525512 0.544707 0.205273)
(0.697631 0.87852 -0.00853247)
(0.704259 0.892542 -0.015975)
(0.678209 0.832767 -0.0302979)
(0.660571 0.799954 0.0315269)
(0.705224 0.872791 -0.0149995)
(0.680994 0.882591 -0.0446912)
(0.687149 0.903026 -0.0649579)
(0.609682 0.74737 0.140487)
(0.655367 0.821129 0.0694932)
(0.6176 0.702557 0.109447)
(0.634691 0.79412 0.0943891)
(0.664041 0.780933 0.0572975)
(0.580423 0.685382 0.14341)
(0.680212 0.698349 -0.0261503)
(0.705332 0.668406 -0.0192672)
(0.721392 0.599329 0.0109577)
(0.656726 0.594853 0.0072308)
(0.633444 0.622858 -0.0178365)
(0.677583 0.569998 -0.000909376)
(0.757164 0.540482 0.0133933)
(0.692608 0.667903 -0.073684)
(0.676691 0.702322 -0.0474329)
(0.729079 0.667858 -0.147469)
(0.753748 0.608574 -0.0815605)
(0.7318 0.532061 -0.00697408)
(0.605898 0.668893 -0.102377)
(0.662762 0.725336 -0.0778719)
(0.687412 0.724595 -0.13253)
(0.709154 0.780384 -0.116556)
(0.225403 0.0750838 0.0254107)
(0.314365 0.0872226 -0.0178271)
(0.337662 0.0401377 -0.175754)
(0.214726 0.0243331 -0.111118)
(0.17925 -0.000504833 -0.0470942)
(0.170673 0.0113884 -0.0125637)
(0.335925 0.0690955 -0.0630665)
(0.337246 0.0776362 -0.0740099)
(0.228509 0.0556929 0.0137997)
(0.232968 0.0331707 -0.104587)
(0.332119 0.0391146 -0.150861)
(0.419282 0.0656828 -0.189083)
(0.406557 0.0548296 -0.170918)
(0.370899 0.0446036 -0.172512)
(0.247075 0.020938 -0.120108)
(0.195536 0.0167463 -0.0871535)
(0.23534 0.0171394 -0.068949)
(0.136565 0.0139154 -0.0202249)
(0.140571 0.00538267 -0.0497252)
(0.175178 0.0220623 -0.0294129)
(0.516008 0.739525 -0.270099)
(0.571893 0.698364 -0.258632)
(0.454888 0.808873 -0.211213)
(0.46884 0.787136 -0.211373)
(0.501792 0.764687 -0.261072)
(0.483433 0.75604 -0.249976)
(0.512058 0.758264 -0.245483)
(0.544149 0.731984 -0.231045)
(0.504389 0.732791 -0.22569)
(0.494439 0.782988 -0.192185)
(0.530871 0.762232 -0.218984)
(0.583879 0.744742 -0.222508)
(0.572366 0.737453 -0.220429)
(0.466682 0.8269 -0.208053)
(0.575185 0.698765 -0.222352)
(0.612681 0.676743 -0.208299)
(0.567602 0.726964 -0.218336)
(0.528279 0.78443 -0.184859)
(0.565074 0.698374 -0.232989)
(0.988918 0.542684 -0.159309)
(1.05164 0.576422 -0.154025)
(1.01576 0.53839 -0.137768)
(0.975784 0.510914 -0.193864)
(0.994397 0.490306 -0.194934)
(0.964972 0.543097 -0.145135)
(0.993167 0.518833 -0.135848)
(0.967945 0.511555 -0.178022)
(0.955101 0.517087 -0.164789)
(0.966709 0.330722 -0.699216)
(0.947942 0.337164 -0.686173)
(0.961472 0.382191 -0.587584)
(0.99971 0.372851 -0.654703)
(0.927851 0.320897 -0.735756)
(0.930791 0.332452 -0.684806)
(0.915435 0.310882 -0.644413)
(0.8703 0.317091 -0.610203)
(0.964175 0.337251 -0.686782)
(0.940989 0.368738 -0.547979)
(0.776613 0.310724 -0.468749)
(0.820342 0.30219 -0.548156)
(0.954312 0.35347 -0.581338)
(0.952887 0.354426 -0.653897)
(0.966354 0.337936 -0.661411)
(0.812365 0.327735 -0.503813)
(0.927745 0.331501 -0.666778)
(0.894691 0.339443 -0.537248)
(0.926599 0.322939 -0.687831)
(0.234766 0.345095 -0.14626)
(0.229669 0.388097 -0.196427)
(0.347639 0.360399 -0.176987)
(0.276261 0.24564 -0.00864903)
(0.261132 0.262432 -0.0568205)
(0.358948 0.404161 -0.182007)
(0.311591 0.315078 -0.101273)
(0.214194 0.226358 -0.00505113)
(0.277049 0.464227 -0.222139)
(0.309449 0.461693 -0.257857)
(0.315864 0.438539 -0.259764)
(0.261861 0.313605 -0.0844608)
(0.811419 0.524339 -0.707343)
(0.793745 0.525046 -0.676718)
(0.860736 0.558544 -0.689284)
(0.857564 0.546615 -0.681088)
(0.86383 0.563563 -0.678969)
(0.841806 0.572814 -0.676465)
(0.630251 0.505305 -0.574402)
(0.739808 0.517103 -0.664406)
(0.716581 0.533011 -0.642423)
(0.73935 0.510688 -0.691797)
(0.703912 0.553765 -0.612135)
(0.871933 0.574261 -0.674991)
(0.789102 0.578895 -0.625125)
(0.856081 0.574485 -0.651749)
(0.862141 0.533103 -0.65615)
(0.852971 0.601592 -0.638097)
(0.665185 0.514241 -0.535246)
(0.764864 0.527079 -0.619271)
(0.7618 0.57931 -0.569863)
(0.749567 0.533369 -0.589575)
(0.695325 0.577872 -0.529903)
(0.713893 0.394451 -0.453746)
(0.751468 0.401861 -0.412842)
(0.735598 0.439811 -0.470766)
(0.697975 0.499482 -0.514457)
(0.760341 0.404911 -0.483722)
(0.778151 0.42718 -0.443565)
(0.738981 0.456364 -0.555283)
(0.763848 0.423245 -0.557646)
(0.771946 0.427763 -0.509189)
(0.720522 0.429763 -0.460469)
(0.766206 0.476454 -0.46669)
(0.737178 0.463685 -0.439424)
(0.741214 0.464484 -0.434839)
(0.699245 0.475745 -0.428907)
(0.702934 0.502182 -0.448024)
(0.726179 0.491855 -0.438992)
(0.717225 0.457875 -0.459611)
(0.743693 0.456079 -0.402912)
(0.779829 0.469392 -0.428139)
(0.702222 0.472185 -0.460143)
(0.763898 0.462742 -0.425896)
(0.634536 0.390011 -0.623902)
(0.618177 0.387453 -0.639695)
(0.684287 0.352032 -0.643648)
(0.670443 0.374413 -0.637472)
(0.605649 0.378567 -0.637908)
(0.573541 0.39019 -0.674207)
(0.550747 0.382665 -0.672678)
(0.575864 0.366903 -0.631795)
(0.583811 0.363433 -0.64394)
(0.619348 0.365186 -0.593275)
(0.586185 0.361069 -0.691573)
(0.589835 0.378638 -0.684096)
(0.661064 0.355674 -0.663198)
(0.62969 0.345699 -0.695621)
(0.599648 0.493036 0.0473534)
(0.505914 0.403492 0.038772)
(0.514207 0.42647 0.0317303)
(0.347429 0.305848 0.00446667)
(0.581839 0.482952 0.0567007)
(0.415655 0.371727 0.0441188)
(0.636275 0.512852 0.0773861)
(0.610747 0.456544 0.0411003)
(0.46999 0.385058 0.0286475)
(0.554138 0.473871 0.0561027)
(0.384113 0.390849 0.0703395)
(0.344523 0.366491 0.048759)
(0.829455 0.624125 0.139811)
(0.706693 0.553963 0.109125)
(0.359825 0.30872 0.00978168)
(0.264947 0.286381 0.00632892)
(0.556923 0.458364 0.0760715)
(0.921875 0.52802 -0.0912316)
(0.902104 0.551693 -0.129479)
(0.984251 0.484384 -0.185305)
(0.917531 0.523989 -0.182884)
(0.874191 0.536121 -0.16083)
(0.892268 0.542272 -0.10305)
(0.88787 0.529407 -0.221781)
(0.828202 0.534569 -0.134062)
(0.955143 0.569941 -0.160947)
(0.852118 0.549408 -0.145459)
(0.966987 0.5061 -0.20693)
(0.983491 0.500672 -0.249598)
(1.05624 0.527525 -0.234768)
(1.05911 0.493552 -0.260719)
(0.859133 0.504575 -0.20408)
(0.950587 0.506615 -0.229534)
(1.01652 0.50123 -0.28276)
(0.99015 0.461443 -0.266652)
(0.921443 0.502162 -0.231757)
(0.985157 0.49836 -0.301241)
(0.270384 0.26526 -0.640321)
(0.287416 0.266675 -0.68423)
(0.327796 0.247048 -0.736898)
(0.985743 0.273508 -0.819921)
(0.971783 0.292541 -0.827924)
(0.498976 0.206237 -0.797529)
(0.511139 0.196731 -0.835376)
(0.454251 0.192116 -0.788384)
(0.43011 0.197666 -0.790875)
(0.840797 0.224295 -0.870523)
(0.799421 0.226349 -0.836459)
(0.805247 0.210651 -0.862811)
(0.166419 0.234268 -0.350677)
(0.0956616 0.193731 -0.248613)
(1.01472 0.455777 -0.696)
(1.00011 0.426606 -0.724491)
(0.996021 0.437158 -0.730569)
(0.76083 0.476574 -0.722497)
(0.728581 0.479266 -0.707176)
(0.336918 0.275783 -0.690482)