/*--------------------------------*- C++ -*----------------------------------*\
| =========                 |                                                 |
| \\      /  F ield         | OpenFOAM: The Open Source CFD Toolbox           |
|  \\    /   O peration     | Version:  v1612+                                |
|   \\  /    A nd           | Web:      www.OpenFOAM.com                      |
|    \\/     M anipulation  |                                                 |
\*---------------------------------------------------------------------------*/
FoamFile
{
    version     2.0;
    format      ascii;
    class       volVectorField;
    location    "200";
    object      wallShearStress;
}
// * * * * * * * * * * * * * * * * * * * * * * * * * * * * * * * * * * * * * //

dimensions      [0 2 -2 0 0 0 0];

internalField   uniform (0 0 0);

boundaryField
{
    WALL
    {
        type            calculated;
        value           nonuniform List<vector> 
1665
(
(0.00919239 0.00662198 0.0228606)
(0.00802614 0.00546647 0.0226535)
(0.0111843 0.00576417 0.0120923)
(0.0123818 0.00343431 0.0132325)
(0.00219198 0.00250598 0.0105315)
(0.0025514 0.00169833 0.0112891)
(0.00370838 0.00263607 0.00961113)
(0.00444038 0.00151408 0.0101153)
(0.0119427 0.00206907 0.0131704)
(0.0116051 0.000951507 0.0150905)
(0.0145067 0.00318397 0.0121371)
(0.0135363 0.00316252 0.0109088)
(0.0154084 0.00135493 0.0121269)
(0.017179 0.00339661 0.0114808)
(0.0103396 0.00507465 0.00500485)
(0.00975518 0.00629121 0.00496354)
(0.00343281 0.00427944 0.00805983)
(0.00312568 0.00457199 0.00762129)
(0.00946199 0.00429688 0.0120319)
(0.0114754 0.00520971 0.0137489)
(0.0140115 0.00252486 0.0135931)
(0.0129128 0.00165498 0.0156548)
(0.0156995 0.0044598 0.0079501)
(0.0151759 0.00396632 0.00757259)
(0.00878485 0.00241352 0.00619163)
(0.0128897 0.000253291 0.0113142)
(0.0125093 0.00027965 0.0112781)
(0.00562932 -0.00557152 0.0110915)
(0.0121321 0.00575913 0.0136578)
(0.0106458 0.00526597 0.0137607)
(0.0116923 0.00274153 0.0113895)
(0.0136185 0.00288379 0.0125784)
(0.00687204 0.00686527 0.00968538)
(0.00724691 0.00733038 0.00941935)
(0.0142793 0.00605504 0.013929)
(0.0136629 0.00637936 0.0145434)
(0.00515795 -0.00143998 0.0122438)
(0.00659393 -0.0011995 0.012755)
(0.00975007 -0.00207474 0.0127423)
(0.0101031 -0.00243209 0.012235)
(0.0123884 0.0010711 0.01015)
(0.0137818 0.0009806 0.0115389)
(0.0115753 0.00153509 0.00946349)
(0.0119707 0.00246655 0.00848238)
(0.00669766 0.00394526 0.0048457)
(0.0154327 0.00433454 0.00785795)
(0.0156447 0.00466189 0.00743685)
(0.0171545 0.00631492 0.0148465)
(0.0209084 0.00727216 0.0150798)
(0.0143694 0.00355398 0.00990098)
(0.0145907 0.00370149 0.0111822)
(0.0113462 0.00168151 0.0165933)
(0.0119242 0.00245359 0.0190288)
(0.0118375 6.21009e-05 0.0197344)
(0.0125973 0.000858776 0.0174563)
(0.0121801 0.000688806 0.0166167)
(0.0126417 0.00246368 0.0148772)
(0.0115478 -0.000193648 0.0220431)
(0.0118226 0.00488105 0.00898929)
(0.0115825 0.00369512 0.00934375)
(0.0119153 0.00471491 0.00496701)
(0.0114966 0.0060189 0.00461806)
(0.00187204 0.0040257 0.0120092)
(0.00566523 0.00622328 0.0100861)
(0.00597039 0.0069104 0.0100837)
(0.00290908 0.00491973 0.00936799)
(0.00308393 0.00581744 0.0100479)
(0.00832731 -0.00375704 0.00964061)
(0.0118774 0.00237677 0.0118727)
(0.0107024 0.00305509 0.009573)
(0.00493511 0.00577932 0.00605713)
(0.00618344 0.00570611 0.00558067)
(0.00525074 0.0040596 0.00540081)
(0.00543394 0.00473287 0.00552659)
(0.00553616 0.00426667 0.00547467)
(0.00562586 0.00387671 0.00495168)
(0.00526289 0.00469236 0.00569686)
(0.00560002 0.0042364 0.00559729)
(0.00157687 -0.00183621 0.0131909)
(0.00198829 -0.00160393 0.012855)
(0.00266645 -0.00269119 0.0131185)
(0.00309508 -0.00272758 0.0133284)
(0.00257139 -0.00185342 0.012967)
(0.00161942 -0.00244037 0.0129603)
(0.00777295 0.00640227 0.00735663)
(0.00740649 0.00549686 0.00767807)
(0.00742144 0.00588963 0.00729536)
(0.00763034 0.00634109 0.0085316)
(0.0062178 0.00747473 0.00774247)
(0.00906221 0.00359048 0.0231279)
(0.010127 0.00378993 0.023833)
(0.00957198 0.00617072 0.0219577)
(0.00843713 0.00529622 0.0213989)
(0.00839866 0.00404822 0.0223888)
(0.00952781 0.00507054 0.0226658)
(0.00989989 0.00505933 0.0241842)
(0.00860614 0.00484366 0.0231234)
(0.0147752 0.00986357 0.0190011)
(0.0141717 0.0096592 0.0184058)
(0.0131097 0.00875964 0.0174872)
(0.0133586 0.00929689 0.019121)
(0.0140002 0.00885215 0.0186118)
(0.0139274 0.00913246 0.0198706)
(0.0210556 0.00745868 0.0122233)
(0.0197313 0.00890987 0.0123841)
(0.0205772 0.00726287 0.0121479)
(0.019735 0.008274 0.0126292)
(0.0192601 0.00617715 0.0119499)
(0.0192795 0.00755556 0.0113011)
(0.00541628 0.003287 0.00702419)
(0.00577594 0.00314 0.00675613)
(0.00581505 0.00297134 0.00734736)
(0.00629434 0.00275682 0.00735174)
(0.00549036 0.00314858 0.00721321)
(0.00615591 0.0030055 0.00677129)
(0.00730404 0.00109852 0.010161)
(0.00785973 0.00101071 0.00987107)
(0.00824254 0.000478851 0.0104983)
(0.00793794 0.000822931 0.0105941)
(0.00697804 0.000940409 0.0103587)
(0.0084136 0.000729332 0.0102278)
(0.0156577 0.00408713 0.0140792)
(0.016212 0.00549956 0.0156536)
(0.0181084 0.00589063 0.0158358)
(0.0150299 0.00424591 0.0149188)
(0.0156491 0.00501986 0.0158071)
(0.0172814 0.0049822 0.0147095)
(0.0112638 0.00165431 0.0193334)
(0.0112812 0.00140645 0.0191017)
(0.0121697 0.0017403 0.0169856)
(0.0124634 0.0017231 0.0177594)
(0.0120113 0.00153189 0.0164754)
(0.00229693 0.00444602 0.0113463)
(0.00265623 0.00452828 0.0106456)
(0.00254538 0.00423635 0.0102642)
(0.00341901 0.00485029 0.0105523)
(0.00339914 0.00487124 0.0102554)
(0.00206718 0.00424861 0.0109488)
(0.0109372 0.00561064 0.0114159)
(0.0120992 0.00498367 0.0123294)
(0.0117151 0.00406766 0.0129593)
(0.0125376 0.00452312 0.0130214)
(0.0117103 0.00361317 0.011759)
(0.0117328 0.00331608 0.0124627)
(0.0107495 0.00368218 0.0104974)
(0.0112219 0.00504199 0.0115337)
(0.0111944 0.00604331 0.00449532)
(0.0107308 0.00469887 0.00463015)
(0.0125309 0.00490238 0.00556813)
(0.0109587 0.005326 0.00461804)
(0.0125605 0.00458681 0.00527308)
(0.00663016 0.00416398 0.0046929)
(0.00578924 0.0043244 0.00450907)
(0.0064821 0.0048479 0.00405618)
(0.0065986 0.0038351 0.003872)
(0.00597734 0.00364986 0.00406193)
(0.00626449 0.00378722 0.00384701)
(0.00430724 0.00425656 0.00684046)
(0.00446084 0.00467743 0.00713182)
(0.00399299 0.00428215 0.00694191)
(0.00413184 0.00378111 0.0067166)
(0.00435005 0.00402369 0.0069591)
(0.00417459 0.00464031 0.00698549)
(0.00236513 0.00066894 0.0122617)
(0.00265798 0.000885418 0.0122102)
(0.00212349 0.00263182 0.0109146)
(0.00212816 0.00196935 0.0120703)
(0.00245422 0.00218308 0.01213)
(0.00200127 0.00108499 0.0123484)
(0.00226702 0.00144349 0.0115747)
(0.00196193 0.00205508 0.0104976)
(0.0128679 0.0062856 0.0214392)
(0.0154197 0.0068772 0.0211484)
(0.0139962 0.00701643 0.020553)
(0.0126034 0.00527186 0.0203443)
(0.0147984 0.00589632 0.0204245)
(0.0140918 0.00495317 0.0196675)
(0.00347446 0.00604979 0.0106648)
(0.00455074 0.00597696 0.0100644)
(0.00474929 0.00652045 0.0106177)
(0.00356198 0.00608973 0.0106128)
(0.00364208 0.0062823 0.0102772)
(0.00383179 0.00632195 0.0105644)
(0.00222754 -0.000269809 0.0125)
(0.00236938 -0.000927424 0.0129602)
(0.00163115 -0.000178823 0.0128738)
(0.00180701 0.000134982 0.0126757)
(0.0018818 -0.000802546 0.0132899)
(0.00234174 -0.00109814 0.012791)
(0.00191462 0.00318168 0.0115406)
(0.00257548 0.00341235 0.0116216)
(0.00213538 0.00368409 0.0112907)
(0.00190292 0.00276851 0.0113309)
(0.00230643 0.00399197 0.0110268)
(0.00229135 0.00374158 0.0107818)
(0.0060556 0.0014822 0.00965123)
(0.00519788 0.00201402 0.00949617)
(0.00582438 0.00186566 0.0094593)
(0.00646589 0.00147808 0.0100281)
(0.00539145 0.00132893 0.009587)
(0.00527038 0.00165535 0.00965888)
(0.00442649 0.00246617 0.00943942)
(0.00411408 0.00183913 0.0102837)
(0.00361428 0.00219451 0.00965687)
(0.00398396 0.00319658 0.00933285)
(0.00429337 0.00306616 0.00902118)
(0.00387964 0.0028367 0.00926146)
(0.00478048 0.00235224 0.0100892)
(0.0050786 0.00189123 0.0100015)
(0.00498297 0.00577244 0.00634938)
(0.0058726 0.00636633 0.00641212)
(0.00523752 0.00629992 0.0065422)
(0.00517546 0.00536833 0.00584259)
(0.0048595 0.00549059 0.00612412)
(0.0055198 0.00542116 0.00587363)
(0.00488706 0.00665156 0.00979562)
(0.00421613 0.00580011 0.00950759)
(0.00445083 0.00628457 0.0099327)
(0.00477474 0.00668669 0.00909962)
(0.0043074 0.00604931 0.00857886)
(0.00476813 0.00706251 0.00929917)
(0.00522331 0.00419658 0.00597832)
(0.00495335 0.00452781 0.00574563)
(0.00441097 0.00425876 0.0065738)
(0.00454568 0.00407876 0.00608013)
(0.00481979 0.00384712 0.00612779)
(0.00478789 0.00438632 0.00551542)
(0.00509201 0.00384819 0.00699853)
(0.00515659 0.0036824 0.00721559)
(0.00477124 0.0041413 0.00714324)
(0.00504456 0.00354165 0.00711393)
(0.0042618 0.00395732 0.00698177)
(0.00454194 0.00330155 0.00636063)
(0.0054585 0.00601409 0.00692708)
(0.00374766 0.00587908 0.00739732)
(0.00466904 0.00599541 0.00727845)
(0.00541884 0.00616981 0.00728372)
(0.00404584 0.00576244 0.0073546)
(0.00425004 0.00562446 0.00705997)
(0.00353015 0.00492036 0.00777083)
(0.00403923 0.00525644 0.00825076)
(0.00410228 0.00570028 0.00791045)
(0.00350766 0.00525364 0.00706403)
(0.00361301 0.0064297 0.00791577)
(0.00405262 0.00652326 0.0123253)
(0.00486579 0.00595608 0.0111559)
(0.00404002 0.0067602 0.0115524)
(0.00615786 0.00633755 0.0128493)
(0.00241741 0.00489973 0.0121689)
(0.00366564 0.00484962 0.0120651)
(0.00640182 0.00459348 0.00515209)
(0.00639892 0.00407066 0.00525441)
(0.00638117 0.00445249 0.00501358)
(0.0060151 0.0040017 0.00474472)
(0.00627543 0.00411726 0.00512198)
(0.00634307 0.00466797 0.00505194)
(0.00960488 0.00633317 0.00848909)
(0.00920368 0.00668932 0.00852194)
(0.00892905 0.00727221 0.00807634)
(0.010211 0.00474255 0.00892526)
(0.0103942 0.00530702 0.00892972)
(0.0101199 0.00528992 0.00942905)
(0.0129424 0.0029917 0.0139121)
(0.0126569 0.00169819 0.0156993)
(0.0110107 0.00119026 0.0129192)
(0.0118526 0.00205217 0.0134003)
(0.0129164 0.00170058 0.0163012)
(0.0129682 0.00194937 0.0152151)
(0.0125135 0.00152193 0.0142707)
(0.0124097 0.00127643 0.0159895)
(0.0126547 0.0018847 0.0146077)
(0.0119316 0.00102199 0.0140488)
(0.0122446 0.00169453 0.0152091)
(0.0121509 0.00124297 0.0140206)
(0.0126034 0.00182949 0.0139186)
(0.012514 0.00159439 0.0145061)
(0.010473 0.00456901 0.0115537)
(0.0113375 0.00504343 0.0124082)
(0.0101901 0.00540069 0.0122435)
(0.0103023 0.00643705 0.0125165)
(0.0106404 0.00406393 0.012425)
(0.00769442 0.00697892 0.0100044)
(0.00857231 0.00796064 0.0106694)
(0.0101819 0.0066399 0.0116396)
(0.0089748 0.00628636 0.0106939)
(0.00786639 0.00784615 0.0101576)
(0.0107444 0.00600934 0.0116634)
(0.00887776 0.00595788 0.00882498)
(0.00980543 0.00708388 0.00994338)
(0.00952375 0.00680518 0.00959378)
(0.00918857 0.00615715 0.00949025)
(0.00914907 0.00562036 0.00886528)
(0.00880379 0.0062846 0.00934486)
(0.0131665 0.000529277 0.0196635)
(0.0118579 -0.00112721 0.0198311)
(0.0125355 0.000537189 0.0172628)
(0.0125952 -0.000684984 0.0202784)
(0.0122204 0.000735517 0.0176271)
(0.011557 -9.55126e-05 0.0198136)
(0.0125696 0.000242114 0.0196719)
(0.0127063 0.000865684 0.018499)
(0.012117 0.000229198 0.0204123)
(0.0121965 7.97911e-05 0.0181499)
(0.0127012 0.0029491 0.010949)
(0.0136033 0.0034683 0.0112803)
(0.0130791 0.00383069 0.00999783)
(0.0123817 0.00386856 0.00962089)
(0.0123967 0.0032509 0.0094709)
(0.0134981 0.00383093 0.0103083)
(0.0118803 0.000377041 0.0219787)
(0.0101018 0.000747053 0.023479)
(0.0112321 0.00131642 0.0234506)
(0.0108811 0.000339686 0.0236035)
(0.0102838 0.000211115 0.0215236)
(0.0106178 -0.000442578 0.0223883)
(0.0141495 0.00433233 0.0177883)
(0.014587 0.00348463 0.0164088)
(0.0160713 0.00460246 0.0177467)
(0.0155596 0.00374257 0.0159249)
(0.0149206 0.00413343 0.0169572)
(0.0143076 0.00361532 0.0156191)
(0.0141205 0.00315258 0.0117705)
(0.0146502 0.00328521 0.0137123)
(0.0142394 0.00335679 0.0136415)
(0.0147134 0.00342296 0.0129251)
(0.0138074 0.00301017 0.0114755)
(0.014094 0.00293931 0.0115059)
(0.013767 0.00303174 0.0122109)
(0.0122659 0.00246263 0.0100032)
(0.0174693 0.00497788 0.00844894)
(0.0170818 0.00465474 0.00961095)
(0.0178788 0.00466383 0.00942915)
(0.017975 0.00509074 0.00866919)
(0.0172531 0.00445979 0.0101399)
(0.0178299 0.00452317 0.0096627)
(0.0175286 0.00533 0.012619)
(0.0169779 0.00489826 0.0111161)
(0.0179948 0.00526758 0.011546)
(0.017124 0.00471707 0.0107689)
(0.016947 0.00450868 0.0104486)
(0.0175639 0.00439504 0.0109931)
(0.0189698 0.00558835 0.0111733)
(0.018645 0.00570508 0.0112949)
(0.0198827 0.00593885 0.0117807)
(0.0187122 0.00492637 0.0106516)
(0.0231713 0.0112635 0.0161962)
(0.0200568 0.008758 0.0151821)
(0.0228913 0.00917509 0.0152372)
(0.0218615 0.0103542 0.0153807)
(0.0195024 0.00982248 0.0152073)
(0.0215096 0.0105375 0.0157154)
(0.0220062 0.00833294 0.0152165)
(0.018433 0.0104703 0.0194453)
(0.0188649 0.0106731 0.0182028)
(0.0177086 0.0100161 0.0173508)
(0.0185518 0.00885179 0.0167346)
(0.0174369 0.00969173 0.0185997)
(0.0178523 0.0101379 0.0179217)
(0.0192106 0.00973528 0.015188)
(0.0184492 0.0100579 0.015393)
(0.018396 0.00993496 0.0161814)
(0.0189799 0.00948516 0.0156297)
(0.0195017 0.0103024 0.0165279)
(0.0181155 0.00924594 0.01439)
(0.0177139 0.0077558 0.015417)
(0.0180283 0.00789045 0.0165317)
(0.0177585 0.00739257 0.0160467)
(0.0181373 0.00743736 0.0151502)
(0.0189252 0.00821955 0.015548)
(0.0190995 0.00796964 0.0166104)
(0.00975252 0.00229542 0.00640612)
(0.0102298 0.00231277 0.00682038)
(0.00641189 0.00308878 0.00411848)
(0.00644137 0.00298784 0.00440859)
(0.00642163 0.0031364 0.00490846)
(0.00694618 0.00304258 0.00482743)
(0.00841788 0.00252179 0.0064463)
(0.0084803 0.00236647 0.00564188)
(0.00766991 0.00260618 0.00592113)
(0.00818446 0.00248516 0.00574607)
(0.00790236 0.00255191 0.00628208)
(0.0143236 0.00327599 0.00816704)
(0.0135049 0.00266026 0.00864445)
(0.0133918 0.00215659 0.00901492)
(0.0150218 0.00262771 0.00988356)
(0.0137317 0.00316189 0.00819951)
(0.0163728 0.00341457 0.00949598)
(0.0184917 0.00712426 0.00824958)
(0.0171776 0.00511329 0.00802698)
(0.0169473 0.00555955 0.00782966)
(0.0182882 0.00659954 0.00886141)
(0.0184746 0.0075924 0.00816354)
(0.0171356 0.00511266 0.00848596)
(0.0148949 0.00318013 0.00953447)
(0.0150473 0.00229913 0.0105618)
(0.0170727 0.00406516 0.00977326)
(0.0145366 0.0030553 0.00862819)
(0.0176239 0.00401283 0.0102413)
(0.0166802 0.00312113 0.0106816)
(0.016936 0.00425641 0.0101021)
(0.0205713 0.00914195 0.0104068)
(0.0193318 0.00813814 0.00944946)
(0.0190978 0.00735581 0.00906593)
(0.00944866 0.00174211 0.00789957)
(0.0117696 0.00251051 0.0081958)
(0.0105567 0.00201909 0.00820047)
(0.00967198 0.00169896 0.00803678)
(0.0103036 0.00139304 0.00890189)
(0.00850727 0.00222191 0.00756032)
(0.00887189 0.00214256 0.00778663)
(0.0086445 0.00204049 0.0082288)
(0.00891106 0.00181491 0.0083877)
(0.00751476 0.00205757 0.00741487)
(0.010085 0.000583949 0.0104936)
(0.0121569 0.000184962 0.0111506)
(0.0123334 0.000585953 0.0118678)
(0.0101014 0.00110896 0.0103527)
(0.0105563 0.00109596 0.00990462)
(0.00681963 0.00253701 0.00724976)
(0.0074357 0.00262649 0.00685621)
(0.00781352 0.00253306 0.00692199)
(0.00721678 0.00240487 0.00732146)
(0.00792382 0.00241665 0.00734522)
(0.00673933 0.0027334 0.00697418)
(0.00440834 0.000479803 0.011404)
(0.00484714 0.000179208 0.0113214)
(0.00532104 0.000486447 0.011125)
(0.0036924 0.000721971 0.0110286)
(0.00502799 0.000974742 0.010673)
(0.00395078 0.00109578 0.0105652)
(0.0113364 -0.000865108 0.0124339)
(0.0103676 -0.000894334 0.0124095)
(0.00886173 -0.00124658 0.0120882)
(0.00881754 -0.00150778 0.0120143)
(0.0103027 -0.00189716 0.0125529)
(0.0133813 0.00557441 0.0132643)
(0.0140877 0.0070052 0.0153709)
(0.012878 0.00442594 0.0128922)
(0.011526 0.00206783 0.0107515)
(0.0103985 0.00338782 0.0111729)
(0.0115652 0.00436661 0.0125547)
(0.0195862 0.0104587 0.0170343)
(0.0201649 0.00944656 0.0149377)
(0.0193426 0.00977438 0.0159553)
(0.0179018 0.00917374 0.01586)
(0.0188522 0.0103001 0.0153725)
(0.0197096 0.00961423 0.0154075)
(0.016653 0.00379436 0.0102209)
(0.0190556 0.00366086 0.0116772)
(0.016618 0.00309711 0.0105279)
(0.0173121 0.00434571 0.0102554)
(0.0185743 0.00459469 0.0112925)
(0.0173957 0.00399379 0.0105905)
(0.0226278 0.0102205 0.0137182)
(0.0225775 0.00875196 0.01314)
(0.0217507 0.00931068 0.0135766)
(0.0238577 0.00967607 0.0130055)
(0.020256 0.00791239 0.0114633)
(0.0210675 0.00919189 0.0129795)
(0.0149221 0.00190146 0.011237)
(0.0142531 0.000864515 0.0116589)
(0.016944 0.00254782 0.011506)
(0.0148396 0.00034824 0.0117897)
(0.0168682 0.00173383 0.012157)
(0.0173064 0.0030168 0.0123619)
(0.0186114 0.00310503 0.0125723)
(0.0164307 0.00219175 0.0123203)
(0.019057 0.00657324 0.0113926)
(0.018199 0.0045296 0.0122803)
(0.0192232 0.00436368 0.012574)
(0.0207648 0.00620921 0.0138404)
(0.022925 0.00697099 0.0138905)
(0.0201423 0.00579768 0.0128254)
(0.00374651 -0.0025867 0.0129755)
(0.00303677 -0.0030687 0.012819)
(0.00420158 -0.00289548 0.0129763)
(0.00275247 -0.00244544 0.0130865)
(0.00373116 -0.00334453 0.0128618)
(0.00333366 -0.00206371 0.0130715)
(0.0086909 -0.00381463 0.0122946)
(0.00914038 -0.00275097 0.012993)
(0.00981127 -0.0026083 0.0121889)
(0.0077097 -0.00369664 0.0132759)
(0.00732501 -0.00356822 0.0122363)
(0.00807699 -0.00391866 0.0126518)
(0.00667839 -0.00452611 0.012689)
(0.00594807 -0.00464534 0.0126306)
(0.00539204 -0.00438851 0.0120967)
(0.0054696 -0.0038913 0.0134259)
(0.00610091 -0.00395816 0.0136173)
(0.00611381 -0.00445127 0.0117981)
(0.00457479 -0.000253977 0.0120066)
(0.00601339 -0.00218099 0.0132224)
(0.00471315 -0.00112877 0.0124183)
(0.00494736 -0.000720965 0.0120634)
(0.00415541 -0.000706295 0.0122071)
(0.00523482 -0.00128105 0.0123379)
(0.0187659 0.00991551 0.0161961)
(0.0179584 0.00938542 0.0160546)
(0.0189388 0.00868544 0.0155902)
(0.0176739 0.00842605 0.0141265)
(0.0205484 0.00922106 0.0154268)
(0.0174221 0.00957991 0.0156892)
(0.0130717 0.00875352 0.0188724)
(0.0125576 0.00763073 0.0162763)
(0.0116728 0.00739107 0.0173489)
(0.0134973 0.00754522 0.0164205)
(0.011741 0.00795973 0.0181423)
(0.0123715 0.00647348 0.0155556)
(0.0112814 0.00745625 0.0207468)
(0.0112129 0.00705509 0.0206385)
(0.0124165 0.0081668 0.0190077)
(0.0109161 0.00831217 0.0202049)
(0.0120933 0.00716546 0.0191169)
(0.00926563 0.00596768 0.0191283)
(0.0107642 0.00264765 0.0229497)
(0.00984981 0.00187208 0.0207314)
(0.0114039 0.00205945 0.0212198)
(0.0112909 0.00212836 0.0217248)
(0.00935942 0.00285017 0.0222483)
(0.0111747 0.00290704 0.0223471)
(0.00892589 0.00492862 0.0145014)
(0.00936735 0.00572835 0.0171104)
(0.0115017 0.00387735 0.00698312)
(0.0109595 0.00453114 0.00640524)
(0.0112216 0.00454317 0.00655291)
(0.0118701 0.00443711 0.00653893)
(0.0113215 0.00394814 0.00645007)
(0.0118804 0.0043776 0.00723032)
(0.00944226 0.00535893 0.00507558)
(0.0108914 0.00528457 0.00574583)
(0.0092942 0.00543175 0.00541272)
(0.00963452 0.00530683 0.00543317)
(0.00975856 0.0054289 0.00505989)
(0.0110533 0.00527146 0.00545197)
(0.0114583 0.00566024 0.00602699)
(0.0102524 0.00552991 0.00452616)
(0.00889031 0.00513981 0.0045609)
(0.0130715 0.00503948 0.0069052)
(0.0117646 0.00524976 0.00573674)
(0.013101 0.00550179 0.00643852)
(0.0119464 0.00484302 0.00636203)
(0.010539 0.00521829 0.00501527)
(0.00546977 0.00436076 0.00449828)
(0.006777 0.0047152 0.00489128)
(0.00615112 0.00510354 0.00496114)
(0.00591103 0.0051113 0.00491332)
(0.00632671 0.005273 0.0049881)
(0.00684043 0.00541271 0.00511523)
(0.00745671 0.00581877 0.00479713)
(0.00723085 0.00540868 0.00469995)
(0.00919406 0.00515824 0.00504331)
(0.00789293 0.00529499 0.00491418)
(0.00891407 0.00517605 0.00524226)
(0.00796056 0.00595135 0.00499724)
(0.00616414 0.00491381 0.00459837)
(0.00640537 0.00506369 0.00476709)
(0.00775093 0.00637275 0.00478664)
(0.00605499 0.00551566 0.00484134)
(0.00719537 0.00498249 0.00448627)
(0.00762461 0.00512743 0.00480005)
(0.00811875 0.00671836 0.00735732)
(0.0076229 0.00621935 0.00747616)
(0.00820328 0.00657289 0.00768125)
(0.00832362 0.00666968 0.00765023)
(0.00752392 0.00700562 0.00736778)
(0.00545048 0.00482229 0.00475836)
(0.00467231 0.00511207 0.00555322)
(0.00504957 0.00474651 0.00519309)
(0.00594709 0.00485437 0.00535036)
(0.00574099 0.00496094 0.00499793)
(0.00501151 0.00464767 0.00525099)
(0.0105543 0.00255179 0.0107659)
(0.00917585 0.000624286 0.00880297)
(0.00989378 0.000439603 0.00927416)
(0.01039 0.00181159 0.0102023)
(0.0100101 0.00114438 0.00972462)
(0.00983663 0.00201349 0.0102341)
(0.00308901 -0.00427162 0.0126665)
(0.00339882 -0.003893 0.0127659)
(0.00463331 -0.00447027 0.0124653)
(0.00355636 -0.0046934 0.0124223)
(0.00381699 -0.0039009 0.0120172)
(0.00515989 -0.00445391 0.0128122)
(0.0148864 0.00806512 0.0199711)
(0.0149724 0.00911949 0.0196909)
(0.0161769 0.00804384 0.0184183)
(0.0166504 0.00927636 0.0191458)
(0.0162905 0.00949073 0.0217491)
(0.0150173 0.00758393 0.0186929)
(0.0158511 0.00603619 0.0160209)
(0.0165142 0.00690755 0.0156463)
(0.017049 0.00639354 0.0159528)
(0.0153952 0.006797 0.0160147)
(0.014836 0.00615655 0.0162651)
(0.0123692 0.0050482 0.00468893)
(0.0136691 0.00468922 0.00607812)
(0.0118384 0.004741 0.00465965)
(0.0139519 0.0053568 0.00532901)
(0.0137144 0.00496109 0.0059025)
(0.0116048 0.00447675 0.00494056)
(0.015691 0.00435362 0.00938455)
(0.014458 0.00433647 0.00844061)
(0.0138963 0.0036185 0.00798894)
(0.0143452 0.00396967 0.00836164)
(0.0146343 0.0040393 0.00912271)
(0.016175 0.00472315 0.010082)
(0.0133172 0.00445209 0.00691493)
(0.0152044 0.00482612 0.00850896)
(0.0167719 0.00482749 0.00737047)
(0.0139039 0.0038417 0.00689561)
(0.0150475 0.00410547 0.0075927)
(0.0161714 0.0043738 0.00769789)
(0.0151052 0.00429997 0.00678773)
(0.0163869 0.00385687 0.0121651)
(0.0149144 0.00306186 0.0114159)
(0.0164327 0.00406895 0.0107594)
(0.0159931 0.00400215 0.0107758)
(0.0181786 0.00484713 0.012085)
(0.0165969 0.00424869 0.0128646)
(0.0129255 0.00235267 0.0144274)
(0.013328 0.00283458 0.0124192)
(0.0143756 0.00287504 0.0140757)
(0.0130439 0.00198646 0.0131498)
(0.01407 0.00247166 0.0152904)
(0.0135261 0.00261605 0.0130154)
(0.00883984 0.00481337 0.00426267)
(0.009467 0.00484399 0.0042598)
(0.00992655 0.00520013 0.00427666)
(0.0103357 0.00539971 0.00435901)
(0.00919448 0.00494805 0.00429012)
(0.0104053 0.00562742 0.00432808)
(0.00688931 0.00381393 0.00395545)
(0.00837349 0.00468813 0.00438149)
(0.00671688 0.00407204 0.00408228)
(0.00750669 0.00441584 0.00407636)
(0.0069862 0.003932 0.00400543)
(0.00805108 0.00427371 0.0040085)
(0.00271918 0.00449172 0.00928498)
(0.00266355 0.00495341 0.0092977)
(0.0025627 0.00445038 0.00905069)
(0.0026597 0.00465801 0.00897598)
(0.00289631 0.00519552 0.00924888)
(0.00285768 0.00501745 0.00897722)
(0.00303898 0.00409209 0.00899283)
(0.00312927 0.00331894 0.00938754)
(0.00317945 0.00397046 0.00892424)
(0.00342464 0.00367913 0.00916861)
(0.00298819 0.00333094 0.0091322)
(0.00277501 0.00374596 0.00904223)
(0.00194268 0.00309128 0.00895268)
(0.00233116 0.00357714 0.00873818)
(0.00188885 0.00279455 0.00956964)
(0.00232647 0.00274159 0.00952907)
(0.00271258 0.00309298 0.00916001)
(0.0024797 0.00358269 0.0090873)
(0.0116475 0.0013266 0.0195467)
(0.00273851 0.00293878 0.00935047)
(0.00358616 0.00345636 0.00901566)
(0.00364481 0.00377669 0.00865421)
(0.00389475 0.00426287 0.00791091)
(0.00367987 0.00401631 0.00834064)
(0.00400307 0.00456354 0.00774629)
(0.00314574 0.00504841 0.00838355)
(0.0025782 0.00425645 0.00924707)
(0.00261767 0.00392735 0.00911163)
(0.00381321 0.00519191 0.00761381)
(0.00369986 0.0049427 0.00711895)
(0.00720883 0.00355831 0.00405708)
(0.00671024 0.00354927 0.00385656)
(0.0123672 0.00427336 0.00827393)
(0.0109748 0.0044341 0.00748195)
(0.00988105 0.00462001 0.00657705)
(0.013388 0.00272351 0.0130672)
(0.0125036 0.00171827 0.0147511)
(0.0147841 0.00374635 0.00900366)
(0.0133196 0.00394752 0.0073329)
(0.0154 0.00414024 0.00819964)
(0.0157516 0.00412728 0.00968569)
(0.0158641 0.00365412 0.0102566)
(0.0149971 0.00338499 0.0114864)
(0.0137514 0.00481569 0.00647469)
(0.0143391 0.00465695 0.00765338)
(0.0139649 0.00374481 0.00712654)
(0.0118265 0.00509599 0.00551941)
(0.0126094 0.00450323 0.00603157)
(0.012871 0.00496293 0.00582707)
(0.014739 0.00477197 0.00784881)
(0.013912 0.00495707 0.00683559)
(0.0180004 0.00870601 0.018104)
(0.0113933 -0.00277696 0.0121722)
(0.0123924 -0.00125663 0.0125266)
(0.01339 0.000396357 0.0116537)
(0.0123837 -0.000228507 0.012068)
(0.00505758 0.00545088 0.00579214)
(0.00637737 0.0065994 0.00926044)
(0.00612155 0.00637717 0.00790712)
(0.0051123 0.00710808 0.00889359)
(0.00656074 0.00667471 0.00570406)
(0.00648682 0.00590725 0.00572363)
(0.00709009 0.0056392 0.00575017)
(0.00750494 0.00655277 0.00610634)
(0.00843004 0.00589135 0.00634838)
(0.00929768 0.00632563 0.00625785)
(0.0107607 0.00512093 0.0076816)
(0.00672456 0.00582436 0.00520515)
(0.0054893 0.00548751 0.00484854)
(0.00685943 0.0045023 0.0046746)
(0.00711937 0.00536456 0.00460821)
(0.0070146 0.00502093 0.00449202)
(0.0064013 0.0047238 0.00487246)
(0.00698042 0.00491566 0.00452555)
(0.00774002 0.00557862 0.00530252)
(0.00596602 0.00444716 0.00529794)
(0.00582527 0.00509068 0.004759)
(0.00793142 0.00557075 0.00554087)
(0.00689499 0.00539174 0.00457546)
(0.00776482 0.00567419 0.00560731)
(0.00865344 0.00522212 0.00590011)
(0.00821668 0.00556495 0.00574267)
(0.00859246 0.00671314 0.00571133)
(0.00780992 0.00505363 0.00502942)
(0.00880195 0.00644568 0.00573197)
(0.00699242 0.00523818 0.00440877)
(0.00847535 0.00628834 0.00516849)
(0.00974038 0.00615725 0.0050429)
(0.00870359 0.00537692 0.00489241)
(0.00833482 0.00494306 0.00466483)
(0.0132453 0.00452994 0.00862285)
(0.00947712 0.00564292 0.00517278)
(0.0132896 0.00427345 0.00739715)
(0.0122619 0.00475618 0.00816658)
(0.0120122 0.0040837 0.00774123)
(0.010158 0.00571359 0.00545332)
(0.0120442 0.00515351 0.0063629)
(0.00992703 0.00347066 0.0114781)
(0.0116392 0.00179707 0.0210944)
(0.0110133 0.00159917 0.0214895)
(0.011635 0.00143847 0.0212648)
(0.0113602 0.0013045 0.0218322)
(0.00873463 0.00607073 0.0181876)
(0.0108104 0.00231617 0.0230868)
(0.0102055 0.00218129 0.0229686)
(0.0103981 0.00172485 0.0235372)
(0.011081 0.00173502 0.0235419)
(0.0110357 0.00293798 0.0253546)
(0.0101138 0.00255704 0.0251155)
(0.0111516 0.00456009 0.026638)
(0.00953916 0.00672411 0.0215257)
(0.00880978 0.00576293 0.0241117)
(0.00846276 0.00455123 0.0241308)
(0.00944706 0.00438988 0.0116951)
(0.0106877 0.00447304 0.0131135)
(0.00943195 0.00574391 0.0157394)
(0.00982123 0.00468474 0.0137397)
(0.00935418 0.00627174 0.0170164)
(0.00864374 0.00721287 0.0199405)
(0.00932869 0.00680432 0.019136)
(0.00976086 0.00768384 0.0205191)
(0.0148152 0.0088835 0.0184398)
(0.0146601 0.00844613 0.0186064)
(0.0140265 0.00864871 0.0199817)
(0.0154872 0.00847725 0.0209179)
(0.013007 0.00816652 0.0195642)
(0.013266 0.00783238 0.0207717)
(0.0109675 0.00629714 0.0215275)
(0.0118914 0.00697272 0.0210589)
(0.0137273 0.00808556 0.0209722)
(0.0133376 0.00778226 0.0210545)
(0.0131598 0.00738272 0.0210178)
(0.0161103 0.00922956 0.016372)
(0.0159812 0.00918596 0.0168467)
(0.0157321 0.00887239 0.017575)
(0.0159908 0.00991021 0.0166775)
(0.0153204 0.00712078 0.0152974)
(0.0149843 0.00787429 0.0150913)
(0.0170629 0.00801125 0.0158425)
(0.0147716 0.00625689 0.013644)
(0.0103018 0.00706215 0.0180172)
(0.0100411 0.00765221 0.0191301)
(0.0102545 0.00420706 0.0120104)
(0.010541 0.00624634 0.0158827)
(0.0106598 0.00599519 0.0152912)
(0.0122771 0.00590428 0.0146005)
(0.015012 0.0071055 0.0151099)
(0.0114308 0.0085866 0.0202352)
(0.00188092 0.00160956 0.0123684)
(0.0014031 0.00149977 0.012188)
(0.00129416 0.00187818 0.0118107)
(0.0174102 0.0097548 0.0184438)
(0.0157578 0.00968907 0.0200022)
(0.0160066 0.00890075 0.017825)
(0.0169375 0.00902825 0.0166468)
(0.016905 0.00963725 0.0187438)
(0.0176395 0.00990091 0.0190101)
(0.0163447 0.00766181 0.014684)
(0.0191153 0.0100874 0.017358)
(0.0175925 0.0100205 0.0175171)
(0.017419 0.00990009 0.0167182)
(0.0181218 0.0104452 0.0163953)
(0.0158756 0.00770344 0.0142576)
(0.0167645 0.00756393 0.0142199)
(0.012612 -2.35752e-05 0.0111113)
(0.0101296 0.000543792 0.00966042)
(0.00932661 -0.00060947 0.00848984)
(0.0111867 -0.000896771 0.0107047)
(0.013271 -0.00160131 0.0124767)
(0.0121031 -0.000493412 0.011618)
(0.01239 -0.00234656 0.0122426)
(0.0108118 -0.00190746 0.0103091)
(0.0109841 -0.00081105 0.0102362)
(0.0101382 -0.000416148 0.00931429)
(0.012474 0.000928894 0.0109537)
(0.0132552 -0.000599183 0.0112667)
(0.0134962 -0.000651268 0.0114529)
(0.0134409 0.00725192 0.0139022)
(0.014395 0.00126363 0.0119854)
(0.0129594 0.000724904 0.0117605)
(0.0108418 0.00182456 0.0102592)
(0.012535 0.000803542 0.0109959)
(0.0121342 0.000311063 0.010249)
(0.012655 0.00246367 0.0114186)
(0.00822966 -0.00217419 0.0124819)
(0.00778089 -0.00204401 0.0126837)
(0.00706147 -0.00183615 0.0128636)
(0.00502457 -0.00509213 0.0120239)
(0.00763252 -0.00365435 0.0121395)
(0.0100731 -0.00257084 0.0114158)
(0.0115891 -0.00275823 0.0122352)
(0.00647288 -0.00355279 0.0125915)
(0.00788912 -0.00285833 0.0123788)
(0.0109194 -0.00229493 0.0140586)
(0.00374506 -0.000317263 0.0123521)
(0.0032271 -0.000723903 0.0123841)
(0.00300727 -0.000307098 0.0125619)
(0.0029078 -0.0003191 0.0126795)
(0.00283119 -0.00353537 0.0127266)
(0.00389731 -0.00404447 0.0128071)
(0.00327013 -0.00118827 0.0131041)
(0.00290258 -0.00128529 0.0130846)
(0.00470264 -0.00292455 0.0124889)
(0.015786 0.00756649 0.013365)
(0.0175445 0.00699576 0.0136505)
(0.0171988 0.00582106 0.0126343)
(0.0185935 0.00784217 0.0140156)
(0.019902 0.00794109 0.0137842)
(0.0187068 0.00924002 0.0140943)
(0.0179423 0.00509781 0.0126241)
(0.0154367 0.00627584 0.0130735)
(0.0188215 0.00576081 0.0139213)
(0.01655 0.0043136 0.0131223)
(0.015304 0.00108929 0.0126287)
(0.0159664 0.00262234 0.0119602)
(0.0129872 0.00177659 0.010332)
(0.0139982 0.00331627 0.0117336)
(0.0147027 0.0044425 0.0119843)
(0.0136782 0.000690989 0.0118204)
(0.0131783 -0.000780671 0.0125877)
(0.014521 -0.000642504 0.0127613)
(0.0143002 -0.000179319 0.0122904)
(0.013641 8.59811e-05 0.0122269)
(0.0198973 0.00824829 0.0132879)