# vtk DataFile Version 2.0
Vessel Segment
ASCII
DATASET POLYDATA
POINTS 400 float
-3.212443487045986 30.51752464191265 -2.752751830681123
-3.2584906326808056 30.262579749609294 -2.8662476412578344
-3.304537778315626 30.00763485730594 -2.9797434518345463
-3.3505849239504455 29.75268996500258 -3.093239262411257
-3.396632069585265 29.497745072699228 -3.206735072987968
-3.4426792152200845 29.24280018039587 -3.3202308835646797
-3.488726360854905 28.987855288092515 -3.433726694141391
-3.5347735064897243 28.73291039578916 -3.547222504718103
-3.5808206521245447 28.4779655034858 -3.6607183152948144
-3.626867797759364 28.22302061118245 -3.774214125871526
-3.6729149433941837 27.968075718879092 -3.8877099364482364
-3.7189620890290036 27.713130826575735 -4.001205747024948
-3.765009234663823 27.45818593427238 -4.114701557601659
-3.811056380298643 27.203241041969022 -4.22819736817837
-3.8571035259334625 26.948296149665666 -4.341693178755081
-3.9031506715682824 26.693351257362313 -4.455188989331792
-3.949197817203102 26.438406365058952 -4.568684799908503
-3.9952449628379214 26.1834614727556 -4.682180610485215
-4.041292108472741 25.92851658045224 -4.795676421061926
-4.087339254107562 25.673571688148883 -4.909172231638638
-4.133386399742381 25.41862679584553 -5.022668042215349
-4.179433545377201 25.163681903542173 -5.13616385279206
-4.22548069101202 24.908737011238816 -5.249659663368772
-4.27152783664684 24.65379211893546 -5.363155473945482
-4.317574982281659 24.398847226632103 -5.476651284522194
-4.3636221279164795 24.14390233432875 -5.590147095098905
-4.4096692735513 23.888957442025394 -5.703642905675617
-4.455716419186119 23.634012549722037 -5.817138716252328
-4.501763564820939 23.37906765741868 -5.9306345268290395
-4.547810710455758 23.124122765115324 -6.0441303374057505
-4.593857856090579 22.869177872811967 -6.157626147982462
-4.639905001725398 22.61423298050861 -6.271121958559174
-4.685952147360218 22.359288088205258 -6.384617769135884
-4.731999292995037 22.1043431959019 -6.498113579712596
-4.778046438629858 21.849398303598548 -6.611609390289306
-4.824093584264676 21.59445341129519 -6.725105200866017
-4.8701407298994965 21.339508518991835 -6.838601011442729
-4.916187875534316 21.084563626688478 -6.95209682201944
-4.9622350211691355 20.82961873438512 -7.065592632596151
-5.008282166803956 20.574673842081765 -7.179088443172864
-5.054329312438775 20.319728949778412 -7.292584253749575
-5.100376458073596 20.064784057475052 -7.406080064326286
-5.146423603708415 19.8098391651717 -7.519575874902998
-5.192470749343235 19.554894272868342 -7.633071685479708
-5.238517894978054 19.299949380564986 -7.746567496056418
-5.298193412721287 19.03346675321998 -7.800323299846134
-5.36675427362682 18.75946182355264 -7.815130177337237
-5.44368954867042 18.489786467146025 -7.797272681597857
-5.528129617295649 18.2239910900529 -7.750142764585001
-5.615486952130215 17.9607409754594 -7.696710388655986
-5.714126870091183 17.707334712496113 -7.6189031317528935
-5.812766788052152 17.453928449532825 -7.541095874849801
-5.921680563441982 17.20728925568248 -7.456229498174413
-6.035861195770405 16.964119176053174 -7.367744288532876
-6.150041828098829 16.720949096423865 -7.2792590788913385
-6.281888518295132 16.485771788386874 -7.193819958593249
-6.414045997935622 16.250735092876983 -7.108434426504881
-6.551877470793394 16.017835195192855 -7.027059508008167
-6.704395273294915 15.79046609672709 -6.956065496048538
-6.8569130757964345 15.563096998261331 -6.885071484088912
-7.023599120035056 15.341745062884641 -6.83080181874893
-7.1977559264383935 15.123565913177398 -6.785350722309311
-7.3759875981006084 14.907976450812512 -6.747606018694378
-7.570406932114732 14.702674686722741 -6.740475452497953
-7.764826266128857 14.49737292263297 -6.733344886301528
-7.972392678229909 14.310795609823197 -6.778481642227
-8.180199236121084 14.124855482348396 -6.82531010285987
-8.385100839715683 13.965822287154836 -6.938103331477718
-8.583284152045898 13.814552238844184 -7.067298155068704
-8.760868688931682 13.687084570199753 -7.246781475910961
-8.911866332618263 13.573455351715033 -7.454421888376958
-9.044437446696628 13.469417122658419 -7.681577085011187
-9.134912683039689 13.368595137819229 -7.929574322489945
-9.214852730753952 13.263590825392189 -8.179215237506924
-9.269318922074678 13.144204139419944 -8.429772197032552
-9.314650742729413 13.008237698063647 -8.672642624129704
-9.349683167365976 12.853576869011821 -8.906846155128353
-9.379629981342031 12.672672036965096 -9.12076393348787
-9.406802364874116 12.477449915266977 -9.323614917030024
-9.433263401399422 12.25726983290156 -9.497709006868547
-9.45947414132228 12.02830797075839 -9.661684613431772
-9.485992452850628 11.784227725097843 -9.800850336122226
-9.512639394745237 11.533824778725046 -9.92964024910704
-9.537891004262182 11.277672927661154 -10.046157438038163
-9.56185815954212 11.016229000596718 -10.151377137809948
-9.58392881108633 10.753889073542746 -10.254615409627762
-9.598927664947428 10.488208087607248 -10.35046521320786
-9.613926518808523 10.222527101671746 -10.446315016787958
-9.613881031056552 9.957796109986038 -10.545668554709332
-9.611014544598294 9.69324325388237 -10.645679085824435
-9.594412324825743 9.432558797360281 -10.75288616984767
-9.563120760094781 9.176011306414807 -10.867789431844093
-9.5253216099026 8.922485485111414 -10.986089028118174
-9.456579745239372 8.683327306233602 -11.120537747969351
-9.387837880576145 8.44416912735579 -11.254986467820526
-9.283172191243011 8.227944763796362 -11.40350330671615
-9.174344085491725 8.014377692167542 -11.553650188354194
-9.044612805158428 7.816450417037348 -11.707005323656954
-8.900519998144041 7.629268464528872 -11.862564689729775
-8.75052726164326 7.446190490367144 -12.016792467772655
-8.578783044745872 7.2782427995017285 -12.16611103274844
-8.407038827848487 7.110295108636312 -12.31542959772422
-8.21923331924492 6.9487179619729 -12.451336652977647
-8.026401263705997 6.7891345428390615 -12.583046437903963
-7.828836351300942 6.628959364451602 -12.705796917780159
-7.620113446269575 6.467389078294094 -12.807425301105864
-7.411390541238208 6.305818792136583 -12.90905368443157
-7.193802574837736 6.135779475296575 -12.968700913103042
-6.975367130018781 5.964930539613554 -13.024334844960071
-6.758034320211429 5.786878061811908 -13.034412421554421
-6.541199211097223 5.605574092929547 -13.023927047260532
-6.339191752744913 5.4238168105072955 -12.957280412557715
-6.144716612352393 5.2418292487391955 -12.862104344756192
-5.988400554955673 5.076561404382891 -12.698970271726829
-5.84191945396342 4.915602827412759 -12.518320997432703
-5.754296406750523 4.794514183997503 -12.278740340877217
-5.671534017242809 4.677341535483572 -12.035640432534384
-5.638907764981013 4.604311276611497 -11.764346043164501
-5.6062815127192165 4.531281017739422 -11.49305165379462
-5.61049100105145 4.499489402869166 -11.212142328492794
-5.615402849886727 4.468484100267345 -10.931049671700164
-5.637493974299575 4.462455084781581 -10.649709800805441
-5.66560524308054 4.4651785253315355 -10.36828329851711
-5.698517186562848 4.477408479919464 -10.087959799200572
-5.739155672540175 4.504938884811463 -9.809411550211099
-5.779794158517502 4.532469289703463 -9.530863301221626
-5.825276049575171 4.5752218243152 -9.255010169826667
-5.87089091364602 4.618392274096591 -8.979231031397708
-5.916245954524034 4.665290403523525 -8.704038294954794
-5.961401586854169 4.715049444545629 -8.429295609052922
-6.005662962059656 4.7645327744717685 -8.154364611351413
-6.046181168286996 4.81286203674455 -7.878645380749999
-6.086699374514335 4.861191299017331 -7.602926150148585
-6.120291788178523 4.9031103505891025 -7.325261580815168
-6.152745350566489 4.943975331226591 -7.04727712729847
-6.179209083978401 4.978680309827406 -6.767937061567961
-6.200693281465399 5.008264282208877 -6.487470032155198
-6.219044651949663 5.034666868655086 -6.206583147845355
-6.226924406251539 5.050435528487079 -5.9242928795214285
-6.2348041605534155 5.066204188319071 -5.642002611197502
-6.22819182348164 5.066554742615122 -5.359331178529921
-6.219911428275508 5.0651306533699145 -5.076615873361975
-6.20151177422678 5.051318149869351 -4.795086539210706
-6.174835186450142 5.02737268254402 -4.514527256686822
-6.144035038908372 4.9970485795349555 -4.235409128935413
-6.097821323944283 4.942881598824682 -3.9616779332322194
-6.051607608980193 4.888714618114408 -3.6879467375290256
-5.98890016836968 4.799674929633605 -3.4272520542479867
-5.924436722502124 4.706922516721396 -3.167945303859586
-5.851556443809369 4.585981626749874 -2.9241590925429026
-5.7738939127628095 4.44902468732522 -2.689191297375089
-5.694439726917648 4.29477813862815 -2.4674564138665005
-5.612255498805382 4.11418646801794 -2.26588524056299
-5.530820917184315 3.928487927680643 -2.069537356338881
-5.4539809302823326 3.7114893052985014 -1.9052030901364094
-5.3771409433803505 3.4944906829163602 -1.740868823933938
-5.311445115707579 3.255772436604297 -1.605212141949952
-5.248055048505206 3.01256033398064 -1.475488939443204
-5.192750884823273 2.76202887825585 -1.3578804324575362
-5.147860356358379 2.502071008645801 -1.2558741422931767
-5.102969827893486 2.2421131390357516 -1.1538678521288173
-5.0781894196980435 1.9729115365048844 -1.0708870655539626
-5.054097289330179 1.703393563095663 -0.9885574353174953
-5.0391353937515895 1.4318954807438304 -0.9116639249807797
-5.035962650319259 1.157840639871611 -0.8417896475622341
-5.032789906886929 0.8837857989993915 -0.7719153701436885
-5.046195830956213 0.6086766089084839 -0.7079892019780962
-5.062114909088043 0.3334075904102483 -0.6449647054897993
-5.08235402139141 0.05831560257790866 -0.5828046678916489
-5.113579814530197 -0.21632616209716526 -0.5228431161258424
-5.144805607668983 -0.49096792677223916 -0.462881564360036
-5.182716901634045 -0.7648693687611245 -0.40356113000536054
-5.223609129697792 -1.0384407153395632 -0.34452655736871673
-5.2647576647794105 -1.3119756443931594 -0.28550598432623187
-5.308001015366882 -1.5852129304233271 -0.22659983096356412
-5.351244365954354 -1.8584502164534953 -0.1676936776008964
-5.390991990297938 -2.132231871377799 -0.1089400762772341
-5.427873034069018 -2.406459922040022 -0.05031157133721267
-5.46424216891779 -2.6807486738489215 0.00828268568470576
-5.484852792044293 -2.9569060387836537 0.0658226609870239
-5.505463415170797 -3.233063403718386 0.12336263628934202
-5.510782079642324 -3.5098828400035056 0.1796187011961044
-5.5046605958005115 -3.787197581998858 0.2349142530856925
-5.49207356836524 -4.06406268749573 0.2896036507342394
-5.449749385316186 -4.338859767260248 0.3415051462162877
-5.407425202267133 -4.613656847024765 0.39340664169833606
-5.3300885742296495 -4.88088247683776 0.4419810653205869
-5.246027622996416 -5.14665397008442 0.489916507389617
-5.14083182464528 -5.404145551130605 0.5362319060986654
-5.0158280861476925 -5.653877056867518 0.5810289724663366
-4.885200071244172 -5.900290253146424 0.6257222281491492
-4.725839403150894 -6.12975125363128 0.6698851478046848
-4.566478735057613 -6.359212254116143 0.7140480674602214
-4.38821142363534 -6.5733448802580225 0.7605272335079515
-4.20342220350787 -6.782189933332362 0.8078053963551541
-4.014387874525279 -6.986461805549264 0.8568692528336009
-3.812222312735956 -7.176587632386465 0.911456727102221
-3.610056750946633 -7.366713459223664 0.9660442013708412
-3.399872569386689 -7.545094445612804 1.0283402579566279
-3.185993473634266 -7.718063505897286 1.0941883660203928
-2.9712272857316635 -7.889185767060083 1.1615363125279716
-2.748831839354415 -8.044425002037565 1.2417833193595011
-2.5264363929771663 -8.199664237015046 1.3220303261910304
-2.299986490349079 -8.343085635868539 1.4112263063006556
-2.070217307346719 -8.476832072387783 1.5077485835840947
-1.8399975877186312 -8.60881314283036 1.6052816063551825
-1.6029567852628048 -8.714066734212244 1.7181172222903243
-1.3659159828069785 -8.819320325594127 1.830952838225466
-1.1245446782353392 -8.899880213037758 1.9529580933556852
-0.8809659180062684 -8.967852586377102 2.079637534383163
-0.6361554936681552 -9.020711124476506 2.209315961028536
-0.3889951674755496 -9.04473385482761 2.3447161764419233
-0.14190660928700682 -9.065714521559357 2.4802852048699986
0.10420345266007566 -9.045219215025615 2.6181558564592313
0.35031351460715815 -9.02472390849187 2.756026508048464
0.5926008307662772 -8.974841323413443 2.892266745653707
0.8338218092876082 -8.916761289976556 3.0280521866565238
1.0723776478752596 -8.846824377352466 3.162244119113322
1.3075449834292765 -8.7618124322366 3.294410038423843
1.5425795171494958 -8.67636473548788 3.4265014808872616
1.7727232321550277 -8.574869201295304 3.5558500940749003
2.0028669471605594 -8.473373667102727 3.6851987072625385
2.2312828845729085 -8.367220286574875 3.8137897507217833
2.4582963558772675 -8.257286053900758 3.9417658621013985
2.6852549975732205 -8.147211867647039 4.069716807529958
2.9109370181080076 -8.033879082499457 4.197081803385082
3.136619038642795 -7.920546297351874 4.324446799240204
3.3622966714896005 -7.806643966438779 4.451308408791023
3.587970250629879 -7.692215442367945 4.5777049487283765
3.8136482618164393 -7.5777832823816755 4.704090150120064
4.040250103761063 -7.462593239850802 4.828111906599277
4.266851945705699 -7.347403197319924 4.952133663078497
4.494261923074117 -7.231516054908859 5.073984650152088
4.722465512823888 -7.11494434023469 5.193703878826481
4.950705893329873 -6.99834229719536 5.313320399267282
5.181003694609244 -6.8800442246387545 5.427193247244442
5.411301495888615 -6.76174615208215 5.5410660952216
5.643011902052657 -6.642981674769805 5.651481871876138
5.8759369787562745 -6.5238161453851795 5.758924982405585
6.109039173111631 -6.404720090619789 5.8660496456251705
6.3451532737018415 -6.286805459821968 5.967759075362226
6.581267374292052 -6.168890829024147 6.069468505099282
6.819522929322958 -6.053638344701589 6.169156416530642
7.059410784503218 -5.940415052318206 6.2673034478154985
7.299590262303111 -5.827813411072663 6.365421993513832
7.543459946487033 -5.723078172647201 6.463180081256706
7.787329630670955 -5.6183429342217375 6.56093816899958
8.033339210017415 -5.521032665219607 6.660749223988878
8.280898324392368 -5.429098944755156 6.762046868001963
8.528701109736595 -5.338826532993655 6.864088367224088
8.778724869242382 -5.263696358793846 6.9729098419358735
9.028748628748167 -5.188566184594035 7.0817313166476605
9.278879812005071 -5.126536734455865 7.197740872507446
9.529072117137174 -5.071961323231578 7.317840296708954
9.77868068212495 -5.022010131902488 7.440645897044303
10.025922658594457 -4.990806367517217 7.574422826710034
10.273164635063964 -4.9596026031319465 7.708199756375764
10.515629056405002 -4.947595298933671 7.852823341328037
10.75669127370862 -4.941222122077646 8.000630400552469
10.994797020906322 -4.9432859157942985 8.152667812648708
11.227324773726899 -4.961267805323978 8.312686663314192
11.459852526547476 -4.9792496948536575 8.472705513979676
11.68430840781748 -5.01783209341612 8.640237723700988
11.907841007887118 -5.058770830603255 8.808629330542832
12.128178469305315 -5.108260109752808 8.97856476420954
12.343941564453555 -5.169990895456413 9.150710439785819
12.559704659601797 -5.231721681160018 9.322856115362098
12.770093759222593 -5.310590977489619 9.494530603482419
12.979775919737516 -5.3917148129821335 9.666143107770205
13.187746257679896 -5.479147605594731 9.836469553494567
13.392196169799353 -5.57955499961605 10.004151172676103
13.596646081918811 -5.679962393637369 10.171832791857643
13.795871083233834 -5.795968294638272 10.335422699392002
13.993479479256438 -5.916800427106249 10.497746617333148
14.18842967166056 -6.042809361057316 10.65897621111084
14.374303144765623 -6.18649503489476 10.816469118509525
14.560176617870686 -6.330180708732206 10.973962025908211
14.730561377370968 -6.493106055796288 11.129589009464269
14.895817865187961 -6.662401607250585 11.284598190622436
15.048846046497882 -6.84157839099473 11.439685415176802
15.180871117510012 -7.037726994307004 11.594906685607222
15.309004295702909 -7.2358510434697 11.750202034455464
15.394114351615457 -7.455812756804711 11.906316286849169
15.479224407528001 -7.675774470139711 12.062430539242866
15.516227066546513 -7.909005875953951 12.21686108328714
15.545826989787665 -8.14427921364588 12.371032539356559
15.540918215806599 -8.382988743677721 12.520520218138733
15.517815662726651 -8.623509913365824 12.667538501777887
15.479259008162323 -8.863825587987748 12.810153319596942
15.415491561938458 -9.103806031648126 12.945584616621678
15.351538663735187 -9.343782862877116 13.080912301517934
15.262518086040416 -9.583271399117656 13.202234659339574
15.173497508345644 -9.822759935358194 13.323557017161212
15.078501592968097 -10.063847268412468 13.436521176067682
14.978514667650517 -10.306270025707697 13.542503996666419
14.878563029630609 -10.54889245874399 13.648022818054873
14.779759161245142 -10.798009629758077 13.738449404019153
14.680955292859679 -11.047126800772165 13.82887598998344
14.587434026728074 -11.300565491742367 13.912081029263017
14.499159447090584 -11.558296321188678 13.988113620261153
14.410884867453094 -11.816027150634989 14.064146211259287
14.338254818510379 -12.081469270004364 14.129393199698157
14.265874925562775 -12.347034692874622 14.194467726387057
14.201396603725822 -12.615037552568543 14.257218515254705
14.145260342090978 -12.885613728940513 14.317516024827974
14.089248489697336 -13.156203288098466 14.37785611122704
14.044442952328586 -13.427998318121903 14.442031357442414
13.999637414959832 -13.699793348145342 14.506206603657784
13.956381594189487 -13.969723350471218 14.578399019056707
13.914308019326885 -14.238230562742755 14.656707562700397
13.870719990304588 -14.504996030050783 14.73929101373799
13.819767002075176 -14.763291197664824 14.842663815426233
13.768814013845764 -15.021586365278862 14.946036617114475
13.700403698408323 -15.26182786191405 15.077583713737358
13.628341946629487 -15.498293188834245 15.215023845599342
13.54090068067096 -15.715309613803033 15.370963387207912
13.43836474563571 -15.913237351350876 15.545059709646923
13.332427264828326 -16.10540514669981 15.722253541024067
13.198342535068523 -16.24991033866633 15.925078765025194
13.064257805308717 -16.394415530632845 16.127903989026326
12.918573467840444 -16.512077880130192 16.337447763728115
12.759725769122825 -16.599278679438825 16.554615822989142
12.600878070405209 -16.686479478747465 16.771783882250173
12.442030371687592 -16.7736802780561 16.9889519415112
12.283182672969971 -16.860881077364734 17.20612000077223
12.124334974252353 -16.94808187667337 17.423288060033258
11.965487275534734 -17.03528267598201 17.64045611929429
11.806639576817116 -17.122483475290647 17.857624178555316
11.647791878099497 -17.209684274599283 18.074792237816343
11.488944179381878 -17.296885073907916 18.29196029707737
11.330096480664258 -17.384085873216552 18.5091283563384
11.171248781946641 -17.47128667252519 18.726296415599432
11.012401083229022 -17.55848747183382 18.943464474860463
10.853553384511395 -17.64568827114246 19.160632534121504
10.694705685793776 -17.7328890704511 19.37780059338253
10.535857987076156 -17.820089869759737 19.59496865264356
10.377010288358537 -17.907290669068374 19.81213671190459
10.218162589640919 -17.99449146837701 20.02930477116562
10.0593148909233 -18.081692267685646 20.246472830426647
9.900467192205681 -18.16889306699428 20.463640889687674
9.741619493488063 -18.25609386630292 20.68080894894871
9.582771794770444 -18.343294665611552 20.897977008209736
9.423924096052826 -18.430495464920188 21.115145067470763
9.265076397335207 -18.517696264228828 21.33231312673179
9.106228698617587 -18.604897063537464 21.54948118599282
8.94738099989997 -18.692097862846097 21.76664924525385
8.78853330118235 -18.779298662154734 21.98381730451488
8.629685602464733 -18.86649946146337 22.200985363775906
8.470837903747114 -18.953700260772006 22.418153423036937
8.311990205029497 -19.040901060080643 22.63532148229796
8.153142506311882 -19.128101859389275 22.852489541558988
7.9942948075942635 -19.215302658697915 23.069657600820015
7.835447108876646 -19.302503458006548 23.286825660081043
7.676599410159029 -19.38970425731518 23.503993719342066
7.517751711441413 -19.476905056623817 23.721161778603093
7.358904012723796 -19.564105855932453 23.938329837864117
7.2000563140061775 -19.651306655241086 24.155497897125148
7.04120861528856 -19.738507454549723 24.37266595638618
6.88236091657094 -19.82570825385836 24.589834015647206
6.723513217853322 -19.912909053166995 24.807002074908233
6.564665519135703 -20.00010985247563 25.024170134169264
6.4058178204180845 -20.08731065178427 25.24133819343029
6.246970121700466 -20.174511451092904 25.458506252691322
6.088122422982846 -20.26171225040154 25.675674311952353
5.929274724265228 -20.348913049710177 25.89284237121338
5.770427025547609 -20.436113849018813 26.110010430474407
5.611579326829994 -20.523314648327446 26.327178489735434
5.452731628112379 -20.610515447636082 26.544346548996458
5.29388392939476 -20.697716246944715 26.761514608257485
5.135036230677143 -20.78491704625335 26.978682667518513
4.976188531959524 -20.872117845561988 27.195850726779543
4.8173408332419045 -20.959318644870624 27.413018786040567
4.658493134524287 -21.04651944417926 27.6301868453016
4.499645435806667 -21.133720243487897 27.84735490456263
4.3407977370890505 -21.220921042796533 28.064522963823656
4.1819500383714345 -21.308121842105166 28.281691023084683
4.023102339653819 -21.395322641413802 28.49885908234571
3.864254640936199 -21.48252344072244 28.716027141606737
3.70540694221858 -21.56972424003107 28.93319520086776
3.546559243500962 -21.65692503933971 29.150363260128792
3.387711544783344 -21.744125838648344 29.36753131938982
3.2288638460657286 -21.83132663795698 29.584699378650846
3.070016147348113 -21.918527437265613 29.80186743791187
2.9111684486304954 -22.005728236574253 30.0190354971729
2.752320749912869 -22.092929035882893 30.23620355643394
2.593473051195253 -22.18012983519153 30.453371615694962
2.434625352477636 -22.26733063450016 30.67053967495599
2.275777653760019 -22.354531433808795 30.887707734217017
2.116929955042402 -22.441732233117428 31.10487579347804
1.958082256324785 -22.528933032426067 31.32204385273907
1.7992345576071689 -22.616133831734697 31.539211912000095
1.6403868588895532 -22.703334631043333 31.756379971261115
1.4815391601719379 -22.79053543035197 31.973548030522142
1.3226914614543215 -22.877736229660606 32.190716089783166
1.163843762736703 -22.96493702896924 32.40788414904419
1.0049960640190847 -23.052137828277875 32.62505220830522
0.8461483653014656 -23.13933862758651 32.84222026756625
0.6873006665838469 -23.226539426895144 33.059388326827275
0.5284529678662325 -23.313740226203784 33.2765563860883
0.369605269148618 -23.400941025512417 33.49372444534933
LINES 1 401
400 0 1 2 3 4 5 6 7 8 9 10 11 12 13 14 15 16 17 18 19 20 21 22 23 24 25 26 27 28 29 30 31 32 33 34 35 36 37 38 39 40 41 42 43 44 45 46 47 48 49 50 51 52 53 54 55 56 57 58 59 60 61 62 63 64 65 66 67 68 69 70 71 72 73 74 75 76 77 78 79 80 81 82 83 84 85 86 87 88 89 90 91 92 93 94 95 96 97 98 99 100 101 102 103 104 105 106 107 108 109 110 111 112 113 114 115 116 117 118 119 120 121 122 123 124 125 126 127 128 129 130 131 132 133 134 135 136 137 138 139 140 141 142 143 144 145 146 147 148 149 150 151 152 153 154 155 156 157 158 159 160 161 162 163 164 165 166 167 168 169 170 171 172 173 174 175 176 177 178 179 180 181 182 183 184 185 186 187 188 189 190 191 192 193 194 195 196 197 198 199 200 201 202 203 204 205 206 207 208 209 210 211 212 213 214 215 216 217 218 219 220 221 222 223 224 225 226 227 228 229 230 231 232 233 234 235 236 237 238 239 240 241 242 243 244 245 246 247 248 249 250 251 252 253 254 255 256 257 258 259 260 261 262 263 264 265 266 267 268 269 270 271 272 273 274 275 276 277 278 279 280 281 282 283 284 285 286 287 288 289 290 291 292 293 294 295 296 297 298 299 300 301 302 303 304 305 306 307 308 309 310 311 312 313 314 315 316 317 318 319 320 321 322 323 324 325 326 327 328 329 330 331 332 333 334 335 336 337 338 339 340 341 342 343 344 345 346 347 348 349 350 351 352 353 354 355 356 357 358 359 360 361 362 363 364 365 366 367 368 369 370 371 372 373 374 375 376 377 378 379 380 381 382 383 384 385 386 387 388 389 390 391 392 393 394 395 396 397 398 399

POINT_DATA 400
SCALARS MaximumInscribedSphereRadius float
LOOKUP_TABLE default
1.5
1.5
1.5
1.5
1.5
1.5
1.5
1.5
1.5
1.5
1.5
1.5
1.5
1.5
1.5
1.5
1.5
1.5
1.5
1.5
1.5
1.5
1.5
1.5
1.5
1.5
1.5
1.5
1.5
1.5
1.5
1.5
1.5
1.5
1.5
1.5
1.5
1.5
1.5
1.5
1.5
1.5
1.5
1.5
1.5
1.5
1.5
1.5
1.5
1.5
1.5
1.5
1.5
1.5
1.5
1.5
1.5
1.5
1.5
1.5
1.5
1.5
1.5
1.5
1.5
1.5
1.5
1.5
1.5
1.5
1.5
1.5
1.5
1.5
1.5
1.5
1.5
1.5
1.5
1.5
1.5
1.5
1.5
1.5
1.5
1.5
1.5
1.5
1.5
1.5
1.5
1.5
1.5
1.5
1.5
1.5
1.5
1.5
1.5
1.5
1.5
1.5
1.5
1.5
1.5
1.5
1.5
1.5
1.5
1.5
1.5
1.5
1.5
1.5
1.5
1.5
1.5
1.5
1.5
1.5
1.5
1.5
1.5
1.5
1.5
1.5
1.5
1.5
1.5
1.5
1.5
1.5
1.5
1.5
1.5
1.5
1.5
1.5
1.5
1.5
1.5
1.5
1.5
1.5
1.5
1.5
1.5
1.5
1.5
1.5
1.5
1.5
1.5
1.5
1.5
1.5
1.5
1.5
1.5
1.5
1.5
1.5
1.5
1.5
1.5
1.5
1.5
1.5
1.5
1.5
1.5
1.5
1.5
1.5
1.5
1.5
1.5
1.5
1.5
1.5
1.5
1.5
1.5
1.5
1.5
1.5
1.5
1.5
1.5
1.5
1.5
1.5
1.5
1.5
1.5
1.5
1.5
1.5
1.5
1.5
1.5
1.5
1.5
1.5
1.5
1.5
1.5
1.5
1.5
1.5
1.5
1.5
1.5
1.5
1.5
1.5
1.5
1.5
1.5
1.5
1.5
1.5
1.5
1.5
1.5
1.5
1.5
1.5
1.5
1.5
1.5
1.5
1.5
1.5
1.5
1.5
1.5
1.5
1.5
1.5
1.5
1.5
1.5
1.5
1.5
1.5
1.5
1.5
1.5
1.5
1.5
1.5
1.5
1.5
1.5
1.5
1.5
1.5
1.5
1.5
1.5
1.5
1.5
1.5
1.5
1.5
1.5
1.5
1.5
1.5
1.5
1.5
1.5
1.5
1.5
1.5
1.5
1.5
1.5
1.5
1.5
1.5
1.5
1.5
1.5
1.5
1.5
1.5
1.5
1.5
1.5
1.5
1.5
1.5
1.5
1.5
1.5
1.5
1.5
1.5
1.5
1.5
1.5
1.5
1.5
1.5
1.5
1.5
1.5
1.5
1.5
1.5
1.5
1.5
1.5
1.5
1.5
1.5
1.5
1.5
1.5
1.5
1.5
1.5
1.5
1.5
1.5
1.5
1.5
1.5
1.5
1.5
1.5
1.5
1.5
1.5
1.5
1.5
1.5
1.5
1.5
1.5
1.5
1.5
1.5
1.5
1.5
1.5
1.5
1.5
1.5
1.5
1.5
1.5
1.5
1.5
1.5
1.5
1.5
1.5
1.5
1.5
1.5
1.5
1.5
1.5
1.5
1.5
1.5
1.5
1.5
1.5
1.5
1.5
1.5
1.5
1.5
1.5
1.5
1.5
1.5
1.5
1.5
1.5
1.5
1.5
1.5
1.5
1.5
1.5
1.5
1.5
1.5
1.5
1.5
1.5
1.5
1.5
1.5
1.5
