# vtk DataFile Version 2.0
Vessel Segment
ASCII
DATASET POLYDATA
POINTS 400 float
-2.498830080654581 29.65040869418832 4.146200195868181
-2.497267432017235 29.413189759526475 3.9695100578736704
-2.495704783379888 29.175970824864624 3.79281991987916
-2.494142134742542 28.93875189020278 3.6161297818846494
-2.4925794861051958 28.701532955540934 3.439439643890138
-2.4910168374678494 28.464314020879087 3.262749505895627
-2.4894541888305026 28.22709508621724 3.086059367901117
-2.4878915401931563 27.98987615155539 2.9093692299066065
-2.48632889155581 27.752657216893546 2.7326790919120953
-2.4847662429184636 27.5154382822317 2.555988953917585
-2.4832035942811173 27.27821934756985 2.379298815923075
-2.481640945643771 27.041000412908 2.202608677928564
-2.4800782970064246 26.803781478246155 2.0259185399340534
-2.4785156483690782 26.566562543584304 1.8492284019395429
-2.476952999731732 26.32934360892246 1.6725382639450326
-2.4753903510943855 26.092124674260614 1.4958481259505214
-2.473827702457039 25.854905739598763 1.319157987956011
-2.472265053819693 25.61768680493692 1.1424678499615004
-2.470702405182346 25.38046787027507 0.9657777119669892
-2.469139756545 25.143248935613222 0.7890875739724789
-2.4675771079076534 24.906030000951375 0.6123974359779683
-2.466014459270307 24.66881106628953 0.43570729798345725
-2.4644518106329607 24.43159213162768 0.2590171599889467
-2.4628891619956144 24.194373196965834 0.08232702199443616
-2.461326513358268 23.957154262303987 -0.09436311600007491
-2.4597638647209217 23.71993532764214 -0.2710532539945853
-2.4582012160835753 23.482716392980294 -0.44774339198909563
-2.456638567446229 23.245497458318447 -0.6244335299836061
-2.4550759188088827 23.0082785236566 -0.8011236679781165
-2.4535132701715363 22.771059588994753 -0.9778138059726276
-2.4519506215341895 22.533840654332906 -1.1545039439671387
-2.450387972896843 22.29662171967106 -1.3311940819616488
-2.448825324259497 22.059402785009212 -1.50788421995616
-2.4472626756221505 21.82218385034736 -1.684574357950671
-2.445700026984804 21.584964915685518 -1.861264495945181
-2.444137378347458 21.34774598102367 -2.0379546339396923
-2.4425747297101115 21.11052704636182 -2.2146447719342035
-2.441012081072765 20.873308111699973 -2.3913349099287133
-2.439449432435419 20.636089177038127 -2.5680250479232245
-2.4378867837980724 20.398870242376276 -2.7447151859177357
-2.436324135160726 20.16165130771443 -2.9214053239122455
-2.4347614865233798 19.924432373052582 -3.098095461906757
-2.433198837886033 19.687213438390735 -3.274785599901268
-2.4316361892486866 19.449994503728888 -3.4514757378957777
-2.4523917072793364 19.206189437588492 -3.6155962345187507
-2.495081131877964 18.95591163582227 -3.767363505917732
-2.537770556476591 18.70563383405605 -3.9191307773167128
-2.619010963958995 18.450611977469116 -4.043473200393596
-2.70702915547343 18.19475605190116 -4.1629939643289005
-2.810101823066037 17.940010622809655 -4.269167433440291
-2.9392276271225293 17.687187008605186 -4.352242198108871
-3.068353431179021 17.434363394400723 -4.43531696277745
-3.2286130238324517 17.190771185578903 -4.484062131802668
-3.3902428187790767 16.94758525217022 -4.531296450629604
-3.564076554193058 16.710994531759475 -4.561463637894795
-3.7477818771130798 16.47973858190126 -4.577825474081826
-3.9328090875728123 16.24953763981301 -4.591650139501845
-4.1286423838901225 16.02796111107316 -4.584734095655771
-4.324475680207432 15.806384582333315 -4.5778180518096985
-4.522452123382015 15.587320096831585 -4.5618852583256535
-4.721750988395129 15.36980565948738 -4.540388708632661
-4.920605929810502 15.151952484643745 -4.518341788811654
-5.115626569463524 14.931173532036464 -4.491541156499309
-5.310647209116549 14.710394579429183 -4.464740524186965
-5.498449284235744 14.483257976916038 -4.440901029374313
-5.68156995715325 14.25199829478957 -4.418981899136307
-5.8613355927464 14.018146275689094 -4.399854635408602
-6.024649961796274 13.77158285507311 -4.394417156823004
-6.18796433084615 13.52501943445712 -4.388979678237406
-6.329137253276185 13.266241378550522 -4.407119906136834
-6.465314050296188 13.004707140954553 -4.430580345515785
-6.584616705863873 12.738943830481084 -4.475150857139603
-6.689376535988464 12.469535731985815 -4.537914892660071
-6.785364705427469 12.201222833810677 -4.613431280366701
-6.859988613251069 11.935577406140748 -4.720007304108351
-6.934142316551119 11.670217460612086 -4.827395690733598
-6.984978549769364 11.419014591322444 -4.975069200714962
-7.035814782987611 11.167811722032802 -5.122742710696327
-7.075834430979488 10.930195179697758 -5.29314507342789
-7.110638572457228 10.699129649096268 -5.4745067617780805
-7.142930488995606 10.472975827556127 -5.661839876136158
-7.167139422090688 10.26262523382379 -5.8683858152689234
-7.19134835518577 10.052274640091452 -6.074931754401689
-7.208737085775464 9.855105242326617 -6.2944062779283
-7.223529754992901 9.662953172663748 -6.518801974765571
-7.235963341966838 9.473474187705575 -6.745427075949343
-7.237875876442172 9.295916645752957 -6.981994891184235
-7.239788410917507 9.118359103800339 -7.218562706419127
-7.227884748637381 8.948549555622751 -7.460190407879574
-7.2092986678156 8.782487445193716 -7.70426540204515
-7.183104999110303 8.61886806772921 -7.948895246133448
-7.133964102956778 8.462616853444759 -8.195198717601567
-7.084823206803253 8.306365639160306 -8.441502189069688
-6.999531449880505 8.159123204927994 -8.68322450531284
-6.9114181564738315 8.012583896459544 -8.9245892672314
-6.796052690080663 7.872459673881837 -9.157290419683282
-6.667968327472892 7.735329444175545 -9.385948167974139
-6.525875414999762 7.601168499762114 -9.607262140371633
-6.366190324831775 7.470736434854466 -9.819353672780057
-6.203958548252815 7.340443970406972 -10.02943508291871
-6.025982740217536 7.211014538811315 -10.227089588782855
-5.8480069321822565 7.081585107215658 -10.424744094647002
-5.666184447647817 6.947741494291609 -10.61577278846418
-5.482926323188933 6.812250439751365 -10.804328625437662
-5.3007800989787155 6.674082396237405 -10.991924802491
-5.122770769040951 6.525954448167193 -11.175950504915967
-4.944761439103186 6.377826500096981 -11.359976207340933
-4.775042694608388 6.218135954201649 -11.541819062087953
-4.610218586115733 6.05161902578093 -11.722373196646856
-4.446247152149492 5.884030736475196 -11.902594442606214
-4.300528415443812 5.693508460888508 -12.075689739987624
-4.154809678738134 5.502986185301825 -12.248785037369027
-4.022318578293863 5.296058843185362 -12.412095698268146
-3.900890155398984 5.075411441217771 -12.567223167839472
-3.786372402066232 4.846884074619768 -12.713918481547367
-3.6961469378566205 4.59065716641274 -12.830973198736448
-3.612089336514989 4.329770872415012 -12.937718828383423
-3.564166774443475 4.041587102431574 -12.984067641313391
-3.5331631686688842 3.752824654424461 -12.997480727801339
-3.5387991630027154 3.4628090244239322 -12.939568383515786
-3.574731784720853 3.2017184218235193 -12.819410197499163
-3.630025226639605 2.959112129297893 -12.65947429844854
-3.7114913574509387 2.775390837846868 -12.445855143077317
-3.798431690305262 2.6039857587081228 -12.221007756910602
-3.8991768048710567 2.488139200994224 -11.969855333604654
-4.002868149785668 2.384149998606784 -11.71308886290801
-4.1115791019466 2.3143474887994255 -11.448675443803735
-4.223856165290937 2.2688324462680405 -11.17882935499101
-4.33680104195453 2.2328708345505595 -10.908595997865794
-4.452790565134379 2.240464538378615 -10.636597034867648
-4.568780088314232 2.24805824220667 -10.364598071869501
-4.684387758810743 2.2921449421041844 -10.096952893560957
-4.799839403054216 2.351142799333936 -9.831086685890325
-4.913948280030348 2.422999254168134 -9.5688125943827
-5.024158357954001 2.5321913585790505 -9.316968410896639
-5.134368435877656 2.641383462989969 -9.06512422741057
-5.235973002189239 2.789711859951776 -8.830939537597164
-5.336108285941313 2.9447222852090684 -8.599769983574943
-5.4295577229160195 3.117433903554508 -8.379697597747926
-5.51604988884605 3.3085653275325515 -8.171172890103378
-5.6006690637262615 3.5025647782982854 -7.964819652618443
-5.671986377086682 3.7169327701569865 -7.773888056021908
-5.743303690447105 3.931300762015693 -7.58295645942537
-5.803302222323075 4.153466598755159 -7.397342075025675
-5.858897815145475 4.378665751033622 -7.213796054722387
-5.9099529949188785 4.603904107679913 -7.02914428979998
-5.948649286182693 4.82924917761549 -6.8414827162279295
-5.987345577446508 5.054594247551073 -6.6538211426558735
-6.010752907018353 5.272656501096092 -6.455618230557695
-6.029886604966464 5.488683032722022 -6.254468761421212
-6.04247170534045 5.699479259372659 -6.0479544200643485
-6.03832109225167 5.896908824780413 -5.827729514998458
-6.03417047916289 6.094338390188163 -5.6075046099325725
-6.008784376000589 6.269241169119422 -5.370980524556289
-5.9779233062695685 6.4383360574659845 -5.130254159553394
-5.937047372176055 6.593554642352103 -4.883031557583492
-5.877878268045558 6.7234267452991165 -4.623942916979736
-5.818709163915062 6.8532988482461255 -4.364854276375985
-5.732989741378947 6.931434328254788 -4.092787641628103
-5.6471099462303265 7.009257302128652 -3.8206426155481727
-5.545653930108552 7.03623700055317 -3.545783310139046
-5.439111349036456 7.0466133377833575 -3.270037630677755
-5.327012766221048 7.002555194087769 -3.0028366415538397
-5.212031851921281 6.9302576391292225 -2.740068449812168
-5.103946278768761 6.79778016800832 -2.5026916778347053
-4.99892031611075 6.638599579649715 -2.276581622430371
-4.915042899135487 6.425321135400365 -2.093560901793058
-4.837129211364815 6.196787506803069 -1.9226910461850248
-4.785893977704172 5.936387633990522 -1.7955225263641001
-4.741184903565684 5.668192549646497 -1.679044351924578
-4.716192861018916 5.388782421597781 -1.5883607181353503
-4.700835041443858 5.1038923494111295 -1.5102809266091777
-4.693582634379596 4.8172399738069265 -1.4390688535674587
-4.7004016671932245 4.5275281429863785 -1.3797795158120065
-4.707220700006854 4.237816312165837 -1.3204901780565559
-4.728049474150369 3.948508458551826 -1.262638158926131
-4.749932785819036 3.6592310130027097 -1.2048943292611631
-4.77547259379258 3.3713563767291963 -1.1422858705082033
-4.805771415474311 3.0853075288650977 -1.0733459855524805
-4.83607023715604 2.7992586810010054 -1.0044061005967595
-4.868300162630827 2.517977090544552 -0.9188712222840554
-4.90066029819714 2.237016945794759 -0.8322173799821235
-4.931319230268744 1.9585435647514184 -0.7377366653681022
-4.960027063517947 1.6829222362428453 -0.6342793636504749
-4.988528020881347 1.4073791337821135 -0.5305763876987437
-5.009349013872731 1.1347400588159564 -0.4177531154990861
-5.030170006864114 0.8621009838498063 -0.3049298432994313
-5.044757691212998 0.5886144476743905 -0.1932989738325802
-5.055463040111343 0.31460008127518413 -0.08241077694402894
-5.063771081966308 0.039322517387091166 0.025242764968954466
-5.064186196835879 -0.24011401544722302 0.1222464839418382
-5.06460131170545 -0.5195505482815304 0.2192502029147196
-5.05749773874345 -0.804973699201444 0.2960737744928639
-5.049250840520149 -1.0913072020125818 0.3698286627036287
-5.038043192529299 -1.3803195780112378 0.4301957157591528
-5.023851324093583 -1.6720320633616015 0.4770688046098337
-5.009351381223338 -1.963988307683195 0.5217608895007404
-4.991803361470716 -2.2583562941093915 0.5448742031432214
-4.974255341718095 -2.552724280535581 0.567987516785702
-4.955369454320428 -2.8475146505914237 0.5813542319589502
-4.93568384157055 -3.1425575051873103 0.5888948088572301
-4.915703275986864 -3.4375875035071117 0.595943344877578
-4.892977187811706 -3.732497831180056 0.5984117948928509
-4.8702510996365485 -4.027408158852993 0.6008802449081235
-4.844215043701212 -4.321975126427068 0.6063003111522627
-4.815214948097635 -4.616234618814907 0.6143635172157782
-4.786214852494059 -4.9104941112027385 0.6224267232792934
-4.74602955794422 -5.2026526389484085 0.6449385742511968
-4.705301247046653 -5.494709169568032 0.6681518745603416
-4.656759488902844 -5.784295877357453 0.7006905009083952
-4.597107157840921 -6.070370544201936 0.7464895629738968
-4.537454826778998 -6.356445211046419 0.7922886250393985
-4.452934862466295 -6.630773971590411 0.8629489845024155
-4.366571422151527 -6.904231989986595 0.9354523502809255
-4.263187147416806 -7.166619540128379 1.0214736649658707
-4.143798444906963 -7.418597699916955 1.1202056982679482
-4.0190317877916355 -7.666004177907335 1.2220873559424394
-3.863828682200557 -7.887537295539408 1.3417942626123673
-3.7086255766094753 -8.109070413171485 1.4615011692822983
-3.526091829453992 -8.301284010674113 1.5911857866781118
-3.3369593685650645 -8.48641869933809 1.723279423878311
-3.1351371441597284 -8.654811211165468 1.8569039534272573
-2.9175581483856856 -8.802415104490454 1.9924293789777936
-2.699014663816917 -8.948485282644242 2.12780553224314
-2.459979246122285 -9.061969505529126 2.26001018398106
-2.2209438284276413 -9.175453728414013 2.3922148357189865
-1.9731848710754267 -9.27252637259884 2.5204185441029265
-1.7193709320598787 -9.358207791203675 2.6458452101857524
-1.4647465582511796 -9.442104723474223 2.7706556253731245
-1.2015275843715463 -9.507077312287297 2.888930746130063
-0.9383086104919127 -9.57204990110037 3.0072058668870008
-0.6721190178245949 -9.629280067064865 3.122525852998529
-0.40348480537792675 -9.680138738944022 3.235413961740041
-0.13485059293125856 -9.730997410823177 3.3483020704815525
0.1363972665095992 -9.772770444867064 3.458638315039777
0.4076504466168461 -9.814524983051399 3.5689693647044396
0.6792353052378854 -9.853502062109301 3.6794575409167662
0.9512209550828726 -9.889122935695767 3.790135584542068
1.223206604927847 -9.92474380928223 3.9008136281673638
1.494840275768024 -9.955079366078422 4.013892527440164
1.7664454834698684 -9.984987520385042 4.127165574333922
2.0376685832779122 -10.011827462228137 4.242037688055012
2.3083645807610775 -10.034434929555324 4.359115649538091
2.5790605782442424 -10.057042396882512 4.476193611021169
2.8487256979249747 -10.069766217885277 4.597048956802558
3.118322565091029 -10.081835660925769 4.718154396219299
3.3872800236683425 -10.087242498857597 4.840933410567914
3.6555304399634236 -10.085281992020377 4.965563022891166
3.9237302191790633 -10.0828868822627 5.090264160895003
4.190013907931669 -10.06404654066153 5.21767180717278
4.456297596684275 -10.045206199060358 5.345079453450557
4.720861033085168 -10.015862030683245 5.473756445026911
4.984196655340239 -9.979020853458469 5.603339420025999
5.246972824386153 -9.939774151429324 5.733206040639752
5.506335065464999 -9.885848315791346 5.864803540048717
5.7656973065438315 -9.83192248015337 5.996401039457676
6.021877393884362 -9.768082561998641 6.129598107387967
6.276639840768742 -9.699825948229192 6.263507778553267
6.530316923210466 -9.629039845582666 6.3980655526381955
6.780445878464109 -9.549984678736008 6.53474201745915
7.030574833717753 -9.47092951188935 6.671418482280106
7.277618287147167 -9.386433708115398 6.810383616763326
7.5237329808292746 -9.300300230839508 6.950037658393015
7.768990192145666 -9.212978443312737 7.090437352982856
8.012217002311244 -9.122842899378451 7.232602651961665
8.255443812476809 -9.032707355444167 7.374767950940467
8.497542323930547 -8.941330119939874 7.518058867823775
8.739393602598692 -8.849680805009736 7.661596430074239
8.981415427917092 -8.758297550756515 7.805015336844994
9.223772184251889 -8.667436804408307 7.948201219980555
9.466128940586682 -8.5765760580601 8.091387103116118
9.710698321514998 -8.48884862005318 8.232741673652956
9.955668124491831 -8.401688221637327 8.373764828754732
10.202233106720819 -8.317384515980986 8.513660547601784
10.451788589369416 -8.238436284253085 8.65144264906801
10.701344072018003 -8.15948805252519 8.78922475053423
10.955814830875575 -8.09266783023092 8.924284744569157
11.211197850816749 -8.028098531497701 9.058839523318232
11.468449839320268 -7.97096021812068 9.192769166897666
11.72931141310564 -7.92817355083973 9.325491471438342
11.990172986891022 -7.885386883558779 9.458213775979024
12.253282492623775 -7.867649229152464 9.59178791161694
12.516787402880158 -7.854317621386063 9.725511881803723
12.77907291374598 -7.85467313620431 9.861123797312473
13.03939191583325 -7.877101687079335 9.999780376512016
13.299710917920521 -7.899530237954361 10.138436955711562
13.548722868264154 -7.959520626161516 10.286086565098682
13.797117220124811 -8.021562666229892 10.434227379614015
14.03281019821472 -8.105804010389933 10.590017464885111
14.258231241075123 -8.207998515986308 10.751993716721671
14.47664088686219 -8.317596271155585 10.917289012574992
14.667141644964119 -8.456662684093601 11.095795773378416
14.857642403066038 -8.595729097031608 11.27430253418183
15.007891723142478 -8.76100294318373 11.4673643057439
15.152843343807092 -8.929726084822786 11.662341737359812
15.267973900681069 -9.10963377279465 11.865059075486737
15.36149349801319 -9.297646764453503 12.073385429027777
15.442213847403057 -9.487791462980564 12.283913324176831
15.485847418557261 -9.684112941599784 12.500820350799945
15.529480989711466 -9.880434420218995 12.717727377423047
15.535443399465905 -10.076338988825906 12.938841048644989
15.536444184352991 -10.27218864669984 13.160508772135934
15.52312632321247 -10.465436794165111 13.383463603844898
15.492125447223447 -10.655472169480259 13.608007968089748
15.461124571234425 -10.845507544795415 13.832552332334608
15.409247196095873 -11.027782628146042 14.05961267853366
15.356422329407401 -11.20970550632046 14.286787213976037
15.298079332908378 -11.388117548692184 14.515264481910496
15.232534112521632 -11.561947273077159 14.74544206705311
15.16698889213489 -11.735776997462123 14.975619652195713
15.09675867039861 -11.90418353501856 15.208419459000389
15.026055919015523 -12.072043089476068 15.441483743311768
14.956129597014499 -12.239206792794235 15.67527619174541
14.88733941431104 -12.405352265938571 15.910134153532209
14.818549231607578 -12.571497739082915 16.144992115319017
14.758241380494542 -12.742094297035756 16.378977738893916
14.698407978330176 -12.912939821028797 16.61291456928699
14.64799175781205 -13.090582020788695 16.8437277557193
14.605479629372459 -13.273928852051643 17.071919184346147
14.56817961051476 -13.461169418905836 17.297397790119312
14.55225253502785 -13.664376762548766 17.51175210767181
14.536325459540942 -13.867584106191707 17.726106425224323
14.551440999215686 -14.09131969185492 17.91832711266063
14.57085767250887 -14.317899584011666 18.107481057810713
14.61114639587119 -14.555068973522921 18.277137751699218
14.67030195022212 -14.80181050645947 18.429170333769456
14.72945750457305 -15.048552039396009 18.581202915839683
14.788613058923982 -15.295293572332561 18.73323549790992
14.847768613274912 -15.542035105269113 18.885268079980158
14.906924167625846 -15.788776638205665 19.037300662050395
14.966079721976772 -16.035518171142204 19.189333244120622
15.025235276327706 -16.282259704078754 19.341365826190867
15.084390830678636 -16.529001237015308 19.493398408261097
15.143546385029563 -16.775742769951847 19.645430990331327
15.202701939380493 -17.022484302888397 19.79746357240157
15.261857493731426 -17.26922583582495 19.949496154471806
15.321013048082358 -17.515967368761498 20.10152873654204
15.380168602433283 -17.762708901698034 20.253561318612267
15.439324156784215 -18.009450434634584 20.4055939006825
15.498479711135147 -18.256191967571134 20.557626482752738
15.557635265486075 -18.502933500507673 20.70965906482297
15.616790819837007 -18.749675033444227 20.861691646893206
15.675946374187937 -18.996416566380777 21.013724228963447
15.735101928538871 -19.243158099317323 21.16575681103368
15.794257482889796 -19.48989963225386 21.317789393103908
15.853413037240728 -19.73664116519041 21.469821975174142
15.912568591591658 -19.98338269812696 21.62185455724438
15.971724145942588 -20.2301242310635 21.77388713931461
16.030879700293518 -20.47686576400005 21.925919721384847
16.09003525464445 -20.723607296936603 22.077952303455085
16.149190808995378 -20.970348829873142 22.22998488552531
16.20834636334631 -21.217090362809692 22.38201746759555
16.26750191769724 -21.463831895746235 22.534050049665783
16.32665747204817 -21.710573428682785 22.68608263173602
16.3858130263991 -21.957314961619325 22.838115213806248
16.44496858075003 -22.20405649455588 22.99014779587649
16.50412413510096 -22.45079802749243 23.142180377946723
16.56327968945189 -22.697539560428968 23.294212960016957
16.622435243802823 -22.944281093365518 23.44624554208719
16.681590798153753 -23.19102262630207 23.598278124157424
16.740746352504683 -23.437764159238615 23.75031070622766
16.79990190685561 -23.68450569217515 23.902343288297885
16.859057461206543 -23.931247225111704 24.054375870368123
16.918213015557473 -24.177988758048258 24.206408452438364
16.9773685699084 -24.424730290984794 24.358441034508594
17.03652412425933 -24.671471823921344 24.510473616578828
17.09567967861026 -24.91821335685789 24.662506198649062
17.15483523296119 -25.16495488979443 24.81453878071929
17.21399078731212 -25.41169642273098 24.966571362789526
17.273146341663054 -25.658437955667534 25.118603944859764
17.332301896013984 -25.90517948860408 25.270636526930005
17.39145745036491 -26.151921021540616 25.422669109000232
17.45061300471584 -26.398662554477166 25.574701691070462
17.50976855906677 -26.64540408741371 25.7267342731407
17.5689241134177 -26.89214562035025 25.878766855210934
17.62807966776863 -27.1388871532868 26.030799437281164
17.687235222119565 -27.38562868622335 26.1828320193514
17.746390776470495 -27.632370219159892 26.334864601421632
17.80554633082142 -27.879111752096428 26.48689718349186
17.86470188517235 -28.125853285032978 26.638929765562096
17.92385743952328 -28.372594817969528 26.79096234763233
17.98301299387421 -28.619336350906064 26.94299492970256
18.042168548225142 -28.866077883842614 27.095027511772795
18.10132410257607 -29.112819416779157 27.247060093843032
18.160479656927002 -29.35956094971571 27.399092675913266
18.219635211277932 -29.60630248265225 27.551125257983497
18.278790765628862 -29.8530440155888 27.703157840053734
18.337946319979796 -30.09978554852535 27.855190422123968
18.39710187433072 -30.346527081461886 28.007223004194195
18.45625742868165 -30.593268614398433 28.159255586264432
18.515412983032583 -30.840010147334986 28.31128816833467
18.574568537383513 -31.086751680271522 28.463320750404897
18.633724091734443 -31.333493213208072 28.615353332475134
18.69287964608537 -31.58023474614462 28.767385914545372
18.752035200436303 -31.826976279081165 28.919418496615606
18.81119075478723 -32.0737178120177 29.071451078685833
18.87034630913816 -32.32045934495425 29.223483660756067
18.92950186348909 -32.567200877890805 29.375516242826304
18.98865741784002 -32.81394241082734 29.527548824896535
19.04781297219095 -33.06068394376389 29.67958140696677
LINES 1 401
400 0 1 2 3 4 5 6 7 8 9 10 11 12 13 14 15 16 17 18 19 20 21 22 23 24 25 26 27 28 29 30 31 32 33 34 35 36 37 38 39 40 41 42 43 44 45 46 47 48 49 50 51 52 53 54 55 56 57 58 59 60 61 62 63 64 65 66 67 68 69 70 71 72 73 74 75 76 77 78 79 80 81 82 83 84 85 86 87 88 89 90 91 92 93 94 95 96 97 98 99 100 101 102 103 104 105 106 107 108 109 110 111 112 113 114 115 116 117 118 119 120 121 122 123 124 125 126 127 128 129 130 131 132 133 134 135 136 137 138 139 140 141 142 143 144 145 146 147 148 149 150 151 152 153 154 155 156 157 158 159 160 161 162 163 164 165 166 167 168 169 170 171 172 173 174 175 176 177 178 179 180 181 182 183 184 185 186 187 188 189 190 191 192 193 194 195 196 197 198 199 200 201 202 203 204 205 206 207 208 209 210 211 212 213 214 215 216 217 218 219 220 221 222 223 224 225 226 227 228 229 230 231 232 233 234 235 236 237 238 239 240 241 242 243 244 245 246 247 248 249 250 251 252 253 254 255 256 257 258 259 260 261 262 263 264 265 266 267 268 269 270 271 272 273 274 275 276 277 278 279 280 281 282 283 284 285 286 287 288 289 290 291 292 293 294 295 296 297 298 299 300 301 302 303 304 305 306 307 308 309 310 311 312 313 314 315 316 317 318 319 320 321 322 323 324 325 326 327 328 329 330 331 332 333 334 335 336 337 338 339 340 341 342 343 344 345 346 347 348 349 350 351 352 353 354 355 356 357 358 359 360 361 362 363 364 365 366 367 368 369 370 371 372 373 374 375 376 377 378 379 380 381 382 383 384 385 386 387 388 389 390 391 392 393 394 395 396 397 398 399

POINT_DATA 400
SCALARS MaximumInscribedSphereRadius float
LOOKUP_TABLE default
1.5
1.5
1.5
1.5
1.5
1.5
1.5
1.5
1.5
1.5
1.5
1.5
1.5
1.5
1.5
1.5
1.5
1.5
1.5
1.5
1.5
1.5
1.5
1.5
1.5
1.5
1.5
1.5
1.5
1.5
1.5
1.5
1.5
1.5
1.5
1.5
1.5
1.5
1.5
1.5
1.5
1.5
1.5
1.5
1.5
1.5
1.5
1.5
1.5
1.5
1.5
1.5
1.5
1.5
1.5
1.5
1.5
1.5
1.5
1.5
1.5
1.5
1.5
1.5
1.5
1.5
1.5
1.5
1.5
1.5
1.5
1.5
1.5
1.5
1.5
1.5
1.5
1.5
1.5
1.5
1.5
1.5
1.5
1.5
1.5
1.5
1.5
1.5
1.5
1.5
1.5
1.5
1.5
1.5
1.5
1.5
1.5
1.5
1.5
1.5
1.5
1.5
1.5
1.5
1.5
1.5
1.5
1.5
1.5
1.5
1.5
1.5
1.5
1.5
1.5
1.5
1.5
1.5
1.5
1.5
1.5
1.5
1.5
1.5
1.5
1.5
1.5
1.5
1.5
1.5
1.5
1.5
1.5
1.5
1.5
1.5
1.5
1.5
1.5
1.5
1.5
1.5
1.5
1.5
1.5
1.5
1.5
1.5
1.5
1.5
1.5
1.5
1.5
1.5
1.5
1.5
1.5
1.5
1.5
1.5
1.5
1.5
1.5
1.5
1.5
1.5
1.5
1.5
1.5
1.5
1.5
1.5
1.5
1.5
1.5
1.5
1.5
1.5
1.5
1.5
1.5
1.5
1.5
1.5
1.5
1.5
1.5
1.5
1.5
1.5
1.5
1.5
1.5
1.5
1.5
1.5
1.5
1.5
1.5
1.5
1.5
1.5
1.5
1.5
1.5
1.5
1.5
1.5
1.5
1.5
1.5
1.5
1.5
1.5
1.5
1.5
1.5
1.5
1.5
1.5
1.5
1.5
1.5
1.5
1.5
1.5
1.5
1.5
1.5
1.5
1.5
1.5
1.5
1.5
1.5
1.5
1.5
1.5
1.5
1.5
1.5
1.5
1.5
1.5
1.5
1.5
1.5
1.5
1.5
1.5
1.5
1.5
1.5
1.5
1.5
1.5
1.5
1.5
1.5
1.5
1.5
1.5
1.5
1.5
1.5
1.5
1.5
1.5
1.5
1.5
1.5
1.5
1.5
1.5
1.5
1.5
1.5
1.5
1.5
1.5
1.5
1.5
1.5
1.5
1.5
1.5
1.5
1.5
1.5
1.5
1.5
1.5
1.5
1.5
1.5
1.5
1.5
1.5
1.5
1.5
1.5
1.5
1.5
1.5
1.5
1.5
1.5
1.5
1.5
1.5
1.5
1.5
1.5
1.5
1.5
1.5
1.5
1.5
1.5
1.5
1.5
1.5
1.5
1.5
1.5
1.5
1.5
1.5
1.5
1.5
1.5
1.5
1.5
1.5
1.5
1.5
1.5
1.5
1.5
1.5
1.5
1.5
1.5
1.5
1.5
1.5
1.5
1.5
1.5
1.5
1.5
1.5
1.5
1.5
1.5
1.5
1.5
1.5
1.5
1.5
1.5
1.5
1.5
1.5
1.5
1.5
1.5
1.5
1.5
1.5
1.5
1.5
1.5
1.5
1.5
1.5
1.5
1.5
1.5
1.5
1.5
1.5
1.5
1.5
1.5
1.5
1.5
1.5
1.5
1.5
1.5
1.5
1.5
1.5
1.5
1.5
1.5
1.5
1.5
1.5
