# vtk DataFile Version 2.0
Vessel Segment
ASCII
DATASET POLYDATA
POINTS 400 float
7.927700315574843 25.263063237650766 -1.0697109648335985
7.74477504091622 25.101834850685655 -1.1472598056213195
7.561849766257598 24.940606463720552 -1.2248086464090404
7.3789244915989745 24.77937807675545 -1.3023574871967614
7.195999216940352 24.618149689790343 -1.3799063279844823
7.013073942281729 24.45692130282524 -1.4574551687722033
6.830148667623106 24.295692915860133 -1.5350040095599238
6.647223392964483 24.134464528895027 -1.6125528503476445
6.46429811830586 23.973236141929924 -1.6901016911353652
6.281372843647237 23.812007754964817 -1.767650531923086
6.098447568988614 23.650779367999707 -1.8451993727108067
5.915522294329991 23.489550981034604 -1.9227482134985276
5.732597019671368 23.328322594069498 -2.000297054286248
5.549671745012745 23.167094207104395 -2.077845895073969
5.366746470354122 23.005865820139288 -2.1553947358616905
5.183821195695499 22.844637433174185 -2.232943576649411
5.000895921036876 22.683409046209075 -2.3104924174371315
4.817970646378253 22.522180659243972 -2.3880412582248525
4.635045371719631 22.360952272278865 -2.465590099012573
4.452120097061008 22.19972388531376 -2.5431389398002935
4.269194822402385 22.038495498348652 -2.620687780588014
4.086269547743762 21.877267111383546 -2.6982366213757354
3.903344273085139 21.71603872441844 -2.775785462163456
3.720418998426516 21.554810337453336 -2.8533343029511764
3.537493723767894 21.393581950488233 -2.9308831437388974
3.3545684491092707 21.232353563523127 -3.008431984526618
3.1716431744506477 21.07112517655802 -3.085980825314339
2.988717899792025 20.909896789592914 -3.1635296661020598
2.805792625133401 20.74866840262781 -3.2410785068897807
2.6228673504747784 20.5874400156627 -3.3186273476775012
2.4399420758161554 20.426211628697594 -3.396176188465222
2.2570168011575324 20.26498324173249 -3.473725029252943
2.074091526498909 20.103754854767384 -3.5512738700406636
1.8911662518402852 19.942526467802278 -3.628822710828385
1.7082409771816631 19.781298080837175 -3.7063715516161055
1.5253157025230395 19.62006969387207 -3.783920392403827
1.3423904278644172 19.458841306906965 -3.8614692331915474
1.1594651532057936 19.297612919941855 -3.939018073979268
0.9765398785471713 19.136384532976752 -4.016566914766989
0.7936146038885474 18.975156146011646 -4.09411575555471
0.610689329229925 18.813927759046543 -4.17166459634243
0.4277640545713015 18.652699372081436 -4.249213437130152
0.24483877991267788 18.49147098511633 -4.326762277917873
0.061913505254055534 18.330242598151223 -4.404311118705593
-0.12101176940456809 18.169014211186116 -4.481859959493313
-0.30393704406319044 18.007785824221013 -4.559408800281035
-0.48686231872181407 17.846557437255907 -4.636957641068755
-0.6697875933804364 17.685329050290804 -4.714506481856476
-0.8527128680390601 17.524100663325697 -4.792055322644197
-1.0356381426976837 17.36287227636059 -4.8696041634319185
-1.2204329920041563 17.197235287763988 -4.92971022950255
-1.4067854365155115 17.02792536919406 -4.9752842295278885
-1.5931578706883105 16.858489194898052 -5.020098116647778
-1.7801522809957995 16.68512458746129 -5.041261173654595
-1.9671466913032871 16.511759980024525 -5.062424230661413
-2.1539400319776307 16.337512433700372 -5.074693405257382
-2.340568384685157 16.162540390645532 -5.079664692285179
-2.527175415887608 15.987539990663153 -5.083743201118875
-2.7136191726957533 15.81232244089924 -5.080985052859996
-2.9000629295038975 15.63710489113533 -5.078226904601117
-3.0869517297948397 15.462350368577102 -5.07648043542842
-3.2739814227812367 15.287742432034852 -5.075054245506848
-3.461658189028455 15.113982924606717 -5.079587342090502
-3.6499455887772365 14.941024067231915 -5.089744129538616
-3.8385106124135415 14.769543865720129 -5.109173049813121
-4.0274858013621815 14.600248250517922 -5.14230074540086
-4.215435794543777 14.434060793573702 -5.189635060067977
-4.4020059464972645 14.272056698525525 -5.256090482476495
-4.584246743640606 14.116294686712292 -5.343227282642779
-4.762886744026179 13.965724319857664 -5.4475651303651045
-4.932659781129867 13.824139183439343 -5.575197713851233
-5.098507617038474 13.686531602371758 -5.713142342369276
-5.253323959775376 13.556694808033267 -5.869680010761415
-5.405207026740436 13.42892426710996 -6.031161571384522
-5.54768374298099 13.30395930399468 -6.202910886788006
-5.687531815266387 13.17977837130329 -6.3775295691040075
-5.821152702394166 13.05358096636319 -6.555464525984833
-5.951431530529491 12.926301343849456 -6.735179289463712
-6.078283587294976 12.795501839241453 -6.914721784932893
-6.20022720360979 12.659660524197783 -7.094017527066089
-6.321333649070157 12.522689931873582 -7.272963999696749
-6.434253485421608 12.374676251245214 -7.44849500118944
-6.547173321773058 12.226662570616844 -7.62402600268213
-6.651597495842919 12.068565969267048 -7.7957868738142215
-6.752889536323535 11.90675205270126 -7.966157794222417
-6.848471950318265 11.740047608701644 -8.13479140300825
-6.933849497919101 11.564602281356802 -8.300319899220687
-7.019058250088261 11.389065251169571 -8.465823783101943
-7.082865138257667 11.201901059383735 -8.628207027050061
-7.146672026427073 11.014736867597898 -8.790590270998178
-7.1907075373921625 10.822016900884314 -8.952487159879677
-7.226340087588974 10.626935694573056 -9.114177344771768
-7.246309834086299 10.430976045307036 -9.276572493087897
-7.2472935378277255 10.233951570367541 -9.43982217970808
-7.238530660662957 10.038387096363545 -9.603700687276676
-7.200619361866177 9.847188945612846 -9.769459765920583
-7.1601743017984365 9.656865976796606 -9.93531884849491
-7.083743028494119 9.478972941326969 -10.102598255393376
-7.007311755189803 9.301079905857335 -10.26987766229184
-6.902791097080452 9.137967603289948 -10.436494519827642
-6.793290233638701 8.97747590225326 -10.602993908366109
-6.66986064104756 8.8261697483084 -10.767664001166438
-6.535286508125727 8.682213058835599 -10.930870452889984
-6.397839078074275 8.540163166573778 -11.09315106278177
-6.245718011135084 8.407851094185869 -11.250703492383858
-6.093596944195893 8.275539021797961 -11.408255921985948
-5.933097855435084 8.146465496208913 -11.55990965465502
-5.768877911891237 8.018830277012851 -11.708943652598617
-5.602933078755413 7.8906029730280185 -11.85540089706608
-5.429992429731843 7.759974288577177 -11.991407331817422
-5.257051780708272 7.629345604126335 -12.127413766568763
-5.079138864254161 7.490624084942021 -12.247692865601888
-4.899659525360054 7.349353065332243 -12.363017353497433
-4.71835801449471 7.200105832064291 -12.462880760046687
-4.534957944937927 7.041672554470497 -12.544937951183586
-4.352404129806416 6.875887339453057 -12.607723350994533
-4.171274937496847 6.697725541783343 -12.63806574912324
-3.9976702596604228 6.513491042265048 -12.633142443019324
-3.831746148623833 6.323057897987676 -12.59222205058263
-3.6905689559762003 6.138283838452462 -12.49144966342266
-3.5604726005446414 5.957717463461228 -12.367319849167197
-3.4677996923890397 5.802167096849988 -12.186527462378058
-3.388439877091218 5.659259660222406 -11.992229838231308
-3.334656573717308 5.540641248912573 -11.77198656283716
-3.2956574442030027 5.439511416010314 -11.541746829922197
-3.273507566403589 5.358312995070811 -11.300114317767425
-3.2627883820542856 5.293288346382057 -11.053823521371854
-3.264987107382469 5.24654179516755 -10.802268364127356
-3.2740702907969093 5.211342017606549 -10.54957157812034
-3.2942304091356136 5.194720733623772 -10.29503793765772
-3.3174455702673455 5.1843255702760045 -10.040714087024492
-3.3497003262936307 5.192352933916595 -9.787010985493417
-3.382718391593744 5.202446970512249 -9.533553101078327
-3.4214979164033776 5.228140257579895 -9.281946115811582
-3.4602859205256515 5.253886772752338 -9.03034685744653
-3.5004823487329655 5.288474540509245 -8.780031046797678
-3.5406787769402785 5.323062308266153 -8.529715236148832
-3.578210850061864 5.356667827874148 -8.278853676981228
-3.6155637631492574 5.3902072978730295 -8.027955419881064
-3.6475295214970083 5.413482782549907 -7.775184425743682
-3.678974130650959 5.435765337204487 -7.522232264469965
-3.70364863061464 5.440097526759212 -7.267658253727484
-3.7276921854786487 5.4427568193814375 -7.012933093580177
-3.7452222322538367 5.422971175755064 -6.758532176259687
-3.7621386042748632 5.40107086664479 -6.504161807705604
-3.7743918366245657 5.356912274216711 -6.252583447987707
-3.7859497568023968 5.3094347901390915 -6.001421399567484
-3.7954030083638512 5.243869421601008 -5.754507482295012
-3.8041615763679424 5.172333822963804 -5.508995736763443
-3.8128234132961514 5.089147215254215 -5.2674423458612765
-3.821404126634469 4.996189479981069 -5.029208632060486
-3.83051982501371 4.898400009689643 -4.7931138394081305
-3.8412181632564577 4.7863168753424485 -4.563346591669094
-3.8519165014992054 4.67423374099525 -4.33357934393005
-3.8661646631592568 4.546267464296215 -4.112548871206966
-3.8808000894793677 4.416568431062419 -3.892471528769196
-3.8982355311984898 4.277931264115028 -3.678383171558523
-3.9182079719948155 4.131195557069848 -3.469721230931087
-3.9391637549839027 3.981758327946846 -3.2632528988823566
-3.9654034779615337 3.81780460533665 -3.0685718125895756
-3.9916432009391647 3.653850882726454 -2.873890726296796
-4.023371974484645 3.475378841477659 -2.693565867824253
-4.056255410743102 3.2938527636555293 -2.5162609489128758
-4.092545910292526 3.1029670749278155 -2.350356154007808
-4.131680779128241 2.904267563116149 -2.1939686940666845
-4.172302789139046 2.7008661035701067 -2.044708374577924
-4.216273165139382 2.4868779948598503 -1.9114951359534529
-4.260477705852796 2.271762492503254 -1.7804052030399522
-4.306961182265566 2.045674979914609 -1.6699796867319578
-4.353444658678333 1.8195874673259698 -1.5595541704239664
-4.39968297798105 1.5861120719051223 -1.4658902937226825
-4.445885934843967 1.3515710187847543 -1.374644182802074
-4.490152314142248 1.1136650398042724 -1.2918151844444377
-4.533276830707127 0.8737750021883348 -1.2139491616649627
-4.57442492975061 0.6328105822633517 -1.1384991362919563
-4.611882736503349 0.38984011619200243 -1.0675601702002118
-4.649057276336917 0.146818799045448 -0.9966625811784685
-4.678536952898309 -0.0975838727331163 -0.9268889881997829
-4.708016629459705 -0.3419865445116874 -0.8571153952210955
-4.730400721652848 -0.5864625028695134 -0.7851659411474339
-4.749718461302228 -0.8309701319787646 -0.7122761900020731
-4.764763684560062 -1.0751184393549345 -0.6374832051103598
-4.771785248716335 -1.3185919511703867 -0.5591160036746174
-4.778806812872607 -1.5620654629858388 -0.4807488022388749
-4.771600946761877 -1.8035519869224028 -0.3964860565770468
-4.764265535307286 -2.0450204186931096 -0.31216963008251314
-4.746600450345349 -2.2847493097981926 -0.2248798036791383
-4.72296234907279 -2.5234723312829552 -0.13587064257066875
-4.694339670683799 -2.761285439890026 -0.0462719408471228
-4.652727216067342 -2.9967273213314654 0.044863099965573416
-4.611114761450886 -3.232169202772898 0.1359981407782671
-4.551841671987264 -3.464140828162357 0.22609861280672638
-4.49105566633195 -3.6958151705483506 0.3161104574512506
-4.419110347848973 -3.9250251686366537 0.40357744761621056
-4.338515870562276 -4.152325147218661 0.48907201789600385
-4.253940354828653 -4.378563352962427 0.5730792155632866
-4.153572327135734 -4.600589577217091 0.651186106040853
-4.053204299442819 -4.822615801471751 0.7292929965184173
-3.936812584792997 -5.0391412746258535 0.7997938262247077
-3.8171966631519263 -5.254559913865695 0.868764202023574
-3.68923803990922 -5.466194854901495 0.9334621338822358
-3.551359082236362 -5.673330587724052 0.9930796883350312
-3.4121698198487955 -5.879679844554282 1.05210755764254
-3.257297136133098 -6.076615539627818 1.1040773125430698
-3.102424452417396 -6.27355123470136 1.1560470674436005
-2.9367174988036573 -6.461984304870498 1.2052457480815484
-2.7664131628749846 -6.646809396123304 1.2532685591936263
-2.591411845589214 -6.82679846597581 1.3018700624217558
-2.407542661517602 -6.997657162447833 1.3515641321739997
-2.2233505768216935 -7.168054065528765 1.4015177895608533
-2.028357448712475 -7.323003954606099 1.460154667418765
-1.833364320603256 -7.477953843683433 1.518791545276677
-1.6325574643449976 -7.61894299908901 1.5905458245248967
-1.430008967269662 -7.755749884017559 1.6662297339673313
-1.2261410326828734 -7.880634926428948 1.7560113419835877
-1.0213067664910063 -7.996788632103874 1.8561178434280152
-0.8184660528985 -8.103021087684416 1.968858931623265
-0.6181346344092196 -8.19676561378282 2.0975032403682805
-0.42138700584941935 -8.28310239452576 2.2353505241797857
-0.23179997098767352 -8.354638125052873 2.3915858180480623
-0.04505987956743132 -8.42226550997726 2.552375103636267
0.13061018254813211 -8.474695718967515 2.7308720897211076
0.30607576878498755 -8.526904424924345 2.9096088775879916
0.468709753042867 -8.565213013273276 3.103394095814098
0.6313437373007509 -8.603521601622203 3.29717931404021
0.7870399645725609 -8.63510409006607 3.497640639264191
0.9403944954872436 -8.664416322622193 3.7003553463042405
1.0919775445900517 -8.691836264367009 3.9046281524522475
1.2409617858662227 -8.716480168481796 4.111186728699192
1.3899522083014617 -8.741100966109016 4.317743471802692
1.539520547331158 -8.763561388560934 4.5241288224528855
1.6890888863608502 -8.786021811012851 4.730514173103073
1.8416208283984417 -8.807638093593827 4.934786562034027
1.9961919674647746 -8.828673540107324 5.137605063501558
2.152292580589085 -8.84923336594847 5.3392528472879395
2.31544005196381 -8.86760182970567 5.535506697449042
2.4785875233385304 -8.88597029346287 5.731760547610142
2.6504707814608794 -8.900164834320314 5.9206658415622915
2.824691008481463 -8.913242781070988 6.107605273960872
3.004192174070769 -8.922430950011433 6.289472616002605
3.1905495229617262 -8.9265690640568 6.46475492003329
3.378251011780055 -8.929265519875903 6.638489464596186
3.5760667117918112 -8.921113971352472 6.800577627844936
3.773882411803563 -8.912962422829047 6.962665791093681
3.979350815893701 -8.893184134049317 7.113644863681873
4.186434551867292 -8.870951674293659 7.262279030710378
4.3969312864682495 -8.841239062238364 7.404356894198955
4.6102747296326925 -8.80528741643815 7.540966286272917
4.82450844257794 -8.766470271942389 7.675228314540483
5.041252471982211 -8.719573207523611 7.802871421077116
5.257996501386486 -8.672676143104832 7.930514527613752
5.476052096967869 -8.619706839219099 8.05345372033839
5.6941516832310946 -8.566533868938844 8.176235141095791
5.9123122377736275 -8.512936356929645 8.298722747074018
6.130503720768416 -8.459123480164573 8.421061304457325
6.348480257340147 -8.40716600324314 8.544544236179087
6.5660676369304785 -8.358567697375657 8.670099038913364
6.783591117340806 -8.310474861643598 8.795932849613294
6.999876436246751 -8.27217641862926 8.927172941308827
7.216161755152707 -8.233877975614917 9.058413033004367
7.430904053701056 -8.206044517962134 9.194552528572153
7.645110974908899 -8.181842066215198 9.332391956225905
7.858135752350262 -8.164382422665732 9.47279789142053
8.069571433603745 -8.155986795783283 9.616653853139002
8.280706598388658 -8.14900690899956 9.760946042564946
8.488809008674963 -8.156314399455175 9.9096405582543
8.69691141896127 -8.16362188991079 10.058335073943653
8.902316921552929 -8.181420269311216 10.209710273865971
9.106695417432096 -8.203213673601702 10.362106302460617
9.309690318210396 -8.229316407308074 10.515526611104475
9.50985824745132 -8.264223994107748 10.671039736168066
9.710026176692239 -8.299131580907424 10.826552861231656
9.905553328261108 -8.3451454294545 10.985005117019286
10.100632709580465 -8.392230877191455 11.143740957884816
10.29237444361788 -8.445429437853054 11.30443114696865
10.480687592967595 -8.504907669072086 11.467128932364973
10.66811349749419 -8.565749426599037 11.630265635043868
10.84732069731451 -8.639221767919853 11.797468105639307
11.026527897134828 -8.712694109240669 11.964670576234747
11.196281832341544 -8.798945279630878 12.135333969238168
11.36287748509027 -8.889465784831163 12.307153636923038
11.521554034756655 -8.989965483110202 12.480380526944085
11.671356878842527 -9.101647309010447 12.65518427189022
11.815288184192184 -9.220202700824302 12.829768405559086
11.943504656862299 -9.357154792906515 13.003764762389213
12.068084200768755 -9.498034298717673 13.176750949104513
12.170754016182723 -9.662573483909465 13.343651629507864
12.271921650686615 -9.82855457658586 13.509785263133022
12.347135520123434 -10.019448066865522 13.662666330610364
12.422349389560251 -10.210341557145183 13.815547398087704
12.472031504178958 -10.422322082658699 13.949773568432306
12.520841354705281 -10.635023023348527 14.083362414901913
12.55064076194789 -10.860835078301736 14.199224806267612
12.576696760669744 -11.089228885616937 14.311596623421629
12.591194327183029 -11.323934117925393 14.411494087560813
12.598882655393615 -11.562357501280069 14.504042731304871
12.601842692276072 -11.802735875199543 14.59103013332701
12.595468130779892 -12.04697379382347 14.667038525309767
12.589093569283714 -12.2912117124474 14.743046917292524
12.57219482732102 -12.538353001021434 14.80704367281975
12.554892527324682 -12.785605621615277 14.870579832635583
12.533189591255756 -13.03353334819617 14.929708209309572
12.507592604355985 -13.282058465014853 14.984936210828122
12.481544905692493 -13.530591619414233 15.039881795812184
12.449376274821045 -13.779233928911186 15.090991997295813
12.417207643949595 -14.027876238408153 15.142102198779446
12.382005691694367 -14.276106936167672 15.193154840831617
12.344848385856213 -14.524072298875694 15.244170378658325
12.307029578681702 -14.771764561674836 15.295970994674324
12.26625147485616 -15.018235082957613 15.351283741548873
12.225473371030617 -15.264705604240406 15.406596488423421
12.182698055578323 -15.509029303358787 15.469308099520408
12.139496191340681 -15.752894501047313 15.533599901972567
12.095885053523057 -15.994257950172862 15.606085651300372
12.051953238442264 -16.23366120953403 15.684991586506651
12.008021423361468 -16.473064468895213 15.76389752171293
11.964089608280677 -16.712467728256385 15.84280345691921
11.920157793199882 -16.951870987617554 15.921709392125488
11.876225978119088 -17.191274246978722 16.00061532733176
11.832294163038295 -17.43067750633989 16.07952126253804
11.788362347957502 -17.670080765701062 16.158427197744317
11.744430532876706 -17.909484025062245 16.2373331329506
11.700498717795913 -18.148887284423417 16.316239068156875
11.65656690271512 -18.38829054378458 16.395145003363155
11.612635087634326 -18.62769380314575 16.47405093856943
11.568703272553535 -18.86709706250692 16.55295687377571
11.524771457472738 -19.1065003218681 16.63186280898199
11.480839642391944 -19.345903581229273 16.710768744188265
11.43690782731115 -19.58530684059044 16.789674679394544
11.392976012230358 -19.82471009995161 16.86858061460082
11.349044197149563 -20.064113359312778 16.947486549807095
11.305112382068769 -20.303516618673964 17.02639248501338
11.261180566987976 -20.542919878035132 17.105298420219658
11.217248751907182 -20.782323137396304 17.184204355425933
11.17331693682639 -21.021726396757472 17.263110290632213
11.129385121745596 -21.26112965611864 17.34201622583849
11.0854533066648 -21.50053291547982 17.42092216104477
11.041521491584007 -21.73993617484099 17.499828096251047
10.997589676503214 -21.97933943420216 17.578734031457323
10.953657861422421 -22.218742693563332 17.657639966663602
10.909726046341628 -22.4581459529245 17.73654590186988
10.865794231260832 -22.697549212285683 17.81545183707616
10.82186241618004 -22.936952471646855 17.894357772282437
10.777930601099245 -23.17635573100802 17.973263707488712
10.73399878601845 -23.41575899036919 18.05216964269499
10.690066970937657 -23.655162249730363 18.131075577901267
10.64613515585686 -23.894565509091542 18.20998151310755
10.60220334077607 -24.133968768452714 18.28888744831383
10.558271525695277 -24.373372027813886 18.367793383520105
10.514339710614482 -24.612775287175054 18.44669931872638
10.47040789553369 -24.852178546536223 18.525605253932657
10.426476080452895 -25.091581805897405 18.60451118913894
10.382544265372102 -25.330985065258577 18.683417124345215
10.33861245029131 -25.570388324619746 18.762323059551495
10.294680635210515 -25.809791583980918 18.84122899475777
10.250748820129722 -26.049194843342082 18.92013492996405
10.206817005048926 -26.288598102703265 18.99904086517033
10.162885189968133 -26.528001362064433 19.077946800376605
10.11895337488734 -26.767404621425598 19.15685273558288
10.07502155980655 -27.006807880786763 19.23575867078916
10.031089744725755 -27.246211140147935 19.314664605995436
9.987157929644958 -27.485614399509114 19.393570541201715
9.943226114564165 -27.725017658870282 19.472476476407994
9.899294299483373 -27.96442091823145 19.55138241161427
9.855362484402578 -28.203824177592622 19.63028834682055
9.811430669321787 -28.44322743695379 19.70919428202683
9.767498854240992 -28.68263069631496 19.788100217233104
9.723567039160198 -28.922033955676138 19.867006152439384
9.679635224079405 -29.16143721503731 19.94591208764566
9.63570340899861 -29.40084047439848 20.02481802285194
9.59177159391782 -29.64024373375965 20.103723958058215
9.547839778837025 -29.879646993120822 20.182629893264494
9.503907963756228 -30.119050252481998 20.261535828470773
9.459976148675434 -30.358453511843173 20.340441763677052
9.416044333594641 -30.59785677120434 20.41934769888333
9.372112518513848 -30.83726003056551 20.498253634089604
9.328180703433055 -31.07666328992668 20.57715956929588
9.28424888835226 -31.31606654928786 20.656065504502163
9.240317073271468 -31.555469808649033 20.734971439708442
9.196385258190674 -31.7948730680102 20.813877374914718
9.15245344310988 -32.03427632737137 20.892783310120997
9.108521628029088 -32.27367958673254 20.971689245327276
9.064589812948292 -32.513082846093724 21.050595180533556
9.020657997867499 -32.75248610545489 21.129501115739835
8.976726182786706 -32.99188936481606 21.208407050946107
8.932794367705911 -33.23129262417723 21.287312986152383
8.888862552625119 -33.470695883538404 21.366218921358666
8.844930737544324 -33.71009914289959 21.445124856564945
8.80099892246353 -33.949502402260755 21.524030791771224
8.757067107382737 -34.18890566162192 21.6029367269775
8.713135292301944 -34.428308920983085 21.681842662183776
8.669203477221151 -34.66771218034425 21.760748597390048
8.625271662140356 -34.907115439705436 21.839654532596327
8.581339847059564 -35.1465186990666 21.918560467802607
8.53740803197877 -35.385921958427765 21.997466403008886
8.493476216897978 -35.625325217788934 22.07637233821516
8.449544401817185 -35.8647284771501 22.155278273421434
8.40561258673639 -36.104131736511285 22.234184208627717
8.361680771655596 -36.343534995872446 22.31309014383399
8.317748956574803 -36.582938255233614 22.39199607904027
LINES 1 401
400 0 1 2 3 4 5 6 7 8 9 10 11 12 13 14 15 16 17 18 19 20 21 22 23 24 25 26 27 28 29 30 31 32 33 34 35 36 37 38 39 40 41 42 43 44 45 46 47 48 49 50 51 52 53 54 55 56 57 58 59 60 61 62 63 64 65 66 67 68 69 70 71 72 73 74 75 76 77 78 79 80 81 82 83 84 85 86 87 88 89 90 91 92 93 94 95 96 97 98 99 100 101 102 103 104 105 106 107 108 109 110 111 112 113 114 115 116 117 118 119 120 121 122 123 124 125 126 127 128 129 130 131 132 133 134 135 136 137 138 139 140 141 142 143 144 145 146 147 148 149 150 151 152 153 154 155 156 157 158 159 160 161 162 163 164 165 166 167 168 169 170 171 172 173 174 175 176 177 178 179 180 181 182 183 184 185 186 187 188 189 190 191 192 193 194 195 196 197 198 199 200 201 202 203 204 205 206 207 208 209 210 211 212 213 214 215 216 217 218 219 220 221 222 223 224 225 226 227 228 229 230 231 232 233 234 235 236 237 238 239 240 241 242 243 244 245 246 247 248 249 250 251 252 253 254 255 256 257 258 259 260 261 262 263 264 265 266 267 268 269 270 271 272 273 274 275 276 277 278 279 280 281 282 283 284 285 286 287 288 289 290 291 292 293 294 295 296 297 298 299 300 301 302 303 304 305 306 307 308 309 310 311 312 313 314 315 316 317 318 319 320 321 322 323 324 325 326 327 328 329 330 331 332 333 334 335 336 337 338 339 340 341 342 343 344 345 346 347 348 349 350 351 352 353 354 355 356 357 358 359 360 361 362 363 364 365 366 367 368 369 370 371 372 373 374 375 376 377 378 379 380 381 382 383 384 385 386 387 388 389 390 391 392 393 394 395 396 397 398 399

POINT_DATA 400
SCALARS MaximumInscribedSphereRadius float
LOOKUP_TABLE default
1.5
1.5
1.5
1.5
1.5
1.5
1.5
1.5
1.5
1.5
1.5
1.5
1.5
1.5
1.5
1.5
1.5
1.5
1.5
1.5
1.5
1.5
1.5
1.5
1.5
1.5
1.5
1.5
1.5
1.5
1.5
1.5
1.5
1.5
1.5
1.5
1.5
1.5
1.5
1.5
1.5
1.5
1.5
1.5
1.5
1.5
1.5
1.5
1.5
1.5
1.5
1.5
1.5
1.5
1.5
1.5
1.5
1.5
1.5
1.5
1.5
1.5
1.5
1.5
1.5
1.5
1.5
1.5
1.5
1.5
1.5
1.5
1.5
1.5
1.5
1.5
1.5
1.5
1.5
1.5
1.5
1.5
1.5
1.5
1.5
1.5
1.5
1.5
1.5
1.5
1.5
1.5
1.5
1.5
1.5
1.5
1.5
1.5
1.5
1.5
1.5
1.5
1.5
1.5
1.5
1.5
1.5
1.5
1.5
1.5
1.5
1.5
1.5
1.5
1.5
1.5
1.5
1.5
1.5
1.5
1.5
1.5
1.5
1.5
1.5
1.5
1.5
1.5
1.5
1.5
1.5
1.5
1.5
1.5
1.5
1.5
1.5
1.5
1.5
1.5
1.5
1.5
1.5
1.5
1.5
1.5
1.5
1.5
1.5
1.5
1.5
1.5
1.5
1.5
1.5
1.5
1.5
1.5
1.5
1.5
1.5
1.5
1.5
1.5
1.5
1.5
1.5
1.5
1.5
1.5
1.5
1.5
1.5
1.5
1.5
1.5
1.5
1.5
1.5
1.5
1.5
1.5
1.5
1.5
1.5
1.5
1.5
1.5
1.5
1.5
1.5
1.5
1.5
1.5
1.5
1.5
1.5
1.5
1.5
1.5
1.5
1.5
1.5
1.5
1.5
1.5
1.5
1.5
1.5
1.5
1.5
1.5
1.5
1.5
1.5
1.5
1.5
1.5
1.5
1.5
1.5
1.5
1.5
1.5
1.5
1.5
1.5
1.5
1.5
1.5
1.5
1.5
1.5
1.5
1.5
1.5
1.5
1.5
1.5
1.5
1.5
1.5
1.5
1.5
1.5
1.5
1.5
1.5
1.5
1.5
1.5
1.5
1.5
1.5
1.5
1.5
1.5
1.5
1.5
1.5
1.5
1.5
1.5
1.5
1.5
1.5
1.5
1.5
1.5
1.5
1.5
1.5
1.5
1.5
1.5
1.5
1.5
1.5
1.5
1.5
1.5
1.5
1.5
1.5
1.5
1.5
1.5
1.5
1.5
1.5
1.5
1.5
1.5
1.5
1.5
1.5
1.5
1.5
1.5
1.5
1.5
1.5
1.5
1.5
1.5
1.5
1.5
1.5
1.5
1.5
1.5
1.5
1.5
1.5
1.5
1.5
1.5
1.5
1.5
1.5
1.5
1.5
1.5
1.5
1.5
1.5
1.5
1.5
1.5
1.5
1.5
1.5
1.5
1.5
1.5
1.5
1.5
1.5
1.5
1.5
1.5
1.5
1.5
1.5
1.5
1.5
1.5
1.5
1.5
1.5
1.5
1.5
1.5
1.5
1.5
1.5
1.5
1.5
1.5
1.5
1.5
1.5
1.5
1.5
1.5
1.5
1.5
1.5
1.5
1.5
1.5
1.5
1.5
1.5
1.5
1.5
1.5
1.5
1.5
1.5
1.5
1.5
1.5
1.5
1.5
1.5
1.5
1.5
1.5
1.5
1.5
1.5
1.5
1.5
1.5
1.5
1.5
1.5
1.5
1.5
