# vtk DataFile Version 2.0
Vessel Segment
ASCII
DATASET POLYDATA
POINTS 400 float
7.442859880582039 26.320447766500344 -12.298172357029376
7.2289097586137245 26.17848220342325 -12.134338577723636
7.01495963664541 26.036516640346157 -11.970504798417897
6.801009514677096 25.894551077269064 -11.806671019112157
6.587059392708782 25.75258551419197 -11.642837239806418
6.373109270740468 25.610619951114877 -11.479003460500678
6.1591591487721535 25.46865438803778 -11.315169681194936
5.945209026803839 25.326688824960687 -11.151335901889198
5.731258904835525 25.18472326188359 -10.987502122583457
5.517308782867211 25.042757698806497 -10.823668343277717
5.303358660898897 24.900792135729404 -10.659834563971978
5.0894085389305825 24.75882657265231 -10.49600078466624
4.875458416962268 24.616861009575217 -10.3321670053605
4.661508294993954 24.474895446498124 -10.16833322605476
4.44755817302564 24.332929883421027 -10.004499446749021
4.2336080510573275 24.190964320343934 -9.84066566744328
4.019657929089012 24.04899875726684 -9.67683188813754
3.8057078071206982 23.907033194189744 -9.512998108831802
3.591757685152384 23.76506763111265 -9.349164329526062
3.37780756318407 23.623102068035557 -9.185330550220321
3.1638574412157547 23.481136504958467 -9.021496770914581
2.9499073192474414 23.33917094188137 -8.85766299160884
2.7359571972791277 23.197205378804277 -8.693829212303104
2.522007075310813 23.05523981572718 -8.529995432997364
2.308056953342499 22.913274252650087 -8.366161653691623
2.0941068313741855 22.771308689572994 -8.202327874385883
1.8801567094058713 22.629343126495897 -8.038494095080143
1.6662065874375578 22.487377563418807 -7.874660315774404
1.4522564654692434 22.345412000341714 -7.710826536468666
1.2383063435009294 22.203446437264617 -7.546992757162926
1.0243562215326152 22.061480874187524 -7.383158977857186
0.8104060995643014 21.91951531111043 -7.219325198551447
0.5964559775959872 21.777549748033337 -7.0554914192457066
0.3825058556276728 21.635584184956244 -6.891657639939966
0.16855573365935855 21.49361862187915 -6.727823860634228
-0.04539438830895581 21.351653058802057 -6.5639900813284875
-0.2593445102772701 21.20968749572496 -6.400156302022748
-0.4732946322455845 21.067721932647867 -6.236322522717008
-0.6872447542138975 20.925756369570774 -6.072488743411268
-0.901194876182212 20.783790806493677 -5.908654964105529
-1.1151449981505261 20.641825243416587 -5.744821184799789
-1.3290951201188403 20.49985968033949 -5.580987405494049
-1.5430452420871545 20.357894117262397 -5.41715362618831
-1.7504259229080583 20.198426076232373 -5.262418731436699
-1.9518692306809355 20.02313952971008 -5.115907286854831
-2.1533125384538128 19.847852983187792 -4.969395842272964
-2.3454730278485414 19.64916288431675 -4.842925366511166
-2.5342970878967863 19.442061083774128 -4.723658013096418
-2.7208403011069136 19.229848719511292 -4.611511394063863
-2.897343589141906 18.995140466223262 -4.530709115736018
-3.0738468771769 18.760432212935225 -4.4499068374081725
-3.2405278849795254 18.509553837829838 -4.4097202361381935
-3.405090877919132 18.255188639142172 -4.378291744558123
-3.5627057454514257 17.99616061113685 -4.380269394611376
-3.7154668022551878 17.733875231019905 -4.405583855552913
-3.8633321968657888 17.47374884946258 -4.454627532484936
-4.004287359216647 17.21666989660985 -4.537165022381605
-4.142596614319588 16.963157245120332 -4.631269632694512
-4.272002320950075 16.721645292853996 -4.7642979117769055
-4.401408027580563 16.480133340587663 -4.897326190859299
-4.520187343161841 16.258583139399235 -5.069140247309249
-4.638664611450053 16.037600336196633 -5.242056760746623
-4.750850697231707 15.829211452982388 -5.4329161667908386
-4.859028080283661 15.628847337986574 -5.635208673447981
-4.965752378671451 15.431041148697068 -5.840505308635375
-5.063738865408776 15.248616494695085 -6.063866623685203
-5.1617253521461 15.066191840693108 -6.287227938735031
-5.253171611224342 14.892253074213532 -6.519646887496696
-5.340141902367302 14.724121836528457 -6.7582646538190065
-5.427012165753945 14.556072809725453 -6.996970130905264
-5.500957699670547 14.39864636858625 -7.2470088412596585
-5.574903233587148 14.241219927447052 -7.497047551614053
-5.641789654479218 14.087126024528402 -7.750922922189432
-5.699443140743655 13.937390899749094 -8.0098164349713
-5.757096627008092 13.787655774969783 -8.26870994775317
-5.796020198625958 13.6429527863645 -8.53380707455419
-5.833141459759277 13.498734021630879 -8.799501152211624
-5.858523357821916 13.356566268234708 -9.067360669628172
-5.870642129033078 13.21671574647868 -9.337666699861595
-5.879723888089585 13.077313614643911 -9.608177561850134
-5.863517498858081 12.941645070375568 -9.880393986916367
-5.8473111096265775 12.805976526107225 -10.152610411982602
-5.807842471445068 12.673871068009031 -10.4239504872747
-5.762697855503464 12.542635001253975 -10.695076733635695
-5.70396938705875 12.413529371541754 -10.964289997635973
-5.632743554300574 12.286383778414528 -11.231743286880814
-5.557117635291459 12.159688791018251 -11.498057196726348
-5.465381049163414 12.034643671038012 -11.760199333298008
-5.373644463035368 11.909598551057776 -12.022341469869668
-5.2700188986585985 11.782938564101494 -12.279166529855377
-5.16430434139626 11.655994831515141 -12.535057335027284
-5.055280309400695 11.525940275904237 -12.787896363777264
-4.941572046362015 11.391482660909038 -13.036415907713316
-4.827863783323336 11.257025045913839 -13.284935451649368
-4.711248953951911 11.109692902151878 -13.524603722483084
-4.59436108473499 10.961151338427369 -13.763440513844591
-4.477719391828284 10.804581022386534 -13.996893655179349
-4.361473837808152 10.635091100066788 -14.22168360253966
-4.24522828378802 10.465601177747038 -14.446473549899974
-4.132577465023967 10.272152814822253 -14.652676970013488
-4.020458910183229 10.075156982422111 -14.856128327121407
-3.9119266243502544 9.863890447185419 -15.045374657508091
-3.808053207133363 9.634085054592873 -15.216167449401445
-3.7059561732508275 9.399908324774014 -15.380754748037681
-3.6161024566095716 9.135603149480986 -15.50257209881633
-3.5262487399683153 8.871297974187954 -15.624389449594974
-3.457694415321787 8.579836688074428 -15.678895890767967
-3.389698659588632 8.28766324269758 -15.731637127486023
-3.3507143499245484 7.987565455382314 -15.70138614347838
-3.3141249547180274 7.688024596553457 -15.664668443889886
-3.3102806280050228 7.408606596913547 -15.543502501228556
-3.309783140525053 7.13408530827611 -15.414607196083407
-3.3372881017876446 6.900533988408159 -15.221041597059367
-3.366876115582474 6.671919151380029 -15.023231569050271
-3.4188171645339382 6.496277234026728 -14.779874984315171
-3.4707582134854023 6.3206353166734255 -14.536518399580075
-3.5387772453948374 6.201298546779473 -14.265213651751095
-3.6079277417367557 6.0859241689270185 -13.991942092999585
-3.6843135686677573 6.008976456610303 -13.70881839285018
-3.7645066042441786 5.952248737207672 -13.42051052627684
-3.846272308836958 5.9109218573213385 -13.131125701733342
-3.932173551588787 5.9100934922773325 -12.8389088758374
-4.018074794340616 5.909265127233326 -12.546692049941456
-4.104518332704008 5.951571037878519 -12.258384467822024
-4.191073688156499 6.002770896852109 -11.97088294101698
-4.276132610551809 6.069980618170373 -11.687167845203852
-4.358318338935023 6.167929730337036 -11.410722804540182
-4.440504067318237 6.265878842503699 -11.13427776387651
-4.515062456722724 6.396614615379494 -10.869970073904131
-4.588065946275436 6.534034236189544 -10.608136689170244
-4.657083294899241 6.6806074200489 -10.350758586114953
-4.716769395781949 6.848608387333435 -10.103809953025934
-4.776455496664655 7.0166093546179695 -9.856861319936915
-4.82386133874652 7.200371152690083 -9.618963364716645
-4.86720287912249 7.389349190297139 -9.384060841929681
-4.907063779223856 7.580512002583709 -9.15047956053451
-4.932344470013295 7.780826714984514 -8.922432886143838
-4.957625160802733 7.981141427385316 -8.694386211753164
-4.971156941925367 8.182725350339107 -8.466633705204671
-4.977962992962961 8.385035840084416 -8.239049596708623
-4.98301551906587 8.586637473796367 -8.010869650120531
-4.972216255148475 8.781831079442572 -7.7773033527972
-4.96141699123108 8.977024685088779 -7.543737055473869
-4.941292042133602 9.162501651490718 -7.303289964975047
-4.915097706310862 9.34165478858634 -7.05836468397846
-4.886862743046347 9.51647917385165 -6.810837651026371
-4.84900129268731 9.67088303904709 -6.55103707361925
-4.811139842328272 9.825286904242528 -6.291236496212128
-4.7681271470293165 9.952453515702974 -6.018206346816456
-4.724003411319216 10.073745491043193 -5.742322792220125
-4.680335777971683 10.172395586184502 -5.458292984375349
-4.6370293794585224 10.253113224678211 -5.167811312465617
-4.597231244011425 10.316091582644919 -4.873420418249496
-4.563113815740261 10.350345852284153 -4.572699569069897
-4.534051755525482 10.370396374674968 -4.2711208275623385
-4.51771503970322 10.35469330338389 -3.9673826042518305
-4.5074109566236995 10.326734614424897 -3.665224694268774
-4.5157103591255074 10.260981944579244 -3.3679401683379133
-4.530412356123064 10.184468767711532 -3.074454522779475
-4.566285557265598 10.072374250963744 -2.7935304836042514
-4.607561455977679 9.95188218062559 -2.5177116236388954
-4.669125813693609 9.799855229876743 -2.2610639680160807
-4.733682630558974 9.642924855778325 -2.0087129953164053
-4.815373428384437 9.457918856210899 -1.7809636227456949
-4.897491465320561 9.272026441265282 -1.5542211345563355
-4.992297928787403 9.059808682685937 -1.357381757245482
-5.087104392254246 8.847590924106594 -1.160542379934629
-5.187595333649199 8.615357739244487 -0.9915600842353489
-5.288954666393099 8.380066890468605 -0.8268333857930775
-5.391201415019783 8.131237338540016 -0.6852176660015923
-5.493874235446511 7.8759074977001164 -0.554698137371017
-5.595362475103025 7.6124300728431535 -0.44233519742408434
-5.695584801548989 7.340245656871197 -0.3493754641229508
-5.794298550050107 7.064245185302826 -0.2690289575014394
-5.889632477474102 6.779695215062347 -0.21694114942974677
-5.984025461535037 6.494161161786944 -0.1711323112540811
-6.073125490161203 6.203091485590475 -0.16064367314641032
-6.162225518787371 5.912021809394006 -0.15015503503873953
-6.244729975315623 5.620067620809419 -0.17686000229510612
-6.327174400229381 5.328105381565097 -0.20390349851389952
-6.404429136228029 5.0380441247088825 -0.2541541183524837
-6.480394182990601 4.748455280855454 -0.310171938888902
-6.552867860145786 4.460278701761815 -0.3763493880236532
-6.622583179977544 4.173217882751135 -0.4505534539589393
-6.690642162564387 3.88630097943165 -0.5266982133926269
-6.753876005784928 3.599803322415508 -0.6084964812684006
-6.817109849005467 3.3133056653993664 -0.6902947491441743
-6.873677468517276 3.025126765078817 -0.77102753553113
-6.929470205105646 2.7367524367643004 -0.8516364701772803
-6.980861649405738 2.4466367689262603 -0.9286091220053627
-7.027631102979397 2.15469244382073 -1.0017631532186397
-7.074012080997996 1.8626028719493275 -1.0745239197667564
-7.10999845601562 1.566626871578747 -1.136761939090797
-7.145984831033243 1.2706508712081734 -1.1989999584148363
-7.175370600829575 0.97280360068959 -1.2548470348963705
-7.199127811709765 0.6733606349395946 -1.3052443386505947
-7.222885022589955 0.37391766918959923 -1.355641642404819
-7.233666656399082 0.0720915102192137 -1.3950572026453845
-7.24438122993833 -0.2297469655506221 -1.4344160071301366
-7.249860138156576 -0.5320866297638935 -1.4700200984126168
-7.247385396092744 -0.835187663805086 -1.4999202965144969
-7.244910654028914 -1.1382886978462787 -1.529820494616377
-7.232760303106073 -1.441616171168135 -1.5537176904640169
-7.2173187264528025 -1.7450206693881412 -1.5755729232923894
-7.201222826268821 -2.048400242957994 -1.5970558356314697
-7.172875180436829 -2.3513131200700492 -1.6115673099582244
-7.144527534604839 -2.6542259971821043 -1.6260787842849793
-7.111733201693232 -2.956709966480628 -1.6381076650749735
-7.069802293250371 -3.258312662020934 -1.645035579020236
-7.02787138480751 -3.5599153575612403 -1.651963492965498
-6.976607712462174 -3.8600191250611515 -1.6536196817305837
-6.9191769755178125 -4.159132405053724 -1.6517923290631202
-6.861746238573453 -4.45824568504629 -1.649964976395657
-6.787051895205183 -4.753231480831629 -1.6384279348081328
-6.7106109298343055 -5.047799683991476 -1.625908528592392
-6.627380421159735 -5.340053394553967 -1.6096694053315814
-6.526770776111292 -5.626382718057299 -1.5839089539184994
-6.426161131062847 -5.9127120415606305 -1.558148502505417
-6.30284542858432 -6.188167909450852 -1.5203399454042383
-6.172003391547387 -6.460019573264598 -1.4785378251544221
-6.029469509745562 -6.7240050452245415 -1.4306647722563595
-5.8633805027957635 -6.972142792785105 -1.370560836963776
-5.696963845951699 -7.2199677055118565 -1.3102857095953493
-5.494780839667683 -7.433643484730518 -1.2313232097811393
-5.292597833383668 -7.64731926394918 -1.1523607099669293
-5.067727709774328 -7.829662629335287 -1.0608656221926236
-4.8348535045790415 -8.00095182715113 -0.9649490005990489
-4.592358063554623 -8.152318580512869 -0.862811264534084
-4.338526188882156 -8.280211273611265 -0.753343362919254
-4.083452203383209 -8.40391558935722 -0.6427035344709632
-3.818438567204077 -8.49410356589051 -0.5226856834670377
-3.5534249310249453 -8.584291542423802 -0.40266783246311233
-3.2858066186147736 -8.65532972437769 -0.27658198882864504
-3.016875818514452 -8.716718388531685 -0.1474385038886657
-2.7480428745166168 -8.77563443303429 -0.01714859876209999
-2.479902918001391 -8.817040128931954 0.12125990928165534
-2.211762961486165 -8.85844582482962 0.2596684173254107
-1.9456325955490446 -8.893150709133025 0.40343118987060167
-1.6813885663403736 -8.921565761488376 0.5522198347964322
-1.4171445371317026 -8.949980813843727 0.701008479722263
-1.1583688844247269 -8.970974659954404 0.86018983924387
-0.900332729131174 -8.990964924321815 1.0207766223970869
-0.6443550301802652 -9.009279572604049 1.184662396628457
-0.3943279489855711 -9.022750323727758 1.3580849458113144
-0.14430086779087722 -9.036221074851468 1.5315074949941718
0.09958987172223017 -9.044816347998957 1.7135719346515241
0.3404891888079803 -9.051034860705297 1.8998492337488484
0.5800893454454588 -9.055832315696462 2.0877345902211353
0.8117981736017905 -9.051998016822253 2.285387569298654
1.043507001758122 -9.048163717948045 2.483040548376173
1.2698894417076854 -9.034757352299977 2.6861819972011896
1.4936038636364046 -9.01655628418975 2.8920726516088147
1.715942943144047 -8.993933110801866 3.098840746191242
1.9338950974040712 -8.957204762591411 3.3084076088456253
2.1518472516640954 -8.920476414380955 3.517974471500009
2.367191349694077 -8.865816642047033 3.7261754643567286
2.5820460803694862 -8.807792274469367 3.934120169760028
2.7966440167741045 -8.740058736379588 4.13907318233813
3.0109323128004997 -8.660617961908212 4.340418836796191
3.2252940687120364 -8.580310498559184 4.541292317819996
3.4411540248539345 -8.48232708222352 4.732535912455907
3.657013980995833 -8.384343665887856 4.923779507091817
3.8749167268962266 -8.278437670523939 5.1081600932720646
4.094189725189905 -8.167217406851544 5.28793714464292
4.313933733407582 -8.055373822432676 5.466706029271232
4.538209662140535 -7.937532827057876 5.635774626685718
4.762485590873488 -7.819691831683078 5.804843224100204
4.990026247829693 -7.702012709571699 5.969527565564098
5.2204406044680915 -7.58447607256592 6.130352769583675
5.45085496110649 -7.46693943556014 6.2911779736032525
5.6873983975048645 -7.3560308863760975 6.447729701115092
5.924460131831401 -7.24568283310991 6.603920047456062
6.1632892972664575 -7.139251779165369 6.759988006711502
6.406540046346813 -7.04261988517436 6.915749790109132
6.649790795427169 -6.945987991183351 7.071511573506763
6.895930871514247 -6.862397702992842 7.229934373232782
7.143633510510737 -6.785860382311929 7.389796264278821
7.391380318489997 -6.710351703703904 7.5499883010357225
7.640217246763024 -6.660230605436864 7.718328556672343
7.889054175036052 -6.610109507169824 7.886668812308964
8.136031585115447 -6.575489732802941 8.060654046880295
8.38096369240441 -6.557920020724767 8.240848250638717
8.625895799693371 -6.540350308646594 8.42104245439714
8.860576336747112 -6.559287766392533 8.614144908411117
9.094948631693152 -6.579322914220535 8.807635485041843
9.3201495318934 -6.620190404306676 9.007295871736396
9.536766946242722 -6.680554832423585 9.212730568539023
9.75122459367149 -6.744564282031184 9.418879799995034
9.94420485073858 -6.844820952895529 9.63213458507892
10.137185107805665 -6.945077623759874 9.8453893701628
10.312552127840158 -7.069553578951127 10.060031748667942
10.479076966573734 -7.206188077322187 10.275370725565534
10.640162056220207 -7.3494225645330165 10.489922580907601
10.78108984712053 -7.517113684694053 10.701557712685734
10.922017638020856 -7.684804804855087 10.913192844463868
11.047190144372971 -7.870801086511013 11.118764531147114
11.166064037936902 -8.064115365117654 11.32191218716952
11.28203503254615 -8.260920547178271 11.523076705064547
11.383617108541726 -8.475029233932483 11.714411320658456
11.485199184537297 -8.689137920686685 11.90574593625236
11.579497674533462 -8.91291445436878 12.089188805639292
11.668530346956821 -9.143680555861046 12.266926175584025
11.757563019380179 -9.374446657353312 12.444663545528757
11.837950596945188 -9.617961344990242 12.608960971716185
11.918024286692004 -9.861938910820587 12.77277041776092
11.995834753227065 -10.109359101540996 12.93223191756846
12.069154308429642 -10.363610489048325 13.083065792434647
12.142473863632219 -10.617861876555653 13.233899667300834
12.211543673304433 -10.877593212544031 13.377057562811267
12.278818664208288 -11.13963892578469 13.516973619083366
12.34558326201911 -11.402135743855947 13.656249510500137
12.406204223225659 -11.670062541657469 13.787819693725183
12.466825184432206 -11.93798933945899 13.91938987695023
12.523663816503063 -12.207967977086462 14.048314076786628
12.576079549971379 -12.480345950988816 14.174144173542057
12.628495283439698 -12.75272392489117 14.299974270297485
12.672392112188618 -13.028023312264928 14.422606105686677
12.714877594968677 -13.303806696732448 14.544708077973123
12.75433508055848 -13.580312651270672 14.666073720120192
12.785410249341634 -13.858818875580328 14.785401000896773
12.816485418124788 -14.137325099889985 14.904728281673355
12.83919842734625 -14.417438561003912 15.022008649972669
12.85795746103533 -14.698311990275819 15.138321153237554
12.875564003982845 -14.9794069228162 15.254213425233354
12.882035807806123 -15.262641899541446 15.36604565111829
12.888507611629397 -15.54587687626669 15.477877877003223
12.888914517818732 -15.830427396701285 15.586285847932762
12.883414494271326 -16.11625919585248 15.691358752939827
12.877914470723923 -16.402090995003675 15.796431657946894
12.872414447176519 -16.687922794154872 15.901504562953964
12.866914423629114 -16.97375459330607 16.00657746796103
12.86141440008171 -17.259586392457265 16.111650372968096
12.855914376534304 -17.545418191608466 16.216723277975163
12.850414352986899 -17.83124999075966 16.321796182982233
12.844914329439495 -18.117081789910856 16.4268690879893
12.839414305892092 -18.40291358906205 16.531941992996366
12.833914282344688 -18.688745388213242 16.637014898003425
12.828414258797284 -18.97457718736444 16.742087803010495
12.82291423524988 -19.260408986515635 16.847160708017565
12.817414211702475 -19.546240785666832 16.95223361302463
12.811914188155072 -19.83207258481803 17.0573065180317
12.806414164607666 -20.117904383969226 17.162379423038765
12.800914141060261 -20.403736183120422 17.26745232804583
12.795414117512857 -20.68956798227162 17.3725252330529
12.789914093965454 -20.975399781422816 17.47759813805997
12.784414070418048 -21.261231580574012 17.582671043067037
12.778914046870645 -21.54706337972521 17.687743948074107
12.77341402332324 -21.832895178876406 17.79281685308117
12.767913999775834 -22.118726978027603 17.89788975808824
12.76241397622843 -22.4045587771788 18.002962663095307
12.756913952681025 -22.690390576329996 18.108035568102373
12.751413929133623 -22.976222375481193 18.21310847310944
12.74591390558622 -23.26205417463239 18.318181378116506
12.740413882038816 -23.547885973783586 18.423254283123576
12.734913858491408 -23.833717772934783 18.528327188130643
12.729413834944005 -24.119549572085976 18.63340009313771
12.723913811396601 -24.40538137123717 18.738472998144776
12.718413787849197 -24.691213170388366 18.843545903151842
12.712913764301792 -24.977044969539563 18.94861880815891
12.707413740754387 -25.26287676869076 19.053691713165975
12.701913717206983 -25.548708567841956 19.158764618173045
12.69641369365958 -25.834540366993153 19.263837523180108
12.690913670112174 -26.12037216614435 19.368910428187178
12.68541364656477 -26.406203965295546 19.473983333194248
12.679913623017367 -26.692035764446743 19.57905623820131
12.674413599469961 -26.977867563597933 19.684129143208377
12.668913575922556 -27.26369936274913 19.789202048215444
12.663413552375152 -27.549531161900326 19.89427495322251
12.657913528827748 -27.835362961051523 19.999347858229577
12.652413505280343 -28.12119476020272 20.104420763236647
12.646913481732941 -28.407026559353916 20.209493668243713
12.641413458185536 -28.692858358505113 20.314566573250783
12.63591343463813 -28.97869015765631 20.41963947825785
12.630413411090727 -29.264521956807506 20.524712383264912
12.624913387543323 -29.550353755958703 20.629785288271982
12.619413363995918 -29.8361855551099 20.734858193279052
12.613913340448514 -30.122017354261097 20.83993109828612
12.608413316901107 -30.407849153412293 20.94500400329319
12.602913293353705 -30.693680952563493 21.050076908300255
12.5974132698063 -30.979512751714687 21.155149813307318
12.591913246258894 -31.265344550865883 21.260222718314385
12.58641322271149 -31.55117635001708 21.36529562332145
12.580913199164087 -31.837008149168277 21.47036852832852
12.575413175616683 -32.12283994831947 21.575441433335588
12.56991315206928 -32.40867174747067 21.680514338342658
12.564413128521874 -32.69450354662185 21.78558724334972
12.558913104974469 -32.98033534577306 21.890660148356787
12.553413081427067 -33.266167144924246 21.995733053363857
12.547913057879661 -33.55199894407544 22.10080595837092
12.542413034332256 -33.83783074322665 22.20587886337799
12.536913010784852 -34.12366254237784 22.31095176838506
12.531412987237447 -34.40949434152904 22.416024673392126
12.525912963690043 -34.69532614068023 22.52109757839919
12.52041294014264 -34.98115793983143 22.626170483406256
12.514912916595236 -35.266989738982616 22.731243388413322
12.50941289304783 -35.55282153813381 22.83631629342039
12.503912869500425 -35.838653337285 22.941389198427455
12.498412845953021 -36.1244851364362 23.04646210343452
12.492912822405618 -36.41031693558739 23.151535008441588
12.487412798858214 -36.696148734738586 23.256607913448654
LINES 1 401
400 0 1 2 3 4 5 6 7 8 9 10 11 12 13 14 15 16 17 18 19 20 21 22 23 24 25 26 27 28 29 30 31 32 33 34 35 36 37 38 39 40 41 42 43 44 45 46 47 48 49 50 51 52 53 54 55 56 57 58 59 60 61 62 63 64 65 66 67 68 69 70 71 72 73 74 75 76 77 78 79 80 81 82 83 84 85 86 87 88 89 90 91 92 93 94 95 96 97 98 99 100 101 102 103 104 105 106 107 108 109 110 111 112 113 114 115 116 117 118 119 120 121 122 123 124 125 126 127 128 129 130 131 132 133 134 135 136 137 138 139 140 141 142 143 144 145 146 147 148 149 150 151 152 153 154 155 156 157 158 159 160 161 162 163 164 165 166 167 168 169 170 171 172 173 174 175 176 177 178 179 180 181 182 183 184 185 186 187 188 189 190 191 192 193 194 195 196 197 198 199 200 201 202 203 204 205 206 207 208 209 210 211 212 213 214 215 216 217 218 219 220 221 222 223 224 225 226 227 228 229 230 231 232 233 234 235 236 237 238 239 240 241 242 243 244 245 246 247 248 249 250 251 252 253 254 255 256 257 258 259 260 261 262 263 264 265 266 267 268 269 270 271 272 273 274 275 276 277 278 279 280 281 282 283 284 285 286 287 288 289 290 291 292 293 294 295 296 297 298 299 300 301 302 303 304 305 306 307 308 309 310 311 312 313 314 315 316 317 318 319 320 321 322 323 324 325 326 327 328 329 330 331 332 333 334 335 336 337 338 339 340 341 342 343 344 345 346 347 348 349 350 351 352 353 354 355 356 357 358 359 360 361 362 363 364 365 366 367 368 369 370 371 372 373 374 375 376 377 378 379 380 381 382 383 384 385 386 387 388 389 390 391 392 393 394 395 396 397 398 399

POINT_DATA 400
SCALARS MaximumInscribedSphereRadius float
LOOKUP_TABLE default
1.5
1.5
1.5
1.5
1.5
1.5
1.5
1.5
1.5
1.5
1.5
1.5
1.5
1.5
1.5
1.5
1.5
1.5
1.5
1.5
1.5
1.5
1.5
1.5
1.5
1.5
1.5
1.5
1.5
1.5
1.5
1.5
1.5
1.5
1.5
1.5
1.5
1.5
1.5
1.5
1.5
1.5
1.5
1.5
1.5
1.5
1.5
1.5
1.5
1.5
1.5
1.5
1.5
1.5
1.5
1.5
1.5
1.5
1.5
1.5
1.5
1.5
1.5
1.5
1.5
1.5
1.5
1.5
1.5
1.5
1.5
1.5
1.5
1.5
1.5
1.5
1.5
1.5
1.5
1.5
1.5
1.5
1.5
1.5
1.5
1.5
1.5
1.5
1.5
1.5
1.5
1.5
1.5
1.5
1.5
1.5
1.5
1.5
1.5
1.5
1.5
1.5
1.5
1.5
1.5
1.5
1.5
1.5
1.5
1.5
1.5
1.5
1.5
1.5
1.5
1.5
1.5
1.5
1.5
1.5
1.5
1.5
1.5
1.5
1.5
1.5
1.5
1.5
1.5
1.5
1.5
1.5
1.5
1.5
1.5
1.5
1.5
1.5
1.5
1.5
1.5
1.5
1.5
1.5
1.5
1.5
1.5
1.5
1.5
1.5
1.5
1.5
1.5
1.5
1.5
1.5
1.5
1.5
1.5
1.5
1.5
1.5
1.5
1.5
1.5
1.5
1.5
1.5
1.5
1.5
1.5
1.5
1.5
1.5
1.5
1.5
1.5
1.5
1.5
1.5
1.5
1.5
1.5
1.5
1.5
1.5
1.5
1.5
1.5
1.5
1.5
1.5
1.5
1.5
1.5
1.5
1.5
1.5
1.5
1.5
1.5
1.5
1.5
1.5
1.5
1.5
1.5
1.5
1.5
1.5
1.5
1.5
1.5
1.5
1.5
1.5
1.5
1.5
1.5
1.5
1.5
1.5
1.5
1.5
1.5
1.5
1.5
1.5
1.5
1.5
1.5
1.5
1.5
1.5
1.5
1.5
1.5
1.5
1.5
1.5
1.5
1.5
1.5
1.5
1.5
1.5
1.5
1.5
1.5
1.5
1.5
1.5
1.5
1.5
1.5
1.5
1.5
1.5
1.5
1.5
1.5
1.5
1.5
1.5
1.5
1.5
1.5
1.5
1.5
1.5
1.5
1.5
1.5
1.5
1.5
1.5
1.5
1.5
1.5
1.5
1.5
1.5
1.5
1.5
1.5
1.5
1.5
1.5
1.5
1.5
1.5
1.5
1.5
1.5
1.5
1.5
1.5
1.5
1.5
1.5
1.5
1.5
1.5
1.5
1.5
1.5
1.5
1.5
1.5
1.5
1.5
1.5
1.5
1.5
1.5
1.5
1.5
1.5
1.5
1.5
1.5
1.5
1.5
1.5
1.5
1.5
1.5
1.5
1.5
1.5
1.5
1.5
1.5
1.5
1.5
1.5
1.5
1.5
1.5
1.5
1.5
1.5
1.5
1.5
1.5
1.5
1.5
1.5
1.5
1.5
1.5
1.5
1.5
1.5
1.5
1.5
1.5
1.5
1.5
1.5
1.5
1.5
1.5
1.5
1.5
1.5
1.5
1.5
1.5
1.5
1.5
1.5
1.5
1.5
1.5
1.5
1.5
1.5
1.5
1.5
1.5
1.5
1.5
1.5
1.5
1.5
1.5
1.5
1.5
1.5
1.5
1.5
1.5
1.5
1.5
1.5
1.5
1.5
1.5
1.5
