# vtk DataFile Version 2.0
Vessel Segment
ASCII
DATASET POLYDATA
POINTS 400 float
10.700049887286665 21.816561448853513 1.7404802215827688
10.497656703933437 21.655261896466193 1.634280230557787
10.29526352058021 21.493962344078874 1.5280802395328053
10.092870337226984 21.332662791691558 1.4218802485078235
9.890477153873753 21.171363239304238 1.3156802574828417
9.688083970520525 21.010063686916922 1.2094802664578594
9.485690787167298 20.848764134529603 1.1032802754328772
9.28329760381407 20.687464582142283 0.9970802844078954
9.080904420460842 20.526165029754964 0.8908802933829137
8.878511237107613 20.364865477367648 0.7846803023579323
8.676118053754386 20.203565924980325 0.6784803113329504
8.473724870401158 20.042266372593005 0.5722803203079686
8.27133168704793 19.88096682020569 0.4660803292829867
8.068938503694701 19.719667267818373 0.3598803382580046
7.866545320341473 19.558367715431054 0.2536803472330225
7.664152136988245 19.397068163043734 0.14748035620804031
7.461758953635018 19.235768610656415 0.04128036518305862
7.25936577028179 19.0744690582691 -0.0649196258419231
7.056972586928561 18.91316950588178 -0.17111961686690486
6.8545794035753325 18.75186995349446 -0.277319607891887
6.652186220222104 18.590570401107144 -0.3835195989168687
6.449793036868877 18.42927084871982 -0.4897195899418506
6.247399853515649 18.267971296332504 -0.5959195809668324
6.045006670162421 18.106671743945185 -0.7021195719918141
5.842613486809193 17.945372191557865 -0.8083195630167959
5.640220303455965 17.78407263917055 -0.9145195540417781
5.437827120102737 17.622773086783234 -1.02071954506676
5.235433936749509 17.461473534395914 -1.1269195360917417
5.033040753396282 17.300173982008594 -1.2331195271167232
4.830647570043054 17.138874429621275 -1.3393195181417055
4.628254386689824 16.977574877233955 -1.4455195091666873
4.425861203336598 16.816275324846636 -1.551719500191669
4.22346801998337 16.654975772459316 -1.6579194912166508
4.021074836630142 16.493676220072 -1.7641194822416326
3.8186816532769132 16.33237666768468 -1.8703194732666144
3.6162884699236852 16.171077115297365 -1.9765194642915964
3.4138952865704573 16.009777562910045 -2.082719455316578
3.2115021032172293 15.848478010522726 -2.1889194463415604
3.0091089198640004 15.687178458135406 -2.2951194373665427
2.806715736510772 15.525878905748087 -2.401319428391524
2.6043225531575445 15.36457935336077 -2.507519419416506
2.401929369804317 15.203279800973451 -2.6137194104414876
2.1995361864510894 15.041980248586132 -2.719919401466469
1.9971430030978614 14.880680696198816 -2.8261193924914507
1.7947498197446339 14.719381143811498 -2.932319383516433
1.592356636391406 14.558081591424179 -3.0385193745414143
1.3881020905581252 14.389834648289817 -3.1239264044881643
1.1802420437848948 14.208130453203141 -3.1690570017060447
0.9723819970116645 14.026426258116468 -3.2141875989239246
0.7673859893617608 13.837617187292505 -3.213568341835806
0.5631704666696363 13.646871952749734 -3.2004817015979503
0.36142503074956717 13.456201619437131 -3.173436971378097
0.165471664716717 13.265706920909782 -3.1136621226933983
-0.030481701316133147 13.075212222382431 -3.0538872740086997
-0.22021405698167876 12.888847040950068 -2.968184499483899
-0.40837690357373185 12.703523702267844 -2.875940325337462
-0.5954982132864423 12.519910103490428 -2.7787305341613346
-0.7796799787361912 12.341121927823814 -2.6675062118234303
-0.9638617441859413 12.162333752157195 -2.5562818894855255
-1.1491629963863896 11.987691182703825 -2.4404957954906377
-1.3349201449180073 11.814736857137135 -2.322851979677469
-1.5222161907026617 11.642621076223216 -2.2065080244349113
-1.7157885960377177 11.473925281750555 -2.095465522743228
-1.9093610013727738 11.305229487277892 -1.9844230210515443
-2.113426417263524 11.138809896118024 -1.890579290523327
-2.320405916226696 10.973022444372102 -1.8015119440126313
-2.535431005970636 10.80893403061477 -1.7335355594538036
-2.7579514181508684 10.646428451220133 -1.6852076462910999
-2.984474231362518 10.486773338989451 -1.6615570205731882
-3.2166695312069136 10.331158111007666 -1.672880796986453
-3.4465387675111416 10.180969649270118 -1.7135248810620671
-3.673260087726881 10.038125356973225 -1.7938488219498328
-3.889915283824093 9.902686177337369 -1.9026272284043417
-4.094657740017569 9.776010567477728 -2.045080030624794
-4.286395494256374 9.655341243360327 -2.2067346099542946
-4.459952480456584 9.543068796636486 -2.3952335611706173
-4.625087991874292 9.433203405417002 -2.591473272192038
-4.765025933683403 9.33054007205427 -2.8108738118153282
-4.9049638754925144 9.227876738691537 -3.030274351438618
-5.012640277421518 9.12956071772102 -3.268897829586863
-5.119017111276457 9.031419816363945 -3.5082956513433037
-5.205848591608499 8.933505703660385 -3.754925659829561
-5.278922727470193 8.835751220181477 -4.0066461714883195
-5.346252202894698 8.737556754711106 -4.259471362032636
-5.386373876708808 8.637278451063223 -4.51752852133996
-5.426495550522917 8.53700014741534 -4.775585680647284
-5.442438694466352 8.433512316479447 -5.034639554266388
-5.450828381172267 8.329021818001223 -5.29400480492009
-5.4483791317227706 8.222736153646556 -5.552368193031322
-5.427699822123984 8.113431190955197 -5.809046543593784
-5.406615894759406 8.004053950288105 -6.065640152844166
-5.3607401927064195 7.890248087250157 -6.317041485102454
-5.314864490653433 7.776442224212207 -6.568442817360743
-5.254447807183432 7.660270212768976 -6.8154386207370115
-5.18751571122849 7.543037995524029 -7.060460428200797
-5.113732750064635 7.425155086164086 -7.303018477427244
-5.029143960481491 7.306245844051415 -7.541690455629456
-4.9431121448768165 7.187387565934857 -7.7798227767319705
-4.84297987726943 7.069027279795144 -8.012681867193642
-4.742847609662045 6.950666993655431 -8.245540957655313
-4.631396048830762 6.834447675394774 -8.474208670493024
-4.516804963464928 6.718822176999991 -8.701713860846008
-4.396387623654092 6.604895440355158 -8.926933652902324
-4.2682960873463776 6.493206270159499 -9.149143175536354
-4.140031171937104 6.3815628522066135 -9.371269745544812
-4.000084853480493 6.273001987937205 -9.587807389065354
-3.8601385350238817 6.164441123667796 -9.804345032585895
-3.7153544769653815 6.055811810893301 -10.01756946405666
-3.5661281113067513 5.947119644526141 -10.227751502120428
-3.4169017456481208 5.838427478158979 -10.437933540184197
-3.26187942561325 5.724110214203581 -10.640799244372014
-3.1066553620798247 5.6095971538713485 -10.843410284237631
-2.950544014994895 5.4896805045014805 -11.04200153097078
-2.7930915819319466 5.36159659284319 -11.234517055692235
-2.635639148868999 5.2335126811849 -11.427032580413693
-2.4802127580299684 5.084682484689297 -11.605576029103794
-2.3250226171364092 4.933433133941261 -11.782490241166155
-2.1745764796698475 4.763448111031755 -11.944500166994203
-2.0279755998790336 4.578276866548425 -12.094429405713555
-1.8900093221433516 4.374045865445038 -12.222462114395746
-1.762600999403602 4.1465095572361985 -12.323720852810002
-1.6576516931127316 3.8965478035196037 -12.374569694946675
-1.5665832937477804 3.6328203696831363 -12.394285109051593
-1.5272411982512053 3.3689110652212584 -12.310243078481811
-1.509021565236262 3.1241204920731036 -12.187580480500472
-1.5179336389590383 2.9038878421146617 -12.015309939791535
-1.5499898993125212 2.7293511980300473 -11.802310282742233
-1.5896092475067407 2.5697471550305035 -11.576001111322311
-1.6422288342767097 2.460648406810556 -11.324907367079959
-1.6969522741415992 2.3597230255725155 -11.069802688735518
-1.7555758806571937 2.299198921540301 -10.80405669732198
-1.8153915650546038 2.251023384445698 -10.535058210546262
-1.8746999254624215 2.2277026794464563 -10.263689545579815
-1.9335554191594406 2.226568833908744 -9.990205122590337
-1.991465619207178 2.2344583848362443 -9.71716686879353
-2.046016198535849 2.2744175362989507 -9.445714322533235
-2.100566777864519 2.314376687761656 -9.174261776272948
-2.150336935127406 2.3845946406491834 -8.908282391229758
-2.1995822465555395 2.458134728208889 -8.642903908330402
-2.2463855301043774 2.5468405532918417 -8.382056293723759
-2.2916822720855743 2.644902460742393 -8.12400387301247
-2.3368105712700324 2.7490060369411085 -7.868422982018472
-2.3816889057552184 2.862075291346064 -7.616509776401834
-2.4277988947609543 2.9768273125640623 -7.365611123282721
-2.4772737836597347 3.096176679689332 -7.1174842438497254
-2.5287461712671724 3.2154288062322274 -6.8697489847938735
-2.587793990430259 3.334312151872764 -6.623498929883621
-2.649257697138152 3.4523600113131403 -6.377493101541942
-2.7206251570801854 3.5669828565492168 -6.132488462048492
-2.7940877593284084 3.6807000978691518 -5.887728702000995
-2.8768058101834164 3.790416765825059 -5.644050715310952
-2.9604027675480076 3.8997184970409418 -5.400499960178827
-3.0501232106833553 4.006129295949957 -5.157835648173432
-3.1398436538187013 4.11254009485897 -4.915171336168042
-3.2303219257646667 4.21754084684415 -4.672174498850484
-3.3208131831228855 4.3225174376462885 -4.429171963704868
-3.4069910262800334 4.426948318288769 -4.184388462356807
-3.491685351170348 4.531191512112288 -3.9389924309407447
-3.5714063407300265 4.634480663194485 -3.6916191044298845
-3.6441711826214127 4.736435405524942 -3.441480157716745
-3.716487737277334 4.8382180291816805 -3.1911608797494546
-3.7720098391636157 4.933552468041091 -2.9340857441734967
-3.8275319410498976 5.0288869069005 -2.677010608597531
-3.8700992217514867 5.115888712605706 -2.4148941529593677
-3.904151094486853 5.197413347323421 -2.149463958257881
-3.9338733184171657 5.274769910482863 -1.8825993639090606
-3.94376832824667 5.333039187145329 -1.609166073069013
-3.953663338076173 5.391308463807793 -1.3357327822289724
-3.944497756346432 5.423681334337907 -1.0585704922908474
-3.929728812815501 5.448441275727857 -0.7803119650697528
-3.906236203003138 5.456880747536559 -0.5026553841727519
-3.868934229089703 5.439485289457162 -0.22595167053254867
-3.8314323517405398 5.421570297779435 0.05063975051066674
-3.7760577608459975 5.357205503244221 0.31719145706985064
-3.7206831699514566 5.29284070870901 0.5837431636290277
-3.657447951431769 5.198671793082316 0.8381963004984643
-3.5895806823184673 5.086940132675248 1.0855200846513207
-3.5200563994059606 4.9647284131815965 1.326320190355074
-3.4451385749135417 4.808404343826638 1.5458858736380856
-3.3702207504211206 4.652080274471674 1.765451556921103
-3.2934038880483874 4.462092821748537 1.9548391637658367
-3.2162204373375753 4.265607023789146 2.13840122547398
-3.1399889689930163 4.053258172214107 2.301386290678901
-3.0648723247145333 3.8223328064522972 2.4402745535452235
-2.990552220729019 3.5881486243441167 2.572585082554687
-2.921889022174959 3.330820834746508 2.6581815674535765
-2.8532258236209 3.0734930451489064 2.743778052352464
-2.7936402370140954 2.803589758971082 2.780071589649023
-2.7359016810423915 2.5311277241300476 2.806333407683809
-2.6863072741962823 2.2575432831435176 2.79965803012861
-2.6431180535320746 1.9830760955099618 2.7670783049478898
-2.6042665135085623 1.710935189375334 2.7209970556035694
-2.577290303803165 1.4451629773657693 2.637952490487115
-2.5503140940977667 1.179390765356198 2.554907925370659
-2.537630056528321 0.9257958650124207 2.438099540880784
-2.526320391688976 0.673371966873227 2.318044339030372
-2.5215402957970534 0.42657736921711253 2.1872114739154505
-2.5240041699546367 0.18602797464064155 2.0444217598078316
-2.52646804411222 -0.05452141993583559 1.901632045700209
-2.540057875005413 -0.28880153142795423 1.7493885370338393
-2.5540462812144664 -0.5228570526628147 1.5968063564454127
-2.57208693839703 -0.7571310997098605 1.445062942493397
-2.59558492528637 -0.9916994442755912 1.294449129376034
-2.619082912175709 -1.226267788841316 1.1438353162586752
-2.6496587036185675 -1.467278963134777 1.0052242204584907
-2.6809757999290356 -1.7089649372199238 0.8678702479236526
-2.7150415431110364 -1.9557914064773994 0.7414490232217409
-2.7525609402201807 -2.209076868893735 0.6287647131736398
-2.7903077655245054 -2.463032552492432 0.5180008475550664
-2.831965656573792 -2.7285139798793834 0.4402627218520409
-2.87362354762308 -2.9939954072663415 0.36252459614901333
-2.916191272739375 -3.2656488294469037 0.3146147399458868
-2.959107822147594 -3.539668553123207 0.2781408426333635
-3.0010667070968333 -3.8147922672475234 0.2582699713586409
-3.0416103581554985 -4.091547455404594 0.2629350060732289
-3.0818522062078237 -4.368209636918243 0.2692584207145183
-3.1159912164370276 -4.642991106678336 0.3091163712258014
-3.150130226666232 -4.917772576438436 0.34897432173708554
-3.1776295940216546 -5.190045768110186 0.40530489219274846
-3.2010644620853093 -5.460783501518986 0.471719280915494
-3.222699935378717 -5.731037260265029 0.5402322975903459
-3.23068210808065 -5.997618755615372 0.624669111940737
-3.238664280782583 -6.264200250965708 0.7091059262911261
-3.235162428475243 -6.528629717066887 0.7995751251702614
-3.222421554611449 -6.791327852505933 0.894897442242091
-3.2096806807476543 -7.054025987944986 0.990219759313923
-3.1716229678247556 -7.312256046015479 1.0907337729579067
-3.1326537726044856 -7.570325239871641 1.1914347032824382
-3.0817159177015228 -7.825597580034381 1.2927095955930596
-3.011509089205906 -8.076367118597798 1.3949085394388068
-2.941302260710288 -8.32713665716122 1.4971074832845568
-2.8419773110074362 -8.567727325969992 1.598711791765417
-2.736955151026308 -8.806326411565866 1.7001997547345398
-2.6194467560316768 -9.038361513963205 1.801352601492667
-2.478197190060298 -9.257915940861817 1.9018682624815424
-2.3369476240889187 -9.47747036776043 2.0023839234704175
-2.163397264231701 -9.671750105010467 2.103643455924722
-1.9871374662271397 -9.863909764081061 2.2049653854127427
-1.7930689782609524 -10.034923087968032 2.3088417813011426
-1.586050304309108 -10.190559145243455 2.414575743077344
-1.371848617142222 -10.332106634395156 2.523103372728209
-1.1419743790864882 -10.442914405512141 2.637726480783668
-0.9108064386928906 -10.54813600004482 2.753803620539596
-0.6694761172781396 -10.60947666985545 2.8813025717311596
-0.42814579586338875 -10.67081733966608 3.008801522922722
-0.18774926796796845 -10.687794378351086 3.150379564510227
0.052588690797927114 -10.701988854078374 3.292840670770748
0.28518419292900615 -10.688038750891373 3.4466063767897355
0.5152526068285853 -10.664902437498831 3.6040618317293576
0.7381848712338533 -10.629736893521125 3.768654988442386
0.9543834624599897 -10.58322056332161 3.9399832830656267
1.1679789287181517 -10.53481924136231 4.11384876779158
1.3716277743979186 -10.479215307903925 4.297408933947434
1.5752766200776853 -10.423611374445539 4.480969100103288
1.77161547407194 -10.37051029231686 4.6729726172610775
1.966561240309904 -10.317886186318013 4.866585209970397
2.1596593223746416 -10.270287969589935 5.063197986069569
2.3503081312795837 -10.22935202549123 5.26378777769862
2.5409569401845253 -10.188416081392523 5.464377569327671
2.7312098988244062 -10.163679006612826 5.667968261600743
2.9214603747159704 -10.139043530137428 5.871577775336657
3.113142868373692 -10.123281885215487 6.074553239774354
3.3060482106656055 -10.115097906612812 6.276987267969664
3.499302201898641 -10.107815306810283 6.4790884821020125
3.6972086788881784 -10.11256100118604 6.676748516282908
3.8951151558777157 -10.117306695561796 6.874408550463804
4.096993161532153 -10.126080768759085 7.0677786473204005
4.3016507148070815 -10.137674177208012 7.258146352380791
4.507127257869007 -10.14921420982728 7.4475981446220665
4.719762593829415 -10.160287684112848 7.629043939365733
4.932397929789823 -10.171361158398415 7.8104897341094
5.150232608345122 -10.177454008678524 7.985748436793245
5.37120013645596 -10.18054579768657 8.157279124202898
5.593411426733526 -10.181277901051 8.327065093031116
5.822150063276636 -10.169626217799497 8.487694663134864
6.050888699819734 -10.157974534547995 8.648324233238604
6.283919256100656 -10.132303401780097 8.800578478641526
6.518686710669517 -10.10095873377613 8.949443311375415
6.754396786446131 -10.063679451044969 9.094984572162168
6.992660422708342 -10.010323299323435 9.231522277835325
7.23092405897054 -9.956967147601905 9.368059983508472
7.4697517970060625 -9.886077771312744 9.494963251058948
7.708707060894179 -9.811224678691742 9.61968847203347
7.947172585655352 -9.730384489610111 9.741193956179654
8.184642235086903 -9.637369652163446 9.856152165871391
8.422111884518467 -9.544354814716774 9.971110375563136
8.657464631426489 -9.440824970047297 10.08117735461926
8.892285752464064 -9.334654451182658 10.190015980118574
9.12648908599686 -9.226918660931709 10.298601852368085
9.358582199822454 -9.11383626444308 10.406324377779626
9.590675313648047 -9.000753867954451 10.514046903191169
9.82136784178386 -8.887709332968427 10.62474726847006
10.051245145046277 -8.774686835647717 10.737180915151528
10.281037640243836 -8.662104771852299 10.850186140413982
10.509305242388905 -8.557441931586624 10.973468645419246
10.737572844533972 -8.45277909132095 11.09675115042451
10.964794139306283 -8.358044955253867 11.229028538601966
11.191102264710702 -8.271976139505945 11.369156250684908
11.416883492988434 -8.18958193328712 11.511785170031176
11.638719978203557 -8.13469858205984 11.673139983865088
11.860556463418677 -8.079815230832562 11.834494797698996
12.073452805558055 -8.06203832275487 12.01404542668561
12.284450588047559 -8.052141467056419 12.197460181800098
12.48194150127783 -8.077710084433646 12.391697770504738
12.671849471443078 -8.123189508523035 12.592011447556816
12.84573810799176 -8.197387413723204 12.795636010188474
13.0041778509388 -8.299281150079734 13.002453559511762
13.149782345146797 -8.417675880449332 13.20793678445242
13.271470366346705 -8.566817625227761 13.410933705174898
13.389978602716921 -8.718931132314493 13.613104569370313
13.475561724146244 -8.901815782990806 13.80672202270375
13.56114484557557 -9.084700433667116 14.00033947603719
13.624408943568916 -9.282402274566744 14.186947960979463
13.677547179984408 -9.486826489211985 14.370376564690087
13.72624505375386 -9.693154260176572 14.552526451412652
13.75044873379302 -9.909982542243291 14.727622603085008
13.774652413832175 -10.126810824310013 14.902718754757366
13.784883027837509 -10.34652608672039 15.075015572365613
13.782336085874409 -10.568881324697465 15.2447525618308
13.779789143911309 -10.791236562674541 15.414489551295986
13.75458311339667 -11.013498723738497 15.582221586028178
13.725473892687386 -11.235744851637936 15.749608252956332
13.696364671978104 -11.457990979537362 15.916994919884477
13.66725545126882 -11.680237107436799 16.084381586812633
13.638146230559537 -11.902483235336238 16.251768253740785
13.609037009850255 -12.124729363235677 16.41915492066894
13.579927789140974 -12.346975491135103 16.586541587597083
13.55081856843169 -12.569221619034542 16.753928254525242
13.521709347722407 -12.791467746933979 16.921314921453398
13.492600127013123 -13.013713874833417 17.08870158838155
13.463490906303841 -13.235960002732845 17.256088255309695
13.434381685594559 -13.458206130632284 17.42347492223785
13.405272464885275 -13.680452258531721 17.590861589166007
13.376163244175993 -13.90269838643116 17.758248256094163
13.347054023466711 -14.124944514330586 17.925634923022308
13.317944802757427 -14.347190642230025 18.093021589950464
13.288835582048144 -14.569436770129464 18.260408256878616
13.259726361338862 -14.791682898028903 18.427794923806772
13.23061714062958 -15.013929025928327 18.595181590734917
13.201507919920298 -15.236175153827768 18.762568257663077
13.172398699211012 -15.458421281727205 18.929954924591225
13.14328947850173 -15.680667409626643 19.09734159151938
13.114180257792446 -15.90291353752608 19.264728258447533
13.085071037083164 -16.12515966542551 19.432114925375682
13.055961816373884 -16.347405793324945 19.599501592303838
13.0268525956646 -16.569651921224384 19.766888259231994
12.997743374955316 -16.791898049123827 19.93427492616015
12.968634154246034 -17.01414417702325 20.101661593088295
12.93952493353675 -17.23639030492269 20.269048260016447
12.910415712827467 -17.45863643282213 20.436434926944603
12.881306492118185 -17.680882560721564 20.603821593872755
12.852197271408903 -17.903128688620995 20.771208260800904
12.82308805069962 -18.12537481652043 20.93859492772906
12.793978829990337 -18.34762094441987 21.105981594657216
12.764869609281053 -18.569867072319308 21.273368261585368
12.735760388571773 -18.792113200218736 21.440754928513517
12.706651167862487 -19.01435932811817 21.60814159544167
12.677541947153205 -19.236605456017614 21.775528262369825
12.648432726443923 -19.458851583917053 21.94291492929798
12.619323505734641 -19.681097711816477 22.110301596226126
12.590214285025358 -19.903343839715916 22.27768826315428
12.561105064316074 -20.125589967615355 22.445074930082434
12.53199584360679 -20.347836095514793 22.61246159701059
12.50288662289751 -20.570082223414232 22.779848263938746
12.473777402188226 -20.792328351313657 22.94723493086689
12.444668181478944 -21.0145744792131 23.114621597795047
12.41555896076966 -21.236820607112534 23.282008264723203
12.386449740060376 -21.45906673501197 23.44939493165135
12.357340519351094 -21.681312862911398 23.6167815985795
12.328231298641812 -21.90355899081084 23.78416826550766
12.299122077932529 -22.125805118710275 23.951554932435812
12.270012857223247 -22.348051246609714 24.118941599363964
12.240903636513966 -22.570297374509142 24.286328266292113
12.21179441580468 -22.79254350240858 24.453714933220265
12.182685195095399 -23.01478963030802 24.62110160014842
12.153575974386115 -23.237035758207455 24.788488267076573
12.124466753676831 -23.45928188610688 24.95587493400472
12.095357532967551 -23.68152801400632 25.123261600932878
12.066248312258267 -23.903774141905757 25.29064826786103
12.037139091548983 -24.126020269805196 25.45803493478919
12.008029870839701 -24.348266397704627 25.62542160171733
11.97892065013042 -24.570512525604066 25.79280826864549
11.949811429421134 -24.7927586535035 25.960194935573647
11.920702208711852 -25.01500478140294 26.1275816025018
11.89159298800257 -25.237250909302368 26.294968269429944
11.862483767293288 -25.459497037201807 26.4623549363581
11.833374546584004 -25.681743165101242 26.629741603286256
11.80426532587472 -25.903989293000684 26.797128270214408
11.775156105165436 -26.12623542090012 26.96451493714256
11.746046884456156 -26.348481548799548 27.13190160407071
11.716937663746874 -26.570727676698986 27.299288270998865
11.68782844303759 -26.79297380459842 27.466674937927017
11.658719222328308 -27.015219932497857 27.63406160485517
11.629610001619026 -27.23746606039728 27.801448271783315
11.600500780909742 -27.45971218829672 27.968834938711467
11.57139156020046 -27.68195831619615 28.13622160563962
11.542282339491177 -27.90420444409559 28.30360827256777
11.513173118781898 -28.12645057199501 28.470994939495913
11.484063898072614 -28.348696699894447 28.63838160642407
11.45495467736333 -28.570942827793885 28.80576827335222
LINES 1 401
400 0 1 2 3 4 5 6 7 8 9 10 11 12 13 14 15 16 17 18 19 20 21 22 23 24 25 26 27 28 29 30 31 32 33 34 35 36 37 38 39 40 41 42 43 44 45 46 47 48 49 50 51 52 53 54 55 56 57 58 59 60 61 62 63 64 65 66 67 68 69 70 71 72 73 74 75 76 77 78 79 80 81 82 83 84 85 86 87 88 89 90 91 92 93 94 95 96 97 98 99 100 101 102 103 104 105 106 107 108 109 110 111 112 113 114 115 116 117 118 119 120 121 122 123 124 125 126 127 128 129 130 131 132 133 134 135 136 137 138 139 140 141 142 143 144 145 146 147 148 149 150 151 152 153 154 155 156 157 158 159 160 161 162 163 164 165 166 167 168 169 170 171 172 173 174 175 176 177 178 179 180 181 182 183 184 185 186 187 188 189 190 191 192 193 194 195 196 197 198 199 200 201 202 203 204 205 206 207 208 209 210 211 212 213 214 215 216 217 218 219 220 221 222 223 224 225 226 227 228 229 230 231 232 233 234 235 236 237 238 239 240 241 242 243 244 245 246 247 248 249 250 251 252 253 254 255 256 257 258 259 260 261 262 263 264 265 266 267 268 269 270 271 272 273 274 275 276 277 278 279 280 281 282 283 284 285 286 287 288 289 290 291 292 293 294 295 296 297 298 299 300 301 302 303 304 305 306 307 308 309 310 311 312 313 314 315 316 317 318 319 320 321 322 323 324 325 326 327 328 329 330 331 332 333 334 335 336 337 338 339 340 341 342 343 344 345 346 347 348 349 350 351 352 353 354 355 356 357 358 359 360 361 362 363 364 365 366 367 368 369 370 371 372 373 374 375 376 377 378 379 380 381 382 383 384 385 386 387 388 389 390 391 392 393 394 395 396 397 398 399

POINT_DATA 400
SCALARS MaximumInscribedSphereRadius float
LOOKUP_TABLE default
1.5
1.5
1.5
1.5
1.5
1.5
1.5
1.5
1.5
1.5
1.5
1.5
1.5
1.5
1.5
1.5
1.5
1.5
1.5
1.5
1.5
1.5
1.5
1.5
1.5
1.5
1.5
1.5
1.5
1.5
1.5
1.5
1.5
1.5
1.5
1.5
1.5
1.5
1.5
1.5
1.5
1.5
1.5
1.5
1.5
1.5
1.5
1.5
1.5
1.5
1.5
1.5
1.5
1.5
1.5
1.5
1.5
1.5
1.5
1.5
1.5
1.5
1.5
1.5
1.5
1.5
1.5
1.5
1.5
1.5
1.5
1.5
1.5
1.5
1.5
1.5
1.5
1.5
1.5
1.5
1.5
1.5
1.5
1.5
1.5
1.5
1.5
1.5
1.5
1.5
1.5
1.5
1.5
1.5
1.5
1.5
1.5
1.5
1.5
1.5
1.5
1.5
1.5
1.5
1.5
1.5
1.5
1.5
1.5
1.5
1.5
1.5
1.5
1.5
1.5
1.5
1.5
1.5
1.5
1.5
1.5
1.5
1.5
1.5
1.5
1.5
1.5
1.5
1.5
1.5
1.5
1.5
1.5
1.5
1.5
1.5
1.5
1.5
1.5
1.5
1.5
1.5
1.5
1.5
1.5
1.5
1.5
1.5
1.5
1.5
1.5
1.5
1.5
1.5
1.5
1.5
1.5
1.5
1.5
1.5
1.5
1.5
1.5
1.5
1.5
1.5
1.5
1.5
1.5
1.5
1.5
1.5
1.5
1.5
1.5
1.5
1.5
1.5
1.5
1.5
1.5
1.5
1.5
1.5
1.5
1.5
1.5
1.5
1.5
1.5
1.5
1.5
1.5
1.5
1.5
1.5
1.5
1.5
1.5
1.5
1.5
1.5
1.5
1.5
1.5
1.5
1.5
1.5
1.5
1.5
1.5
1.5
1.5
1.5
1.5
1.5
1.5
1.5
1.5
1.5
1.5
1.5
1.5
1.5
1.5
1.5
1.5
1.5
1.5
1.5
1.5
1.5
1.5
1.5
1.5
1.5
1.5
1.5
1.5
1.5
1.5
1.5
1.5
1.5
1.5
1.5
1.5
1.5
1.5
1.5
1.5
1.5
1.5
1.5
1.5
1.5
1.5
1.5
1.5
1.5
1.5
1.5
1.5
1.5
1.5
1.5
1.5
1.5
1.5
1.5
1.5
1.5
1.5
1.5
1.5
1.5
1.5
1.5
1.5
1.5
1.5
1.5
1.5
1.5
1.5
1.5
1.5
1.5
1.5
1.5
1.5
1.5
1.5
1.5
1.5
1.5
1.5
1.5
1.5
1.5
1.5
1.5
1.5
1.5
1.5
1.5
1.5
1.5
1.5
1.5
1.5
1.5
1.5
1.5
1.5
1.5
1.5
1.5
1.5
1.5
1.5
1.5
1.5
1.5
1.5
1.5
1.5
1.5
1.5
1.5
1.5
1.5
1.5
1.5
1.5
1.5
1.5
1.5
1.5
1.5
1.5
1.5
1.5
1.5
1.5
1.5
1.5
1.5
1.5
1.5
1.5
1.5
1.5
1.5
1.5
1.5
1.5
1.5
1.5
1.5
1.5
1.5
1.5
1.5
1.5
1.5
1.5
1.5
1.5
1.5
1.5
1.5
1.5
1.5
1.5
1.5
1.5
1.5
1.5
1.5
1.5
1.5
1.5
1.5
1.5
1.5
1.5
1.5
1.5
1.5
1.5
1.5
1.5
1.5
1.5
1.5
1.5
1.5
1.5
1.5
