# vtk DataFile Version 2.0
Vessel Segment
ASCII
DATASET POLYDATA
POINTS 400 float
-3.477398516592362 31.592137931273204 -15.13048591696635
-3.5293769418176866 31.39562985827193 -14.959365873564575
-3.5813553670430114 31.19912178527066 -14.788245830162802
-3.6333337922683353 31.00261371226938 -14.617125786761028
-3.6853122174936592 30.80610563926811 -14.446005743359255
-3.737290642718984 30.609597566266835 -14.274885699957483
-3.789269067944308 30.41308949326556 -14.103765656555709
-3.8412474931696328 30.21658142026429 -13.932645613153934
-3.8932259183949576 30.020073347263015 -13.761525569752163
-3.9452043436202815 29.823565274261743 -13.59040552635039
-3.9971827688456063 29.62705720126047 -13.419285482948617
-4.049161194070931 29.430549128259198 -13.248165439546842
-4.101139619296255 29.234041055257922 -13.077045396145067
-4.153118044521579 29.03753298225665 -12.905925352743294
-4.205096469746904 28.841024909255378 -12.734805309341521
-4.257074894972227 28.644516836254102 -12.563685265939746
-4.309053320197552 28.448008763252826 -12.392565222537971
-4.361031745422876 28.251500690251554 -12.2214451791362
-4.413010170648202 28.054992617250285 -12.050325135734424
-4.464988595873525 27.85848454424901 -11.87920509233265
-4.51696702109885 27.661976471247733 -11.708085048930878
-4.568945446324173 27.465468398246458 -11.536965005529105
-4.620923871549499 27.26896032524519 -11.365844962127332
-4.672902296774823 27.072452252243913 -11.194724918725559
-4.724880722000147 26.875944179242637 -11.023604875323784
-4.776859147225472 26.67943610624137 -10.852484831922013
-4.828837572450796 26.482928033240093 -10.681364788520238
-4.88081599767612 26.28641996023882 -10.510244745118463
-4.932794422901444 26.089911887237548 -10.339124701716692
-4.984772848126768 25.893403814236272 -10.168004658314917
-5.036751273352093 25.696895741235 -9.996884614913144
-5.088729698577417 25.500387668233728 -9.825764571511371
-5.140708123802742 25.303879595232456 -9.654644528109596
-5.192686549028066 25.107371522231176 -9.483524484707823
-5.244664974253389 24.910863449229904 -9.312404441306052
-5.2966433994787145 24.71435537622863 -9.141284397904275
-5.34862182470404 24.517847303227356 -8.970164354502502
-5.400600249929363 24.321339230226087 -8.79904431110073
-5.4525786751546885 24.12483115722481 -8.627924267698956
-5.504557100380012 23.92832308422354 -8.456804224297183
-5.556535525605337 23.731815011222267 -8.285684180895409
-5.608513950830661 23.53530693822099 -8.114564137493636
-5.660492376055985 23.338798865219715 -7.943444094091862
-5.7124708012813095 23.142290792218443 -7.772324050690088
-5.764449226506633 22.94578271921717 -7.601204007288315
-5.816427651731958 22.7492746462159 -7.430083963886541
-5.8684060769572834 22.552766573214626 -7.258963920484767
-5.920384502182607 22.35625850021335 -7.087843877082994
-5.987891162452679 22.15372620496403 -6.93271145978008
-6.083268917606065 21.94038124044549 -6.806274682559652
-6.181843667274517 21.72645362988884 -6.684667040567634
-6.311446488339138 21.50687121361256 -6.609928028453702
-6.441049309403758 21.28728879733628 -6.535189016339768
-6.589780372437314 21.06965816271748 -6.5056039048944925
-6.740417034748381 20.852221969057886 -6.480517128457244
-6.897534541510295 20.638919202944198 -6.4858304809501295
-7.057203087172836 20.42724346777416 -6.503110161607974
-7.2169000264114604 20.218313211709383 -6.536870152821961
-7.376627943716342 20.012378338592587 -6.588610554494336
-7.535133532456197 19.807217619187455 -6.64565511188521
-7.688373136262564 19.605392076508508 -6.725550811675749
-7.84161274006893 19.40356653382956 -6.805446511466289
-7.984738591643495 19.20373764367909 -6.905946827148416
-8.12629561751513 19.00421847041061 -7.009643291032412
-8.259159525938355 18.805299173681632 -7.124545298809332
-8.38447023971693 18.60690109207399 -7.249183474839443
-8.505319057148231 18.408704582048976 -7.37794982743768
-8.610223943464845 18.211228358462307 -7.521467612545479
-8.71512882978146 18.013752134875634 -7.664985397653277
-8.797706688568402 17.817906406093552 -7.824260223028579
-8.878612447391987 17.622182787175827 -7.984715113525351
-8.941546268481904 17.42875969844175 -8.155067398970154
-8.995786326358484 17.23644947048975 -8.330207460189737
-9.037531982977205 17.046608523746524 -8.510703857368892
-9.06369941823085 16.859846316711515 -8.697878620766796
-9.083306160741564 16.67489976720296 -8.887200036504987
-9.081407715068899 16.49590473201049 -9.083557929083508
-9.078772616086413 16.31717836276562 -9.280093944924198
-9.050178617750461 16.14791950313538 -9.482906839961077
-9.021584619414512 15.978660643505142 -9.68571973499795
-8.97337175814442 15.818453690631156 -9.891872175566231
-8.920657449548198 15.660323651266435 -10.098790857702806
-8.856065584103707 15.508929679236566 -10.307044454620083
-8.782800946589717 15.362454258840359 -10.516272781591127
-8.70451213325396 15.219402170857858 -10.725851869345602
-8.615003436381263 15.083994996658747 -10.936214268687706
-8.525494739508567 14.948587822459638 -11.146576668029814
-8.424463182003148 14.82242563606687 -11.357466531778307
-8.323408361026585 14.696282114354164 -11.568357460423218
-8.217983849603254 14.574144211659283 -11.779420140127046
-8.110099316136004 14.454261368265154 -11.990579511208928
-8.001645763676047 14.334900966451146 -12.201738834930204
-7.8913707672744895 14.217212913123106 -12.412898007049005
-7.781095770872933 14.099524859795066 -12.624057179167803
-7.672112640416541 13.979664242256357 -12.834660449132116
-7.5634421619111 13.859277829884538 -13.045129182000077
-7.45660778164784 13.735917692146156 -13.254760446097379
-7.3529966707138925 13.607337181364732 -13.462921534285407
-7.249385559779943 13.478756670583307 -13.67108262247344
-7.153304131724207 13.33702201882113 -13.874215487599628
-7.0576932295576 13.194465371766345 -14.07703414173378
-6.968144351536159 13.04055831673229 -14.27386888106388
-6.883079097726042 12.878256216939988 -14.46627776779896
-6.801837413347731 12.708548044827454 -14.653268957752243
-6.729590372114947 12.52141767630432 -14.827515446689349
-6.659428429176264 12.330384755552151 -14.997690765946661
-6.602147501741387 12.115243217998145 -15.142715808158346
-6.546745529226463 11.89711639747081 -15.28295209462602
-6.506446781674551 11.654993577973244 -15.384695890120874
-6.4698355857761305 11.409071280205362 -15.474934445249826
-6.4478936094416675 11.148034514570165 -15.519404720250758
-6.432791035067498 10.885580030446498 -15.539401404818278
-6.429186336869947 10.620742187115628 -15.518254972774969
-6.435188033677445 10.363705807293831 -15.460229905932392
-6.44835475270518 10.112488224155236 -15.37469855419836
-6.472405551703721 9.88191256187374 -15.24784823848918
-6.5001523659709814 9.658346481924257 -15.106966831300571
-6.538927529321586 9.466150031744121 -14.92879027023998
-6.579511030673973 9.279097315515918 -14.744498356507894
-6.6306687335509755 9.129213215450651 -14.531763763071183
-6.683024659677855 8.983540903854564 -14.31580616693006
-6.7448267411787235 8.875392362248139 -14.081715335061158
-6.8081037612972946 8.773102845318768 -13.844793149209611
-6.8787721100513455 8.703413422186502 -13.599072621136346
-6.951729598568907 8.643820447837074 -13.350627192571443
-7.029306448189719 8.607509654260424 -13.099874381753287
-7.110015561024652 8.586985874677508 -12.84755699774173
-7.192618290734547 8.578456831426982 -12.595674777232219
-7.278538116071518 8.590939265187512 -12.344554843417951
-7.364629189085229 8.605281517932879 -12.093683472816808
-7.452911778035668 8.643424519525109 -11.845993051897583
-7.54119436698611 8.681567521117337 -11.598302630978349
-7.6290325331570035 8.733135549833918 -11.353029432683073
-7.71671441952628 8.789424444969125 -11.108606242734606
-7.802961710947724 8.850111053811393 -10.864794524305838
-7.886992725684536 8.917591601506794 -10.621927455845674
-7.970572398536443 8.985399484995677 -10.379004941581284
-8.047783067142216 9.05782649010461 -10.135300016965868
-8.124993735747989 9.130253495213543 -9.891595092350453
-8.194158746861339 9.201945200050002 -9.645308260307644
-8.261249615703157 9.273447347056186 -9.398355821589252
-8.320083967683937 9.340969620166018 -9.14831795578971
-8.373659108795735 9.405956805368303 -8.896314744080543
-8.418157112861614 9.464240885716265 -8.641161073318905
-8.454801797889608 9.516725602156958 -8.383281701719037
-8.479631208786245 9.557945207500364 -8.122348383014506
-8.496000794303288 9.591098908345469 -7.859228415152549
-8.49491656269144 9.603918294819708 -7.594287899930361
-8.487446345888037 9.609166042997813 -7.3288180035576875
-8.455468594492885 9.580230284004042 -7.06663601721124
-8.414588881676115 9.53649945453359 -6.808821220092935
-8.358351795082841 9.467244651570244 -6.558540555527314
-8.287636744487223 9.368858211122623 -6.323074961649176
-8.210968746276588 9.258155163740224 -6.094197602912907
-8.121815726801852 9.114972309203285 -5.8888937841890625
-8.031068150821222 8.96540776875586 -5.689494224820065
-7.935536829744596 8.796697868099741 -5.5078077233639515
-7.839597626303897 8.622509588337689 -5.332005848694273
-7.742732855884254 8.435889766432204 -5.169557373721682
-7.646259310183873 8.246830580205312 -5.009893801769662
-7.551374223169771 8.047867036573166 -4.86153755058668
-7.456489136155669 7.848903492941023 -4.7131812994037
-7.365395847437979 7.641832685394408 -4.573854898096678
-7.274562846254234 7.434205355700154 -4.435148349738671
-7.18667686821717 7.223073284959858 -4.299978191369565
-7.1012190439839875 7.009053537442336 -4.167721786431009
-7.016209320908903 6.794666873078263 -4.035792899634096
-6.936992189467304 6.5755370844952505 -3.90809783105614
-6.857775058025702 6.356407295912232 -3.7804027624781806
-6.782214414389273 6.134858334182958 -3.6547595577053773
-6.709724787705267 5.911277553358744 -3.530839675657947
-6.637235161021259 5.687696772534522 -3.4069197936105136
-6.571595540162171 5.459924277743035 -3.286877613962637
-6.505977847757329 5.232138364304872 -3.1668478477377313
-6.443376255570604 5.002461663655061 -3.0489129902176555
-6.384358487912 4.770538270555898 -2.933467368683657
-6.325340720253398 4.538614877456742 -2.818021747149662
-6.271796087356684 4.302896097229963 -2.707729627682741
-6.218600748574423 4.066935096330129 -2.5977664034503003
-6.167444254385477 3.829268194596132 -2.490628532196057
-6.118750988047575 3.5895403106471866 -2.386904108032261
-6.070057721709671 3.3498124266982408 -2.283179683868464
-6.024020450005239 3.1068528044957455 -2.18596800362932
-5.977997785704501 2.863875408422502 -2.0887921420919393
-5.93222508727472 2.6195182351355553 -1.995076371173326
-5.886650283481551 2.3740687106837863 -1.9040999077170242
-5.840816807096278 2.128414962433814 -1.8138287810441602
-5.793318591199288 1.8814468908404596 -1.7280969911557698
-5.745820375302299 1.6344788192471118 -1.6423652012673815
-5.695331541816487 1.3871765490827932 -1.5593891301871312
-5.6436418983565835 1.1397400895861973 -1.47751955117159
-5.5901864537307615 0.8924809419138378 -1.3963053396467469
-5.532325201233586 0.6456642006946745 -1.3167263197305976
-5.474463948736411 0.39884745947551103 -1.2371472998144486
-5.410047400219581 0.1534589685514114 -1.1582424556925435
-5.344438335588597 -0.09166970016378348 -1.079460255230967
-5.275343023083444 -0.3357388002923571 -1.0005011189466761
-5.200794677655731 -0.5781505706511836 -0.9212652275660015
-5.126246332228015 -0.8205623410100166 -0.8420293361853247
-5.042609973822537 -1.0595348467823529 -0.7614828452546106
-4.958159466361729 -1.2981992462589524 -0.6808189443479014
-4.8690240165849685 -1.5347610229738091 -0.5992277186565874
-4.773777590320534 -1.7685801665049552 -0.5164269028416449
-4.678531164056101 -2.0023993100360946 -0.4336260870267046
-4.572186462614267 -2.230457382735474 -0.34835941034436047
-4.465215766436477 -2.4581905040386673 -0.26295364755197526
-4.3522756492862325 -2.6823561601125103 -0.17614523075227115
-4.23247561118454 -2.9024221673957578 -0.08772491630673827
-4.112658544237755 -3.1224764155371694 0.0006995314321604759
-3.978919835041383 -3.3329171775669106 0.09250308275905572
-3.845181125845006 -3.543357939596658 0.18430663408595344
-3.7031062211721544 -3.747070454822686 0.2782353524673698
-3.554561199174953 -3.9455608580756723 0.37381351395690043
-3.40368271563296 -4.141813616000896 0.470043553936788
-3.2400254210387436 -4.325812284327207 0.5698434972115708
-3.076368126444531 -4.509810952653513 0.6696434404863509
-2.9015224458756324 -4.6808211925259835 0.773053481361745
-2.723392270470669 -4.848018511903774 0.8775233128944984
-2.540046308536733 -5.0077189172028005 0.9840733316375536
-2.3491871100140624 -5.1566201671211065 1.0936198186166177
-2.1578195184662867 -5.30459107375326 1.2034362091705055
-1.9568244841168503 -5.434944062099648 1.3183637658896692
-1.7558294497674083 -5.565297050446038 1.433291322608836
-1.549963983989631 -5.683867835763861 1.551934715974133
-1.3417959152205512 -5.7968683268814685 1.6723348523923776
-1.132361046373468 -5.905599801124549 1.794228474988665
-0.9197278104348947 -6.003553029201049 1.919892792840189
-0.7070945744963216 -6.101506257277548 2.0455571106917123
-0.49231848238622766 -6.188860515232488 2.1752400625368877
-0.2771874266768854 -6.274459056386366 2.3055887001174793
-0.06148585145233708 -6.356044672621556 2.4374529015848196
0.15505961337035534 -6.431694531171377 2.571558864403471
0.37160507819305355 -6.5073443897212 2.705664827222126
0.5892343168068301 -6.575254549911316 2.8421195962244656
0.806946055415006 -6.642575541885122 2.978753163144418
1.025410543516261 -6.7063150262646865 3.115841336597694
1.2447952878269457 -6.765676022670431 3.2534852785888217
1.4641800321376246 -6.825037019076174 3.391129220579946
1.6861056747349064 -6.875517546940737 3.528236982494586
1.9080739331104346 -6.925849132173447 3.6653357516323957
2.1319583742918318 -6.970029468697658 3.801305348951704
2.357427017703194 -7.009124266466822 3.9363414045925365
2.583515518977841 -7.0460281871571135 4.070845782687834
2.8129954983346876 -7.070944986228406 4.202441150751569
3.042475477691522 -7.095861785299698 4.334036518815297
3.274947039635678 -7.106978494055046 4.462031835808439
3.5081207272013213 -7.114856316131963 4.589182219385414
3.7425502332474005 -7.113289041090046 4.713865686146623
3.97819354972021 -7.102592614389026 4.836164756277699
4.2140109659251 -7.087684103350818 4.957434085880042
4.450391209427761 -7.059158822100711 5.075374483999708
4.686771452930421 -7.030633540850603 5.193314882119373
4.922248955844063 -6.987748795039459 5.308662466592711
5.1577035339492365 -6.944499395219644 5.4239442073929816
5.391831929547925 -6.894447745876855 5.5390888603737025
5.62541701489007 -6.8416093519378975 5.654177351236437
5.858057376003641 -6.787273183016554 5.770449712879536
6.089442290192464 -6.730946616327527 5.888295324033531
6.320528460884216 -6.6749771511617855 6.00687390956483
6.549646134179268 -6.621360719370205 6.130282250949039
6.778763807474318 -6.567744287578625 6.253690592333247
7.005852668316779 -6.520835525850714 6.383342486329667
7.232484309600292 -6.475438425757198 6.514401446991045
7.4576331286154485 -6.436049774528032 6.649662319834846
7.681184325153476 -6.403134746715013 6.78945041721045
7.904241308711046 -6.372101857525122 6.930328210276197
8.123797161980956 -6.35440251642023 7.078925684402692
8.34335301525088 -6.336703175315335 7.227523158529195
8.559210274597575 -6.331115014731655 7.382131428236084
8.7737508860723 -6.329838265563046 7.5388794573688696
8.986410421360691 -6.333888968391298 7.697876325294871
9.195063440530884 -6.34928664506849 7.8616630092515045
9.403716459701075 -6.364684321745682 8.025449693208138
9.606603740915702 -6.394524732874111 8.194286321681101
9.80863388615121 -6.426512204349415 8.363873676109833
10.00777484936296 -6.465134236559158 8.535239878206058
10.202540661381995 -6.513803128423936 8.709299828024015
10.397306473401018 -6.56247202028871 8.88335977784196
10.584829518079257 -6.626990179850521 9.060114960478876
10.771668427518648 -6.693005424991847 9.237124728643902
10.954677923125752 -6.767124664139663 9.414630048261445
11.132699058907964 -6.851800515838043 9.592780894600626
11.310720194690186 -6.936476367536427 9.770931740939817
11.478879643823149 -7.041008119697469 9.948082115184878
11.646788680388449 -7.1460440621856804 10.125207084973798
11.808152848174075 -7.263205696899247 10.300351037673778
11.964160636511263 -7.390291107141422 10.473873708178576
12.11776332364817 -7.521268301841188 10.646327847092422
12.259379039919274 -7.6716420636807126 10.813456448333085
12.400994756190368 -7.822015825520229 10.980585049573738
12.528135228989358 -7.991799471053763 11.140193817156394
12.652278441571301 -8.165602148966682 11.298245519512111
12.765404328756789 -8.351076016392245 11.450363873956537
12.868700765784968 -8.546962699221098 11.597188607176086
12.965880812480172 -8.747761571579083 11.740806079984385
13.045253061095282 -8.962862225625855 11.875085652056352
13.124625309710392 -9.177962879672627 12.009365224128322
13.1782546320166 -9.408017280189428 12.130983630523897
13.231709799861932 -9.638172844871598 12.252516382380591
13.26625758765038 -9.875765284282897 12.365515274702211
13.29353314685378 -10.116218122798994 12.475231841441708
13.310422833665957 -10.359177497802357 12.580609751424051
13.313235997916859 -10.605534114374336 12.680107250264497
13.314239766943405 -10.852104739662682 12.77890263768356
13.295957167664405 -11.100956486769324 12.870214209912799
13.277674568385404 -11.349808233875963 12.961525782142038
13.24780132068782 -11.598934259466665 13.048573273362297
13.212930643148962 -11.84817854310742 13.133782261255528
13.174961854362497 -12.097319105242986 13.217781494939846
13.128395115792037 -12.346171817065315 13.298423390843855
13.08182837722158 -12.59502452888763 13.379065286747858
13.02976587672526 -12.843707644772895 13.456752382947972
12.976269214645567 -13.092346503286603 13.533668401310473
12.921955670236168 -13.341137196480618 13.60948381496041
12.865708417276613 -13.590287309885918 13.682693897749814
12.809461164317055 -13.839437423291232 13.755903980539223
12.753829963017541 -14.089729594502044 13.825578402565226
12.698360414398024 -14.34032144302394 13.894325063049411
12.642890865778503 -14.59091329154585 13.963071723533602
12.587421317158986 -14.841505140067746 14.03181838401779
12.531951768539466 -15.092096988589656 14.100565044501979
12.476482219919948 -15.342688837111552 14.169311704986166
12.42101267130043 -15.593280685633447 14.23805836547035
12.36554312268091 -15.843872534155357 14.306805025954542
12.310073574061391 -16.094464382677256 14.37555168643873
12.254604025441875 -16.345056231199152 14.444298346922917
12.199134476822353 -16.59564807972106 14.513045007407104
12.143664928202837 -16.84623992824296 14.581791667891292
12.088195379583318 -17.09683177676485 14.650538328375479
12.032725830963797 -17.347423625286762 14.719284988859668
11.977256282344278 -17.59801547380866 14.788031649343855
11.921786733724762 -17.848607322330555 14.85677830982804
11.866317185105242 -18.09919917085246 14.92552497031223
11.810847636485725 -18.34979101937435 14.994271630796417
11.755378087866207 -18.600382867896244 15.063018291280603
11.699908539246689 -18.850974716418154 15.131764951764794
11.644438990627169 -19.101566564940047 15.200511612248977
11.588969442007652 -19.352158413461947 15.269258272733165
11.533499893388132 -19.602750261983857 15.338004933217354
11.478030344768612 -19.85334211050575 15.406751593701541
11.422560796149096 -20.10393395902765 15.475498254185728
11.367091247529576 -20.354525807549557 15.544244914669918
11.311621698910058 -20.605117656071457 15.612991575154105
11.256152150290541 -20.855709504593356 15.681738235638292
11.20068260167102 -21.10630135311526 15.750484896122483
11.145213053051503 -21.356893201637156 15.819231556606669
11.089743504431985 -21.607485050159056 15.887978217090856
11.034273955812465 -21.858076898680963 15.956724877575045
10.978804407192946 -22.10866874720286 16.025471538059232
10.923334858573428 -22.35926059572476 16.09421819854342
10.867865309953906 -22.60985244424667 16.16296485902761
10.81239576133439 -22.860444292768566 16.231711519511798
10.756926212714871 -23.111036141290462 16.300458179995985
10.701456664095351 -23.36162798981237 16.369204840480172
10.645987115475833 -23.612219838334262 16.437951500964356
10.590517566856317 -23.862811686856162 16.506698161448547
10.535048018236795 -24.113403535378072 16.575444821932734
10.479578469617277 -24.36399538389997 16.64419148241692
10.42410892099776 -24.61458723242187 16.712938142901105
10.36863937237824 -24.865179080943776 16.781684803385296
10.313169823758722 -25.11577092946567 16.850431463869484
10.257700275139204 -25.366362777987568 16.91917812435367
10.202230726519684 -25.616954626509475 16.987924784837862
10.146761177900164 -25.86754647503137 17.05667144532205
10.091291629280647 -26.118138323553268 17.125418105806233
10.035822080661127 -26.36873017207518 17.194164766290424
9.980352532041609 -26.619322020597075 17.26291142677461
9.92488298342209 -26.86991386911897 17.3316580872588
9.86941343480257 -27.12050571764088 17.40040474774299
9.813943886183054 -27.371097566162778 17.469151408227177
9.758474337563534 -27.621689414684674 17.537898068711364
9.703004788944014 -27.872281263206588 17.60664472919555
9.647535240324496 -28.12287311172848 17.67539138967974
9.592065691704978 -28.373464960250377 17.744138050163926
9.536596143085458 -28.624056808772288 17.812884710648117
9.481126594465943 -28.87464865729418 17.8816313711323
9.425657045846425 -29.12524050581607 17.950378031616488
9.370187497226905 -29.375832354337977 18.019124692100675
9.314717948607388 -29.626424202859873 18.087871352584862
9.25924839998787 -29.877016051381766 18.156618013069046
9.203778851368352 -30.127607899903673 18.225364673553237
9.148309302748835 -30.378199748425565 18.294111334037424
9.092839754129317 -30.628791596947455 18.362857994521605
9.037370205509795 -30.87938344546937 18.4316046550058
8.981900656890279 -31.12997529399126 18.500351315489983
8.92643110827076 -31.380567142513158 18.569097975974174
8.87096155965124 -31.63115899103507 18.63784463645836
8.815492011031722 -31.881750839556965 18.70659129694255
8.760022462412206 -32.13234268807886 18.775337957426732
8.704552913792686 -32.382934536600764 18.844084617910923
8.649083365173171 -32.63352638512266 18.912831278395107
8.593613816553653 -32.88411823364456 18.981577938879298
8.538144267934129 -33.134710082166464 19.05032459936349
8.482674719314613 -33.38530193068836 19.119071259847672
8.427205170695096 -33.63589377921025 19.187817920331856
8.371735622075576 -33.886485627732156 19.256564580816047
8.31626607345606 -34.13707747625405 19.325311241300234
8.260796524836543 -34.38766932477595 19.394057901784418
8.205326976217021 -34.638261173297856 19.46280456226861
8.149857427597503 -34.88885302181975 19.531551222752796
LINES 1 401
400 0 1 2 3 4 5 6 7 8 9 10 11 12 13 14 15 16 17 18 19 20 21 22 23 24 25 26 27 28 29 30 31 32 33 34 35 36 37 38 39 40 41 42 43 44 45 46 47 48 49 50 51 52 53 54 55 56 57 58 59 60 61 62 63 64 65 66 67 68 69 70 71 72 73 74 75 76 77 78 79 80 81 82 83 84 85 86 87 88 89 90 91 92 93 94 95 96 97 98 99 100 101 102 103 104 105 106 107 108 109 110 111 112 113 114 115 116 117 118 119 120 121 122 123 124 125 126 127 128 129 130 131 132 133 134 135 136 137 138 139 140 141 142 143 144 145 146 147 148 149 150 151 152 153 154 155 156 157 158 159 160 161 162 163 164 165 166 167 168 169 170 171 172 173 174 175 176 177 178 179 180 181 182 183 184 185 186 187 188 189 190 191 192 193 194 195 196 197 198 199 200 201 202 203 204 205 206 207 208 209 210 211 212 213 214 215 216 217 218 219 220 221 222 223 224 225 226 227 228 229 230 231 232 233 234 235 236 237 238 239 240 241 242 243 244 245 246 247 248 249 250 251 252 253 254 255 256 257 258 259 260 261 262 263 264 265 266 267 268 269 270 271 272 273 274 275 276 277 278 279 280 281 282 283 284 285 286 287 288 289 290 291 292 293 294 295 296 297 298 299 300 301 302 303 304 305 306 307 308 309 310 311 312 313 314 315 316 317 318 319 320 321 322 323 324 325 326 327 328 329 330 331 332 333 334 335 336 337 338 339 340 341 342 343 344 345 346 347 348 349 350 351 352 353 354 355 356 357 358 359 360 361 362 363 364 365 366 367 368 369 370 371 372 373 374 375 376 377 378 379 380 381 382 383 384 385 386 387 388 389 390 391 392 393 394 395 396 397 398 399

POINT_DATA 400
SCALARS MaximumInscribedSphereRadius float
LOOKUP_TABLE default
1.5
1.5
1.5
1.5
1.5
1.5
1.5
1.5
1.5
1.5
1.5
1.5
1.5
1.5
1.5
1.5
1.5
1.5
1.5
1.5
1.5
1.5
1.5
1.5
1.5
1.5
1.5
1.5
1.5
1.5
1.5
1.5
1.5
1.5
1.5
1.5
1.5
1.5
1.5
1.5
1.5
1.5
1.5
1.5
1.5
1.5
1.5
1.5
1.5
1.5
1.5
1.5
1.5
1.5
1.5
1.5
1.5
1.5
1.5
1.5
1.5
1.5
1.5
1.5
1.5
1.5
1.5
1.5
1.5
1.5
1.5
1.5
1.5
1.5
1.5
1.5
1.5
1.5
1.5
1.5
1.5
1.5
1.5
1.5
1.5
1.5
1.5
1.5
1.5
1.5
1.5
1.5
1.5
1.5
1.5
1.5
1.5
1.5
1.5
1.5
1.5
1.5
1.5
1.5
1.5
1.5
1.5
1.5
1.5
1.5
1.5
1.5
1.5
1.5
1.5
1.5
1.5
1.5
1.5
1.5
1.5
1.5
1.5
1.5
1.5
1.5
1.5
1.5
1.5
1.5
1.5
1.5
1.5
1.5
1.5
1.5
1.5
1.5
1.5
1.5
1.5
1.5
1.5
1.5
1.5
1.5
1.5
1.5
1.5
1.5
1.5
1.5
1.5
1.5
1.5
1.5
1.5
1.5
1.5
1.5
1.5
1.5
1.5
1.5
1.5
1.5
1.5
1.5
1.5
1.5
1.5
1.5
1.5
1.5
1.5
1.5
1.5
1.5
1.5
1.5
1.5
1.5
1.5
1.5
1.5
1.5
1.5
1.5
1.5
1.5
1.5
1.5
1.5
1.5
1.5
1.5
1.5
1.5
1.5
1.5
1.5
1.5
1.5
1.5
1.5
1.5
1.5
1.5
1.5
1.5
1.5
1.5
1.5
1.5
1.5
1.5
1.5
1.5
1.5
1.5
1.5
1.5
1.5
1.5
1.5
1.5
1.5
1.5
1.5
1.5
1.5
1.5
1.5
1.5
1.5
1.5
1.5
1.5
1.5
1.5
1.5
1.5
1.5
1.5
1.5
1.5
1.5
1.5
1.5
1.5
1.5
1.5
1.5
1.5
1.5
1.5
1.5
1.5
1.5
1.5
1.5
1.5
1.5
1.5
1.5
1.5
1.5
1.5
1.5
1.5
1.5
1.5
1.5
1.5
1.5
1.5
1.5
1.5
1.5
1.5
1.5
1.5
1.5
1.5
1.5
1.5
1.5
1.5
1.5
1.5
1.5
1.5
1.5
1.5
1.5
1.5
1.5
1.5
1.5
1.5
1.5
1.5
1.5
1.5
1.5
1.5
1.5
1.5
1.5
1.5
1.5
1.5
1.5
1.5
1.5
1.5
1.5
1.5
1.5
1.5
1.5
1.5
1.5
1.5
1.5
1.5
1.5
1.5
1.5
1.5
1.5
1.5
1.5
1.5
1.5
1.5
1.5
1.5
1.5
1.5
1.5
1.5
1.5
1.5
1.5
1.5
1.5
1.5
1.5
1.5
1.5
1.5
1.5
1.5
1.5
1.5
1.5
1.5
1.5
1.5
1.5
1.5
1.5
1.5
1.5
1.5
1.5
1.5
1.5
1.5
1.5
1.5
1.5
1.5
1.5
1.5
1.5
1.5
1.5
1.5
1.5
1.5
1.5
1.5
1.5
1.5
1.5
1.5
1.5
1.5
1.5
1.5
1.5
1.5
1.5
1.5
1.5
1.5
1.5
1.5
