# vtk DataFile Version 2.0
Vessel Segment
ASCII
DATASET POLYDATA
POINTS 400 float
8.14518849869604 26.35218948026452 -10.166237063170387
7.935688966194505 26.22026086511456 -10.081125231608631
7.72618943369297 26.0883322499646 -9.996013400046875
7.516689901191436 25.95640363481464 -9.91090156848512
7.3071903686899 25.82447501966468 -9.825789736923362
7.097690836188367 25.692546404514715 -9.740677905361606
6.888191303686831 25.560617789364755 -9.65556607379985
6.678691771185295 25.428689174214796 -9.570454242238092
6.46919223868376 25.296760559064836 -9.485342410676338
6.259692706182227 25.164831943914876 -9.40023057911458
6.050193173680691 25.032903328764917 -9.315118747552825
5.840693641179157 24.900974713614957 -9.23000691599107
5.631194108677622 24.769046098464994 -9.144895084429312
5.421694576176088 24.637117483315034 -9.059783252867557
5.212195043674553 24.50518886816507 -8.9746714213058
5.002695511173018 24.37326025301511 -8.889559589744042
4.793195978671483 24.24133163786515 -8.804447758182286
4.583696446169949 24.109403022715192 -8.71933592662053
4.374196913668413 23.97747440756523 -8.634224095058775
4.16469738116688 23.84554579241527 -8.549112263497019
3.955197848665345 23.71361717726531 -8.464000431935261
3.74569831616381 23.581688562115346 -8.378888600373505
3.5361987836622744 23.449759946965386 -8.29377676881175
3.3266992511607403 23.317831331815427 -8.208664937249994
3.1171997186592044 23.185902716665467 -8.123553105688236
2.907700186157671 23.053974101515507 -8.03844127412648
2.698200653656136 22.922045486365548 -7.9533294425647245
2.4887011211546013 22.790116871215588 -7.868217611002969
2.279201588653066 22.658188256065625 -7.783105779441212
2.069702056151532 22.526259640915665 -7.697993947879456
1.8602025236499973 22.394331025765702 -7.612882116317699
1.6507029911484623 22.262402410615742 -7.527770284755944
1.441203458646928 22.130473795465782 -7.442658453194187
1.2317039261453935 21.998545180315823 -7.357546621632431
1.022204393643859 21.86661656516586 -7.272434790070674
0.8127048611423243 21.7346879500159 -7.1873229585089184
0.6032053286407881 21.60275933486594 -7.102211126947163
0.39370579613925316 21.470830719715977 -7.017099295385406
0.18420626363771783 21.338902104566017 -6.931987463823649
-0.025293268863817435 21.20697348941606 -6.846875632261893
-0.23479280136535208 21.075044874266098 -6.7617638007001375
-0.4442923338668867 20.943116259116138 -6.676651969138381
-0.6537918663684228 20.811187643966175 -6.591540137576624
-0.8632913988699573 20.679259028816215 -6.506428306014867
-1.072790931371492 20.547330413666252 -6.4213164744531115
-1.2822904638730268 20.415401798516292 -6.336204642891355
-1.4917899963745613 20.283473183366333 -6.251092811329599
-1.7012895288760959 20.151544568216373 -6.165980979767843
-1.9107890613776317 20.01961595306641 -6.0808691482060855
-2.12254296103996 19.883970609394442 -6.008319696824225
-2.334761759437806 19.747558796790443 -5.9383608769784715
-2.5475882341146807 19.6087728364407 -5.875779571462297
-2.7610800320392697 19.46738750576293 -5.821275645240331
-2.974554281589316 19.325260603517023 -5.7689990540998215
-3.187916820500269 19.17841295442304 -5.730901384478343
-3.4012793594112236 19.03156530532906 -5.692803714856865
-3.6133850087950448 18.880010080954694 -5.6697816257378975
-3.8252331437454945 18.727490357668763 -5.6498482564204995
-4.035379014308959 18.571918677179116 -5.642039627430778
-4.244301514074907 18.414153638626622 -5.64294471727214
-4.451402067026564 18.25482947048264 -5.653663931390146
-4.655833867922218 18.093221519809884 -5.678758682782751
-4.8583011558023435 17.93116641112466 -5.712174275674963
-5.056271647990448 17.768087751967528 -5.764636382341175
-5.25188809688805 17.605354963923638 -5.824745158027817
-5.4409555961349385 17.443584389495527 -5.90612697088101
-5.62703237963969 17.28265947074468 -5.994690798136505
-5.804597795745852 17.124141228783763 -6.103694135031349
-5.97864074602686 16.966452021490646 -6.218752141827402
-6.142484754304923 16.8111631998691 -6.351340830320478
-6.3028534518872394 16.656094807374153 -6.488000174370832
-6.451216299381475 16.501787911988576 -6.638722054021446
-6.597046063423866 16.347067854722567 -6.791288178706606
-6.7281165240049745 16.18994046201423 -6.954600010210882
-6.8587580031475746 16.03265890261977 -7.118075015827226
-6.9702303598964495 15.8684883736567 -7.288841489663229
-7.081702716645324 15.704317844693632 -7.459607963499232
-7.173920478804672 15.531067597828219 -7.632654673013937
-7.2630167901472324 15.356345396166214 -7.80607104201374
-7.335177245856375 15.17323816720727 -7.978206310050775
-7.399157168440359 14.986080715156994 -8.149722767377007
-7.4504314964247875 14.79319106209168 -8.31847125185113
-7.487379593625752 14.59383804881168 -8.48409870034611
-7.517567343062423 14.392059225187865 -8.6476273483409
-7.527033424131318 14.182844861378815 -8.804722799486745
-7.536499505200213 13.973630497569765 -8.961818250632591
-7.5198133437742545 13.758287430801445 -9.109747793631621
-7.502964089954364 13.54290614379876 -9.257620175570658
-7.4693779205315725 13.326013122794507 -9.399872128513254
-7.428702201738301 13.108479750061566 -9.539743337608002
-7.38061404741399 12.891412513645333 -9.677598759317402
-7.319451384768243 12.675167477048069 -9.8118986116281
-7.258288722122495 12.458922440450806 -9.9461984639388
-7.1811152797159625 12.246066006508178 -10.07759622202355
-7.103346904097051 12.033335487248838 -10.20888614324674
-7.019300001001334 11.822718676632308 -10.33954776417272
-6.929091820519343 11.614176101624397 -10.469592818168422
-6.838883640037354 11.405633526616489 -10.599637872164122
-6.740571790921287 11.200242850738604 -10.728817738062824
-6.642127239333534 10.994903789113962 -10.857983435983526
-6.541932254034925 10.789870895708107 -10.986264701728134
-6.439235161735317 10.585275645635424 -11.113281741397802
-6.336538069435708 10.38068039556274 -11.240298781067473
-6.233296445257851 10.173870841333509 -11.363201640970537
-6.129929312483105 9.966550914399063 -11.485156227777955
-6.027166160034893 9.75766979786646 -11.604825573348041
-5.926427622871471 9.543555384512738 -11.716834513214057
-5.825689085708047 9.329440971159013 -11.828843453080072
-5.729141413748241 9.107587347572272 -11.928383782790856
-5.6342216345164555 8.882727518000163 -12.023080826255468
-5.542605375368161 8.653118290503869 -12.10780835209545
-5.457119379641905 8.414695718564198 -12.17403568187635
-5.37410550399719 8.174063075130963 -12.232358776382707
-5.302608295493085 7.923134549253177 -12.253859045275608
-5.235532846729836 7.671747633738983 -12.260743499600697
-5.183564109435444 7.418794653946452 -12.217693785970399
-5.142636090086372 7.176190285347856 -12.138518861489693
-5.114221086271655 6.945314531977912 -12.018401370883135
-5.102919795244986 6.753222182503752 -11.84416633966207
-5.097040805148811 6.575907340208367 -11.652786693785028
-5.103224492478222 6.450097227657907 -11.423281105450894
-5.110669525601929 6.3356287218640235 -11.189030610808688
-5.122305435057518 6.258843198434317 -10.939014958322062
-5.134045669691989 6.188673014543039 -10.687478057934511
-5.146253878917099 6.1481774580577415 -10.429117250113343
-5.158462088142208 6.107681901572442 -10.170756442292173
-5.168839551130273 6.090980094310811 -9.909727041097785
-5.179165429822531 6.074948715191253 -9.648622447882149
-5.187369680906262 6.068288888071571 -9.38712468362658
-5.194507318589556 6.066340454650668 -9.125429259094453
-5.200143219712128 6.065968801260788 -8.86370806120496
-5.20281797887616 6.068706261434084 -8.601936043103793
-5.205131560833483 6.071199600484894 -8.340164363366693
-5.201257579112747 6.069510740431006 -8.078398480366465
-5.19738359739201 6.067821880377117 -7.816632597366235
-5.184924627265644 6.054083676235619 -7.555552671674912
-5.171191927298152 6.038557745843926 -7.294574519480862
-5.146468254578416 6.004870785380625 -7.036348481635481
-5.119046494675503 5.966725616933916 -6.778798038627624
-5.078314808629223 5.904166722919488 -6.528188522814478
-5.034967313039918 5.836809781520503 -6.278943112511594
-4.97861094941967 5.741136148941852 -6.042059276226176
-4.921145676695393 5.643048729354958 -5.806229172051468
-4.855707751742301 5.517515573292739 -5.586014592585586
-4.7902399491763425 5.39178382514746 -5.365919480996347
-4.724960729010963 5.244102002596858 -5.159841970849612
-4.659681508845583 5.0964201800462545 -4.953764460702877
-4.602007265268929 4.933293850459322 -4.757378761546657
-4.545022338992071 4.7687676262425045 -4.561871530970078
-4.499065477384446 4.595009620914832 -4.371741812899768
-4.45713373081716 4.417882123104757 -4.183574824203813
-4.424405372002426 4.23645303861718 -3.9980332922963755
-4.402202844842164 4.050104268201782 -3.815494471663853
-4.382988875487131 3.8628234424293684 -3.6337507625064527
-4.382446173940405 3.6697195219346175 -3.4569745795797564
-4.38190347239368 3.4766156014398666 -3.280198396653061
-4.396924839218876 3.2794730215390917 -3.1088538792337013
-4.416779649080338 3.081076230354003 -2.93919617307695
-4.442429232777003 2.880808769051177 -2.7727984472450435
-4.478534409263776 2.6771660310676872 -2.612282750246303
-4.514639585750548 2.473523293084197 -2.451767053247562
-4.560131698254004 2.263854959603951 -2.3017929497419853
-4.606287873068989 2.053760355947066 -2.1525645927643318
-4.653840996466188 1.8394298317348938 -2.0101673637005346
-4.702724634316781 1.6210648329586723 -1.8742763973138832
-4.7511040257515775 1.4016638128750218 -1.740005144727436
-4.795259739346397 1.1735848526001427 -1.61930096782205
-4.839415452941219 0.9455058923252571 -1.4985967909166604
-4.8754142154801094 0.7103421010204612 -1.3897701955731263
-4.908309442127385 0.4724826913116076 -1.2854627521075452
-4.93551555094431 0.2316827440459686 -1.187076591953158
-4.952654740980809 -0.014320497234259655 -1.099168168408776
-4.9697657605142584 -0.26033229902262 -1.0112832103643103
-4.969427302528601 -0.5116466825200856 -0.9379333393417594
-4.969088844542942 -0.7629610660175511 -0.8645834683192084
-4.958354420974345 -1.0157720006846032 -0.7981140223399492
-4.941523525364361 -1.2694605529515886 -0.7356794414797254
-4.921459630836005 -1.5231783696786678 -0.6746530960052121
-4.891066723961926 -1.7769896825612466 -0.6181258799928324
-4.860673817087847 -2.0308009954438253 -0.5615986639804526
-4.822294315076647 -2.2835207049688706 -0.505157968536203
-4.782262107042717 -2.5360145235588614 -0.44873517722526474
-4.740006559069819 -2.787549130014819 -0.38985170943360753
-4.6946197610634535 -3.037732826079545 -0.32750273770457944
-4.649213068434193 -3.2878573017545945 -0.26495130439068676
-4.602683161209055 -3.5346383008324116 -0.19096925445072627
-4.556153253983917 -3.781419299910228 -0.11698720451076569
-4.511260351346745 -4.024967128051228 -0.032479767885003355
-4.467250086249519 -4.266771700209398 0.05770273005678396
-4.424784079539841 -4.506393583166908 0.15375908353729836
-4.385669972063251 -4.741277817090587 0.2625649691131251
-4.346583953326111 -4.9761160121960435 0.37146962749661877
-4.312639286822854 -5.202527279445228 0.4984536231974568
-4.278694620319596 -5.428938546694404 0.6254376188982913
-4.246817257889414 -5.6492288459868885 0.7630244652935991
-4.2158130927538515 -5.866933743001183 0.9050897919774423
-4.184189888974841 -6.081741862208135 1.0512316638960986
-4.151610176341218 -6.292074019127584 1.2036724182102496
-4.118516878263757 -6.502053515400976 1.3564656274433513
-4.078489624583191 -6.707271713837612 1.5140173569760922
-4.038462370902625 -6.912489912274248 1.671569086508833
-3.9884249787408566 -7.1153586584351505 1.8291805851492862
-3.9347533831082875 -7.317374430620621 1.9868137830998038
-3.8736072207375236 -7.518328261785907 2.1427805294753735
-3.800917184407755 -7.717642009489735 2.296173573907567
-3.727085452146334 -7.916756043332089 2.449188948509067
-3.6317338632811196 -8.112105665353793 2.5950856145518575
-3.5363822744159052 -8.307455287375497 2.740982280594648
-3.4239976057839976 -8.497985847222582 2.880471173995864
-3.304409711266186 -8.686478443655098 3.0172502442532334
-3.1765428092089163 -8.871321516209344 3.1508495979063107
-3.033053987991691 -9.049278187618658 3.278449044504457
-2.889565166774465 -9.22723485902797 3.406048491102603
-2.7241551342048504 -9.391052565204353 3.5257423608577176
-2.5582760995381744 -9.55456776965134 3.645267091596824
-2.380189113379745 -9.707146280073829 3.760842002081519
-2.194092190308374 -9.852548956841376 3.8738253384535017
-2.004015530124727 -9.993147020285145 3.9856507680105575
-1.8003619839353577 -10.11735412986484 4.093525994730601
-1.5967084377459937 -10.24156123944453 4.201401221450641
-1.3805880883286372 -10.345821699517524 4.305625516705603
-1.162305268966786 -10.446622248556167 4.4092165277562465
-0.9385639540228718 -10.535809950265136 4.510921472255221
-0.7089582233707256 -10.612521217162797 4.610600093173628
-0.47845852490504526 -10.68664848607065 4.7098664879465835
-0.24089031383870574 -10.740344345620677 4.8058734525036835
-0.0033221027723661367 -10.794040205170706 4.901880417060783
0.23795118565001075 -10.832885613592067 4.995320484414677
0.48055397850671144 -10.866402188434527 5.087839464059415
0.724112711613536 -10.894268727663711 5.179373035217125
0.9694653261178929 -10.911532623285478 5.269057425996021
1.21481794062225 -10.928796518907241 5.3587418167749155
1.4613665499703679 -10.93476804780307 5.446546584799982
1.7079845304023566 -10.940084587487757 5.534242329388718
1.954818106178207 -10.9410716504903 5.621389200542809
2.2018422059397276 -10.938232707148853 5.708051026182817
2.4488581621571077 -10.934783905753424 5.794696556246782
2.6958082113877686 -10.926399426970475 5.8812102036445015
2.942758260618429 -10.918014948187526 5.96772385104222
3.1894860918335155 -10.906576181753124 6.054496501801074
3.4361133089820437 -10.893754519785888 6.141386421996199
3.682609593961434 -10.879583027381837 6.228409410418793
3.9287542196415686 -10.861786143077143 6.315789795193501
4.174898845321704 -10.84398925877245 6.4031701799682095
4.420473616480829 -10.820213492434267 6.490698640649886
4.66595759345119 -10.795485118502667 6.578250694075583
4.910944960976915 -10.766223733622734 6.665658474938914
5.155357876361963 -10.73171879594499 6.752899368758135
5.399640314994529 -10.69629638551255 6.840074860538487
5.642257641239672 -10.649165412292207 6.926415707502727
5.884874967484828 -10.602034439071865 7.012756554466973
6.12552905783603 -10.544860099128902 7.09823889961924
6.365276374564966 -10.483046958494139 7.18332472247881
6.6038625431917195 -10.416906083471785 7.26812810514444
6.839588741804489 -10.340105766683191 7.3522358224734194
7.075314940417245 -10.2633054498946 7.436343539802395
7.3069298170973855 -10.174938675724476 7.52039106285447
7.537968646425746 -10.08495129697673 7.604430151939473
7.767005103744408 -9.990774323962244 7.689192384514532
7.993539142376493 -9.891361501199746 7.774858349150299
8.220073181008566 -9.791948678437254 7.86052431378606
8.443295494248213 -9.688550877348051 7.9500776020265045
8.666506784989352 -9.585139812955772 8.039643828543372
8.888900960303975 -9.483196745744163 8.132783369187877
9.110629270141192 -9.382449946050938 8.228834795277466
9.332435711356126 -9.28312058426729 8.3260597918563
9.554751544583475 -9.193032471908337 8.430936098968875
9.777067377810832 -9.102944359549378 8.535812406081453
10.000789937618158 -9.027826198873159 8.64876219721301
10.224932981914943 -8.957182704830782 8.764125232577037
10.449742740544794 -8.900094149004634 8.884590637054087
10.675278135168487 -8.857758464949569 9.01060933849587
10.9004539031329 -8.824442689876493 9.13896362486285
11.124594147608715 -8.81709920405226 9.27404308854191
11.348261132248052 -8.812822828882757 9.40963498628129
11.566720521996977 -8.842295926082032 9.550865539128605
11.78517991174589 -8.871769023281308 9.692096091975916
11.994693658433153 -8.931860489723968 9.836817386694982
12.203442977606057 -8.994568372195372 9.98183697401457
12.403236271485294 -9.07677301502395 10.129155344930348
12.599921788250775 -9.165743112799696 10.277271403080737
12.789503738862813 -9.264773908177151 10.4277896168859
12.972990855238901 -9.37243674594793 10.580368871611697
13.152008148272937 -9.484132277217654 10.735059611134032
13.321478576482711 -9.60444103025614 10.894260161981913
13.489308427649256 -9.72567875035284 11.054375437577875
13.643355093512037 -9.854721117696958 11.22217570471811
13.797401759374809 -9.983763485041067 11.389975971858336
13.935610850321476 -10.119387886076296 11.566074228557923
14.072384100670085 -10.255609016802872 11.742924784164035
14.194915962102911 -10.39745177991037 11.925461166564151
14.312841432412462 -10.541112865489835 12.109836635181704
14.419047616333124 -10.690283223927871 12.296648268147765
14.517889826849792 -10.842915409089766 12.484990698201177
14.608261093157413 -11.000674911084536 12.673075520891764
14.689280923491857 -11.164094676432871 12.860875959846561
14.765232559028407 -11.331501444482589 13.047026306285476
14.830476087781339 -11.507331971360689 13.229690329177718
14.893710477101678 -11.685078654816218 13.411045468769615
14.944772630766876 -11.874434243574195 13.584470827223136
14.995834784432079 -12.063789832332182 13.757896185676664
15.033681411690518 -12.266364530849952 13.919249318032868
15.070579754171337 -12.469887771270125 14.079736203530066
15.096283089357339 -12.683249462895665 14.228743607810944
15.117173194949938 -12.900841140554093 14.372815474556914
15.129345822532663 -13.124201366262064 14.507975147980082
15.130747969375326 -13.354688657343248 14.632123769075267
15.127885528666646 -13.587006972310569 14.75202852961094
15.10538828042101 -13.827755598806796 14.852393912821999
15.082891032175377 -14.068504225303027 14.95275929603306
15.035700444216129 -14.31419507638083 15.028839460211874
14.985279837486173 -14.560532396439866 15.101742989952633
14.918452709182024 -14.806326541908415 15.15832062676543
14.837619484713438 -15.051656984238326 15.200960999345522
14.753728360735716 -15.296123022852544 15.240444119730292
14.642566014542423 -15.532880061957858 15.251769962234716
14.531403668349135 -15.769637101063157 15.26309580473914
14.42024132215584 -16.006394140168474 15.274421647243562
14.309078975962553 -16.24315117927378 15.285747489747985
14.197916629769257 -16.479908218379094 15.297073332252408
14.086754283575967 -16.7166652574844 15.30839917475683
13.975591937382672 -16.953422296589718 15.319725017261256
13.864429591189381 -17.19017933569502 15.331050859765678
13.753267244996088 -17.426936374800338 15.342376702270101
13.642104898802799 -17.663693413905644 15.353702544774524
13.530942552609504 -17.90045045301096 15.365028387278947
13.419780206416217 -18.137207492116268 15.376354229783372
13.30861786022292 -18.37396453122158 15.387680072287797
13.197455514029633 -18.610721570326884 15.399005914792218
13.086293167836335 -18.8474786094322 15.410331757296643
12.975130821643047 -19.084235648537508 15.421657599801064
12.863968475449752 -19.320992687642825 15.432983442305488
12.752806129256463 -19.557749726748128 15.444309284809911
12.641643783063168 -19.794506765853445 15.455635127314334
12.530481436869874 -20.031263804958762 15.466960969818757
12.419319090676584 -20.26802084406407 15.478286812323182
12.30815674448329 -20.504777883169385 15.489612654827603
12.19699439829 -20.74153492227469 15.500938497332028
12.085832052096706 -20.97829196138001 15.512264339836452
11.974669705903416 -21.215049000485315 15.523590182340874
11.863507359710121 -21.45180603959063 15.534916024845298
11.75234501351683 -21.688563078695932 15.546241867349721
11.641182667323537 -21.92532011780125 15.557567709854144
11.530020321130248 -22.162077156906552 15.568893552358567
11.418857974936952 -22.39883419601187 15.58021939486299
11.307695628743662 -22.635591235117175 15.591545237367413
11.19653328255037 -22.872348274222492 15.602871079871838
11.08537093635708 -23.109105313327795 15.61419692237626
10.974208590163784 -23.345862352433112 15.625522764880682
10.863046243970494 -23.582619391538415 15.636848607385106
10.7518838977772 -23.819376430643736 15.648174449889531
10.640721551583912 -24.05613346974904 15.659500292393954
10.529559205390616 -24.292890508854356 15.670826134898377
10.418396859197326 -24.529647547959662 15.6821519774028
10.307234513004031 -24.766404587064976 15.693477819907224
10.196072166810742 -25.003161626170282 15.704803662411647
10.084909820617447 -25.239918665275596 15.71612950491607
9.973747474424158 -25.476675704380902 15.727455347420491
9.862585128230863 -25.71343274348622 15.738781189924916
9.751422782037569 -25.950189782591536 15.75010703242934
9.64026043584428 -26.186946821696843 15.761432874933764
9.529098089650985 -26.42370386080216 15.772758717438187
9.417935743457695 -26.660460899907466 15.78408455994261
9.3067733972644 -26.897217939012783 15.795410402447034
9.195611051071111 -27.13397497811809 15.806736244951455
9.084448704877817 -27.370732017223403 15.818062087455878
8.973286358684527 -27.60748905632871 15.829387929960303
8.862124012491233 -27.844246095434023 15.840713772464726
8.750961666297943 -28.08100313453933 15.852039614969149
8.639799320104649 -28.317760173644643 15.863365457473572
8.52863697391136 -28.55451721274995 15.874691299977995
8.417474627718065 -28.791274251855263 15.88601714248242
8.306312281524775 -29.02803129096057 15.897342984986842
8.195149935331479 -29.26478833006589 15.908668827491265
8.083987589138191 -29.501545369171193 15.919994669995688
7.9728252429448965 -29.73830240827651 15.931320512500111
7.861662896751608 -29.975059447381817 15.942646355004536
7.750500550558312 -30.21181648648713 15.953972197508957
7.639338204365023 -30.448573525592433 15.965298040013382
7.528175858171729 -30.68533056469775 15.976623882517803
7.417013511978443 -30.92208760380305 15.987949725022228
7.30585116578515 -31.158844642908363 15.999275567526652
7.194688819591861 -31.395601682013663 16.010601410031075
7.083526473398567 -31.63235872111898 16.021927252535498
6.972364127205271 -31.869115760224297 16.03325309503992
6.8612017810119825 -32.1058727993296 16.044578937544344
6.750039434818687 -32.34262983843492 16.055904780048767
6.6388770886253985 -32.57938687754022 16.06723062255319
6.527714742432105 -32.81614391664554 16.078556465057613
6.416552396238819 -33.05290095575084 16.089882307562036
6.305390050045525 -33.28965799485615 16.10120815006646
6.194227703852237 -33.526415033961456 16.11253399257088
6.08306535765894 -33.76317207306677 16.123859835075308
5.971903011465653 -33.999929112172076 16.13518567757973
5.860740665272358 -34.2366861512774 16.146511520084154
5.74957831907907 -34.473443190382696 16.157837362588577
5.638415972885777 -34.71020022948801 16.169163205093
5.527253626692489 -34.94695726859331 16.18048904759742
5.416091280499195 -35.18371430769862 16.191814890101845
5.3049289343059005 -35.420471346803936 16.20314073260627
LINES 1 401
400 0 1 2 3 4 5 6 7 8 9 10 11 12 13 14 15 16 17 18 19 20 21 22 23 24 25 26 27 28 29 30 31 32 33 34 35 36 37 38 39 40 41 42 43 44 45 46 47 48 49 50 51 52 53 54 55 56 57 58 59 60 61 62 63 64 65 66 67 68 69 70 71 72 73 74 75 76 77 78 79 80 81 82 83 84 85 86 87 88 89 90 91 92 93 94 95 96 97 98 99 100 101 102 103 104 105 106 107 108 109 110 111 112 113 114 115 116 117 118 119 120 121 122 123 124 125 126 127 128 129 130 131 132 133 134 135 136 137 138 139 140 141 142 143 144 145 146 147 148 149 150 151 152 153 154 155 156 157 158 159 160 161 162 163 164 165 166 167 168 169 170 171 172 173 174 175 176 177 178 179 180 181 182 183 184 185 186 187 188 189 190 191 192 193 194 195 196 197 198 199 200 201 202 203 204 205 206 207 208 209 210 211 212 213 214 215 216 217 218 219 220 221 222 223 224 225 226 227 228 229 230 231 232 233 234 235 236 237 238 239 240 241 242 243 244 245 246 247 248 249 250 251 252 253 254 255 256 257 258 259 260 261 262 263 264 265 266 267 268 269 270 271 272 273 274 275 276 277 278 279 280 281 282 283 284 285 286 287 288 289 290 291 292 293 294 295 296 297 298 299 300 301 302 303 304 305 306 307 308 309 310 311 312 313 314 315 316 317 318 319 320 321 322 323 324 325 326 327 328 329 330 331 332 333 334 335 336 337 338 339 340 341 342 343 344 345 346 347 348 349 350 351 352 353 354 355 356 357 358 359 360 361 362 363 364 365 366 367 368 369 370 371 372 373 374 375 376 377 378 379 380 381 382 383 384 385 386 387 388 389 390 391 392 393 394 395 396 397 398 399

POINT_DATA 400
SCALARS MaximumInscribedSphereRadius float
LOOKUP_TABLE default
1.5
1.5
1.5
1.5
1.5
1.5
1.5
1.5
1.5
1.5
1.5
1.5
1.5
1.5
1.5
1.5
1.5
1.5
1.5
1.5
1.5
1.5
1.5
1.5
1.5
1.5
1.5
1.5
1.5
1.5
1.5
1.5
1.5
1.5
1.5
1.5
1.5
1.5
1.5
1.5
1.5
1.5
1.5
1.5
1.5
1.5
1.5
1.5
1.5
1.5
1.5
1.5
1.5
1.5
1.5
1.5
1.5
1.5
1.5
1.5
1.5
1.5
1.5
1.5
1.5
1.5
1.5
1.5
1.5
1.5
1.5
1.5
1.5
1.5
1.5
1.5
1.5
1.5
1.5
1.5
1.5
1.5
1.5
1.5
1.5
1.5
1.5
1.5
1.5
1.5
1.5
1.5
1.5
1.5
1.5
1.5
1.5
1.5
1.5
1.5
1.5
1.5
1.5
1.5
1.5
1.5
1.5
1.5
1.5
1.5
1.5
1.5
1.5
1.5
1.5
1.5
1.5
1.5
1.5
1.5
1.5
1.5
1.5
1.5
1.5
1.5
1.5
1.5
1.5
1.5
1.5
1.5
1.5
1.5
1.5
1.5
1.5
1.5
1.5
1.5
1.5
1.5
1.5
1.5
1.5
1.5
1.5
1.5
1.5
1.5
1.5
1.5
1.5
1.5
1.5
1.5
1.5
1.5
1.5
1.5
1.5
1.5
1.5
1.5
1.5
1.5
1.5
1.5
1.5
1.5
1.5
1.5
1.5
1.5
1.5
1.5
1.5
1.5
1.5
1.5
1.5
1.5
1.5
1.5
1.5
1.5
1.5
1.5
1.5
1.5
1.5
1.5
1.5
1.5
1.5
1.5
1.5
1.5
1.5
1.5
1.5
1.5
1.5
1.5
1.5
1.5
1.5
1.5
1.5
1.5
1.5
1.5
1.5
1.5
1.5
1.5
1.5
1.5
1.5
1.5
1.5
1.5
1.5
1.5
1.5
1.5
1.5
1.5
1.5
1.5
1.5
1.5
1.5
1.5
1.5
1.5
1.5
1.5
1.5
1.5
1.5
1.5
1.5
1.5
1.5
1.5
1.5
1.5
1.5
1.5
1.5
1.5
1.5
1.5
1.5
1.5
1.5
1.5
1.5
1.5
1.5
1.5
1.5
1.5
1.5
1.5
1.5
1.5
1.5
1.5
1.5
1.5
1.5
1.5
1.5
1.5
1.5
1.5
1.5
1.5
1.5
1.5
1.5
1.5
1.5
1.5
1.5
1.5
1.5
1.5
1.5
1.5
1.5
1.5
1.5
1.5
1.5
1.5
1.5
1.5
1.5
1.5
1.5
1.5
1.5
1.5
1.5
1.5
1.5
1.5
1.5
1.5
1.5
1.5
1.5
1.5
1.5
1.5
1.5
1.5
1.5
1.5
1.5
1.5
1.5
1.5
1.5
1.5
1.5
1.5
1.5
1.5
1.5
1.5
1.5
1.5
1.5
1.5
1.5
1.5
1.5
1.5
1.5
1.5
1.5
1.5
1.5
1.5
1.5
1.5
1.5
1.5
1.5
1.5
1.5
1.5
1.5
1.5
1.5
1.5
1.5
1.5
1.5
1.5
1.5
1.5
1.5
1.5
1.5
1.5
1.5
1.5
1.5
1.5
1.5
1.5
1.5
1.5
1.5
1.5
1.5
1.5
1.5
1.5
1.5
1.5
1.5
1.5
1.5
1.5
1.5
1.5
1.5
1.5
1.5
1.5
1.5
1.5
1.5
1.5
