# vtk DataFile Version 2.0
Vessel Segment
ASCII
DATASET POLYDATA
POINTS 400 float
2.903332533285374 26.573562933080673 3.390342875919951
2.8108065887225124 26.37994069421989 3.2394091446675857
2.718280644159651 26.18631845535911 3.08847541341522
2.625754699596789 25.99269621649833 2.9375416821628546
2.5332287550339267 25.799073977637548 2.786607950910488
2.440702810471065 25.605451738776765 2.6356742196581227
2.3481768659082034 25.411829499915985 2.484740488405757
2.255650921345342 25.218207261055202 2.333806757153392
2.16312497678248 25.024585022194422 2.182873025901026
2.0705990322196177 24.83096278333364 2.0319392946486596
1.9780730876567565 24.637340544472856 1.881005563396294
1.885547143093895 24.443718305612073 1.730071832143929
1.7930211985310334 24.250096066751293 1.5791381008915635
1.7004952539681715 24.056473827890514 1.428204369639197
1.6079693094053096 23.862851589029734 1.277270638386831
1.5154433648424472 23.66922935016895 1.126336907134465
1.4229174202795853 23.47560711130817 0.9754031758820988
1.330391475716724 23.28198487244739 0.8244694446297337
1.237865531153862 23.088362633586605 0.673535713377368
1.1453395865910005 22.894740394725822 0.5226019821250029
1.0528136420281389 22.701118155865043 0.37166825087263716
0.9602876974652774 22.50749591700426 0.22073451962027174
0.8677617529024153 22.31387367814348 0.06980078836790556
0.7752358083395536 22.120251439282697 -0.08113294288446003
0.6827098637766922 21.926629200421914 -0.23206667413682522
0.5901839192138303 21.733006961561134 -0.3830004053891909
0.4976579746509686 21.539384722700355 -0.5339341366415566
0.40513203008810655 21.34576248383957 -0.6848678678939231
0.31260608552524494 21.15214024497879 -0.8358015991462885
0.22008014096238318 20.95851800611801 -0.9867353303986542
0.12755419639952156 20.764895767257226 -1.1376690616510199
0.03502825183665949 20.571273528396446 -1.2886027929033859
-0.057497692726202886 20.377651289535663 -1.4395365241557525
-0.1500236372890651 20.18402905067488 -1.590470255408119
-0.24254958185192665 19.9904068118141 -1.7414039866604845
-0.3350755264147885 19.796784572953317 -1.8923377179128502
-0.4276014709776503 19.603162334092538 -2.043271449165216
-0.520127415540512 19.409540095231755 -2.194205180417582
-0.6126533601033731 19.215917856370975 -2.345138911669946
-0.7051793046662349 19.022295617510192 -2.496072642922312
-0.797705249229097 18.82867337864941 -2.647006374174678
-0.8902311937919588 18.63505113978863 -2.797940105427044
-0.982757138354821 18.44142890092785 -2.948873836679411
-1.0752830829176832 18.247806662067067 -3.099807567931777
-1.1678090274805453 18.054184423206284 -3.250741299184143
-1.2603349720434063 17.860562184345504 -3.4016750304365075
-1.352860916606268 17.66693994548472 -3.5526087616888735
-1.4453868611691303 17.473317706623938 -3.7035424929412395
-1.5379128057319915 17.27969546776316 -3.8544762241936046
-1.6671079523333538 17.10113642011538 -3.995233187832604
-1.8060307302232574 16.926573346254948 -4.133290451517728
-1.9591732781942361 16.759497443311904 -4.263611403986665
-2.1338198090452485 16.603744085973283 -4.382233046058951
-2.3088390416598297 16.448214237349536 -4.500513349108853
-2.508410927682535 16.30740857987956 -4.596307097142119
-2.70798281370524 16.16660292240958 -4.692100845175384
-2.917237233070418 16.031576933146606 -4.773301823858312
-3.1327145838220725 15.90026551706573 -4.845124079102469
-3.3497255326626165 15.769659234692067 -4.912848979534995
-3.574014830678422 15.642399467532222 -4.961128120853695
-3.7983041286942294 15.515139700372377 -5.009407262172394
-4.024966462910891 15.387518674988975 -5.042173373176865
-4.252544197626996 15.259758293974105 -5.068955321068959
-4.479900428191877 15.130950820224035 -5.091016124134131
-4.706663895370717 14.999341239913932 -5.100442754078184
-4.933427362549557 14.867731659603825 -5.109869384022237
-5.157271618545901 14.730964581651666 -5.11028575071201
-5.380615014920785 14.593312613174223 -5.109156193944835
-5.601604778269063 14.451982954010646 -5.10769324859399
-5.820271763558707 14.307023816871673 -5.1059012852193515
-6.037483285160968 14.160056202299298 -5.107487588587764
-6.250653506322793 14.007511766534769 -5.1184541265817085
-6.4624104425405 13.853925112337166 -5.134616566314441
-6.667564990333413 13.69546956673356 -5.1750524985507855
-6.869015785537522 13.536933964955978 -5.226855080170254
-7.059267969157167 13.378156306514015 -5.313025694860623
-7.238366386293045 13.223314454590898 -5.422234792780789
-7.40328298115065 13.073476912974371 -5.56073692594617
-7.547234022051671 12.93411261160084 -5.727974809451397
-7.680225038294523 12.800223337100048 -5.910234692038922
-7.789206058672639 12.678814814124129 -6.114902305446732
-7.891848071440621 12.560701401207458 -6.325485903888269
-7.975024922670366 12.451019468259318 -6.548447696835538
-8.052679233538667 12.343729664877706 -6.774921357825901
-8.11745117904504 12.23963076675824 -7.00659643829362
-8.174216684400962 12.137515028663298 -7.241504221186151
-8.224148571192595 12.03560614004285 -7.477851283560586
-8.261051756714116 11.934091622279622 -7.7169424180891095
-8.29759694626732 11.832533709927954 -7.956053860596199
-8.312818101812322 11.728390998412332 -8.196374948082337
-8.328039257357325 11.624248286896703 -8.436696035568474
-8.326220815366051 11.516942331762698 -8.675803846388206
-8.31643131310506 11.408156623044356 -8.914344090901794
-8.29666297808783 11.29728877797414 -9.150899358890708
-8.25924570044178 11.182738387468266 -9.383943922004683
-8.220478006807094 11.067869169490827 -9.616522039074399
-8.155770646729307 10.946875706588163 -9.840140357901493
-8.091063286651522 10.825882243685495 -10.06375867672859
-8.009706405418546 10.69960130870987 -10.278502148690981
-7.921799567706608 10.571240271151186 -10.489754237316912
-7.8283376091084715 10.439905402456148 -10.696459499829643
-7.723783009534841 10.302632293749216 -10.894085516240452
-7.619228409961212 10.165359185042284 -11.091711532651262
-7.506096363343726 10.018410462821976 -11.277173399114883
-7.391801570297739 9.870150128300395 -11.460986310844703
-7.27605067604769 9.717015229079282 -11.63956865411371
-7.157800231594582 9.555512629075714 -11.809172178862468
-7.039549787141473 9.394010029072149 -11.978775703611229
-6.9214854546203055 9.219597098579015 -12.134993554706316
-6.80345800097304 9.042625930979973 -12.288558977418095
-6.686461474225364 8.859588336687871 -12.435097890548219
-6.57143863463549 8.66493670025311 -12.568184703698215
-6.456415795045613 8.470285063818345 -12.701271516848218
-6.34645479914766 8.25649331092836 -12.80614643662556
-6.236640944295804 8.042145180376592 -12.910201274283454
-6.133547650002161 7.811810161243983 -12.97920855869141
-6.03215598814649 7.577427294025521 -13.039341872994477
-5.9442980900104745 7.331301332652205 -13.041644353082615
-5.8637293920468725 7.085227455974724 -13.01913810515634
-5.805769266657565 6.846560780601211 -12.926885978029194
-5.772682166623413 6.634796485200539 -12.782866367028983
-5.756100950454674 6.442191055848404 -12.606968503824843
-5.772419494905634 6.298583365314642 -12.388011546056807
-5.79866251272291 6.170754926619379 -12.161961721546312
-5.842476791104373 6.0708636222513945 -11.923353990426701
-5.894600835072891 5.98252632340605 -11.682480712404825
-5.958379785658527 5.910394157426283 -11.438429879335697
-6.0261493322341835 5.842007809810919 -11.194535685213813
-6.10427868136456 5.783345808824013 -10.951048134252478
-6.182494022086789 5.724699817619252 -10.70758616725365
-6.269943247003414 5.667772976753632 -10.466871438001336
-6.357392471920038 5.610846135888012 -10.226156708749022
-6.447218485767197 5.548669386193815 -9.987663199696852
-6.538153508356082 5.484043031189957 -9.750206111080516
-6.627682066216057 5.414230800065295 -9.513798220706855
-6.714685462234712 5.335107865142052 -9.279274057178178
-6.800680389808368 5.254580024399852 -9.044931926714462
-6.874830038105481 5.157550426101059 -8.812727922141194
-6.948979686402596 5.060520827802266 -8.580523917567929
-7.0038825396150575 4.948414672539885 -8.349972715305652
-7.055719782064652 4.833907137978182 -8.119684769784628
-7.086031755793549 4.709919149378358 -7.890971392769812
-7.107435785060747 4.5820078017190475 -7.6629096298642745
-7.108028669068543 4.449715340691268 -7.437040783266161
-7.094360808130557 4.314420741167625 -7.212674622837299
-7.063646066582217 4.178339686424106 -6.991182922559647
-7.015194903510849 4.041440364596564 -6.772681953434417
-6.955926496427501 3.9051001160325587 -6.55701745040486
-6.877759950468153 3.7697365898355857 -6.346308362094032
-6.7955018619310215 3.6346216440117556 -6.137200361120882
-6.695704761017089 3.5005722753286532 -5.9349556617260495
-6.595907660103155 3.3665229066455473 -5.732710962331213
-6.484120408600149 3.2310370152575825 -5.537852931305501
-6.371786010288105 3.0954855709970133 -5.343331976282097
-6.256939387501294 2.9562382189243754 -5.1529794561577065
-6.140884690922032 2.815213585636652 -4.9646314451875035
-6.0263572744624945 2.6708672862085754 -4.777946117340336
-5.914463742998386 2.5207925768484154 -4.594128184984903
-5.803143434493012 2.3701089022305615 -4.410495199755186
-5.701792316472387 2.2088344259708355 -4.2300787171057515
-5.6004411984517635 2.04755994971111 -4.049662234456318
-5.5101657536337125 1.8774834760159278 -3.871649545214323
-5.423517192289509 1.7045246656490491 -3.6944240116083353
-5.344323954486824 1.5265781079736485 -3.518922230371312
-5.27354761092019 1.3430004946722736 -3.345366527168053
-5.20567006424329 1.1575580546905935 -3.17278159299222
-5.149048986094674 0.9648742095204985 -3.003966302368925
-5.092427907946058 0.7721903643504037 -2.83515101174563
-5.045751822492349 0.5720391894762188 -2.6721041245183503
-4.9995083716346 0.3715631651759431 -2.5093081787396097
-4.957584847559981 0.1659300518080494 -2.3519494099437086
-4.917235922593035 -0.04158280356745746 -2.1965724742795336
-4.877820375611887 -0.2525275907497283 -2.045738572960564
-4.839230821197932 -0.46650946494993667 -1.898925028516014
-4.800131287132909 -0.6824394664324851 -1.75521840893886
-4.7600837843750226 -0.9019907176443225 -1.6172870541182596
-4.719332344287765 -1.1222529193634527 -1.480750096647241
-4.675436860043115 -1.3456904886833412 -1.350441032849587
-4.631432231378271 -1.569156390852452 -1.2202214797523023
-4.581823613879122 -1.794077035008716 -1.094597827796838
-4.532214996379973 -2.0189976791649804 -0.9689741758413738
-4.476426075861453 -2.2427516979298803 -0.8438896641609118
-4.419518374333241 -2.4662945299084376 -0.7189027496208071
-4.357014981254955 -2.687074572930564 -0.5917872629267826
-4.291581592575259 -2.906407974475488 -0.4635572210446359
-4.222127331405639 -3.122931712038643 -0.3328415949049922
-4.147538599617109 -3.3358676369567664 -0.19895199113414247
-4.071251162185639 -3.5474289387013758 -0.06394349853433859
-3.987533613111145 -3.7529776604037886 0.07595899612510712
-3.903816064036651 -3.9585263821062013 0.21586149078455283
-3.8124362324176824 -4.1579798949206985 0.359687282845676
-3.720107543683493 -4.356678608850074 0.5039989155989302
-3.6233678221827716 -4.552549886765691 0.6492025691479737
-3.5229770105768576 -4.746080845713115 0.7951445641407423
-3.421325722370705 -4.939123689562662 0.9408266815249647
-3.3131479924984193 -5.12963919199862 1.0851632157764355
-3.2049702626261336 -5.320154694434576 1.2294997500279061
-3.090779337238997 -5.509613641109306 1.3704982976773745
-2.974506554992796 -5.698706792616882 1.5103411851981003
-2.85551838465908 -5.8875357683167975 1.6481467452138057
-2.730282920593683 -6.0757569547011325 1.7812650255695532
-2.6050474565282866 -6.2639781410854685 1.914383305925301
-2.47094736308292 -6.450696797607128 2.0407293149019945
-2.3353355394977426 -6.637159220102297 2.165920414144748
-2.1947693161343036 -6.821979976856881 2.287817109838709
-2.0470196443826376 -7.004420461197852 2.4049372071712334
-1.8992699726309716 -7.186860945538823 2.5220573045037584
-1.7379503333897313 -7.3620754818953404 2.6320566544377075
-1.5762716049257672 -7.53709880482065 2.7418675747641097
-1.4060203312217723 -7.705638368833859 2.8483615338807793
-1.2290231528607287 -7.8690757352831415 2.952245310905031
-1.0493561275258017 -8.029800750396896 3.055417493833156
-0.8564490867738928 -8.17707496707541 3.155060816532396
-0.6635420460219839 -8.324349183753924 3.2547041392316367
-0.45842414407392035 -8.455191231614599 3.3523315510714085
-0.2502041854304041 -8.581858838501509 3.4494468393452333
-0.03610800153808161 -8.69789930742051 3.546102974137344
0.18541472202755482 -8.800508898796398 3.6421788177725114
0.40784265229035704 -8.900810393927115 3.7382721213517085
0.6395650132879283 -8.977412947427048 3.8345446991684136
0.8712873742854994 -9.054015500926981 3.930817276985118
1.1077638733418564 -9.111706111777611 4.027967096345187
1.3460393578271082 -9.162240365610977 4.125448867519577
1.5853711963751345 -9.204308106324618 4.2236374428481875
1.8267378949724522 -9.230066760992916 4.32318753851054
2.0681045935697697 -9.255825415661214 4.422737634172893
2.3096770592773614 -9.260386271918799 4.524823037631491
2.55126402738969 -9.263453113648561 4.627087128829576
2.7918632859918007 -9.25602756319897 4.73090413136354
3.0315007419315374 -9.2383848278095 4.836233313583767
3.2709008597335547 -9.2194515274588 4.941763229769015
3.5070465268509987 -9.18282161896101 5.050045669405244
3.7431921939684427 -9.146191710463219 5.158328109041474
3.976504437270063 -9.098494440424721 5.268071235191003
4.2081414510166 -9.04425371894552 5.378677975602586
4.438803330740695 -8.986863944560131 5.489530545341057
4.665464693370056 -8.916555084496693 5.601391637397475
4.892126055999418 -8.846246224433253 5.713252729453892
5.114992696717667 -8.76493137385652 5.825103522657897
5.336757065439976 -8.680419557753835 5.936951324302342
5.557006109775204 -8.591755538952745 6.0484252033387556
5.774618496973428 -8.495866707449899 6.1592484588376895
5.992230884171651 -8.399977875947055 6.270071714336623
6.207092744086726 -8.296684425944013 6.379589105767401
6.421851689728859 -8.193113923270394 6.489057636729877
6.6359565876253255 -8.087792107886008 6.598123014985918
6.849567169256968 -7.981146685221495 6.706883698452751
7.063237062261111 -7.874809167488949 6.815826455909499
7.277176625569556 -7.76987159740894 6.925597046987301
7.491116188877999 -7.664934027328931 7.035367638065101
7.70605499810135 -7.565226452912121 7.147982342319725
7.921247436579074 -7.466846359429333 7.261318941248756
8.136894508060044 -7.37296632200155 7.377406586952895
8.35316046539777 -7.285212150991672 7.497239196019204
8.569411825252535 -7.198295237719093 7.61764021934095
8.7854350803199 -7.124461573023682 7.7469234597714784
9.001458335387266 -7.050627908328273 7.876206700202008
9.215873270047368 -6.988427449959364 8.013703930433309
9.429634631267426 -6.930954379642739 8.154539081110265
9.64162282508541 -6.880526218367093 8.300226556087216
9.850711987062477 -6.841616098536525 8.453847316230405
10.05929046477327 -6.80426358774855 8.608400902246599
10.261464314064312 -6.786445469930653 8.774653307849476
10.463638163355357 -6.768627352112757 8.940905713452356
10.658793048809667 -6.770416219583144 9.11588521202588
10.852224948614728 -6.777018127135016 9.293007000586616
11.039578162760076 -6.800062023205557 9.474553737732105
11.222465437473852 -6.835185656405078 9.659351432975054
11.400255418228035 -6.883229247376323 9.84541872765404
11.570364564267177 -6.95074121920937 10.033399112592255
11.736405661387746 -7.027361886980545 10.220787184126685
11.891165386868511 -7.129242473225839 10.40653267274996
12.04321252596719 -7.236209273510333 10.59114649839547
12.180393612482796 -7.371050550292441 10.769558360687864
12.316927022573392 -7.5069008309634055 10.947582836622683
12.436233506169009 -7.669588642159281 11.1153035929077
12.555539989764624 -7.832276453355156 11.283024349192718
12.66087191955634 -8.013292448903652 11.440765411860884
12.764259564590052 -8.196858451413286 11.597117996123155
12.85960976270383 -8.389620473965177 11.747065200055932
12.950793613952454 -8.587149409400794 11.893692066508205
13.038997609909057 -8.787864065476679 12.03764093157556
13.122195092717003 -8.993931113098604 12.177090434146486
13.205232195457421 -9.20015473723842 12.316396212069417
13.283360985761947 -9.41117026901233 12.451303404257969
13.36148977606647 -9.622185800786237 12.58621059644652
13.437197576756649 -9.83508530343624 12.719504820310629
13.51161678486337 -10.048987565818885 12.851940527885397
13.584889298011591 -10.263503107029932 12.984003070542776
13.654829214945867 -10.479800997318634 13.114981098106018
13.724769131880139 -10.696098887607336 13.245959125669257
13.788983466719502 -10.914732001952604 13.375963854594913
13.852253252298176 -11.133750358203343 13.5058080184473
13.91084707935053 -11.35442801239735 13.634926331525605
13.964194805545308 -11.576967283693845 13.76323029042456
14.016273620924192 -11.799912333628587 13.891285582394922
14.056775206505495 -12.026559607930162 14.017072098546459
14.0972767920868 -12.253206882231737 14.142858614697996
14.126735071760994 -12.482921729421466 14.26592587744685
14.1522649252424 -12.71372780180982 14.388025822403206
14.171914132146844 -12.945888146899273 14.50836778172196
14.181901526986202 -13.180273541250145 14.625821397621099
14.191749394364663 -13.414685099580748 14.74322458116795
14.187172607197743 -13.651801547448617 14.855413957662455
14.18259582003082 -13.888917995316488 14.967603334156957
14.170290802004438 -14.127209357507269 15.076476880391478
14.15327201712702 -14.36621734841798 15.183327964946553
14.134265036672172 -14.605488952387384 15.289157940285738
14.10761801602926 -14.84577354239568 15.39106409870551
14.08097099538635 -15.086058132403972 15.49297025712528
14.049239083042574 -15.327077612116268 15.59157487836638
14.015947763813973 -15.568322463799376 15.689167002171978
13.98161838613454 -15.809833873772742 15.785707673299529
13.94487387439787 -16.051965454994193 15.879802047525121
13.908129362661201 -16.294097036215643 15.973896421750714
13.87094008576222 -16.5369944325885 16.06581054232048
13.833652826201636 -16.78006053958258 16.157244348615947
13.796365566641049 -17.023126646576657 16.24867815491141
13.759078307080465 -17.266192753570735 16.340111961206876
13.72179104751988 -17.50925886056481 16.431545767502342
13.684503787959294 -17.75232496755889 16.522979573797805
13.647216528398706 -17.995391074552973 16.61441338009327
13.60992926883812 -18.23845718154705 16.705847186388738
13.572642009277537 -18.481523288541133 16.797280992684204
13.535354749716952 -18.724589395535208 16.888714798979667
13.498067490156366 -18.96765550252929 16.980148605275133
13.460780230595779 -19.210721609523375 17.071582411570596
13.423492971035195 -19.45378771651746 17.163016217866065
13.386205711474611 -19.69685382351153 17.254450024161525
13.348918451914027 -19.939919930505607 17.34588383045699
13.311631192353442 -20.18298603749968 17.437317636752454
13.274343932792856 -20.426052144493767 17.52875144304792
13.23705667323227 -20.669118251487845 17.620185249343386
13.199769413671683 -20.912184358481927 17.711619055638852
13.1624821541111 -21.155250465476 17.803052861934315
13.125194894550514 -21.398316572470083 17.894486668229778
13.087907634989929 -21.641382679464165 17.985920474525248
13.050620375429343 -21.884448786458247 18.077354280820714
13.013333115868758 -22.127514893452325 18.168788087116177
12.97604585630817 -22.3705810004464 18.260221893411643
12.938758596747588 -22.613647107440478 18.351655699707106
12.901471337187001 -22.856713214434556 18.443089506002572
12.864184077626415 -23.099779321428635 18.534523312298035
12.82689681806583 -23.34284542842272 18.625957118593497
12.789609558505244 -23.5859115354168 18.717390924888964
12.752322298944659 -23.828977642410877 18.80882473118443
12.715035039384075 -24.072043749404955 18.900258537479893
12.67774777982349 -24.31510985639904 18.99169234377536
12.640460520262902 -24.558175963393115 19.083126150070825
12.603173260702317 -24.8012420703872 19.17455995636629
12.565886001141731 -25.044308177381275 19.265993762661758
12.528598741581147 -25.28737428437535 19.35742756895722
12.491311482020562 -25.53044039136944 19.448861375252687
12.454024222459976 -25.77350649836352 19.540295181548153
12.416736962899392 -26.016572605357602 19.63172898784362
12.379449703338803 -26.259638712351684 19.723162794139085
12.34216244377822 -26.50270481934575 19.814596600434548
12.304875184217636 -26.745770926339837 19.906030406730014
12.267587924657049 -26.988837033333915 19.997464213025477
12.230300665096463 -27.231903140328 20.088898019320943
12.193013405535877 -27.474969247322083 20.18033182561641
12.15572614597529 -27.71803535431616 20.271765631911876
12.118438886414708 -27.96110146131024 20.363199438207342
12.081151626854123 -28.20416756830432 20.45463324450281
12.043864367293537 -28.447233675298406 20.54606705079827
12.006577107732948 -28.690299782292485 20.637500857093734
11.969289848172364 -28.93336588928657 20.728934663389204
11.932002588611777 -29.17643199628065 20.82036846968467
11.894715329051191 -29.419498103274734 20.911802275980136
11.857428069490606 -29.662564210268815 21.003236082275603
11.82014080993002 -29.905630317262897 21.09466988857107
11.782853550369435 -30.14869642425698 21.18610369486654
11.745566290808851 -30.39176253125106 21.277537501162
11.708279031248264 -30.63482863824514 21.368971307457464
11.67099177168768 -30.877894745239217 21.460405113752934
11.633704512127093 -31.120960852233303 21.551838920048397
11.596417252566509 -31.364026959227385 21.64327272634386
11.559129993005921 -31.607093066221466 21.73470653263933
11.521842733445336 -31.850159173215552 21.826140338934795
11.48455547388475 -32.09322528020964 21.91757414523026
11.447268214324165 -32.33629138720371 22.009007951525728
11.409980954763578 -32.579357494197794 22.100441757821187
11.372693695202994 -32.82242360119187 22.191875564116657
11.335406435642408 -33.06548970818595 22.28330937041212
11.298119176081824 -33.308555815180014 22.37474317670758
11.26083191652124 -33.55162192217409 22.466176983003045
11.223544656960655 -33.79468802916817 22.557610789298508
11.18625739740007 -34.03775413616225 22.64904459559397
11.148970137839484 -34.28082024315632 22.740478401889437
11.1116828782789 -34.5238863501504 22.831912208184903
11.074395618718315 -34.76695245714448 22.923346014480362
11.03710835915773 -35.010018564138555 23.01477982077583
10.999821099597145 -35.25308467113263 23.10621362707129
10.962533840036558 -35.49615077812672 23.19764743336676
10.925246580475973 -35.7392168851208 23.289081239662227
10.887959320915387 -35.982282992114875 23.38051504595769
10.850672061354802 -36.22534909910896 23.471948852253156
10.813384801794216 -36.46841520610304 23.563382658548623
10.77609754223363 -36.711481313097124 23.65481646484409
10.738810282673045 -36.9545474200912 23.746250271139555
LINES 1 401
400 0 1 2 3 4 5 6 7 8 9 10 11 12 13 14 15 16 17 18 19 20 21 22 23 24 25 26 27 28 29 30 31 32 33 34 35 36 37 38 39 40 41 42 43 44 45 46 47 48 49 50 51 52 53 54 55 56 57 58 59 60 61 62 63 64 65 66 67 68 69 70 71 72 73 74 75 76 77 78 79 80 81 82 83 84 85 86 87 88 89 90 91 92 93 94 95 96 97 98 99 100 101 102 103 104 105 106 107 108 109 110 111 112 113 114 115 116 117 118 119 120 121 122 123 124 125 126 127 128 129 130 131 132 133 134 135 136 137 138 139 140 141 142 143 144 145 146 147 148 149 150 151 152 153 154 155 156 157 158 159 160 161 162 163 164 165 166 167 168 169 170 171 172 173 174 175 176 177 178 179 180 181 182 183 184 185 186 187 188 189 190 191 192 193 194 195 196 197 198 199 200 201 202 203 204 205 206 207 208 209 210 211 212 213 214 215 216 217 218 219 220 221 222 223 224 225 226 227 228 229 230 231 232 233 234 235 236 237 238 239 240 241 242 243 244 245 246 247 248 249 250 251 252 253 254 255 256 257 258 259 260 261 262 263 264 265 266 267 268 269 270 271 272 273 274 275 276 277 278 279 280 281 282 283 284 285 286 287 288 289 290 291 292 293 294 295 296 297 298 299 300 301 302 303 304 305 306 307 308 309 310 311 312 313 314 315 316 317 318 319 320 321 322 323 324 325 326 327 328 329 330 331 332 333 334 335 336 337 338 339 340 341 342 343 344 345 346 347 348 349 350 351 352 353 354 355 356 357 358 359 360 361 362 363 364 365 366 367 368 369 370 371 372 373 374 375 376 377 378 379 380 381 382 383 384 385 386 387 388 389 390 391 392 393 394 395 396 397 398 399

POINT_DATA 400
SCALARS MaximumInscribedSphereRadius float
LOOKUP_TABLE default
1.5
1.5
1.5
1.5
1.5
1.5
1.5
1.5
1.5
1.5
1.5
1.5
1.5
1.5
1.5
1.5
1.5
1.5
1.5
1.5
1.5
1.5
1.5
1.5
1.5
1.5
1.5
1.5
1.5
1.5
1.5
1.5
1.5
1.5
1.5
1.5
1.5
1.5
1.5
1.5
1.5
1.5
1.5
1.5
1.5
1.5
1.5
1.5
1.5
1.5
1.5
1.5
1.5
1.5
1.5
1.5
1.5
1.5
1.5
1.5
1.5
1.5
1.5
1.5
1.5
1.5
1.5
1.5
1.5
1.5
1.5
1.5
1.5
1.5
1.5
1.5
1.5
1.5
1.5
1.5
1.5
1.5
1.5
1.5
1.5
1.5
1.5
1.5
1.5
1.5
1.5
1.5
1.5
1.5
1.5
1.5
1.5
1.5
1.5
1.5
1.5
1.5
1.5
1.5
1.5
1.5
1.5
1.5
1.5
1.5
1.5
1.5
1.5
1.5
1.5
1.5
1.5
1.5
1.5
1.5
1.5
1.5
1.5
1.5
1.5
1.5
1.5
1.5
1.5
1.5
1.5
1.5
1.5
1.5
1.5
1.5
1.5
1.5
1.5
1.5
1.5
1.5
1.5
1.5
1.5
1.5
1.5
1.5
1.5
1.5
1.5
1.5
1.5
1.5
1.5
1.5
1.5
1.5
1.5
1.5
1.5
1.5
1.5
1.5
1.5
1.5
1.5
1.5
1.5
1.5
1.5
1.5
1.5
1.5
1.5
1.5
1.5
1.5
1.5
1.5
1.5
1.5
1.5
1.5
1.5
1.5
1.5
1.5
1.5
1.5
1.5
1.5
1.5
1.5
1.5
1.5
1.5
1.5
1.5
1.5
1.5
1.5
1.5
1.5
1.5
1.5
1.5
1.5
1.5
1.5
1.5
1.5
1.5
1.5
1.5
1.5
1.5
1.5
1.5
1.5
1.5
1.5
1.5
1.5
1.5
1.5
1.5
1.5
1.5
1.5
1.5
1.5
1.5
1.5
1.5
1.5
1.5
1.5
1.5
1.5
1.5
1.5
1.5
1.5
1.5
1.5
1.5
1.5
1.5
1.5
1.5
1.5
1.5
1.5
1.5
1.5
1.5
1.5
1.5
1.5
1.5
1.5
1.5
1.5
1.5
1.5
1.5
1.5
1.5
1.5
1.5
1.5
1.5
1.5
1.5
1.5
1.5
1.5
1.5
1.5
1.5
1.5
1.5
1.5
1.5
1.5
1.5
1.5
1.5
1.5
1.5
1.5
1.5
1.5
1.5
1.5
1.5
1.5
1.5
1.5
1.5
1.5
1.5
1.5
1.5
1.5
1.5
1.5
1.5
1.5
1.5
1.5
1.5
1.5
1.5
1.5
1.5
1.5
1.5
1.5
1.5
1.5
1.5
1.5
1.5
1.5
1.5
1.5
1.5
1.5
1.5
1.5
1.5
1.5
1.5
1.5
1.5
1.5
1.5
1.5
1.5
1.5
1.5
1.5
1.5
1.5
1.5
1.5
1.5
1.5
1.5
1.5
1.5
1.5
1.5
1.5
1.5
1.5
1.5
1.5
1.5
1.5
1.5
1.5
1.5
1.5
1.5
1.5
1.5
1.5
1.5
1.5
1.5
1.5
1.5
1.5
1.5
1.5
1.5
1.5
1.5
1.5
1.5
1.5
1.5
1.5
1.5
1.5
1.5
1.5
1.5
1.5
1.5
1.5
1.5
1.5
1.5
1.5
1.5
1.5
