# vtk DataFile Version 2.0
Vessel Segment
ASCII
DATASET POLYDATA
POINTS 400 float
1.4956108301525086 26.814662143732846 -17.743697223867844
1.3711808825756981 26.61385558806824 -17.601001775108053
1.2467509349988872 26.413049032403627 -17.45830632634826
1.1223209874220768 26.212242476739018 -17.31561087758847
0.9978910398452661 26.011435921074412 -17.172915428828674
0.8734610922684556 25.810629365409802 -17.030219980068882
0.7490311446916454 25.609822809745197 -16.88752453130909
0.6246011971148349 25.409016254080587 -16.7448290825493
0.5001712495380242 25.208209698415978 -16.602133633789506
0.3757413019612135 25.007403142751368 -16.45943818502971
0.2513113543844028 24.80659658708676 -16.316742736269923
0.12688140680759222 24.60579003142215 -16.17404728751013
0.0024514592307816746 24.40498347575754 -16.03135183875034
-0.12197848834602906 24.20417692009293 -15.888656389990546
-0.24640843592283962 24.00337036442832 -15.745960941230754
-0.37083838349965015 23.802563808763715 -15.603265492470962
-0.49526833107646095 23.6017572530991 -15.460570043711169
-0.6196982786532717 23.400950697434496 -15.317874594951377
-0.7441282262300818 23.20014414176989 -15.175179146191585
-0.8685581738068922 22.99933758610528 -15.032483697431791
-0.9929881213837028 22.79853103044067 -14.889788248672001
-1.117418068960513 22.59772447477606 -14.747092799912208
-1.241848016537324 22.396917919111452 -14.604397351152418
-1.366277964114135 22.196111363446843 -14.461701902392623
-1.4907079116909454 21.995304807782233 -14.31900645363283
-1.6151378592677559 21.794498252117624 -14.176311004873039
-1.7395678068445668 21.593691696453014 -14.033615556113249
-1.8639977544213775 21.392885140788405 -13.890920107353455
-1.988427701998188 21.1920785851238 -13.748224658593664
-2.112857649574998 20.99127202945919 -13.605529209833872
-2.237287597151808 20.79046547379458 -13.46283376107408
-2.3617175447286187 20.58965891812997 -13.320138312314288
-2.4861474923054288 20.38885236246536 -13.177442863554496
-2.6105774398822392 20.18804580680075 -13.034747414794705
-2.73500738745905 19.987239251136142 -12.892051966034913
-2.859437335035861 19.786432695471536 -12.74935651727512
-2.983867282612671 19.585626139806926 -12.606661068515328
-3.108297230189482 19.384819584142313 -12.463965619755534
-3.232727177766293 19.184013028477708 -12.321270170995744
-3.3571571253431025 18.983206472813098 -12.178574722235952
-3.481587072919914 18.78239991714849 -12.035879273476159
-3.6060170204967243 18.58159336148388 -11.893183824716365
-3.730446968073535 18.380786805819273 -11.750488375956575
-3.8548769156503457 18.179980250154664 -11.60779292719678
-3.979306863227156 17.979173694490054 -11.465097478436991
-4.103736810803967 17.778367138825445 -11.322402029677198
-4.228865782036528 17.60646392324501 -11.148044706337945
-4.354207545943395 17.44335929263703 -10.964049061162413
-4.480629034234948 17.2999778836798 -10.765441150973663
-4.607376667923792 17.162554141375608 -10.562419407916424
-4.73632418868229 17.033407638004498 -10.355571741190293
-4.867167732071452 16.911395060984884 -10.145426615262965
-4.998972681839866 16.79039086448896 -9.935330086092184
-5.137190564994178 16.676112936161832 -9.725557715122576
-5.27540844814849 16.561835007834706 -9.515785344152967
-5.420355075444297 16.448678954426114 -9.310077666847523
-5.569421783682602 16.336209836851992 -9.10685884430467
-5.719627456416942 16.22349140988185 -8.904688856366892
-5.882884984469394 16.107916045599268 -8.714537888833824
-6.046142512521845 15.99234068131669 -8.524386921300756
-6.218991938926425 15.872494502084399 -8.346228949934444
-6.398930521678487 15.749491859574642 -8.176934732309014
-6.581445585176315 15.624795164241947 -8.012201679423343
-6.778417327686473 15.490593108571758 -7.873061402526188
-6.9753890701966315 15.356391052901568 -7.733921125629035
-7.183722270524852 15.210465257269863 -7.6281270033377435
-7.394351831173003 15.062169877410502 -7.529072754351924
-7.608413180824085 14.90430840315461 -7.45976314989958
-7.824634085710224 14.740427179661378 -7.409171247136493
-8.037843777507787 14.569287681219903 -7.38341201084147
-8.247691491202342 14.39004441837392 -7.385378105982326
-8.450217460419504 14.205734327641872 -7.406339637643079
-8.640404104303427 14.012885119232788 -7.459314150880747
-8.821801294533813 13.817060806028824 -7.52479870525516
-8.980455724996448 13.613538392772151 -7.622653060014495
-9.13243782573135 13.408918345144054 -7.726509078751313
-9.250621058568772 13.198738200723195 -7.860766689768091
-9.368231902760785 12.98853986399151 -7.995366600534062
-9.440465678713833 12.776899301359009 -8.15710289704407
-9.512699454666883 12.565258738726506 -8.318839193554078
-9.546382025475033 12.357415886711854 -8.49609454551694
-9.570867671248 12.150479031273097 -8.677052183545314
-9.570830270844109 11.949438927039537 -8.864566810138399
-9.549517074260962 11.753514748285092 -9.057770173409885
-9.520883603465602 11.560520982455595 -9.25222574719618
-9.459102373947886 11.380796749675955 -9.452351596550182
-9.39732114443017 11.20107251689632 -9.652477445904184
-9.311649539656784 11.035260170953425 -9.855080836232277
-9.217091195366187 10.874622767353959 -10.058605822016464
-9.118381215850992 10.717262713896742 -10.262386919863859
-8.999611846747666 10.575737780762845 -10.46740547027541
-8.880842477644341 10.434212847628945 -10.672424020686963
-8.75374355970868 10.301186989279719 -10.87781251717627
-8.618792538761502 10.176173042746502 -11.083549754608178
-8.483841517814326 10.051159096213281 -11.289286992040086
-8.341429809718235 9.93550605071059 -11.495374261902452
-8.196968835353564 9.82242421324041 -11.701557677017703
-8.052381072340001 9.70951283231922 -11.907741907833689
-7.903473823097415 9.602408633053843 -12.113953928267362
-7.754566573854827 9.495304433788464 -12.320165948701035
-7.605384597020044 9.387865939011578 -12.526003431164874
-7.455603526884244 9.279698452290702 -12.731024165711585
-7.305822456748442 9.171530965569826 -12.936044900258299
-7.157158905440589 9.056607692193072 -13.13813067794815
-7.008922279066464 8.939103510380406 -13.339095216129301
-6.861855702991429 8.814945781726234 -13.536613489595418
-6.717044948028038 8.677960218709666 -13.72748747032767
-6.573740400911841 8.533096146479378 -13.912832596996438
-6.435093242295373 8.363870709862788 -14.081081795384177
-6.302932080196267 8.172779932664625 -14.226120313856342
-6.1789426394577855 7.956409737975755 -14.342729087274979
-6.085527292335202 7.69836224103527 -14.37193761331322
-6.034097139764135 7.43920337000068 -14.309702391550198
-6.0211436750305705 7.202415755481757 -14.178166071508295
-6.03439888824353 6.989230244206155 -14.005183772761082
-6.076705114430521 6.813976214800977 -13.79622376665543
-6.130030832318627 6.655585584058246 -13.577922857131593
-6.1963541554068975 6.517085507625319 -13.348604254765332
-6.272871445651246 6.394690822265494 -13.114137073238444
-6.358747259647279 6.287081615667761 -12.87494326275302
-6.451799675691956 6.191149924657633 -12.634067092387284
-6.555581519566996 6.112676782956182 -12.390675698410394
-6.662359504573929 6.039653911608184 -12.147254567300699
-6.783106259394556 5.992041582900907 -11.903694794136143
-6.903853014215182 5.94442925419363 -11.66013502097159
-7.038481829913388 5.928795119463771 -11.419943795518126
-7.1743205016704925 5.915947963704639 -11.180046147357961
-7.317612614488079 5.929334309092832 -10.945333780156489
-7.464448049884944 5.955191908522536 -10.7130864653988
-7.613282464610197 5.999852817898413 -10.485964218673363
-7.7643942497819545 6.065935710863493 -10.26468079094282
-7.914420248650129 6.142474409531765 -10.046762859992564
-8.061648852718998 6.245951204950735 -9.837515717354101
-8.207810127824498 6.352273506070205 -9.629183061734231
-8.343583533323857 6.486289932613641 -9.429750728537616
-8.47935693882321 6.620306359157071 -9.230318395341003
-8.599918921790552 6.773432890116812 -9.03509999976679
-8.71862565625331 6.928890169076352 -8.840395553591845
-8.82358288898774 7.092134131151193 -8.64448766165269
-8.92177503580549 7.259209328809812 -8.44798764542047
-9.010222315291927 7.427032863683541 -8.247883531782133
-9.086208375221204 7.595813332502409 -8.043170689511992
-9.157408989146173 7.762837024227585 -7.835624300254132
-9.210865079083629 7.923346553374904 -7.617571065354681
-9.26418619633257 8.08374256450994 -7.399416517399376
-9.295820020408062 8.225898601025866 -7.164983076514645
-9.327453844483552 8.368054637541794 -6.930549635629913
-9.342312680116116 8.486621339276642 -6.682198348524439
-9.353742470253092 8.600366046501618 -6.431002056305902
-9.35293984107678 8.688013866860281 -6.170108706416872
-9.346581952366904 8.76380998594486 -5.904811512064045
-9.331782673350471 8.813238494143784 -5.634775843672036
-9.310706954473087 8.84306185224413 -5.361216970421629
-9.284349161596765 8.848701674510263 -5.087790889900109
-9.25213216023895 8.827515598786155 -4.814512111420091
-9.217243795977277 8.787371480819079 -4.544914709840577
-9.177740985000302 8.714479705979793 -4.28167642836483
-9.137451099305455 8.630907142552903 -4.022642630031417
-9.094414767872756 8.51006466608315 -3.7782801005673345
-9.051373157123283 8.388611526400693 -3.5342910821734606
-9.007981383873203 8.226654782450408 -3.3150760214412034
-8.964589610623122 8.06469803850013 -3.095860960708952
-8.922590750862707 7.878737651448406 -2.89726673290532
-8.881123935647095 7.6836087069361785 -2.7065489466397765
-8.8407590850147 7.479694538503835 -2.525967646329065
-8.802512234328908 7.258894978220324 -2.3648688929513986
-8.764265383643117 7.038095417936819 -2.2037701395737357
-8.729170662824233 6.800379334037262 -2.068523168266304
-8.694519651696385 6.5602819949915085 -1.9369152241308005
-8.66095300842115 6.315369877880247 -1.815153467090753
-8.629473530470323 6.061190391030167 -1.7123434156308643
-8.597994052519498 5.807010904180094 -1.6095333641709784
-8.568091749834375 5.54538942711514 -1.527881926727724
-8.538692256135135 5.2813954175649 -1.4529759293682105
-8.509351545307505 5.016490822715295 -1.382002587320367
-8.48035541090553 4.7462485126587595 -1.3340818841362414
-8.451359276503556 4.476006202602231 -1.286161180952117
-8.421424964289832 4.204135495059788 -1.251679400225347
-8.39062787339205 3.930767260478844 -1.2295564876020189
-8.359830782494265 3.657399025897893 -1.2074335749786902
-8.32507583878505 3.383714030662628 -1.2069462970732916
-8.289859108036467 3.109992077012852 -1.2089833817900648
-8.252637891526431 2.8368461768503312 -1.2170943066882598
-8.210158379605819 2.5652114170842837 -1.2411385181004868
-8.167678867685204 2.2935766573182295 -1.265182729512715
-8.118485728634809 2.024703916397268 -1.301894129291451
-8.065896294865286 1.7572284276376635 -1.3450136158053703
-8.012563633193333 1.490091356390139 -1.389034120503158
-7.947327607962943 1.2283743005479149 -1.447485120854104
-7.882091582732551 0.966657244705684 -1.5059361212050513
-7.810134753817168 0.7080447320433597 -1.5693129625669533
-7.730253270203647 0.45309285787744735 -1.6384979767217782
-7.650371786590128 0.19814098371154154 -1.7076829908766014
-7.556646139115005 -0.05063703798649602 -1.7815339868080737
-7.4607683158479166 -0.2984552894913065 -1.8561103434854773
-7.360138828120954 -0.5442992267312546 -1.9305136218404577
-7.247553601970534 -0.7851755604891812 -2.0044814150792014
-7.134968375820115 -1.0260518942471015 -2.0784492083179438
-7.010125957749298 -1.2622525793946986 -2.1471291793309395
-6.880704170858827 -1.4967064109728272 -2.2138335846204216
-6.747785969900814 -1.7298788674725012 -2.2774324265890074
-6.601986296365853 -1.9583304878197854 -2.3295897664982754
-6.456186622830895 -2.1867821081670633 -2.381747106407542
-6.298859859658498 -2.410467038425148 -2.4169740739700467
-6.137871441583293 -2.632637798612186 -2.446822998777635
-5.972016079315866 -2.85184677495712 -2.4653554843840904
-5.798154927238957 -3.0661838197646447 -2.465273202683231
-5.623619338831181 -3.2797157989252783 -2.4625598908317543
-5.440500387324079 -3.4830019321109873 -2.426362191982885
-5.257381435816981 -3.6862880652966914 -2.3901644931340167
-5.070403186018994 -3.876640519294911 -2.3214579060075824
-4.882638257436902 -4.064356574069665 -2.2461247119761607
-4.694732135720639 -4.239398517486082 -2.1471798628688252
-4.506741553299658 -4.406858899779268 -2.034110693632239
-4.319752874947191 -4.5641057998194725 -1.907301474789198
-4.134113696281732 -4.70759580283041 -1.7619853018112877
-3.948948622190991 -4.845749130730071 -1.6116911739300852
-3.765621148034704 -4.963217836802418 -1.4421028015050483
-3.5822936738784126 -5.080686542874767 -1.272514429080007
-3.398923404774396 -5.17274095609203 -1.0880656804441975
-3.2155507624570467 -5.26338600811727 -0.9027928428734775
-3.0297872222715965 -5.336606478003565 -0.712738104512177
-2.8427429998617324 -5.40049348663633 -0.5201219454297744
-2.6533039218980425 -5.45599501764303 -0.327662261461303
-2.4588355880553174 -5.493886838292836 -0.13553117910114865
-2.264367254212588 -5.5317786589426445 0.056599903259010674
-2.0598823775118165 -5.545951642175102 0.24134390280220852
-1.8550793076103975 -5.559371154584314 0.4258532385938307
-1.6432832137188333 -5.559757640297818 0.6022509698402188
-1.4267151428319669 -5.551250505217401 0.7731134147298799
-1.2078921975221075 -5.539198716149537 0.9404947681950118
-0.9797646942769831 -5.512520197517288 1.0935116778989493
-0.7516371910318527 -5.485841678885039 1.2465285876028909
-0.5157711640521794 -5.448683963951103 1.3844850201980408
-0.27751205064276485 -5.408285628024791 1.517784101516538
-0.036891660910058834 -5.365162971864653 1.6454687094358014
0.2094028758550821 -5.315493774150876 1.7596617377112835
0.455697412620223 -5.2658245764370974 1.8738547659867655
0.7065806059019197 -5.211876373869926 1.9751373416066311
0.9587360998534864 -5.156741728011193 2.072840225109032
1.2118152893249199 -5.100958149893773 2.167574207948387
1.4678851585953603 -5.043073502154153 2.25269568206914
1.723955027865801 -4.985188854414531 2.3378171561898937
1.9814969467050902 -4.926431101145237 2.4176428919115547
2.2397809304118894 -4.867233212602702 2.494799029070282
2.498122978700933 -4.807946092152364 2.5716859338616898
2.75709060037019 -4.747697609301039 2.64567219603037
3.0160582220394465 -4.687449126449711 2.71965845819905
3.2746374898222363 -4.626423652705291 2.7943546945771938
3.5328459146240285 -4.564656222644654 2.8697288923751483
3.791054339425834 -4.502888792584014 2.945103090173107
4.047197386925159 -4.438794585155379 3.025409894942543
4.303245416444439 -4.374593333999066 3.1059436250055916
4.557828941281463 -4.309007658202923 3.189807570443317
4.810415322211632 -4.241534043592102 3.278212928021663
5.063001703141815 -4.174060428981278 3.366618285600013
5.311566197230496 -4.10335912348287 3.4634449260174844
5.55973081333098 -4.0323369033019985 3.561108856436506
5.805967644934577 -3.9600766739219604 3.662527146649876
6.049385368407586 -3.8860060337803857 3.7694356491968577
6.292803091880607 -3.811935393638807 3.8763441517438437
6.532329946861306 -3.7362607607928506 3.9906261114080093
6.771427921927983 -3.6604093241678664 4.1057208273143075
7.009306248442467 -3.584618768006774 4.223302291474611
7.245219130996979 -3.5089263197307967 4.344891110316698
7.481132013551505 -3.4332338714548154 4.4664799291587896
7.715578387177631 -3.3596783935041126 4.59213175140528
7.949760516417276 -3.2865079677011257 4.718515670007316
8.183815298969623 -3.214854371152731 4.8459674153622005
8.417566223452125 -3.146820034903428 4.975967069759039
8.65131714793464 -3.0787856986541215 5.105966724155885
8.885351909177524 -3.016626082847162 5.23832037799876
9.11948920835879 -2.9565887493052934 5.371524429971277
9.353706723534872 -2.8985644590158355 5.505400299941732
9.588291773326844 -2.849763554662042 5.642354313745498
9.822876823118817 -2.800962650308248 5.7793083275492645
10.057113597517894 -2.7618371354492 5.9197107238378095
10.291160547285255 -2.7279851118704053 6.061992632571235
10.524784767171672 -2.6971234669774136 6.2054462861570885
10.756136723189144 -2.6823357495466396 6.355198319895159
10.987488679206617 -2.6675480321158656 6.50495035363323
11.21428243893113 -2.6697314314249745 6.661765179885737
11.439335044462673 -2.6783975114200187 6.821277873893438
11.660452422874553 -2.6966999261170237 6.984722157615099
11.87438072804427 -2.732606487627466 7.155348869581076
12.087633304884667 -2.769723336838485 7.326416593761699
12.2850497333129 -2.8352040932827873 7.507819736156567
12.482466161741133 -2.90068484972709 7.689222878551434
12.663554138129129 -2.9889270383022035 7.877203373095388
12.839674917968495 -3.084093368053951 8.067184730967591
13.003572740051473 -3.1931661980578108 8.259713788840545
13.155528362697282 -3.315826099439465 8.4547320266748
13.301667346266681 -3.444156826667448 8.649993406545088
13.42881185413715 -3.5910058704551964 8.846048776799522
13.555956362007628 -3.7378549142429525 9.042104147053967
13.660658617808846 -3.9042199631644405 9.235672439375389
13.763861722542002 -4.07188868873345 9.429074593934514
13.853203836696407 -4.250616605874174 9.618904430319317
13.93377561717639 -4.436342060434897 9.806473936015477
14.0086312359268 -4.626302571928372 9.991742467064945
14.067608960725124 -4.828026883685087 10.170619535948866
14.12658668552345 -5.029751195441803 10.349496604832787
14.166647793779687 -5.244226526894522 10.518303330521421
14.204646245639212 -5.460092221802693 10.686011992094706
14.231839709084099 -5.682282133091249 10.846880007805742
14.24938661268299 -5.910118226444174 11.001640779606543
14.264118061622703 -6.139314067966086 11.154408837811898
14.262004475479337 -6.376645364817044 11.295254370354687
14.259890889335969 -6.613976661668014 11.436099902897482
14.244308384535184 -6.856182634441328 11.567077333876654
14.223987414390937 -7.100103554309221 11.694583093636005
14.19866028813484 -7.345206074941723 11.81853613307827
14.162186944389827 -7.5929394322507315 11.934579032994936
14.125713600644813 -7.840672789559752 12.050621932911607
14.077621770440533 -8.089630969486263 12.159438869546218
14.027439606908157 -8.338809512671562 12.266955751141039
13.973360168900907 -8.58786868645597 12.37268615056404
13.912055757645634 -8.836706566940752 12.475104674987556
13.850751346390355 -9.085544447425542 12.577523199411074
13.782384710695798 -9.333086853154075 12.678543831997773
13.712478058209964 -9.580346762497161 12.779259634722493
13.642571405724132 -9.827606671840247 12.879975437447216
13.572664753238303 -10.074866581183324 12.980691240171934
13.50275810075247 -10.322126490526413 13.081407042896657
13.43285144826664 -10.5693863998695 13.182122845621379
13.362944795780805 -10.81664630921259 13.282838648346102
13.293038143294972 -11.06390621855568 13.383554451070825
13.223131490809143 -11.311166127898758 13.484270253795543
13.153224838323311 -11.558426037241848 13.584986056520266
13.083318185837477 -11.805685946584937 13.685701859244988
13.013411533351645 -12.052945855928026 13.786417661969711
12.943504880865817 -12.300205765271102 13.887133464694429
12.873598228379985 -12.547465674614191 13.987849267419152
12.803691575894153 -12.79472558395728 14.088565070143876
12.733784923408319 -13.04198549330037 14.189280872868599
12.663878270922488 -13.28924540264346 14.289996675593322
12.593971618436658 -13.536505311986536 14.39071247831804
12.524064965950826 -13.783765221329626 14.491428281042761
12.454158313464994 -14.031025130672715 14.592144083767487
12.38425166097916 -14.278285040015803 14.692859886492208
12.314345008493328 -14.525544949358896 14.79357568921693
12.244438356007496 -14.77280485870197 14.894291491941647
12.174531703521666 -15.02006476804506 14.99500729466637
12.104625051035834 -15.26732467738815 15.095723097391094
12.034718398550002 -15.514584586731239 15.196438900115819
11.964811746064168 -15.761844496074328 15.29715470284054
11.894905093578338 -16.009104405417403 15.397870505565258
11.824998441092506 -16.256364314760493 15.49858630828998
11.755091788606673 -16.503624224103582 15.599302111014703
11.685185136120841 -16.75088413344667 15.700017913739426
11.615278483635008 -16.99814404278976 15.800733716464148
11.545371831149179 -17.24540395213284 15.901449519188867
11.475465178663345 -17.49266386147593 16.00216532191359
11.405558526177515 -17.73992377081902 16.102881124638312
11.335651873691681 -17.987183680162104 16.203596927363037
11.265745221205849 -18.234443589505197 16.30431273008776
11.19583856872002 -18.481703498848272 16.405028532812477
11.125931916234189 -18.728963408191362 16.5057443355372
11.056025263748355 -18.97622331753445 16.606460138261923
10.986118611262523 -19.22348322687754 16.707175940986644
10.916211958776694 -19.47074313622062 16.807891743711362
10.846305306290862 -19.718003045563705 16.908607546436084
10.77639865380503 -19.965262954906795 17.00932334916081
10.706492001319198 -20.212522864249884 17.11003915188553
10.636585348833364 -20.459782773592973 17.210754954610255
10.566678696347534 -20.707042682936052 17.311470757334973
10.496772043861702 -20.95430259227914 17.412186560059695
10.42686539137587 -21.201562501622234 17.51290236278442
10.356958738890036 -21.44882241096532 17.61361816550914
10.287052086404204 -21.69608232030841 17.714333968233866
10.217145433918375 -21.943342229651485 17.815049770958584
10.147238781432543 -22.190602138994574 17.915765573683306
10.07733212894671 -22.437862048337664 18.016481376408027
10.007425476460877 -22.685121957680753 18.11719717913275
9.937518823975044 -22.932381867023842 18.217912981857474
9.867612171489215 -23.179641776366918 18.31862878458219
9.797705519003383 -23.426901685710007 18.419344587306913
9.72779886651755 -23.674161595053096 18.520060390031638
9.657892214031717 -23.921421504396186 18.62077619275636
9.587985561545885 -24.168681413739275 18.721491995481085
9.518078909060055 -24.41594132308235 18.822207798205802
9.448172256574225 -24.663201232425443 18.922923600930527
9.37826560408839 -24.91046114176853 19.023639403655245
9.308358951602559 -25.157721051111622 19.12435520637997
9.238452299116728 -25.404980960454697 19.22507100910469
9.168545646630896 -25.652240869797787 19.32578681182941
9.098638994145064 -25.899500779140876 19.42650261455413
9.028732341659232 -26.146760688483965 19.527218417278853
8.9588256891734 -26.39402059782705 19.627934220003578
8.888919036687572 -26.64128050717013 19.728650022728296
8.819012384201738 -26.888540416513223 19.82936582545302
8.749105731715906 -27.13580032585631 19.930081628177746
8.679199079230074 -27.383060235199398 20.030797430902467
8.60929242674424 -27.63032014454249 20.13151323362719
8.53938577425841 -27.877580053885566 20.232229036351907
8.469479121772578 -28.12483996322866 20.332944839076628
8.399572469286746 -28.372099872571745 20.433660641801353
8.329665816800913 -28.619359781914838 20.534376444526075
8.259759164315081 -28.866619691257924 20.635092247250796
8.189852511829248 -29.113879600601013 20.73580804997552
LINES 1 401
400 0 1 2 3 4 5 6 7 8 9 10 11 12 13 14 15 16 17 18 19 20 21 22 23 24 25 26 27 28 29 30 31 32 33 34 35 36 37 38 39 40 41 42 43 44 45 46 47 48 49 50 51 52 53 54 55 56 57 58 59 60 61 62 63 64 65 66 67 68 69 70 71 72 73 74 75 76 77 78 79 80 81 82 83 84 85 86 87 88 89 90 91 92 93 94 95 96 97 98 99 100 101 102 103 104 105 106 107 108 109 110 111 112 113 114 115 116 117 118 119 120 121 122 123 124 125 126 127 128 129 130 131 132 133 134 135 136 137 138 139 140 141 142 143 144 145 146 147 148 149 150 151 152 153 154 155 156 157 158 159 160 161 162 163 164 165 166 167 168 169 170 171 172 173 174 175 176 177 178 179 180 181 182 183 184 185 186 187 188 189 190 191 192 193 194 195 196 197 198 199 200 201 202 203 204 205 206 207 208 209 210 211 212 213 214 215 216 217 218 219 220 221 222 223 224 225 226 227 228 229 230 231 232 233 234 235 236 237 238 239 240 241 242 243 244 245 246 247 248 249 250 251 252 253 254 255 256 257 258 259 260 261 262 263 264 265 266 267 268 269 270 271 272 273 274 275 276 277 278 279 280 281 282 283 284 285 286 287 288 289 290 291 292 293 294 295 296 297 298 299 300 301 302 303 304 305 306 307 308 309 310 311 312 313 314 315 316 317 318 319 320 321 322 323 324 325 326 327 328 329 330 331 332 333 334 335 336 337 338 339 340 341 342 343 344 345 346 347 348 349 350 351 352 353 354 355 356 357 358 359 360 361 362 363 364 365 366 367 368 369 370 371 372 373 374 375 376 377 378 379 380 381 382 383 384 385 386 387 388 389 390 391 392 393 394 395 396 397 398 399

POINT_DATA 400
SCALARS MaximumInscribedSphereRadius float
LOOKUP_TABLE default
1.5
1.5
1.5
1.5
1.5
1.5
1.5
1.5
1.5
1.5
1.5
1.5
1.5
1.5
1.5
1.5
1.5
1.5
1.5
1.5
1.5
1.5
1.5
1.5
1.5
1.5
1.5
1.5
1.5
1.5
1.5
1.5
1.5
1.5
1.5
1.5
1.5
1.5
1.5
1.5
1.5
1.5
1.5
1.5
1.5
1.5
1.5
1.5
1.5
1.5
1.5
1.5
1.5
1.5
1.5
1.5
1.5
1.5
1.5
1.5
1.5
1.5
1.5
1.5
1.5
1.5
1.5
1.5
1.5
1.5
1.5
1.5
1.5
1.5
1.5
1.5
1.5
1.5
1.5
1.5
1.5
1.5
1.5
1.5
1.5
1.5
1.5
1.5
1.5
1.5
1.5
1.5
1.5
1.5
1.5
1.5
1.5
1.5
1.5
1.5
1.5
1.5
1.5
1.5
1.5
1.5
1.5
1.5
1.5
1.5
1.5
1.5
1.5
1.5
1.5
1.5
1.5
1.5
1.5
1.5
1.5
1.5
1.5
1.5
1.5
1.5
1.5
1.5
1.5
1.5
1.5
1.5
1.5
1.5
1.5
1.5
1.5
1.5
1.5
1.5
1.5
1.5
1.5
1.5
1.5
1.5
1.5
1.5
1.5
1.5
1.5
1.5
1.5
1.5
1.5
1.5
1.5
1.5
1.5
1.5
1.5
1.5
1.5
1.5
1.5
1.5
1.5
1.5
1.5
1.5
1.5
1.5
1.5
1.5
1.5
1.5
1.5
1.5
1.5
1.5
1.5
1.5
1.5
1.5
1.5
1.5
1.5
1.5
1.5
1.5
1.5
1.5
1.5
1.5
1.5
1.5
1.5
1.5
1.5
1.5
1.5
1.5
1.5
1.5
1.5
1.5
1.5
1.5
1.5
1.5
1.5
1.5
1.5
1.5
1.5
1.5
1.5
1.5
1.5
1.5
1.5
1.5
1.5
1.5
1.5
1.5
1.5
1.5
1.5
1.5
1.5
1.5
1.5
1.5
1.5
1.5
1.5
1.5
1.5
1.5
1.5
1.5
1.5
1.5
1.5
1.5
1.5
1.5
1.5
1.5
1.5
1.5
1.5
1.5
1.5
1.5
1.5
1.5
1.5
1.5
1.5
1.5
1.5
1.5
1.5
1.5
1.5
1.5
1.5
1.5
1.5
1.5
1.5
1.5
1.5
1.5
1.5
1.5
1.5
1.5
1.5
1.5
1.5
1.5
1.5
1.5
1.5
1.5
1.5
1.5
1.5
1.5
1.5
1.5
1.5
1.5
1.5
1.5
1.5
1.5
1.5
1.5
1.5
1.5
1.5
1.5
1.5
1.5
1.5
1.5
1.5
1.5
1.5
1.5
1.5
1.5
1.5
1.5
1.5
1.5
1.5
1.5
1.5
1.5
1.5
1.5
1.5
1.5
1.5
1.5
1.5
1.5
1.5
1.5
1.5
1.5
1.5
1.5
1.5
1.5
1.5
1.5
1.5
1.5
1.5
1.5
1.5
1.5
1.5
1.5
1.5
1.5
1.5
1.5
1.5
1.5
1.5
1.5
1.5
1.5
1.5
1.5
1.5
1.5
1.5
1.5
1.5
1.5
1.5
1.5
1.5
1.5
1.5
1.5
1.5
1.5
1.5
1.5
1.5
1.5
1.5
1.5
1.5
1.5
1.5
1.5
1.5
1.5
1.5
1.5
1.5
1.5
1.5
1.5
1.5
1.5
1.5
1.5
1.5
1.5
