# vtk DataFile Version 2.0
Vessel Segment
ASCII
DATASET POLYDATA
POINTS 400 float
4.5181242800815715 23.94695152840975 2.246034276307608
4.399548454041949 23.760590225828977 2.137251412998697
4.280972628002327 23.574228923248207 2.028468549689786
4.1623968019627045 23.387867620667436 1.9196856863808747
4.043820975923082 23.201506318086658 1.8109028230719637
3.92524514988346 23.015145015505887 1.7021199597630527
3.8066693238438374 22.828783712925116 1.5933370964541416
3.688093497804215 22.64242241034434 1.4845542331452302
3.569517671764593 22.45606110776357 1.3757713698363192
3.450941845724971 22.269699805182796 1.2669885065274082
3.3323660196853497 22.083338502602025 1.1582056432184973
3.213790193645727 21.896977200021254 1.0494227799095859
3.0952143676061046 21.71061589744048 0.9406399166006748
2.9766385415664827 21.524254594859705 0.8318570532917637
2.8580627155268608 21.337893292278935 0.723074189982853
2.739486889487239 21.151531989698164 0.6142913266739419
2.6209110634476165 20.965170687117393 0.5055084633650311
2.5023352374079946 20.778809384536615 0.3967256000561201
2.383759411368372 20.592448081955844 0.28794273674720894
2.26518358532875 20.406086779375073 0.1791598734382977
2.146607759289128 20.219725476794302 0.07037701012938677
2.028031933249506 20.033364174213528 -0.03840585317952433
1.909456107209884 19.847002871632753 -0.14718871648843504
1.7908802811702624 19.660641569051982 -0.2559715797973458
1.6723044551306407 19.47428026647121 -0.3647544431062565
1.5537286290910186 19.28791896389044 -0.47353730641516756
1.4351528030513956 19.101557661309666 -0.5823201697240791
1.3165769770117735 18.915196358728895 -0.6911030330329903
1.1980011509721515 18.72883505614812 -0.7998858963419011
1.0794253249325296 18.54247375356735 -0.908668759650812
0.9608494988929069 18.356112450986576 -1.0174516229597237
0.8422736728532846 18.169751148405805 -1.1262344862686349
0.7236978468136623 17.983389845825034 -1.235017349577546
0.60512202077404 17.79702854324426 -1.3438002128864572
0.4865461947344182 17.610667240663485 -1.452583076195368
0.3679703686947958 17.424305938082714 -1.5613659395042792
0.2493945426551734 17.237944635501943 -1.6701488028131906
0.13081871661555128 17.05158333292117 -1.7789316661221015
0.012242890575929498 16.865222030340398 -1.8877145294310123
-0.10633293546369228 16.678860727759627 -1.9964973927399232
-0.22490876150331407 16.492499425178853 -2.1052802560488337
-0.34348458754293587 16.30613812259808 -2.2140631193577445
-0.46206041358255867 16.119776820017307 -2.3228459826666565
-0.5806362396221808 15.933415517436533 -2.4316288459755673
-0.6992120656618028 15.747054214855762 -2.5404117092844785
-0.817787891701425 15.56069291227499 -2.649194572593389
-0.9363637177410471 15.374331609694218 -2.7579774359023004
-1.054939543780669 15.187970307113446 -2.8667602992112116
-1.1735153698202914 15.001609004532673 -2.9755431625201227
-1.2920911958599135 14.815247701951902 -3.0843260258290335
-1.4106670218995356 14.62888639937113 -3.1931088891379447
-1.5292428479391584 14.442525096790355 -3.3018917524468563
-1.6694563615924505 14.263136892509635 -3.3947338974244556
-1.8142968301004192 14.085239800015337 -3.484167314751162
-1.967511899648998 13.911297294294044 -3.56592550896549
-2.132837105753718 13.743073339893822 -3.636584905811558
-2.2982396877957574 13.574898192658562 -3.7071568780559985
-2.478986805527939 13.416402065938268 -3.7603915492434767
-2.6597339232601205 13.25790593921797 -3.8136262204309546
-2.8474211334219572 13.104987245726269 -3.857293304171838
-3.0394575208289245 12.955563786041598 -3.8949646271883096
-3.233528964511453 12.808176949239552 -3.9293302159439856
-3.4336232802928963 12.666817621004743 -3.953912284270836
-3.63371759607434 12.525458292769935 -3.9784943525976875
-3.8391722649514697 12.390686435060493 -3.9939843094117453
-4.044954508938181 12.256317142506871 -4.008918640622048
-4.2536818756565244 12.12628624863244 -4.020489213064369
-4.463581502581196 11.99798218674236 -4.030720893750139
-4.675370944779065 11.872989716461046 -4.042374418797067
-4.88839094403953 11.750153595797821 -4.054953780694483
-5.102675187341966 11.630768134958231 -4.0752859507254655
-5.3176541530136054 11.51327886701213 -4.099878413117564
-5.53181234177265 11.400851902108876 -4.145090516486137
-5.7440409176369025 11.290932626485064 -4.2020994484795064
-5.95024403410148 11.186556353407422 -4.287013177339948
-6.143114645003685 11.088179538321743 -4.402414719638198
-6.323833504459817 10.994021841536306 -4.539110553548193
-6.485050403314445 10.90522752726557 -4.7026622403238205
-6.625746942258387 10.819520085151126 -4.884958704473189
-6.757321884398029 10.734860273203054 -5.074895474051143
-6.86948522805083 10.650630549247797 -5.277254587790332
-6.976842565909763 10.565822080307703 -5.4818050095057185
-7.073046636745594 10.479670521568925 -5.691440785678964
-7.165642678068309 10.392552425922537 -5.902217250436879
-7.2501571692583155 10.303269404394703 -6.115548719789203
-7.333094167509627 10.213337702051014 -6.329190240838683
-7.407886677970561 10.120056905169397 -6.544432537523949
-7.4826791884314945 10.026776108287782 -6.759674834209212
-7.548461191586424 9.928686901136315 -6.975695727069376
-7.613325766739216 9.830108113312253 -7.191795894703859
-7.670879931226025 9.727061517459262 -7.407769774661223
-7.723587657546604 9.621052987408577 -7.623659932178589
-7.7713990139367155 9.511968305142986 -7.838974106510612
-7.807772242963011 9.395697601125732 -8.052942759747015
-7.843136695178475 9.278835302512432 -8.26668925662563
-7.857523014536383 9.149670431218565 -8.475815875708994
-7.8719093338942905 9.0205055599247 -8.684942494792352
-7.862519573256453 8.879524167110144 -8.886269944437611
-7.8491614279590385 8.736570518871627 -9.086295661233668
-7.813449818229562 8.585303450830326 -9.276573138930697
-7.768918651653937 8.430756323952536 -9.463004450001291
-7.706706654975028 8.272259847787874 -9.640014632881567
-7.631756549593727 8.110918073058265 -9.810237388119223
-7.546574153316837 7.948932328816795 -9.974273752571722
-7.445612060914684 7.785953488961177 -10.128769793386244
-7.342446558590605 7.623182846684906 -10.281839597287336
-7.2212580248384 7.462115179183552 -10.423243341024659
-7.100069491086199 7.301047511682201 -10.564647084761983
-6.968253931015381 7.142324637183814 -10.698760070555991
-6.83210998907398 6.984556795562927 -10.829903534721037
-6.693638201654803 6.827399676021776 -10.959200155406835
-6.546550651147937 6.672502945669548 -11.081661285494494
-6.399463100641075 6.517606215317321 -11.204122415582152
-6.246950976656027 6.363413870860626 -11.320548004734082
-6.091632287474056 6.2095859614968605 -11.433850926416765
-5.935541667411693 6.055553189561315 -11.545715768002035
-5.773644653703757 5.899979460054049 -11.646763502315661
-5.611747639995819 5.744405730546781 -11.747811236629289
-5.446134575006178 5.585320944926774 -11.836106365293208
-5.278694900158334 5.4245103139881605 -11.918133002638895
-5.10966228101957 5.26028753281953 -11.987615158977338
-4.93825660381342 5.09098156658496 -12.038409416419931
-4.767234440792762 4.918530976653438 -12.07040487817036
-4.596859129017216 4.74077653139997 -12.070693496054275
-4.434743595343234 4.563844824708138 -12.02884579671331
-4.278391584844998 4.387487210045087 -11.957596140336712
-4.15282043382465 4.232384953251235 -11.814074714065999
-4.041586570749341 4.090580860294288 -11.650024750175296
-3.954760450749437 3.9718192269520896 -11.452587741734824
-3.8852793953024785 3.8727207713473772 -11.239730951981825
-3.828327105348677 3.7878255112379193 -11.015736076035452
-3.782438288314164 3.7178083226803555 -10.784823819851088
-3.744906601586436 3.6590297373697043 -10.548686310398397
-3.711290143032822 3.606316521237522 -10.310774975646709
-3.685744448265562 3.5661063214659423 -10.069207117098737
-3.6601987534983027 3.525896121694362 -9.827639258550764
-3.641859625605549 3.49690966965513 -9.583858615768317
-3.624266889697252 3.4690856733994715 -9.339848792511361
-3.6092330361666383 3.443835550350861 -9.09543230272467
-3.5983175858264946 3.4227279575413156 -8.850361301910771
-3.587402135486351 3.4016203647317713 -8.605290301096879
-3.5828499111808374 3.381517459814636 -8.35995105706464
-3.5795648793136534 3.361614631539947 -8.114558394251414
-3.579619138022786 3.340259756825341 -7.869322468250477
-3.5866567042651605 3.3158682829856403 -7.624414318864679
-3.5936942705075348 3.29147680914594 -7.37950616947888
-3.6132318533773082 3.2579807340816505 -7.136415494323378
-3.634197192916364 3.2234447279911054 -6.893532411768016
-3.6649626611556227 3.1802694362332002 -6.653359657534553
-3.702934107479539 3.130741727574403 -6.415179792077071
-3.7471893927408333 3.074889476883964 -6.179836153638103
-3.802919662376469 3.0074879134706523 -5.949671779187918
-3.861728910579346 2.9363869298165852 -5.72163040726428
-3.932524319912842 2.850884466539588 -5.501853675645273
-4.0042315978182295 2.7638608725537495 -5.283059302162818
-4.084470065642213 2.6626060007630077 -5.073455599451809
-4.1647319150605915 2.5612368862121495 -4.863920681030179
-4.247454559396872 2.447844297181466 -4.6616249622489825
-4.33017720373315 2.3344517081507856 -4.459329243467792
-4.408901601041139 2.2135521699980893 -4.259817523076481
-4.487360549531518 2.0921542357347462 -4.060490635957251
-4.557029470754732 1.9669648616145643 -3.860273956330985
-4.6255937161644916 1.8412990029761123 -3.6599454531310736
-4.682248741854874 1.7142840554044567 -3.4568221731377946
-4.737109662990594 1.5870658697822206 -3.253277864572334
-4.778445306447253 1.4587881665621203 -3.0472793603946866
-4.817981788805144 1.3303695240658953 -2.840954393915939
-4.843751742673094 1.1983080139771327 -2.6347897866836196
-4.868415646897975 1.0659538235366406 -2.4286380632576514
-4.880131166455696 0.9242577511203067 -2.2276215419604863
-4.890908851869133 0.7812368451124015 -2.0275796080677395
-4.891973716818951 0.6238442088172972 -1.8382362768596394
-4.891649881058958 0.4630565536754935 -1.6520644783962803
-4.884725493268819 0.2861322332446176 -1.4809671065167846
-4.87641363419343 0.10456881938877362 -1.3153640892679794
-4.8638138750546105 -0.0913314454006019 -1.166741058430346
-4.850170534829391 -0.2909780135298506 -1.0237661430977492
-4.833470162569375 -0.5015988791730438 -0.8973366311460107
-4.816169391866661 -0.7138153446223687 -0.773923333718433
-4.795943340606815 -0.9338059426441734 -0.6652057334749053
-4.775717289346968 -1.1537965406659716 -0.5564881332313809
-4.751576049065218 -1.3784550524225874 -0.45867874763036953
-4.727345757515389 -1.603219736227357 -0.36111747018989704
-4.699495315488797 -1.8288846438244653 -0.26670737744393247
-4.669988618737637 -2.0549614127292086 -0.17373898292896273
-4.638209127564392 -2.2806112008864194 -0.08054429180666006
-4.601605657169133 -2.505354727467893 0.013130711182472249
-4.565002186773875 -2.7300982540493606 0.10680571417160185
-4.5200106473422 -2.951654283061983 0.20429280292262647
-4.474187122456372 -3.1728941544940095 0.3021580001381994
-4.422884407613096 -3.3915806485570767 0.402761711650659
-4.365657824146537 -3.607506538918334 0.5063261890872246
-4.307753062669896 -3.8230898716138904 0.6101671645554497
-4.236994744632826 -4.032180684254499 0.7192486270874661
-4.166236426595758 -4.2412714968951 0.8283300896194792
-4.085737390469638 -4.445210690173421 0.9400350276768379
-3.999529942622429 -4.6461308489122555 1.0532774169058612
-3.9093949051146883 -4.8448419316645 1.1670524874038244
-3.806043055635352 -5.036119207815391 1.2826200944905919
-3.702691206156017 -5.227396483966282 1.3981877015773596
-3.583619220546418 -5.408857854941745 1.5141979424475718
-3.461815069784672 -5.5886132181679935 1.6302851132240086
-3.3303342417754704 -5.761301528749797 1.7459297446425806
-3.1892740374373605 -5.926993847310161 1.8611362865247443
-3.0447153287005535 -6.08956816107271 1.9760171226900025
-2.884423716045977 -6.238120691721996 2.089433248177314
-2.7241321033914003 -6.386673222371282 2.202849373664625
-2.5478655998927295 -6.517320071501413 2.3142578589245595
-2.3695564243930543 -6.645677362934096 2.4254096319151883
-2.1817857220535366 -6.760322078547935 2.535147485811131
-1.987894859566568 -6.8660968557822795 2.6439707503980254
-1.7900002641215915 -6.96417241307786 2.752091527695958
-1.5840093650897868 -7.0466786947349425 2.858791743128997
-1.3776601499924874 -7.128231200640013 2.965423880821067
-1.1633212126737678 -7.1885164398665 3.0705380228322787
-0.9489822753550422 -7.248801679092988 3.1756521648434934
-0.731043620874129 -7.294927871925409 3.280158186707876
-0.511790358164576 -7.335883214365799 3.38444212452704
-0.29163583964750966 -7.370703747518163 3.488772811518106
-0.07009606731173572 -7.396094917860996 3.5931753532127555
0.15145709031641275 -7.42115682083698 3.697611695340681
0.37345213366134117 -7.435348692567363 3.8031638837468775
0.595447177006276 -7.449540564297747 3.908716072153078
0.8169723726741199 -7.459253176813855 4.015694590807161
1.0382381638889877 -7.466492775536581 4.1234605910978726
1.2591255368378609 -7.472911424693975 4.232031225219326
1.47886059975827 -7.476830225133666 4.34305202550804
1.6985956626786727 -7.480749025573359 4.45407282579675
1.9165092304104094 -7.484045021961448 4.568634314500605
2.134091779311533 -7.487227836678704 4.6838392496138
2.350476671443422 -7.490665691490136 4.801237850242256
2.5653812560179583 -7.494418776665171 4.921347828390536
2.780121719761241 -7.498189332589805 5.0417425279594905
2.991974839953736 -7.502267247767967 5.167146272093279
3.2038279601462234 -7.506345162946127 5.292550016227063
3.413577987466156 -7.509478650534712 5.421433389502888
3.6222831101371304 -7.512142906929645 5.5520455883168625
3.8301463371221605 -7.513556927664644 5.6839760434233595
4.035971340975388 -7.511944137258077 5.819097987111972
4.241796344828616 -7.510331346851507 5.954219930800584
4.445529538908175 -7.501608654659824 6.0921923221989145
4.6491037373650155 -7.492345548480229 6.230381372260146
4.851872723738811 -7.476681316346154 6.369067321598752
5.054063798877179 -7.456422912457338 6.5081099020427775
5.256151938779171 -7.432889025074831 6.6466684406009096
5.457934807750588 -7.399641166759249 6.783791475417664
5.659717676722004 -7.366393308443666 6.920914510234419
5.861991781862191 -7.320749807944037 7.053635655293231
6.064298286089024 -7.2742887628278385 7.186066477251316
6.267602501079235 -7.22088223741555 7.314131022719589
6.471477655901908 -7.163501161961136 7.439696967131246
6.676233942255107 -7.10388557283797 7.562665893714893
6.8826773554862894 -7.039991498676864 7.6806622385346355
7.089330575732631 -6.976064577198726 7.798258805644143
7.299378512885996 -6.911606179962292 7.90938689432379
7.509426450039369 -6.847147782725856 8.02051498300344
7.72271865908694 -6.787292076997107 8.127919294352402
7.936901716331517 -6.728700229405007 8.234301089577789
8.153060236181199 -6.676267996835997 8.339715059191347
8.371006889935774 -6.629411276775056 8.44425297993104
8.589558990957412 -6.586947357924885 8.549156525371147
8.809686532885515 -6.555913994794322 8.655011466813493
9.029804381818105 -6.525475851358508 8.761009023285979
9.24964692473696 -6.51194347882015 8.871057213578773
9.469489467655828 -6.498411106281793 8.981105403871577
9.687079855895792 -6.4980154383527715 9.096092112651057
9.904037114845984 -6.501312781626403 9.212467145567999
10.118523763764983 -6.512091315051629 9.33258722990094
10.330577417119533 -6.530237139237379 9.456395348107591
10.541416859591038 -6.550927624194406 9.581702095647794
10.747334751070806 -6.581932361739199 9.713083225147322
10.953252642550584 -6.612937099283992 9.84446435464686
11.15334307447717 -6.654380303013692 9.981733284003692
11.35251489530316 -6.697468973489778 10.119930336199928
11.54802913612835 -6.747113051383482 10.260901100236534
11.740038903296956 -6.803038127258967 10.404529468501456
11.930816987245054 -6.861295055151592 10.548731259840855
12.114802088160602 -6.932412620360013 10.696095595859408
12.298787189076158 -7.0035301855684375 10.843459931877968
12.474855215878351 -7.089567338398757 10.992302951975311
12.649053549239408 -7.179127895800226 11.141495177585202
12.816914897596506 -7.279343299451871 11.29063996419879
12.97818935229601 -7.390633739440824 11.439735440987015
13.135943293525415 -7.506767799444781 11.588427405516555
13.279842259066623 -7.641963919037675 11.735531348133538
13.423741224607838 -7.777160038630577 11.882635290750526
13.546611799084662 -7.935064812369003 12.025925834916409
13.668158991967909 -8.094398711846011 12.168976390140497
13.771463303866984 -8.268688165996906 12.307952630585012
13.86644369432854 -8.449801589578286 12.44506982934821
13.949598439147431 -8.638045402038431 12.57920759794149
14.016096779628498 -8.836332356652447 12.709148843562069
14.079900312197829 -9.035771102693564 12.838355460777887
14.119077357400542 -9.245735488393436 12.960848680333633
14.158254402603253 -9.455699874093295 13.083341899889373
14.180454099384264 -9.670313492736971 13.201432983022922
14.196097623987916 -9.886722513755343 13.317824085475435
14.20661723670235 -10.103802566190154 13.433241898747426
14.204390106205066 -10.322551941856377 13.546238462879483
14.202162975707783 -10.5413013175226 13.659235027011542
14.190695209357678 -10.75931255876176 13.773014830075564
14.177282275113235 -10.977168421581919 13.886959506125407
14.162566959482847 -11.193364674614283 14.003783556593504
14.145883565632344 -11.407053027954213 14.124958739641706
14.129796062373297 -11.61994292661514 14.247484424177715
14.120270066552026 -11.824040831594486 14.384880834454403
14.110744070730753 -12.028138736573831 14.52227724473109
14.123302756665918 -12.21069597963703 14.686833137616931
14.141199001938414 -12.387184389718161 14.855954103535288
14.200028220934973 -12.51597050249636 15.057393258413377
14.283955931232523 -12.602435666905608 15.264712429468975
14.399805468663967 -12.635074408771164 15.479510171953903
14.515655006095413 -12.66771315063672 15.694307914438827
14.631504543526859 -12.700351892502276 15.909105656923753
14.747354080958308 -12.732990634367834 16.123903399408693
14.863203618389752 -12.765629376233388 16.338701141893615
14.979053155821196 -12.798268118098942 16.55349888437854
15.094902693252642 -12.8309068599645 16.768296626863467
15.210752230684086 -12.863545601830056 16.98309436934839
15.32660176811553 -12.896184343695612 17.197892111833315
15.442451305546975 -12.928823085561167 17.412689854318245
15.558300842978426 -12.961461827426723 17.62748759680318
15.674150380409872 -12.994100569292279 17.842285339288107
15.789999917841316 -13.026739311157836 18.057083081773033
15.90584945527276 -13.05937805302339 18.271880824257956
16.021698992704202 -13.092016794888945 18.48667856674288
16.137548530135646 -13.124655536754503 18.701476309227807
16.253398067567087 -13.157294278620055 18.916274051712726
16.36924760499853 -13.189933020485611 19.13107179419765
16.485097142429982 -13.22257176235117 19.345869536682585
16.600946679861426 -13.255210504216723 19.56066727916751
16.71679621729287 -13.287849246082278 19.775465021652433
16.83264575472431 -13.320487987947836 19.990262764137363
16.94849529215576 -13.353126729813392 20.205060506622285
17.064344829587203 -13.385765471678948 20.41985824910721
17.180194367018647 -13.4184042135445 20.634655991592133
17.296043904450098 -13.45104295541006 20.849453734077073
17.41189344188154 -13.483681697275614 21.064251476561992
17.527742979312983 -13.516320439141168 21.279049219046914
17.643592516744427 -13.548959181006726 21.493846961531844
17.75944205417587 -13.581597922872279 21.708644704016763
17.875291591607315 -13.614236664737835 21.92344244650169
17.99114112903876 -13.646875406603389 22.138240188986614
18.10699066647021 -13.679514148468948 22.353037931471555
18.222840203901654 -13.712152890334501 22.56783567395648
18.3386897413331 -13.744791632200059 22.782633416441403
18.454539278764543 -13.777430374065613 22.99743115892633
18.570388816195987 -13.81006911593117 23.212228901411255
18.68623835362743 -13.842707857796727 23.42702664389618
18.802087891058875 -13.875346599662281 23.641824386381103
18.91793742849033 -13.907985341527837 23.856622128866043
19.03378696592177 -13.940624083393395 24.071419871350965
19.149636503353214 -13.97326282525895 24.286217613835895
19.26548604078466 -14.005901567124505 24.50101535632082
19.381335578216103 -14.038540308990061 24.715813098805747
19.497185115647547 -14.071179050855616 24.930610841290672
19.61303465307899 -14.10381779272117 25.14540858377559
19.728884190510442 -14.136456534586728 25.360206326260524
19.844733727941883 -14.169095276452282 25.57500406874545
19.96058326537333 -14.201734018317838 25.789801811230376
20.076432802804774 -14.234372760183394 26.0045995537153
20.19228234023622 -14.26701150204895 26.219397296200228
20.308131877667662 -14.299650243914504 26.434195038685147
20.423981415099107 -14.332288985780062 26.648992781170072
20.53983095253055 -14.364927727645616 26.863790523655
20.655680489962002 -14.397566469511172 27.078588266139935
20.771530027393442 -14.430205211376729 27.29338600862486
20.887379564824887 -14.462843953242285 27.508183751109787
21.003229102256334 -14.495482695107842 27.722981493594713
21.11907863968778 -14.528121436973397 27.937779236079635
21.234928177119222 -14.560760178838951 28.15257697856456
21.350777714550667 -14.593398920704505 28.367374721049483
21.466627251982114 -14.626037662570063 28.582172463534416
21.58247678941356 -14.658676404435617 28.796970206019346
21.698326326845002 -14.691315146301172 29.011767948504268
21.814175864276443 -14.723953888166728 29.226565690989194
21.930025401707887 -14.756592630032285 29.44136343347412
22.04587493913933 -14.789231371897841 29.656161175959042
22.161724476570775 -14.821870113763396 29.870958918443968
22.277574014002226 -14.854508855628954 30.085756660928908
22.39342355143367 -14.887147597494508 30.300554403413834
22.50927308886512 -14.919786339360064 30.51535214589876
22.625122626296562 -14.95242508122562 30.73014988838368
22.740972163728006 -14.985063823091174 30.944947630868604
22.856821701159454 -15.01770256495673 31.15974537335353
22.972671238590895 -15.050341306822284 31.374543115838456
23.088520776022346 -15.082980048687844 31.589340858323393
23.20437031345379 -15.115618790553398 31.80413860080832
23.32021985088523 -15.148257532418956 32.01893634329324
23.43606938831667 -15.180896274284509 32.23373408577817
23.551918925748115 -15.213535016150065 32.448531828263086
23.667768463179563 -15.246173758015619 32.66332957074801
23.783618000611007 -15.278812499881177 32.87812731323294
23.89946753804245 -15.311451241746731 33.09292505571786
24.015317075473902 -15.344089983612289 33.307722798202796
24.13116661290535 -15.376728725477843 33.52252054068773
24.24701615033679 -15.4093674673434 33.737318283172655
24.362865687768235 -15.442006209208955 33.952116025657574
24.47871522519968 -15.47464495107451 34.1669137681425
24.594564762631123 -15.507283692940065 34.381711510627426
LINES 1 401
400 0 1 2 3 4 5 6 7 8 9 10 11 12 13 14 15 16 17 18 19 20 21 22 23 24 25 26 27 28 29 30 31 32 33 34 35 36 37 38 39 40 41 42 43 44 45 46 47 48 49 50 51 52 53 54 55 56 57 58 59 60 61 62 63 64 65 66 67 68 69 70 71 72 73 74 75 76 77 78 79 80 81 82 83 84 85 86 87 88 89 90 91 92 93 94 95 96 97 98 99 100 101 102 103 104 105 106 107 108 109 110 111 112 113 114 115 116 117 118 119 120 121 122 123 124 125 126 127 128 129 130 131 132 133 134 135 136 137 138 139 140 141 142 143 144 145 146 147 148 149 150 151 152 153 154 155 156 157 158 159 160 161 162 163 164 165 166 167 168 169 170 171 172 173 174 175 176 177 178 179 180 181 182 183 184 185 186 187 188 189 190 191 192 193 194 195 196 197 198 199 200 201 202 203 204 205 206 207 208 209 210 211 212 213 214 215 216 217 218 219 220 221 222 223 224 225 226 227 228 229 230 231 232 233 234 235 236 237 238 239 240 241 242 243 244 245 246 247 248 249 250 251 252 253 254 255 256 257 258 259 260 261 262 263 264 265 266 267 268 269 270 271 272 273 274 275 276 277 278 279 280 281 282 283 284 285 286 287 288 289 290 291 292 293 294 295 296 297 298 299 300 301 302 303 304 305 306 307 308 309 310 311 312 313 314 315 316 317 318 319 320 321 322 323 324 325 326 327 328 329 330 331 332 333 334 335 336 337 338 339 340 341 342 343 344 345 346 347 348 349 350 351 352 353 354 355 356 357 358 359 360 361 362 363 364 365 366 367 368 369 370 371 372 373 374 375 376 377 378 379 380 381 382 383 384 385 386 387 388 389 390 391 392 393 394 395 396 397 398 399

POINT_DATA 400
SCALARS MaximumInscribedSphereRadius float
LOOKUP_TABLE default
1.5
1.5
1.5
1.5
1.5
1.5
1.5
1.5
1.5
1.5
1.5
1.5
1.5
1.5
1.5
1.5
1.5
1.5
1.5
1.5
1.5
1.5
1.5
1.5
1.5
1.5
1.5
1.5
1.5
1.5
1.5
1.5
1.5
1.5
1.5
1.5
1.5
1.5
1.5
1.5
1.5
1.5
1.5
1.5
1.5
1.5
1.5
1.5
1.5
1.5
1.5
1.5
1.5
1.5
1.5
1.5
1.5
1.5
1.5
1.5
1.5
1.5
1.5
1.5
1.5
1.5
1.5
1.5
1.5
1.5
1.5
1.5
1.5
1.5
1.5
1.5
1.5
1.5
1.5
1.5
1.5
1.5
1.5
1.5
1.5
1.5
1.5
1.5
1.5
1.5
1.5
1.5
1.5
1.5
1.5
1.5
1.5
1.5
1.5
1.5
1.5
1.5
1.5
1.5
1.5
1.5
1.5
1.5
1.5
1.5
1.5
1.5
1.5
1.5
1.5
1.5
1.5
1.5
1.5
1.5
1.5
1.5
1.5
1.5
1.5
1.5
1.5
1.5
1.5
1.5
1.5
1.5
1.5
1.5
1.5
1.5
1.5
1.5
1.5
1.5
1.5
1.5
1.5
1.5
1.5
1.5
1.5
1.5
1.5
1.5
1.5
1.5
1.5
1.5
1.5
1.5
1.5
1.5
1.5
1.5
1.5
1.5
1.5
1.5
1.5
1.5
1.5
1.5
1.5
1.5
1.5
1.5
1.5
1.5
1.5
1.5
1.5
1.5
1.5
1.5
1.5
1.5
1.5
1.5
1.5
1.5
1.5
1.5
1.5
1.5
1.5
1.5
1.5
1.5
1.5
1.5
1.5
1.5
1.5
1.5
1.5
1.5
1.5
1.5
1.5
1.5
1.5
1.5
1.5
1.5
1.5
1.5
1.5
1.5
1.5
1.5
1.5
1.5
1.5
1.5
1.5
1.5
1.5
1.5
1.5
1.5
1.5
1.5
1.5
1.5
1.5
1.5
1.5
1.5
1.5
1.5
1.5
1.5
1.5
1.5
1.5
1.5
1.5
1.5
1.5
1.5
1.5
1.5
1.5
1.5
1.5
1.5
1.5
1.5
1.5
1.5
1.5
1.5
1.5
1.5
1.5
1.5
1.5
1.5
1.5
1.5
1.5
1.5
1.5
1.5
1.5
1.5
1.5
1.5
1.5
1.5
1.5
1.5
1.5
1.5
1.5
1.5
1.5
1.5
1.5
1.5
1.5
1.5
1.5
1.5
1.5
1.5
1.5
1.5
1.5
1.5
1.5
1.5
1.5
1.5
1.5
1.5
1.5
1.5
1.5
1.5
1.5
1.5
1.5
1.5
1.5
1.5
1.5
1.5
1.5
1.5
1.5
1.5
1.5
1.5
1.5
1.5
1.5
1.5
1.5
1.5
1.5
1.5
1.5
1.5
1.5
1.5
1.5
1.5
1.5
1.5
1.5
1.5
1.5
1.5
1.5
1.5
1.5
1.5
1.5
1.5
1.5
1.5
1.5
1.5
1.5
1.5
1.5
1.5
1.5
1.5
1.5
1.5
1.5
1.5
1.5
1.5
1.5
1.5
1.5
1.5
1.5
1.5
1.5
1.5
1.5
1.5
1.5
1.5
1.5
1.5
1.5
1.5
1.5
1.5
1.5
1.5
1.5
1.5
1.5
1.5
1.5
1.5
1.5
1.5
1.5
1.5
1.5
1.5
1.5
1.5
1.5
1.5
1.5
1.5
