# vtk DataFile Version 2.0
Vessel Segment
ASCII
DATASET POLYDATA
POINTS 400 float
0.8945386291129018 25.60377960465367 -17.19003795946759
0.8461883488519095 25.36277686723915 -17.048141500278184
0.7978380685909172 25.121774129824633 -16.906245041088784
0.7494877883299248 24.880771392410114 -16.764348581899384
0.7011375080689324 24.639768654995592 -16.622452122709987
0.6527872278079402 24.398765917581077 -16.480555663520587
0.604436947546948 24.157763180166555 -16.338659204331186
0.5560866672859553 23.916760442752036 -16.196762745141783
0.5077363870249626 23.675757705337517 -16.054866285952386
0.45938610676397007 23.434754967922995 -15.912969826762982
0.4110358265029779 23.19375223050848 -15.771073367573582
0.36268554624198557 22.95274949309396 -15.629176908384183
0.31433526598099315 22.71174675567944 -15.487280449194781
0.26598498572000073 22.47074401826492 -15.34538399000538
0.21763470545900843 22.229741280850398 -15.20348753081598
0.169284425198016 21.98873854343588 -15.061591071626582
0.12093414493702345 21.74773580602136 -14.919694612437182
0.07258386467603092 21.50673306860684 -14.777798153247781
0.02423358441503856 21.265730331192323 -14.635901694058381
-0.024116695845953787 21.024727593777804 -14.49400523486898
-0.07246697610694625 20.783724856363285 -14.35210877567958
-0.1208172563679387 20.542722118948763 -14.21021231649018
-0.16916753662893125 20.301719381534244 -14.06831585730078
-0.21751781688992383 20.060716644119726 -13.92641939811138
-0.265868097150916 19.819713906705207 -13.784522938921981
-0.3142183774119083 19.57871116929069 -13.642626479732579
-0.3625686576729007 19.337708431876166 -13.500730020543179
-0.41091893793389317 19.096705694461647 -13.358833561353778
-0.45926921819488553 18.85570295704713 -13.216937102164378
-0.507619498455878 18.61470021963261 -13.075040642974978
-0.5559697787168701 18.373697482218088 -12.93314418378558
-0.604320058977863 18.13269474480357 -12.791247724596177
-0.6526703392388553 17.89169200738905 -12.649351265406777
-0.7010206194998478 17.65068926997453 -12.507454806217376
-0.7493708997608406 17.40968653256001 -12.365558347027976
-0.7977211800218327 17.16868379514549 -12.223661887838576
-0.8460714602828251 16.92768105773097 -12.081765428649176
-0.8944217405438175 16.686678320316453 -11.939868969459775
-0.9427720208048104 16.44567558290193 -11.797972510270373
-0.9911223010658026 16.204672845487416 -11.656076051080975
-1.039472581326795 15.963670108072893 -11.514179591891574
-1.0878228615877874 15.722667370658375 -11.372283132702172
-1.1361731418487802 15.481664633243854 -11.230386673512772
-1.1845234221097725 15.240661895829334 -11.088490214323372
-1.232873702370765 14.999659158414815 -10.946593755133971
-1.2906719647180005 14.764744820668975 -10.79889411460042
-1.3611123308071575 14.537977215159826 -10.6434293851922
-1.4326176641989607 14.312030901855296 -10.487372352798614
-1.521939503486766 14.099824500911947 -10.321406312302342
-1.611261342774572 13.887618099968593 -10.15544027180607
-1.7101305741638222 13.683872943380473 -9.98472874664834
-1.81544335439949 13.48583829294158 -9.810814486975138
-1.9213925623331365 13.288425379359186 -9.636630284728124
-2.040184754150864 13.10355899141274 -9.456998695234876
-2.1589769459685906 12.91869260346629 -9.277367105741627
-2.282456151437165 12.738565952346248 -9.096271605953987
-2.4126141870587423 12.565193260056208 -8.913090085313032
-2.542772222680321 12.391820567766171 -8.729908564672074
-2.679851791491338 12.224817969519359 -8.54595892075324
-2.8197696254527376 12.060427511593591 -8.361694297844762
-2.9596874594141385 11.896037053667822 -8.177429674936285
-3.108096927306514 11.736897925941774 -7.995218616676985
-3.2567656592118523 11.577919130249823 -7.813070257235859
-3.407516744109462 11.41906730381094 -7.6325895731351485
-3.5645744705332465 11.260600018113657 -7.4571596323969
-3.7216321969570307 11.102132732416376 -7.281729691658651
-3.8838441612374126 10.939945981350593 -7.1147964087208955
-4.049292105551375 10.775424042037212 -6.953197574009917
-4.215891648671628 10.608706101489473 -6.795443307868661
-4.388983178257066 10.429608493462833 -6.659362290243104
-4.562074707842502 10.250510885436194 -6.52328127261755
-4.73803125487294 10.049208539532021 -6.428928394704567
-4.91420354757733 9.846234100445074 -6.337717789324955
-5.079099965786863 9.616368226552282 -6.317214719577005
-5.234345704470398 9.382673348255977 -6.320791452749889
-5.361776539562989 9.13912891420899 -6.3915174386775195
-5.457188723229436 8.90211334108203 -6.506257729983979
-5.530124799491856 8.669680827288563 -6.651894708407011
-5.562593822966181 8.454525866440392 -6.8319319014251825
-5.584744739783229 8.243776258139135 -7.020740306053074
-5.576049092934406 8.047896384808261 -7.224922175488942
-5.558160549139397 7.856447991841962 -7.433685646921591
-5.52427093205264 7.672119479418546 -7.646066922532337
-5.474202839925974 7.494989784696294 -7.86210611242967
-5.423374233978625 7.318154820863702 -8.078153501753105
-5.345056490220276 7.151973046786061 -8.294497263276531
-5.266738746461925 6.985791272708417 -8.510841024799959
-5.177000638241042 6.823781081154724 -8.725439135546873
-5.07196503384416 6.667358694431373 -8.937698959615984
-4.966929429447281 6.510936307708024 -9.149958783685094
-4.8423658491472334 6.362170645660254 -9.356736175294147
-4.711550451430773 6.215856258896561 -9.561758384138326
-4.579412869598447 6.070137135169961 -9.76625636716603
-4.4245583999327565 5.934645424919889 -9.96174745098103
-4.269703930267061 5.799153714669815 -10.157238534796033
-4.107697252496618 5.6672677082478335 -10.34897516667625
-3.9318291179998095 5.542369796530204 -10.533435420092218
-3.7559609835029972 5.4174718848125725 -10.717895673508188
-3.5692554525435187 5.297856514468088 -10.8947237092998
-3.3761771072455 5.181347485717979 -11.067063701668907
-3.1830987619474835 5.0648384569678715 -11.23940369403801
-2.9771083564973964 4.951989550866468 -11.39868257258071
-2.7704556054597314 4.839328396840085 -11.557291459579853
-2.5599956752703616 4.725562856103918 -11.709673003974558
-2.3426500364772047 4.609799908687775 -11.850791703926824
-2.1253043976840447 4.494036961271628 -11.991910403879091
-1.9004962354558996 4.366810546974434 -12.109220807713358
-1.675018239162021 4.238555175020323 -12.224394185389404
-1.4473231883315612 4.09326982011902 -12.308691618278793
-1.2187476340198096 3.9412210054002577 -12.380726665906963
-1.0002062206773021 3.7634896958314945 -12.394745934044995
-0.7914232723547624 3.576189890803759 -12.379071621704027
-0.6219257624451869 3.37121656536737 -12.280020098913624
-0.5007115947947957 3.173523710285269 -12.126206159789852
-0.4089406316313012 2.9807007087563133 -11.93970291410308
-0.38870653353208395 2.819835643719288 -11.70674865615135
-0.37877965929831053 2.6654072639469177 -11.47036020213501
-0.41594112688655316 2.540384749410401 -11.218282693501752
-0.45778989842582013 2.4188351059963797 -10.965854309620111
-0.5420380563979889 2.3286995987879204 -10.710252055342746
-0.6262862143701554 2.2385640915794633 -10.454649801065386
-0.7463498563174771 2.1783563971228026 -10.205445230778222
-0.8730543932959637 2.1236979076729696 -9.957426916911624
-1.0191639708848224 2.0874564262788557 -9.718536993179335
-1.1853040518848865 2.0702255694998186 -9.489069685631938
-1.3548313955567606 2.056795865250005 -9.262524763725878
-1.5550437754123798 2.077800603852735 -9.06245358118857
-1.755256155268004 2.0988053424554645 -8.862382398651258
-1.9723245715830418 2.1434710719165686 -8.687044799364546
-2.19747150463838 2.1994766979898843 -8.523561153219111
-2.425507811540734 2.2609150097114217 -8.367304623305097
-2.6651969461982756 2.3442633107451183 -8.24019501070632
-2.9048860808558175 2.427611611778815 -8.113085398107541
-3.148870988938231 2.5223983970468433 -8.004617922888936
-3.3952450214356773 2.6235467752697232 -7.906518402671334
-3.641648109244238 2.724797489236928 -7.808620392940341
-3.890549786071123 2.834848486429186 -7.728051121733192
-4.139451462898007 2.9448994836214437 -7.647481850526043
-4.388596138771898 3.0555128007046894 -7.568482193696361
-4.638199001096554 3.1671863991274267 -7.492442120657527
-4.887801863421211 3.2788599975501644 -7.4164020476186945
-5.136716149784385 3.3873813314810417 -7.333947018783013
-5.385354798873026 3.494640812483969 -7.248924080187284
-5.633080878682492 3.6001778633792436 -7.159733168634406
-5.876782130602344 3.698118247486221 -7.052159681441831
-6.120483382522195 3.7960586315931986 -6.944586194249254
-6.353409001183149 3.883146918219667 -6.808670864904453
-6.583810081356112 3.9676927521561933 -6.666115547949223
-6.797773932343345 4.042551823943559 -6.49732236526315
-7.001131073328798 4.111160166011736 -6.311598261329444
-7.180309926671584 4.170674891068586 -6.10203312765086
-7.340116361278055 4.2229035188147135 -5.873365797069467
-7.46600990671555 4.266175151559133 -5.624880776950096
-7.569165002510616 4.303441156803663 -5.36310807929482
-7.630481639889748 4.3317822121822624 -5.089173167509734
-7.671674824173213 4.355830547015979 -4.809388476482134
-7.668468165259634 4.3700473273385825 -4.527264260811895
-7.6492401069804075 4.3807164541141095 -4.244295842641673
-7.588670080572218 4.379563904320703 -3.9681660808512147
-7.5142086144769795 4.37443911724665 -3.694334196664056
-7.4063666246585935 4.355802880275193 -3.433669446323462
-7.284189731568628 4.331364297931789 -3.1786591785673908
-7.1405968926501995 4.294513781108338 -2.9379124731722746
-6.980765681355915 4.248252070606773 -2.707980935077189
-6.812473206572626 4.194886131846507 -2.486663683602104
-6.626804253375401 4.1269305908187635 -2.283037166577986
-6.441135300178179 4.058975049791022 -2.0794106495538727
-6.24181541097791 3.972216838709974 -1.8970776127416533
-6.041754328063774 3.8844377144223734 -1.7159007306191676
-5.839602924599557 3.78924583139826 -1.5412902397149513
-5.634611679499169 3.6839832150131917 -1.3756006347390888
-5.429620434398775 3.5787205986281196 -1.2099110297632216
-5.2265863525639915 3.4609170518091203 -1.0505458887720764
-5.024106142797187 3.3395644545884684 -0.8929705544913165
-4.822285001760876 3.2170032744139863 -0.735561843901366
-4.6287437117511905 3.079258720566675 -0.5802464192974717
-4.435202421741501 2.9415141667193616 -0.42493099469357354
-4.247624154150384 2.7965397677916175 -0.2693254751617678
-4.069434359637047 2.640182348454155 -0.11326321603894263
-3.891244565123706 2.4838249291166883 0.042799043083886476
-3.7317362992645355 2.308647946842042 0.19856837662191293
-3.5764976049549815 2.129169845960869 0.3542707634573347
-3.4353258837859286 1.9370212518988772 0.5066337132233257
-3.31279231082434 1.7280847868850622 0.6545720492214522
-3.202957005817316 1.5093964454157596 0.7956542134369311
-3.1250235792087118 1.2662084495091595 0.9195116065835209
-3.066551324085621 1.0123364303761673 1.0257718042209412
-3.0418689136725447 0.7399140641601718 1.1014785223810768
-3.0446222280164887 0.46149448502340173 1.1392674522442932
-3.067111868579141 0.1787607151132568 1.1497796162867573
-3.1098114832330097 -0.09807565061301314 1.1130432961149839
-3.158126888080442 -0.3732732915970354 1.063177935148134
-3.209663335901374 -0.6385749512298436 0.9780381384339567
-3.2618306442980725 -0.9019384235909165 0.8859896320166238
-3.306679147131175 -1.1602243499671279 0.7779325816129792
-3.3481401756006965 -1.4161601583214705 0.6624660527253489
-3.3832787608116544 -1.6716684903725632 0.5443842972229342
-3.406020753536721 -1.9263386576016137 0.4211747932732932
-3.4287627462617882 -2.1810088248306703 0.297965289323649
-3.432537799510344 -2.4388379906124706 0.1796610936916384
-3.433005720970994 -2.697217968745661 0.06221220215794088
-3.4267682894652025 -2.957554456363944 -0.04982643783934715
-3.4043796197818246 -3.22260360427743 -0.14883336099747724
-3.3819909500984457 -3.4876527521909226 -0.24784028415560977
-3.3439588563643676 -3.757780191797708 -0.3243411275471568
-3.3001483496495956 -4.029783465399992 -0.3925286104463792
-3.2523744625959257 -4.302581375579481 -0.45157259517923676
-3.190029362974535 -4.57830073600859 -0.4770008670603132
-3.127684263353144 -4.854020096437697 -0.5024291389413896
-3.0540614531923707 -5.126771662457619 -0.48760682989174653
-2.9770912466244184 -5.398642341855386 -0.46083753483603884
-2.89602831293209 -5.664598796787043 -0.4116920344553759
-2.8087764704929703 -5.921611925076968 -0.3287098553401868
-2.7211164472475016 -6.177045284925671 -0.2425333838106926
-2.6271807233891877 -6.408190011843965 -0.10724528686871637
-2.5332449995308766 -6.639334738762253 0.02804281007325649
-2.435749528822102 -6.847211056858241 0.1931307687693962
-2.336815692847356 -7.045685450477498 0.37025977641605395
-2.236138646353898 -7.233746695723524 0.5563331534184082
-2.1315607165733805 -7.398505834873534 0.762421864517451
-2.026982786792861 -7.563264974023549 0.9685105756164989
-1.9158345667920598 -7.702739553716743 1.1888869883931368
-1.803338923164933 -7.837028820181601 1.4121934980392925
-1.6878315469571374 -7.964178626196669 1.6377526283602495
-1.5645203863512007 -8.072829176857283 1.8691485870204168
-1.441209225745261 -8.1814797275179 2.10054454568059
-1.3088688852955157 -8.275803574675475 2.3329375284038614
-1.1722230873297088 -8.36329590287514 2.565805930248312
-1.0347469627037658 -8.449742879920846 2.7985110535884274
-0.8833919528498345 -8.518716843771497 3.028486981624269
-0.7320369429959107 -8.587690807622145 3.258462909660099
-0.5741920508809338 -8.648588406248766 3.486038912101503
-0.4082963482623894 -8.699467134985166 3.7106377655891505
-0.24240064564385339 -8.750345863721567 3.935236619076787
-0.06553635363613734 -8.783685554737247 4.154542703511478
0.11293982452229812 -8.814447801106592 4.373070990470786
0.29456519320952007 -8.836862229985638 4.58965697514391
0.48204521933999417 -8.843757238442985 4.802632027282865
0.6695252454704683 -8.850652246900333 5.01560707942182
0.8606266641729542 -8.83270326332672 5.224485605857739
1.052189862653929 -8.811586312484042 5.4328417661889015
1.243134575524389 -8.776001973853942 5.639224406190229
1.4333995024723116 -8.724516333097434 5.843437923231793
1.6231321613522982 -8.670205750162534 6.047221954514334
1.8079112939071331 -8.589604983219976 6.247008997922197
1.9926904264619587 -8.509004216277422 6.44679604133005
2.172588501851471 -8.411187883321388 6.642995519050717
2.3505948516669077 -8.30669940427142 6.837804582865282
2.52716264192668 -8.196908348282541 7.030819811358769
2.7007359200966974 -8.076079424109588 7.220100984119327
2.8743091982667233 -7.9552504999366285 7.409382156879893
3.048416143376612 -7.82698203030137 7.593173581530765
3.222581313821051 -7.69790187459163 7.776366051297132
3.3997402094757656 -7.568351822497904 7.956262404862432
3.5804062699700854 -7.438251284317314 8.132297340950931
3.7612458940737468 -7.308224990308669 8.308199074365643
3.9532953247217755 -7.1829938420544295 8.475497758962362
4.145344755369805 -7.05776269380019 8.642796443559083
4.345236373611416 -6.937534094932435 8.804206376431576
4.550946910191079 -6.821017397369575 8.96124684415328
4.758378297209142 -6.705845931475796 9.116869816076605
4.976956166869959 -6.59938794881991 9.263311227557343
5.195534036530787 -6.492929966164018 9.409752639038087
5.420771979273294 -6.392675394016342 9.550168328288935
5.649084183077944 -6.295284289452894 9.687802570099853
5.878653660968209 -6.1993729502740935 9.824314062876004
6.112760500924184 -6.10880191946508 9.95677367950357
6.346867340880158 -6.018230888656067 10.089233296131134
6.58249830373576 -5.931289806085154 10.221400939079206
6.818685318326477 -5.845673051766639 10.353462060124677
7.054689515633671 -5.761179259453584 10.486541275997546
7.290112207780976 -5.680257384346278 10.62285884758802
7.525534899928292 -5.599335509238966 10.759176419178502
7.7590720461336815 -5.523518230040047 10.901460364069637
7.991970321997192 -5.449430516194367 11.04576586614775
8.224032041200946 -5.3783222400247706 11.192732183323997
8.453756009574182 -5.3155399783820165 11.347134126805855
8.683479977947407 -5.252757716739266 11.501536070287704
8.910698082925864 -5.2034820090211475 11.664112948479664
9.13725651523121 -5.1577619239082235 11.828841891721924
9.362783165472571 -5.119543069933018 11.996461679551517
9.586184208314318 -5.09677774337349 12.170036989250097
9.809585251156065 -5.074012416813964 12.343612298948674
10.029818336773769 -5.074805410962929 12.522369853896766
10.249531339166046 -5.079465972302213 12.70197817753705
10.467343336596507 -5.0953902400575934 12.8826468575649
10.682008587549479 -5.129959397858093 13.065070752752348
10.89667383850244 -5.164528555658589 13.247494647939785
11.104808902371545 -5.2260543484125 13.43008234767792
11.312003665796862 -5.291461704662867 13.612693634105035
11.51516864445411 -5.368104099088774 13.79476320651171
11.711127598984753 -5.464836885636432 13.975864090880291
11.907086553515395 -5.561569672184089 14.156964975248872
12.088562255265906 -5.686008766111679 14.335759508285584
12.267552109392362 -5.815203259908183 14.514158188397168
12.436535556246449 -5.957709011815625 14.690954762177995
12.589990122479527 -6.120872421610999 14.865265037202898
12.743439985036865 -6.28404017331917 15.039574451680707
12.860056168281307 -6.481208700549818 15.207145069177619
12.976672351525746 -6.678377227780455 15.37471568667452
13.059834182445519 -6.895774410729944 15.534862259698443
13.127566657728782 -7.122501175675383 15.69158481717654
13.171962205685045 -7.357062886076952 15.842097722393532
13.183396507746385 -7.602690730427295 15.983840069591803
13.187470892542379 -7.8490039608908 16.123420984728703
13.143765419425291 -8.099766650488396 16.248970095830625
13.100059946308201 -8.350529340086005 16.374519206932554
13.0198831162662 -8.596313254684809 16.489893037164645
12.929566297467927 -8.840712939938598 16.602437873843673
12.827426395146908 -9.080658906205981 16.712982114860814
12.70158454428615 -9.311676421784279 16.81951572571237
12.575742693425395 -9.542693937362577 16.926049336563924
12.429871139096456 -9.759888095522982 17.035386789407042
12.279053938652863 -9.973669051185732 17.14541655455892
12.124369038129329 -10.182167918012691 17.25935316355833
11.958110422983264 -10.374860650048216 17.384980621080516
11.791851807837192 -10.567553382083752 17.510608078602708
11.622221045936982 -10.738409486385153 17.659824962206258
11.45154897239359 -10.902522487148822 17.816326209695966
11.286637542567622 -11.047924872963748 17.99279853744266
11.12964072605531 -11.167620534071515 18.196709357386265
10.983482971863326 -11.270658840898662 18.413138572922367
10.871396524354942 -11.321336730425834 18.668917880082116
10.75931007684656 -11.372014619953008 18.924697187241865
10.647223629338182 -11.422692509480179 19.180476494401603
10.535137181829798 -11.473370399007353 19.43625580156136
10.423050734321414 -11.524048288534527 19.692035108721115
10.31096428681303 -11.574726178061699 19.947814415880863
10.198877839304652 -11.625404067588871 20.203593723040605
10.086791391796268 -11.676081957116043 20.45937303020036
9.974704944287883 -11.726759846643215 20.71515233736011
9.862618496779506 -11.777437736170388 20.97093164451985
9.750532049271122 -11.828115625697563 21.226710951679607
9.638445601762738 -11.878793515224736 21.482490258839363
9.52635915425436 -11.929471404751908 21.7382695659991
9.414272706745976 -11.980149294279082 21.994048873158853
9.302186259237592 -12.030827183806256 22.24982818031861
9.190099811729214 -12.081505073333426 22.505607487478347
9.07801336422083 -12.132182962860599 22.7613867946381
8.965926916712448 -12.182860852387773 23.017166101797855
8.85384046920407 -12.233538741914943 23.272945408957597
8.741754021695685 -12.284216631442117 23.52872471611735
8.629667574187302 -12.334894520969291 23.784504023277105
8.517581126678923 -12.385572410496462 24.040283330436843
8.40549467917054 -12.436250300023634 24.296062637596595
8.293408231662156 -12.48692818955081 24.55184194475635
8.181321784153772 -12.537606079077982 24.807621251916103
8.069235336645393 -12.588283968605154 25.06340055907584
7.9571488891370095 -12.638961858132328 25.319179866235594
7.845062441628627 -12.6896397476595 25.574959173395342
7.7329759941202525 -12.740317637186669 25.830738480555077
7.6208895466118705 -12.790995526713843 26.086517787714833
7.508803099103485 -12.841673416241015 26.342297094874585
7.396716651595107 -12.892351305768187 26.598076402034323
7.284630204086723 -12.943029195295361 26.85385570919408
7.172543756578339 -12.993707084822535 27.10963501635383
7.060457309069961 -13.044384974349708 27.36541432351357
6.948370861561578 -13.09506286387688 27.621193630673318
6.836284414053196 -13.145740753404052 27.876972937833067
6.72419796654482 -13.196418642931222 28.132752244992805
6.6121115190364375 -13.247096532458396 28.388531552152557
6.500025071528054 -13.29777442198557 28.64431085931231
6.387938624019677 -13.34845231151274 28.900090166472044
6.275852176511297 -13.399130201039913 29.155869473631796
6.163765729002913 -13.449808090567085 29.411648780791545
6.051679281494529 -13.500485980094258 29.667428087951297
5.939592833986152 -13.551163869621426 29.92320739511103
5.827506386477772 -13.6018417591486 30.178986702270784
5.715419938969388 -13.652519648675773 30.434766009430533
5.603333491461011 -13.703197538202943 30.690545316590274
5.491247043952628 -13.753875427730119 30.946324623750023
5.379160596444244 -13.804553317257291 31.20210393090978
5.2670741489358655 -13.855231206784461 31.457883238069517
5.154987701427482 -13.905909096311637 31.71366254522927
5.042901253919098 -13.95658698583881 31.969441852389025
4.930814806410719 -14.007264875365982 32.22522115954877
4.818728358902336 -14.057942764893156 32.481000466708515
4.706641911393955 -14.108620654420328 32.736779773868264
4.5945554638855794 -14.159298543947498 32.992559081028
4.482469016377198 -14.209976433474669 33.24833838818775
4.370382568868818 -14.260654323001841 33.504117695347496
4.258296121360439 -14.311332212529013 33.75989700250723
4.146209673852055 -14.362010102056187 34.01567630966699
4.034123226343671 -14.412687991583361 34.271455616826735
3.922036778835293 -14.463365881110533 34.52723492398648
3.8099503313269105 -14.514043770637702 34.783014231146225
3.69786388381853 -14.564721660164876 35.038793538305974
3.5857774363101473 -14.61539954969205 35.29457284546572
3.4736909888017693 -14.666077439219222 35.550352152625464
3.3616045412933873 -14.716755328746395 35.80613145978522
3.2495180937850057 -14.767433218273567 36.06191076694496
3.1374316462766285 -14.818111107800737 36.3176900741047
3.0253451987682443 -14.868788997327911 36.57346938126446
2.913258751259862 -14.919466886855085 36.82924868842421
2.801172303751486 -14.970144776382254 37.08502799558394
2.6890858562431044 -15.020822665909426 37.34080730274369
2.576999408734723 -15.071500555436598 37.59658660990344
2.464912961226347 -15.12217844496377 37.852365917063175
2.3528265137179636 -15.172856334490941 38.10814522422292
2.2407400662095807 -15.223534224018115 38.36392453138268
LINES 1 401
400 0 1 2 3 4 5 6 7 8 9 10 11 12 13 14 15 16 17 18 19 20 21 22 23 24 25 26 27 28 29 30 31 32 33 34 35 36 37 38 39 40 41 42 43 44 45 46 47 48 49 50 51 52 53 54 55 56 57 58 59 60 61 62 63 64 65 66 67 68 69 70 71 72 73 74 75 76 77 78 79 80 81 82 83 84 85 86 87 88 89 90 91 92 93 94 95 96 97 98 99 100 101 102 103 104 105 106 107 108 109 110 111 112 113 114 115 116 117 118 119 120 121 122 123 124 125 126 127 128 129 130 131 132 133 134 135 136 137 138 139 140 141 142 143 144 145 146 147 148 149 150 151 152 153 154 155 156 157 158 159 160 161 162 163 164 165 166 167 168 169 170 171 172 173 174 175 176 177 178 179 180 181 182 183 184 185 186 187 188 189 190 191 192 193 194 195 196 197 198 199 200 201 202 203 204 205 206 207 208 209 210 211 212 213 214 215 216 217 218 219 220 221 222 223 224 225 226 227 228 229 230 231 232 233 234 235 236 237 238 239 240 241 242 243 244 245 246 247 248 249 250 251 252 253 254 255 256 257 258 259 260 261 262 263 264 265 266 267 268 269 270 271 272 273 274 275 276 277 278 279 280 281 282 283 284 285 286 287 288 289 290 291 292 293 294 295 296 297 298 299 300 301 302 303 304 305 306 307 308 309 310 311 312 313 314 315 316 317 318 319 320 321 322 323 324 325 326 327 328 329 330 331 332 333 334 335 336 337 338 339 340 341 342 343 344 345 346 347 348 349 350 351 352 353 354 355 356 357 358 359 360 361 362 363 364 365 366 367 368 369 370 371 372 373 374 375 376 377 378 379 380 381 382 383 384 385 386 387 388 389 390 391 392 393 394 395 396 397 398 399

POINT_DATA 400
SCALARS MaximumInscribedSphereRadius float
LOOKUP_TABLE default
1.5
1.5
1.5
1.5
1.5
1.5
1.5
1.5
1.5
1.5
1.5
1.5
1.5
1.5
1.5
1.5
1.5
1.5
1.5
1.5
1.5
1.5
1.5
1.5
1.5
1.5
1.5
1.5
1.5
1.5
1.5
1.5
1.5
1.5
1.5
1.5
1.5
1.5
1.5
1.5
1.5
1.5
1.5
1.5
1.5
1.5
1.5
1.5
1.5
1.5
1.5
1.5
1.5
1.5
1.5
1.5
1.5
1.5
1.5
1.5
1.5
1.5
1.5
1.5
1.5
1.5
1.5
1.5
1.5
1.5
1.5
1.5
1.5
1.5
1.5
1.5
1.5
1.5
1.5
1.5
1.5
1.5
1.5
1.5
1.5
1.5
1.5
1.5
1.5
1.5
1.5
1.5
1.5
1.5
1.5
1.5
1.5
1.5
1.5
1.5
1.5
1.5
1.5
1.5
1.5
1.5
1.5
1.5
1.5
1.5
1.5
1.5
1.5
1.5
1.5
1.5
1.5
1.5
1.5
1.5
1.5
1.5
1.5
1.5
1.5
1.5
1.5
1.5
1.5
1.5
1.5
1.5
1.5
1.5
1.5
1.5
1.5
1.5
1.5
1.5
1.5
1.5
1.5
1.5
1.5
1.5
1.5
1.5
1.5
1.5
1.5
1.5
1.5
1.5
1.5
1.5
1.5
1.5
1.5
1.5
1.5
1.5
1.5
1.5
1.5
1.5
1.5
1.5
1.5
1.5
1.5
1.5
1.5
1.5
1.5
1.5
1.5
1.5
1.5
1.5
1.5
1.5
1.5
1.5
1.5
1.5
1.5
1.5
1.5
1.5
1.5
1.5
1.5
1.5
1.5
1.5
1.5
1.5
1.5
1.5
1.5
1.5
1.5
1.5
1.5
1.5
1.5
1.5
1.5
1.5
1.5
1.5
1.5
1.5
1.5
1.5
1.5
1.5
1.5
1.5
1.5
1.5
1.5
1.5
1.5
1.5
1.5
1.5
1.5
1.5
1.5
1.5
1.5
1.5
1.5
1.5
1.5
1.5
1.5
1.5
1.5
1.5
1.5
1.5
1.5
1.5
1.5
1.5
1.5
1.5
1.5
1.5
1.5
1.5
1.5
1.5
1.5
1.5
1.5
1.5
1.5
1.5
1.5
1.5
1.5
1.5
1.5
1.5
1.5
1.5
1.5
1.5
1.5
1.5
1.5
1.5
1.5
1.5
1.5
1.5
1.5
1.5
1.5
1.5
1.5
1.5
1.5
1.5
1.5
1.5
1.5
1.5
1.5
1.5
1.5
1.5
1.5
1.5
1.5
1.5
1.5
1.5
1.5
1.5
1.5
1.5
1.5
1.5
1.5
1.5
1.5
1.5
1.5
1.5
1.5
1.5
1.5
1.5
1.5
1.5
1.5
1.5
1.5
1.5
1.5
1.5
1.5
1.5
1.5
1.5
1.5
1.5
1.5
1.5
1.5
1.5
1.5
1.5
1.5
1.5
1.5
1.5
1.5
1.5
1.5
1.5
1.5
1.5
1.5
1.5
1.5
1.5
1.5
1.5
1.5
1.5
1.5
1.5
1.5
1.5
1.5
1.5
1.5
1.5
1.5
1.5
1.5
1.5
1.5
1.5
1.5
1.5
1.5
1.5
1.5
1.5
1.5
1.5
1.5
1.5
1.5
1.5
1.5
1.5
1.5
1.5
1.5
1.5
1.5
1.5
1.5
1.5
1.5
1.5
1.5
1.5
1.5
1.5
1.5
1.5
