# vtk DataFile Version 2.0
Vessel Segment
ASCII
DATASET POLYDATA
POINTS 400 float
4.033832737004029 28.270074704640805 -9.36217359843415
3.876518552954698 28.03749569437991 -9.289662632104044
3.719204368905367 27.804916684119014 -9.217151665773939
3.5618901848560354 27.572337673858115 -9.144640699443833
3.404576000806704 27.339758663597227 -9.07212973311373
3.2472618167573732 27.10717965333633 -8.999618766783623
3.0899476327080424 26.874600643075432 -8.927107800453516
2.932633448658711 26.642021632814533 -8.85459683412341
2.7753192646093807 26.40944262255364 -8.782085867793306
2.61800508056005 26.17686361229275 -8.7095749014632
2.460690896510719 25.94428460203185 -8.637063935133096
2.3033767124613878 25.711705591770958 -8.564552968802989
2.146062528412056 25.47912658151006 -8.492042002472884
1.9887483443627247 25.246547571249167 -8.419531036142779
1.8314341603133935 25.013968560988268 -8.347020069812672
1.6741199762640626 24.781389550727372 -8.274509103482565
1.5168057922147316 24.548810540466476 -8.201998137152462
1.3594916081654 24.316231530205584 -8.129487170822355
1.2021774241160694 24.08365251994469 -8.05697620449225
1.0448632400667384 23.851073509683793 -7.984465238162144
0.8875490560174077 23.618494499422898 -7.911954271832039
0.7302348719680765 23.385915489162002 -7.839443305501934
0.5729206879187452 23.153336478901103 -7.766932339171827
0.41560650386941433 22.92075746864021 -7.694421372841721
0.2582923198200832 22.688178458379312 -7.621910406511616
0.1009781357707521 22.455599448118416 -7.54939944018151
-0.056336048278578334 22.22302043785752 -7.476888473851405
-0.21365023232790933 21.99044142759663 -7.404377507521299
-0.37096441637724087 21.75786241733573 -7.331866541191194
-0.528278600426572 21.525283407074834 -7.259355574861089
-0.6855927844759033 21.292704396813946 -7.186844608530983
-0.8429069685252354 21.060125386553047 -7.114333642200876
-1.0002211525745663 20.827546376292155 -7.041822675870771
-1.1575353366238972 20.594967366031256 -6.969311709540666
-1.3148495206732291 20.362388355770356 -6.896800743210559
-1.47216370472256 20.129809345509464 -6.824289776880454
-1.6294778887718908 19.89723033524857 -6.751778810550348
-1.7867920728212223 19.66465132498767 -6.679267844220242
-1.9441062568705534 19.432072314726774 -6.606756877890136
-2.1014204409198842 19.199493304465882 -6.534245911560031
-2.258734624969215 18.966914294204983 -6.461734945229924
-2.416048809018547 18.73433528394409 -6.389223978899819
-2.5733629930678776 18.501756273683192 -6.316713012569714
-2.7306771771172085 18.2691772634223 -6.244202046239609
-2.8888918914019177 18.03804424332456 -6.169463100440285
-3.053782379249925 17.81763057780789 -6.078207789219942
-3.2186728670979314 17.59721691229122 -5.9869524779996
-3.385289706720865 17.380509446601742 -5.890372374996765
-3.553728884882518 17.16771424889577 -5.788171416837498
-3.7221680630441716 16.954919051189798 -5.685970458678231
-3.8912358298308973 16.744482424320037 -5.5800205075781415
-4.060483034532428 16.534719078855463 -5.473000362953877
-4.2296467527929495 16.324860418175472 -5.36603653137391
-4.397479757177603 16.113482501455728 -5.259970289253177
-4.565312761562255 15.902104584735987 -5.153904047132444
-4.731686300742081 15.688139109732223 -5.0509004376864075
-4.89585794838375 15.47026979195698 -4.952517414567881
-5.060029596025416 15.25240047418174 -4.854134391449355
-5.218677712812294 15.024731372591265 -4.770219968393299
-5.376429371139019 14.795471784889681 -4.688653771367575
-5.529095133837537 14.55885832283924 -4.621518541573365
-5.6764899606963946 14.314623430327103 -4.569339321092389
-5.819092714266083 14.06611979908127 -4.530550626868063
-5.950732518430183 13.807850464362389 -4.522395784216417
-6.0768844273245906 13.548067254102811 -4.528507307444854
-6.1876936949117995 13.284051665442563 -4.574503654216521
-6.292435761732971 13.021745993959804 -4.635136772195697
-6.3817202058699545 12.763796739145961 -4.733060511561105
-6.466823343349744 12.509081990467498 -4.840805675303275
-6.539577364275072 12.263920067385602 -4.977557540611037
-6.611394383504278 12.019934344646982 -5.116633982491641
-6.6747014676955185 11.786630980920467 -5.276822441252774
-6.73800855188676 11.553327617193954 -5.437010900013906
-6.798095402389595 11.325410357605403 -5.605868189904312
-6.857364108118539 11.098861512044685 -5.776927915881798
-6.9159322269518775 10.872619680258552 -5.948629158033709
-6.973318523913474 10.646895750814021 -6.121412575502882
-7.03070482087507 10.421171821369489 -6.294195992972055
-7.085314571558337 10.191771790962193 -6.462976079801555
-7.139531335966984 9.961851453281879 -6.631189543986794
-7.190919544105566 9.729204378652971 -6.796390940921639
-7.237497625336188 9.491920326882692 -6.956470139693761
-7.284075706566809 9.254636275112414 -7.116549338465883
-7.31716017206087 9.010145845192827 -7.268863270788376
-7.348919497509032 8.764947713167446 -7.420414615399737
-7.367919659233032 8.517044283874148 -7.569168156331922
-7.375887728546923 8.266801744424289 -7.715502602298219
-7.375291882340506 8.017067834190206 -7.8622155213567515
-7.350711507824936 7.768758416268762 -8.009988411006235
-7.323261529773276 7.521399947700358 -8.158456028743366
-7.261142765352469 7.285530264796474 -8.315316924280857
-7.19902400093166 7.0496605818925895 -8.47217781981835
-7.104427803816771 6.834621840538782 -8.641821094705614
-7.007282967211276 6.621217789979686 -8.812467456170001
-6.891149697230289 6.4270421276629595 -8.993073160385133
-6.768399637217205 6.239566871069001 -9.177149339417026
-6.639014908928221 6.061569232600065 -9.365542059091144
-6.501658448771171 5.894959206487742 -9.559121218111805
-6.364000861217007 5.728845748129614 -9.752893954094432
-6.220378181861239 5.572568898023809 -9.950501294167744
-6.076755502505471 5.416292047918003 -10.148108634241055
-5.932388432626583 5.25883203698668 -10.344220731843265
-5.787465607214799 5.100488688405747 -10.539216494335717
-5.642764789398515 4.940054604416773 -10.732544215853384
-5.499468200842198 4.766396324975323 -10.915321343647662
-5.3561716122858805 4.592738045533873 -11.098098471441945
-5.217045175735876 4.393115332554122 -11.255279624266661
-5.078498670046456 4.18988182163138 -11.408901219605454
-4.951514610131604 3.948431647084652 -11.505088340731783
-4.836396283081536 3.694445168145469 -11.559048975738044
-4.744667936508104 3.420591487723014 -11.532806626202444
-4.712113292035928 3.1833143536412267 -11.37119353238254
-4.7144234931927045 2.9986479215097783 -11.156274697151055
-4.737114320586469 2.8456749286205114 -10.911002734328084
-4.792666950997377 2.7659327517060674 -10.63777447951072
-4.849114827265617 2.688510223082203 -10.36433063830941
-4.926610910855402 2.6656251578080847 -10.08581812589603
-5.004106994445186 2.642740092533966 -9.80730561348265
-5.096031725450784 2.657082808463737 -9.533456867429745
-5.191971001682714 2.6817835716180425 -9.26090574134354
-5.29386500509403 2.7208609356474205 -8.993243481309875
-5.407981414624584 2.7894470662778286 -8.735615888618067
-5.522097824155136 2.8580331969082344 -8.477988295926263
-5.650037402896753 2.959192706057769 -8.239189228811163
-5.782036402343515 3.0699179700047745 -8.005919494760445
-5.916694981821474 3.1875560861561696 -7.778512359331153
-6.063661002525333 3.337184035743983 -7.5782349162283715
-6.210627023229194 3.4868119853318005 -7.377957473125585
-6.362360354748658 3.6544962015921243 -7.198119640002108
-6.517924422313833 3.8366893924649146 -7.034705898727582
-6.67348848987901 4.01888258333771 -6.871292157453051
-6.829434116568201 4.223030072475186 -6.7373639699107315
-6.985426775185772 4.429883703121598 -6.607070245192348
-7.139971530116412 4.640113650861081 -6.481059938360126
-7.288183373952683 4.865111097412608 -6.373784651610972
-7.436395217788956 5.090108543964138 -6.26650936486182
-7.576979789399632 5.321702292525264 -6.163706165021614
-7.70939060337207 5.560364960660811 -6.065695472050145
-7.841801417344508 5.799027628796358 -5.967684779078676
-7.952366309167759 6.04611151649801 -5.864090564168022
-8.059470145123571 6.294529580490828 -5.759611750235338
-8.150156126869327 6.54397627014911 -5.644948211413184
-8.21876948194551 6.794805873189749 -5.51659204093884
-8.273359418650761 7.041765298914073 -5.378085430970736
-8.285812664065935 7.277095857660196 -5.209079414645765
-8.273815689824906 7.495092041585561 -5.024055855866532
-8.215270513711335 7.6800871322758955 -4.808538182508928
-8.11637945035069 7.809967809664661 -4.575127349130623
-7.993457221929768 7.907020765230404 -4.331058837578719
-7.837805776408516 7.9114510827647955 -4.087658794149632
-7.679356014981427 7.8974553211180245 -3.8471625867503842
-7.516689072651726 7.811347022131835 -3.623056773630813
-7.3568302597214785 7.712669360929702 -3.4039824263701797
-7.208910994726249 7.56054953900684 -3.2063007641538848
-7.062735263682021 7.4051297869276995 -3.010518732427111
-6.940949968711614 7.203547047613163 -2.8413107837527445
-6.819164673741207 7.001964308298627 -2.6721028350783773
-6.722101551829821 6.772517859161857 -2.525270376317468
-6.631216832180128 6.536107895637677 -2.3840298522605883
-6.5526985411368655 6.29037265552057 -2.253453856830273
-6.4915805999937835 6.031516159396817 -2.13788353001524
-6.430462658850699 5.772659663273058 -2.022313203200205
-6.392051968838422 5.501188678192156 -1.9282025291376033
-6.355039262219454 5.228941075722579 -1.835413029443542
-6.3246309710677675 4.953412932142191 -1.7512850039618884
-6.303442324929149 4.673305212270428 -1.6792482404433666
-6.282253678790532 4.393197492398663 -1.6072114769248451
-6.266927783704357 4.108701227470435 -1.5535853752956972
-6.252345920946821 3.8236480193310003 -1.5022957412250064
-6.23685238460786 3.537389172345803 -1.4600361814026177
-6.219960877548654 3.249281584934301 -1.431623440944068
-6.203069370489447 2.9611739975228053 -1.4032107004855192
-6.176852675496165 2.672436775023787 -1.399420047929452
-6.15026328430479 2.3836743881414852 -1.3966134568866964
-6.115432764651665 2.096429119668992 -1.409130764663653
-6.074688413975389 1.8102725348590976 -1.4326444970997132
-6.030591769558197 1.5253129980500895 -1.461241332515169
-5.974798874587908 1.2445299966000436 -1.5075732623552494
-5.919005979617618 0.9637469951499981 -1.55390519219533
-5.852120523385148 0.6879499517524867 -1.613080388632293
-5.783135664345061 0.41309656186175603 -1.674686330261024
-5.709944690556039 0.13992903398881998 -1.7385871518628782
-5.6305820069283055 -0.13076479741529468 -1.8058552932251768
-5.551219323300574 -0.40145862881940264 -1.8731234345874732
-5.464567879404519 -0.6708127775507504 -1.9366170388907897
-5.377176599234744 -0.9400309435086166 -1.9997275136453339
-5.287346824359919 -1.2094217799434488 -2.0581011599856205
-5.193200668362374 -1.479118260506075 -2.1080901431537855
-5.099054512364828 -1.7488147410687085 -2.158079126321952
-4.999683270454001 -2.019017637453769 -2.19177194270379
-4.898901420641511 -2.2893572500904873 -2.2210653095804695
-4.79654114911277 -2.5594135421070616 -2.2448676888321777
-4.688199108781163 -2.8283961296570865 -2.2478607887044673
-4.579857068449558 -3.0973787172071123 -2.2508538885767564
-4.4656002830226065 -3.3630216726138937 -2.2349716466610827
-4.34802833775228 -3.626792795136156 -2.208509950497278
-4.229423052486351 -3.8896366117782177 -2.1793271196359667
-4.1005349830860895 -4.143252791598728 -2.1230662304259957
-3.97164691368583 -4.396868971419232 -2.066805341216026
-3.835238704433892 -4.641960174285323 -1.9951367878774908
-3.692978255392685 -4.88041716418209 -1.9114778531296646
-3.549919533878864 -5.117851020469364 -1.8266155103016193
-3.3925027570510013 -5.336882377030576 -1.7201081773557048
-3.235085980223135 -5.555913733591793 -1.6136008444097878
-3.068535976922731 -5.762360763368351 -1.497502464969194
-2.894858354484091 -5.9589869167326395 -1.3739191811788944
-2.719722295355916 -6.153475766325995 -1.249334787122197
-2.529662253487496 -6.326093879385427 -1.1145061689287856
-2.3396022116190744 -6.498711992444857 -0.9796775507353744
-2.139972924455189 -6.655985385114438 -0.8407039566116989
-1.934834793297878 -6.804425095697235 -0.6993441737081061
-1.727284425001235 -6.948295118299806 -0.5571755416403011
-1.5099520118321061 -7.073634254304651 -0.41172688428377574
-1.292619598662983 -7.198973390309493 -0.2662782269272539
-1.069246433008444 -7.30801401802413 -0.11720057009406451
-0.844167930522838 -7.4124534894183025 0.03290157275844581
-0.618273138863617 -7.509843113260338 0.18616416656903978
-0.3910803702189812 -7.5960228127654315 0.34445217629803315
-0.1640044185172589 -7.681759599056227 0.5031089506981999
0.058905538232633364 -7.751700952178211 0.6749168290402463
0.28181549498252567 -7.821642305300195 0.8467247073822927
0.49700725353902486 -7.880522923049673 1.0316116059376148
0.709115780008576 -7.9349850465662675 1.221723254334413
0.9140738152673658 -7.982159988319854 1.4208202697367844
1.1103069661200347 -8.020443258626752 1.6308810477897357
1.3027104210112574 -8.054737850784788 1.8447660510091342
1.4818469620023003 -8.07521477958019 2.0718990160847546
1.6607696048528195 -8.095370356356614 2.299206100009022
1.827146115641634 -8.096677125665563 2.5367260734152177
1.9935226264304566 -8.097983894974513 2.774246046821426
2.1570161821414175 -8.083278470889478 3.0131835632583615
2.319849726261251 -8.0649072826999 3.25244560602538
2.4873638405718315 -8.035092736671128 3.4870445215433072
2.657881724565308 -7.997934382100431 3.7186508614374376
2.835228921772039 -7.954380665167002 3.9434814816905037
3.022853378194008 -7.901202730581703 4.158115494327783
3.2141094187659687 -7.846115665689888 4.368638314491628
3.423157127027146 -7.781675489156964 4.559019794878575
3.632204835288324 -7.717235312624038 4.749401275265521
3.858999811366669 -7.647811220882234 4.9159272538530585
4.0879821546623125 -7.577772856968849 5.079513019720204
4.324891689766155 -7.507472929381628 5.230626445250379
4.568880996765396 -7.436939399379876 5.3706008285163644
4.81349022757197 -7.366600319533052 5.509508039009279
5.06688166417073 -7.299015935112811 5.633297051430107
5.32027310076949 -7.2314315506925695 5.757086063850935
5.576034103426322 -7.1664195371685615 5.877227325206835
5.834060350215619 -7.103866643979828 5.993881430478471
6.092086597004904 -7.041313750791099 6.110535535750099
6.350732024625476 -6.984325454201635 6.228643575100526
6.6094506654203915 -6.9279951265937445 6.346923530511361
6.867479325953619 -6.873491383589505 6.467435515458336
7.123467917081949 -6.824388315897698 6.594546957549733
7.379456508210289 -6.775285248205887 6.721658399641136
7.632047514464139 -6.73126449266496 6.856914916729574
7.882534762249167 -6.690390665787657 6.997214801721167
8.132985964145433 -6.6495637654212105 7.137586604817936
8.376350159736678 -6.617963117749799 7.292098274688344
8.619714355327922 -6.586362470078388 7.446609944558754
8.860212587854383 -6.559066164138759 7.606114318806729
9.096691832166089 -6.537805909013925 7.7726200463867965
9.333171076477784 -6.516545653889092 7.939125773966857
9.565728174572746 -6.504854084438383 8.11190349786234
9.797562672148704 -6.494925411333763 8.28583674925279
10.02908748238987 -6.4885019713034255 8.460254216684197
10.259823472483188 -6.491006886298514 8.635905055087246
10.490559462576515 -6.493511801293605 8.811555893490304
10.722873038457859 -6.505867127707338 8.98457492161158
10.955790596855326 -6.521993707842198 9.156586354831829
11.189366393187724 -6.540574792725594 9.327332525619202
11.4263257402724 -6.571772806758229 9.4915748481332
11.663285087357078 -6.602970820790864 9.655817170647195
11.902400958369999 -6.644136951667992 9.814357100704074
12.142979917024471 -6.692065923603326 9.96902825851031
12.383579416367068 -6.740333007221419 10.12353745156195
12.625296123198265 -6.806989976400795 10.269237385857306
12.867012830029463 -6.873646945580174 10.41493732015266
13.107419293080588 -6.949412992602153 10.557910422546545
13.346097501657493 -7.03719421174481 10.697286744321536
13.584775710234386 -7.124975430887462 10.83666306609652
13.816170680134455 -7.232880361450354 10.97386988802188
14.046215603898561 -7.3445154922784885 11.110674564003805
14.272085727172998 -7.4632468021805405 11.247787631687915
14.486629559569554 -7.601230143050669 11.385737370281667
14.701173391966126 -7.739213483920807 11.523687108875425
14.898915757497903 -7.897208558840439 11.664280799402047
15.090141750597057 -8.062965093705124 11.80589993464889
15.275081615691375 -8.234152796221112 11.948422938888491
15.435013893729577 -8.426946867196627 12.094541730949501
15.59494617176778 -8.619740938172141 12.240660523010515
15.72808878665922 -8.829234387393663 12.389193725917083
15.849952651933526 -9.045758462755057 12.538743422956122
15.962826023302924 -9.266155224696039 12.688507092422395
16.042474581266262 -9.50086369079342 12.839061507541134
16.122123139229604 -9.735572156890798 12.989615922659873
16.17070115843793 -9.978565993422897 13.138862761319345
16.206735552912797 -10.224904753528113 13.287581712498511
16.234717682738616 -10.472228864564105 13.435442582947417
16.22839117456819 -10.723751303630419 13.579647391104675
16.222064666397763 -10.97527374269673 13.723852199261932
16.19084725962278 -11.226587797268984 13.863876753541792
16.145625679607146 -11.477784610089468 14.00154940400255
16.098340579947358 -11.728725191728497 14.1387443394798
16.019738856622673 -11.975777128302287 14.268689321994318
15.941137133297989 -12.22282906487608 14.398634304508837
15.850694299820013 -12.467267361889542 14.525051330333937
15.746342837524564 -12.708635664448373 14.64732440010745
15.641991375229114 -12.950003967007204 14.769597469880965
15.523952577130537 -13.187662285823368 14.886396652152033
15.403431535293425 -13.424647786784545 15.00220312677174
15.281780169022126 -13.661529240828349 15.1170058942579
15.156665218377853 -13.898091870235458 15.228733063059614
15.03155026773358 -14.134654499642565 15.340460231861329
14.913361437447676 -14.375028282889783 15.451467815738265
14.798222706270387 -14.617080407882337 15.562158511483892
14.689768909941101 -14.861672787812774 15.673237997909398
14.603768115000967 -15.114797240073951 15.785623333662395
14.517767320060832 -15.367921692335129 15.898008669415393
14.478264048062048 -15.630928435071922 16.012132957108403
14.44577187997431 -15.895425273646534 16.126519451731514
14.456315782099358 -16.15969504261741 16.239447336068945
14.499264042915005 -16.423793837685466 16.351276947942065
14.557175176765604 -16.68389677231608 16.46110840774166
14.67819088373577 -16.92714752444403 16.562512840637186
14.799206590705941 -17.170398276571987 16.663917273532714
14.920222297676109 -17.413649028699947 16.765321706428246
15.041238004646278 -17.656899780827903 16.866726139323774
15.162253711616454 -17.900150532955873 16.96813057221931
15.283269418586624 -18.14340128508383 17.069535005114837
15.404285125556793 -18.386652037211785 17.170939438010365
15.525300832526963 -18.629902789339745 17.272343870905893
15.64631653949713 -18.8731535414677 17.37374830380142
15.767332246467298 -19.116404293595657 17.47515273669695
15.88834795343747 -19.359655045723628 17.576557169592483
16.00936366040764 -19.602905797851577 17.67796160248801
16.130379367377806 -19.84615654997953 17.77936603538354
16.251395074347975 -20.08940730210749 17.880770468279067
16.37241078131814 -20.332658054235445 17.98217490117459
16.49342648828831 -20.5759088063634 18.083579334070123
16.614442195258487 -20.81915955849137 18.184983766965654
16.735457902228656 -21.062410310619327 18.286388199861186
16.856473609198826 -21.305661062747284 18.387792632756714
16.977489316168995 -21.548911814875243 18.48919706565224
17.09850502313916 -21.7921625670032 18.59060149854777
17.21952073010933 -22.03541331913116 18.692005931443298
17.340536437079507 -22.278664071259126 18.793410364338833
17.461552144049676 -22.521914823387082 18.89481479723436
17.582567851019846 -22.76516557551504 18.99621923012989
17.703583557990015 -23.008416327642998 19.097623663025416
17.824599264960185 -23.251667079770954 19.199028095920944
17.945614971930354 -23.494917831898913 19.300432528816476
18.066630678900527 -23.73816858402688 19.40183696171201
18.187646385870696 -23.98141933615484 19.50324139460754
18.308662092840866 -24.224670088282796 19.60464582750307
18.429677799811035 -24.467920840410756 19.706050260398598
18.550693506781204 -24.71117159253871 19.807454693294126
18.671709213751374 -24.954422344666668 19.908859126189654
18.792724920721547 -25.197673096794638 20.01026355908519
18.913740627691716 -25.440923848922594 20.111667991980717
19.034756334661886 -25.68417460105055 20.213072424876245
19.15577204163206 -25.92742535317851 20.314476857771773
19.276787748602224 -26.170676105306466 20.4158812906673
19.397803455572394 -26.413926857434422 20.51728572356283
19.518819162542567 -26.657177609562392 20.618690156458364
19.639834869512736 -26.90042836169035 20.72009458935389
19.760850576482902 -27.1436791138183 20.82149902224942
19.88186628345307 -27.386929865946254 20.922903455144947
20.00288199042324 -27.63018061807421 21.024307888040475
20.123897697393407 -27.873431370202166 21.125712320936007
20.24491340436358 -28.116682122330136 21.227116753831538
20.365929111333752 -28.359932874458092 21.328521186727066
20.48694481830392 -28.603183626586052 21.429925619622594
20.60796052527409 -28.846434378714008 21.531330052518122
20.728976232244257 -29.089685130841964 21.63273448541365
20.849991939214426 -29.332935882969917 21.73413891830918
20.9710076461846 -29.576186635097883 21.835543351204713
21.092023353154765 -29.819437387225836 21.936947784100237
21.213039060124935 -30.062688139353796 22.03835221699577
21.3340547670951 -30.305938891481752 22.139756649891293
21.455070474065273 -30.549189643609708 22.241161082786824
21.576086181035443 -30.792440395737668 22.34256551568235
21.697101888005616 -31.035691147865634 22.44396994857788
21.818117594975785 -31.27894189999359 22.545374381473415
21.93913330194595 -31.522192652121547 22.64677881436894
22.06014900891612 -31.765443404249503 22.74818324726447
22.18116471588629 -32.00869415637746 22.84958768016
22.30218042285646 -32.25194490850541 22.950992113055527
22.423196129826625 -32.49519566063337 23.052396545951055
22.544211836796798 -32.738446412761334 23.153800978846586
22.665227543766967 -32.98169716488929 23.255205411742114
22.786243250737137 -33.224947917017246 23.356609844637642
22.907258957707306 -33.4681986691452 23.458014277533174
23.028274664677472 -33.71144942127315 23.559418710428698
23.149290371647638 -33.95470017340111 23.660823143324222
23.270306078617814 -34.19795092552908 23.762227576219757
23.39132178558798 -34.441201677657034 23.86363200911529
23.51233749255815 -34.68445242978498 23.965036442010813
23.633353199528315 -34.92770318191294 24.066440874906338
23.754368906498485 -35.170953934040895 24.16784530780187
23.87538461346866 -35.41420468616886 24.2692497406974
LINES 1 401
400 0 1 2 3 4 5 6 7 8 9 10 11 12 13 14 15 16 17 18 19 20 21 22 23 24 25 26 27 28 29 30 31 32 33 34 35 36 37 38 39 40 41 42 43 44 45 46 47 48 49 50 51 52 53 54 55 56 57 58 59 60 61 62 63 64 65 66 67 68 69 70 71 72 73 74 75 76 77 78 79 80 81 82 83 84 85 86 87 88 89 90 91 92 93 94 95 96 97 98 99 100 101 102 103 104 105 106 107 108 109 110 111 112 113 114 115 116 117 118 119 120 121 122 123 124 125 126 127 128 129 130 131 132 133 134 135 136 137 138 139 140 141 142 143 144 145 146 147 148 149 150 151 152 153 154 155 156 157 158 159 160 161 162 163 164 165 166 167 168 169 170 171 172 173 174 175 176 177 178 179 180 181 182 183 184 185 186 187 188 189 190 191 192 193 194 195 196 197 198 199 200 201 202 203 204 205 206 207 208 209 210 211 212 213 214 215 216 217 218 219 220 221 222 223 224 225 226 227 228 229 230 231 232 233 234 235 236 237 238 239 240 241 242 243 244 245 246 247 248 249 250 251 252 253 254 255 256 257 258 259 260 261 262 263 264 265 266 267 268 269 270 271 272 273 274 275 276 277 278 279 280 281 282 283 284 285 286 287 288 289 290 291 292 293 294 295 296 297 298 299 300 301 302 303 304 305 306 307 308 309 310 311 312 313 314 315 316 317 318 319 320 321 322 323 324 325 326 327 328 329 330 331 332 333 334 335 336 337 338 339 340 341 342 343 344 345 346 347 348 349 350 351 352 353 354 355 356 357 358 359 360 361 362 363 364 365 366 367 368 369 370 371 372 373 374 375 376 377 378 379 380 381 382 383 384 385 386 387 388 389 390 391 392 393 394 395 396 397 398 399

POINT_DATA 400
SCALARS MaximumInscribedSphereRadius float
LOOKUP_TABLE default
1.5
1.5
1.5
1.5
1.5
1.5
1.5
1.5
1.5
1.5
1.5
1.5
1.5
1.5
1.5
1.5
1.5
1.5
1.5
1.5
1.5
1.5
1.5
1.5
1.5
1.5
1.5
1.5
1.5
1.5
1.5
1.5
1.5
1.5
1.5
1.5
1.5
1.5
1.5
1.5
1.5
1.5
1.5
1.5
1.5
1.5
1.5
1.5
1.5
1.5
1.5
1.5
1.5
1.5
1.5
1.5
1.5
1.5
1.5
1.5
1.5
1.5
1.5
1.5
1.5
1.5
1.5
1.5
1.5
1.5
1.5
1.5
1.5
1.5
1.5
1.5
1.5
1.5
1.5
1.5
1.5
1.5
1.5
1.5
1.5
1.5
1.5
1.5
1.5
1.5
1.5
1.5
1.5
1.5
1.5
1.5
1.5
1.5
1.5
1.5
1.5
1.5
1.5
1.5
1.5
1.5
1.5
1.5
1.5
1.5
1.5
1.5
1.5
1.5
1.5
1.5
1.5
1.5
1.5
1.5
1.5
1.5
1.5
1.5
1.5
1.5
1.5
1.5
1.5
1.5
1.5
1.5
1.5
1.5
1.5
1.5
1.5
1.5
1.5
1.5
1.5
1.5
1.5
1.5
1.5
1.5
1.5
1.5
1.5
1.5
1.5
1.5
1.5
1.5
1.5
1.5
1.5
1.5
1.5
1.5
1.5
1.5
1.5
1.5
1.5
1.5
1.5
1.5
1.5
1.5
1.5
1.5
1.5
1.5
1.5
1.5
1.5
1.5
1.5
1.5
1.5
1.5
1.5
1.5
1.5
1.5
1.5
1.5
1.5
1.5
1.5
1.5
1.5
1.5
1.5
1.5
1.5
1.5
1.5
1.5
1.5
1.5
1.5
1.5
1.5
1.5
1.5
1.5
1.5
1.5
1.5
1.5
1.5
1.5
1.5
1.5
1.5
1.5
1.5
1.5
1.5
1.5
1.5
1.5
1.5
1.5
1.5
1.5
1.5
1.5
1.5
1.5
1.5
1.5
1.5
1.5
1.5
1.5
1.5
1.5
1.5
1.5
1.5
1.5
1.5
1.5
1.5
1.5
1.5
1.5
1.5
1.5
1.5
1.5
1.5
1.5
1.5
1.5
1.5
1.5
1.5
1.5
1.5
1.5
1.5
1.5
1.5
1.5
1.5
1.5
1.5
1.5
1.5
1.5
1.5
1.5
1.5
1.5
1.5
1.5
1.5
1.5
1.5
1.5
1.5
1.5
1.5
1.5
1.5
1.5
1.5
1.5
1.5
1.5
1.5
1.5
1.5
1.5
1.5
1.5
1.5
1.5
1.5
1.5
1.5
1.5
1.5
1.5
1.5
1.5
1.5
1.5
1.5
1.5
1.5
1.5
1.5
1.5
1.5
1.5
1.5
1.5
1.5
1.5
1.5
1.5
1.5
1.5
1.5
1.5
1.5
1.5
1.5
1.5
1.5
1.5
1.5
1.5
1.5
1.5
1.5
1.5
1.5
1.5
1.5
1.5
1.5
1.5
1.5
1.5
1.5
1.5
1.5
1.5
1.5
1.5
1.5
1.5
1.5
1.5
1.5
1.5
1.5
1.5
1.5
1.5
1.5
1.5
1.5
1.5
1.5
1.5
1.5
1.5
1.5
1.5
1.5
1.5
1.5
1.5
1.5
1.5
1.5
1.5
1.5
1.5
1.5
1.5
1.5
1.5
1.5
1.5
1.5
1.5
1.5
1.5
1.5
1.5
1.5
1.5
