# vtk DataFile Version 2.0
Vessel Segment
ASCII
DATASET POLYDATA
POINTS 400 float
-0.1532519307800615 26.369885867208268 -7.0461350912329594
-0.21955855060844037 26.127135707838626 -7.039688309672728
-0.28586517043681925 25.884385548468984 -7.033241528112496
-0.35217179026519824 25.641635389099342 -7.026794746552264
-0.4184784100935773 25.3988852297297 -7.020347964992032
-0.4847850299219563 25.156135070360058 -7.0139011834318
-0.5510916497503351 24.913384910990416 -7.007454401871569
-0.617398269578714 24.670634751620774 -7.001007620311337
-0.6837048894070928 24.427884592251132 -6.994560838751106
-0.7500115092354718 24.185134432881494 -6.988114057190875
-0.8163181290638506 23.94238427351185 -6.981667275630643
-0.8826247488922294 23.699634114142206 -6.9752204940704114
-0.9489313687206083 23.456883954772568 -6.9687737125101785
-1.015237988548987 23.214133795402926 -6.962326930949947
-1.0815446083773659 22.971383636033284 -6.955880149389716
-1.1478512282057447 22.728633476663646 -6.949433367829483
-1.2141578480341233 22.485883317294 -6.942986586269252
-1.280464467862502 22.243133157924362 -6.936539804709021
-1.346771087690881 22.000382998554713 -6.930093023148789
-1.41307770751926 21.757632839185074 -6.923646241588557
-1.4793843273476388 21.514882679815432 -6.917199460028325
-1.5456909471760176 21.272132520445794 -6.910752678468094
-1.6119975670043964 21.02938236107615 -6.904305896907862
-1.6783041868327753 20.786632201706507 -6.89785911534763
-1.7446108066611543 20.543882042336865 -6.891412333787398
-1.8109174264895327 20.301131882967226 -6.884965552227166
-1.8772240463179115 20.05838172359758 -6.878518770666934
-1.94353066614629 19.815631564227942 -6.872071989106704
-2.009837285974669 19.5728814048583 -6.86562520754647
-2.0761439058030478 19.33013124548866 -6.85917842598624
-2.1424505256314266 19.087381086119017 -6.852731644426008
-2.208757145459806 18.84463092674937 -6.846284862865776
-2.2750637652881847 18.601880767379733 -6.839838081305544
-2.3413703851165635 18.35913060801009 -6.833391299745313
-2.4076770049449423 18.11638044864045 -6.82694451818508
-2.4739836247733216 17.873630289270807 -6.820497736624849
-2.5402902446017004 17.630880129901165 -6.8140509550646176
-2.606596864430079 17.388129970531523 -6.8076041735043855
-2.6729034842584585 17.14537981116188 -6.8011573919441535
-2.739210104086837 16.90262965179224 -6.794710610383921
-2.805516723915216 16.659879492422597 -6.78826382882369
-2.871823343743595 16.417129333052955 -6.781817047263457
-2.9381299635719733 16.174379173683313 -6.775370265703227
-3.0044365834003517 15.931629014313673 -6.768923484142995
-3.070743203228731 15.688878854944031 -6.762476702582763
-3.1370498230571098 15.44612869557439 -6.756029921022531
-3.203356442885488 15.203378536204745 -6.749583139462299
-3.2696630627138674 14.960628376835107 -6.743136357902068
-3.3359696825422462 14.717878217465465 -6.736689576341836
-3.402276302370625 14.475128058095823 -6.730242794781605
-3.481055911644353 14.237343235563154 -6.715609146858011
-3.5802043802396453 14.007666994213814 -6.68760603927357
-3.6857621172986463 13.781600943025138 -6.656414635715202
-3.80573527217222 13.563654757598162 -6.618052270472063
-3.927407416323879 13.346746164331265 -6.579504723679184
-4.060302938049722 13.136691815956208 -6.539733883438075
-4.193198459775566 12.926637467581156 -6.499963043196965
-4.332834897445172 12.719929248940675 -6.466365416557073
-4.473207417551773 12.513586414967513 -6.4334418814129934
-4.61553674555457 12.307273719372795 -6.411390762650709
-4.758779236903338 12.100975088144105 -6.39441336223415
-4.900673594495782 11.893505345038626 -6.391700478538095
-5.0413891588654245 11.685011594680878 -6.401460330249643
-5.176936275696021 11.475805519058298 -6.430297790240623
-5.307278065326996 11.265882035345957 -6.478348987534819
-5.425587164464491 11.058158327491949 -6.553136437667188
-5.535176785415859 10.852028685206363 -6.647298289021588
-5.622926319313837 10.654237851301989 -6.773671058474921
-5.702755066269278 10.459471269287308 -6.911725824380991
-5.754341644146078 10.278190572149018 -7.077867153705003
-5.802111780103909 10.098732259694186 -7.247803897527441
-5.823968990556668 9.93135333523411 -7.434377478161597
-5.8443430613918474 9.764665780758008 -7.621903276706535
-5.847235750255974 9.60363143964982 -7.815242712693719
-5.848000460108876 9.443285254627506 -8.009289832917563
-5.840335604768228 9.282668865011477 -8.20289283602598
-5.829447814572744 9.121949166175689 -8.396326036718959
-5.8163259371135805 8.958756449394578 -8.587489768105907
-5.800709897012408 8.792802824804482 -8.776119835901326
-5.785182211615532 8.625592822078856 -8.963607720531131
-5.770075315476679 8.452399318784053 -9.145655958108598
-5.754968419337826 8.279205815489254 -9.327704195686065
-5.7427483775453965 8.100644427530218 -9.504682558967083
-5.731030314766432 7.921149648022877 -9.6807793500618
-5.721080914488517 7.7400160665201 -9.85527785573487
-5.712753699330372 7.557379405594505 -10.028310443050657
-5.70450543428241 7.374955117449307 -10.201569433157179
-5.6965928939479245 7.193433915958261 -10.375791170647766
-5.6886803536134405 7.011912714467215 -10.550012908138353
-5.676386255001622 6.835087738088795 -10.728724585779524
-5.663400960127215 6.6590035970572234 -10.908144557058463
-5.643746654676996 6.487826013725071 -11.091468498858022
-5.618517451833339 6.320750021688707 -11.278055928521638
-5.588721791206879 6.156227586897162 -11.465974024746668
-5.543704815718188 6.000216891552435 -11.658327614667527
-5.498687840229498 5.844206196207709 -11.850681204588387
-5.429877019159483 5.698279145671381 -12.043742350977578
-5.358804424315485 5.553310617089643 -12.23687075562724
-5.2705399954316405 5.413455935038626 -12.426003537597017
-5.169821507052436 5.277305811139817 -12.612241821954676
-5.062438805225904 5.142246600115458 -12.794976483442134
-4.931822684065169 5.010990634060596 -12.965496479241647
-4.801206562904433 4.8797346680057325 -13.136016475041165
-4.647639094454904 4.748687004747554 -13.285801573746916
-4.4899038810836585 4.617677167282874 -13.431821413665135
-4.321743207304425 4.4847198271417845 -13.562255679387361
-4.141936402084905 4.349586959852522 -13.675279524988499
-3.959969096316087 4.213436202839512 -13.782377244089899
-3.7649445175198823 4.071133693613774 -13.85365962783903
-3.5699199387236775 3.928831184388038 -13.92494201158816
-3.369170933819097 3.7796640441316236 -13.949157945289492
-3.1678523688935125 3.6298138975231318 -13.968690934749722
-2.9719140268535633 3.477194276860202 -13.935439785473804
-2.7770726779732935 3.324009978086676 -13.891426286688558
-2.6067547213772015 3.179219852179328 -13.777181347198578
-2.4505101200848403 3.0424535553808183 -13.640906671382067
-2.3341005139168822 2.929477072475983 -13.44842060279057
-2.264825592648135 2.8516178354784545 -13.224542373088106
-2.2234166531137154 2.7947935370224974 -12.983447017293244
-2.2478329041183747 2.794026569901527 -12.732909540759591
-2.2847887928575217 2.804955112667546 -12.485930159825127
-2.357798460076248 2.8495104101771673 -12.249180962031394
-2.437867430310903 2.900922868062142 -12.016958687611476
-2.541055032452139 2.9747919574707202 -11.79956171179574
-2.6442426345933727 3.0486610468792974 -11.582164735980005
-2.764937094395754 3.138145171514288 -11.380262529066218
-2.886223077541952 3.2281568984197557 -11.178883860853094
-3.0131036630254657 3.3213258173087135 -10.98260679468952
-3.1451347162649337 3.417401290503034 -10.791026333445423
-3.277165769504403 3.513476763697356 -10.599445872201322
-3.4151123037488516 3.6070160499541464 -10.410802930832078
-3.5531492454165656 3.7005165751827587 -10.222204884138756
-3.6921883569345075 3.789221025587512 -10.032116320519048
-3.8324407191328205 3.8721192336254764 -9.840223301621993
-3.97269308133113 3.9550174416634385 -9.648330282724944
-4.111271807010057 4.019793124766602 -9.448422745324716
-4.249838712947249 4.084440820961155 -9.248458606901686
-4.384512283178179 4.133260832877857 -9.041885312783407
-4.517010113583187 4.173235750090825 -8.831618578297618
-4.6453910487461085 4.20188501617267 -8.617561984935989
-4.767500537672072 4.2132814234882385 -8.397732134110228
-4.886478666742927 4.217979297470014 -8.176377744817223
-4.995011354661552 4.200332522806473 -7.949937872673045
-5.101897834427762 4.179751723259604 -7.723167028312504
-5.195464892818906 4.1354318153328755 -7.493718297557825
-5.2889346465046625 4.090958873514844 -7.264270345520877
-5.367704046954627 4.02336626600027 -7.034940038623441
-5.446473447404589 3.955773658485696 -6.805609731726012
-5.512819671955012 3.869832033409855 -6.578616364995494
-5.577864840841103 3.7819687505046473 -6.351867741579089
-5.6330992224663845 3.679106530443806 -6.129042044526649
-5.685914368281795 3.572545731980205 -5.907183699398874
-5.731349201188076 3.4530369336987987 -5.690592219349913
-5.7736169110271796 3.327971743784444 -5.476260915812185
-5.810591648226535 3.191435130898928 -5.268360835578194
-5.844038588637783 3.0472527484492895 -5.0647472027639555
-5.873892593440469 2.893562806244386 -4.868017671700517
-5.900136814626131 2.7303207213958203 -4.678204523346168
-5.924120049496575 2.5603724790363254 -4.494441572792833
-5.9444689394032135 2.3796446536194975 -4.3204038053421705
-5.963632196415427 2.1955693291902834 -4.150021668835738
-5.978927464361195 2.0005731795708086 -3.9915656020172587
-5.9940610922179305 1.8052284336632072 -3.8335551642515164
-6.004585085499867 1.59994245651786 -3.688253127609158
-6.015109078781805 1.394656479372507 -3.542951090966796
-6.021756732334613 1.1843063666596745 -3.4049415830822145
-6.0272568699459885 0.9724571138560963 -3.269090888301656
-6.030172506769663 0.7590140277227271 -3.1357482380271806
-6.029913078400643 0.5436129136589762 -3.0054867262266693
-6.029124015498683 0.3281025904438231 -2.8754234947844277
-6.021945109918404 0.11127469963605306 -2.747752441753361
-6.014766204338126 -0.10555319117171696 -2.6200813887222956
-6.0018962838933465 -0.3223967318811034 -2.4929478832213894
-5.986225083585223 -0.5392479759185178 -2.3660789739493886
-5.967971119993329 -0.7558817487100684 -2.2392649128764988
-5.941814765322782 -0.971850132286931 -2.1126186689326545
-5.9156584106522345 -1.1878185158637875 -1.9859724249888142
-5.878980939889805 -1.402481211278742 -1.8598142863395057
-5.840007228728441 -1.6168589394069872 -1.7337626769867558
-5.794847822514736 -1.8301949023798707 -1.608239141432557
-5.740633841068618 -2.042005937128195 -1.483488596447218
-5.686242636687549 -2.2537745583444857 -1.3587561912804542
-5.614709585088545 -2.461440740526039 -1.2357783558522348
-5.543176533489541 -2.6691069227075856 -1.112800520424019
-5.459800785551281 -2.872625930512894 -0.9907154869177531
-5.369726232646058 -3.0737990948113967 -0.8691354655960448
-5.274260379653499 -3.272219611041771 -0.7475094945283658
-5.165779963572271 -3.4639952528701743 -0.625772601074974
-5.05729954749104 -3.655770894698583 -0.5040357076215789
-4.932485254380771 -3.8353468756291136 -0.37942703000428174
-4.807196773555637 -4.014568689002677 -0.2547349818088972
-4.672590968673179 -4.183330296795685 -0.1256523512700545
-4.533478368053016 -4.347032296311057 0.005554006818654554
-4.390497287614628 -4.503674613489707 0.1406963357051209
-4.241642638674326 -4.649598113521842 0.28181470561763855
-4.092105291876072 -4.79299040898782 0.42457934860673097
-3.938204101287833 -4.920203099964545 0.5778670633444678
-3.7843029106995894 -5.047415790941273 0.7311547780822091
-3.6299721554817057 -5.159091189093907 0.8955501118463585
-3.4755818845334714 -5.268613911569349 1.0614843946140735
-3.323044598479926 -5.36909384498631 1.2344500659957904
-3.171674384352745 -5.463878327093066 1.4118443413441921
-3.021967270606972 -5.55523266572549 1.5922881142114114
-2.875608409875388 -5.639681234654861 1.7788713176105189
-2.729414807839571 -5.723954119122706 1.9656550420693892
-2.5884630410679845 -5.802654473796962 2.1587990875837395
-2.4475112742963945 -5.8813548284712205 2.3519431330980956
-2.309764280773393 -5.958430222073398 2.5480103334176123
-2.1732975196547653 -6.034856481506335 2.745245266120772
-2.03785649257446 -6.110976103758797 2.9432970419926514
-1.903995913477049 -6.186623260347401 3.14260740741127
-1.770144052536442 -6.262143012306218 3.3419713733478797
-1.6363940827303374 -6.336173756603525 3.541961781055828
-1.5026441129242363 -6.41020450090083 3.7419521887637703
-1.3669513657991297 -6.480590913257671 3.941937701263255
-1.2307124465274857 -6.5499527961539545 4.141921837574903
-1.0921275789747167 -6.614716921918599 4.341770712467571
-0.9512515585457992 -6.674990682503115 4.541487485305134
-0.8088534908916937 -6.731744445914762 4.741049041812396
-0.6620379380987285 -6.778282011732416 4.940160109122585
-0.5150608307886055 -6.82438476169352 5.139232367481906
-0.3619166666612614 -6.853889188441691 5.336823163055832
-0.20877250253392168 -6.883393615189863 5.534413958629753
-0.050628313969205085 -6.898677933855676 5.729514793153811
0.10876342553694991 -6.910414208017351 5.92399436006391
0.2717785353180604 -6.913305388679014 6.115583570134238
0.4375936317983318 -6.909361456649024 6.30493923516415
0.6055646204199011 -6.9018881157847884 6.492145369855672
0.7784505283555309 -6.886368565504828 6.674451088624774
0.9514787919763925 -6.87072761912297 6.8566023393974325
1.1324185737981942 -6.848339998253976 7.030168921681131
1.313358355619991 -6.825952377384981 7.203735503964824
1.5003967577872248 -6.801563347835154 7.370318796087774
1.6899831227535949 -6.776338143121797 7.5339845162784815
1.8827069393141296 -6.750906255488628 7.693780499402691
2.0807010823472263 -6.725127179562344 7.847076054682402
2.278887782408692 -6.699333210699741 8.000107415580604
2.4840403687034858 -6.673000479367824 8.143581358499507
2.689192954998274 -6.646667748035909 8.287055301418407
2.8978051218734167 -6.618559768123241 8.425020805867753
3.1081061413253535 -6.589585170691361 8.560297273225057
3.319295577606669 -6.558677235704455 8.693683224591206
3.5324237117635544 -6.523550383102776 8.822943703302368
3.7455518459204455 -6.488423530501096 8.952204182013537
3.9590379800875346 -6.443641284212188 9.077821204329153
4.172538730235507 -6.398464839472249 9.203289476121071
4.384932863199009 -6.345269808410096 9.327315981500254
4.596635933704679 -6.287067314921119 9.450442129777828
4.8074309895751615 -6.224939631364857 9.573032766543657
5.015867843489072 -6.152617849015717 9.694232628044608
5.2243046974029905 -6.080296066666574 9.815432489545563
5.4294649434518245 -5.996026664458474 9.934445738192661
5.634427333106458 -5.911035810956233 10.053326949271462
5.838049954931183 -5.820500622969278 10.170303015368301
6.040799151159509 -5.72635095525987 10.286037073443335
6.243620766927474 -5.631123060803642 10.4007301995889
6.446644900397794 -5.53287995795923 10.51251241047983
6.649669033868113 -5.434636855114818 10.624294621370762
6.855533149129437 -5.33785888588788 10.732079229202984
7.061639891714959 -5.241206086987866 10.839522310995683
7.270904457727067 -5.148790378116135 10.944446367227581
7.48241636718617 -5.059390099565565 11.047577696374354
7.69554547972333 -4.9730405583456285 11.14979305870633
7.913430206655068 -4.895662141754803 11.24931489106141
8.131314933586806 -4.818283725163979 11.348836723416488
8.354465464676439 -4.754679740242302 11.44633748386214
8.578037738246275 -4.692178960605359 11.543676375036897
8.803859085028336 -4.638913393798447 11.640992984160293
9.031242371944343 -4.592061513076228 11.738294118807318
9.25895777747707 -4.548641411968112 11.836208007244114
9.487730189339677 -4.516143350734988 11.936072056261702
9.716502601202285 -4.483645289501865 12.035936105279292
9.944467433446189 -4.462066235218385 12.140393428403982
10.172313020526651 -4.442099453877776 12.245528982763098
10.398698837339454 -4.4276800829719365 12.354431639100383
10.62361161514758 -4.41885854627774 12.467135638889747
10.847882696308021 -4.411653160523508 12.581097977319356
11.068125888465808 -4.4145922513241205 12.702958827279282
11.288369080623582 -4.417531342124732 12.824819677239203
11.503502738487313 -4.432428202798231 12.954470082246285
11.717477075574662 -4.450038205268071 13.085887887663146
11.926889414789624 -4.478717627094413 13.222105904758884
12.132617204525706 -4.516337391389676 13.36220086742425
12.334315830310125 -4.563452789172937 13.504569471093603
12.528981317539008 -4.62714336403882 13.650906846547507
12.720082567268982 -4.698219104622967 13.797816508139466
12.9000081734772 -4.792450984337018 13.946520569199336
13.077089268401398 -4.891456750172636 14.0949761207051
13.238831151999666 -5.016206006103102 14.242091568345458
13.399320818841714 -5.142580943991964 14.388976275156889
13.541282261330661 -5.293010024187055 14.532446862308575
13.68324370381962 -5.443439104382156 14.675917449460272
13.807603967466124 -5.610890112385778 14.816658557667347
13.93044495901537 -5.779810393566639 14.957164066813828
14.040945364812284 -5.956773410369928 15.097697587913967
14.146335579180315 -6.137066894581127 15.238242708661673
14.24484395119709 -6.319742797768413 15.380426620337968
14.334074775781216 -6.505630486975638 15.524819818393729
14.421688084654416 -6.691618384435936 15.669973432334697
14.494862121367296 -6.878500822968746 15.821915142272143
14.56803615808017 -7.0653832615015455 15.97385685220958
14.627974962626928 -7.24991324714553 16.133997965193693
14.683823833046283 -7.433716280875698 16.296672846979455
14.730733241466888 -7.6141485910176865 16.465354896921696
14.76670547157152 -7.790456916411728 16.641386546796326
14.798253436695088 -7.964258177844388 16.82031834396826
14.810820233182987 -8.127303527496235 17.011692475664482
14.823298822992115 -8.290281049550842 17.203117787415408
14.807958813768137 -8.43186712192233 17.410684251293752
14.792618804544158 -8.573453194293823 17.61825071517209
14.748349026154731 -8.68585781044765 17.838617472311256
14.70080493591468 -8.794959628457264 18.06043298459517
14.623897215959202 -8.865747984372728 18.288534190361748
14.541911202043728 -8.929910217256925 18.5177224756058
14.459925188128256 -8.994072450141118 18.74691076084984
14.377939174212788 -9.058234683025312 18.97609904609388
14.295953160297316 -9.122396915909505 19.205287331337917
14.21396714638184 -9.186559148793702 19.43447561658197
14.131981132466368 -9.250721381677895 19.66366390182601
14.049995118550896 -9.314883614562088 19.892852187070048
13.96800910463542 -9.379045847446285 20.1220404723141
13.886023090719949 -9.443208080330479 20.35122875755814
13.804037076804478 -9.507370313214672 20.58041704280218
13.722051062889006 -9.571532546098865 20.809605328046217
13.640065048973533 -9.635694778983062 21.03879361329027
13.55807903505806 -9.699857011867255 21.26798189853431
13.47609302114259 -9.764019244751449 21.497170183778348
13.394107007227118 -9.828181477635642 21.726358469022387
13.312120993311645 -9.892343710519839 21.955546754266436
13.230134979396173 -9.956505943404032 22.18473503951048
13.1481489654807 -10.020668176288225 22.413923324754517
13.066162951565225 -10.084830409172422 22.64311160999857
12.984176937649755 -10.148992642056616 22.87229989524261
12.902190923734283 -10.213154874940809 23.101488180486648
12.820204909818811 -10.277317107825002 23.330676465730683
12.738218895903335 -10.3414793407092 23.559864750974736
12.656232881987865 -10.405641573593392 23.789053036218775
12.574246868072393 -10.469803806477586 24.018241321462817
12.492260854156923 -10.533966039361779 24.247429606706856
12.410274840241447 -10.598128272245978 24.476617891950905
12.328288826325974 -10.66229050513017 24.705806177194944
12.246302812410505 -10.726452738014363 24.934994462438983
12.16431679849503 -10.79061497089856 25.164182747683032
12.082330784579561 -10.854777203782753 25.39337103292707
12.000344770664093 -10.918939436666943 25.622559318171103
11.91835875674862 -10.983101669551136 25.85174760341514
11.836372742833145 -11.047263902435333 26.08093588865919
11.754386728917673 -11.111426135319526 26.310124173903233
11.672400715002201 -11.17558836820372 26.539312459147272
11.590414701086729 -11.239750601087913 26.768500744391307
11.508428687171254 -11.30391283397211 26.99768902963536
11.426442673255783 -11.368075066856303 27.226877314879395
11.344456659340313 -11.432237299740496 27.456065600123434
11.262470645424838 -11.496399532624693 27.685253885367487
11.180484631509366 -11.560561765508886 27.914442170611526
11.098498617593895 -11.62472399839308 28.143630455855565
11.016512603678423 -11.688886231277273 28.372818741099604
10.93452658976295 -11.753048464161468 28.602007026343653
10.852540575847481 -11.81721069704566 28.83119531158769
10.77055456193201 -11.881372929929853 29.060383596831727
10.68856854801654 -11.945535162814046 29.289571882075762
10.606582534101065 -12.009697395698245 29.518760167319815
10.524596520185593 -12.073859628582436 29.747948452563854
10.442610506270121 -12.13802186146663 29.97713673780789
10.360624492354646 -12.202184094350827 30.206325023051946
10.278638478439175 -12.26634632723502 30.435513308295985
10.196652464523705 -12.330508560119213 30.66470159354002
10.114666450608233 -12.394670793003407 30.89388987878406
10.032680436692758 -12.458833025887603 31.12307816402811
9.950694422777286 -12.522995258771797 31.35226644927215
9.868708408861815 -12.58715749165599 31.581454734516186
9.786722394946345 -12.651319724540182 31.81064301976022
9.70473638103087 -12.715481957424378 32.03983130500427
9.622750367115401 -12.77964419030857 32.26901959024831
9.540764353199929 -12.843806423192763 32.498207875492355
9.458778339284454 -12.90796865607696 32.727396160736404
9.376792325368983 -12.972130888961154 32.95658444598044
9.294806311453513 -13.036293121845347 33.185772731224475
9.212820297538043 -13.100455354729538 33.41496101646851
9.130834283622569 -13.164617587613735 33.64414930171256
9.048848269707099 -13.228779820497927 33.873337586956595
8.966862255791627 -13.29294205338212 34.10252587220063
8.884876241876157 -13.357104286266313 34.331714157444665
8.802890227960683 -13.42126651915051 34.56090244268872
8.720904214045213 -13.485428752034702 34.79009072793276
8.638918200129742 -13.549590984918893 35.01927901317679
8.556932186214267 -13.61375321780309 35.24846729842084
8.474946172298797 -13.677915450687284 35.47765558366488
8.392960158383325 -13.742077683571477 35.70684386890892
8.310974144467853 -13.80623991645567 35.936032154152954
8.228988130552379 -13.870402149339865 36.165220439397004
8.14700211663691 -13.934564382224057 36.39440872464104
8.06501610272144 -13.99872661510825 36.623597009885074
7.98303008880597 -14.062888847992443 36.85278529512911
7.901044074890494 -14.12705108087664 37.081973580373166
7.819058060975023 -14.191213313760834 37.3111618656172
7.737072047059552 -14.255375546645027 37.540350150861244
7.655086033144076 -14.319537779529224 37.76953843610529
7.5731000192286055 -14.383700012413417 37.998726721349335
7.491114005313134 -14.44786224529761 38.22791500659337
LINES 1 401
400 0 1 2 3 4 5 6 7 8 9 10 11 12 13 14 15 16 17 18 19 20 21 22 23 24 25 26 27 28 29 30 31 32 33 34 35 36 37 38 39 40 41 42 43 44 45 46 47 48 49 50 51 52 53 54 55 56 57 58 59 60 61 62 63 64 65 66 67 68 69 70 71 72 73 74 75 76 77 78 79 80 81 82 83 84 85 86 87 88 89 90 91 92 93 94 95 96 97 98 99 100 101 102 103 104 105 106 107 108 109 110 111 112 113 114 115 116 117 118 119 120 121 122 123 124 125 126 127 128 129 130 131 132 133 134 135 136 137 138 139 140 141 142 143 144 145 146 147 148 149 150 151 152 153 154 155 156 157 158 159 160 161 162 163 164 165 166 167 168 169 170 171 172 173 174 175 176 177 178 179 180 181 182 183 184 185 186 187 188 189 190 191 192 193 194 195 196 197 198 199 200 201 202 203 204 205 206 207 208 209 210 211 212 213 214 215 216 217 218 219 220 221 222 223 224 225 226 227 228 229 230 231 232 233 234 235 236 237 238 239 240 241 242 243 244 245 246 247 248 249 250 251 252 253 254 255 256 257 258 259 260 261 262 263 264 265 266 267 268 269 270 271 272 273 274 275 276 277 278 279 280 281 282 283 284 285 286 287 288 289 290 291 292 293 294 295 296 297 298 299 300 301 302 303 304 305 306 307 308 309 310 311 312 313 314 315 316 317 318 319 320 321 322 323 324 325 326 327 328 329 330 331 332 333 334 335 336 337 338 339 340 341 342 343 344 345 346 347 348 349 350 351 352 353 354 355 356 357 358 359 360 361 362 363 364 365 366 367 368 369 370 371 372 373 374 375 376 377 378 379 380 381 382 383 384 385 386 387 388 389 390 391 392 393 394 395 396 397 398 399

POINT_DATA 400
SCALARS MaximumInscribedSphereRadius float
LOOKUP_TABLE default
1.5
1.5
1.5
1.5
1.5
1.5
1.5
1.5
1.5
1.5
1.5
1.5
1.5
1.5
1.5
1.5
1.5
1.5
1.5
1.5
1.5
1.5
1.5
1.5
1.5
1.5
1.5
1.5
1.5
1.5
1.5
1.5
1.5
1.5
1.5
1.5
1.5
1.5
1.5
1.5
1.5
1.5
1.5
1.5
1.5
1.5
1.5
1.5
1.5
1.5
1.5
1.5
1.5
1.5
1.5
1.5
1.5
1.5
1.5
1.5
1.5
1.5
1.5
1.5
1.5
1.5
1.5
1.5
1.5
1.5
1.5
1.5
1.5
1.5
1.5
1.5
1.5
1.5
1.5
1.5
1.5
1.5
1.5
1.5
1.5
1.5
1.5
1.5
1.5
1.5
1.5
1.5
1.5
1.5
1.5
1.5
1.5
1.5
1.5
1.5
1.5
1.5
1.5
1.5
1.5
1.5
1.5
1.5
1.5
1.5
1.5
1.5
1.5
1.5
1.5
1.5
1.5
1.5
1.5
1.5
1.5
1.5
1.5
1.5
1.5
1.5
1.5
1.5
1.5
1.5
1.5
1.5
1.5
1.5
1.5
1.5
1.5
1.5
1.5
1.5
1.5
1.5
1.5
1.5
1.5
1.5
1.5
1.5
1.5
1.5
1.5
1.5
1.5
1.5
1.5
1.5
1.5
1.5
1.5
1.5
1.5
1.5
1.5
1.5
1.5
1.5
1.5
1.5
1.5
1.5
1.5
1.5
1.5
1.5
1.5
1.5
1.5
1.5
1.5
1.5
1.5
1.5
1.5
1.5
1.5
1.5
1.5
1.5
1.5
1.5
1.5
1.5
1.5
1.5
1.5
1.5
1.5
1.5
1.5
1.5
1.5
1.5
1.5
1.5
1.5
1.5
1.5
1.5
1.5
1.5
1.5
1.5
1.5
1.5
1.5
1.5
1.5
1.5
1.5
1.5
1.5
1.5
1.5
1.5
1.5
1.5
1.5
1.5
1.5
1.5
1.5
1.5
1.5
1.5
1.5
1.5
1.5
1.5
1.5
1.5
1.5
1.5
1.5
1.5
1.5
1.5
1.5
1.5
1.5
1.5
1.5
1.5
1.5
1.5
1.5
1.5
1.5
1.5
1.5
1.5
1.5
1.5
1.5
1.5
1.5
1.5
1.5
1.5
1.5
1.5
1.5
1.5
1.5
1.5
1.5
1.5
1.5
1.5
1.5
1.5
1.5
1.5
1.5
1.5
1.5
1.5
1.5
1.5
1.5
1.5
1.5
1.5
1.5
1.5
1.5
1.5
1.5
1.5
1.5
1.5
1.5
1.5
1.5
1.5
1.5
1.5
1.5
1.5
1.5
1.5
1.5
1.5
1.5
1.5
1.5
1.5
1.5
1.5
1.5
1.5
1.5
1.5
1.5
1.5
1.5
1.5
1.5
1.5
1.5
1.5
1.5
1.5
1.5
1.5
1.5
1.5
1.5
1.5
1.5
1.5
1.5
1.5
1.5
1.5
1.5
1.5
1.5
1.5
1.5
1.5
1.5
1.5
1.5
1.5
1.5
1.5
1.5
1.5
1.5
1.5
1.5
1.5
1.5
1.5
1.5
1.5
1.5
1.5
1.5
1.5
1.5
1.5
1.5
1.5
1.5
1.5
1.5
1.5
1.5
1.5
1.5
1.5
1.5
1.5
1.5
1.5
1.5
1.5
1.5
1.5
1.5
1.5
1.5
1.5
1.5
1.5
1.5
1.5
1.5
1.5
