/*--------------------------------*- C++ -*----------------------------------*\
| =========                 |                                                 |
| \\      /  F ield         | OpenFOAM: The Open Source CFD Toolbox           |
|  \\    /   O peration     | Version:  v1612+                                |
|   \\  /    A nd           | Web:      www.OpenFOAM.com                      |
|    \\/     M anipulation  |                                                 |
\*---------------------------------------------------------------------------*/
FoamFile
{
    version     2.0;
    format      ascii;
    class       volVectorField;
    location    "50";
    object      U;
}
// * * * * * * * * * * * * * * * * * * * * * * * * * * * * * * * * * * * * * //

dimensions      [0 1 -1 0 0 0 0];

internalField   nonuniform List<vector> 
16937
(
(-0.717919 0.405836 -0.291756)
(-0.172382 0.6233 -0.290574)
(-0.571509 0.55668 -0.399178)
(-0.726527 0.256124 -0.255386)
(-0.665122 0.421122 -0.336134)
(-0.557177 0.438978 -0.270719)
(-0.680903 0.435687 -0.335892)
(-0.627999 0.432275 -0.302844)
(-0.673655 0.427796 -0.322381)
(-0.584844 0.440258 -0.281083)
(-0.588131 0.439865 -0.276948)
(-0.564425 0.455271 -0.268398)
(-0.678931 0.42504 -0.311877)
(-0.58841 0.4332 -0.257138)
(-0.578982 0.443695 -0.237225)
(-0.552564 0.425925 -0.228669)
(-0.516491 0.44573 -0.235323)
(-0.662727 0.44395 -0.303417)
(-0.593208 0.445591 -0.2653)
(-0.660126 0.433387 -0.284943)
(-0.533326 0.438432 -0.215226)
(-0.506883 0.434015 -0.199318)
(-0.558525 0.495692 -0.254817)
(-0.543029 0.494185 -0.256416)
(-0.525522 0.493819 -0.261414)
(-0.668707 0.496474 -0.336605)
(-0.646748 0.503884 -0.325774)
(-0.642619 0.502469 -0.32403)
(-0.648199 0.485938 -0.308076)
(-0.513981 0.509819 -0.225117)
(-0.571672 0.527252 -0.280798)
(-0.504509 0.511174 -0.239696)
(-0.58895 0.494613 -0.296725)
(-0.521735 0.52254 -0.250589)
(-0.473826 0.508136 -0.220287)
(-0.673214 0.380808 -0.362019)
(-0.608365 0.349205 -0.327799)
(-0.691761 0.404754 -0.373741)
(-0.616132 0.368329 -0.348122)
(-0.705722 0.377356 -0.354105)
(-0.630791 0.35177 -0.336621)
(-0.693614 0.359207 -0.358117)
(-0.581128 0.360653 -0.333586)
(-0.759793 0.42698 -0.387922)
(-0.74987 0.398512 -0.370451)
(-0.708212 0.391099 -0.394156)
(-0.756772 0.383162 -0.408729)
(-0.769138 0.391836 -0.387858)
(-0.689307 0.410614 -0.390287)
(-0.645103 0.366765 -0.366639)
(-0.651478 0.386492 -0.383302)
(-0.685195 0.3961 -0.387492)
(-0.780694 0.452416 -0.437615)
(-0.82749 0.40929 -0.44356)
(-0.927444 0.379368 -0.391129)
(-0.817748 0.395178 -0.321381)
(-0.999595 0.361689 -0.40387)
(-1.00415 0.375997 -0.408736)
(-0.806362 0.381371 -0.340497)
(-0.797458 0.410924 -0.297529)
(-0.839699 0.393426 -0.286191)
(-0.80908 0.39875 -0.281369)
(-0.9979 0.379488 -0.42425)
(-0.805937 0.386142 -0.299794)
(-0.936122 0.350304 -0.393233)
(-0.940593 0.354655 -0.373461)
(-1.00126 0.361852 -0.413763)
(-0.995878 0.364023 -0.429282)
(-0.872507 0.386919 -0.35853)
(-0.865429 0.372472 -0.36573)
(-0.840769 0.472116 -0.323682)
(-0.755941 0.439784 -0.281848)
(-0.793593 0.439306 -0.333648)
(-0.747622 0.429591 -0.304395)
(-0.826297 0.441293 -0.309646)
(-0.714241 0.413138 -0.257212)
(-0.875722 0.481348 -0.384791)
(-0.776877 0.42035 -0.330676)
(-0.727137 0.416449 -0.294789)
(-0.736829 0.401352 -0.286266)
(-0.867304 0.45052 -0.349216)
(-0.784021 0.411982 -0.31729)
(-0.863616 0.453625 -0.374392)
(-0.798942 0.415732 -0.331347)
(-0.751787 0.540364 -0.225384)
(-0.682837 0.542695 -0.188372)
(-0.63767 0.494021 -0.133711)
(-0.534836 0.484297 -0.103954)
(-0.492968 0.483497 -0.0932948)
(-0.701026 0.522113 -0.199787)
(-0.513425 0.515809 -0.0956976)
(-0.471877 0.502046 -0.0724894)
(-0.593512 0.489519 -0.127353)
(-0.506219 0.48878 -0.083145)
(-0.72685 0.534344 -0.212225)
(-0.700396 0.567259 -0.204628)
(-0.554404 0.540391 -0.114854)
(-0.518606 0.509189 -0.0909278)
(-0.594351 0.491382 -0.133249)
(-0.568336 0.509064 -0.125696)
(-0.527341 0.487597 -0.0925936)
(-0.796582 0.575996 -0.286932)
(-0.775209 0.567707 -0.263223)
(-0.803807 0.541842 -0.287815)
(-0.775154 0.556407 -0.255101)
(-0.706039 0.580907 -0.208543)
(-0.716473 0.576201 -0.238048)
(-0.648707 0.538806 -0.168573)
(-0.633838 0.505163 -0.171104)
(-0.716512 0.540145 -0.224821)
(-0.697867 0.543869 -0.218406)
(-0.587939 0.485359 -0.149189)
(-0.678842 0.5212 -0.208012)
(-0.482871 0.336915 -0.345943)
(-0.48082 0.331091 -0.351071)
(-0.371398 0.333865 -0.315895)
(-0.340712 0.329841 -0.300665)
(-0.483629 0.374548 -0.340419)
(-0.376757 0.375934 -0.316925)
(-0.374062 0.34997 -0.320687)
(-0.400899 0.354932 -0.314136)
(-0.324535 0.32615 -0.298396)
(-0.271181 0.317129 -0.273859)
(-0.342144 0.383712 -0.285734)
(-0.368796 0.355705 -0.294129)
(-0.347852 0.36521 -0.279467)
(-0.279791 0.341213 -0.254079)
(-0.912528 0.371585 -0.434311)
(-0.921699 0.394844 -0.458622)
(-0.991044 0.406658 -0.484843)
(-0.970978 0.404396 -0.479062)
(-0.973653 0.432613 -0.49018)
(-0.905931 0.43613 -0.453392)
(-0.955496 0.437189 -0.490496)
(-0.906239 0.44858 -0.463888)
(-0.970918 0.428864 -0.487717)
(-0.948099 0.475369 -0.474893)
(-0.895657 0.390152 -0.434619)
(-0.813415 0.34535 -0.371555)
(-0.886282 0.458224 -0.430093)
(-0.869619 0.442856 -0.415058)
(-0.894083 0.393956 -0.426587)
(-0.868856 0.429618 -0.408701)
(-0.810247 0.438463 -0.372974)
(-0.892578 0.478671 -0.438988)
(-0.475856 0.344017 -0.333941)
(-0.450904 0.338134 -0.339526)
(-0.387955 0.322574 -0.326647)
(-0.34554 0.321164 -0.330878)
(-0.340937 0.289555 -0.293381)
(-0.310741 0.274363 -0.291603)
(-0.444701 0.276783 -0.291783)
(-0.40011 0.275411 -0.27073)
(-0.412723 0.325533 -0.325764)
(-0.494709 0.330849 -0.313345)
(-0.315369 0.285999 -0.30135)
(-0.411243 0.285458 -0.281656)
(-0.404366 0.275192 -0.273817)
(-0.377613 0.295577 -0.30387)
(-0.349014 0.289149 -0.290328)
(-0.450908 0.274392 -0.289764)
(-0.430098 0.278117 -0.278181)
(-0.791441 0.648186 -0.31043)
(-0.720896 0.628403 -0.266683)
(-0.819983 0.642648 -0.324997)
(-0.708407 0.630539 -0.238457)
(-0.83787 0.634182 -0.339145)
(-0.868612 0.623917 -0.354521)
(-0.790988 0.656335 -0.321114)
(-0.805134 0.652705 -0.322707)
(-0.850351 0.663026 -0.333114)
(-0.749748 0.615583 -0.281873)
(-0.727763 0.613881 -0.25438)
(-0.655495 0.61852 -0.226159)
(-0.727077 0.672505 -0.28611)
(-0.538178 0.571994 -0.143828)
(-0.567646 0.605082 -0.168291)
(-0.78059 0.652589 -0.28995)
(-0.65912 0.59031 -0.227288)
(-0.68591 0.588446 -0.239398)
(-0.574143 0.557161 -0.149761)
(-0.548627 0.566483 -0.148019)
(-0.713646 0.614212 -0.24635)
(-0.674253 0.627103 -0.241673)
(-0.654549 0.599978 -0.165458)
(-0.647768 0.577312 -0.188718)
(-0.708223 0.317632 -0.37447)
(-0.756523 0.398479 -0.410537)
(-0.72702 0.398445 -0.408449)
(-0.681289 0.293097 -0.365034)
(-0.765188 0.311698 -0.409636)
(-0.827917 0.386016 -0.423983)
(-0.880531 0.447952 -0.453256)
(-0.641091 0.334117 -0.373287)
(-0.624362 0.364987 -0.383438)
(-0.809 0.342311 -0.417376)
(-0.652781 0.35242 -0.379666)
(-0.795324 0.376164 -0.427299)
(-0.907551 0.791897 -0.494628)
(-0.86306 0.77081 -0.507097)
(-0.901104 0.755456 -0.506967)
(-0.864062 0.756583 -0.527848)
(-0.870101 0.802155 -0.518681)
(-0.892325 0.737669 -0.536481)
(-0.914202 0.752573 -0.506506)
(-0.837423 0.676375 -0.499286)
(-0.88879 0.707133 -0.501238)
(-0.830001 0.64565 -0.481241)
(-0.845244 0.73554 -0.481447)
(-0.833419 0.754848 -0.514322)
(-0.860998 0.772546 -0.535718)
(-0.849931 0.75214 -0.522359)
(-0.846638 0.76506 -0.524449)
(-0.875822 0.772711 -0.546257)
(-0.877546 0.690397 -0.490342)
(-0.828299 0.794367 -0.518825)
(-0.776297 0.48749 -0.41252)
(-0.749909 0.514356 -0.428589)
(-0.808354 0.500475 -0.42012)
(-0.856715 0.509344 -0.432068)
(-0.834779 0.544358 -0.398195)
(-0.795966 0.532227 -0.40591)
(-0.760807 0.540307 -0.355884)
(-0.863169 0.57861 -0.410534)
(-0.822241 0.563166 -0.387279)
(-0.901149 0.543261 -0.46353)
(-0.970136 0.550346 -0.48154)
(-0.886485 0.510902 -0.45062)
(-0.89782 0.599308 -0.427508)
(-0.983028 0.64674 -0.475856)
(-0.863764 0.584004 -0.405271)
(-0.853893 0.523146 -0.449955)
(-0.728223 0.496799 -0.217899)
(-0.703839 0.499608 -0.24734)
(-0.700896 0.498087 -0.243288)
(-0.744147 0.52972 -0.238607)
(-0.693407 0.527598 -0.235936)
(-0.818289 0.55458 -0.311744)
(-0.836774 0.545644 -0.307557)
(-0.679788 0.499812 -0.212081)
(-0.712689 0.498338 -0.262392)
(-0.670115 0.501415 -0.22988)
(-0.834553 0.555814 -0.353265)
(-0.729933 0.507756 -0.267557)
(-0.518815 0.397571 -0.164988)
(-0.497118 0.399867 -0.124259)
(-0.577291 0.396492 -0.210633)
(-0.679627 0.400075 -0.242162)
(-0.649222 0.390054 -0.223894)
(-0.749008 0.396726 -0.26225)
(-0.501369 0.40323 -0.14579)
(-0.452913 0.387299 -0.117074)
(-0.572577 0.4023 -0.171378)
(-0.484884 0.413341 -0.127924)
(-0.573567 0.39625 -0.157688)
(-0.544877 0.39407 -0.133641)
(-0.454178 0.410877 -0.109091)
(-0.649621 0.395028 -0.170436)
(-0.542801 0.391704 -0.117845)
(-0.467096 0.392255 -0.109084)
(-0.598461 0.389643 -0.147368)
(-0.486055 0.38734 -0.109224)
(-0.589785 0.365272 -0.349251)
(-0.511592 0.401203 -0.319303)
(-0.373347 0.364796 -0.276819)
(-0.406318 0.338019 -0.313216)
(-0.35262 0.356907 -0.28616)
(-0.3892 0.348903 -0.308967)
(-0.499638 0.330518 -0.347667)
(-0.580387 0.36171 -0.357199)
(-0.603987 0.368568 -0.35573)
(-0.556944 0.394856 -0.324641)
(-0.438368 0.394165 -0.290791)
(-0.535471 0.327438 -0.362305)
(-0.549448 0.383709 -0.343072)
(-0.504428 0.403092 -0.322004)
(-0.756916 0.46326 -0.313252)
(-0.781957 0.479491 -0.361481)
(-0.762951 0.493914 -0.342339)
(-0.735342 0.462812 -0.298188)
(-0.741926 0.467895 -0.302001)
(-0.770905 0.447667 -0.339112)
(-0.854393 0.45548 -0.405398)
(-0.864328 0.396608 -0.409138)
(-0.870685 0.489051 -0.432138)
(-0.84359 0.48297 -0.418544)
(-0.819115 0.42036 -0.379941)
(-0.852238 0.417788 -0.410738)
(-0.751188 0.468346 -0.320393)
(-0.806233 0.407059 -0.363515)
(-0.858734 0.446931 -0.391661)
(-0.871973 0.39968 -0.411642)
(-0.891591 0.417058 -0.4475)
(-0.673599 0.434155 -0.422297)
(-0.603795 0.422749 -0.399483)
(-0.568444 0.409863 -0.383979)
(-0.517022 0.414818 -0.364989)
(-0.601348 0.436266 -0.397373)
(-0.553128 0.425484 -0.384528)
(-0.766754 0.439817 -0.460829)
(-0.740743 0.445109 -0.454599)
(-0.620397 0.452522 -0.403016)
(-0.57645 0.438729 -0.38224)
(-0.731419 0.476549 -0.455651)
(-0.72895 0.467888 -0.446646)
(-0.52245 0.433264 -0.362075)
(-0.616402 0.458805 -0.407133)
(-0.57444 0.46696 -0.382988)
(-0.281777 0.427137 -0.381415)
(-0.259622 0.478004 -0.381024)
(-0.242053 0.445456 -0.380699)
(-0.171263 0.42638 -0.379476)
(-0.175098 0.455925 -0.367598)
(-0.143536 0.396069 -0.357772)
(-0.643009 0.676416 -0.364376)
(-0.540497 0.598536 -0.319979)
(-0.606505 0.675811 -0.364793)
(-0.5928 0.656485 -0.365555)
(-0.62884 0.610961 -0.345534)
(-0.589241 0.637889 -0.327828)
(-0.544307 0.573661 -0.301471)
(-0.551533 0.544189 -0.300509)
(-0.512505 0.573744 -0.307292)
(-0.603024 0.674989 -0.387111)
(-0.565599 0.633413 -0.356966)
(-0.519641 0.582291 -0.325433)
(-0.479097 0.55366 -0.299957)
(-0.643314 0.658114 -0.361552)
(-0.699558 0.663255 -0.405199)
(-0.543655 0.571194 -0.302542)
(-0.653295 0.669336 -0.366656)
(-0.541558 0.596403 -0.36099)
(-0.500477 0.547795 -0.320743)
(-0.584612 0.601015 -0.35964)
(-0.556083 0.58929 -0.35075)
(-0.515027 0.532848 -0.307851)
(-0.488869 0.524642 -0.294564)
(-0.628626 0.657552 -0.381068)
(-0.665608 0.672656 -0.396678)
(-0.623384 0.666544 -0.388834)
(-0.939127 0.692654 -0.515067)
(-0.939604 0.690654 -0.536758)
(-0.925931 0.756636 -0.491013)
(-0.92823 0.723681 -0.514292)
(-0.941006 0.737665 -0.491307)
(-0.891799 0.704211 -0.493843)
(-0.971037 0.720089 -0.557406)
(-0.950803 0.650829 -0.51219)
(-0.940573 0.655342 -0.49336)
(-0.990892 0.699042 -0.533797)
(-0.940112 0.690372 -0.469453)
(-0.917237 0.632201 -0.484701)
(-0.956186 0.72226 -0.54206)
(-0.927642 0.769766 -0.511892)
(-0.947332 0.73659 -0.489834)
(-0.947761 0.737462 -0.519208)
(-0.969715 0.714652 -0.503788)
(-0.685079 0.409704 -0.280861)
(-0.649108 0.397853 -0.241642)
(-0.791486 0.374186 -0.281132)
(-0.725118 0.382842 -0.247637)
(-0.886298 0.365301 -0.377009)
(-0.780637 0.382426 -0.315675)
(-0.749499 0.391682 -0.306365)
(-0.731632 0.38337 -0.290255)
(-0.671173 0.384533 -0.249419)
(-0.732952 0.371387 -0.255702)
(-0.820467 0.359044 -0.307349)
(-0.704101 0.407731 -0.278592)
(-0.651443 0.388728 -0.239813)
(-0.751137 0.389829 -0.265939)
(-0.938227 0.347911 -0.391026)
(-0.859449 0.385389 -0.339792)
(-0.875244 0.355513 -0.392997)
(-0.99477 0.365489 -0.441984)
(-0.816034 0.368527 -0.352016)
(-0.920608 0.347787 -0.385593)
(-0.802248 0.723739 -0.400562)
(-0.784714 0.72973 -0.387791)
(-0.811769 0.705371 -0.387915)
(-0.803994 0.715278 -0.40345)
(-0.852102 0.731719 -0.440078)
(-0.88336 0.719165 -0.458205)
(-0.922125 0.752677 -0.476322)
(-0.785277 0.730942 -0.39717)
(-0.858264 0.71102 -0.454509)
(-0.853246 0.704127 -0.420542)
(-0.833248 0.720068 -0.458908)
(-0.827906 0.710651 -0.437526)
(-0.839258 0.767695 -0.462149)
(-0.905575 0.774647 -0.505993)
(-0.733156 0.237474 -0.254305)
(-0.654512 0.215411 -0.213761)
(-0.714374 0.217866 -0.252634)
(-0.649402 0.214681 -0.211718)
(-0.595626 0.210404 -0.183415)
(-0.866732 0.255546 -0.340487)
(-0.828924 0.243489 -0.319858)
(-0.615966 0.207434 -0.205097)
(-0.691367 0.213165 -0.273089)
(-0.649803 0.205055 -0.241733)
(-0.782404 0.459103 -0.367632)
(-0.798424 0.438521 -0.383869)
(-0.701449 0.445134 -0.297441)
(-0.72962 0.465756 -0.322546)
(-0.697933 0.460152 -0.278072)
(-0.723986 0.508366 -0.309757)
(-0.693361 0.477837 -0.27832)
(-0.797587 0.529633 -0.372037)
(-0.852177 0.582046 -0.429054)
(-0.87205 0.502733 -0.439139)
(-0.836517 0.491795 -0.405348)
(-0.751505 0.41084 -0.336895)
(-0.710729 0.441605 -0.294899)
(-0.718013 0.483627 -0.307056)
(-0.687622 0.472567 -0.280999)
(-0.799846 0.504484 -0.367855)
(-0.789488 0.546715 -0.379336)
(-0.812778 0.46343 -0.381714)
(-0.78176 0.426685 -0.348238)
(-0.854437 0.460481 -0.41612)
(-0.478846 0.342347 -0.112407)
(-0.45959 0.323893 -0.122256)
(-0.419485 0.311793 -0.0951575)
(-0.467526 0.357802 -0.103475)
(-0.430109 0.326568 -0.0934701)
(-0.552129 0.407011 -0.157813)
(-0.509485 0.385689 -0.125445)
(-0.55188 0.378827 -0.158295)
(-0.564573 0.341292 -0.184919)
(-0.595525 0.355389 -0.193798)
(-0.464214 0.317279 -0.104944)
(-0.4889 0.3177 -0.130843)
(-0.578586 0.409172 -0.175742)
(-0.500036 0.382084 -0.109538)
(-0.493682 0.349133 -0.10777)
(-0.480269 0.346472 -0.104136)
(-0.580615 0.372869 -0.170256)
(-0.574824 0.374007 -0.164884)
(-0.514494 0.357804 -0.112901)
(-0.485598 0.342145 -0.110356)
(-0.750686 0.568282 -0.368919)
(-0.676107 0.601143 -0.344961)
(-0.705624 0.593143 -0.365101)
(-0.662761 0.560399 -0.311799)
(-0.748243 0.597023 -0.386476)
(-0.698028 0.611824 -0.373065)
(-0.621805 0.6092 -0.296852)
(-0.744107 0.606523 -0.417469)
(-0.669802 0.589145 -0.336411)
(-0.739308 0.628569 -0.429841)
(-0.681876 0.628966 -0.389772)
(-0.609262 0.626575 -0.310167)
(-0.721929 0.608087 -0.408892)
(-0.624249 0.612186 -0.357692)
(-0.58672 0.43686 -0.162549)
(-0.580105 0.423392 -0.151772)
(-0.536388 0.458919 -0.13645)
(-0.546137 0.484224 -0.164229)
(-0.501259 0.461523 -0.131318)
(-0.566163 0.448385 -0.149343)
(-0.51122 0.439231 -0.125533)
(-0.602583 0.443235 -0.195943)
(-0.57617 0.477427 -0.193005)
(-0.678396 0.425944 -0.24566)
(-0.667213 0.436306 -0.244278)
(-0.671801 0.477184 -0.262194)
(-0.698791 0.422459 -0.252436)
(-0.665816 0.438401 -0.222904)
(-0.561509 0.486674 -0.170186)
(-0.59659 0.493413 -0.219285)
(-0.675579 0.47907 -0.282812)
(-0.670261 0.471529 -0.248274)
(-0.808952 0.791791 -0.49752)
(-0.795183 0.79689 -0.520337)
(-0.822485 0.789511 -0.530093)
(-0.828344 0.797703 -0.548615)
(-0.793338 0.797996 -0.522574)
(-0.815175 0.821869 -0.543775)
(-0.616072 0.315325 -0.334838)
(-0.585476 0.301544 -0.293657)
(-0.607087 0.297336 -0.315639)
(-0.563628 0.276215 -0.303766)
(-0.636413 0.301389 -0.317259)
(-0.640849 0.314315 -0.342132)
(-0.602677 0.308574 -0.328421)
(-0.609947 0.326646 -0.311635)
(-0.570904 0.285485 -0.265819)
(-0.649419 0.300213 -0.316587)
(-0.648157 0.350212 -0.292906)
(-0.620496 0.318948 -0.266756)
(-0.721851 0.376413 -0.336188)
(-0.747173 0.386919 -0.372696)
(-0.659134 0.331179 -0.292432)
(-0.71524 0.336089 -0.348787)
(-0.784247 0.370934 -0.380105)
(-0.641851 0.339956 -0.284517)
(-0.762342 0.40817 -0.356317)
(-0.767914 0.380341 -0.379502)
(-0.732825 0.363932 -0.332527)
(-0.709305 0.365235 -0.315471)
(-0.652841 0.679222 -0.276135)
(-0.544612 0.683206 -0.238832)
(-0.375182 0.623542 -0.130151)
(-0.448296 0.639099 -0.135642)
(-0.636142 0.69238 -0.253514)
(-0.654061 0.658177 -0.247462)
(-0.360311 0.610755 -0.0972064)
(-0.371742 0.626764 -0.136246)
(-0.349237 0.612582 -0.11757)
(-0.485416 0.633248 -0.13333)
(-0.404374 0.607107 -0.10609)
(-0.403158 0.616215 -0.124696)
(-0.397897 0.62847 -0.167897)
(-0.510893 0.64302 -0.239075)
(-0.507052 0.640662 -0.244957)
(-0.594296 0.673008 -0.233375)
(-0.399456 0.651215 -0.166877)
(-0.655319 0.641911 -0.260073)
(-0.62003 0.655451 -0.221376)
(-0.520143 0.626025 -0.14782)
(-0.429806 0.614592 -0.112476)
(-0.476454 0.638766 -0.146065)
(-0.616327 0.661638 -0.222435)
(-0.528791 0.670085 -0.213067)
(-0.603229 0.655487 -0.219848)
(-0.593942 0.659036 -0.215931)
(-0.522972 0.352964 -0.316939)
(-0.483619 0.327304 -0.305184)
(-0.490373 0.363854 -0.341992)
(-0.471475 0.34962 -0.327993)
(-0.52519 0.322658 -0.317208)
(-0.356521 0.293445 -0.297059)
(-0.46993 0.35284 -0.343581)
(-0.37851 0.329229 -0.333052)
(-0.272556 0.232024 -0.251593)
(-0.264321 0.232585 -0.242818)
(-0.255582 0.227978 -0.2385)
(-0.228757 0.214702 -0.2093)
(-0.328044 0.235933 -0.164209)
(-0.366498 0.246893 -0.179076)
(-0.40926 0.275407 -0.208147)
(-0.298747 0.225516 -0.228831)
(-0.413353 0.262781 -0.241332)
(-0.395661 0.264804 -0.250979)
(-0.239308 0.207085 -0.192983)
(-0.257512 0.220478 -0.185849)
(-0.222075 0.205798 -0.180066)
(-0.305597 0.219248 -0.185235)
(-0.295357 0.230358 -0.187913)
(-0.272377 0.213121 -0.19434)
(-0.359996 0.257177 -0.222576)
(-0.268571 0.224076 -0.219501)
(-0.58323 0.624219 -0.434762)
(-0.62889 0.65822 -0.44689)
(-0.546835 0.569963 -0.38964)
(-0.58291 0.598857 -0.404689)
(-0.559371 0.642588 -0.443301)
(-0.504336 0.600914 -0.41773)
(-0.548493 0.610084 -0.431142)
(-0.453933 0.602789 -0.432234)
(-0.640399 0.633991 -0.442094)
(-0.50393 0.535544 -0.37263)
(-0.458833 0.512928 -0.357428)
(-0.409337 0.535172 -0.377549)
(-0.607499 0.642079 -0.456375)
(-0.525089 0.587529 -0.424056)
(-0.599811 0.602796 -0.433801)
(-0.568285 0.580839 -0.420883)
(-0.466361 0.530005 -0.381849)
(-0.83899 0.406482 -0.289901)
(-0.771187 0.361883 -0.267507)
(-0.926852 0.394656 -0.375292)
(-0.993484 0.407036 -0.42761)
(-0.864102 0.395677 -0.341854)
(-0.870062 0.381486 -0.335573)
(-0.936324 0.457776 -0.316465)
(-0.857498 0.392582 -0.305619)
(-0.808875 0.386992 -0.300203)
(-0.751558 0.363056 -0.262833)
(-0.855443 0.411545 -0.288232)
(-0.775074 0.382577 -0.268576)
(-0.780413 0.408923 -0.274575)
(-0.830299 0.425715 -0.284756)
(-0.873082 0.429226 -0.333651)
(-0.876744 0.44007 -0.3462)
(-0.947432 0.458836 -0.380863)
(-0.951796 0.430188 -0.391711)
(-0.922663 0.41157 -0.386001)
(-0.843986 0.418449 -0.312635)
(-0.930821 0.454306 -0.406688)
(-0.84812 0.407207 -0.338861)
(-0.923778 0.415884 -0.39102)
(-0.791555 0.387681 -0.443224)
(-0.737019 0.391672 -0.403208)
(-0.823085 0.37876 -0.46525)
(-0.860546 0.387009 -0.471315)
(-0.720199 0.395256 -0.362665)
(-0.729132 0.381007 -0.389566)
(-0.736235 0.389324 -0.371176)
(-0.734651 0.404594 -0.342047)
(-0.755474 0.380342 -0.365388)
(-0.815597 0.344391 -0.394826)
(-0.807766 0.352544 -0.398788)
(-0.832763 0.367404 -0.45983)
(-0.765521 0.386561 -0.367763)
(-0.767614 0.380427 -0.365749)
(-0.953758 0.334876 -0.480794)
(-0.888892 0.352527 -0.45032)
(-0.952562 0.35529 -0.505359)
(-0.940887 0.360862 -0.496797)
(-0.932027 0.342054 -0.458244)
(-0.93614 0.360471 -0.49157)
(-0.344865 0.318686 -0.292062)
(-0.433659 0.334195 -0.315867)
(-0.646974 0.407502 -0.350526)
(-0.643615 0.404661 -0.352267)
(-0.667194 0.412594 -0.378303)
(-0.639384 0.392579 -0.356898)
(-0.926703 0.485642 -0.462811)
(-0.942221 0.507061 -0.509904)
(-0.875853 0.495784 -0.468837)
(-0.843634 0.488234 -0.470026)
(-0.778248 0.436823 -0.396838)
(-0.736028 0.439025 -0.386159)
(-0.704737 0.435798 -0.416393)
(-0.768641 0.448769 -0.431403)
(-0.773753 0.438735 -0.425203)
(-0.929529 0.471877 -0.465622)
(-0.74133 0.452419 -0.417082)
(-0.790995 0.431529 -0.402078)
(-0.541794 0.401891 -0.125932)
(-0.541439 0.38728 -0.14028)
(-0.547917 0.417053 -0.126838)
(-0.526486 0.402619 -0.125378)
(-0.781338 0.408596 -0.329734)
(-0.693626 0.388049 -0.235106)
(-0.633917 0.388024 -0.196163)
(-0.655478 0.378693 -0.223804)
(-0.60783 0.399248 -0.179282)
(-0.58371 0.43923 -0.149585)
(-0.594711 0.440835 -0.167786)
(-0.775631 0.410238 -0.31525)
(-0.634089 0.447928 -0.198182)
(-0.679861 0.424416 -0.231548)
(-0.695918 0.449828 -0.26282)
(-0.830409 0.279494 -0.363392)
(-0.866368 0.267794 -0.35685)
(-0.770436 0.255204 -0.305263)
(-0.719335 0.250583 -0.236099)
(-0.875326 0.29444 -0.334537)
(-0.9019 0.275533 -0.362646)
(-0.924664 0.292664 -0.372355)
(-0.974515 0.288136 -0.40931)
(-0.934359 0.302932 -0.359749)
(-0.947238 0.296776 -0.400544)
(-0.880453 0.297867 -0.386486)
(-0.826557 0.281892 -0.331685)
(-0.973627 0.300522 -0.419412)
(-0.899403 0.302317 -0.341683)
(-0.843825 0.303477 -0.299464)
(-0.752908 0.586666 -0.463485)
(-0.814085 0.583038 -0.483784)
(-0.538902 0.564447 -0.385974)
(-0.673747 0.550868 -0.431547)
(-0.691126 0.573227 -0.420433)
(-0.475547 0.529443 -0.365727)
(-0.570473 0.530509 -0.398524)
(-0.851122 0.58412 -0.491715)
(-0.833386 0.563555 -0.484485)
(-0.727954 0.56359 -0.441491)
(-0.716601 0.585376 -0.42881)
(-0.692215 0.550476 -0.446941)
(-0.574071 0.578013 -0.398844)
(-0.623355 0.58735 -0.406684)
(-0.59096 0.528814 -0.407615)
(-0.677607 0.541747 -0.443182)
(-0.73665 0.545537 -0.465725)
(-0.712062 0.618531 -0.42106)
(-0.457169 0.19114 -0.124361)
(-0.488415 0.195641 -0.132907)
(-0.500738 0.246086 -0.124628)
(-0.444928 0.207391 -0.120515)
(-0.406997 0.211915 -0.0931746)
(-0.478881 0.196176 -0.140225)
(-0.456021 0.216908 -0.103829)
(-0.429674 0.198591 -0.104429)
(-0.507094 0.271399 -0.105277)
(-0.437035 0.238525 -0.0879534)
(-0.585594 0.26206 -0.18229)
(-0.584816 0.229304 -0.198726)
(-0.565822 0.225535 -0.193183)
(-0.60359 0.285183 -0.166681)
(-0.554387 0.288017 -0.12418)
(-0.544016 0.273533 -0.113568)
(-0.488994 0.236172 -0.108551)
(-0.48962 0.25295 -0.0965826)
(-0.318312 0.524612 -0.209855)
(-0.341101 0.52523 -0.235338)
(-0.563844 0.514374 -0.292596)
(-0.354813 0.517027 -0.196628)
(-0.381841 0.524258 -0.19605)
(-0.57559 0.529611 -0.295154)
(-0.531611 0.531206 -0.259384)
(-0.364013 0.548582 -0.216885)
(-0.358183 0.530381 -0.185173)
(-0.338776 0.517379 -0.189979)
(-0.298915 0.512769 -0.18565)
(-0.395637 0.53985 -0.22919)
(-0.496465 0.482227 -0.314019)
(-0.53067 0.501398 -0.313134)
(-0.446998 0.519729 -0.289382)
(-0.51377 0.541182 -0.266157)
(-0.312056 0.506755 -0.237821)
(-0.272089 0.486045 -0.213803)
(-0.377213 0.524039 -0.256217)
(-0.349442 0.517281 -0.254618)
(-0.330326 0.495935 -0.244541)
(-0.478528 0.510531 -0.31933)
(-0.503279 0.665616 -0.315574)
(-0.504372 0.650059 -0.319129)
(-0.481851 0.671672 -0.301862)
(-0.527287 0.680223 -0.328531)
(-0.518926 0.658485 -0.3251)
(-0.647067 0.662162 -0.37676)
(-0.677475 0.651486 -0.376386)
(-0.558775 0.659577 -0.346427)
(-0.556852 0.669897 -0.319563)
(-0.623954 0.678523 -0.365757)
(-0.633397 0.679562 -0.398546)
(-0.685915 0.664503 -0.429405)
(-0.659116 0.644018 -0.365741)
(-0.665973 0.672186 -0.365176)
(-0.625553 0.672383 -0.340387)
(-0.771382 0.671166 -0.442209)
(-0.748456 0.664695 -0.428448)
(-0.669009 0.672444 -0.409558)
(-0.576706 0.408924 -0.246557)
(-0.615839 0.447041 -0.267745)
(-0.655352 0.424649 -0.301508)
(-0.646537 0.396943 -0.311314)
(-0.701335 0.488691 -0.338875)
(-0.664432 0.430405 -0.322649)
(-0.590523 0.379833 -0.273229)
(-0.637474 0.403532 -0.314426)
(-0.530956 0.336417 -0.259047)
(-0.531942 0.347893 -0.257064)
(-0.602255 0.574155 -0.367799)
(-0.664713 0.611431 -0.333491)
(-0.713843 0.608658 -0.366278)
(-0.864088 0.539372 -0.437979)
(-0.780135 0.455369 -0.39843)
(-0.895755 0.606261 -0.44692)
(-0.847169 0.617469 -0.41043)
(-0.619346 0.528933 -0.393561)
(-0.674656 0.528501 -0.427404)
(-0.633643 0.636492 -0.371292)
(-0.683928 0.572096 -0.364633)
(-0.627808 0.586911 -0.370576)
(-0.817893 0.528951 -0.426402)
(-0.822451 0.543472 -0.438284)
(-0.795949 0.507154 -0.410887)
(-0.681041 0.467454 -0.374409)
(-0.795505 0.574923 -0.410318)
(-0.635939 0.537561 -0.414611)
(-0.706943 0.543737 -0.396003)
(-0.882347 0.617351 -0.373384)
(-0.932894 0.576469 -0.409477)
(-0.937429 0.570554 -0.413054)
(-0.892094 0.503227 -0.41873)
(-0.867218 0.611096 -0.376232)
(-0.866938 0.591689 -0.393023)
(-0.811834 0.541823 -0.368932)
(-0.888895 0.585033 -0.358199)
(-0.836352 0.571159 -0.327472)
(-0.802986 0.592419 -0.372974)
(-0.800637 0.58028 -0.329072)
(-0.843581 0.570562 -0.337237)
(-0.821786 0.595447 -0.309798)
(-0.768828 0.605191 -0.332669)
(-0.4257 0.633302 -0.202162)
(-0.416322 0.618723 -0.179207)
(-0.406407 0.594129 -0.159492)
(-0.5718 0.646943 -0.278412)
(-0.593087 0.61385 -0.263535)
(-0.516262 0.585311 -0.193506)
(-0.57066 0.582883 -0.225744)
(-0.586184 0.569486 -0.22787)
(-0.554943 0.605937 -0.227702)
(-0.530606 0.639448 -0.23606)
(-0.451126 0.583751 -0.156966)
(-0.590604 0.671946 -0.31358)
(-0.619938 0.578564 -0.266848)
(-0.660957 0.594707 -0.3014)
(-0.55322 0.585107 -0.211325)
(-0.529059 0.661375 -0.281821)
(-0.643101 0.654705 -0.332456)
(-0.574801 0.662003 -0.294716)
(-0.680063 0.617334 -0.347414)
(-0.675555 0.629713 -0.352156)
(-0.672079 0.625462 -0.339528)
(-0.664699 0.609068 -0.321135)
(-0.688332 0.625083 -0.3865)
(-0.688654 0.636517 -0.370906)
(-0.659792 0.610405 -0.342017)
(-0.629774 0.609984 -0.317722)
(-0.671751 0.631881 -0.371732)
(-0.667173 0.620545 -0.380229)
(-0.539989 0.533596 -0.275111)
(-0.519619 0.510639 -0.261526)
(-0.550585 0.536232 -0.30968)
(-0.5088 0.50495 -0.288178)
(-0.556152 0.526855 -0.272055)
(-0.571681 0.546497 -0.273825)
(-0.571678 0.547386 -0.332256)
(-0.546723 0.516279 -0.298756)
(-0.613462 0.597669 -0.329708)
(-0.535987 0.542182 -0.288754)
(-0.604087 0.553395 -0.316378)
(-0.523805 0.697888 -0.216273)
(-0.522928 0.709809 -0.231069)
(-0.413554 0.663359 -0.154331)
(-0.45479 0.684478 -0.176382)
(-0.431267 0.65235 -0.14067)
(-0.387948 0.648673 -0.130471)
(-0.482831 0.631 -0.164387)
(-0.440521 0.624994 -0.142089)
(-0.540485 0.702543 -0.224822)
(-0.446768 0.68357 -0.183443)
(-0.637517 0.709547 -0.2755)
(-0.631404 0.730015 -0.260991)
(-0.452388 0.666159 -0.151355)
(-0.463348 0.646247 -0.1449)
(-0.497468 0.627827 -0.175255)
(-0.429683 0.63073 -0.126922)
(-0.455556 0.617819 -0.154697)
(-0.407578 0.613525 -0.139724)
(-0.580261 0.708334 -0.233985)
(-0.59785 0.677651 -0.238086)
(-0.508407 0.654174 -0.183647)
(-0.461103 0.645191 -0.160967)
(-0.465084 0.555387 -0.362046)
(-0.410073 0.53463 -0.375876)
(-0.454306 0.507102 -0.404364)
(-0.64057 0.605197 -0.358797)
(-0.619357 0.640278 -0.362121)
(-0.457445 0.58658 -0.358864)
(-0.402389 0.53876 -0.38006)
(-0.326918 0.561635 -0.347527)
(-0.607453 0.569833 -0.400345)
(-0.647236 0.548801 -0.407622)
(-0.342519 0.59498 -0.337819)
(-0.346015 0.582391 -0.344158)
(-0.418886 0.561713 -0.356115)
(-0.524508 0.665789 -0.341722)
(-0.508543 0.661134 -0.346673)
(-0.349778 0.607788 -0.338486)
(-0.415377 0.416663 -0.374735)
(-0.428179 0.396817 -0.369006)
(-0.562059 0.389778 -0.39385)
(-0.560775 0.417598 -0.389238)
(-0.461254 0.357043 -0.361954)
(-0.405812 0.443355 -0.35903)
(-0.38253 0.409962 -0.358306)
(-0.410714 0.368578 -0.360615)
(-0.43161 0.404107 -0.370877)
(-0.649788 0.43023 -0.402398)
(-0.648484 0.400888 -0.403451)
(-0.487699 0.360989 -0.364423)
(-0.588044 0.341637 -0.369727)
(-0.623373 0.384988 -0.40012)
(-0.470977 0.371128 -0.364643)
(-0.588487 0.375484 -0.392173)
(-0.673399 0.414974 -0.412595)
(-0.430751 0.445008 -0.353348)
(-0.596056 0.427357 -0.387841)
(-0.100424 0.511362 -0.337323)
(-0.070147 0.472313 -0.339149)
(-0.428627 0.633211 -0.142454)
(-0.391496 0.647722 -0.135181)
(-0.519449 0.589101 -0.409736)
(-0.469161 0.584457 -0.414712)
(-0.341533 0.658063 -0.254551)
(-0.328509 0.645705 -0.22734)
(-0.414069 0.606832 -0.424248)
(-0.432036 0.6464 -0.423753)
(-0.230644 0.672721 -0.157735)
(-0.176838 0.66803 -0.177702)
(-0.495782 0.490355 -0.304673)
(-0.480771 0.46865 -0.273228)
(-0.494194 0.564822 -0.156573)
(-0.473568 0.536613 -0.154495)
(-0.501947 0.527179 -0.170403)
(-0.122962 0.486659 -0.322857)
(-0.109542 0.452576 -0.327673)
(-0.382098 0.495128 -0.0987426)
(-0.413182 0.543255 -0.121456)
(-0.412192 0.496774 -0.0983269)
(-0.381887 0.529258 -0.10472)
(-0.393395 0.639978 -0.230563)
(-0.393198 0.620515 -0.19169)
(-0.180286 0.28284 -0.296147)
(-0.189581 0.261502 -0.284425)
(-0.500979 0.498714 -0.393237)
(-0.503834 0.48068 -0.356688)
(-0.476381 0.607265 -0.404658)
(-0.398399 0.598688 -0.3715)
(-0.414378 0.622747 -0.358456)
(-0.354733 0.27092 -0.130394)
(-0.32249 0.257137 -0.133879)
(-0.329087 0.237573 -0.142117)
(-0.331602 0.265427 -0.123683)
(-0.362198 0.288441 -0.116078)
(-0.50845 0.55423 -0.128282)
(-0.47033 0.558356 -0.116263)
(-0.173082 0.622954 -0.184299)
(-0.246633 0.623447 -0.181298)
(-0.293112 0.638506 -0.165229)
(-0.133557 0.489884 -0.289613)
(-0.146868 0.51237 -0.274609)
(-0.506898 0.433781 -0.215728)
(-0.506751 0.427221 -0.229566)
(-0.513665 0.423707 -0.26209)
(-0.491795 0.43823 -0.224016)
(-0.430959 0.6311 -0.286579)
(-0.435271 0.641797 -0.246944)
(-0.434087 0.394085 -0.0945866)
(-0.402152 0.382942 -0.0838301)
(-0.176366 0.306674 -0.312813)
(-0.185369 0.334574 -0.314051)
(-0.446563 0.586141 -0.0876974)
(-0.389297 0.597835 -0.0811342)
(-0.168487 0.451635 -0.298358)
(-0.155414 0.42808 -0.299623)
(-0.397128 0.290402 -0.108305)
(-0.438614 0.516065 -0.12434)
(-0.448619 0.527718 -0.14295)
(-0.252185 0.192835 -0.19365)
(-0.278609 0.185496 -0.180021)
(-0.469507 0.523406 -0.378486)
(-0.439251 0.543304 -0.350245)
(-0.245419 0.592897 -0.164137)
(-0.211713 0.58025 -0.192723)
(-0.500901 0.414182 -0.293561)
(-0.517413 0.436659 -0.329857)
(-0.507348 0.446668 -0.335347)
(-0.443914 0.588723 -0.299247)
(-0.460248 0.612463 -0.301298)
(-0.506327 0.426583 -0.137746)
(-0.486493 0.44006 -0.112757)