/*--------------------------------*- C++ -*----------------------------------*\
| =========                 |                                                 |
| \\      /  F ield         | OpenFOAM: The Open Source CFD Toolbox           |
|  \\    /   O peration     | Version:  v1612+                                |
|   \\  /    A nd           | Web:      www.OpenFOAM.com                      |
|    \\/     M anipulation  |                                                 |
\*---------------------------------------------------------------------------*/
FoamFile
{
    version     2.0;
    format      ascii;
    class       surfaceScalarField;
    location    "50";
    object      phi;
}
// * * * * * * * * * * * * * * * * * * * * * * * * * * * * * * * * * * * * * //

dimensions      [0 3 -1 0 0 0 0];

internalField   nonuniform List<scalar> 
37033
(
-1.05186e-08
-5.61771e-09
4.18996e-09
1.19462e-08
-6.24418e-09
-2.90125e-09
-1.37307e-09
-9.96066e-09
1.28153e-08
1.21653e-08
-2.92849e-09
-1.42625e-08
8.87288e-10
7.75796e-09
-6.34691e-09
-3.48904e-09
2.04943e-08
-5.11392e-09
1.39915e-08
7.9126e-09
1.25863e-08
1.1752e-08
-3.82973e-10
3.75756e-09
1.83258e-08
2.35715e-09
9.84627e-09
4.79728e-10
2.54309e-08
1.68284e-08
-3.19491e-08
3.08679e-08
-1.69408e-09
2.77553e-09
-9.79082e-10
-2.75592e-08
-1.45483e-08
1.78149e-08
2.42925e-08
-1.96497e-08
-6.60199e-10
-7.24944e-09
2.09041e-08
1.98102e-08
-1.91212e-08
1.77571e-08
-3.29895e-10
-7.89428e-09
-1.2206e-08
1.43508e-08
-1.3506e-08
-3.3822e-09
3.18468e-09
3.65569e-09
6.09318e-09
1.11552e-08
7.13473e-09
1.42779e-08
5.16404e-09
2.04385e-08
-1.84681e-08
-5.11238e-09
2.80913e-08
-1.03549e-08
1.13358e-08
-1.00407e-08
9.90444e-09
3.09128e-09
1.04013e-09
-3.71023e-09
8.69662e-09
-6.02684e-09
-4.98374e-09
-2.44064e-09
8.46449e-09
6.22708e-09
-3.9928e-09
-1.21248e-09
-1.02191e-09
-4.6702e-09
5.91359e-09
-7.31135e-10
-8.4484e-09
5.4694e-09
2.1579e-09
-7.46431e-09
4.57538e-09
-5.27731e-09
4.9946e-09
5.23823e-09
-3.97003e-09
-5.261e-09
6.3852e-10
-7.04392e-11
2.10007e-09
-4.45538e-09
-5.10886e-09
-3.26409e-09
-3.08427e-09
-4.67793e-09
3.92517e-11
-6.25981e-09
-3.76367e-09
6.75933e-09
-1.91205e-09
-1.06878e-08
6.34e-09
-9.03891e-09
3.15691e-09
7.80424e-09
3.6377e-10
-1.00904e-08
1.92226e-09
8.78027e-10
-9.20641e-10
7.84681e-09
4.08092e-09
-1.35204e-09
2.82507e-09
-5.55382e-09
2.03349e-09
2.09776e-09
-5.02807e-11
3.9274e-09
-5.94012e-09
6.60704e-10
2.15894e-09
1.81232e-09
-4.39219e-11
-4.62285e-09
-5.48014e-10
6.04887e-09
-6.36729e-09
2.10819e-09
2.97777e-09
-9.54772e-09
-3.52046e-09
2.82089e-09
-7.02922e-09
-7.37901e-09
6.54515e-09
2.86731e-09
1.35389e-09
-5.90783e-09
-1.06862e-08
7.65796e-10
8.99979e-09
-6.35458e-09
3.73093e-09
1.79133e-10
1.18968e-09
6.12127e-09
4.37261e-09
2.09963e-09
1.26957e-08
-9.49408e-09
-5.30053e-09
-6.44465e-09
1.99128e-08
-1.13679e-08
2.60138e-09
-1.95596e-09
9.9502e-09
-1.05948e-08
9.2561e-09
3.98795e-09
-1.06422e-08
1.36027e-08
-1.30883e-08
-6.95853e-09
5.42973e-09
1.13968e-08
-4.13014e-09
2.26374e-08
2.70566e-09
1.16205e-08
8.17075e-09
-1.05346e-08
-2.44599e-09
4.30513e-09
9.7619e-09
1.48486e-08
-3.41567e-09
-3.26174e-09
2.57706e-09
9.8258e-09
1.26751e-08
-4.69363e-09
-9.95583e-09
1.14921e-08
1.11395e-08
1.74114e-08
-1.74893e-09
-2.05895e-09
4.59918e-09
8.08275e-09
3.00939e-09
1.2487e-08
-1.11907e-08
3.28487e-09
1.07846e-08
9.07859e-09
1.29324e-08
1.5373e-08
6.67368e-11
-3.55472e-09
-7.76121e-09
1.12492e-08
-9.47115e-09
-4.49275e-09
1.40307e-08
-9.51996e-09
-8.57664e-09
8.62597e-09
-8.94374e-11
4.91676e-09
-8.38177e-09
-1.10014e-08
6.41916e-09
1.31977e-09
-1.15055e-08
6.65916e-10
1.05278e-09
-9.00798e-09
-6.21232e-10
2.74126e-10
-6.9824e-09
-1.13068e-08
1.62548e-09
-9.56348e-09
-1.09499e-08
7.69842e-09
-1.38896e-08
-3.37215e-09
3.60239e-10
-3.96838e-09
2.27996e-09
2.32711e-09
-2.10464e-09
-2.50248e-09
3.65652e-09
-1.3063e-09
-7.02322e-11
3.00493e-09
-5.15723e-10
-1.62007e-10
2.56323e-09
4.09813e-09
3.5681e-09
-1.82499e-09
-3.84767e-09
2.30111e-09
-3.91819e-11
9.61254e-10
-6.81266e-09
4.02645e-09
-2.62585e-09
6.36129e-09
-1.17213e-09
5.21319e-09
-8.50503e-09
4.25338e-09
3.46275e-09
-2.52113e-10
1.03031e-09
-4.24062e-09
4.70065e-09
-3.86373e-09
-2.58619e-10
5.21979e-09
-3.45318e-09
7.07896e-09
-5.19973e-09
1.57414e-09
-6.15661e-09
3.363e-09
-6.59509e-10
1.67054e-09
1.89772e-09
3.51077e-09
3.3062e-09
6.08382e-09
-7.71921e-09
-1.42013e-09
-6.3377e-10
-3.14563e-09
-3.02406e-09
-4.55259e-09
2.48591e-09
-1.25184e-09
-3.12014e-09
1.88657e-09
-4.03572e-09
-1.09826e-09
7.61967e-09
-3.06193e-10
-4.98058e-09
-5.87095e-09
4.64847e-09
-8.03031e-09
2.75385e-10
1.24226e-09
6.51275e-09
-4.63685e-09
6.84485e-09
-4.71963e-09
-4.17842e-09
2.26414e-10
8.67159e-09
-7.16876e-09
-5.58114e-09
7.03535e-09
-3.05627e-09
-7.00284e-09
1.22174e-09
8.27105e-10
4.98666e-09
-3.76881e-09
-2.73576e-09
-6.28401e-09
1.92257e-09
4.59383e-09
-1.03537e-09
-1.07269e-08
-3.3534e-09
-6.51168e-09
1.44952e-09
-1.06033e-08
-2.64316e-09
-9.46792e-09
7.40166e-09
4.70934e-09
-4.21665e-09
1.36271e-09
2.10759e-10
6.21011e-09
-5.07781e-09
-5.34902e-09
-1.46733e-09
-1.79046e-09
-1.61243e-09
2.21733e-09
6.79665e-09
-1.41553e-08
2.521e-09
1.00214e-08
-1.12577e-08
-4.36509e-09
-3.47387e-09
7.06535e-10
4.98442e-09
-2.34949e-09
2.38324e-10
1.52249e-09
-5.88781e-10
-6.01166e-09
-9.15092e-09
-5.84336e-10
-6.292e-09
-3.92328e-09
4.43697e-09
5.77823e-09
-6.64844e-10
-7.17012e-09
1.54301e-09
9.9669e-09
8.79909e-10
-1.15121e-08
2.55335e-09
9.93458e-09
2.67968e-09
-6.18933e-09
-3.66045e-09
-1.38332e-09
1.39784e-10
3.76858e-09
1.03622e-09
-5.39359e-09
3.57868e-11
7.69685e-09
-7.11031e-09
1.95705e-09
5.55204e-10
-4.18706e-09
2.8892e-09
7.41967e-10
-4.16922e-09
3.72152e-09
1.00269e-09
-9.99126e-10
-1.45872e-09
-1.72949e-09
4.23921e-09
-1.68766e-09
-3.5507e-09
-7.39736e-10
2.75491e-09
-4.71804e-09
2.70285e-09
-3.96527e-09
1.39384e-09
1.83172e-09
-2.67277e-09
3.87457e-09
1.55293e-09
-2.14111e-09
2.21108e-09
2.34865e-09
3.79841e-09
-1.57069e-09
-4.57664e-09
-4.618e-10
1.35156e-09
2.05279e-09
1.28378e-09
1.88685e-09
-1.02517e-09
-2.54935e-09
5.84357e-10
-3.62914e-09
-1.67359e-09
-1.82875e-09
-2.59735e-10
-1.77011e-11
-2.36576e-10
1.60802e-09
-4.20391e-09
-1.20304e-09
-7.09474e-10
-2.52751e-09
-2.30467e-09
-1.59283e-09
-2.53696e-10
-2.51238e-09
1.96051e-09
-3.06772e-09
5.4712e-09
-4.36369e-09
-4.98107e-10
8.08508e-09
-5.62635e-09
-3.94475e-09
-4.0378e-09
-3.18027e-10
8.30114e-09
3.77022e-09
-3.68015e-09
-4.03491e-09
2.54702e-09
1.1341e-09
8.95987e-11
4.02793e-09
-1.77795e-09
2.97107e-10
-1.41855e-09
4.94822e-09
1.94544e-09
-1.94725e-09
-3.67817e-09
-2.30886e-09
3.95802e-09
2.96565e-10
5.03829e-09
5.42606e-09
-3.27203e-09
-7.19163e-09
5.84216e-09
-2.35494e-09
-5.79567e-09
1.96767e-09
2.12768e-10
3.80394e-09
-2.59406e-09
-5.24712e-09
7.88881e-09
9.53627e-10
-5.51126e-09
9.02175e-09
1.91613e-09
2.38749e-09
-2.05652e-09
-4.0678e-09
-1.85911e-09
4.50867e-09
2.87321e-10
1.57042e-09
5.59233e-09
6.39152e-09
-8.86257e-10
-4.83756e-10
1.25643e-08
-1.11941e-08
-1.12162e-09
7.44085e-09
-7.20555e-09
-1.04685e-09
1.41507e-08
-1.42253e-08
-7.57568e-10
1.50334e-08
-1.47595e-08
1.61544e-08
-1.79584e-08
-6.57338e-09
1.70751e-08
-3.06081e-09
1.89618e-08
-1.13844e-08
1.92196e-08
-2.02641e-08
5.16551e-09
-4.12078e-09
7.08478e-09
-1.1507e-08
2.36419e-08
5.16761e-09
-2.04168e-08
2.00574e-08
-4.80823e-09
1.05801e-09
8.77055e-09
-1.41538e-08
6.94925e-09
9.79845e-09
-4.18332e-09
6.32777e-09
4.64692e-09
6.10036e-09
1.0168e-08
1.51219e-08
-1.04968e-08
-5.48261e-09
2.30645e-08
4.83697e-09
-3.83713e-09
1.23877e-08
-6.0769e-09
-9.17728e-09
9.77174e-09
-1.59793e-08
6.06542e-09
-2.59508e-10
5.26811e-09
2.07185e-08
1.27706e-11
-7.23317e-09
-1.34979e-08
1.24207e-08
-8.54762e-09
1.68455e-08
9.94718e-09
-8.50148e-09
-1.91004e-08
1.76545e-08
1.11527e-09
-1.09309e-08
1.97628e-08
7.75594e-09
-2.49758e-08
2.58875e-08
-8.66737e-09
-2.53605e-08
3.39971e-08
-8.80569e-10
5.69051e-09
5.77938e-10
-3.12442e-08
5.83435e-09
-2.55043e-08
2.06993e-08
-1.48522e-08
1.08465e-08
-2.85642e-10
1.01388e-08
5.65462e-09
1.76126e-08
1.85459e-08
-4.64474e-09
-2.11342e-08
6.26853e-09
3.72969e-09
-6.17644e-09
1.29463e-08
-1.52953e-08
6.17398e-10
-1.46321e-09
-1.77426e-08
8.27508e-09
-3.21778e-08
1.16142e-08
1.59688e-08
-1.42389e-08
5.21221e-09
-6.94797e-09
6.57767e-10
1.51776e-08
-1.92443e-08
-6.00927e-09
1.13146e-08
-2.20553e-09
-7.3376e-09
-1.7712e-09
-1.17764e-11
-3.60638e-10
1.16874e-08
6.24756e-09
-7.05473e-09
-1.39809e-09
-9.47868e-10
7.184e-09
8.95251e-09
-7.77595e-09
-8.51398e-09
-3.48189e-10
8.94009e-09
-1.38634e-09
8.08013e-09
-7.64149e-09
-1.79969e-09
-5.67832e-10
-4.68675e-09
-3.16702e-10
-1.02932e-08
9.22346e-09
-9.34293e-09
8.67799e-09
-8.59962e-10
-8.71541e-09
3.3562e-09
-9.8433e-09
-2.85589e-09
-7.89419e-09
9.57296e-10
-2.50077e-09
-8.58646e-09
3.19308e-09
-1.3204e-08
1.72452e-09
1.21331e-08
-1.74937e-08
3.63603e-09
1.11069e-08
-1.43563e-08
4.97382e-09
1.77895e-08
-1.24769e-08
-2.82556e-09
-2.487e-09
1.34894e-09
-8.76389e-10
1.73169e-08
1.49172e-09
-1.11326e-09
1.17545e-08
3.70431e-10
1.22282e-08
8.78689e-10
1.05571e-08
-1.00867e-08
5.85457e-09
-6.5271e-09
-1.6821e-08
-1.92818e-09
-6.5735e-09
1.8276e-08
-1.21434e-08
-1.86095e-08
1.62863e-08
-1.02686e-08
1.15177e-08
6.59555e-09
-4.91955e-09
-3.60402e-09
-7.16311e-09
3.49019e-09
-1.10836e-08
-5.61771e-09
9.53837e-09
-1.91473e-09
-1.40884e-08
-2.05851e-08
4.61905e-09
-1.08417e-08
1.1133e-08
-4.91019e-09
-8.58167e-09
-7.55119e-10
1.39559e-08
1.01862e-08
7.42263e-09
3.93532e-09
-2.15442e-08
1.5869e-09
-2.24238e-09
8.65974e-09
-1.62971e-08
-9.9781e-09
1.76155e-08
-1.31928e-09
4.37293e-09
5.60613e-09
5.11903e-09
4.69473e-09
1.06606e-08
-1.18196e-08
1.52447e-08
1.20978e-08
-2.34072e-08
5.34498e-10
-1.85231e-08
-2.0119e-09
-5.67636e-09
-2.1792e-08
-3.08852e-09
6.3575e-09
-1.57649e-08
-6.18731e-09
-1.60535e-08
3.99428e-09
-3.70556e-09
3.41494e-09
-8.80787e-09
-6.27934e-09
7.68823e-09
-2.96108e-09
8.33879e-09
-1.30654e-08
-1.84939e-09
9.38343e-09
1.5433e-10
4.31597e-09
-3.86743e-09
-5.96184e-09
5.5137e-09
5.8301e-09
-2.48055e-10
-1.26583e-09
-5.21423e-09
5.66545e-09
-2.30021e-09
-1.20426e-08
3.58623e-09
-2.55632e-09
4.80066e-09
5.83897e-09
4.17177e-09
-1.67176e-09
6.10408e-09
9.11843e-09
6.91212e-09
-1.49458e-09
4.83968e-09
1.73267e-09
-2.40013e-09
-2.37365e-09
8.64112e-09
-1.42747e-09
-1.04188e-09
4.77253e-09
2.36828e-09
3.50237e-09
1.42064e-10
-1.63875e-09
8.21604e-09
-1.09456e-09
6.24755e-09
-1.19334e-10
6.91982e-09
1.64029e-09
7.09712e-09
6.59664e-09
-6.05098e-09
2.62347e-09
5.92469e-09
-3.32108e-10
6.69847e-09
-5.252e-09
-1.02358e-09
-4.23216e-10
6.40761e-09
-5.07954e-09
5.37023e-09
1.56662e-09
-1.43791e-09
-6.67809e-09
6.54912e-09
-2.72827e-11
8.00152e-09
6.31714e-10
1.01853e-08
-1.22551e-08
-9.49789e-09
1.24932e-09
8.88023e-09
6.80505e-09
-2.02453e-09
2.31647e-09
-5.28278e-10
-6.34619e-09
-5.72076e-09
5.51459e-09
6.13091e-09
-8.92804e-11
6.16232e-10
5.75058e-09
-4.40584e-09
5.81512e-10
-8.96613e-10
6.73669e-09
-3.63601e-09
-2.45708e-09
-2.09807e-09
8.1911e-09
-2.08054e-09
-4.05282e-09
2.49729e-09
7.43748e-09
-1.55064e-09
-2.85705e-09
-3.02976e-09
-5.94183e-09
1.09223e-08
-1.98303e-09
-3.14732e-09
3.03229e-09
-4.01386e-09
-4.9665e-11
-3.42442e-09
-2.179e-09
-8.8624e-09
-3.90515e-09
6.82588e-09
-5.04411e-09
-6.67533e-09
4.28467e-09
5.25071e-09
-2.98097e-09
-6.55428e-09
1.72244e-09
2.92785e-09
-3.65426e-10
2.32012e-09
-2.00747e-09
-3.73705e-09
2.86753e-11
-3.87841e-09
3.65899e-09
3.13404e-11
1.34132e-09
6.01034e-09
-3.08585e-09
-7.96843e-09
2.13659e-09
-8.07427e-09
-2.24593e-08
6.581e-09
-6.00606e-09
2.18846e-08
-4.60329e-09
-3.49993e-09
-1.43559e-08
1.35277e-08
-4.86324e-09
-1.32673e-08
1.14315e-08
-2.08516e-09
4.18176e-09
1.76742e-08
3.38679e-10
-1.66229e-08
2.21386e-09
8.40292e-09
-4.93421e-09
-1.51884e-08
1.11517e-08
1.25437e-09
-1.72688e-08
5.27481e-10
8.53927e-09
1.01625e-08
-1.38423e-08
-8.92599e-09
7.57285e-09
3.56721e-09
-8.74772e-11
1.32414e-09
1.18438e-08
3.84586e-09
-6.06398e-09
-9.62527e-09
-1.0235e-08
6.52694e-10
-1.1684e-08
2.12667e-08
-1.37001e-08
1.88283e-10
3.27704e-09
-7.38037e-09
-6.93941e-09
6.19763e-10
-8.79806e-09
-8.77368e-09
1.82247e-08
-1.12824e-08
2.6727e-09
-4.36339e-09
4.92494e-09
1.60737e-10
-1.19043e-08
-1.54578e-08
-8.10572e-09
1.18797e-08
-1.39941e-08
-7.2046e-09
-4.04761e-09
-2.74159e-09
-1.46034e-08
8.44636e-10
6.55465e-09
9.83266e-09
5.46531e-09
-2.34033e-08
-1.77002e-08
1.87594e-08
-7.45525e-09
-6.39869e-09
8.764e-09
-1.37884e-08
-1.33091e-08
-6.45591e-09
1.24277e-09
1.61673e-09
4.54041e-09
-1.49877e-08
8.83093e-09
4.85512e-09
2.96084e-09
-6.19899e-09
7.86467e-10
-4.00447e-09
2.69198e-09
-5.57089e-09
-8.20402e-10
-5.37027e-09
1.17088e-08
-7.98871e-09
-1.40965e-09
-1.01198e-08
-2.16201e-09
6.70056e-09
7.36654e-11
-3.6123e-09
-6.58116e-09
-4.32203e-10
1.169e-08
-7.67675e-09
-3.58118e-09
5.72038e-09
-7.23654e-09
2.82649e-09
-1.31031e-09
-1.6893e-08
7.32803e-09
7.40286e-09
-1.13829e-08
-5.43612e-09
6.9773e-09
-7.24558e-09
-3.3441e-09
9.18627e-09
4.54709e-09
-1.07522e-08
-2.98136e-09
-2.7453e-09
-3.8439e-09
6.81516e-09
-8.05882e-09
1.96004e-09
4.53759e-09
-6.19329e-09
-6.40336e-09
1.26701e-08
-3.28451e-09
2.61886e-09
5.56405e-09
-4.89807e-09
1.67632e-09
6.45466e-09
-1.14149e-08
-2.81581e-09
7.57973e-09
-2.14495e-09
7.79173e-09
-8.9312e-09
2.19098e-09
-3.90173e-09
8.16566e-09
-5.43686e-09
5.2815e-09
-1.08865e-09
1.24394e-09
1.32472e-08
-8.72009e-09
-9.9642e-09
5.25112e-09
1.32777e-08
1.26253e-09
9.69286e-09
1.76922e-09
-3.88212e-09
4.5778e-09
4.02643e-09
-6.17027e-09
1.34566e-09
9.40291e-09
-7.78201e-09
6.02943e-10
1.00922e-09
6.35928e-09
4.82033e-11
-8.43314e-10
1.17722e-08
-5.17515e-09
3.46488e-10
6.29058e-10
2.46146e-10
9.28503e-09
9.28145e-11
7.43512e-09
3.38188e-09
4.79293e-09
1.47934e-09
-6.10122e-09
4.86831e-09
4.95409e-09
4.5275e-09
1.15981e-08
-1.09368e-08
-1.63717e-10
-4.98002e-10
-2.72516e-09
3.98601e-09
1.0337e-08
-1.1453e-08
6.30055e-09
2.42718e-09
-5.00712e-09
8.59915e-09
3.939e-10
-3.35539e-09
-2.72589e-09
-5.37173e-09
-4.60991e-09
-9.68223e-09
-7.45876e-09
-3.42985e-09
5.88147e-09
-7.0842e-09
-5.38466e-10
7.48242e-10
-5.07686e-09
2.39489e-10
4.08884e-09
-2.90123e-09
2.78141e-09
8.67944e-10
3.59977e-09
-5.49512e-09
-5.18885e-09
-2.49e-10
4.18903e-10
-2.98111e-09
-4.82171e-09
2.50221e-09
3.15573e-09
4.3783e-10
-6.09586e-09
6.17741e-10
-1.09663e-09
3.44658e-09
3.2682e-10
-9.66722e-09
2.96298e-10
-2.9299e-09
-3.53086e-11
2.08618e-10
2.75657e-09
-1.93536e-09
-6.56725e-10
-3.3798e-10
-3.60596e-09
4.91092e-10
3.0795e-09
-3.12956e-09
-1.43351e-10
-3.33065e-10
-1.17803e-09
-1.83541e-09
-1.16165e-10
-2.24047e-09
-8.72923e-10
-3.31299e-09
4.01265e-10
3.12035e-09
-2.64142e-09
-1.32833e-09
5.26477e-09
-4.72011e-09
-6.87888e-10
3.92251e-10
5.36362e-09
2.0939e-09
-3.30809e-09
-1.02609e-09
-4.85192e-09
5.64541e-09
3.57393e-09
-2.76242e-09
-2.64673e-09
6.16666e-10
3.8263e-09
-1.35958e-09
-3.08304e-09
-5.29409e-10
6.45592e-10
-1.19311e-09
-3.80022e-10
2.5605e-09
3.66578e-09
-2.22185e-09
-4.00416e-09
-3.25886e-09
5.82199e-09
-2.36981e-12
-9.51973e-10
1.56089e-08
-3.83261e-09
-1.0824e-08
6.01473e-09
-4.6961e-09
-2.27025e-09
1.46011e-09
-3.3816e-09
-1.33718e-09
-9.43225e-10
1.73178e-09
5.03363e-09
3.86819e-10
2.33606e-09
-4.06628e-09
4.32425e-09
1.53513e-08
2.33565e-09
4.40669e-09
-7.3401e-09
-8.99105e-10
-5.62676e-09
5.05677e-10
6.85298e-09
4.53719e-10
-6.59565e-09
5.15207e-10
8.03702e-09
-1.14655e-08
1.28672e-08
-1.37338e-10
-4.99818e-09
-7.1962e-09
6.70241e-09
-4.62615e-09
-8.55721e-09
6.48124e-09
-5.49317e-09
-2.61163e-09
1.48075e-08
-7.864e-09
-3.89633e-09
6.26754e-09
5.81159e-09
-1.03953e-08
-4.25507e-11
-2.40181e-09
-7.91096e-09
2.44908e-09
-1.11411e-08
1.82267e-10
7.70599e-09
7.20806e-09
-9.10218e-09
1.0633e-08
-5.53842e-09
3.24439e-09
-5.16227e-10
-1.3869e-08
1.94549e-09
-6.61182e-09
-9.59767e-09
3.10125e-09
2.60096e-09
2.89292e-09
-1.38042e-08
-8.43546e-10
-6.80836e-09
-1.00158e-08
1.20654e-08
-9.63446e-09
3.83258e-09
1.35333e-09
4.44879e-09
-1.61669e-09
-6.58875e-09
-1.42887e-09
-5.74159e-09
-6.80021e-09
9.69033e-09
2.85171e-09
-6.14271e-09
5.76172e-09
-5.36043e-09
8.03561e-09
-1.77892e-09
6.22042e-09
-1.24769e-08
7.87603e-09
3.99216e-09
-1.32353e-08
4.65638e-09
1.30906e-09
-9.35146e-09
1.89976e-09
-5.6569e-09
2.90581e-09
4.10449e-09
-4.60473e-09
1.01461e-08
4.14894e-09
8.4198e-10
3.15596e-10
2.40556e-09
3.47784e-09
-4.5743e-09
-5.88045e-09
1.20222e-09
-9.78434e-10
-5.09157e-09
3.89308e-09
4.26737e-10
-4.59802e-09
6.17007e-09
1.33385e-09
4.97237e-10
-1.0318e-08
-2.34635e-09
1.09757e-10
1.25549e-08
-8.68543e-09
-3.71315e-09
2.08082e-09
1.2986e-11
2.65945e-08
-9.83639e-09
-1.67711e-08
1.8571e-08
-1.07906e-08
-7.76743e-09
4.19184e-10
2.45903e-08
1.58496e-09
1.65308e-08
2.45958e-09
-1.15197e-08
-3.59862e-09
1.2772e-08
-1.52883e-08
-7.7292e-09
-1.36691e-09
9.20599e-09
-1.2171e-08
7.28526e-10
-1.61801e-11
-8.92675e-09
8.83761e-09
1.05282e-10
-1.24067e-08
2.19589e-10
-2.87585e-09
-3.50546e-09
-2.54521e-09
8.41721e-09
-5.96065e-09
-5.3324e-09
1.23158e-08
-1.30158e-08
5.16974e-09
-4.46963e-09
-5.32663e-09
1.40438e-08
-1.84983e-08
-4.35407e-09
1.22177e-09
1.98121e-09
1.33278e-08
2.04855e-08
-9.98669e-09
5.99725e-09
-2.27251e-09
9.74321e-09
9.96965e-09
-4.56221e-09
-8.9128e-09
9.67832e-09
-8.15448e-09
9.69438e-09
1.655e-09
-3.19499e-09
9.52986e-10
-8.40849e-09
-6.9893e-10
4.40568e-09
1.06701e-09
-4.69425e-09
-7.78259e-10
-1.77457e-09
6.21945e-09
2.36443e-09
-6.80916e-09
2.67009e-09
-3.89415e-11
1.40996e-09
-4.57639e-09
4.23378e-09
1.4184e-10
-3.38657e-09
4.65491e-09
7.07879e-10
-1.80282e-09
7.31453e-09
-3.93363e-09
-2.6379e-10
4.90547e-09
-1.05049e-09
-2.12798e-10
6.29468e-09
-5.19977e-09
-6.77252e-10
8.56891e-09
-8.38448e-10
4.96673e-09
-4.39192e-09
4.77906e-09
1.08944e-08
7.31341e-10
-1.34183e-08
1.79268e-09
2.7479e-09
-6.69329e-09
-1.1021e-08
-5.00995e-09
-1.27512e-08
2.46159e-09
1.82117e-08
-1.01792e-08
-6.68197e-09
-1.35007e-09
1.74338e-08
-9.28971e-09
1.00683e-08
-4.00102e-09
-1.26465e-08
3.22932e-09
-5.44701e-09
-6.62061e-09
-6.83183e-10
1.55746e-08
-3.15046e-09
1.11955e-08
-5.94035e-09
-1.54339e-08
-3.54098e-09
-1.22216e-08
1.23971e-08
-6.86867e-09
-1.85115e-08
2.28935e-09
-4.69561e-09
-5.97871e-10
-1.32177e-08
-2.66338e-09
-1.52262e-08
1.31938e-08
-1.09536e-08
-8.31327e-09
-2.04464e-09
-9.5067e-09
-1.06484e-08
-2.80056e-08
-1.49334e-09
2.45316e-08
4.96815e-09
-9.53e-09
9.97011e-09
-2.84458e-08
1.2458e-08
1.7136e-09
-1.56645e-08
-1.85913e-08
-1.03186e-08
1.39992e-08
1.49111e-08
1.15788e-08
7.53576e-09
-1.30493e-08
-6.06529e-09
2.28024e-08
5.75971e-09
-1.69832e-08
-1.29709e-08
1.91533e-09
-1.88871e-08
2.06735e-08
2.69328e-09
-4.47893e-09
-1.99172e-09
5.80128e-09
-2.39192e-08
2.01102e-08
1.54044e-08
4.42771e-09
-2.18235e-08
1.05436e-08
-3.69355e-09
1.59526e-08
7.06113e-09
4.12743e-09
3.54919e-09
-4.16399e-09
-3.51257e-09
-6.15618e-10
4.34597e-09
3.97216e-10
-1.48035e-09
-5.4752e-11
5.08444e-09
3.69256e-09
-3.91849e-10
-7.46476e-09
-2.79903e-09
3.99327e-09
-1.36644e-10
-1.05773e-09
7.71912e-10
-4.93265e-09
6.60996e-09
5.40228e-09
-7.66405e-10
-3.86392e-09
-4.31912e-09
-2.09379e-09
1.2017e-09
4.95228e-09
4.5589e-10
-3.29079e-09
2.44396e-09
-1.95225e-09
4.62089e-09
3.37947e-09
-4.3077e-09
3.64871e-09
3.56637e-10
-8.80694e-09
4.09595e-09
-3.68624e-09
4.04427e-09
4.79737e-11
-3.54777e-10
-5.01328e-10
1.44625e-08
-2.90954e-10
-1.36703e-08
-1.69268e-09
1.48891e-08
-1.36978e-08
3.77738e-10
2.03244e-08
9.91548e-10
-2.16936e-08
1.32976e-09
1.17421e-08
-1.2694e-08
-1.11017e-08
2.36225e-09
-1.31055e-09
1.005e-08
-1.14646e-08
-1.25969e-09
1.0603e-08
2.39877e-09
1.59873e-08
3.07736e-09
-7.29104e-10
1.05953e-08
4.59616e-09
5.20794e-09
8.95201e-09
1.24827e-08
4.82705e-10
-1.43583e-08
-1.09476e-08
-1.03447e-09
2.63404e-08
-1.03908e-08
1.20197e-08
-9.05653e-09
8.70412e-09
-1.99487e-08
5.0143e-10
-1.9248e-08
2.05211e-08
-9.07296e-09
4.29008e-09
-1.36398e-09
-1.39283e-08
-6.29853e-10
-3.18354e-10
1.48766e-08
3.67336e-09
-2.93449e-09
-1.46665e-08
-8.77863e-09
1.34058e-08
-2.96404e-09
-9.78435e-09
6.78807e-09
-9.66992e-09
4.32365e-09
2.38306e-09
-4.95895e-09
-5.02879e-09
-9.26172e-09
-1.15233e-09
6.63483e-09
-1.21631e-08
-7.58566e-09
7.04593e-09
-1.01039e-08
2.22617e-11
3.03529e-09
-6.42077e-09
1.26345e-08
8.31809e-10
2.69269e-09
-1.39275e-08
1.1942e-09
7.77889e-09
-7.73472e-09
2.64852e-09
-8.96595e-09
1.03243e-08
-2.05366e-09
-1.82207e-08
-3.71468e-09
1.19643e-08
-9.62239e-09
1.13797e-08
-1.61963e-09
-8.25692e-09
1.01171e-08
3.88015e-09
-7.56965e-10
-3.99913e-09
-1.08654e-09
-7.60778e-09
-4.12588e-09
-1.12814e-08
8.30839e-09
-1.89451e-09
2.79649e-09
1.31724e-09
-2.57891e-09
9.56993e-09
5.58345e-09
-4.75875e-09
7.27965e-10
-1.55283e-09
-8.92718e-10
7.79336e-09
3.90127e-10
4.20048e-10
1.09171e-08
-2.55559e-09
7.56004e-09
-5.89733e-09
7.73974e-09
1.12639e-09
1.84709e-08
-9.88086e-09
-9.71669e-09
-5.96194e-09
1.35308e-08
-6.44244e-09
4.88978e-09
-6.77455e-09
-4.07729e-09
5.0214e-09
2.01781e-09
1.14316e-08
5.5475e-09
1.30046e-08
1.06458e-08
-8.31984e-09
2.56384e-09
6.38101e-09
7.87488e-09
-3.61007e-09
-5.25451e-09
-9.93627e-10
1.0183e-08
-3.93486e-09
-8.26025e-09
-2.14222e-09
5.14793e-09
9.94568e-09
-3.87457e-09
-7.06496e-09
9.15544e-10
1.10129e-08
-6.39535e-09
3.40574e-09
6.27018e-09
-3.28061e-09
-1.80983e-09
4.84091e-09
-9.42648e-09
1.03849e-08
-2.38476e-09
2.18284e-09
5.23685e-09
6.7266e-09
-3.40745e-09
7.72864e-09
4.878e-09
3.69704e-09
6.70738e-09
1.84826e-09
-7.38698e-09
-7.33015e-09
1.2869e-08
-5.58692e-09
1.24541e-08
-5.01901e-09
-7.50661e-09
-1.66183e-10
2.8587e-10
-6.04048e-09
-4.25519e-09
3.43082e-09
6.865e-09
-9.2586e-09
-3.56045e-09
6.77868e-09
-8.71415e-09
-3.06823e-10
4.76586e-09
-2.23019e-10
-3.18486e-09
-5.3063e-09
8.29383e-09
-4.40582e-10
-9.39798e-09
1.54464e-09
-5.52697e-09
8.23391e-09
-1.20265e-08
6.19263e-09
-4.80724e-09
-7.44223e-09
-9.03842e-09
1.26758e-09
4.54716e-10
-6.28421e-09
-1.67701e-09
-4.55557e-09
-7.88789e-09
-5.98395e-09
-8.22128e-09
-7.15956e-09
-1.42413e-09
8.00626e-10
-1.23429e-08
-1.91277e-08
1.80751e-08
-7.37387e-09
8.42633e-09
-4.06056e-09
-1.64913e-08
1.52488e-08
4.09408e-09
-1.58828e-08
-2.15465e-09
1.06636e-08
-1.21905e-09
1.36095e-09
2.0685e-08
-6.79724e-09
1.15524e-08
1.30962e-08
-1.10622e-08
-1.35865e-08
1.23147e-10
8.35624e-09
3.07296e-09
3.56845e-09
9.65093e-09
-4.65436e-09
1.88843e-08
1.56236e-09
-9.36375e-09
8.82471e-09
3.72882e-10
7.73883e-09
-2.37998e-09
-6.12817e-09
1.47e-09
7.03934e-09
1.37465e-09
-4.09312e-09
3.39898e-10
-4.32967e-09
-5.75317e-09
3.95492e-09
-4.36634e-09
2.2008e-09
-2.16388e-09
-8.20581e-09
2.18349e-09
1.65631e-09
2.84994e-09
-1.01798e-08
1.57749e-09
1.33101e-09
-2.76797e-09
2.81225e-09
-3.85566e-09
6.65685e-09
-2.77025e-09
8.78208e-10
9.22835e-09
-7.25169e-09
-2.48362e-09
5.07745e-10
-3.84349e-10
-3.89357e-09
1.51057e-09
2.21266e-09
-6.45258e-09
-8.129e-11
9.06833e-10
-4.71864e-09
-3.31156e-09
4.60331e-10
2.97858e-10
2.73393e-09
1.05454e-08
-8.75844e-10
-2.16753e-09
8.11833e-09
-5.0751e-09
2.83545e-09
8.35602e-09
-4.21898e-09
1.19496e-08
1.66237e-08
-4.73105e-09
-2.61417e-09
5.17756e-09
5.24506e-10
-6.82448e-11
5.92647e-09
1.35546e-08
-4.97758e-09
-7.02544e-09
-1.55126e-09
5.60945e-09
1.13253e-09
6.81272e-09
-1.39394e-08
5.70674e-09
-1.52787e-08
3.02278e-09
-1.68323e-09
-6.18958e-09
-1.40666e-08
1.87812e-09
-1.59083e-08
7.84062e-09
-9.80179e-09
7.55092e-09
2.96103e-09
-7.09992e-10
-1.56649e-08
7.74127e-09
5.73193e-09
7.38335e-09
-1.19826e-08
-5.16043e-09
-5.48928e-10
1.14165e-08
-8.00847e-09
1.31596e-09
1.53244e-09
1.06002e-08
-8.66059e-09
-9.94793e-09
-6.04573e-09
1.12289e-08
-8.53999e-09
3.81024e-09
-1.93031e-09
9.41283e-10
-1.26447e-10
7.15636e-09
-1.61264e-08
9.09655e-09
4.64577e-09
6.1602e-09
-1.09323e-08
-6.48686e-09
-3.73501e-09
-2.35893e-09
1.25811e-08
-1.34486e-09
2.01437e-09
6.22785e-09
8.43445e-10
-8.41591e-09
-5.23363e-09
7.72643e-09
-5.0327e-09
-7.69427e-09
-3.39934e-09
-4.50259e-09
6.78941e-09
5.31167e-09
-1.58843e-09
-8.55458e-09
4.8315e-09
6.67769e-09
9.1219e-10
-2.27805e-09
7.89756e-09
-6.93926e-10
-5.25845e-10
9.23593e-09
-8.11153e-09
-8.12798e-10
-3.11596e-10
-4.07756e-09
8.08012e-09
-4.46304e-09
-7.27012e-09
6.70069e-09
5.13676e-09
-1.11882e-08
7.04615e-09
-9.97036e-10
-1.59453e-09
4.98959e-09
-8.9004e-09
3.2285e-09
-9.96573e-09
-4.32469e-09
4.94145e-09
-2.5665e-09
1.94971e-09
1.8097e-09
-1.03177e-08
6.2448e-09
4.21171e-09
-8.64674e-09
9.13158e-09
1.07795e-09
1.3038e-08
-7.05271e-09
6.62255e-09
-1.0186e-08
9.62893e-09
1.88395e-09
-6.05609e-09
1.3944e-08
-3.81352e-09
1.23201e-08
-7.37844e-09
-4.333e-10
6.50489e-09
1.307e-09
4.81522e-09
-6.75968e-09
6.40965e-11
1.88043e-09
5.15098e-09
6.56876e-09
-6.90449e-09
-8.85972e-09
-3.57781e-09
5.67784e-09
1.20747e-09
1.64456e-09
3.13957e-09
-7.57176e-09
1.4008e-09
3.09461e-09
-6.45465e-09
-3.7365e-09
4.28676e-10
4.77647e-09
-1.46862e-09
-1.18539e-09
3.07988e-09
-5.63105e-09
4.259e-09
-9.13008e-09
3.68564e-09
6.40668e-09
-1.88578e-09
-4.09224e-09
-1.7632e-09
-2.30309e-09
-1.21714e-09
5.28327e-09
-1.57695e-09
6.22041e-09
-3.43013e-09
5.9035e-09
8.4667e-11
-4.34938e-10
-2.24922e-09
-3.00095e-09
4.03306e-09
-8.21676e-09
4.39051e-09
-6.28034e-09
6.18081e-09
-8.11725e-09
2.51137e-09
-4.53276e-09
-4.04949e-10
2.56324e-09
5.93233e-09
-7.06623e-09
9.101e-09
-2.97425e-09
1.09867e-08
1.76989e-08
1.35343e-08
8.81593e-09
1.36301e-08
4.83566e-09
2.53136e-10
2.898e-09
-7.98715e-09
3.38705e-10
-3.22635e-09
7.72298e-09
6.03684e-09
3.10232e-09
-6.73424e-09
-2.40507e-09
4.80954e-09
-5.8686e-09
1.312e-09
-1.44127e-09
6.58974e-09
-5.80999e-09
-1.78276e-09
1.72427e-09
-1.01693e-09
-5.42858e-09
6.35731e-10
4.51728e-09
-1.42214e-10
-5.39179e-09
3.30409e-09
-5.69506e-10
1.13063e-09
4.57109e-09
-3.90849e-09
-1.79328e-09
4.74981e-09
-3.14954e-10
-1.16913e-09
4.47748e-09
4.98507e-10
2.90335e-09
3.30884e-09
-5.30369e-09
1.25318e-09
2.91042e-09
8.83954e-09
-8.82192e-10
-1.08677e-08
1.28747e-08
-1.08847e-08
9.20452e-10
-4.18302e-09
-1.08733e-08
7.91589e-09
7.14042e-09
1.16121e-08
-6.10543e-09
-6.66248e-09
1.15593e-09
1.02492e-08
-2.12294e-09
-1.53318e-08
-1.12625e-08
6.2639e-09
-9.42023e-10
7.55281e-09
6.0545e-09
9.04892e-09
7.12178e-09
-6.39432e-09
-1.24115e-08
3.61322e-09
5.55051e-09
1.24361e-08
-1.18865e-08
1.2683e-08
-5.93172e-09
9.704e-09
-1.48356e-08
1.1064e-08
1.30937e-09
-8.41752e-09
1.17721e-09
6.34859e-09
-5.47555e-09
1.89016e-08
-2.49303e-09
2.10076e-08
-7.90926e-09
5.90258e-09
-1.0926e-08
1.29331e-08
-8.08507e-09
1.48529e-09
-5.30438e-09
2.09112e-08
-1.08281e-08
-2.71734e-09
-1.2899e-09
-9.92782e-09
-9.31763e-09
-5.42121e-09
1.0847e-08
-7.91802e-09
5.6788e-09
-1.6575e-08
3.16649e-09
7.69426e-09
8.04106e-09
1.06681e-08
1.3604e-08
-5.47393e-09
1.89678e-08
-6.40947e-09
3.17792e-09
-1.02828e-08
-4.21155e-09
-1.45316e-08
-3.73405e-09
-1.65662e-09
-3.46266e-09
8.85312e-09
-2.94931e-09
-3.53609e-09
2.75121e-09
-5.44943e-09
1.09771e-08
-1.83813e-09
4.46841e-09
-2.59105e-09
-3.59809e-09
2.72608e-09
-4.25573e-09
-1.2847e-09
-6.51271e-09
1.13884e-09
5.1365e-09
1.12534e-09
-4.22361e-09
-2.03808e-09
1.40287e-10
4.51581e-09
-5.61225e-09
-3.15936e-09
-2.70907e-09
-4.63897e-09
8.35224e-10
4.23742e-10
7.22622e-10
4.87306e-09
-6.01933e-09
7.00994e-09
1.08153e-09
-7.66764e-09
6.9506e-09
4.43731e-09
-4.37787e-09
-6.29163e-10
7.81196e-09
-6.46033e-09
9.55982e-09
-9.10734e-09
2.9077e-10
3.34675e-09
3.31316e-09
-1.58141e-09
5.80904e-09
2.09911e-10
5.1435e-09
5.45596e-09
-5.72635e-09
3.43125e-09
1.31034e-10
5.80408e-09
4.04632e-09
3.5253e-09
5.63055e-09
-3.21446e-09
3.06442e-09
3.58138e-09
1.13257e-10
2.12853e-09
-8.64418e-10
6.88298e-09
-2.14677e-10
-9.47832e-09
1.10596e-08
-2.4459e-09
5.45572e-09
-7.12201e-09
-1.82723e-10
6.77242e-09
-5.0477e-09
1.17478e-08
-2.95095e-09
8.96292e-09
2.61796e-09
-5.07047e-09
2.82496e-09
-5.53119e-09
7.77681e-09
-7.75263e-09
-2.98137e-09
5.6636e-09
-2.91502e-09
-7.02461e-09
2.18704e-09
3.66193e-09
-6.21896e-09
-3.57923e-10
-1.49103e-09
-4.51076e-09
8.82684e-09
5.35033e-09
3.50603e-09
-4.33865e-09
-4.51762e-09
1.68371e-09
3.96221e-09
-2.95413e-10
-1.85532e-10
-5.2615e-10
4.52254e-09
-1.30682e-08
9.07176e-09
-9.45167e-09
5.94417e-09
-7.47647e-09
1.05081e-08
4.83217e-09
-5.15148e-09
-5.89961e-09
1.72327e-10
-2.36479e-09
-7.63456e-09
1.86829e-09
1.25572e-09
-7.50409e-09
3.83176e-09
-1.43067e-09
-2.5674e-09
-4.44095e-09
-6.37348e-09
-2.25376e-09
-7.94773e-09
-5.94491e-09
-8.63471e-09
3.02649e-09
-4.50977e-10
-9.03915e-09
-8.31966e-09
-6.68852e-09
-6.13253e-09
-1.6429e-09
3.75641e-09
-1.03398e-08
-5.99386e-09
-2.58823e-09
3.08492e-09
4.88874e-09
-5.3852e-09
-1.77774e-09
-4.01421e-09
5.64872e-09
1.4356e-10
-1.01538e-08
2.17366e-09
5.39195e-09
1.17833e-09
-8.39622e-09
-2.93584e-09
2.1129e-10
-4.52248e-09
-2.8458e-09
7.15709e-09
-2.99172e-09
-3.44358e-09
6.64677e-09
-1.68432e-09
1.55973e-09
-6.85063e-10
1.93161e-10
-7.4183e-09
2.70271e-09
-6.6259e-09
3.37562e-09
-4.11348e-09
-6.55224e-09
4.04016e-09
-5.63952e-09
-1.58132e-10
-7.38041e-09
6.70826e-09
-5.9521e-09
-2.49926e-10
-6.95575e-10
9.31098e-10
-6.78745e-09
-8.92395e-11
-6.24576e-09
-2.5306e-10
-2.44434e-10
-7.8986e-09
-5.72751e-09
9.41376e-10
-7.42853e-09
-5.25513e-09
3.19496e-10
-3.1437e-09
1.11359e-09
1.70978e-09
-3.44795e-09
1.48393e-09
2.28345e-09
2.64384e-09
-3.1441e-09
-2.64339e-09
-4.86451e-10
-3.17724e-10
-2.7276e-09
3.5781e-09
2.22898e-09
-2.85155e-09
-3.62505e-10
-4.40699e-10
-1.97675e-09
-1.25698e-09
3.67379e-09
-2.13823e-09
-2.39857e-09
4.09555e-09
-3.7377e-09
-3.78145e-10
3.80501e-09
-6.10022e-09
4.86227e-10
5.94484e-09
-3.30953e-10
-5.54449e-10
-6.23358e-09
-7.34259e-10
-2.45041e-09
-3.8314e-09
2.54635e-09
2.98399e-09
1.95825e-10
-3.73439e-09
-3.61158e-10
7.57067e-09
-3.68255e-09
-1.56849e-08
6.37688e-10
1.06139e-08
4.43332e-09
-8.50154e-09
4.00442e-09
-1.11876e-08
-5.04298e-09
7.60268e-10
8.98863e-09
-4.70584e-09
-1.13213e-09
-1.24124e-08
-2.15616e-09
-3.36336e-09
6.27982e-09
-2.50436e-09
4.95305e-09
-4.60458e-09
7.36174e-09
2.26459e-09
-7.4461e-09
7.07117e-09
1.09889e-08
-1.22609e-09
-2.21549e-09
3.4414e-09
-5.37839e-09
6.97488e-09
-5.0377e-09
-2.47002e-09
6.39039e-09
-4.78656e-10
-9.01481e-09
3.19792e-09
-7.14714e-10
-6.23946e-09
5.72554e-09
6.90436e-09
-4.90457e-10
1.93075e-09
-1.38298e-09
6.81391e-09
-1.1093e-09
1.01113e-08
7.5007e-10
4.61015e-09