/*--------------------------------*- C++ -*----------------------------------*\
| =========                 |                                                 |
| \\      /  F ield         | OpenFOAM: The Open Source CFD Toolbox           |
|  \\    /   O peration     | Version:  v1612+                                |
|   \\  /    A nd           | Web:      www.OpenFOAM.com                      |
|    \\/     M anipulation  |                                                 |
\*---------------------------------------------------------------------------*/
FoamFile
{
    version     2.0;
    format      ascii;
    class       volScalarField;
    location    "166";
    object      p;
}
// * * * * * * * * * * * * * * * * * * * * * * * * * * * * * * * * * * * * * //

dimensions      [0 2 -2 0 0 0 0];

internalField   nonuniform List<scalar> 
17066
(
3.46032
3.47834
3.46697
3.47
3.47139
3.48196
3.47932
3.48575
3.4781
3.47843
3.48002
3.48487
3.4893
3.48454
3.48412
3.47934
3.48027
3.48187
3.48072
3.48502
3.48058
3.48439
3.49672
3.4955
3.49273
3.49284
3.49271
3.49402
3.49114
3.49138
3.49046
3.49165
3.48945
3.489
3.49005
3.49087
3.48968
3.48974
3.48967
3.48361
3.52458
3.52438
3.52355
3.52641
3.52432
3.52021
3.51877
3.52394
3.52543
3.47548
3.46831
3.47159
3.46371
3.46784
3.46946
3.47076
3.47305
3.46971
3.46714
3.47112
3.46759
3.47429
3.522
3.52135
3.52265
3.52418
3.52136
3.52157
3.52527
3.52282
3.52281
3.51956
3.52384
3.51645
3.53004
3.52567
3.52523
3.50359
3.5065
3.50276
3.50185
3.50074
3.50013
3.50538
3.50038
3.50205
3.4982
3.49898
3.47854
3.47147
3.4755
3.47367
3.47026
3.47008
3.46928
3.46961
3.47087
3.52162
3.51882
3.51792
3.51824
3.51909
3.5197
3.52634
3.52153
3.52135
3.52135
3.51982
3.51981
3.51992
3.52213
3.52564
3.52444
3.52476
3.52544
3.52451
3.52203
3.52478
3.52568
3.52352
3.52401
3.52529
3.5224
3.52247
3.51707
3.52611
3.52498
3.51863
3.52611
3.52532
3.52417
3.52131
3.52643
3.52094
3.51928
3.52234
3.51796
3.52525
3.52062
3.46013
3.46245
3.46373
3.46287
3.46363
3.46868
3.46326
3.46747
3.45967
3.46172
3.46184
3.46374
3.46132
3.46349
3.46189
3.4651
3.45545
3.45729
3.46189
3.46335
3.46062
3.46023
3.46431
3.45548
3.45828
3.45579
3.4579
3.45735
3.45743
3.45432
3.46317
3.45788
3.45689
3.45553
3.45184
3.45857
3.4588
3.45776
3.49632
3.49247
3.49604
3.49359
3.4953
3.4932
3.494
3.49698
3.497
3.49073
3.49304
3.49137
3.49213
3.49349
3.48713
3.49307
3.49164
3.48863
3.48976
3.4897
3.49243
3.48814
3.49013
3.48531
3.48459
3.48373
3.48954
3.4906
3.48742
3.4886
3.48993
3.4829
3.49022
3.4883
3.48973
3.49221
3.49095
3.5042
3.50982
3.50951
3.49613
3.50288
3.50717
3.50129
3.50093
3.50691
3.50488
3.50086
3.50335
3.49819
3.49862
3.4858
3.48983
3.49469
3.49085
3.49737
3.49082
3.49094
3.49121
3.4933
3.49671
3.49944
3.49199
3.49219
3.49583
3.48675
3.49733
3.5164
3.51219
3.51834
3.51726
3.51499
3.51653
3.51383
3.51765
3.5134
3.51589
3.51209
3.50537
3.51199
3.51063
3.5079
3.51714
3.51073
3.51171
3.49464
3.49218
3.48821
3.49127
3.49099
3.48954
3.48757
3.49195
3.49736
3.49995
3.48543
3.4905
3.49396
3.48823
3.49305
3.51017
3.51413
3.50958
3.51062
3.50652
3.50516
3.50261
3.50088
3.50024
3.49968
3.50047
3.46405
3.46506
3.46285
3.46076
3.46268
3.46178
3.46677
3.45496
3.45395
3.46388
3.45936
3.46237
3.46203
3.46057
3.46561
3.49244
3.48894
3.48991
3.48958
3.48912
3.49125
3.49308
3.4901
3.49005
3.48521
3.48703
3.4912
3.49104
3.49017
3.48975
3.48783
3.488
3.48895
3.4875
3.48757
3.51987
3.51868
3.52676
3.52389
3.51758
3.52164
3.51982
3.52327
3.52355
3.52316
3.52434
3.51865
3.52297
3.52328
3.4826
3.48434
3.48411
3.4822
3.49026
3.47954
3.48678
3.48031
3.47738
3.48358
3.47771
3.47838
3.48227
3.48463
3.4838
3.47549
3.47717
3.47664
3.48234
3.48692
3.49
3.48575
3.46915
3.46647
3.47136
3.47111
3.46881
3.46971
3.46878
3.46932
3.46935
3.47388
3.46962
3.4663
3.4674
3.47229
3.47456
3.46402
3.47456
3.46701
3.47277
3.47092
3.47826
3.47541
3.47215
3.47624
3.47421
3.47151
3.47135
3.47313
3.47115
3.47674
3.47665
3.46987
3.47953
3.4934
3.49389
3.49895
3.49978
3.49017
3.49339
3.4931
3.49117
3.48519
3.48875
3.49054
3.49328
3.49011
3.48935
3.49117
3.4886
3.48403
3.50029
3.4983
3.50296
3.49717
3.49756
3.50125
3.4947
3.49446
3.49648
3.50069
3.495
3.49698
3.49468
3.50129
3.50017
3.50193
3.50665
3.50499
3.50997
3.50426
3.50605
3.4964
3.50429
3.5034
3.50423
3.51292
3.50508
3.49976
3.50661
3.50811
3.51195
3.5122
3.50957
3.5077
3.50622
3.50929
3.50316
3.50902
3.50906
3.51032
3.5073
3.51236
3.51105
3.50296
3.50436
3.50585
3.5063
3.50829
3.50859
3.51365
3.50499
3.50713
3.51358
3.50979
3.50861
3.50068
3.50036
3.49555
3.49749
3.49736
3.49589
3.49681
3.4986
3.50215
3.4975
3.50528
3.49787
3.50192
3.50033
3.49556
3.49499
3.49991
3.49716
3.47565
3.46961
3.47198
3.47175
3.47501
3.47504
3.47209
3.476
3.47706
3.47323
3.47573
3.47007
3.47561
3.47329
3.47449
3.47479
3.4755
3.47596
3.46878
3.4696
3.49349
3.4965
3.49366
3.49367
3.49556
3.49745
3.49628
3.49748
3.49474
3.49752
3.49339
3.49282
3.4947
3.52078
3.5239
3.52161
3.52736
3.52398
3.52104
3.5197
3.52101
3.52183
3.51566
3.5199
3.52197
3.51768
3.51636
3.51751
3.5174
3.51878
3.489
3.47806
3.48385
3.48468
3.48084
3.48274
3.47361
3.48769
3.48695
3.47825
3.48237
3.47971
3.48801
3.48717
3.48227
3.48489
3.47721
3.4751
3.47822
3.4758
3.47409
3.47042
3.48054
3.47626
3.47699
3.47112
3.47276
3.47297
3.47321
3.47461
3.47599
3.47707
3.48325
3.47396
3.48729
3.48683
3.48259
3.48184
3.48464
3.48362
3.48741
3.48368
3.48304
3.48989
3.48479
3.48598
3.48702
3.50985
3.50737
3.50775
3.51118
3.50916
3.50888
3.50779
3.50073
3.51379
3.50804
3.50776
3.50876
3.5112
3.51266
3.51108
3.51042
3.51064
3.51278
3.51001
3.51238
3.51267
3.47397
3.47436
3.47206
3.47287
3.47638
3.47683
3.47208
3.47448
3.46576
3.47109
3.47123
3.47366
3.5216
3.51919
3.52159
3.51577
3.51848
3.52172
3.51073
3.51525
3.51903
3.51832
3.52171
3.52281
3.52279
3.52307
3.52379
3.52664
3.52416
3.52352
3.52108
3.51816
3.52456
3.5209
3.4866
3.48914
3.48923
3.4813
3.49398
3.49217
3.48951
3.48749
3.48829
3.48809
3.48961
3.49143
3.49293
3.48962
3.52303
3.51958
3.52591
3.52544
3.51935
3.51963
3.5209
3.52267
3.52227
3.51917
3.52656
3.52566
3.5221
3.52421
3.4991
3.49867
3.494
3.49798
3.48896
3.49355
3.49844
3.48241
3.48827
3.49053
3.49372
3.48605
3.49663
3.49193
3.49588
3.49333
3.4882
3.46455
3.46967
3.46885
3.46605
3.45933
3.46691
3.461
3.46683
3.46663
3.4691
3.46878
3.46855
3.46377
3.46879
3.47177
3.4698
3.46917
3.46498
3.4702
3.47059
3.46007
3.46418
3.46446
3.46017
3.46779
3.46666
3.46043
3.45979
3.46063
3.45605
3.45467
3.46437
3.45772
3.46205
3.45826
3.46206
3.4612
3.45315
3.46022
3.46229
3.45953
3.4646
3.47149
3.47934
3.47826
3.46997
3.47555
3.48223
3.47277
3.47423
3.47635
3.47648
3.47385
3.4694
3.47283
3.47894
3.47901
3.47851
3.48361
3.47784
3.48327
3.48257
3.48203
3.48184
3.48245
3.47595
3.4785
3.47547
3.47694
3.47567
3.47617
3.47543
3.47631
3.47585
3.47447
3.47648
3.4627
3.45955
3.4604
3.46024
3.4608
3.46003
3.46041
3.46163
3.45891
3.45529
3.45673
3.45731
3.45796
3.45802
3.45539
3.46033
3.45758
3.45522
3.45542
3.4561
3.45419
3.45476
3.45341
3.47705
3.47946
3.48369
3.47925
3.48444
3.47697
3.48124
3.47707
3.47534
3.48189
3.44725
3.45305
3.44831
3.44826
3.45149
3.45258
3.44624
3.45219
3.45007
3.44843
3.45483
3.45491
3.45347
3.45349
3.44187
3.44684
3.5224
3.52369
3.52551
3.52752
3.52429
3.52528
3.52461
3.52938
3.52689
3.52713
3.52879
3.5269
3.52327
3.52255
3.5244
3.52222
3.51409
3.52285
3.5248
3.48415
3.48245
3.48206
3.4878
3.48885
3.48683
3.48308
3.48798
3.4863
3.48415
3.48845
3.48627
3.48405
3.48249
3.48987
3.48705
3.48702
3.48016
3.48816
3.46988
3.46908
3.47184
3.47254
3.47295
3.47674
3.46386
3.47776
3.47138
3.46827
3.46912
3.47043
3.47861
3.47186
3.47447
3.47551
3.47522
3.47877
3.47545
3.50503
3.50411
3.50315
3.50926
3.49955
3.50592
3.50716
3.50194
3.50798
3.50609
3.50482
3.50089
3.50461
3.50249
3.50245
3.45878
3.45858
3.45938
3.46018
3.46249
3.46436
3.45882
3.46057
3.4574
3.45737
3.45832
3.4575
3.46012
3.45763
3.46105
3.46116
3.49834
3.49683
3.49669
3.49476
3.48951
3.49607
3.49584
3.49374
3.49968
3.49891
3.50132
3.49972
3.49644
3.49609
3.49542
3.49819
3.49945
3.49896
3.48583
3.48251
3.48886
3.48125
3.47957
3.48357
3.49066
3.48179
3.47874
3.48367
3.48721
3.48367
3.48282
3.48396
3.48116
3.48523
3.48247
3.47713
3.47355
3.4783
3.47457
3.47946
3.47855
3.48187
3.48287
3.48194
3.48464
3.47974
3.47741
3.48905
3.48697
3.4815
3.48104
3.47752
3.47872
3.48318
3.45625
3.45537
3.45623
3.45951
3.45586
3.45543
3.45689
3.45836
3.45588
3.45918
3.44868
3.46088
3.45775
3.45481
3.45004
3.45802
3.45797
3.45247
3.47867
3.47795
3.48079
3.47711
3.47941
3.47403
3.48076
3.47854
3.4804
3.47946
3.47717
3.4715
3.4777
3.48178
3.47665
3.48031
3.47847
3.47512
3.4793
3.4794
3.47756
3.45263
3.45633
3.4574
3.45546
3.44919
3.45034
3.45148
3.45364
3.45417
3.44957
3.4444
3.45599
3.45049
3.45822
3.45855
3.45249
3.45346
3.45646
3.45728
3.49247
3.49159
3.49155
3.49414
3.49202
3.493
3.49656
3.49311
3.48758
3.49461
3.49369
3.49253
3.49017
3.48965
3.49856
3.49915
3.49463
3.5195
3.52002
3.51624
3.51775
3.52276
3.51514
3.51786
3.51125
3.51238
3.51933
3.51689
3.51141
3.51872
3.51932
3.51607
3.51808
3.51963
3.47615
3.46638
3.46793
3.47025
3.46925
3.47182
3.47294
3.4662
3.46726
3.46597
3.46909
3.47457
3.47754
3.46722
3.47723
3.47575
3.4756
3.47634
3.47664
3.47563
3.47495
3.47992
3.47325
3.47904
3.47594
3.47703
3.47962
3.47457
3.47799
3.48071
3.50105
3.50561
3.49631
3.50501
3.49992
3.50184
3.50239
3.49987
3.49914
3.50622
3.5035
3.4993
3.49823
3.50484
3.50612
3.5013
3.49964
3.5151
3.51238
3.51058
3.50314
3.51292
3.50848
3.5127
3.50885
3.51399
3.51597
3.51594
3.51098
3.51365
3.51346
3.5085
3.51369
3.51063
3.50722
3.50991
3.50882
3.51447
3.51226
3.51408
3.51503
3.51704
3.51034
3.50694
3.51445
3.51117
3.51348
3.5132
3.50342
3.50517
3.51039
3.51003
3.47367
3.4754
3.47681
3.47174
3.47779
3.47418
3.47577
3.47764
3.47561
3.50554
3.50578
3.50142
3.5018
3.50271
3.50274
3.50417
3.50403
3.50663
3.5091
3.50501
3.49852
3.50433
3.5058
3.50614
3.50617
3.50308
3.49488
3.50794
3.50393
3.50565
3.50221
3.50148
3.50332
3.46301
3.46297
3.45943
3.46934
3.46911
3.49366
3.49343
3.47132
3.47448
3.46806
3.46665
3.4934
3.48977
3.49421
3.48929
3.50759
3.51191
3.51082
3.50768
3.49521
3.49144
3.48965
3.47228
3.47503
3.47635
3.52042
3.52091
3.52542
3.46384
3.46739
3.46751
3.4788
3.48275
3.47856
3.48363
3.48148
3.46166
3.46365
3.45773
3.45795
3.46326
3.51271
3.51178
3.46013
3.45726
3.49786
3.49738
3.5008
3.49234
3.50042
3.50218
3.49639
3.47793
3.48554
3.48675
3.47796
3.44484
3.44788
3.49024
3.48234
3.48518
3.47671
3.4771
3.47601
3.46896
3.52422
3.52161
3.51518
3.51336
3.51008
3.48373
3.48279
3.47744
3.4809
3.52975
3.52147
3.52052
3.46943
3.47198
3.50978
3.50588
3.51081
3.50418
3.48954
3.4912
3.50838
3.51557
3.51581
3.50845
3.52673
3.52623
3.47668
3.47823
3.52135
3.50207
3.49798
3.49587
3.50079
3.50632
3.50633
3.51234
3.48947
3.49033
3.50308
3.50404
3.52033
3.52062
3.52776
3.50314
3.50594
3.50154
3.4567
3.46127
3.45873
3.47555
3.47556
3.45543
3.45592
3.45903
3.51113
3.51712
3.51844
3.49433
3.49158
3.48931
3.47545
3.47231
3.47537
3.46808
3.50451
3.50846
3.50364
3.4976
3.49765
3.52354
3.52107
3.52723
3.52342
3.50469
3.5055
3.46369
3.46951
3.46867
3.46558
3.46302
3.47353
3.47379
3.47337
3.47409
3.48719
3.48533
3.4606
3.45592
3.45727
3.50128
3.49719
3.51506
3.51036
3.51286
3.47786
3.47511
3.48089
3.47863
3.48283
3.4859
3.48293
3.48256
3.47218
3.47009
3.47996
3.48354
3.4727
3.47309
3.47643
3.47598
3.47517
3.473
3.47329
3.4745
3.50179
3.51296
3.51251
3.50899
3.51487
3.51709
3.51931
3.51487
3.52116
3.51555
3.50858
3.50832
3.51003
3.50787
3.51513
3.5198
3.50979
3.51321
3.50979
3.51983
3.51245
3.51263
3.51541
3.51638
3.52104
3.5254
3.53024
3.52982
3.50071
3.49515
3.49657
3.50049
3.49339
3.5065
3.50011
3.50249
3.50234
3.50188
3.48986
3.49529
3.44935
3.45731
3.45556
3.45104
3.4538
3.45202
3.45951
3.46157
3.45845
3.45275
3.45611
3.45274
3.45158
3.45797
3.46091
3.45685
3.45744
3.46036
3.4525
3.46199
3.45948
3.52448
3.52579
3.52285
3.52189
3.5204
3.52934
3.5237
3.527
3.52845
3.52552
3.48379
3.48128
3.48503
3.48649
3.48493
3.48563
3.48432
3.48941
3.48614
3.48634
3.51565
3.52485
3.52388
3.52333
3.52663
3.51971
3.52268
3.46246
3.45749
3.46295
3.46425
3.4689
3.47453
3.46973
3.4709
3.47732
3.47599
3.46754
3.46945
3.4745
3.47109
3.48154
3.47282
3.47258
3.47727
3.4753
3.47733
3.47629
3.47059
3.47583
3.48073
3.47079
3.46745
3.46494
3.47001
3.47258
3.47652
3.46814
3.46791
3.4728
3.47303
3.47354
3.48237
3.47794
3.47632
3.47167
3.47285
3.47776
3.4731
3.47439
3.46224
3.45809
3.46616
3.46452
3.46663
3.46118
3.47148
3.46738
3.46347
3.46529
3.46531
3.46234
3.47037
3.46326
3.46686
3.46618
3.46128
3.46001
3.46597
3.46093
3.45732
3.46095
3.45651
3.45972
3.46128
3.46535
3.46052
3.47397
3.4672
3.46937
3.46609
3.47179
3.4705
3.46943
3.46824
3.46478
3.46206
3.4661
3.46421
3.46506
3.46457
3.46602
3.5095
3.50649
3.50559
3.50893
3.51427
3.51181
3.51013
3.51871
3.51074
3.5114
3.50625
3.50531
3.51283
3.51232
3.51101
3.50165
3.50463
3.50762
3.50332
3.4995
3.50177
3.50955
3.50854
3.51314
3.50738
3.504
3.50657
3.52355
3.51624
3.51963
3.5147
3.52201
3.51987
3.51908
3.52002
3.52297
3.52703
3.52804
3.52176
3.5211
3.50826
3.50118
3.49779
3.50149
3.49979
3.49282
3.49377
3.49904
3.4935
3.50119
3.49635
3.49656
3.507
3.50248
3.50316
3.49921
3.49994
3.50017
3.50135
3.49787
3.50062
3.49534
3.49636
3.49159
3.49189
3.49629
3.50077
3.49894
3.49653
3.49606
3.4961
3.51357
3.51487
3.51689
3.5129
3.50539
3.50843
3.49848
3.50776
3.50628
3.50288
3.50549
3.50665
3.50567
3.5048
3.50147
3.50126
3.48025
3.47516
3.47225
3.47445
3.47465
3.47861
3.47359
3.47948
3.47914
3.47358
3.47069
3.47604
3.48142
3.48775
3.48264
3.48766
3.48502
3.48212
3.48796
3.48467
3.48778
3.48712
3.49518
3.49078
3.49139
3.49061
3.49041
3.48998
3.4885
3.48714
3.48536
3.49299
3.48439
3.48894
3.49055
3.48693
3.48562
3.52287
3.51896
3.51676
3.5156
3.51079
3.51812
3.51343
3.51437
3.50542
3.51179
3.50755
3.51594
3.51509
3.51121
3.51292
3.46123
3.46056
3.46617
3.44814
3.45623
3.45285
3.46099
3.45574
3.4466
3.45517
3.45763
3.45117
3.45303
3.45469
3.45228
3.45041
3.44724
3.45271
3.45217
3.48253
3.48922
3.48437
3.47587
3.48624
3.4802
3.47255
3.48298
3.48382
3.47617
3.47614
3.48049
3.47311
3.47444
3.48159
3.47711
3.47785
3.47791
3.48455
3.47811
3.47474
3.4746
3.45633
3.45727
3.45755
3.45749
3.45906
3.46286
3.45731
3.46128
3.46633
3.46041
3.46302
3.46166
3.50634
3.50354
3.51277
3.50853
3.50726
3.50404
3.50969
3.50782
3.51809
3.51871
3.52046
3.5194
3.48393
3.48768
3.49055
3.49124
3.48971
3.48904
3.48357
3.48362
3.48692
3.48875
3.49066
3.49213
3.48667
3.48717
3.49581
3.48905
3.49387
3.49093
3.49708
3.48596
3.48908
3.4894
3.49264
3.49775
3.51899
3.51089
3.51296
3.5161
3.50867
3.50818
3.51014
3.51624
3.5149
3.50376
3.50533
3.49595
3.50937
3.50957
3.50549
3.50682
3.5154
3.51354
3.50746
3.51334
3.50283
3.50225
3.51158
3.50969
3.50804
3.50425
3.51412
3.51182
3.50586
3.50503
3.49941
3.50823
3.50281
3.50434
3.50483
3.50367
3.50573
3.50334
3.49684
3.49911
3.50726
3.505
3.49641
3.50112
3.49846
3.50043
3.50058
3.51966
3.52778
3.52302
3.52793
3.52419
3.52013
3.51401
3.52641
3.5193
3.5251
3.52114
3.522
3.52558
3.52322
3.52436
3.52328
3.5237
3.49387
3.48637
3.49085
3.48452
3.48755
3.47623
3.47725
3.47673
3.48389
3.47991
3.48735
3.48512
3.4894
3.47968
3.47873
3.48064
3.47419
3.48415
3.47809
3.47922
3.47479
3.47595
3.48451
3.48153
3.52571
3.52732
3.52575
3.52787
3.52341
3.51617
3.52505
3.52398
3.5277
3.52727
3.52536
3.52724
3.52604
3.5252
3.5292
3.52852
3.51595
3.51702
3.50259
3.50857
3.50589
3.50455
3.50495
3.51155
3.50576
3.50912
3.4903
3.484
3.49334
3.48637
3.49303
3.49065
3.49604
3.49125
3.45907
3.45952
3.46463
3.4605
3.46136
3.46332
3.46287
3.45941
3.45912
3.46641
3.45921
3.4577
3.46674
3.45904
3.45828
3.45563
3.46139
3.45573
3.46114
3.4563
3.50254
3.50534
3.50491
3.5124
3.51116
3.51049
3.51274
3.50578
3.51415
3.50296
3.50463
3.50147
3.50564
3.46109
3.46973
3.46518
3.4693
3.47347
3.46865
3.47302
3.46836
3.47011
3.47124
3.46974
3.46806
3.4722
3.47487
3.4724
3.46788
3.47001
3.46774
3.46491
3.47187
3.47252
3.47742
3.47323
3.4696
3.47272
3.46758
3.47374
3.4764
3.47365
3.47204
3.52114
3.51255
3.51699
3.523
3.51762
3.47741
3.47779
3.4758
3.47402
3.48006
3.47671
3.4877
3.48319
3.48419
3.48075
3.48293
3.48791
3.48414
3.47972
3.48093
3.47836
3.47655
3.47919
3.51647
3.51231
3.52364
3.51786
3.51639
3.51696
3.51655
3.52334
3.51961
3.51956
3.51805
3.52097
3.52216
3.52072
3.52517
3.52362
3.4684
3.47096
3.47261
3.47533
3.47084
3.46927
3.47027
3.46947
3.47559
3.47224
3.47421
3.46894
3.46933
3.48109
3.4788
3.48494
3.483
3.48632
3.4846
3.49463
3.48491
3.4907
3.4881
3.48425
3.49378
3.49096
3.49169
3.49486
3.48553
3.49208
3.48647
3.48859
3.45341
3.44929
3.44943
3.44751
3.48046
3.48391
3.48914
3.47479
3.47977
3.48046
3.48929
3.48506
3.48114
3.48303
3.48217
3.48916
3.48607
3.48585
3.48139
3.48746
3.48349
3.48377
3.48171
3.48396
3.48254
3.50538
3.50164
3.49902
3.4937
3.49604
3.49445
3.50132
3.49706
3.49718
3.49372
3.49723
3.49273
3.49112
3.49499
3.48658
3.49168
3.49693
3.49661
3.49632
3.49067
3.4925
3.48875
3.48764
3.48759
3.48609
3.49546
3.49436
3.49321
3.49136
3.49113
3.49305
3.49384
3.48539
3.48711
3.49414
3.50212
3.49535
3.49381
3.50109
3.49439
3.49071
3.4971
3.49156
3.45845
3.45831
3.45613
3.46025
3.45731
3.45474
3.46244
3.46386
3.45956
3.4548
3.45734
3.45922
3.45671
3.45324
3.46164
3.51596
3.5108
3.52202
3.51692
3.51416
3.51299
3.50864
3.51165
3.51768
3.51921
3.51697
3.51608
3.51477
3.46133
3.46284
3.46051
3.46353
3.46276
3.46324
3.4652
3.45966
3.46215
3.46103
3.4659
3.4659
3.4623
3.46823
3.46303
3.46476
3.45564
3.45577
3.46156
3.45777
3.45622
3.4597
3.46524
3.46623
3.45842
3.46023
3.45597
3.46946
3.46295
3.46497
3.46466
3.48146
3.47447
3.47989
3.48499
3.48362
3.48992
3.4929
3.48631
3.48447
3.47646
3.47927
3.48586
3.48539
3.478
3.48171
3.48327
3.48355
3.4843
3.48248
3.48327
3.49035
3.49005
3.48668
3.48007
3.48189
3.48742
3.48795
3.47328
3.47297
3.47552
3.47845
3.48089
3.4769
3.47726
3.47256
3.47574
3.4764
3.52549
3.52472
3.53237
3.46555
3.46989
3.4668
3.46394
3.4711
3.46826
3.46921
3.4664
3.4749
3.46551
3.4634
3.46356
3.46638
3.46031
3.46318
3.45836
3.45849
3.45825
3.4627
3.46208
3.46562
3.461
3.46326
3.46377
3.46065
3.45796
3.4579
3.51366
3.51919
3.51698
3.51369
3.51263
3.52535
3.52798
3.52144
3.52406
3.5185
3.52156
3.51746
3.52342
3.51193
3.51728
3.52661
3.52565
3.51829
3.51911
3.52127
3.51716
3.51942
3.52428
3.51963
3.49362
3.49446
3.49462
3.48776
3.48763
3.49565
3.49435
3.49486
3.49441
3.49713
3.49436
3.50468
3.50781
3.51226
3.51079
3.5112
3.51533
3.51308
3.51066
3.50764
3.49376
3.49974
3.49109
3.48761
3.49304
3.4865
3.48772
3.49057
3.49402
3.48993
3.48976
3.46837
3.46028
3.46411
3.46577
3.46795
3.46518
3.46331
3.4718
3.46749
3.4701
3.46474
3.4718
3.4714
3.47123
3.47821
3.47044
3.46703
3.49994
3.50111
3.50349
3.48943
3.49532
3.49306
3.49904
3.49205
3.49761
3.4928
3.49777
3.49503
3.48908
3.49641
3.49299
3.4999
3.49912
3.50479
3.49755
3.49551
3.49949
3.49882
3.49846
3.50147
3.50004
3.50487
3.50482
3.50297
3.49742
3.49437
3.50432
3.50187
3.50186
3.50096
3.49372
3.49409
3.49889
3.49772
3.49997
3.49958
3.47171
3.464
3.46491
3.46289
3.46797
3.46872
3.47193
3.47687
3.46877
3.46968
3.46934
3.46934
3.46709
3.46644
3.46515
3.46861
3.46947
3.4692
3.46945
3.45403
3.46221
3.45546
3.4496
3.46366
3.45845
3.46405
3.4626
3.46196
3.46398
3.46963
3.45914
3.46218
3.46661
3.46162
3.4617
3.46202
3.45434
3.46399
3.46338
3.46512
3.46197
3.44937
3.46532
3.45925
3.46217
3.46084
3.45342
3.46149
3.46295
3.45112
3.44969
3.45566
3.4518
3.4524
3.46862
3.47417
3.4692
3.47088
3.46963
3.47153
3.47055
3.46419
3.46947
3.47097
3.46736
3.4676
3.49874
3.49878
3.50106
3.50605
3.49618
3.48606
3.48895
3.48928
3.49212
3.49082
3.49733
3.49656
3.50018
3.49853
3.48606
3.49189
3.48945
3.49395
3.49603
3.4907
3.49857
3.49639
3.49244
3.49352
3.48736
3.48633
3.48437
3.48881
3.49191
3.49149
3.48511
3.48695
3.48239
3.48756
3.48521
3.4819
3.48609
3.51235
3.50979
3.50829
3.50669
3.50996
3.50811
3.50239
3.50095
3.50578
3.50854
3.50401
3.51318
3.5135
3.51522
3.51327
3.51818
3.5153
3.51494
3.51489
3.51538
3.52377
3.52758
3.52258
3.51997
3.51674
3.51286
3.51052
3.5189
3.51459
3.51166
3.51571
3.51636
3.4659
3.46822
3.46672
3.47101
3.46752
3.4634
3.46128
3.46185
3.52029
3.52711
3.524
3.52654
3.52924
3.52631
3.49382
3.4846
3.48896
3.48776
3.48708
3.48424
3.49217
3.48688
3.47774
3.4767
3.48545
3.48089
3.4787
3.47875
3.47706
3.48906
3.48893
3.48725
3.49629
3.4905
3.48556
3.4839
3.48321
3.48917
3.48946
3.49
3.47268
3.47247
3.47534
3.47705
3.47867
3.47665
3.47533
3.47818
3.47682
3.4767
3.45359
3.45591
3.45219
3.45849
3.46036
3.45557
3.45805
3.46655
3.46554
3.46363
3.45954
3.46173
3.46114
3.4586
3.46175
3.46193
3.46048
3.45745
3.45848
3.46341
3.45953
3.45867
3.4594
3.45588
3.46231
3.45594
3.48559
3.48923
3.48619
3.48627
3.4911
3.48969
3.48656
3.486
3.48738
3.4878
3.49946
3.49178
3.49722
3.49237
3.49603
3.48574
3.50056
3.49937
3.4964
3.49284
3.5014
3.47193
3.47509
3.47519
3.48271
3.47672
3.47994
3.47867
3.48251
3.47883
3.4784
3.48312
3.48169
3.48123
3.48345
3.47955
3.4801
3.47784
3.47753
3.44787
3.44645
3.45466
3.45185
3.45278
3.44867
3.45913
3.45008
3.45735
3.45301
3.45154
3.45236
3.45143
3.45002
3.44955
3.44861
3.44992
3.4518
3.45145
3.4662
3.47081
3.47237
3.47307
3.51216
3.51117
3.51347
3.51521
3.51434
3.51723
3.5077
3.50936
3.51104
3.51674
3.51383
3.51327
3.51536
3.51013
3.51148
3.51298
3.51131
3.51119
3.51844
3.51779
3.52058
3.5244
3.51921
3.51296
3.50855
3.51795
3.51556
3.51256
3.5136
3.50945
3.50903
3.5146
3.51339
3.4772
3.4748
3.4744
3.47565
3.47477
3.51619
3.5155
3.5208
3.5184
3.51509
3.51935
3.45474
3.45498
3.47439
3.47598
3.47926
3.47497
3.47632
3.47756
3.47463
3.47909
3.46766
3.46874
3.45972
3.46349
3.46182
3.46068
3.47257
3.46823
3.46353
3.46308
3.46102
3.46095
3.4735
3.46959
3.46379
3.46174
3.46893
3.47082
3.47232
3.46907
3.46664
3.46807
3.46881
3.46753
3.46097
3.46088
3.46803
3.46209
3.46277
3.47313
3.47189
3.471
3.51308
3.50218
3.5083
3.51367
3.50856
3.50858
3.50945
3.50632
3.50466
3.49528
3.49959
3.49665
3.50075
3.49889
3.49851
3.45876
3.45565
3.46022
3.45842
3.45783
3.45487
3.46369
3.46023
3.46756
3.46531
3.46141
3.46086
3.45849
3.47009
3.46608
3.46118
3.46267
3.46232
3.45795
3.46477
3.46303
3.46503
3.46466
3.46041
3.46916
3.46616
3.47081
3.46503
3.46607
3.46646
3.46388
3.46723
3.46445
3.48123
3.4843
3.49047
3.49376
3.48917
3.48937
3.48566
3.48602
3.48459
3.4836
3.48799
3.48667
3.48552
3.48298
3.48526
3.48113
3.48029
3.47507
3.48289
3.48455
3.50411
3.49882
3.49947
3.50779
3.50435
3.49862
3.49619
3.50378
3.50243
3.5184
3.51512
3.51458
3.50981
3.51138
3.51507
3.52598
3.52475
3.52359
3.51975
3.517
3.51789
3.52123
3.52613
3.52284
3.52139
3.52241
3.51903
3.52377
3.52921
3.52867
3.52803
3.52824
3.47909
3.48014
3.48035
3.47984
3.48664
3.48365
3.48452
3.49075
3.48637
3.48453
3.48063
3.47833
3.47898
3.47909
3.47377
3.4841
3.48222
3.4736
3.47299
3.4741
3.47665
3.47303
3.47467
3.4749
3.47173
3.47106
3.47128
3.47599
3.47384
3.4761
3.52376
3.52363
3.52058
3.51917
3.52148
3.51762
3.5198
3.52362
3.52551
3.5214
3.52916
3.52287
3.51864
3.52
3.51992
3.50596
3.50632
3.49998
3.50862
3.50585
3.49784
3.49964
3.4972
3.49573
3.49523
3.49862
3.49975
3.50476
3.49991
3.50249
3.50387
3.50726
3.4993
3.49869
3.5089
3.50635
3.50536
3.51254
3.50347
3.5007
3.50499
3.50158
3.50725
3.50463
3.49661
3.49715
3.50379
3.49944
3.50425
3.50599
3.49937
3.5055
3.50028
3.49371
3.50098
3.50315
3.5062
3.50427
3.50385
3.50227
3.50493
3.50723
3.51297
3.51167
3.50907
3.5127
3.50307
3.50793
3.50686
3.50461
3.50497
3.50594
3.51088
3.50507
3.51239
3.51399
3.5131
3.50949
3.51134
3.50493
3.5046
3.51661
3.51266
3.51065
3.5142
3.51157
3.50974
3.51479
3.5141
3.50086
3.49414
3.49546
3.49567
3.49156
3.49291
3.49049
3.50211
3.50496
3.49801
3.49762
3.47983
3.48415
3.48134
3.48465
3.48001
3.48434
3.52411
3.51946
3.52714
3.52215
3.51827
3.51908
3.52094
3.52085
3.52263
3.51931
3.52037
3.45751
3.45774
3.45633
3.45521
3.45653
3.45497
3.48578
3.48384
3.49297
3.48631
3.48688
3.45799
3.46141
3.46038
3.4604
3.45925
3.45883
3.46762
3.46189
3.46037
3.45965
3.46506
3.46451
3.46297
3.46351
3.46746
3.46719
3.46281
3.49955
3.50272
3.49725
3.49799
3.49583
3.50673
3.49206
3.49444
3.49281
3.49017
3.49392
3.49208
3.48657
3.48504
3.48661
3.48465
3.49278
3.48822
3.48833
3.48475
3.48242
3.48935
3.48653
3.48695
3.486
3.48001
3.48297
3.487
3.48099
3.48503
3.47783
3.47578
3.47436
3.48869
3.48537
3.4826
3.47767
3.4756
3.47219
3.46587
3.46408
3.47346
3.46912
3.47045
3.4734
3.47912
3.46618
3.47053
3.46853
3.46851
3.47898
3.47476
3.47656
3.48064
3.48268
3.4851
3.479
3.47734
3.50163
3.49515
3.49984
3.49964
3.49978
3.49238
3.49837
3.50013
3.50529
3.51016
3.51075
3.50744
3.5056
3.5125
3.51005
3.50145
3.50236
3.5104
3.50464
3.51122
3.51047
3.51947
3.51108
3.51202
3.52081
3.51886
3.51526
3.51646
3.52013
3.51815
3.5183
3.52098
3.51459
3.51623
3.51637
3.51477
3.51516
3.51622
3.4995
3.50903
3.50654
3.50538
3.50301
3.49829
3.51497
3.51085
3.50726
3.50812
3.5103
3.5063
3.50545
3.50905
3.51215
3.51952
3.51593
3.51451
3.51676
3.51509
3.51886
3.51673
3.51973
3.51596
3.51037
3.50273
3.49469
3.49726
3.50104
3.50279
3.50129
3.50224
3.5041
3.50326
3.50005
3.50579
3.50815
3.50799
3.50177
3.50566
3.46165
3.46735
3.46354
3.4588
3.46265
3.46538
3.45892
3.46227
3.4601
3.45831
3.46434
3.45275
3.45405
3.44928
3.44822
3.44808
3.4501
3.45132
3.46316
3.46376
3.46222
3.46377
3.46082
3.46505
3.4681
3.46709
3.4675
3.4902
3.49367
3.49228
3.48831
3.52202
3.52518
3.5241
3.5232
3.5193
3.51828
3.52187
3.52019
3.52482
3.52505
3.49311
3.50054
3.49972
3.49436
3.49211
3.49511
3.49755
3.4969
3.49919
3.50117
3.49919
3.50329
3.50089
3.4967
3.4988
3.49537
3.50252
3.50407
3.50533
3.4996
3.49645
3.46932
3.47549
3.47146
3.47202
3.47065
3.4726
3.47657
3.47831
3.47906
3.47557
3.47541
3.48026
3.46835
3.47825
3.50854
3.50595
3.50502
3.50386
3.50655
3.50881
3.51464
3.50709
3.50891
3.50804
3.46001
3.45795
3.45823
3.45318
3.45297
3.45589
3.46114
3.45843
3.45426
3.47954
3.47497
3.48142
3.47378
3.48415
3.47905
3.47717
3.4797
3.47989
3.48202
3.47828
3.46729
3.46407
3.46347
3.4633
3.46909
3.47179
3.46754
3.47066
3.47023
3.45651
3.4579
3.45856
3.46287
3.46163
3.45381
3.45743
3.51886
3.51653
3.51649
3.52045
3.51537
3.51772
3.51922
3.5181
3.51951
3.5104
3.44892
3.45034
3.45248
3.44986
3.44644
3.44336
3.44892
3.45215
3.4509
3.48978
3.4933
3.49399
3.49187
3.48592
3.49574
3.49163
3.49329
3.49136
3.49285
3.4944
3.49508
3.46762
3.46627
3.47141
3.4592
3.46475
3.467
3.46092
3.46632
3.46237
3.46543
3.46488
3.45905
3.46863
3.46297
3.46389
3.46319
3.46759
3.46646
3.46892
3.46752
3.47184
3.46637
3.45961
3.4646
3.45873
3.46749
3.46589
3.46904
3.46147
3.47649
3.47744
3.47522
3.47684
3.47819
3.48243
3.48218
3.48398
3.48143
3.4766
3.47955
3.47123
3.47272
3.47401
3.47454
3.48265
3.4797
3.52524
3.52412
3.52373
3.52505
3.52294
3.49409
3.48962
3.4894
3.49751
3.49312
3.49263
3.49002
3.4901
3.49648
3.50039
3.49729
3.49834
3.49465
3.5014
3.50535
3.50766
3.49831
3.49516
3.50942
3.50691
3.49521
3.50062
3.52772
3.5209
3.52404
3.52023
3.52418
3.52151
3.52931
3.52474
3.52839
3.52413
3.52401
3.52647
3.53131
3.52277
3.48031
3.48009
3.48131
3.48471
3.48343
3.47927
3.47902
3.48167
3.47952
3.47602
3.4838
3.48574
3.49082
3.48989
3.48856
3.48976
3.48068
3.52357
3.52513
3.52654
3.51668
3.51793
3.51773
3.51795
3.52136
3.52053
3.52552
3.52337
3.52117
3.51756
3.52351
3.52153
3.46653
3.47366
3.47525
3.47446
3.46867
3.47656
3.47767
3.47801
3.4695
3.47279
3.4711
3.47542
3.47546
3.46517
3.47258
3.47164
3.47001
3.47079
3.50429
3.51335
3.50472
3.50381
3.50594
3.50715
3.51156
3.50853
3.50791
3.51218
3.51203
3.51064
3.5132
3.50756
3.50557
3.50663
3.50836
3.50539
3.50273
3.50108
3.50043
3.49777
3.50192
3.50976
3.50756
3.4891
3.49956
3.5024
3.50404
3.49613
3.49615
3.50067
3.50221
3.50169
3.50385
3.50164
3.47197
3.47129
3.47693
3.47605
3.47592
3.47855
3.47962
3.48043
3.47812
3.46778
3.47068
3.4915
3.51829
3.52246
3.52099
3.52715
3.52108
3.519
3.52408
3.52359
3.52289
3.52044
3.44866
3.45037
3.44971
3.44988
3.47776
3.45467
3.45184
3.45452
3.4476
3.46008
3.45839
3.46023
3.45673
3.4531
3.4535
3.45798
3.45397
3.45829
3.46251
3.45335
3.45353
3.45785
3.4538
3.51411
3.51088
3.5105
3.51415
3.50968
3.50705
3.51367
3.50603
3.50521
3.50971
3.50947
3.50824
3.5098
3.51115
3.52399
3.52108
3.51904
3.52009
3.52236
3.47949
3.48535
3.48521
3.49002
3.48876
3.48948
3.49156
3.49147
3.49264
3.4947
3.49036
3.48977
3.48901
3.4943
3.49454
3.49306
3.48877
3.48953
3.49353
3.48966
3.48733
3.47907
3.48331
3.51289
3.51228
3.51313
3.45359
3.45272
3.48216
3.48143
3.48492
3.48407
3.48174
3.48588
3.48405
3.4811
3.47793
3.47653
3.47862
3.48015
3.48191
3.47977
3.4744
3.47364
3.47867
3.47816
3.48266
3.47862
3.48035
3.47602
3.47282
3.47781
3.47704
3.48117
3.48744
3.48833
3.48966
3.48717
3.48817
3.48291
3.49179
3.49167
3.48993
3.49222
3.4919
3.50157
3.50021
3.49928
3.49978
3.49736
3.49091
3.48579
3.48805
3.49038
3.49043
3.49201
3.50427
3.50726
3.50341
3.50498
3.50974
3.50599
3.50271
3.50542
3.50723
3.51096
3.50922
3.50449
3.47337
3.47103
3.47436
3.47899
3.51537
3.51715
3.51986
3.52214
3.51737
3.51868
3.51402
3.5188
3.52181
3.51986
3.51926
3.52156
3.51919
3.48017
3.4863
3.48281
3.4848
3.48349
3.48168
3.47879
3.47894
3.48798
3.4836
3.50796
3.48676
3.49259
3.48633
3.48765
3.49315
3.49286
3.49269
3.48613
3.48264
3.48763
3.48831
3.49072
3.49214
3.48926
3.4916
3.49201
3.49341
3.4907
3.49131
3.48634
3.48336
3.46172
3.46454
3.46639
3.46642
3.46119
3.46041
3.4655
3.45978
3.45987
3.46026
3.46792
3.46302
3.47093
3.46624
3.45966
3.4595
3.46149
3.46076
3.45879
3.45891
3.46125
3.46128
3.46266
3.51713
3.51906
3.51536
3.50969
3.51963
3.5192
3.5261
3.52227
3.51308
3.51285
3.51469
3.51512
3.51571
3.51344
3.51802
3.51963
3.51614
3.51959
3.46699
3.46724
3.45782
3.48721
3.48578
3.4877
3.48615
3.48545
3.4926
3.49037
3.49322
3.48848
3.48737
3.48406
3.48675
3.48197
3.48491
3.48831
3.4639
3.46343
3.45065
3.4584
3.46329
3.46156
3.46493
3.46148
3.45811
3.46438
3.4564
3.45949
3.45906
3.4639
3.45974
3.46252
3.45841
3.45538
3.4567
3.46209
3.46086
3.46045
3.4608
3.50372
3.5136
3.51371
3.50767
3.50985
3.52198
3.51585
3.52656
3.51499
3.5197
3.52047
3.52028
3.52584
3.52604
3.52882
3.52177
3.52343
3.52471
3.52277
3.52329
3.52791
3.47455