/*--------------------------------*- C++ -*----------------------------------*\
| =========                 |                                                 |
| \\      /  F ield         | OpenFOAM: The Open Source CFD Toolbox           |
|  \\    /   O peration     | Version:  v1612+                                |
|   \\  /    A nd           | Web:      www.OpenFOAM.com                      |
|    \\/     M anipulation  |                                                 |
\*---------------------------------------------------------------------------*/
FoamFile
{
    version     2.0;
    format      ascii;
    class       volScalarField;
    location    "150";
    object      p;
}
// * * * * * * * * * * * * * * * * * * * * * * * * * * * * * * * * * * * * * //

dimensions      [0 2 -2 0 0 0 0];

internalField   nonuniform List<scalar> 
17046
(
1.78044
1.95089
1.81223
1.7469
1.7482
1.94283
1.94148
1.93466
1.95127
1.99764
1.94822
1.97167
1.91563
1.92816
1.9678
1.9649
1.98526
1.98253
2.00313
1.96718
1.9316
1.78962
1.79139
1.79522
1.80579
1.8034
1.82218
1.80015
1.79254
1.78665
1.78578
1.78588
1.78582
1.81573
1.81341
1.79633
1.80258
1.79133
1.77962
1.79866
1.78978
1.79956
1.80541
1.79688
1.80667
1.79281
1.78954
1.79563
1.79527
1.79985
1.79404
1.79733
1.79316
1.80824
1.80815
1.80101
1.79751
1.80429
1.80953
1.73342
1.73816
1.74101
1.73664
1.73723
1.73462
1.73131
1.73805
1.73725
1.73853
1.73428
1.73872
1.73842
1.73547
1.74402
1.73142
1.73675
1.7348
1.78723
1.79429
1.79044
1.8098
1.79806
1.78673
1.79025
1.79471
1.80985
1.81088
1.8245
1.81389
1.80226
1.81083
1.81738
1.82941
1.79758
1.81012
1.79773
1.79251
1.78699
1.78046
1.78349
1.77903
1.78353
1.78574
1.77531
1.7683
1.77157
1.77298
1.79237
1.78185
1.76873
1.83151
1.83582
1.85298
1.83968
1.83593
1.80589
1.80219
1.8158
1.84472
1.85554
1.84957
1.81789
1.81156
1.80662
1.81615
1.91444
1.91325
1.88877
1.89179
1.91072
1.87457
1.88964
1.88109
1.86613
1.87068
1.88129
1.87572
1.89535
1.88035
1.85811
1.88849
1.89998
1.91133
1.89243
1.91689
1.93167
1.92405
1.93041
1.92072
1.87404
1.8842
1.89836
1.91733
1.88225
1.86753
1.86804
1.89547
1.87728
1.77744
1.75771
1.75979
1.75366
1.75802
1.77463
1.78174
1.76875
1.76557
1.7635
1.76563
1.77734
1.78451
1.75705
1.76738
1.75906
1.77402
1.76826
1.77346
1.77436
1.76972
2.00148
1.99553
2.02194
2.03798
2.03556
2.05143
1.97055
1.96667
2.02836
2.0198
1.99116
2.0066
2.02879
2.05186
2.05526
2.03902
2.01824
2.04094
1.78801
1.78295
1.79618
1.77327
1.80223
1.80329
1.77442
1.78273
1.8042
1.77646
1.79515
1.78654
1.78707
1.79095
1.79594
1.81265
1.80802
1.80253
1.78608
1.80653
1.77324
1.80352
1.8092
1.81071
1.79149
1.77327
1.80311
1.79143
1.78199
1.77133
1.80175
1.78692
1.79612
1.78322
1.78786
2.06527
2.05558
2.0543
2.08498
2.07657
2.08394
2.10183
2.10814
2.06629
2.09927
2.10077
2.10181
2.12876
2.14265
2.09842
2.10597
2.10578
2.12056
2.14131
2.11961
2.11557
2.1248
1.74664
1.73348
1.72945
1.7425
1.74448
1.74624
1.7421
1.72679
1.72661
1.7305
1.74041
1.74421
1.73315
1.73449
1.82378
1.80521
1.80021
1.80706
1.83157
1.82743
1.79855
1.81594
1.79947
1.82283
1.82578
1.8119
1.8106
1.83957
1.79537
1.79818
1.83311
1.83975
1.82116
1.81351
1.80663
1.85452
1.85953
1.82927
1.8676
1.88102
1.83254
1.81486
1.83623
1.85963
1.82772
1.8397
1.824
1.87854
1.84919
1.83438
1.81717
1.81071
1.81916
1.82878
1.81426
1.86094
1.85943
1.78585
1.77429
1.78849
1.78906
1.78113
1.78044
1.78112
1.76993
1.77398
1.78151
1.80637
1.78294
1.7955
1.79715
1.76711
1.77262
1.77294
1.78325
1.78463
1.77783
1.83264
1.84431
1.8428
1.85704
1.82018
1.82636
1.82568
1.826
1.88728
1.84504
1.84416
1.84661
1.82829
1.83778
1.86303
1.8721
1.86964
1.89563
1.87504
1.87223
1.88429
1.85858
1.8807
1.86824
2.06206
2.08952
2.06769
2.07756
2.06575
2.04407
2.04364
2.04357
2.00186
1.99055
1.99232
1.98693
1.9926
1.96615
1.94864
2.0034
2.03075
1.74269
1.739
1.74376
1.74268
1.74478
1.7495
1.73392
1.74005
1.74194
1.74481
1.74686
1.74393
1.73981
1.73805
1.73728
1.73894
1.72995
1.73257
1.73794
1.74533
1.73493
1.73443
1.74127
1.87487
1.85577
1.84055
1.85788
1.89571
1.84003
1.88431
1.88076
1.91142
1.89997
1.83058
1.87447
1.86231
1.9109
1.84389
1.89719
1.88468
1.77131
1.77338
1.77605
1.77698
1.77646
1.78201
1.78564
1.78948
1.77175
1.77253
1.78695
1.78782
1.78485
1.78862
1.77988
1.77581
1.77173
1.7821
1.78783
1.78344
1.77708
1.77201
1.78642
1.78759
1.78386
1.77373
1.80448
1.79584
1.81359
1.79483
1.77725
1.77331
1.79872
1.7869
1.79852
1.78232
1.79528
1.7864
1.78241
1.89522
1.89727
1.85738
1.8406
1.82785
1.81411
1.81992
1.86773
1.86812
1.86577
1.83201
1.81584
1.81234
1.83101
1.83442
1.83663
1.8325
1.8309
1.75997
1.76662
1.763
1.76563
1.76562
1.75774
1.75991
1.75679
1.76508
1.76762
1.76545
1.77408
1.76682
1.75544
1.76325
1.84734
1.82751
1.83432
1.82896
1.81273
1.84071
1.85141
1.87309
1.85531
1.85865
1.84647
1.86984
1.8739
1.98208
1.98288
2.00841
2.00146
1.94518
1.95577
1.96545
1.98814
1.98887
2.01902
1.93139
1.94871
1.97462
1.97178
1.93109
1.93096
1.95922
1.98834
1.98229
1.95453
1.96835
1.80535
1.81271
1.80824
1.79387
1.79623
1.80017
1.79246
1.80059
1.80045
1.78858
1.78821
1.81418
1.79552
1.80976
1.80158
1.81266
1.80269
1.81217
1.81138
1.80643
1.79122
1.79444
1.79745
1.7996
1.80959
1.80708
1.80045
1.80759
1.8034
1.80634
1.78196
1.78791
1.79776
1.79434
1.79359
1.79504
1.79989
1.79479
1.78933
1.7907
1.80011
1.79013
1.79594
1.78784
1.89344
1.89743
1.87481
1.89211
1.88104
1.84297
1.8766
1.85814
1.76788
1.76214
1.77538
1.78128
1.76232
1.77326
1.77509
1.76606
1.77067
1.7763
1.7763
1.76744
1.76781
1.76087
1.76384
1.76659
1.77292
1.76744
1.76337
1.76159
1.74296
1.7448
1.73702
1.7442
1.74775
1.74081
1.73972
1.77543
1.77188
1.75307
1.75631
1.75735
1.75508
1.75037
1.76591
1.76252
1.77759
1.77433
1.74717
1.75508
1.75608
1.74973
1.76283
1.75664
1.76298
1.9868
1.97147
1.98102
1.98957
1.95234
1.94957
1.95903
1.96304
1.95958
1.99002
1.97946
1.96256
1.95578
1.97433
1.96444
1.9691
1.98853
1.96127
1.95182
2.01014
1.98504
2.00822
2.01981
2.02598
2.01607
2.01987
1.98731
2.01863
2.02258
2.02768
1.78323
1.77518
1.78912
1.78989
1.78625
1.7875
1.79382
1.78318
1.79956
1.79833
1.78428
1.79819
1.79472
1.79471
1.79833
1.78761
1.80559
1.81439
1.80003
1.80464
1.80373
1.80614
1.80986
1.80769
2.15263
2.16364
2.12354
2.12507
2.14336
2.13435
2.13777
2.101
2.08999
2.10183
2.09535
2.13546
2.08137
2.10907
2.09497
1.80106
1.79989
1.79765
1.80265
1.8044
1.80585
1.80143
1.80981
1.78234
1.80018
1.78381
1.79754
1.82533
1.80233
1.82233
1.79106
1.82088
1.80257
1.79292
1.80301
1.80468
1.74382
1.74196
1.75114
1.74541
1.75381
1.75835
1.748
1.75111
1.75269
1.74244
1.74223
1.74875
1.74425
1.74699
1.74894
1.7396
1.73127
1.7284
1.73499
1.73006
1.74165
1.73258
1.73064
1.73514
1.72986
1.72819
1.73026
1.74184
1.72499
1.762
1.76226
1.75477
1.76056
1.7577
1.75994
1.76516
1.76579
1.77163
1.75966
1.76875
1.76688
1.76628
1.76665
1.76707
1.77136
1.76851
1.77238
1.76251
1.76843
1.76181
1.76898
1.77244
1.77158
1.76612
1.76501
1.76159
1.76535
1.76421
1.76205
1.76231
1.75983
1.75076
1.75502
1.7609
1.76054
1.75516
1.76198
1.76278
1.76088
1.76032
1.7599
1.76077
1.75634
1.7629
1.75305
1.78783
1.80337
1.80245
1.82135
1.81351
1.82874
1.82778
1.82311
1.82489
1.83795
1.83085
1.81931
1.81797
1.83388
1.83578
1.83354
1.82778
1.82308
1.83124
1.84857
1.85074
1.83158
1.83994
1.84278
1.86437
1.86998
1.84621
1.86376
1.84358
1.83295
1.85951
1.86709
1.86596
1.85932
1.84666
1.85139
1.86048
1.86116
1.86224
1.76983
1.77243
1.77669
1.77527
1.77406
1.7815
1.75701
1.76526
1.77625
1.77799
1.77211
1.77433
1.78646
1.7871
1.77752
1.76382
1.77647
1.7832
1.78526
1.78128
1.74125
1.74369
1.75846
1.75004
1.74517
1.74147
1.75748
1.75803
1.74594
1.74937
1.75617
1.74468
1.74745
1.75292
1.81301
1.82614
1.82574
1.81425
1.81587
1.81759
1.8194
1.82822
1.80265
1.80409
1.81275
1.81019
1.8088
1.81405
1.74851
1.74788
1.75101
1.756
1.75933
1.74638
1.75452
1.75048
1.74182
1.74844
1.74171
1.74163
1.74247
1.89081
1.88534
1.88785
1.84639
1.85074
1.87441
1.88645
1.89228
1.84004
1.84043
1.87742
1.86321
1.88298
1.86268
1.86702
1.85049
1.87166
1.80654
1.80682
1.8575
1.87506
1.87239
1.85548
1.85564
1.86936
2.03614
2.03588
2.02519
1.74674
1.7395
1.74278
1.75378
1.75191
1.79458
1.7978
1.93761
1.93181
1.78574
1.77977
1.78369
1.74485
1.73871
1.73835
1.84647
1.86099
1.85309
1.86346
2.08477
2.06682
2.08198
1.74702
1.75622
1.7661
1.75857
1.75488
1.76107
1.87068
1.87299
1.86862
1.88508
1.86509
1.84426
1.84751
1.84305
1.84701
1.76798
1.76671
1.81956
1.82194
1.82816
1.74776
1.74627
2.05174
2.05641
1.75232
1.7535
1.75054
1.77273
1.7716
1.92553
1.92563
1.94301
1.79383
1.78777
1.7873
1.78421
1.77465
1.77337
1.8125
1.81564
1.77361
1.77373
1.773
1.77458
1.77576
1.83156
1.82416
1.8292
1.82513
1.76748
1.75654
1.77344
1.76819
2.14029
2.12677
2.11885
1.76373
1.76374
1.7674
1.75897
1.75889
1.75868
1.759
1.74823
2.01448
1.99588
1.98974
1.98295
1.78437
1.78202
1.79788
1.87806
1.89172
1.9005
1.89351
1.8139
1.814
2.13339
2.12738
1.78602
1.78198
1.77807
1.89275
1.89313
1.76463
1.76284
1.76351
1.96496
1.97441
1.96573
1.84333
1.84045
1.77624
1.77223
1.77134
1.77136
1.78278
1.78247
1.78068
1.77851
1.75192
1.76083
1.75954
1.9218
1.93951
1.95222
1.8916
1.78365
1.77853
1.82651
1.78751
1.81233
1.81068
1.80026
1.80286
1.77127
1.77258
1.77341
2.09445
2.08239
1.77674
1.77453
1.86114
1.86826
1.79148
1.79291
1.79077
1.78776
1.78412
1.97979
1.97006
1.97181
2.18118
2.18302
2.14016
1.75689
1.75821
1.82757
1.82376
1.7761
1.77609
1.77266
1.77356
1.7758
1.95713
1.94976
1.79417
1.79239
1.79351
1.78896
1.78764
1.75107
1.74862
1.77467
1.77137
1.78853
1.78783
1.7886
1.78617
1.78398
1.76374
1.76559
1.76866
1.77789
1.78009
1.77702
1.77721
1.75047
1.75253
1.75384
1.80686
1.80583
1.80149
1.8063
1.81027
1.81133
1.9621
1.92458
1.9432
1.89664
2.17043
2.16966
1.97393
1.98194
1.9715
1.96719
1.85829
1.84041
1.82062
1.81487
1.82456
1.85222
1.82142
1.93296
1.93556
1.78169
1.78465
1.79603
1.76959
1.76532
1.77626
1.79013
1.80569
1.80875
1.79949
1.80015
1.79128
1.78745
1.77846
1.78407
1.78692
1.78148
1.78385
1.77262
1.77854
1.77469
1.77049
1.76614
1.77063
1.7601
1.76327
1.76311
1.76554
1.77187
1.77224
1.78348
1.80324
1.78496
1.78156
1.81822
1.8108
1.77321
1.77778
1.7857
1.79139
1.76378
1.75747
1.76615
1.76255
1.76471
1.75582
1.75831
1.77172
1.77111
1.76143
1.77371
1.76718
1.75546
1.74848
1.75889
1.75733
1.7865
1.78247
1.77657
1.77553
1.93025
1.91935
1.92138
1.93725
1.94155
1.92722
1.95296
1.93882
1.90006
1.90715
1.95435
1.93586
1.95277
1.96799
1.95594
1.93531
1.97082
1.93104
1.93278
1.92639
1.93267
1.92405
1.94018
1.93047
1.79337
1.78308
1.92371
1.90507
1.91844
1.8824
1.87527
1.86786
1.85588
1.98101
1.98314
1.99506
1.95561
1.96281
1.99441
1.97495
1.97605
2.0068
2.00394
1.9987
1.96932
1.97293
1.96714
2.00336
1.9976
1.95261
1.92838
1.93146
1.92077
1.93145
1.92576
1.9594
1.94938
1.94138
1.94778
2.18566
2.18606
2.15054
2.15155
2.13157
2.1623
2.15163
2.15834
2.15306
2.1683
2.19241
2.1826
2.1488
2.14437
2.15163
2.18488
2.16758
2.13398
2.14829
2.12735
2.17531
2.13277
2.16145
2.14802
2.15016
2.16202
2.15125
1.91857
1.87254
1.89765
1.89162
1.86656
2.01287
1.9947
1.96131
1.95348
1.96385
1.90321
1.92342
1.9528
1.92764
1.99135
1.82778
1.82439
1.81911
1.8099
1.81317
1.81723
1.81479
1.81346
1.80166
1.81061
1.80758
1.7967
1.79977
1.80034
1.79774
1.79298
1.78767
1.80186
1.79739
1.79782
1.80203
1.79846
1.82049
1.81274
1.81958
1.84739
1.83188
1.83467
1.83036
1.81057
1.81435
1.81577
1.82706
1.82364
1.81266
1.8097
1.82834
1.82891
1.79375
1.79438
1.79938
1.74636
1.74473
1.75243
1.75718
1.75989
1.75881
1.75531
1.75607
1.75748
1.75584
1.75754
1.75659
1.7531
1.75879
1.75106
1.75487
1.75143
1.74395
1.75175
1.75474
1.7421
1.75168
1.74959
1.7532
1.77723
1.77474
1.77692
1.77433
1.77886
1.77535
1.77883
1.78138
1.78042
1.78051
1.77897
1.77917
1.76988
1.76792
1.76881
1.7675
1.76747
1.76564
1.76791
1.76759
1.76765
1.76447
1.76525
1.76465
1.76494
1.76234
1.76505
1.7566
1.76563
1.78199
1.78755
1.79053
1.78342
1.79153
1.79092
1.79016
1.78428
1.78943
1.79354
1.78888
1.79179
1.79189
1.79229
1.79578
1.74602
1.75032
1.75489
1.77757
1.77559
1.78702
1.75349
1.75089
1.76126
1.76247
1.7648
1.77196
1.77007
1.7696
1.76859
1.7626
1.76626
1.7575
1.75787
1.75345
1.74119
1.7389
1.74823
1.74919
1.74473
1.74857
1.74906
1.74381
1.7423
1.74879
1.74625
1.74506
1.74969
1.7479
1.75567
1.75212
1.74713
1.75097
1.79294
1.79031
1.79362
1.78137
1.7871
1.79286
1.8162
1.81513
1.8172
1.80708
1.79954
1.81023
1.82925
1.84749
1.81301
1.79972
1.80858
1.80718
1.79202
1.79176
1.79648
1.79811
1.79891
1.79784
1.796
1.80047
1.79925
1.80171
2.02134
2.00031
1.99591
1.90093
1.86117
1.84528
1.84825
1.90966
1.9106
1.77808
1.77385
1.77623
1.77836
1.78187
1.78124
1.77623
1.77657
1.77927
1.78104
1.87106
1.85745
1.85299
1.84726
1.7915
1.78654
1.80392
1.80574
1.83585
1.83714
1.85263
1.75248
1.75322
1.75638
1.75885
1.76364
1.76331
1.75967
1.7637
1.76567
1.75913
1.75484
1.75949
1.75695
1.75767
1.76554
1.76292
1.76017
2.12605
2.08055
2.12392
2.13677
1.94862
1.95326
1.94062
1.95322
1.97328
1.96843
2.00168
1.99907
1.97002
1.96885
2.0086
1.97058
1.98165
1.98616
1.96967
1.80026
1.80202
1.79459
1.791
1.78236
1.78539
1.78549
1.80512
1.80144
1.80205
1.77444
1.77812
1.78099
1.7806
1.77931
1.80203
1.80699
1.80299
1.80328
1.79441
1.80618
1.8016
1.79866
1.80936
1.84755
1.86023
1.84703
1.84433
1.8282
1.8168
1.86703
1.85883
1.85765
1.86578
1.90936
1.87198
1.87945
1.91335
1.92868
1.89621
1.87891
1.76975
1.7702
1.78534
1.77215
1.77853
1.77807
1.78042
1.7861
1.7783
1.78236
1.77919
1.79028
1.78879
1.779
1.78248
1.78274
1.77477
1.77976
1.88265
1.86409
1.88707
1.85357
1.84461
1.83664
1.8109
2.08051
2.07906
2.09701
1.99778
2.02041
2.00447
1.98572
2.03032
2.10061
2.10755
2.08462
2.09842
2.0964
2.08785
2.09008
2.12231
2.13974
2.10451
2.09512
2.11819
2.09547
2.08425
2.10254
2.14126
2.12637
1.76426
1.76819
1.76931
1.77116
1.76933
1.80304
1.80733
1.7977
1.79319
1.79717
1.79175
1.79143
1.79768
1.80181
1.7994
1.79793
1.79616
1.80028
1.84119
1.81848
1.81025
1.81034
1.80354
1.77275
1.77985
1.77513
1.78736
1.8179
1.80375
1.80428
1.80783
1.8024
1.78462
1.81329
1.82881
1.81548
1.83106
1.83311
1.77296
1.77577
1.77935
1.78167
1.77796
1.77709
1.78092
1.77992
2.03931
2.03335
2.00884
1.97668
1.96921
1.85488
1.87376
1.87991
1.96038
1.99369
1.93854
1.96963
1.97551
1.89558
1.89754
1.88986
1.92626
1.91485
1.94642
1.95066
1.93754
1.95964
1.97668
1.74796
1.7501
1.75092
1.74307
1.78837
1.79399
1.79589
1.77504
1.77733
1.77161
1.74226
1.74246
1.7505
1.74307
1.75331
1.78521
1.78553
1.78299
1.78633
1.78384
1.78559
1.78642
1.78672
1.79321
1.79126
1.76726
1.77426
1.77085
1.76673
1.76906
1.76955
1.7656
1.76772
1.77824
1.77796
1.77945
1.77629
1.78189
1.77354
1.77591
1.7743
1.77396
1.77657
1.77348
1.77431
1.76707
1.77215
1.77054
1.7671
1.77182
1.73315
1.73654
1.73514
1.73548
1.73804
1.73387
1.88401
1.84894
1.8666
1.86457
1.83649
1.84164
1.85815
1.84215
1.8839
1.87668
1.85952
1.88312
1.87701
1.85884
1.8514
1.87747
1.81502
1.81853
1.82664
1.82751
1.82756
1.84709
1.83424
1.8261
1.82575
1.82092
1.84357
1.8483
1.83714
1.94086
1.89764
1.92778
1.92191
1.92959
1.86733
1.89087
1.89031
1.93796
1.93288
1.88705
1.86275
2.01036
1.98281
2.01222
2.02273
2.00028
1.97636
2.03341
2.06208
2.04869
2.05585
2.02082
1.99069
2.02424
1.98047
1.99525
2.02192
2.0061
2.0103
1.98802
2.03572
1.87102
1.86167
1.86059
1.85219
1.85063
1.85646
1.87306
1.87531
1.9028
1.90594
1.89867
1.86841
1.88875
1.89424
1.87307
1.86382
1.89442
1.8859
1.85556
1.86025
1.8537
1.84502
1.77684
1.7753
1.77982
1.78123
1.78121
1.77448
1.77862
1.77233
1.77356
1.7785
1.78337
2.11945
2.12363
2.11048
2.06808
2.05776
2.09386
2.14325
2.11967
2.14999
2.12891
2.12163
2.10488
1.86418
1.85913
1.85378
1.82665
1.80361
1.80634
1.82043
1.82051
1.82744
1.78302
1.79218
1.79428
1.78631
1.7883
1.7963
1.88706
1.92302
1.93032
1.93154
1.92811
1.92568
1.91147
1.89736
1.92461
1.81307
1.80129
1.78773
1.81598
1.81762
1.8367
1.83765
1.82409
1.82034
1.84098
1.80882
1.83265
1.83599
1.8281
1.81112
1.92909
1.91883
1.90911
1.86942
1.88519
1.90813
1.88188
2.03465
1.9877
2.01046
2.03065
2.00451
1.99129
2.00764
2.01196
1.99914
2.0119
1.9296
1.90063
1.9413
1.95932
1.9314
1.89202
1.89861
1.92717
1.91845
1.92995
1.91936
1.97102
1.96605
1.95275
1.97432
1.97525
1.92146
1.91017
1.91561
1.94958
1.92612
1.9725
1.97643
1.97235
1.97437
1.96273
1.95783
1.98016
1.97931
1.95299
1.91573
1.91354
1.92626
1.89923
1.87813
2.00635
2.02273
2.0455
2.02461
2.03078
2.02943
2.05874
2.05477
2.06037
2.0659
2.07099
2.07571
2.04037
2.06915
2.0975
2.0562
2.06447
2.05019
2.05401
2.03153
2.1055
1.75751
1.74796
1.76026
1.75877
1.75599
1.74901
1.751
1.75217
1.75177
1.75865
1.76392
1.76367
1.75852
1.75804
1.75859
1.75386
1.75755
1.75709
1.75804
1.75599
1.75715
1.76435
1.76972
1.78989
1.77194
1.77405
1.76543
1.76718
1.76775
1.76723
2.07111
2.10632
2.1047
2.09612
2.11618
2.10589
1.75147
1.73631
1.74948
1.75488
1.75818
1.75462
1.74358
1.8409
1.83608
1.82308
1.82132
1.84141
1.83167
1.80167
1.81935
1.81155
1.81389
1.80509
1.81174
1.8164
1.80551
1.81163
1.8044
1.86114
1.84984
1.85134
1.81876
1.8238
1.82386
1.82956
1.83801
1.84198
1.8363
1.83641
1.82676
1.81666
1.81894
1.83941
1.84064
1.83458
1.82936
1.7824
1.78229
1.77534
1.77935
1.79123
1.77894
1.77505
1.76856
1.77425
1.77337
1.78147
1.77735
1.77212
1.79421
1.80319
1.79787
1.79925
1.92815
1.915
1.92225
1.9477
1.95621
1.95172
1.94304
1.93816
1.93365
1.92451
1.94846
1.93391
1.88639
1.91184
1.90522
1.88832
1.88913
1.89999
1.91243
1.90158
1.91573
1.90843
1.89332
1.89691
1.91412
1.89936
1.88992
1.89545
1.88425
1.91032
1.90518
1.89288
1.89155
1.75049
1.74723
1.75239
1.75375
1.74697
1.74997
1.7521
1.75174
1.75183
1.74957
1.7507
1.75031
1.75391
1.75689
1.76003
1.75908
1.756
1.75331
1.75327
1.75311
1.75447
1.75437
2.07251
2.06716
1.97964
1.99668
1.99089
2.00161
2.001
1.99396
1.98668
2.0147
2.00275
2.02305
2.02085
2.09973
2.0834
2.08095
2.05478
2.06259
2.05626
2.04658
2.08107
2.08537
2.06996
1.74706
1.7524
1.74555
1.7451
1.74747
1.74767
1.82298
1.8302
1.82833
1.82253
1.81508
1.80199
1.8069
1.81013
1.80665
1.84398
1.83961
1.84036
1.82021
1.83383
1.82721
1.82464
1.84114
1.82983
1.8014
1.8031
1.79612
1.7996
1.78241
1.81061
1.81339
1.79221
1.78767
1.78752
1.78314
1.76199
1.76425
1.76624
1.76249
1.81947
1.82325
1.80774
1.82762
1.82022
1.83064
1.83164
1.8068
1.79951
1.87339
1.89679
1.88711
1.90864
1.89876
1.87585
1.85493
1.93572
1.87976
1.84297
1.84712
1.81391
1.83719
1.84187
1.8216
1.86693
1.87942
1.76612
1.76458
1.77448
1.76756
1.76229
1.76311
1.84782
1.85094
1.85412
1.85597
1.85267
1.88308
1.87882
1.75524
1.75561
1.75356
1.74843
1.75607
1.76281
1.75879
1.74651
1.74806
1.74367
1.81098
1.79709
1.78941
1.78829
1.79041
1.79533
1.8013
1.79923
2.05591
2.03301
2.0329
2.05201
2.05027
2.08168
2.08087
2.06688
2.07104
2.07547
2.02026
2.00677
2.01023
2.09341
2.08857
2.12597
2.11187
1.83147
1.81417
1.81049
1.83972
1.83483
1.79164
1.81822
1.8108
1.80693
1.80734
1.74712
1.75185
1.7446
1.74513
1.74025
1.74839
1.75078
1.74648
1.74764
1.74864
1.74682
1.74338
1.74573
1.74525
1.74435
1.78505
1.79022
1.79224
1.79032
1.79081
1.78195
1.78779
1.79079
1.79087
1.78613
1.78475
1.78685
1.78655
1.78822
1.78448
1.78074
1.78109
1.78365
1.78326
1.78158
1.78463
1.78377
1.78686
1.78041
1.78389
1.78608
1.97907
2.00058
1.98674
2.0053
1.99263
1.98588
1.9731
1.94667
1.96159
1.95122
1.9709
1.96202
1.92737
1.9068
1.88809
1.94102
1.92342
1.91256
1.91907
1.93867
1.89203
1.88501
1.89594
1.90729
1.8809
1.88748
1.80692
1.82106
1.81805
1.79754
1.8088
1.80777
1.76074
1.76031
1.76045
1.76369
1.76447
1.75719
1.7495
1.7497
1.75196
1.75115
1.74452
1.74581
1.73699
1.74231
1.73983
1.74217
1.74886
1.74828
2.00136
2.0142
2.02374
2.01602
2.01701
2.00215
2.00366
2.0402
1.99721
2.01719
2.00773
2.01919
1.99642
1.99942
2.04742
2.04486
2.05523
2.00857
2.0075
2.04927
2.03089
1.80933
1.80971
1.80037
1.80108
1.79077
1.79185
1.80636
1.81711
1.80167
1.83285
1.82663
1.82895
1.80764
1.81049
1.80955
1.84041
1.81631
1.83002
1.8495
1.85266
1.83363
1.8215
1.83615
1.84278
1.84141
1.83672
1.83684
1.84077
1.81586
1.80604
1.78639
1.78292
1.78063
1.77991
1.78897
1.78741
1.78842
1.80574
1.74796
1.75003
1.7511
1.74882
1.7465
1.75016
1.74829
1.74802
1.74645
1.74519
1.74857
1.74741
1.74406
1.76778
1.77204
1.76117
1.76003
1.8355
1.86232
1.85907
1.84136
1.86541
1.9023
1.896
1.8985
1.87314
1.90356
1.89812
1.88329
1.87543
1.88749
1.88805
1.88059
1.8645
1.88518
1.88194
1.85625
1.84469
1.84807
1.83566
1.84561
1.84327
1.76139
1.76401
1.76727
1.76598
1.76469
1.76741
1.7679
1.76547
1.76576
1.76531
2.10889
2.08284
2.07244
2.11442
2.10406
1.75318
1.75432
1.75243
1.75249
1.75304
1.74981
1.75127
1.75134
1.75206
1.75159
1.749
1.74931
1.74924
1.74645
1.75345
1.75456
1.74738
1.75118
1.79493
1.7929
1.78538
1.79617
1.79101
1.7865
1.79099
1.78621
1.81473
1.81085
1.80937
1.79834
1.8112
1.81166
1.79999
1.81499
1.80602
1.77616
1.76637
1.75592
1.76358
1.76829
1.77525
1.87059
1.86424
1.85043
1.84143
1.83251
1.85975
1.84329
1.84594
1.83835
1.83565
1.84593
1.87339
1.87938
1.87206
1.8748
1.88109
1.87547
1.86599
1.86666
1.85598
1.85772
1.7797
1.77874
1.77907
1.77438
1.7765
1.78401
1.78219
1.76063
1.75842
1.75886
1.77746
1.77696
1.77817
1.77355
1.76675
1.77132
1.7658
1.7705
1.76439
1.94773
1.9007
1.93302
1.96306
1.97821
1.94181
1.89946
1.88737
1.89908
1.95614
1.97062
2.0185
2.05248
2.02123
2.06543
2.01348
2.0553
2.06
2.03729
2.0537
2.03882
1.77291
1.75661
1.76427
1.76641
1.76688
1.76156
2.08809
2.10096
2.10838
2.11936
2.10134
2.11498
2.11908
2.12039
2.09023
2.04975
2.03162
2.04288
2.05504
2.06928
2.07699
1.92549
1.92467
1.89219
1.90747
1.89805
1.92986
1.92316
1.90613
1.92076
1.89937
1.73065
1.73186
1.73138
1.72995
1.73477
1.73184
1.7273
1.73168
1.72812
1.72922
1.73285
1.73407
1.7366
1.73697
1.73215
1.74056
1.76153
1.77298
1.76954
1.77637
1.76793
1.76811
1.75728
1.76255
1.76388
1.76999
1.76863
1.74151
1.74354
1.74614
1.74486
2.02748
2.01166
2.00817
1.97057
2.02717
2.03484
1.97015
1.96058
1.93526
1.85435
1.85281
1.85704
1.84905
1.85021
1.85169
1.84145
1.8283
1.82081
1.83088
1.83386
1.82315
2.03921
2.06554
2.08217
2.04916
2.02704
2.09955
2.10492
2.09329
2.09697
2.03792
2.01141
1.99478
1.98949
2.00118
1.79321
1.78757
1.7903
1.79712
1.79767
1.79814
1.7828
1.79253
1.79107
1.79929
1.78082
1.78694
1.78589
1.79127
1.80072
1.79873
2.08703
2.10749
2.08761
2.10689
2.09873
2.0902
1.83205
1.81234
1.81261
1.83782
1.81153
1.84151
1.8454
1.82293
1.8441
1.84226
1.80676
1.80344
1.80179
1.79608
1.80043
1.80704
1.79952
1.79754
1.81006
1.80807
1.80631
1.80545
1.80817
2.16581
2.18821
2.17076
2.18963
2.17934
2.1518
2.20182
2.16761
1.77184
1.77515
1.76756
1.77348
1.77535
1.77472
1.77342
1.77445
1.7689
1.76838
1.76985
1.76346
1.76359
1.76298
1.77005
1.76739
1.77143
1.76864
1.76523
1.75678
1.75821
1.76605
1.83136
1.82817
1.82147
1.83485
1.83158
1.83098
1.84947
1.8532
1.84169
1.834
1.85979
1.84947
1.84527
1.83569
1.83666
1.86864
1.86481
1.81528
1.82111
1.81997
1.81875
1.8184
1.80783
1.82164
1.82585
1.83527
1.84293
1.84337
1.83869
1.83006
1.82455
1.8392
1.82935
1.96107
1.93431
1.96365
1.94103
1.96361
1.97464
1.96377
1.95821
1.79914
1.79183
1.79336
1.79554
1.8007
1.79222
1.7988
1.79208
1.79818
1.79788
1.79342
1.79636
1.77469
1.76935
1.77643
1.77238
1.76966
1.77019
1.76315
1.76014
1.75548
1.75684
1.76149
1.7621
1.83514
1.83767
1.83672
1.83407
1.82108
1.83486
1.8281
1.82995
2.03372
2.04362
2.01101
2.00604
1.94288
1.94013
1.90257
1.91983
1.9314
1.90421
1.89871
1.88833
1.89525
1.87868
2.13402
2.11898
2.13037
2.14354
2.13643
2.10356
2.14435
2.12527
2.19046
2.17622
2.17224
2.17915
2.1831
1.74449
1.74333
1.74551
1.79037
1.80023
1.79476
1.80226
1.80347
1.7925
1.78663
1.79191
1.80096
1.8963
1.9022
1.89867
1.92048
1.92328
1.9287
1.9175
1.92454
1.9178
1.92339
1.9192
1.91518
1.91705
1.91234
1.91133
1.89471
1.91081
1.90387
1.89815
1.91623
1.89896
1.9119
1.89922
1.89883
1.91518
1.90495
1.91581
1.91431
1.9112
1.91322
1.91835
1.86474
1.85718
1.89709
1.87648
1.87697
1.89769
1.89189
1.902
1.9048
1.90351
1.79592
1.78828
1.7792
1.77705
1.77442
1.78872
1.7895
1.76386
1.77274
1.76001
1.77923
1.76903
1.7741
1.77182
1.77628
1.76751
1.78211
1.77987
1.78107
1.78268
1.75206
1.76334
1.7589
1.75353
1.75307
1.75479
1.76249
1.76431
1.76958
1.76882
1.75319
1.74503
1.75193
1.7699
1.77157
1.81799
1.82469
1.82064
1.81886
1.83063
1.82328
1.82542
1.82705
1.83632
1.83832
1.83363
1.8335
1.83179
1.83722
1.83675
1.84673
1.88398
1.90097
1.92833
1.90364
1.86677
1.8548
1.87665
1.85792
1.74133
1.74295
1.7379
1.73703
1.72879
1.73799
1.74032
1.73671
1.72903
1.7438
1.73892
1.74199
2.02399
2.01156
2.05283
2.05606
2.06394
2.05071
2.03415
2.06336
2.08853
2.09178
2.07729
2.08198
2.07643
2.0947
2.09761
1.79602
1.78191
1.77816
1.79148
1.79492
1.78921
1.79208
1.79375
1.78983
1.78287
1.78507
1.79423
1.79154
2.0955
2.08
2.07888
2.08181
2.1037
2.10068
2.09511
2.09204
2.12646
2.09875
2.10271
1.76001
1.76274
1.76348
1.76001
1.7602
1.76243
1.76284
1.76426
1.75997
1.76061
1.75298
1.75762
1.75899
1.75553
1.75762
1.75279
1.75195
1.75144
1.75977
1.75232
1.75932
1.75899
1.75898
1.75791
1.75971
1.75998
1.76247
1.76287
1.76301
1.76262
1.76324
1.76373
1.78292
1.7731
1.7813
1.77427
1.75966
1.78316
1.79069
1.79791
1.79419
1.78522
1.77993
1.79021
1.78552
1.78156
1.79495
1.80263
1.78543
1.779
1.91162
1.91213
1.9016
1.92977
1.93428
1.95601
1.95181
1.94394
1.94581
1.96564
1.9551
1.95636
1.967
1.95995
1.9258
1.94724
1.9427
1.94044
1.93361
1.95432
1.95153
1.95288
1.94485
1.94632
1.92559
1.95051
2.11897
2.12399
1.80164
1.75269
1.74667
1.74994
1.74761
1.75347
1.74806
1.75153
1.7568
1.78251
1.78522
1.7839
1.78416
1.78672
1.78444
1.78871
1.78808
1.78196
1.78375
1.78128
1.78423
1.76022
1.7602
1.76506
1.76662
1.75839
1.7624
1.75721
1.76631
1.76786
1.76514
1.76417
1.7667
1.76259
1.75998
1.76535
1.76293
1.7703
1.75865
1.76221
1.76608
1.76577
1.75676
1.75218
1.75202
1.75729
1.75688
1.75207
1.7564
1.77087
1.76778
1.79205
1.78869
1.7795
1.78952
1.78867
1.78235
1.79065
1.78415
1.78697
1.78577
1.78704
1.78979
1.78648
1.78038
1.78764
1.79333
1.78606
1.77548
1.7767
1.74348
1.7449
1.74918
1.75213
1.75032
1.74559
1.74428
1.74767
1.74262
1.741
1.75156
1.75206
1.75191
1.74518
1.74697
1.75467
1.78683
1.80069
1.78685
1.79477
1.79544
1.8075
1.80392
1.80376
1.80462
1.80114
1.79818
1.8274
1.81694
1.80008
1.79458
1.79867
1.80356
1.79815
1.79125
1.7949
1.79617
1.79499
1.80123
1.80281
1.8514
1.86286
1.77559
1.77612
1.77798
1.77778
1.77593
1.77445
1.76593
1.76799
1.77153
1.80501
1.79059
1.79691
1.79894
1.80158
1.79536
1.79791
1.79493
1.79593
1.7938
1.79112
1.78822
1.79265
1.80167
1.79754
1.79739
1.79271
1.80166
1.79902
1.803
1.79784
1.78217
1.78395
1.76997
1.77995
1.79248
1.78965
1.78269
1.78463
1.77877
1.77173
1.83038
1.84419
1.837
1.80735
1.80546
1.8023
1.83489
1.8564
1.84641
1.86045
2.112
2.13233
2.09147
2.14828
2.11773
2.13096
2.08912
2.09893
1.76595
1.76374
1.77104
1.76589
1.76862
1.76492
1.76795
1.76673
1.76858
1.77017
1.81192
1.804
1.78241
1.79717
1.77857
1.78491
1.76879
1.76735
1.80485
1.79204
1.79226
1.80658
1.77644
1.75828
1.77243
1.78401
1.78845
1.77368
1.77627
1.77556
1.79367
1.80209
1.78468
1.80068
1.79135
1.80601
1.7812
1.77719
1.77947
1.77779
1.77574
1.79158
1.79401
1.78899
1.79106
1.78579
1.7875
1.79296
1.79264
1.78763
1.78989
1.77265
1.77212
1.76744
1.77406
1.77862
1.77705
1.77472
1.77431
1.77895
1.77839
1.73604
1.73774
1.81803
1.82975
1.89099
1.86934
2.01011
2.05317
2.05257
2.04952
2.02141
2.00758
2.03014
1.84794
1.85606
1.87334
1.87856
1.87657
1.86437
1.85365
1.88691
1.88291
1.84967
1.86768
1.86268
1.85939
1.77515
1.78279
1.77998
1.76582
1.7753
1.77532
1.78094
1.78096
1.7755
1.77178
1.76824
1.77313
1.77509
2.17506
2.13016
2.17596
2.1727
2.13722
2.18091
2.15963
2.14168
2.16565
2.14126
2.17161
2.15831
2.14396
2.19798
2.18812
2.12544
2.1423
2.15458
2.13705
1.89647
1.9018
1.90181
1.87383
1.89956
1.92041
1.92169
1.91623
1.92022
1.92686
1.9331
1.83252
1.84882
1.82954
1.82063
1.81892
1.84762
1.83254
1.84543
1.82891
1.768
1.77722
1.77969
1.7774
1.77141
1.78149
1.77855
1.79129
1.79227
1.79335
1.81447
1.83053
1.81644
1.94972
1.95313
1.94909
1.9159
1.95553
1.96254
1.95377
1.95684
1.93833
1.92582
1.96497
1.95542
1.92364
1.93348
2.04204
2.02605
2.03731
2.0265
2.04105
2.07714
2.05326
2.05905
2.05558
2.03661
1.83303
1.90818
1.87643
1.87648
1.82988
1.81691
1.82545
1.89891
1.90993
1.9115
1.83764
1.82693
1.9315
1.95268
1.89218
1.91219
1.75216
1.75508
1.74993
1.75345
1.75272
1.74609
1.7459
1.74384
1.74467
1.75333
1.7497
1.74764
1.77511
1.76964
1.75903
1.75389
1.77478
1.76527
1.8154
1.80631
1.8135
1.81633
1.81314
1.81522
1.81319
1.81034
1.81058
1.80745
1.77551
1.77962
1.78844
1.80113
1.78984
1.78452
1.79059
1.80043
1.80849
1.80731
1.79885
1.80592
1.81066
1.76838
1.77242
1.75501
1.75126
1.75979
1.76619
1.75791
1.76556
1.77225
1.76067
1.76855
2.04542
2.03407
2.03984
2.04542
2.04701
2.0473
2.03737
1.75026
1.74691
1.74329
1.74909
1.74922
1.74596
1.74624
1.74834
1.74613
1.75081
1.75021
1.74204
1.7487
1.74579
1.74197
1.81124
1.80963
1.81755
1.82069
1.82246
1.8224
1.82032
1.82136
1.81186
1.82388
1.82812
1.82166
1.82541
1.80692
1.8147
1.85041
1.83632
1.83521
1.85151
1.84771
1.82936
1.83297
1.84406
1.84343
1.85104
1.84598
1.84663
1.84601
1.82058
1.82645
1.81125
1.77936
1.77931
1.76912
1.77237
1.76843
1.76348
1.77184
1.76526
1.75885
1.7763
1.78128
1.97317
1.94158
1.97423
2.0132
2.02548
2.01148
2.03137
2.00123
2.00974
1.95689
1.99347
1.96782
1.78434
1.78938
1.80414
1.78224
1.80207
1.8127
1.81133
1.80898
1.7823
1.7846
1.80544
1.80969
1.89774
1.88804
1.86825
1.87085
1.8745
1.89654
1.90738
1.89499
1.8506
1.87324
1.86143
1.90683
1.88087
1.88068
1.85872
1.79701
1.77906
1.79163
1.79729
1.7439
1.74347
1.74479
1.7454
1.7405
1.74713
1.74716
1.74518
1.99949
1.99746
1.98104
1.98552
1.98846
1.99629
2.02483
2.02006
2.02897
2.02748
1.78036
1.78176
1.77999
1.77623
1.77525
1.77457
1.77216
1.78029
1.77873
1.77694
1.7844
1.77532
1.77385
1.75292
1.74973
1.74717
1.75785
1.75956
1.745
1.75623
1.75219
1.75466
1.75525
1.75636
1.74925
1.76459
1.74482
1.7437
1.75442
1.75866
1.8479
1.84818
1.85137
1.8535
1.82188
1.8261
1.83804
1.84972
1.83618
1.84874
1.84007
1.83801
1.84525
1.83648
1.88794
1.88013
1.8835
1.88971
1.88236
1.87836
1.87983
1.87759
1.86631
1.87014
1.86342
1.7584
1.75843
1.75715
1.75498
1.75507
1.75205
1.76058
1.75705
1.75615
1.7555
1.75685
1.75587
1.7544
1.75409
1.75106
1.75237
1.75341
1.75142
1.75422
1.75324