/*--------------------------------*- C++ -*----------------------------------*\
| =========                 |                                                 |
| \\      /  F ield         | OpenFOAM: The Open Source CFD Toolbox           |
|  \\    /   O peration     | Version:  v1612+                                |
|   \\  /    A nd           | Web:      www.OpenFOAM.com                      |
|    \\/     M anipulation  |                                                 |
\*---------------------------------------------------------------------------*/
FoamFile
{
    version     2.0;
    format      ascii;
    class       surfaceScalarField;
    location    "100";
    object      phi;
}
// * * * * * * * * * * * * * * * * * * * * * * * * * * * * * * * * * * * * * //

dimensions      [0 3 -1 0 0 0 0];

internalField   nonuniform List<scalar> 
45677
(
-1.95196e-09
3.68726e-09
-2.18325e-09
4.48034e-10
-1.16394e-09
1.07875e-09
-2.82099e-09
2.90645e-09
6.26064e-10
-5.26545e-09
-1.60968e-09
6.24906e-09
3.22427e-09
-3.48341e-09
-1.48764e-10
4.07915e-10
-1.00298e-09
-1.95525e-09
8.38364e-09
-5.42539e-09
5.82271e-09
-8.09672e-09
2.63747e-09
-3.63469e-10
1.39086e-10
-4.55104e-09
-7.36859e-10
5.14884e-09
-6.47574e-09
-2.84738e-09
-1.6582e-09
-5.10293e-09
-1.55534e-09
1.18934e-09
5.46895e-09
6.63336e-09
7.79764e-09
-4.00706e-09
-1.04239e-08
4.86124e-09
-7.08418e-09
-7.55411e-09
9.77707e-09
-4.76695e-09
7.18765e-09
1.58088e-09
-4.00158e-09
-3.25013e-09
3.87975e-09
-3.22117e-09
2.59153e-09
4.53012e-09
-1.92496e-09
3.71032e-09
-6.31543e-09
6.36282e-10
3.67367e-09
-4.31693e-09
6.98992e-12
1.66294e-09
5.93718e-09
-1.9686e-09
-5.6315e-09
-7.08532e-10
3.02189e-09
-5.41373e-09
3.10048e-09
-4.1521e-10
2.75001e-09
-2.36455e-09
2.98569e-11
3.00153e-09
-8.79539e-09
5.17314e-09
6.20748e-10
-5.18139e-09
-8.63566e-09
7.30777e-09
6.50932e-09
-1.46991e-08
9.91939e-09
-4.01648e-10
-2.55685e-09
2.46452e-09
-3.41144e-09
3.50385e-09
-1.28522e-10
-7.30363e-09
3.04079e-09
4.39141e-09
2.69178e-09
-8.34617e-10
5.56138e-09
-7.41853e-09
-9.05413e-09
3.86948e-09
2.79638e-09
2.38828e-09
-2.05035e-09
-8.04716e-10
7.73818e-09
-4.88341e-09
2.5043e-09
-4.65648e-10
-4.08951e-09
2.32488e-09
5.15754e-09
-1.17889e-10
-7.36451e-09
-4.08683e-09
-3.17281e-10
4.06976e-09
3.34382e-10
-1.68754e-09
-8.52533e-10
3.29287e-10
2.21075e-09
3.691e-09
-5.7432e-09
2.87069e-09
-8.18504e-10
4.24453e-09
-7.85872e-09
-9.3863e-10
4.55285e-09
-1.29886e-09
-5.74648e-09
9.00621e-09
-1.96085e-09
1.49291e-09
-2.62523e-10
-8.66849e-09
7.43814e-09
2.38993e-09
-1.3466e-10
-2.80915e-09
5.5394e-10
7.9791e-10
1.76229e-09
-3.73029e-09
1.17011e-09
2.59104e-09
-7.78908e-09
4.83028e-09
3.67717e-10
-4.33458e-09
1.32035e-09
2.57965e-09
4.34693e-10
-4.48792e-09
9.17994e-09
-9.02657e-09
4.14207e-09
-8.52727e-09
7.61416e-09
-3.22888e-09
-8.99629e-09
1.29618e-08
1.76617e-10
-1.29873e-08
-2.29014e-09
4.23316e-09
1.10443e-08
-9.63544e-10
-1.3245e-09
2.96082e-09
-6.72706e-10
-2.35381e-09
-3.50119e-09
1.31217e-09
4.54282e-09
5.76747e-09
8.54674e-09
-1.33171e-08
-9.97038e-10
8.31457e-09
-8.89429e-09
6.34722e-09
1.0609e-09
-3.01455e-09
-3.79612e-09
5.74977e-09
-1.56743e-09
6.48068e-09
-6.14264e-09
1.22936e-09
4.36439e-09
-3.08526e-09
2.4897e-09
-3.76883e-09
-5.77576e-09
1.17528e-09
5.9129e-09
-1.31246e-09
1.91425e-10
-2.49489e-09
2.32862e-09
-2.51569e-11
-2.87899e-09
4.06958e-09
6.48585e-09
-7.67642e-09
-1.13976e-09
-5.68481e-09
7.04967e-10
-3.20384e-09
-3.90435e-09
-7.18452e-11
7.18013e-09
-1.10323e-08
-2.03347e-09
8.47795e-09
4.58782e-09
-9.80366e-09
-1.04916e-08
5.20966e-09
1.50855e-08
-5.34478e-09
-6.14759e-10
1.91282e-09
4.04678e-09
-1.90674e-09
2.83247e-09
2.51817e-09
-3.44381e-09
4.63851e-09
-8.30035e-09
-6.52783e-09
1.01897e-08
7.08771e-09
-5.10551e-09
2.15361e-09
-4.13577e-09
2.12452e-09
6.80687e-09
-1.57516e-09
-5.63584e-10
6.15679e-09
4.62692e-09
5.01335e-09
6.41224e-09
1.74851e-09
-6.86357e-09
8.93444e-11
5.02578e-09
-7.58726e-09
4.0892e-09
8.36749e-09
-4.86944e-09
9.3074e-09
3.9801e-09
-4.14482e-09
-9.14266e-09
-1.46526e-09
4.02331e-09
-6.15913e-09
3.60108e-09
-4.72168e-10
-3.15526e-09
1.84446e-09
1.7835e-09
1.12681e-09
1.5686e-09
2.55772e-09
-5.25306e-09
1.10133e-09
-3.82009e-09
2.22e-09
4.98805e-10
-1.39056e-09
4.49006e-09
-5.62589e-09
2.52625e-09
-9.40386e-10
1.83389e-09
5.59464e-09
-6.4881e-09
2.62545e-09
-2.62645e-09
1.9955e-09
-1.99443e-09
6.17137e-09
-4.35313e-09
6.92963e-09
-8.74787e-09
5.99503e-10
3.44865e-09
-4.388e-09
3.39887e-10
-2.14058e-09
-8.38154e-10
2.59215e-09
3.86633e-10
-8.81654e-09
-2.92024e-09
8.53295e-09
-6.04376e-09
3.58528e-10
5.49844e-09
1.86956e-10
3.16285e-09
8.76256e-10
-5.62376e-09
1.58463e-09
6.1742e-09
5.76669e-09
-4.08481e-09
-7.85614e-09
7.55341e-09
-2.62506e-09
-6.2983e-09
1.36996e-09
-1.85148e-09
1.81691e-09
4.49173e-09
-4.4572e-09
-3.89812e-09
2.626e-09
6.18445e-09
-4.91245e-09
5.84947e-09
-7.53637e-09
-4.39603e-09
6.0829e-09
-5.27805e-09
8.54216e-09
-4.60308e-09
1.33913e-09
5.56044e-09
-4.97601e-09
-1.52735e-09
9.42917e-10
7.65193e-09
-6.04431e-09
3.7708e-09
-5.37854e-09
-9.47048e-10
1.18184e-09
3.38055e-09
-3.61519e-09
5.8052e-11
4.46439e-09
-3.94539e-09
-5.7698e-10
-7.71036e-09
-5.57822e-09
5.58803e-09
7.70062e-09
-2.39532e-09
6.20471e-09
4.06334e-10
-4.21562e-09
3.4919e-09
-9.42716e-09
3.36223e-09
2.57311e-09
2.2905e-09
5.12157e-09
-3.92021e-09
-2.10545e-09
5.28776e-09
4.52589e-09
-7.70826e-09
-4.25343e-09
-2.76602e-10
-4.59452e-11
3.31912e-09
-7.41645e-09
7.67956e-10
3.32936e-09
2.21825e-09
6.21487e-09
-5.11399e-09
-2.003e-09
-1.04085e-09
2.09946e-10
2.83387e-09
-3.03585e-09
3.13653e-09
-8.25694e-10
7.25114e-10
-1.55369e-09
4.07297e-09
-3.32408e-09
-2.15985e-09
-1.05446e-09
2.78947e-09
4.25026e-10
6.13888e-09
-2.51763e-09
-1.09034e-09
-2.53093e-09
1.05106e-09
8.30689e-10
-1.86687e-09
-1.48126e-11
3.91566e-09
-1.93091e-09
-2.83816e-09
8.53374e-10
6.63452e-09
2.38642e-09
-5.10531e-09
-6.70317e-09
9.27147e-09
1.00499e-10
-2.66879e-09
4.8241e-12
-4.37578e-09
-3.23163e-09
7.60257e-09
-5.58028e-09
-3.53994e-09
7.17782e-09
1.94242e-09
-3.5356e-09
6.34675e-10
-5.72599e-09
8.62695e-09
-8.1571e-09
-5.19818e-09
9.81963e-09
-2.64311e-09
-5.18548e-09
-3.2847e-10
-5.57881e-09
-3.22179e-09
9.69158e-09
-8.9103e-10
-2.41715e-09
-3.43978e-09
5.29902e-09
5.57889e-10
-1.42977e-09
2.44479e-09
-1.85695e-09
8.41942e-10
1.36775e-09
2.062e-09
-3.62924e-09
1.99445e-10
2.74571e-09
-5.29976e-09
7.02585e-10
-3.15575e-09
-5.15634e-09
5.69908e-09
2.61312e-09
-3.37285e-09
2.88085e-09
7.99324e-10
-3.07244e-10
-2.96493e-11
5.88558e-09
1.77449e-09
-7.63037e-09
-1.10974e-09
-1.13286e-09
8.67835e-09
-6.4358e-09
7.35562e-09
2.98462e-09
-4.93131e-09
-5.409e-09
6.35195e-09
5.88342e-09
-4.87985e-09
1.01803e-09
1.4577e-09
-2.16708e-09
-3.08632e-10
-5.01e-09
6.27404e-09
-1.21364e-09
-5.03466e-11
-1.35146e-09
2.08347e-09
1.85801e-10
-9.17815e-10
1.20129e-09
-5.06201e-09
1.97976e-09
1.88086e-09
1.56119e-09
-2.39658e-09
6.51536e-09
-5.67995e-09
-2.36894e-09
6.68668e-09
1.9789e-09
4.27617e-09
2.418e-09
-1.68172e-09
-5.01238e-09
-5.26868e-09
6.9771e-09
-6.30878e-09
4.60033e-09
2.8422e-09
-9.47757e-10
-5.32582e-09
3.43132e-09
4.09163e-09
-5.70688e-10
3.3457e-09
-6.86663e-09
4.9955e-09
3.00121e-09
1.69007e-09
-9.68662e-09
2.82225e-09
-3.09956e-09
1.13158e-09
-8.54317e-10
6.60459e-09
-4.25458e-09
6.50717e-09
-8.85725e-09
4.6613e-09
-3.08351e-09
-2.66898e-09
1.09108e-09
6.35037e-10
2.35405e-09
-2.94298e-09
-4.60861e-11
3.43645e-09
-2.03484e-09
-5.06968e-09
3.66816e-09
2.53212e-09
5.95402e-09
-5.33103e-09
-3.15507e-09
4.92668e-09
-1.98098e-09
4.28968e-09
-5.11047e-09
-2.16176e-09
2.98255e-09
-6.27853e-09
5.31473e-10
4.09975e-09
1.64728e-09
-1.82684e-09
1.05894e-09
3.69941e-09
-2.93155e-09
2.78736e-09
2.61746e-09
-8.16529e-09
2.76041e-09
5.80635e-10
4.8826e-09
-8.01936e-10
5.94498e-09
-4.62572e-09
-7.38662e-10
-6.62038e-09
-6.67798e-10
7.13693e-09
1.51263e-10
1.90596e-09
5.35579e-09
-8.56302e-09
1.30122e-09
5.55851e-09
1.04055e-09
-4.35922e-09
-2.23989e-09
-2.25205e-09
-7.63226e-11
2.38644e-09
6.55392e-10
2.45403e-09
2.88279e-09
-5.99218e-09
4.44033e-10
-3.50902e-09
-2.66585e-09
2.86648e-09
9.96571e-11
1.25067e-09
-4.21676e-09
-1.0173e-09
-7.76994e-10
-9.90987e-10
2.78523e-09
-1.45722e-10
-3.2808e-09
2.16837e-09
1.2583e-09
4.67866e-09
3.5536e-09
-1.80193e-09
-6.43034e-09
1.3333e-09
1.93653e-09
-3.5278e-09
2.5815e-10
-1.51671e-09
1.04632e-08
-2.92288e-09
-6.02347e-09
4.01525e-09
2.07752e-09
-3.45144e-09
-2.64126e-09
2.97128e-09
-8.54547e-10
-3.41178e-09
1.29515e-09
3.80841e-10
-2.43524e-10
4.37038e-09
-4.50765e-09
6.00158e-09
-6.7473e-11
-5.96749e-09
3.34168e-11
1.17939e-08
-7.33335e-09
-1.31523e-09
-3.14533e-09
-1.6582e-09
1.0809e-09
1.58795e-09
-1.01072e-09
-6.80238e-10
6.6599e-09
-2.3621e-09
-3.61754e-09
4.21122e-09
-1.16625e-09
-2.38201e-09
-6.62959e-10
7.13231e-09
-1.88639e-09
-4.45062e-09
-7.95406e-10
3.01602e-09
-6.66353e-09
-4.23935e-10
4.07146e-09
-5.86056e-09
1.16257e-08
4.40543e-09
-3.65926e-09
-7.42525e-12
2.67914e-09
9.87498e-10
-8.48307e-10
-2.65739e-09
-6.55323e-09
1.0059e-08
-6.00371e-09
-1.61587e-09
1.99147e-09
5.62812e-09
-5.21584e-09
6.74054e-09
1.34215e-09
-2.8669e-09
-2.2962e-09
-1.83478e-09
4.75098e-09
-6.20037e-10
3.73221e-09
-1.88427e-09
8.85042e-10
-2.73296e-09
-3.15773e-09
-4.9051e-10
3.22713e-09
4.21099e-10
-3.76436e-09
-5.92697e-09
6.49115e-09
3.20022e-09
1.64057e-09
-4.36479e-09
-4.48186e-09
7.20611e-09
-5.28077e-11
3.03009e-09
-1.33637e-09
-1.09117e-09
-4.95643e-09
3.89602e-09
2.15165e-09
-3.68393e-09
1.75333e-09
-2.22833e-09
4.15898e-09
-1.72151e-09
3.53422e-09
-8.35834e-09
6.54557e-09
3.83391e-09
-4.35823e-09
1.69397e-09
-1.1697e-09
6.59321e-09
-7.10234e-09
2.16926e-09
-1.65996e-09
-2.05219e-09
2.43036e-09
-2.33009e-09
4.28243e-09
-6.72174e-09
4.43853e-09
-1.99911e-09
-1.46321e-09
4.23142e-09
-4.85471e-09
2.08644e-09
1.11536e-09
-4.25826e-10
-5.17102e-09
4.48152e-09
-1.20984e-09
-9.34889e-09
1.62023e-09
8.93855e-09
-5.24702e-09
-1.84483e-09
5.80049e-09
1.29125e-09
1.24562e-09
4.76074e-09
-6.37088e-09
3.64686e-10
-1.56913e-09
3.10599e-09
-1.89889e-09
3.62267e-10
-5.65414e-09
-2.18544e-10
6.89317e-09
-1.02021e-09
-2.30105e-10
3.77967e-11
-6.30345e-09
5.2034e-09
1.78725e-09
-1.01601e-09
-5.97464e-09
8.78576e-09
-4.74389e-09
-7.06546e-09
3.02359e-09
-5.36825e-09
-8.60369e-10
3.33685e-09
2.89171e-09
-9.87759e-10
2.15564e-09
6.48941e-10
3.00711e-10
2.76211e-09
1.58024e-09
-4.6431e-09
2.47873e-09
-1.27738e-09
2.06178e-09
-3.26301e-09
8.56415e-10
1.83279e-09
1.56506e-09
-4.25424e-09
-1.6625e-09
3.51444e-09
3.39737e-09
-5.24931e-09
2.40992e-09
-3.71685e-09
1.6214e-09
-3.14416e-10
5.38005e-09
-4.99564e-09
-1.67136e-09
1.28702e-09
2.0458e-09
3.1451e-09
-5.13615e-09
-5.4712e-11
-2.02811e-09
-2.99807e-09
5.10832e-09
-8.21135e-11
-7.61553e-09
-2.17408e-09
6.75773e-09
3.03192e-09
-1.19896e-09
4.69668e-10
-4.8245e-09
5.55381e-09
5.06145e-09
-1.18912e-09
-4.5337e-10
-2.56788e-09
2.83294e-09
-1.09832e-09
8.33272e-10
3.08081e-09
-3.28764e-09
6.52348e-10
-4.45527e-10
-7.07791e-09
6.34057e-09
1.98937e-09
-1.25202e-09
3.41844e-10
1.3367e-10
3.35115e-09
-3.76554e-09
2.11121e-09
-1.69679e-09
-8.08145e-09
-2.56562e-09
8.02202e-09
-1.38476e-09
-7.67634e-10
5.50355e-09
-2.52366e-09
5.43963e-09
-2.70596e-09
-2.09986e-10
6.23568e-09
-7.4055e-09
-2.9609e-09
4.13082e-09
6.29464e-09
-3.26635e-09
-6.40112e-09
2.59662e-09
3.91733e-09
-6.18496e-09
-3.28962e-10
-6.64059e-09
1.46513e-09
4.65391e-09
5.21579e-10
-2.53982e-09
-9.00116e-10
3.39034e-09
4.9874e-11
-1.01225e-09
2.11571e-10
4.18023e-09
-3.37953e-09
1.73483e-12
2.70052e-09
-1.28975e-09
-1.41238e-09
3.5639e-09
5.65853e-09
-4.01592e-09
-5.20642e-09
-2.72934e-09
-7.47038e-09
2.95781e-09
7.242e-09
-7.7825e-09
7.41735e-09
1.00047e-09
-6.35393e-10
-2.41517e-09
-4.43549e-09
5.54818e-09
1.30255e-09
-2.67462e-09
-6.07846e-10
4.02309e-09
-7.40669e-10
-3.15659e-09
9.63132e-10
2.0345e-09
1.5904e-10
-3.06225e-09
5.86189e-09
6.86409e-09
-9.66344e-09
3.18449e-09
-2.78403e-09
1.29259e-09
-1.6931e-09
3.40674e-09
1.37348e-09
-3.7028e-09
-1.07753e-09
-6.53245e-09
3.56942e-09
-3.11892e-09
6.08183e-09
6.30648e-09
-1.64938e-09
-3.97856e-09
-6.78363e-10
2.34908e-09
1.70182e-09
-6.67103e-09
2.62045e-09
-3.34078e-09
5.8013e-09
4.40271e-10
-2.90082e-09
-5.25451e-09
-2.61517e-09
2.37745e-09
5.4921e-09
1.33092e-10
-3.71216e-09
3.43963e-09
1.39446e-10
-4.43062e-09
-3.75092e-09
-2.48497e-09
1.06665e-08
-2.66853e-09
-1.25866e-09
-1.82216e-09
5.74936e-09
5.45218e-09
-4.39372e-09
-1.31406e-09
2.55596e-10
-3.39971e-09
4.21103e-09
-1.71159e-09
9.00241e-10
3.77161e-09
3.7226e-10
-3.5089e-09
-3.35948e-09
1.9801e-09
-3.00655e-09
4.38587e-09
4.33774e-09
-3.43258e-09
4.96504e-10
-1.40173e-09
-3.58145e-10
5.47683e-09
-7.80957e-10
-2.75757e-09
-1.47157e-09
3.87096e-09
-2.42785e-09
3.54442e-09
2.71657e-09
-5.59437e-09
1.17826e-09
1.69971e-09
-4.58335e-09
3.52895e-10
3.62887e-09
6.01638e-10
-3.00519e-09
-5.28364e-09
3.70551e-09
3.82916e-09
-2.53582e-09
4.83314e-09
-6.12629e-09
4.84354e-09
-2.28019e-09
-6.64985e-09
4.08675e-09
4.54511e-09
-2.51745e-09
5.55133e-11
-2.08309e-09
-1.57102e-09
-4.1777e-09
5.58796e-09
1.60816e-10
-3.05188e-09
-2.74409e-09
3.14642e-09
2.64969e-09
2.97636e-09
-4.58973e-09
1.28248e-09
3.30962e-10
6.97012e-09
-3.72644e-09
-5.56631e-09
2.32266e-09
-5.20267e-09
4.01238e-09
5.9852e-10
5.91795e-10
4.18477e-09
7.68505e-10
-4.2501e-09
-7.03072e-10
-1.70796e-09
-5.05448e-09
4.19836e-09
2.56407e-09
1.23643e-10
2.77788e-09
1.85235e-10
-3.08681e-09
6.61078e-09
4.0872e-09
-5.70245e-09
4.83373e-10
2.54138e-11
5.25075e-09
1.4055e-09
-4.9993e-09
-1.65697e-09
1.86383e-10
-1.56187e-09
4.5201e-09
-3.1446e-09
-3.4361e-09
1.52961e-09
-7.17154e-09
9.07808e-09
2.61814e-09
-1.35129e-09
-6.10902e-11
2.16276e-09
3.3167e-09
-3.90595e-09
-1.57352e-09
-5.53405e-10
2.33266e-09
-1.73263e-09
-4.66065e-11
-1.91519e-09
2.16227e-09
1.44e-09
-1.68699e-09
1.37033e-09
-4.55162e-10
-6.58126e-09
5.6661e-09
-7.38563e-09
-3.81987e-09
5.02657e-09
6.17893e-09
8.86827e-11
2.44343e-09
-6.73532e-09
4.20325e-09
-2.87366e-09
2.79776e-09
3.72472e-10
-2.96438e-10
4.24753e-10
-8.12899e-09
7.57492e-09
1.29293e-10
-6.15481e-10
7.95694e-09
-7.43569e-09
9.42615e-11
-6.50857e-09
-3.14134e-10
6.91748e-09
-9.47241e-11
-9.6218e-10
5.9279e-09
-3.35875e-09
-1.60694e-09
-2.29876e-09
-1.21492e-09
3.64128e-09
-1.27619e-10
-2.09199e-09
2.58407e-09
1.7196e-09
-2.21171e-09
-1.79837e-09
-1.28526e-09
-4.27765e-09
7.36131e-09
-2.45848e-09
2.45406e-09
-4.10708e-10
1.14592e-10
3.34995e-11
-2.60642e-09
-4.15191e-10
4.19207e-10
-3.15695e-09
3.15303e-09
2.16862e-09
1.66282e-10
2.75058e-09
2.81636e-09
2.55174e-09
-8.11865e-09
-3.08395e-09
7.14299e-09
-3.70712e-09
-3.51954e-10
-2.89133e-10
-1.23533e-12
3.56566e-09
-3.27526e-09
-3.07971e-09
-3.38749e-09
2.8079e-09
-2.52783e-09
1.11883e-09
1.35792e-09
5.11816e-11
-1.65413e-09
2.48915e-09
-1.12636e-09
2.91381e-10
-7.7873e-09
5.99025e-09
-5.7902e-09
3.74043e-09
5.73396e-10
-4.20874e-09
-1.05038e-10
8.1366e-09
-6.81925e-09
1.18698e-09
5.60294e-10
-2.24567e-09
1.44824e-09
2.37207e-10
-5.15753e-10
-2.74687e-09
3.12559e-09
1.3704e-10
5.22691e-09
-5.87311e-09
6.27413e-09
-5.628e-09
2.26991e-09
3.06625e-09
-4.60445e-09
-7.31748e-10
5.53613e-09
-2.34102e-09
2.41371e-10
-1.85521e-09
-2.99319e-09
4.70195e-09
1.46573e-10
-8.88377e-10
3.70681e-10
-2.88203e-09
5.8289e-09
6.90451e-09
-7.28126e-09
4.56338e-10
-6.27054e-09
5.44172e-09
3.72461e-10
-1.98623e-09
7.29931e-09
2.95707e-09
-8.27013e-09
3.43768e-09
5.53166e-10
-3.53451e-09
-9.48954e-10
4.36681e-09
1.98336e-11
2.2828e-09
-4.72113e-09
2.135e-09
3.0335e-10
6.21859e-10
3.97861e-09
-6.95131e-09
2.35084e-09
1.86935e-11
-5.36648e-09
1.34747e-10
5.21302e-09
4.72421e-09
-6.52504e-09
3.60891e-09
-1.80791e-09
7.35635e-10
3.55163e-09
4.36883e-10
1.76869e-09
2.25242e-09
-3.39925e-09
-2.25447e-09
-4.63663e-09
3.66082e-10
8.9183e-09
-3.12934e-09
-6.8659e-09
1.07693e-09
2.22859e-09
-2.173e-09
-3.0986e-09
3.04298e-09
-8.87159e-10
6.26157e-11
4.99241e-09
-4.16793e-09
-4.96025e-09
1.85171e-10
-7.85594e-09
-1.98842e-09
8.7346e-09
2.58819e-09
-9.74404e-10
-3.07869e-09
1.46488e-09
4.64286e-09
-5.50813e-09
-1.21781e-09
2.08305e-09
2.44725e-09
-2.19981e-11
-2.93047e-09
5.0523e-10
6.03703e-09
-5.79113e-09
2.20134e-09
4.26057e-09
-2.78937e-09
-5.8577e-09
4.38649e-09
-1.2836e-09
5.21118e-09
3.32988e-10
-5.4403e-11
2.73706e-09
-2.83792e-09
1.55298e-10
2.00601e-09
-2.0993e-09
1.20139e-10
-2.68097e-11
3.41625e-09
-2.93592e-09
1.01263e-09
-3.28876e-09
1.53621e-09
1.84124e-09
1.92265e-09
4.9438e-09
-4.81063e-09
-2.05582e-09
1.50721e-09
3.79808e-09
-1.47703e-09
-3.82827e-09
-4.25542e-09
4.92244e-09
-1.11065e-09
4.43625e-10
-6.79304e-09
6.27369e-09
7.61836e-11
4.43143e-10
4.2822e-09
-5.83733e-09
-2.34915e-09
3.07195e-10
7.35788e-09
-7.41527e-09
-2.49774e-10
9.57847e-10
2.28484e-09
2.85586e-10
-2.65512e-09
3.93841e-09
-3.13424e-10
-9.69886e-10
2.37577e-09
-2.88962e-09
-1.72248e-10
6.86273e-10
-2.49147e-09
7.31183e-09
2.33021e-11
5.10025e-09
-2.12772e-09
-6.51235e-09
3.53996e-09
3.49434e-09
-4.43936e-09
9.37581e-10
-4.02742e-09
2.06313e-09
-1.00862e-09
2.97295e-09
-5.27161e-09
-1.57197e-09
5.77797e-09
1.0656e-09
-6.15253e-09
3.98791e-09
1.43231e-09
7.32262e-10
-2.58914e-09
-4.67115e-10
-8.41963e-10
-7.40824e-10
4.05376e-09
-5.23709e-09
5.20026e-09
5.60643e-09
-5.5696e-09
-2.69677e-09
3.89228e-09
3.06664e-09
-4.26214e-09
-4.75526e-09
2.20545e-10
4.4925e-09
4.22258e-11
5.47042e-09
-4.61487e-09
-1.432e-09
5.76396e-10
1.06089e-09
4.51137e-09
-6.05826e-09
4.86112e-10
6.78792e-10
3.07245e-09
-4.129e-09
3.77972e-10
-7.53223e-09
7.10954e-09
1.48381e-09
2.07203e-09
-2.77233e-09
-1.95269e-09
2.65307e-09
-4.70475e-10
-5.02624e-09
5.78982e-09
-2.93054e-10
5.45009e-09
-5.42208e-09
-4.98465e-10
6.64011e-09
-6.72226e-11
-1.12279e-09
3.14579e-09
3.40961e-09
-6.11746e-09
-4.37933e-10
3.61525e-09
-5.23952e-09
2.93859e-09
-1.31429e-09
-5.56863e-09
-4.98091e-09
5.5233e-09
3.22904e-10
7.05688e-09
-6.83637e-09
-5.43407e-10
-4.21735e-09
2.03134e-09
4.0123e-09
-1.82627e-09
-1.73205e-09
5.82326e-09
-3.03033e-09
2.89055e-09
-2.87637e-09
1.18917e-10
1.25409e-09
2.04137e-09
-3.13599e-09
-1.59397e-10
1.11834e-10
3.75062e-09
-3.53062e-09
-3.31858e-10
1.98352e-09
-2.03314e-09
-3.10441e-09
3.15402e-09
2.99396e-09
6.25496e-10
-4.80676e-11
-3.09278e-09
3.67743e-09
-6.57729e-10
7.31141e-11
-2.06845e-09
3.23363e-10
5.18048e-09
-3.43542e-09
-4.64496e-09
7.02463e-09
-6.24594e-09
3.86629e-09
-5.41981e-09
2.93434e-09
-3.13995e-09
2.29552e-09
-6.61162e-09
2.23259e-09
2.08345e-09
7.54632e-10
-2.45902e-09
2.22052e-09
-5.16172e-10
2.87733e-09
-2.99506e-09
2.41327e-09
4.74156e-10
2.92519e-09
-5.22046e-10
4.40399e-09
3.51185e-09
-2.80414e-09
-5.11167e-09
1.71503e-09
-5.06064e-09
3.79988e-09
-4.54336e-10
3.43821e-09
7.31471e-11
-3.44986e-09
-6.15199e-11
-5.35529e-09
-2.31738e-09
4.48151e-09
3.19109e-09
-4.94154e-09
3.87733e-09
6.02185e-11
1.00403e-09
3.1471e-09
-2.91131e-09
-2.74379e-09
2.50804e-09
1.61466e-09
2.50438e-09
-3.74747e-09
-3.71504e-10
6.1877e-09
4.45475e-09
-5.17488e-09
5.00002e-09
8.9681e-10
8.27399e-10
-4.12944e-09
-4.82012e-09
8.591e-09
3.58626e-10
-3.83669e-09
9.17416e-10
3.25748e-09
-3.38194e-10
5.99618e-09
-2.62689e-09
-5.35144e-09
1.98215e-09
-5.36646e-09
6.52531e-09
2.11512e-10
1.82462e-09
8.23206e-09
4.84878e-09
-8.41179e-10
-3.97343e-09
-3.41644e-11
-6.15037e-10
6.12463e-09
-5.44903e-09
-6.05587e-11
-2.4255e-09
7.13013e-09
-7.70645e-09
3.00176e-09
1.32074e-09
-2.75141e-09
1.32363e-09
1.07068e-10
-2.52468e-09
-4.41183e-09
1.28192e-09
5.65461e-09
-8.05067e-10
5.83317e-09
-6.67549e-09
1.64741e-09
1.74366e-09
-3.99792e-09
2.34651e-09
-9.2156e-11
3.79141e-09
3.3152e-09
-4.14757e-09
-2.9592e-09
3.70808e-09
-1.84079e-09
4.15502e-10
1.51221e-09
4.08591e-09
-5.40894e-09
-1.8916e-10
1.4096e-09
2.91959e-10
-3.68061e-10
1.57465e-09
-1.93279e-09
-1.43508e-09
1.79412e-09
3.82215e-09
-3.27276e-09
-3.58163e-09
3.0323e-09
3.27397e-09
-5.24257e-09
4.13919e-09
-2.17045e-09
2.43342e-09
-2.21721e-09
-2.95637e-09
3.99961e-09
3.04839e-09
-2.01107e-10
3.77903e-09
-3.42639e-09
-1.51501e-10
-5.79424e-09
2.09906e-09
3.61462e-09
8.06351e-11
-2.38243e-09
7.10391e-09
1.95935e-09
-6.68085e-09
-3.98288e-09
6.12705e-10
2.45424e-09
-5.38573e-09
2.93872e-09
-7.16195e-12
-1.06397e-09
-3.4662e-09
1.1965e-09
3.3337e-09
-3.1134e-09
4.69554e-09
-1.71275e-09
1.30599e-10
-3.75845e-09
-2.59893e-10
-1.34057e-09
5.35893e-09
-3.34298e-09
2.90752e-09
6.19849e-11
3.7348e-10
1.56211e-09
1.09221e-09
-2.43933e-09
-2.14968e-10
5.38246e-09
-3.15301e-09
4.74089e-09
9.909e-09
2.60342e-09
-7.51894e-09
-4.99347e-09
-4.11824e-09
-2.17779e-11
3.66999e-09
4.70034e-10
4.30987e-10
3.90857e-09
-6.04757e-09
-3.41779e-09
4.53816e-09
-9.19127e-10
-2.01186e-10
-4.82792e-09
6.20213e-09
-9.23016e-09
5.38175e-10
-2.14104e-09
-1.5958e-09
3.19907e-09
1.33569e-09
3.96294e-09
-5.94418e-09
6.45516e-10
5.90091e-09
-5.1795e-09
5.24291e-10
8.53107e-10
-3.55448e-09
1.6156e-10
9.66203e-10
1.13891e-09
-2.21161e-09
1.0652e-10
2.49992e-09
-1.05956e-08
-6.93192e-10
8.78893e-09
-3.97952e-09
-3.70824e-09
2.67777e-09
-1.67718e-09
6.17789e-09
-8.01588e-09
3.51511e-09
5.09101e-09
-8.58704e-09
5.99818e-11
4.19676e-09
1.00155e-09
-5.50486e-09
3.06546e-10
-4.47731e-09
4.15214e-09
3.34106e-10
-8.9486e-12
-1.54802e-09
4.56386e-09
-3.34547e-09
3.29635e-10
-6.94021e-10
6.0393e-09
-7.11467e-09
1.76938e-09
3.08544e-09
5.49008e-09
-5.50542e-09
-3.07007e-09
-3.93537e-09
1.06105e-09
2.39591e-09
4.78341e-10
1.99512e-09
-5.05903e-09
8.48374e-09
-5.41981e-09
-1.53269e-09
-5.0147e-09
-7.83168e-10
1.67801e-09
-2.61363e-09
7.37756e-10
1.97878e-10
-1.18587e-09
-3.80408e-09
4.60386e-09
3.86104e-10
4.01959e-11
-2.64304e-09
2.25849e-09
3.44373e-10
4.79521e-09
-5.11128e-09
4.70919e-10
-1.54902e-10
1.525e-09
-3.3865e-09
-2.30489e-10
-2.47987e-09
5.05556e-09
-2.27814e-09
-2.9757e-10
-4.606e-09
1.1919e-09
3.1877e-09
2.26424e-10
3.84025e-09
-3.69016e-11
4.00094e-10
4.23085e-09
-1.43648e-09
-2.31836e-11
-2.77112e-09
-4.06777e-09
-7.64137e-10
4.51245e-09
3.19448e-10
-2.00141e-09
1.38404e-10
3.99808e-10
8.62348e-10
3.31387e-09
2.37074e-09
-6.54697e-09
1.48224e-10
-2.9385e-09
3.51542e-09
-7.25157e-10
5.88178e-09
-4.7941e-09
-3.22827e-09
-3.81281e-09
7.77274e-11
-2.33492e-11
-2.41763e-09
1.16018e-10
1.86128e-09
4.40407e-10
-1.3072e-09
1.85005e-09
-4.93136e-09
4.38858e-09
-2.13883e-09
-1.68967e-09
-5.15321e-10
-8.44783e-11
3.0552e-09
-2.89334e-09
-7.73983e-11
4.22065e-09
1.52909e-09
-4.24255e-09
-5.79628e-09
6.00581e-09
-6.32886e-09
6.11935e-09
-3.16642e-09
3.68826e-09
-5.94574e-09
5.4239e-09
1.88335e-09
-5.84279e-09
3.7587e-09
2.00791e-10
-8.66512e-10
-3.47308e-09
-1.26714e-09
5.60673e-09
8.75007e-10
-1.5396e-09
8.19453e-10
2.69016e-09
-3.7637e-09
2.54076e-10
-9.08534e-10
-1.33293e-09
2.53019e-10
-4.91699e-09
-3.86651e-09
-1.1353e-09
1.67979e-10
4.83382e-09
5.02866e-10
-6.18342e-09
5.5726e-10
-4.93652e-09
-2.60475e-10
1.7743e-09
-6.0621e-10
5.28283e-09
-3.01366e-09
-2.3853e-09
1.28145e-09
1.61954e-09
-5.15711e-10
-3.73066e-09
3.63679e-09
1.26668e-09
-1.17282e-09
5.04408e-09
-5.67702e-09
7.62123e-10
-1.29163e-10
-5.66844e-09
1.71939e-09
4.01988e-09
-7.08138e-11
7.50209e-10
2.59296e-09
-4.15176e-09
8.08646e-10
-7.62847e-11
-2.52054e-09
2.80864e-09
-2.1174e-10
2.3306e-09
-2.22554e-09
-1.8133e-10
-3.05891e-09
3.18744e-09
-2.37159e-10
1.08678e-10
4.89552e-09
-1.57544e-09
-2.84151e-09
-4.78618e-10
-2.49872e-09
4.24508e-09
-1.34431e-09
-4.02118e-10
-7.74205e-09
5.90049e-09
-1.76631e-09
3.60768e-09
-2.63916e-09
3.60107e-09
-7.12622e-10
-2.49227e-10
2.77711e-09
-1.78545e-09
4.1796e-10
1.65283e-09
-5.50361e-09
2.23785e-09
1.61289e-09
-5.63925e-09
-8.01631e-10
5.69175e-09
7.49067e-10
-2.10025e-09
5.26177e-09
-3.6089e-09
4.47379e-10
-3.67693e-09
2.72794e-10
2.86311e-09
5.41199e-10
-2.02578e-09
-2.00079e-10
-7.44734e-10
1.41795e-09
-2.29663e-09
-1.14712e-09
-1.71698e-09
-2.82247e-09
-8.80345e-10
5.42329e-09
-9.19658e-10
-4.00349e-09
-5.00178e-10
6.14266e-09
-1.01212e-08
8.33322e-09
-4.35464e-09
-7.04725e-10
4.18536e-09
-3.39415e-09
-8.64616e-11
-9.47361e-10
-2.45527e-09
2.46076e-10
3.37445e-09
-8.54207e-10
-1.66069e-10
-2.86084e-09
-1.14966e-10
3.28829e-11
-5.42635e-09
7.18316e-10
4.48744e-09
2.20591e-10
4.6854e-09
-3.65933e-09
-9.47179e-10
-7.88332e-11
-1.20469e-09
2.23797e-09
-1.1084e-09
7.51373e-11
6.74935e-10
2.05388e-09
4.2338e-09
-6.96256e-09
5.51469e-09
-3.71038e-09
-1.32798e-09
-4.76361e-10
2.33579e-09
-1.04157e-09
-1.50295e-09
2.0881e-10
2.12072e-09
-3.35642e-09
-6.19575e-10
1.8553e-09
-2.66745e-09
-4.14097e-09
3.71568e-09
3.09274e-09
4.90734e-09
1.56864e-09
2.44229e-09
-1.7352e-09
1.2838e-09
4.43001e-09
6.84557e-09
3.37743e-10
-6.61253e-09
4.70253e-10
2.84932e-10
5.85737e-09
4.24712e-09
-2.52918e-10
-4.69796e-09
7.037e-10
1.09174e-09
3.5524e-09
-5.21358e-09
5.69499e-10
4.51763e-09
-4.15273e-09
7.2681e-10
-5.03173e-09
3.77254e-09
1.55558e-09
-2.96556e-10
4.69113e-10
5.81964e-10
-3.78038e-09
-3.33717e-09
5.57894e-09
-2.42542e-09
1.83711e-10
4.36436e-09
-4.12333e-09
-4.42093e-10
5.64545e-09
-4.66951e-09
3.64291e-09
-4.61884e-09
1.89826e-09
3.52447e-09
1.66838e-09
1.4303e-09
-3.37983e-09
2.8113e-10
5.58334e-09
-5.34468e-09
3.61219e-09
-3.85082e-09
1.46191e-09
-2.70324e-09
1.02218e-09
2.19151e-10
2.7398e-09
-1.53856e-09
2.60684e-10
2.20943e-09
-2.43666e-09
-5.06107e-10
7.3334e-10
1.77235e-09
3.15265e-09
-3.76303e-09
-1.16189e-09
4.02169e-09
-4.77271e-09
4.1576e-09
4.60221e-09
-3.54686e-10
3.95343e-10
-5.20338e-09
4.76319e-09
-4.14834e-11
4.81648e-10
1.44431e-09
-3.57213e-09
1.55712e-09
1.83679e-09
5.51294e-10
2.00094e-10
1.37419e-09
-4.32794e-10
3.47535e-09
-4.41653e-09
-3.58712e-09
3.57719e-09
1.38411e-09
-5.0562e-09
6.75014e-09
1.5014e-09
-3.1953e-09
1.9115e-09
-3.10978e-09
3.60121e-10
9.92127e-10
-5.97238e-11
-5.9869e-09
3.50341e-09
2.65674e-09
-4.82178e-09
-1.3383e-09
1.57411e-09
-6.1505e-10
9.2126e-11
-2.0325e-09
-4.98967e-09
7.26465e-09
-2.42415e-10
4.409e-09
-2.18666e-09
-2.46129e-09
2.38981e-10
1.34066e-09
5.59564e-10
-1.60737e-09
-2.92879e-10
-2.99836e-09
-2.83182e-10
2.88668e-09
3.94852e-10
-5.17157e-09
5.11939e-09
-2.94617e-09
2.38233e-10
-5.41239e-09
-8.83305e-10
6.05757e-09
3.17939e-09
-1.16597e-09
-2.21393e-09
2.00569e-10
-1.91805e-10
1.79168e-09
2.36898e-10
3.39153e-09
-9.33105e-09
-3.18116e-10
6.25767e-09
-2.83768e-09
9.46654e-10
2.23431e-09
-3.43281e-10
1.44294e-09
-1.11534e-10
-1.45241e-09
1.21057e-10
2.37683e-09
1.59249e-09
-4.25971e-10
-3.54324e-09
-4.89557e-09
4.22355e-09
1.05122e-09
-3.79279e-10
2.27805e-09
-5.85127e-09
-3.98888e-09
-5.20621e-10
-2.14297e-09
3.21331e-09
-5.49758e-10
-2.05266e-09
2.04639e-09
-5.14371e-10
5.16014e-09
-4.97912e-09
1.017e-10
-2.82688e-10
-3.78312e-09
-1.58954e-09
4.98823e-09
3.84429e-10
-2.68732e-09
2.77772e-09
1.27989e-09
-1.37033e-09
-6.02717e-09
-6.70663e-09
7.7774e-09
-1.08338e-08
3.13478e-09
2.61065e-09
5.0884e-09
3.0639e-09
-6.09845e-09
-1.89085e-10
3.22354e-09
-7.79481e-09
4.56368e-09
6.80752e-09
-3.57641e-09
7.30087e-09
-7.48504e-09
-2.02849e-09
2.21267e-09
2.12482e-09
-8.84644e-10
-1.87811e-09
6.37937e-10
9.58346e-10
-1.93735e-09
-1.94206e-09
1.00819e-09
-1.76936e-09
3.39758e-09
-1.04963e-09
-1.21456e-11
-8.7074e-10
4.20141e-09
6.69256e-11
6.26168e-09
-1.30953e-11
-2.52437e-10
1.02174e-09
1.97909e-09
3.2608e-09
-3.27021e-09
2.92381e-10
2.49547e-09
4.82383e-10
-1.5695e-10
1.99646e-09
4.85419e-10
5.73191e-11
2.81685e-09
-2.48176e-09
-3.92464e-10
3.80716e-09
2.06057e-09
-5.85279e-09
-1.49598e-11
-3.33406e-09
3.05705e-09
-6.22989e-10
3.45998e-09
-1.08204e-09
-2.93078e-09
5.52863e-10
2.82655e-10
2.00035e-09
-2.3778e-10
2.79512e-09
-1.03672e-09
-1.96263e-10
-1.32387e-09
2.37981e-09
3.62892e-11
3.28172e-09
1.13495e-09
1.05991e-09
-1.24985e-09
2.41413e-09
-1.93084e-09
7.6659e-10
-4.63489e-09
6.08463e-10
-6.56232e-11
4.09208e-09
3.38718e-09
-4.74764e-09
1.7459e-10
2.32409e-09
2.40301e-09
-5.04852e-09
3.21833e-10
2.60759e-09
-9.07232e-09
-2.2948e-09
8.75958e-09
-1.13245e-09
-3.03741e-09
7.55572e-09
-3.38585e-09
-4.38966e-09
4.90967e-09
-6.80297e-10
1.60287e-10
5.07003e-10
-3.78343e-09
2.83391e-09
4.42516e-10
-3.5091e-09
2.60883e-09
2.61333e-10
6.38919e-10
4.13621e-09
-3.85577e-09
-6.58015e-09
6.2997e-09
-3.97309e-09
1.36128e-09
-1.04159e-08
1.30277e-08
-2.69715e-09
-3.79646e-09
7.54078e-09
-1.11569e-08
5.94225e-09
-2.32607e-09
-4.19428e-09
4.09019e-09
6.79181e-09
-6.68771e-09
-3.02094e-09
-1.89206e-09
7.18731e-10
2.50184e-09
-1.34628e-09
-1.37472e-10
4.84225e-09
-5.61884e-09
3.80078e-09
-3.02422e-09
-3.5927e-09
7.14382e-11
2.62764e-09
8.9402e-10
-2.97065e-09
2.08837e-09
4.10113e-10
-6.23056e-09
9.44679e-09
-6.37146e-09
-5.1358e-09
9.56516e-10
-3.80725e-11
7.86833e-09
-3.49601e-09
-1.44018e-09
-2.93216e-09
-2.52936e-09
5.06459e-09
-3.16606e-09
6.30859e-10
1.30721e-09
3.62295e-10
-1.72918e-09
5.9749e-11
7.06803e-09
1.72048e-09
-8.97181e-09
1.83361e-10
-8.2892e-09
5.16657e-09
-1.36664e-09
4.48926e-09
6.14864e-09
-2.58209e-09
2.40596e-10
-3.37526e-10
-1.24416e-09
7.92229e-09
-2.11857e-09
4.24459e-09
-1.99629e-09
-1.29702e-10
1.90435e-09
-1.87099e-09
-2.86795e-10
2.53456e-10
-3.76169e-09
7.52673e-09
-8.62908e-10
-2.90209e-09
3.13495e-09
-5.49798e-11
-1.31239e-09
-9.8975e-10
2.36059e-09
-5.84514e-11
-1.67622e-09
3.28052e-09
-1.52262e-09
-8.16528e-11
-3.50843e-09
2.96547e-09
-2.79109e-09
-3.8472e-09
-2.59702e-09
6.00631e-09
4.37918e-10
-4.68133e-09
2.42734e-09
1.8992e-09
3.54769e-10
7.08129e-09
-8.85147e-10
-6.62954e-10
-5.53318e-09
3.90539e-09
-2.40527e-09
-1.37018e-09
-1.2988e-10
4.03506e-09
-2.06756e-10
-3.28981e-09
-5.38481e-10
9.09473e-10
-4.65689e-09
-5.43464e-10
-2.66164e-09
2.34063e-09
8.6454e-10
5.64159e-09
-4.64022e-09
-2.80117e-09
1.79988e-09
8.85729e-09
-7.3671e-09
2.85138e-09
-4.34153e-09
4.89259e-09
-1.39371e-09
-1.49268e-09
-2.00608e-09
-2.36216e-09
3.52385e-09
7.69565e-09
5.21849e-09
9.10554e-09
-7.22215e-09
-7.10185e-09
-2.60298e-09
3.20195e-10
2.40279e-09
-1.19998e-10
-4.43829e-09
2.46407e-09
-5.38554e-11
-2.98826e-09
-6.81606e-09
6.80626e-09
-3.84939e-09
1.76252e-09
2.30883e-09
-2.21961e-10
3.28698e-09
-1.54146e-09
-1.88622e-09
1.40712e-10
3.76182e-09
1.04271e-09
-5.44486e-09
6.40456e-10
-3.87015e-09
1.7661e-09
-5.83298e-10
-2.22833e-09
-7.14601e-10
-9.27234e-10
2.99965e-09
-3.47571e-09
5.9344e-09
2.41745e-09
1.02322e-09
-9.37508e-09
6.12672e-09
-1.55292e-09
-2.09676e-09
1.14577e-09