/*--------------------------------*- C++ -*----------------------------------*\
| =========                 |                                                 |
| \\      /  F ield         | OpenFOAM: The Open Source CFD Toolbox           |
|  \\    /   O peration     | Version:  v1612+                                |
|   \\  /    A nd           | Web:      www.OpenFOAM.com                      |
|    \\/     M anipulation  |                                                 |
\*---------------------------------------------------------------------------*/
FoamFile
{
    version     2.0;
    format      ascii;
    class       volScalarField;
    location    "50";
    object      p;
}
// * * * * * * * * * * * * * * * * * * * * * * * * * * * * * * * * * * * * * //

dimensions      [0 2 -2 0 0 0 0];

internalField   nonuniform List<scalar> 
16967
(
1.00225
0.748244
0.744405
0.734566
0.744521
0.73964
0.740449
0.745565
0.740889
0.745277
0.750205
0.743704
0.747796
0.741672
0.736102
0.742692
0.747664
0.743422
0.732845
0.881629
0.874238
0.916441
0.891442
0.889499
0.881451
0.866161
0.90041
0.919674
0.883851
0.903498
0.872696
0.90675
0.888988
0.913659
0.910203
0.754174
0.769236
0.769956
0.75819
0.771845
0.761595
0.783673
0.781197
0.782128
0.78309
0.769457
0.787048
0.776671
0.791579
0.773591
0.774586
0.761285
0.783538
0.78252
0.773095
0.785691
0.788368
0.785903
0.9608
0.94906
0.96799
0.941434
0.94056
0.919826
0.957499
0.937643
0.92489
0.92745
0.950157
0.916161
0.919564
0.979327
0.993742
0.957219
0.963757
0.977231
0.918628
0.992257
0.792209
0.80309
0.787179
0.765195
0.784644
0.787126
0.79459
0.808836
0.788717
0.778077
0.786917
0.781107
0.79412
0.790603
0.781605
0.791668
0.782684
0.790603
0.775943
0.796454
0.919944
0.929359
0.904651
0.916046
0.927249
0.938132
0.924631
0.909294
0.932141
0.92372
0.91569
0.938028
0.942187
0.945955
0.947466
0.958328
0.935328
0.746207
0.738253
0.740816
0.742146
0.735621
0.74849
0.739418
0.734975
0.745284
0.747934
0.739652
0.736604
0.746304
0.970081
0.962554
0.931042
0.949172
0.935553
0.93525
0.962342
0.963485
0.939729
0.93843
0.961353
0.919573
0.918465
0.942531
0.94211
0.918008
0.932554
0.941121
0.915337
0.950159
0.925415
0.914654
0.919086
0.929607
0.931306
0.913832
0.986879
0.998818
0.992691
0.986667
0.980972
0.989391
0.972704
0.964826
0.962801
0.974282
0.956476
0.793529
0.821369
0.823027
0.789473
0.79502
0.806179
0.818581
0.788971
0.800759
0.799421
0.807466
0.820365
0.817539
0.791299
0.778881
0.786554
0.778751
0.770752
0.793684
0.803317
0.786627
0.81076
0.783859
0.790644
0.792772
0.789425
0.766925
0.802201
0.763159
0.763273
0.775641
0.793359
0.785702
0.760289
0.74222
0.743742
0.712806
0.713905
0.722382
0.717828
0.756197
0.737986
0.736581
0.748532
0.721201
0.712355
0.742678
0.73135
0.743043
0.731196
0.725902
0.728907
0.741069
0.725642
0.729562
0.732303
0.827386
0.844617
0.834536
0.852979
0.883643
0.87034
0.869523
0.871206
0.881537
0.88144
0.852678
0.856671
0.875406
0.843317
0.812821
0.797359
0.839632
0.8325
0.819456
0.80255
0.819464
0.782992
0.800434
0.800227
0.811176
0.802683
0.80708
0.814915
0.787795
0.814994
0.813807
0.824567
0.912673
0.925709
0.90264
0.910363
0.882972
0.893227
0.923853
0.838938
0.850416
0.886797
0.860426
0.890537
0.877028
0.851259
0.847861
0.88056
0.897451
0.924247
0.878423
0.899098
0.908075
0.930143
0.762933
0.761431
0.774926
0.758638
0.775001
0.773169
0.760033
0.76369
0.760595
0.758538
0.760023
0.756714
0.756044
0.766657
0.758797
0.764566
0.759471
0.771204
0.758997
0.956472
0.945023
0.956752
0.976256
0.980871
0.993857
0.975445
0.956016
0.995787
0.990382
1.00159
0.998255
0.957096
0.967228
0.932649
0.926008
0.960752
0.988987
0.943812
0.989937
0.974843
0.971818
0.969296
0.976209
1.01387
1.00033
0.989381
0.961294
0.980142
0.977581
0.969299
0.959388
0.771142
0.77039
0.762217
0.761664
0.767698
0.770569
0.777115
0.771608
0.763349
0.761444
0.766671
0.779517
0.768793
0.900053
0.938879
0.96723
0.889719
0.903562
0.923256
0.917288
0.931553
0.951021
0.932936
0.95821
0.937596
0.923513
0.974708
0.947388
0.910466
0.892377
0.956587
0.96779
0.918424
0.927502
0.913418
0.958121
0.932439
0.846379
0.816458
0.843463
0.859105
0.822869
0.840279
0.815256
0.786736
0.78613
0.858478
0.773174
0.830598
0.845013
0.843965
0.819614
0.813828
0.801413
0.830145
0.802577
0.776259
0.767143
0.746794
0.72153
0.739616
0.768698
0.741279
0.741822
0.78242
0.767365
0.73142
0.739976
0.771865
0.773205
0.766687
0.746913
0.781275
0.784287
0.752522
0.758838
0.744059
0.758103
0.770846
0.764003
0.762671
0.757817
0.762324
0.773181
0.771216
0.772176
0.760915
0.787184
0.78416
0.774507
0.784584
0.863295
0.8281
0.833301
0.820179
0.836849
0.856244
0.861516
0.786343
0.824186
0.783971
0.811904
0.825157
0.842367
0.837743
0.778431
0.781097
0.78356
0.822878
0.876893
0.891257
0.912479
0.896993
0.900512
0.933226
0.941932
0.894992
0.868602
0.906254
0.904551
0.930012
0.913946
0.922833
0.940458
0.940386
0.905518
0.909364
0.902513
0.928801
0.888443
0.930541
0.779896
0.773849
0.77869
0.777069
0.783442
0.78191
0.781061
0.781768
0.778733
0.777454
0.738463
0.736672
0.746033
0.759488
0.765471
0.760081
0.749457
0.740323
0.743786
0.770302
0.773712
0.747714
0.756033
0.924037
0.905597
0.915469
0.903372
0.915151
0.950573
0.957243
0.980895
0.972631
0.972999
0.978078
0.960186
0.965198
0.712933
0.712635
0.715286
0.706684
0.704971
0.709986
0.713917
0.720658
0.707098
0.703318
1.0191
1.02413
1.00788
0.994215
1.01285
1.02633
1.02855
1.0304
1.01856
1.03338
0.994139
1.01806
1.02698
1.00895
1.00418
1.03599
1.01061
0.993775
1.02179
1.03505
1.03143
1.02181
1.03516
1.03938
1.01535
1.02764
1.02363
1.02153
1.04034
1.04348
1.04458
1.03113
1.03241
1.04277
1.04181
1.03432
0.802791
0.842083
0.828745
0.85786
0.854054
0.83657
0.851076
0.802965
0.850283
0.841319
0.837951
0.802123
0.799295
0.799281
0.795297
0.802867
0.799338
0.792345
0.799712
0.801334
0.798569
0.805316
0.80414
0.797289
0.796115
0.797189
0.795884
0.798987
0.790974
0.791583
0.795379
0.797776
0.796851
0.796371
0.798583
0.801084
0.726559
0.733348
0.70911
0.726274
0.721101
0.749936
0.725584
0.730757
0.846288
0.83841
0.833536
0.839273
0.837731
0.827516
0.837244
0.836744
0.823103
0.825578
0.827404
0.815258
0.813162
0.816002
0.821527
0.810885
0.803059
0.800395
0.804318
0.810295
0.995051
1.01216
1.00512
0.998356
1.0251
0.994269
0.983963
1.00466
0.995855
0.96979
0.973975
1.01088
1.01452
1.0145
1.02059
0.977386
1.00632
0.810811
0.80963
0.813941
0.813112
0.813414
0.814799
0.811795
0.98047
1.01715
0.996322
0.973322
0.974031
1.01253
1.02812
1.02885
0.967998
0.996566
0.986144
0.988485
0.985716
1.03076
0.996329
0.946966
0.943268
0.964602
0.968794
0.976895
0.982389
0.959555
0.963457
0.971376
0.982672
0.939043
0.938229
0.962638
0.965015
0.976049
0.954281
0.961129
0.949371
0.968093
0.962983
0.970452
0.944677
0.943908
0.945364
0.760729
0.772313
0.738739
0.73838
0.803961
0.962171
0.963898
0.973901
0.975325
0.91275
0.932431
0.925888
0.948993
0.935853
0.936783
0.906135
0.925165
0.938281
0.900376
0.920451
0.910309
0.979975
0.962245
0.955375
0.96193
0.951755
0.966915
0.982243
0.954154
0.978195
0.997255
1.00294
0.996967
0.899782
0.901657
0.934358
0.866813
0.876464
0.896947
0.900498
0.886777
0.887703
0.913774
0.911666
0.92727
0.944999
0.972473
0.968931
0.863945
0.87364
0.930187
0.912278
0.930854
0.95099
0.911549
0.852317
0.911128
0.92305
0.945007
0.87986
0.88978
0.910595
0.877767
0.879115
0.871923
0.837111
0.854344
0.833592
0.849795
0.876771
0.847767
0.786556
0.775607
0.783567
0.772506
0.819264
0.835839
0.856558
0.806565
0.81722
0.938324
0.932576
0.946056
0.949389
0.908957
0.896102
0.929136
0.941342
0.917936
0.915378
0.888243
0.905724
0.914649
0.920357
0.889161
0.906088
0.889421
0.717734
0.722346
0.715559
0.716421
0.725742
0.72731
0.718962
0.715021
0.723919
0.717151
0.723893
0.719711
0.726467
0.731324
0.818632
0.833497
0.790953
0.789584
0.828361
0.806159
0.76603
0.777481
0.787133
0.818079
0.777274
0.771885
0.78754
0.791701
0.779301
0.776428
0.772763
0.74421
0.735272
0.741178
0.744671
0.746868
0.747859
0.732176
0.738553
0.739972
0.731689
0.752319
0.761563
0.748008
0.751123
0.756241
0.746344
0.752507
0.747877
0.760524
0.755827
0.754939
0.761331
0.752194
0.747249
0.755077
0.75425
0.759024
0.743712
0.747663
0.750338
0.753457
0.749114
0.750853
0.744576
0.749728
0.748828
0.755349
0.798807
0.762675
0.761609
0.78402
0.76266
0.776229
0.75845
0.745857
0.77549
0.76176
0.759742
0.752846
0.749126
0.749558
0.752047
0.786174
0.778824
0.753051
0.8878
0.930491
0.929474
0.894018
0.900996
0.925909
0.91953
0.930603
0.922813
0.923237
0.93171
0.93994
0.729785
0.728889
0.727227
0.72566
0.721331
0.722558
0.74579
0.733924
0.718541
0.731622
0.725866
0.737228
0.742903
0.737826
0.728848
0.738277
0.72439
0.71927
0.740844
0.751561
0.726798
0.723538
0.732997
0.730462
0.905984
0.893427
0.921049
0.931625
0.893681
0.902124
0.891558
0.860336
0.894581
0.853056
0.867515
0.903169
0.925314
0.910574
0.946315
0.941803
0.949519
0.949477
0.95988
0.967068
0.957038
0.959222
0.977525
0.970607
0.981779
0.979264
0.970561
0.976744
0.957438
0.967033
0.9575
0.949824
0.731361
0.726978
0.735161
0.72364
0.72506
0.738885
0.743533
0.736712
0.741933
0.725083
0.734767
0.735271
0.734653
0.733463
0.750532
0.744913
0.742151
0.742636
0.969663
0.950883
1.00473
0.987961
0.984456
0.975899
0.989053
0.993351
0.988191
0.944305
0.983464
0.796948
0.793226
0.805912
0.806281
0.810146
0.801004
0.803968
0.797688
0.795892
0.797
0.797758
0.797762
0.803042
0.807258
0.801186
0.809248
0.808611
0.805701
0.890029
0.900069
0.93467
0.912244
0.94363
0.939198
0.886684
0.885587
0.912846
0.899525
0.926365
0.912816
0.900335
0.94883
0.936237
0.909451
0.912742
0.927005
0.768264
0.769535
0.77014
0.773322
0.768463
0.775605
0.772031
0.771608
0.77761
0.77774
0.769437
0.775093
0.816976
0.817072
0.84035
0.830512
0.843232
0.832151
0.805048
0.802268
0.807875
0.824426
0.805374
0.82632
0.791944
0.823599
0.811763
0.798358
0.83624
0.814365
0.805292
0.828371
0.805429
0.815227
0.793225
0.785406
0.816914
0.79785
0.823041
0.797177
0.795978
0.804161
0.790743
0.781915
0.834819
0.832657
0.79996
0.771344
0.824507
0.773856
0.795539
0.776849
0.872267
0.862443
0.854839
0.859066
0.899524
0.893828
0.874811
0.887061
0.883645
0.888445
0.8882
0.888217
0.89789
0.871428
0.878147
0.859107
1.04975
1.06827
1.04327
1.04893
1.05923
1.03314
1.03627
1.04247
1.04929
1.04936
1.03875
1.04091
0.982996
0.976877
0.958054
0.957402
0.968441
1.0023
0.994257
0.964787
0.979651
0.986245
0.939461
0.973912
0.984613
0.951673
1.00089
1.00121
0.995885
1.00247
0.75542
0.769264
0.750666
0.816649
0.771825
0.823247
0.824364
0.745155
0.770523
0.74093
0.742084
0.762283
0.750532
0.788857
0.808324
0.81528
0.810187
0.787035
0.796968
0.787903
0.792492
0.779261
0.784718
0.779906
0.779455
0.77906
0.77926
0.782938
0.747475
0.756087
0.762111
0.761657
0.75087
0.769798
0.754647
0.818351
0.815394
0.805222
0.808578
0.810383
0.806488
0.801677
0.808607
0.812891
0.819142
0.804037
0.80757
0.778087
0.776284
0.784546
0.781642
0.774836
0.782247
0.780457
0.782233
0.784711
0.788704
0.787875
0.781565
0.796241
0.79969
0.799477
0.793943
0.800881
0.806517
0.794617
0.799292
0.796943
0.808825
0.799676
0.797651
0.793391
0.802023
0.853721
0.873224
0.917458
0.918139
0.876412
0.86023
0.852942
0.883081
0.84974
0.846745
0.858725
0.866296
0.914329
0.906628
0.893418
0.890279
0.905233
0.860381
0.887875
0.896338
0.777665
0.774461
0.777981
0.776492
0.77148
0.781029
0.775443
0.767361
0.766955
0.780968
0.767611
0.770967
0.781118
0.785661
0.772874
0.779494
0.7811
0.778428
0.764874
0.77073
0.781722
0.77959
0.772642
0.778985
0.81589
0.80982
0.800298
0.825268
0.808631
0.799119
0.804879
0.817642
0.807465
0.812375
0.811547
0.747026
0.89865
0.908304
0.695584
0.694592
0.997494
1.00737
0.972614
0.978406
0.994912
0.995886
0.921122
0.907296
0.909972
0.766214
0.756832
0.761391
0.94791
0.942087
0.925627
0.748619
0.754586
0.74649
0.753197
0.719903
0.717725
0.744315
0.740787
0.741594
0.965317
0.947395
0.939332
0.99321
1.00232
1.0062
1.01879
0.957696
0.944454
0.816045
0.819946
0.906797
0.906593
0.919865
0.7335
0.730776
0.732207
0.929371
0.940816
0.94262
0.985768
0.987205
0.973861
0.750141
0.747602
0.916995
0.92883
1.04974
1.05235
0.825323
0.835046
0.837989
0.81426
0.812076
1.01861
1.02703
1.00718
0.800761
0.798441
0.981678
0.961479
0.971324
0.942059
0.803633
0.802018
0.937733
0.732088
0.73253
0.777019
0.773108
0.719041
0.717192
0.718601
0.795351
0.792231
0.789509
1.04937
1.05152
1.03522
1.0417
0.996477
0.989693
0.975455
0.731572
0.730184
0.730812
0.762471
0.760934
0.75938
0.783077
0.78272
0.784469
0.782624
0.780289
0.787788
0.783025
0.855113
0.852044
1.02986
1.02434
1.024
1.02261
0.954296
0.950154
0.968293
0.849606
0.864599
0.859718
0.828299
0.833132
0.828572
0.831685
0.841687
1.04322
1.03501
1.01227
1.01307
0.996843
0.989956
0.989217
0.774721
0.770174
0.766694
0.820023
0.830597
0.820582
0.812535
0.778704
0.776894
0.790518
1.04934
1.05138
1.05468
0.783488
0.792758
0.784217
0.773728
0.79964
0.793182
0.793215
0.816673
0.818612
0.815305
0.809569
0.726762
0.728987
0.731832
0.743055
0.737382
0.73466
0.737595
0.737685
0.730225
0.734596
0.730988
0.727603
0.72612
0.71672
0.722578
0.727586
0.728931
0.726184
0.717708
0.724771
0.707204
0.718905
0.799555
0.802201
0.803694
0.803932
0.836353
0.824377
0.827768
0.806965
0.807893
0.814298
0.812497
0.804788
0.810675
0.809657
0.801848
0.806
0.805726
0.788095
0.78263
0.78896
0.786986
0.791289
0.784389
0.786659
0.794639
0.793524
0.796998
0.768513
0.766134
0.771642
0.762586
0.759582
0.754286
0.762576
0.778554
0.778893
0.776185
0.772478
0.781986
0.785578
0.779266
0.777053
0.775947
0.773056
0.778269
0.777308
0.776486
0.867556
0.849515
0.872282
0.798451
0.802871
0.77554
0.763623
0.760846
0.764855
0.758512
0.747409
0.769742
0.77112
0.804447
0.814941
0.833024
0.848166
0.799555
0.793409
1.03826
1.02511
1.03544
1.02949
1.01542
1.02651
1.03844
1.03941
1.04137
1.04221
1.05359
1.04204
1.04846
1.03957
1.0365
1.05279
1.03428
1.04345
1.05465
1.05436
1.03936
1.04572
1.04215
1.05127
1.05492
0.758055
0.750007
0.736976
0.731705
0.728335
0.728549
0.741867
0.733891
0.74126
0.770225
0.718234
0.71404
0.739502
0.719691
0.744127
0.757957
0.745705
0.749282
0.762191
0.825414
0.798917
0.786517
0.83619
0.785455
0.767788
0.767325
0.745669
0.758847
0.765998
0.75155
0.790869
0.801099
0.84265
0.855311
0.859703
0.875939
0.855775
0.84192
0.83329
0.781443
0.795412
0.773987
0.823469
0.810989
0.820577
0.833889
0.834515
0.822777
0.799141
0.830461
0.834067
0.776815
0.773388
0.771364
0.793548
0.779645
0.799797
0.778222
0.774071
0.76691
0.767146
0.992873
0.991306
0.972953
0.972477
0.980023
0.976896
0.963588
0.954476
0.944619
0.971701
0.973353
0.953796
0.978867
0.97627
1.00477
0.993929
0.980759
0.97608
0.991116
0.979419
0.970995
0.991496
0.983304
0.989025
0.971792
0.974023
0.964283
0.989018
1.00217
1.00311
1.01163
1.02576
1.0092
1.01773
1.00583
1.01963
1.00371
0.989349
0.992239
1.00989
1.01758
1.00138
0.995479
1.01079
1.0021
1.02656
1.01168
0.986701
0.992166
1.00942
0.993459
1.01275
1.02816
1.03047
1.01696
1.01017
0.998194
1.01974
1.02508
1.03042
1.02595
1.00873
1.00689
1.00257
1.02852
1.03262
1.02404
1.04692
1.03474
1.02602
1.04536
1.03711
0.811855
0.808125
0.80825
0.799598
0.800191
0.851892
0.843539
0.832461
0.866304
0.873493
0.871974
0.88834
0.86299
0.79065
0.794734
0.825763
0.821382
0.834053
0.871552
0.851292
0.87321
0.827757
0.811713
0.837688
0.840034
0.899931
0.895222
0.913747
0.875417
0.776313
0.781439
0.834099
0.827043
0.802942
0.80409
0.807897
0.80938
0.808968
0.806923
0.907376
0.905056
0.850122
0.865806
0.849139
0.868131
0.854256
0.848668
0.870468
0.846037
0.831192
0.827983
0.846031
0.838905
0.84921
0.866511
0.866023
0.842831
0.788825
0.819514
0.831358
0.831619
0.816777
0.806107
0.798212
0.833204
0.834143
0.955253
0.947422
1.02233
1.02131
1.02336
1.02048
1.03049
1.02937
1.0342
1.0244
0.88058
0.872259
0.942737
0.929633
0.940286
0.784532
0.780955
0.795895
0.794848
0.786813
0.76828
0.764225
0.924684
0.91058
0.926625
0.940293
0.862394
0.849388
0.872097
0.862397
0.833791
0.829292
0.814732
0.816948
0.785942
0.77333
0.788144
0.787257
0.807263
0.831359
0.834976
0.831781
0.824598
0.787164
0.795887
0.788756
0.794311
0.785318
0.79111
0.789664
0.792595
0.793825
0.795567
0.791567
0.791287
0.789537
0.789956
0.79035
0.784633
0.787769
0.789102
0.788425
0.759362
0.760838
0.764448
0.757301
0.759005
0.7556
0.759814
0.757781
0.757533
0.754579
0.75929
0.766343
0.759803
0.762117
0.76136
0.765733
0.761724
0.764023
0.75964
0.760917
0.747853
0.751586
0.754832
0.75317
0.765776
0.765301
0.767587
0.764312
0.734715
0.730576
0.731646
0.732768
0.731145
0.724841
0.729992
0.730123
0.721446
0.724331
0.722122
0.726656
0.728627
0.726656
0.722465
0.737836
0.742265
0.73836
0.737853
1.01823
1.00438
0.991727
1.00318
1.02875
1.01494
1.00069
1.01457
1.03284
1.03128
1.02624
0.973092
0.993061
0.980406
0.999965
0.950579
0.930644
0.911475
0.93979
1.03483
1.02796
1.03053
1.02085
1.00673
1.05259
1.05527
1.05358
0.790659
0.793357
0.794301
0.793419
0.787078
0.805359
0.802873
0.79954
0.729792
0.724362
0.728334
0.72887
0.731777
0.723191
0.721541
0.721982
0.777905
0.774834
0.771304
0.783923
0.773589
0.778103
0.781939
0.768164
0.766244
0.783075
0.780013
0.777213
0.779221
0.775495
0.770055
0.773048
0.773273
0.775176
0.767034
0.763931
0.773172
0.774375
0.774559
0.772527
0.725141
0.705517
0.723904
0.737217
0.732989
0.740912
0.733109
0.735657
0.736885
0.756985
0.774531
0.753519
0.731805
0.770232
0.754746
0.732353
0.747424
0.752873
0.740847
0.911305
0.950927
0.949473
0.931012
0.927656
0.960024
0.935619
0.93933
0.948203
0.946307
0.948085
0.943129
0.956815
0.955784
0.909308
0.889091
0.880387
0.922143
0.933093
0.913877
0.915664
0.906163
0.882273
0.81279
0.808921
0.8132
0.806115
0.804174
0.801459
0.802018
0.797733
0.798078
0.893893
0.89687
0.899505
0.911691
0.928547
0.894514
0.912806
0.96648
0.950911
0.934583
0.933414
0.940946
0.94375
0.926113
0.948039
0.943543
0.926683
1.02402
0.993312
1.00524
0.99828
0.7984
0.803831
0.807173
0.805273
0.802149
0.800002
0.802836
0.962823
0.968561
0.986482
0.994053
1.00293
0.985199
0.968398
0.999249
0.996805
0.883915
0.866995
0.866266
0.848573
0.836692
0.837087
0.823599
0.797641
0.793434
0.806038
0.820948
0.797407
0.787958
0.783736
0.774881
0.7939
0.783083
0.788647
0.787399
0.793278
0.79956
0.769164
0.776779
0.779519
0.84028
0.849645
0.86575
0.875427
0.864824
0.819286
0.821695
0.815562
0.825273
0.830631
0.830396
0.832639
0.843902
0.853445
0.853192
0.838489
0.862805
0.855521
0.807226
0.816786
0.812091
0.81521
0.813203
0.810724
0.813931
0.8235
0.821252
0.821714
0.819939
0.821752
0.824336
1.01491
1.02472
1.0328
1.04484
1.05031
1.05033
1.0566
1.04745
1.05062
1.05396
1.05059
0.930824
0.919264
0.950482
0.961073
0.970339
0.900421
0.894514
0.907556
0.907149
0.864941
0.845414
0.866929
0.880111
0.875341
0.702484
0.710306
0.766473
0.762124
0.789086
0.762282
0.779983
0.762989
0.769161
0.803279
0.77646
0.765568
0.710343
0.715046
0.971172
0.982942
0.971061
0.987479
0.980384
0.988821
1.00284
0.987554
0.985027
1.01357
0.994629
0.977143
0.988005
0.982444
1.01252
1.00199
0.993352
0.949282
0.965508
0.952632
0.977976
0.965458
0.965805
0.953414
0.940211
0.91938
0.935018
0.920327
0.934622
0.943825
0.950223
0.945766
0.93829
0.932271
0.881684
0.883334
0.903017
0.910549
0.896037
0.909313
0.916635
0.901627
0.878404
0.886759
0.878524
0.88569
0.922238
0.921729
0.903742
0.916973
0.722033
0.728605
0.721666
0.729084
0.728058
0.722769
0.724233
0.724923
0.745438
0.74333
0.740096
0.738651
0.735689
0.73557
0.737149
0.735614
0.740333
0.741415
0.839673
0.827605
0.832016
0.970088
0.959805
0.95264
0.94828
0.95402
0.88844
0.864579
0.894485
0.886493
0.862271
0.846892
0.851537
0.876763
0.880333
0.816163
0.803368
0.801876
0.816369
0.81091
0.810526
0.848519
0.841293
0.840187
0.858132
0.866755
0.991163
0.992868
1.00621
0.972078
0.961402
0.952904
0.9203
0.930045
0.927355
0.900932
0.902308
0.916191
0.932348
0.935201
0.999855
1.00669
0.997674
0.981952
0.973504
0.968255
0.997438
0.983322
0.895317
0.895726
0.905015
0.892635
0.918671
0.917106
0.925794
0.909308
0.924106
0.941681
0.925761
0.933882
0.941292
0.974051
0.988918
0.985231
0.968259
0.971227
0.998042
0.980854
0.984345
0.995834
0.981596
0.9473
0.934816
0.954562
0.934944
0.969584
0.877204
0.878
0.879742
0.901718
0.906736
0.876611
0.885506
0.874216
0.915575
0.917875
0.959517
0.970467
0.981026
0.970778
0.998026
1.00444
0.73824
0.737351
0.731881
0.729156
0.758031
0.756615
0.734447
0.743033
0.734494
0.746442
0.738978
0.736547
0.744182
0.729701
0.728466
0.729429
0.758574
0.731578
0.742969
0.729735
0.729991
0.726089
0.736004
0.744149
0.756833
0.737369
0.738114
0.723354
0.7243
0.700023
0.703948
0.70841
0.711735
0.711751
0.70283
0.70778
0.719383
0.717117
0.723096
0.720472
0.760502
0.763637
0.763322
0.761244
0.764071
0.753435
0.751814
0.756232
0.75991
0.766179
0.958848
0.956527
0.942741
0.963635
0.96791
0.9461
0.929366
0.91027
0.924865
0.89945
0.915502
0.918539
0.920054
0.905038
0.972122
0.985741
0.979966
0.968979
0.959434
0.968894
0.957964
0.95367
0.947106
0.990919
1.01944
1.01356
1.00468
1.00685
0.991
0.975794
0.941267
0.956204
0.954383
0.95049
0.938623
0.759459
0.751421
0.758494
0.750884
0.792569
0.781967
0.784607
0.765696
0.767033
0.737817
0.741994
0.755686
0.745262
0.749792
0.740785
0.746719
0.744884
0.7629
0.764755
0.75567
0.756908
0.74853
0.946666
0.929722
0.923574
0.904596
0.900462
0.88705
0.919271
0.940557
0.954334
0.9538
0.937093
0.922256
0.934342
0.863359
0.841663
0.88055
0.862686
0.890309
0.892953
0.945849
0.928474
0.927092
0.95106
1.03645
1.03911
1.03441
1.00627
0.965565
0.95119
0.965371
0.983759
0.971805
0.991553
0.990441
0.703216
0.703271
0.703518
0.694501
0.694701
0.700263
0.69497
0.696348
0.697137
0.691926
0.694201
0.687718
0.704263
0.707279
0.69202
0.697215
0.703944
0.698396
0.685769
0.690324
0.69203
0.694809
0.906985
0.91424
0.867411
0.864264
0.868599
0.837917
0.850409
0.843942
0.876091
0.874343
0.868554
0.857961
0.845525
0.835384
0.863018
0.840039
0.863903
0.847282
0.865388
0.857342
0.859701
0.852892
0.863457
0.880801
0.882469
0.877947
0.8828
0.88773
0.919969
0.928259
0.937943
0.926512
0.922292
0.901642
0.713171
0.721197
0.709878
0.709365
0.713144
0.699265
0.700408
0.70292
0.698691
0.698276
0.702947
0.701509
0.698935
0.699673
0.703371
0.700937
0.928537
0.919024
0.923689
0.94453
0.944756
0.959929
0.961879
0.95125
0.953712
1.05289
1.0477
0.990909
1.00628
1.00221
0.982814
0.96822
0.969796
0.973116
0.958714
0.956383
0.962463
0.943638
0.949097
0.96686
0.96675
0.923507
0.938379
0.932377
0.965161
0.960098
0.935192
0.883788
0.873925
0.895578
0.902022
0.913094
0.910219
0.913455
0.949095
0.935267
0.921238
0.925337
0.907905
0.911662
0.880091
0.903553
0.972162
0.935296
0.966962
0.972407
0.946763
0.987797
0.990685
0.991898
0.796531
0.787842
0.770606
0.749014
0.761323
0.792947
0.769567
0.761064
0.734673
0.732949
0.742277
0.739787
0.746815
0.738109
0.733875
0.727688
0.745172
0.749147
0.757999
0.749274
0.742184
0.743235
0.748304
0.743946
0.754044
0.754722
0.751621
0.759638
0.765283
0.766649
0.767452
0.758518
0.773523
0.765443
0.766705
0.774074
0.768816
0.768465
0.751525
0.755507
0.748476
0.762348
0.763381
0.755379
0.746632
0.755978
0.751409
0.750202
0.757279
0.760231
0.758166
0.836317
0.850003
0.782009
0.979773
0.965141
0.981402
0.983426
0.974391
0.983449
0.989908
0.982419
0.954395
0.936118
0.918418
0.966157
0.959357
0.939852
0.935889
0.950391
0.948965
0.933884
0.955149
0.963125
0.969797
0.964838
0.976902
0.958597
0.95613
0.940899
0.942841
0.73463
0.745407
0.745445
0.746137
0.744777
0.746068
0.743829
0.748331
0.766643
0.75889
0.757274
0.758061
0.780557
0.774235
0.732975
0.740804
0.738715
0.759071
0.759706
0.740124
0.741308
0.73768
0.741647
0.748278
0.735475
0.747956
0.747683
0.765647
0.761358
0.765477
0.751695
1.0051
0.986574
1.00067
0.989318
0.985339
0.973281
0.985761
0.973654
0.884921
0.87483
0.863792
0.849993
0.795882
0.804739
0.796556
0.827486
0.794287
0.839399
0.8071
0.815189
0.926595
0.94717
0.951091
0.804971
0.809395
0.809311
0.826413
0.834614
0.829295
0.82714
0.830674
0.817437
0.814216
0.826289
0.837717
0.851485
0.841072
0.83993
0.834837
0.842012
0.830323
0.85846
0.857988
0.865769
0.87468
0.867123
0.874337
0.877941
0.975242
0.972246
0.957723
0.955484
0.963205
0.965065
0.955604
0.873252
0.874139
0.901343
0.889277
0.872576
0.860283
0.895747
0.895777
0.884488
0.844658
0.831321
0.84726
0.843804
0.843321
0.829394
0.837044
0.834704
0.834142
0.847496
0.848631
0.842186
0.844456
0.857593
0.847838
0.858723
0.857201
0.83596
0.833402
0.841912
0.843423
0.739196
0.727525
0.735
0.730255
0.732789
0.73541
0.728514
0.726818
0.729861
0.732018
0.725583
0.739002
0.735698
0.744953
0.744021
0.74104
0.745258
0.744708
0.749954
0.744609
0.740955
0.742674
0.740906
0.744746
0.743357
0.721405
0.724222
0.719445
0.726457
0.724552
0.730002
0.732499
0.730754
0.720776
0.720531
0.720887
0.988349
0.973477
0.963957
0.96292
0.988795
0.995578
0.98819
0.973427
1.0002
0.953217
0.964659
0.949196
0.961266
0.966852
0.97628
0.950868
0.89166
0.880933
0.880581
0.708824
0.705315
0.710086
0.930674
0.930038
0.900909
0.918665
0.90206
0.923162
0.949757
0.94383
0.894279
0.890396
0.898888
0.896945
1.02425
1.02061
1.00127
1.03391
1.0352
1.0429
1.0385
1.02799
1.04141
1.05351
1.05136
1.05406
1.03951
1.03876
1.0341
1.03521
1.02142
1.0335
1.0261
1.04148
1.04021
1.03867
1.0248
1.04152
1.03787
0.875667
0.876962
0.875687
0.865272
0.824204
0.838834
0.80466
0.790902
0.821977
0.817857
0.810485
1.01594
1.01016
1.00675
1.00055
1.02309
0.999179
0.99188
0.980404
1.00734
0.993099
1.05146
1.04467
1.04305
1.02878
0.905363
0.930266
0.916816
0.930334
0.890063
0.876837
0.912843
0.914195
0.915675
0.93209
0.936898
0.927049
0.919237
0.976386
0.978142
0.955626
0.945914
0.963025
0.929795
0.951413
0.985284
0.969726
0.953555
0.999654
0.980577
0.982831
0.979507
0.945948
0.972813
0.958869
0.745078
0.747642
0.749991
0.745375
0.744261
0.788641
0.785861
0.789188
0.788052
0.754053
0.763252
0.754184
0.76967
0.766525
0.761352
0.755745
0.76586
0.766688
0.76187
0.708129
0.712187
0.712754
0.710731
0.70492
0.704809
0.720127
0.715824
0.714416
0.718408
0.710992
0.717129
0.723321
0.722598
0.722832
0.797727
0.792826
0.807406
0.80387
0.804854
0.803221
0.779163
0.786633
0.785795
0.781594
0.779739
0.781633
0.783798
0.78253
0.776922
0.782294
1.05303
1.06239
1.05022
1.05318
1.05024
1.04407
1.04804
1.04153
1.03758
1.05429
1.0569
1.04858
1.05581
1.0564
1.04596
1.0446
1.05727
1.04884
1.04798
1.04019
1.04971
1.0537
0.993898
0.978114
0.989547
0.998241
0.982829
0.974837
0.9481
0.957262
0.967531
0.971755
0.962859
0.957754
0.958941
0.948218
0.946095
0.731487
0.734829
0.733963
0.737722
0.735608
0.740668
0.736427
0.733513
0.736531
0.738299
0.740046
0.72325
0.720291
0.71749
0.717891
0.714068
0.718627
0.722197
0.759676
0.761469
0.762593
0.762066
0.75903
0.762219
0.76307
0.759255
0.764037
0.735927
0.731506
0.737774
0.733795
0.739174
0.747648
0.750391
0.741983
0.74798
0.741928
0.741943
0.750116
0.741763
0.744257
0.76616
0.765817
0.758823
0.762584
0.76104
0.768589
0.773509
0.769375
0.771451
0.76982
0.767847
0.764009
0.763496
0.761954
0.759271
0.764748
0.875809
0.877248
0.895076
0.825069
0.864319
0.842395
0.819862
0.813097
0.852688
0.826917
0.82331
0.948592
0.949135
0.957536
0.965839
0.959473
0.956538
0.967118
0.949396
0.935813
0.925981
0.834577
0.818023
0.814386
0.789425
0.805581
0.79193
0.891594
0.88057
0.894453
0.916016
0.908837
0.882506
0.878938
0.905009
0.911431
0.92272
0.925388
0.842245
0.825806
0.815722
0.834021
0.820075
0.813265
0.840583
0.854408
0.800458
0.806289
1.01585
1.01862
1.02066
1.01296
1.03673
1.0283
1.02562
1.03349
1.0278
1.02174
1.02792
1.0224
0.938794
0.930516
0.923565
0.948089
0.919774
0.928613
0.961337
0.950491
0.947695
0.965033
0.966747
0.980023
0.966789
0.965152
0.954992
0.980392
0.970172
0.94762
0.944926
0.970932
0.951554
0.947913
0.964681
0.939259
0.950961
0.962559
0.950298
0.797797
0.813133
0.822915
0.814475
0.789903
0.798319
0.793995
0.821049
0.836186
0.830119
0.808699
0.794828
0.798679
0.852857
0.837604
0.838852
0.869132
0.86189
0.82528
0.838035
0.869716
0.856374
0.864133
0.863032
0.871351
0.90492
0.922352
0.881466
0.888491
0.909508
0.924684
0.929344
0.894886
0.892768
0.899553
0.910523
0.919957
0.920498
0.820978
0.810844
0.822675
0.803691
0.821941
0.836983
0.840538
0.791903
0.837472
0.834705
0.79264
0.784016
0.790815
0.798502
0.799694
0.791668
0.776762
0.784746
0.779899
0.786417
0.791827
0.806794
0.794443
0.787684
0.811447
0.802008
0.797843
0.785453
0.798308
0.791695
0.781299
0.786598
0.778642
1.04298
1.03247
1.02062
1.04435
1.03654
1.0262
1.04641
1.03297
0.985234
0.978336
0.998761
0.989265
0.940871
0.942349
1.00874
0.992501
1.02368
1.01042
1.02693
1.01993
1.00499
1.01672
0.994818
1.01857
0.996418
1.0143
0.994755
0.989155
1.00674
0.976649
0.980712
0.974436
0.99484
0.986896
0.993588
0.984474
0.744732
0.761813
0.760616
0.733293
0.756519
0.737913
0.733854
0.732931
0.724863
0.741437
0.740759
1.03619
1.03407
1.04075
1.03108
1.05353
1.03112
1.05768
1.04038
1.03313
1.04484
1.03185
1.01927
1.04687
1.02507
1.04038
1.03831
1.03838
1.02584
1.02004
1.03598
1.01798
1.05643
1.04649
1.05051
1.03648
1.03478
1.04837
1.04112
1.03646
1.03741
1.01322
0.989414
1.01255
0.966232
0.950789
0.984506
1.02283
1.01375
0.981086
0.96933
0.769419
0.761257
0.767744
0.772205
0.759968
0.773153
0.762686
0.779317
0.772363
0.890225
0.905001
0.924173
0.940426
0.942729
0.923133
0.950004
0.95571
0.774359
0.785941
0.787353
0.77636
0.779708
0.779375
0.779675
0.781202
0.782129
0.777329
0.7803
0.785714
0.778082
0.780495
0.781046
0.780072
0.780063
0.783949
0.782564
0.780761
0.805621
0.80389
0.800078
0.797341
0.806442
0.815757
0.721652
0.723371
0.715171
0.720483
0.712143
0.712875
0.713589
0.70627
0.708361
0.723881
0.71969
0.726625
0.715382
0.717744
0.714603
0.719777
0.723769
0.723937
0.728004
0.725379
0.720689
0.725245
1.02545
1.04127
1.05822
1.05405
1.04245
1.03493
1.03718
1.05052
1.04021
1.04135
1.03674
1.03291
1.0337
1.02433
1.02939
1.03277
1.02882
1.03473
1.01826
1.02319
1.02187
1.01473
1.03239
1.01046
0.995525
0.841637
0.843482
0.824976
0.844601
0.8345
0.827242
0.889562
0.837103
0.857651
0.89043
0.865583
0.873953
0.856466
0.885923
0.916349
0.915225
0.913858
0.922107
0.926901
1.04783
1.04903
1.05821
1.05523
1.05173
1.05476
1.05124
1.04495
1.04843
0.867695
0.860085
0.827979
0.866988
0.836181