/*--------------------------------*- C++ -*----------------------------------*\
| =========                 |                                                 |
| \\      /  F ield         | OpenFOAM: The Open Source CFD Toolbox           |
|  \\    /   O peration     | Version:  v1612+                                |
|   \\  /    A nd           | Web:      www.OpenFOAM.com                      |
|    \\/     M anipulation  |                                                 |
\*---------------------------------------------------------------------------*/
FoamFile
{
    version     2.0;
    format      ascii;
    class       volVectorField;
    location    "50";
    object      U;
}
// * * * * * * * * * * * * * * * * * * * * * * * * * * * * * * * * * * * * * //

dimensions      [0 1 -1 0 0 0 0];

internalField   nonuniform List<vector> 
16967
(
(-0.0452972 0.69922 0.470223)
(0.114361 0.621131 0.439754)
(0.0501378 0.601515 0.449459)
(0.0481446 0.635608 0.440178)
(0.127589 0.650822 0.452334)
(0.17961 0.60633 0.453972)
(0.205894 0.471927 0.432222)
(0.0314534 0.658863 0.439823)
(0.191585 0.602635 0.453589)
(0.235407 0.549011 0.45607)
(0.242766 0.500553 0.442356)
(0.114883 0.637448 0.441169)
(0.00669347 0.573273 0.415604)
(0.0136666 0.474405 0.383482)
(0.0738438 0.590181 0.435178)
(0.126176 0.461201 0.427415)
(0.00117549 0.566006 0.415245)
(0.0192154 0.505482 0.379655)
(0.0651741 0.482482 0.406936)
(-0.116628 1.01429 0.441203)
(-0.0805234 0.986932 0.443904)
(-0.112229 1.04269 0.415475)
(-0.0722367 1.03822 0.417638)
(-0.0817258 1.00379 0.407774)
(-0.0138853 0.931384 0.398632)
(-0.0148764 0.953345 0.41852)
(0.0363238 0.952107 0.3341)
(0.00100297 0.950459 0.305907)
(0.105603 0.884634 0.310441)
(0.0851574 0.857573 0.293002)
(0.055861 0.892026 0.32728)
(-0.0127637 0.944189 0.320087)
(-0.014774 0.940035 0.370716)
(0.0454116 0.890059 0.30956)
(0.0221677 0.883678 0.299408)
(0.0641505 0.665104 0.441472)
(0.149604 0.665642 0.438127)
(0.0381474 0.697343 0.472576)
(0.105227 0.768197 0.456093)
(0.051391 0.737201 0.464092)
(0.112911 0.683513 0.460414)
(0.164916 0.667814 0.453125)
(0.120198 0.724206 0.441504)
(0.162935 0.769517 0.445147)
(0.18308 0.857098 0.421903)
(0.196781 0.719489 0.41953)
(0.201222 0.79654 0.405929)
(0.217164 0.725378 0.407167)
(0.167225 0.861458 0.43823)
(0.197934 0.782226 0.422668)
(0.0145361 0.745313 0.459175)
(0.108665 0.674271 0.458403)
(0.0847018 0.864728 0.426119)
(0.134914 0.881239 0.433738)
(0.184409 0.678389 0.418819)
(0.104239 0.881359 0.430211)
(0.0771592 0.876119 0.433015)
(-0.00804456 0.915066 0.464795)
(-0.100256 1.06934 0.572439)
(-0.0950164 1.10153 0.595186)
(-0.11487 1.04102 0.547467)
(-0.121 1.06784 0.595941)
(-0.097834 1.08846 0.621009)
(-0.105374 1.12084 0.566201)
(-0.0842461 1.10882 0.532407)
(-0.134302 1.12264 0.510225)
(-0.155102 1.10729 0.567363)
(-0.189383 1.10904 0.584199)
(-0.118722 1.11315 0.510685)
(-0.145402 1.12331 0.538814)
(-0.142688 1.15308 0.594599)
(-0.168418 1.0626 0.544636)
(-0.145844 1.04272 0.562423)
(-0.172842 1.12699 0.535888)
(-0.193132 1.11437 0.557403)
(-0.131537 1.0877 0.535104)
(-0.158877 1.14361 0.605254)
(-0.137315 1.09567 0.510956)
(-0.188222 0.883237 0.455245)
(-0.174344 0.881964 0.466194)
(-0.184293 0.858686 0.436635)
(-0.112953 0.823488 0.355925)
(-0.169033 0.908988 0.461504)
(-0.130112 0.899713 0.425236)
(-0.268874 0.828069 0.477888)
(-0.241723 0.870101 0.484781)
(-0.217304 0.72895 0.417519)
(-0.168356 0.731728 0.357)
(-0.229768 0.744714 0.409981)
(-0.180946 0.720555 0.312576)
(-0.281463 0.853839 0.492102)
(-0.238295 0.694814 0.410157)
(-0.188099 0.694179 0.34169)
(-0.233451 0.699261 0.401989)
(-0.182117 0.729694 0.354353)
(-0.243281 0.82284 0.440123)
(-0.172991 0.720619 0.324671)
(-0.224438 0.702659 0.401736)
(0.467845 0.713117 0.250876)
(0.440679 0.690922 0.233555)
(0.462369 0.803061 0.303066)
(0.447377 0.8257 0.325032)
(0.455852 0.664213 0.227974)
(0.448114 0.649919 0.219308)
(0.443998 0.721903 0.257032)
(0.454242 0.845641 0.355228)
(0.457358 0.739913 0.293335)
(0.428985 0.86085 0.34615)
(0.439112 0.847293 0.346603)
(0.415674 0.729267 0.247458)
(0.403445 0.786922 0.297249)
(0.420629 0.691016 0.239115)
(0.399136 0.75759 0.284043)
(0.410218 0.717073 0.263527)
(0.427752 0.779225 0.308581)
(0.216985 0.473044 0.42291)
(0.246884 0.388542 0.401496)
(0.230295 0.418204 0.438719)
(0.24822 0.388696 0.430267)
(0.0987094 0.485866 0.415296)
(0.23199 0.461905 0.422996)
(0.223722 0.473123 0.426699)
(0.241546 0.398321 0.438294)
(0.2536 0.339102 0.438389)
(0.175022 0.40478 0.424694)
(0.133629 0.383322 0.41145)
(0.188397 0.327968 0.429029)
(0.117846 0.433252 0.425878)
(0.0827723 0.813947 0.169347)
(0.120859 0.787051 0.130953)
(0.122956 0.790506 0.175431)
(0.10125 0.842624 0.176097)
(0.0079587 0.908212 0.275461)
(0.0462369 0.916792 0.276376)
(0.111597 0.788247 0.145518)
(0.106851 0.796699 0.141304)
(0.138074 0.803931 0.15341)
(0.0137879 0.956315 0.276229)
(0.0712036 0.846481 0.215678)
(0.039007 0.960491 0.299561)
(0.0380215 0.940091 0.297024)
(0.124092 0.81888 0.15549)
(0.169622 0.761771 0.109095)
(0.193617 0.756455 0.142665)
(0.213085 0.718016 0.11078)
(0.142973 0.864077 0.19358)
(0.170817 0.843703 0.179)
(0.0955477 0.862846 0.195461)
(0.169294 0.753152 0.130949)
(0.183197 0.792418 0.162531)
(0.123981 0.910779 0.258967)
(0.102145 0.912435 0.261904)
(0.0770852 0.907611 0.258152)
(0.0991782 0.905673 0.279835)
(0.184339 0.861703 0.345776)
(0.191964 0.830699 0.313189)
(0.193028 0.852121 0.293507)
(0.181753 1.0215 0.397367)
(0.213489 0.838112 0.290316)
(0.220545 0.85482 0.316628)
(0.198531 0.992543 0.374938)
(0.183272 1.02509 0.390504)
(0.204373 0.983172 0.375097)
(0.220866 0.942738 0.396471)
(0.217631 1.00485 0.412607)
(0.383728 0.613976 0.326987)
(0.459734 0.519111 0.222526)
(0.453505 0.454543 0.206993)
(0.373476 0.580717 0.337691)
(0.372787 0.590977 0.322543)
(0.423145 0.497176 0.281992)
(0.446586 0.473457 0.238151)
(0.44888 0.431751 0.268998)
(0.445177 0.440488 0.285051)
(0.473486 0.375393 0.242742)
(0.450829 0.440712 0.265403)
(0.45076 0.413589 0.232604)
(0.461673 0.420594 0.200253)
(0.439122 0.49375 0.296551)
(0.608609 0.393724 0.295567)
(0.600648 0.318499 0.271871)
(0.610561 0.364009 0.297122)
(0.622709 0.390819 0.325864)
(0.617951 0.384471 0.248761)
(0.616755 0.451728 0.297041)
(0.61074 0.436019 0.319315)
(0.612233 0.441655 0.25897)
(0.57457 0.555105 0.345825)
(0.594394 0.595907 0.326724)
(0.618528 0.44022 0.276729)
(0.614386 0.427042 0.268534)
(0.61954 0.360568 0.314683)
(0.618107 0.411934 0.265761)
(0.566253 0.545807 0.357765)
(0.528233 0.594338 0.39644)
(0.583202 0.552835 0.362406)
(0.574532 0.587207 0.345225)
(0.594951 0.561307 0.348996)
(0.572492 0.522026 0.37163)
(0.58998 0.54654 0.379884)
(0.59178 0.492561 0.379639)
(0.383138 0.500801 0.450199)
(0.373488 0.538371 0.439696)
(0.373484 0.466002 0.450497)
(0.393943 0.435268 0.44147)
(0.530359 0.497474 0.398099)
(0.454425 0.512782 0.402521)
(0.498114 0.522018 0.409976)
(0.447109 0.552298 0.391539)
(0.421674 0.513694 0.430008)
(0.418143 0.46947 0.439878)
(0.494558 0.525939 0.408247)
(0.442945 0.622469 0.396381)
(0.465069 0.590865 0.403049)
(0.525284 0.45861 0.396256)
(0.446445 0.404675 0.428616)
(0.47998 0.386344 0.425311)
(0.521811 0.483926 0.391298)
(0.379778 0.554423 0.424945)
(0.444416 0.558685 0.417773)
(0.464271 0.489137 0.414161)
(0.365572 0.872891 0.557295)
(0.373309 0.859945 0.551499)
(0.317016 0.931116 0.577588)
(0.341219 0.883565 0.563006)
(0.309339 0.87616 0.557919)
(0.298721 0.911448 0.562101)
(0.324685 0.866212 0.557436)
(0.285594 0.940616 0.581154)
(0.276226 0.926059 0.574501)
(0.320035 0.883121 0.54476)
(0.315424 0.890221 0.5621)
(0.262597 0.987357 0.58553)
(0.281852 0.925119 0.57976)
(0.260903 0.984051 0.563607)
(0.0665687 0.965643 0.504499)
(0.0653166 0.92388 0.471916)
(0.25814 0.810874 0.450715)
(0.26532 0.807829 0.428529)
(0.280655 0.823059 0.44623)
(0.0774392 0.9906 0.519501)
(0.0917549 0.989944 0.531895)
(0.170114 0.884747 0.430214)
(0.214912 0.872276 0.444421)
(0.164883 0.878376 0.463329)
(0.262384 0.810904 0.432663)
(0.285143 0.824692 0.461386)
(0.212097 0.891051 0.480496)
(0.180666 0.92701 0.53438)
(0.208321 0.87252 0.444854)
(0.181664 0.91132 0.465149)
(0.186929 0.89431 0.470501)
(0.174817 0.905772 0.478881)
(0.253833 1.0554 0.469584)
(0.242177 1.03956 0.4496)
(0.24285 1.06229 0.473914)
(0.214322 1.07416 0.466526)
(0.220953 1.06237 0.462783)
(0.251096 1.05454 0.394887)
(0.232358 1.03848 0.395035)
(0.18011 1.06234 0.46974)
(0.160849 1.07517 0.475978)
(0.180207 1.07582 0.420563)
(0.198736 1.0802 0.432006)
(0.250948 1.05878 0.414944)
(0.192781 1.06345 0.456416)
(0.191774 1.07723 0.452522)
(0.160092 1.06449 0.462332)
(0.177323 1.0582 0.478126)
(0.247137 1.05544 0.399014)
(0.257362 1.04087 0.398764)
(0.189782 1.08788 0.438457)
(0.2136 1.09339 0.470146)
(0.194921 1.0754 0.438131)
(0.217209 1.04941 0.436792)
(-0.12445 0.652525 0.350028)
(-0.152572 0.662264 0.397587)
(-0.166893 0.615753 0.363925)
(-0.175819 0.622413 0.37977)
(-0.143057 0.671385 0.404942)
(-0.132046 0.535797 0.351934)
(-0.0958504 0.555208 0.397809)
(-0.0863629 0.534481 0.359242)
(-0.151974 0.688142 0.394341)
(-0.139296 0.619237 0.354354)
(-0.0786076 0.567333 0.401419)
(-0.0860427 0.531609 0.359961)
(-0.0651525 0.427073 0.343994)
(-0.11914 0.543505 0.369973)
(-0.100381 0.516129 0.304919)
(-0.0864919 0.542842 0.386724)
(-0.0673396 0.495865 0.357584)
(-0.11347 0.52042 0.312289)
(-0.0997224 0.501811 0.282863)
(-0.201621 1.07131 0.603047)
(-0.223803 1.06248 0.617337)
(-0.225418 1.04488 0.596603)
(-0.189269 1.06311 0.601794)
(-0.126928 0.941201 0.542721)
(-0.152471 0.973034 0.557754)
(-0.146802 0.970863 0.578061)
(-0.0619786 0.928622 0.571641)
(-0.104691 0.899401 0.497987)
(-0.11256 0.874146 0.510167)
(-0.130298 0.900784 0.541885)
(-0.0719581 0.888902 0.546764)
(-0.164064 1.04618 0.60083)
(-0.103061 0.959628 0.563498)
(-0.120145 1.04347 0.596828)
(-0.169372 1.04819 0.596761)
(-0.194335 1.02501 0.614364)
(-0.0782976 0.918727 0.555331)
(-0.0816596 0.967474 0.579438)
(-0.00682753 1.01088 0.39396)
(-0.0728193 1.06356 0.446239)
(-0.0430561 1.04699 0.437842)
(-0.0196355 1.07771 0.414473)
(-0.0398975 1.04899 0.443609)
(-0.0266536 0.981451 0.37734)
(-0.0488186 1.01157 0.38503)
(-0.081491 1.02177 0.414398)
(-0.0616765 1.08395 0.431533)
(0.0029635 0.988356 0.335857)
(0.0181207 0.958231 0.3179)
(0.0252748 1.02974 0.367813)
(0.00984027 0.945503 0.296606)
(-0.0556023 0.461168 0.33696)
(-0.0734172 0.508136 0.357357)
(-0.0372515 0.600132 0.418973)
(-0.0128993 0.549528 0.427465)
(-8.14114e-05 0.449715 0.389727)
(-0.0371593 0.489925 0.381897)
(-0.134093 0.551267 0.380826)
(-0.045553 0.515113 0.386583)
(-0.0228856 0.480295 0.390512)
(-0.0775042 0.657827 0.426105)
(-0.0550198 0.556281 0.418017)
(-0.0999292 0.627728 0.425723)
(-0.124775 0.63948 0.421777)
(-0.0916477 1.10798 0.519615)
(-0.0709605 1.08482 0.463576)
(-0.0779472 1.07744 0.452277)
(-0.141306 1.10337 0.529048)
(-0.0942652 1.07554 0.452127)
(-0.113679 1.07369 0.464072)
(-0.0945607 1.09009 0.465673)
(0.16571 0.828045 0.561183)
(0.184853 0.784504 0.534469)
(0.164824 0.740925 0.520889)
(0.140916 0.78018 0.515233)
(0.103286 0.903026 0.562574)
(0.138976 0.88832 0.558375)
(0.105437 0.824025 0.514734)
(0.0971206 0.81489 0.524767)
(0.051403 1.02626 0.627571)
(0.0942003 0.984497 0.582419)
(0.0726187 0.894809 0.52425)
(0.0602627 0.932975 0.563514)
(0.112603 0.961574 0.609465)
(0.0193637 1.05313 0.647589)
(-0.000993254 1.0458 0.623392)
(0.0534536 0.979401 0.57802)
(0.0748174 0.935148 0.587914)
(0.32591 1.00957 0.580316)
(0.340415 0.962094 0.568437)
(0.301573 1.09196 0.589469)
(0.363261 0.982894 0.576227)
(0.346415 0.981342 0.576008)
(0.343443 0.914458 0.558086)
(0.370056 0.920098 0.57213)
(0.288528 1.02042 0.565217)
(0.313177 0.977156 0.571563)
(0.285936 1.05606 0.575666)
(0.262629 1.00254 0.556355)
(0.299384 1.03279 0.566584)
(0.368132 0.898453 0.557676)
(0.393286 0.882077 0.566704)
(0.383819 0.886013 0.579471)
(0.297595 1.01366 0.577669)
(0.256955 1.02742 0.560365)
(0.258853 1.04283 0.5735)
(0.372582 0.92768 0.568598)
(0.459741 0.642263 0.370926)
(0.534154 0.509521 0.363722)
(0.483291 0.596892 0.387294)
(0.448603 0.586017 0.404219)
(0.51031 0.523049 0.389877)
(0.541822 0.505503 0.350703)
(0.450165 0.56392 0.385714)
(0.395312 0.645552 0.403434)
(0.497589 0.638808 0.338671)
(0.517317 0.566617 0.334415)
(0.355021 0.673641 0.416427)
(0.364374 0.657882 0.403699)
(0.402547 0.709992 0.376783)
(0.432303 0.723134 0.389777)
(0.538319 0.545361 0.356309)
(0.438167 0.644568 0.394894)
(0.500005 0.682047 0.335756)
(0.521664 0.653579 0.329858)
(0.305851 0.517096 0.411815)
(0.317901 0.558539 0.410551)
(0.314465 0.429297 0.426494)
(0.28117 0.485501 0.418981)
(0.407186 0.309871 0.363768)
(0.430263 0.351364 0.363204)
(0.367652 0.491182 0.402088)
(0.34228 0.48061 0.403254)
(0.35324 0.360879 0.385943)
(0.41402 0.373315 0.344174)
(0.465571 0.351418 0.335881)
(0.419848 0.278657 0.325678)
(0.357005 0.334697 0.408404)
(0.431795 0.378696 0.344987)
(0.416605 0.329775 0.32763)
(0.451999 0.399459 0.349965)
(0.408596 0.307683 0.335344)
(0.336987 0.995256 0.426317)
(0.347732 0.918196 0.351153)
(0.300511 0.981728 0.405624)
(0.258249 0.993103 0.461928)
(0.264237 1.00017 0.468956)
(0.344466 0.966235 0.388754)
(0.370747 0.934224 0.361166)
(0.252753 0.896886 0.413535)
(0.30653 0.987116 0.468878)
(0.226408 0.887489 0.422089)
(0.356914 0.890156 0.35943)
(0.379515 0.848225 0.378053)
(0.351374 0.970629 0.417467)
(0.408745 0.871874 0.366265)
(0.321525 0.836279 0.375354)
(0.375142 0.8486 0.393471)
(0.341944 0.892901 0.389926)
(0.388155 0.903003 0.391887)
(0.4101 0.860283 0.281521)
(0.420064 0.86353 0.276455)
(0.381219 0.88014 0.27641)
(0.407632 0.84765 0.257197)
(0.416981 0.857885 0.282427)
(0.388725 0.737523 0.181469)
(0.386576 0.801258 0.241963)
(0.431905 0.79727 0.249035)
(0.455058 0.750579 0.232746)
(0.446854 0.717171 0.181364)
(0.459654 0.700687 0.19022)
(0.416842 0.717342 0.174)
(0.417297 0.749084 0.21204)
(0.415935 0.796847 0.24109)
(0.385284 0.744786 0.197465)
(0.402757 0.685278 0.155166)
(0.481946 0.654742 0.162434)
(0.469607 0.640533 0.144163)
(0.45792 0.721359 0.171809)
(0.453668 0.675298 0.154383)
(0.473956 0.711751 0.188894)
(0.427599 0.683218 0.142719)
(-0.0895793 0.470294 0.323835)
(-0.124664 0.541679 0.279635)
(-0.145052 0.561998 0.283106)
(-0.135815 0.553369 0.277391)
(-0.140909 0.506842 0.287747)
(-0.153546 0.526349 0.300732)
(-0.0909768 0.440276 0.277672)
(-0.1346 0.529224 0.267495)
(-0.132125 0.514986 0.281427)
(-0.0684597 0.431082 0.26127)
(0.572304 0.485301 0.395293)
(0.543005 0.42875 0.410915)
(0.553855 0.429792 0.405985)
(0.579174 0.279068 0.344701)
(0.576848 0.258953 0.315345)
(0.573063 0.304788 0.342246)
(0.596407 0.312021 0.362184)
(0.561668 0.428577 0.395791)
(0.612806 0.312248 0.340123)
(0.618853 0.345446 0.309609)
(0.601612 0.321377 0.292869)
(0.536118 0.461793 0.390862)
(0.599006 0.349233 0.354014)
(-0.0093708 1.02839 0.389744)
(0.00201737 1.00566 0.362423)
(-0.0659875 1.0856 0.415261)
(-0.0145789 0.998266 0.378458)
(0.0481902 0.957054 0.293177)
(0.0219791 0.98199 0.324146)
(-0.0598576 1.00785 0.343104)
(-0.016422 0.939648 0.308554)
(-0.00637759 0.929915 0.251805)
(0.0269488 0.860411 0.211333)
(-0.0180258 0.993186 0.345679)
(-0.0202052 1.01133 0.358877)
(0.0186752 0.957187 0.303967)
(0.408871 0.241363 0.457438)
(0.301005 0.208197 0.456505)
(0.265028 0.220693 0.461131)
(0.235377 0.286068 0.444185)
(0.296632 0.330183 0.464878)
(0.387735 0.3694 0.473472)
(0.338947 0.179402 0.436722)
(0.311684 0.172088 0.437721)
(0.348583 0.385243 0.482477)
(0.306867 0.3286 0.471467)
(-0.355757 0.964838 0.552464)
(-0.280026 0.862366 0.488351)
(-0.329813 0.957959 0.549122)
(-0.357795 1.01359 0.566606)
(-0.364738 0.966914 0.521415)
(-0.246774 0.805162 0.459037)
(-0.322526 0.890928 0.475862)
(-0.29619 0.852634 0.463098)
(-0.296404 0.847186 0.412301)
(-0.270618 0.821496 0.397728)
(-0.344819 1.02193 0.530988)
(-0.279914 0.878581 0.433949)
(-0.262713 0.855987 0.413105)
(-0.286153 0.910126 0.471963)
(-0.305063 0.96027 0.48166)
(-0.277093 0.830646 0.432371)
(-0.293973 0.903943 0.435602)
(-0.332761 0.967026 0.50095)
(-0.252141 0.841162 0.439199)
(-0.271652 0.827234 0.45332)
(-0.0835683 0.623534 0.419711)
(-0.116139 0.689492 0.458013)
(-0.0948188 0.615821 0.428727)
(-0.0673153 0.558469 0.381334)
(-0.169674 0.782356 0.505196)
(-0.130012 0.65741 0.441761)
(-0.185457 0.776371 0.503612)
(-0.178905 0.775072 0.469692)
(-0.125376 0.692794 0.440043)
(-0.118089 0.594308 0.387931)
(-0.0915127 0.557477 0.367654)
(-0.205162 0.772398 0.489156)
(-0.127635 0.625662 0.426718)
(-0.140282 0.648353 0.405749)
(-0.117469 0.585686 0.385995)
(-0.204422 0.762565 0.472728)
(0.331853 0.748948 0.405575)
(0.309409 0.726831 0.412815)
(0.34398 0.700502 0.366655)
(0.291482 0.718437 0.395627)
(0.29211 0.723875 0.391222)
(0.307013 0.720879 0.387661)
(0.244066 0.776606 0.427595)
(0.275634 0.796758 0.405168)
(0.252643 0.788204 0.444417)
(0.176844 0.888237 0.499781)
(0.15026 0.902281 0.477115)
(0.020055 0.403335 0.355933)
(-0.0244375 0.422233 0.35927)
(0.0437614 0.420342 0.383716)
(0.0167968 0.449702 0.392725)
(0.0713024 0.402547 0.36382)
(0.0648691 0.36403 0.333705)
(0.00141235 0.474025 0.399961)
(0.0597175 0.412774 0.371773)
(0.0321582 0.41635 0.358156)
(0.0417975 0.448799 0.394221)
(-0.0141184 0.422381 0.36608)
(0.0230203 0.388417 0.339509)
(-0.00463627 0.409086 0.361709)
(0.0577113 0.367136 0.332523)
(-0.0241153 0.444472 0.368228)
(0.0108468 0.38627 0.343216)
(0.0178832 0.384306 0.347725)
(-0.00169546 0.380483 0.34384)
(0.00222861 0.47585 0.399775)
(-0.00875938 0.365257 0.316401)
(0.0200715 0.347886 0.309594)
(0.0603449 0.333274 0.304311)
(-0.0525999 0.455903 0.370503)
(-0.0464091 0.45547 0.377333)
(0.0346979 0.356668 0.320926)
(0.437832 0.447927 0.414492)
(0.360154 0.514784 0.427396)
(0.301446 0.579428 0.447146)
(0.291572 0.644569 0.430566)
(0.315443 0.605871 0.419407)
(0.402732 0.696181 0.398)
(0.233194 0.655599 0.425088)
(0.282908 0.674832 0.431224)
(0.137257 0.731483 0.277451)
(0.16766 0.691389 0.230796)
(0.14962 0.739136 0.277658)
(0.125102 0.78119 0.314159)
(0.0977732 0.765278 0.309101)
(0.129798 0.748399 0.266645)
(0.151744 0.733586 0.241739)
(0.00795822 0.833709 0.386426)
(0.0102898 0.856683 0.404009)
(-0.00221023 0.873333 0.404629)
(-0.0286951 0.850743 0.415624)
(0.0970582 0.754065 0.239512)
(0.130095 0.739002 0.21321)
(0.168971 0.723484 0.20592)
(0.119829 0.782268 0.298064)
(0.0124548 0.862207 0.353487)
(-0.0305445 0.856513 0.346612)
(-0.0282898 0.85895 0.349185)
(0.115809 0.768329 0.228701)
(0.146313 0.75264 0.222561)
(-0.0246628 0.732818 0.485819)
(-0.0639335 0.761519 0.492488)
(-0.0376855 0.68034 0.443777)
(-0.0426132 0.693277 0.441634)
(-0.0862912 0.733892 0.463585)
(-0.161809 0.843978 0.509139)
(-0.191762 0.988652 0.547445)
(-0.230787 0.961873 0.543864)
(-0.216832 0.975444 0.550426)
(-0.193318 0.984559 0.591657)
(-0.263746 1.02055 0.601333)
(-0.0889867 0.714442 0.459638)
(-0.176759 0.920007 0.516796)
(-0.145308 0.847898 0.492663)
(-0.171395 0.912262 0.529403)
(-0.132209 0.928162 0.547606)
(-0.121914 0.856378 0.505688)
(-0.111518 0.514408 0.404618)
(-0.0554222 0.428383 0.37814)
(-0.000337815 0.475017 0.383952)
(0.0151921 0.433927 0.359031)
(-0.120324 0.546698 0.429558)
(-0.00336015 0.419673 0.360438)
(-0.0804149 0.559165 0.433094)
(-0.279291 1.00481 0.565926)
(-0.256343 0.990987 0.535176)
(-0.293067 0.962125 0.547223)
(-0.325563 1.02272 0.582047)
(-0.312666 1.02216 0.565065)
(-0.258167 0.9368 0.447861)
(-0.251162 0.916704 0.445178)
(-0.236167 0.853221 0.422838)
(-0.332335 1.03927 0.562185)
(-0.277679 1.01493 0.550611)
(-0.307232 1.02298 0.539779)
(-0.271509 0.985615 0.48181)
(-0.286285 1.00164 0.516325)
(-0.255532 0.890295 0.457454)
(-0.313531 0.970254 0.49439)
(0.337227 0.935297 0.386325)
(0.34547 0.916576 0.404918)
(0.331364 0.878512 0.375593)
(0.3085 0.868287 0.372897)
(0.306309 0.791129 0.324872)
(0.298908 0.763969 0.317326)
(0.353851 0.826382 0.347162)
(0.349265 0.744368 0.323591)
(0.311768 0.801376 0.372357)
(0.306476 0.781285 0.359172)
(0.341223 0.94744 0.395599)
(0.349031 0.939183 0.418128)
(0.33647 0.838136 0.330569)
(0.334405 0.785045 0.304916)
(0.32105 0.764517 0.295046)
(0.351599 0.852685 0.339092)
(0.338914 0.825104 0.397323)
(0.349317 0.92115 0.385598)
(0.319106 0.746447 0.314795)
(0.327061 0.798415 0.376705)
(0.315616 0.755828 0.357497)
(0.348794 0.903073 0.411721)
(0.375803 0.909225 0.401821)
(0.373321 0.924777 0.382654)
(0.162455 0.939835 0.479583)
(0.305384 1.05147 0.589615)
(0.239667 0.956933 0.499928)
(0.217825 0.972699 0.506797)
(0.291299 1.03783 0.538014)
(-0.355768 0.963452 0.600344)
(-0.369233 0.982859 0.615431)
(-0.394583 1.0107 0.588657)
(-0.364562 0.982152 0.591356)
(-0.38982 1.06394 0.657436)
(-0.372638 1.06263 0.635212)
(-0.406377 1.0523 0.672111)
(-0.365023 1.01777 0.642369)
(-0.44609 1.0051 0.663267)
(-0.422057 1.02469 0.614006)
(-0.425264 1.05044 0.65054)
(-0.410749 1.04433 0.625137)
(-0.357118 1.03711 0.610854)
(-0.414079 1.0081 0.642977)
(-0.410526 1.00663 0.597977)
(-0.437182 0.99341 0.625208)
(-0.301827 1.01293 0.507318)
(-0.341598 1.0292 0.55765)
(-0.337929 1.03727 0.574234)
(-0.337152 1.01618 0.527581)
(-0.353619 1.03509 0.579078)
(-0.310533 1.02695 0.591395)
(-0.313599 1.00722 0.573676)
(-0.366539 1.03336 0.593285)
(-0.351629 1.03106 0.552901)
(-0.332255 0.998283 0.58163)
(-0.335064 0.987791 0.563668)
(-0.340352 0.988478 0.573711)
(-0.297767 1.11845 0.637629)
(-0.272886 1.1167 0.62547)
(-0.225037 1.10457 0.6302)
(-0.270603 1.13248 0.651603)
(-0.265072 1.09051 0.624816)
(-0.162279 1.05144 0.576581)
(-0.129431 1.05953 0.600849)
(-0.17425 1.07109 0.603284)
(-0.242207 1.09556 0.625757)
(-0.218329 1.1363 0.639473)
(-0.16781 1.09284 0.620198)
(-0.238347 1.10672 0.630755)
(-0.171245 1.10939 0.624884)
(0.136512 1.08186 0.433736)
(0.137241 1.03572 0.387676)
(0.0919903 1.12832 0.525567)
(0.128587 1.11148 0.514578)
(0.123959 1.07505 0.449309)
(0.109749 1.12892 0.511407)
(0.140843 1.11012 0.500342)
(0.163681 1.01355 0.424414)
(0.137057 1.11615 0.505332)
(0.13572 1.11409 0.482352)
(0.168222 1.09377 0.447816)
(0.159878 1.10629 0.412026)
(0.181136 1.03868 0.392671)
(0.193686 1.06421 0.403795)
(0.143671 1.06625 0.392337)
(0.221313 1.07711 0.42014)
(0.167838 1.07995 0.382965)
(0.154583 1.08636 0.425031)
(0.1532 1.08427 0.447257)
(-0.365012 0.739566 0.477211)
(-0.384202 0.911213 0.571434)
(-0.369952 0.851984 0.547141)
(-0.389792 0.90136 0.579106)
(-0.447965 0.924255 0.610451)
(-0.401583 0.854712 0.564847)
(0.247008 0.993956 0.554986)
(0.319037 0.959543 0.547694)
(0.20366 1.07172 0.576915)
(0.247943 0.991123 0.530676)
(0.281377 1.00409 0.569648)
(0.207139 1.05216 0.567562)
(0.234196 0.984683 0.562433)
(0.281174 0.971358 0.565965)
(0.22402 0.991953 0.576066)
(-0.126895 0.957781 0.36196)
(-0.0663934 0.896532 0.325049)
(-0.0561123 0.891079 0.290514)
(-0.067916 0.910981 0.291281)
(-0.0863243 0.956909 0.351572)
(-0.127869 0.98256 0.454026)
(-0.097662 0.96808 0.377658)
(-0.0980308 0.952057 0.362491)
(-0.04961 0.966265 0.307233)
(0.0258529 0.859042 0.268309)
(-0.0507124 0.944868 0.373732)
(-0.0386905 0.901713 0.337507)
(-0.141943 1.00792 0.415892)
(0.00320907 0.865371 0.271883)
(-0.0489221 0.945838 0.406681)
(0.0603387 0.823918 0.281732)
(0.00557932 0.908088 0.34477)
(0.31597 0.426236 0.446459)
(0.341089 0.379935 0.448248)
(0.300859 0.336133 0.4568)
(0.291538 0.283424 0.464218)
(0.267501 0.545903 0.444242)
(0.32164 0.442388 0.430201)
(0.254688 0.527989 0.449427)
(0.217899 0.397566 0.448421)
(0.252881 0.511358 0.444019)
(0.212168 0.487251 0.441022)
(0.218809 0.345829 0.458689)
(0.164415 0.495828 0.423791)
(0.257852 0.364316 0.46054)
(0.29693 0.309881 0.440863)
(0.218631 0.89123 0.507353)
(0.280749 0.894911 0.470408)
(0.187225 0.899718 0.477913)
(0.239535 0.914347 0.492626)
(0.312113 0.769097 0.405345)
(0.356647 0.734234 0.395094)
(0.217072 0.883496 0.438523)
(0.22673 0.839641 0.374273)
(0.321596 0.766559 0.401286)
(0.331509 0.801373 0.436604)
(0.368406 0.774545 0.400962)
(0.350215 0.769457 0.367779)
(0.343478 0.744269 0.346665)
(0.36897 0.71054 0.34759)
(0.221309 0.869741 0.405443)
(0.254462 0.859937 0.433956)
(0.315148 0.768802 0.34498)
(0.145684 0.703562 0.118136)
(0.15846 0.705159 0.129184)
(0.132003 0.705984 0.127875)
(0.170024 0.661962 0.101049)
(0.0465243 0.799726 0.235274)
(0.159568 0.706887 0.118451)
(0.199848 0.691159 0.12702)
(0.203444 0.660289 0.106117)
(0.199189 0.763812 0.177601)
(0.153706 0.818476 0.242378)
(0.140563 0.738184 0.132779)
(0.157869 0.754875 0.135877)
(0.0613815 0.781718 0.209693)
(0.0420899 0.829041 0.262688)
(0.0463915 0.817674 0.25817)
(0.206848 0.745004 0.188434)
(0.223423 0.723436 0.152937)
(0.213684 0.691111 0.131779)
(0.121537 0.798867 0.238789)
(0.191885 0.755318 0.183438)
(0.0392215 0.650748 0.443033)
(0.102567 0.669226 0.45185)
(0.141328 0.647475 0.445318)
(0.0998601 0.640688 0.456012)
(0.0890248 0.460272 0.418125)
(0.167879 0.437169 0.431908)
(0.111965 0.488295 0.433323)
(0.175058 0.587971 0.443412)
(0.0771857 0.555642 0.449378)
(0.000692059 0.570407 0.428596)
(0.109117 0.454422 0.425513)
(0.144675 0.4525 0.431418)
(0.224123 0.50586 0.433962)
(0.167016 0.499723 0.43911)
(0.0561674 0.517208 0.423395)
(0.0891399 0.954293 0.489062)
(0.0917636 0.984825 0.514744)
(0.119833 1.05545 0.547594)
(0.0913509 0.991225 0.50791)
(0.102031 0.980733 0.515776)
(0.0696022 1.00847 0.533148)
(0.0389449 0.960242 0.481695)
(0.0463754 0.971013 0.508616)
(0.0443992 0.867493 0.433687)
(0.0430778 0.874754 0.434086)
(0.0546917 1.06725 0.557077)
(0.0700362 0.981386 0.505593)
(0.00289281 0.943085 0.494424)
(0.00518816 0.873776 0.440095)
(0.0177493 0.897328 0.461998)
(-0.0348618 0.790947 0.415953)
(-0.0204552 0.796062 0.429472)
(-0.0429141 0.998598 0.490441)
(-0.0261472 0.88239 0.470699)
(-0.00477745 0.83653 0.438489)
(0.331314 1.0211 0.446431)
(0.334293 0.970561 0.392776)
(0.354431 0.943642 0.360253)
(0.354942 1.00534 0.438498)
(0.333532 1.0123 0.416135)
(0.324383 0.998515 0.447567)
(0.363504 0.955395 0.389667)
(0.359915 0.931078 0.429345)
(0.384327 0.939401 0.408672)
(0.343505 0.98209 0.454289)
(0.372059 0.939556 0.374631)
(0.357826 0.951292 0.449216)
(0.36815 0.737654 0.268056)
(0.378708 0.70681 0.241105)
(0.166338 0.862505 0.355597)
(0.218537 0.85123 0.321017)
(0.356698 0.738954 0.270999)
(0.368584 0.742834 0.262523)
(0.342471 0.734378 0.273296)
(0.362503 0.74256 0.284212)
(0.349158 0.752137 0.264405)
(0.186256 0.839546 0.338417)
(0.206497 0.87113 0.340079)
(0.253035 0.851171 0.36143)
(0.248465 0.878292 0.385942)
(0.215586 0.911457 0.410912)
(0.263587 0.811133 0.307571)
(0.30956 0.77521 0.294331)
(0.266198 0.833294 0.331907)
(0.323703 0.788906 0.295379)
(0.14199 0.915439 0.420292)
(0.244645 0.876446 0.386216)
(0.231904 0.862212 0.373775)
(0.298215 0.830914 0.347912)
(0.209301 0.880162 0.371579)
(0.302477 0.844359 0.362236)
(0.24162 1.0375 0.500773)
(0.23324 1.05704 0.480077)
(0.299197 1.00502 0.451767)
(0.282215 1.0012 0.463323)
(0.246707 1.05269 0.48921)
(0.250215 1.05226 0.521951)
(0.252234 1.05461 0.528667)
(0.230964 1.07704 0.458031)
(0.249821 1.04898 0.442008)
(0.235046 1.07553 0.503236)
(0.196787 1.06016 0.519855)
(0.279623 1.03124 0.458775)
(0.28536 1.00753 0.428884)
(0.262341 1.03625 0.417229)
(-0.154779 0.943098 0.379221)
(-0.115867 0.912969 0.326148)
(-0.0471917 0.845155 0.273389)
(-0.111441 0.921333 0.303836)
(-0.146735 0.977873 0.355843)
(-0.1107 0.886579 0.291324)
(0.00688296 0.744149 0.172651)
(0.00818818 0.763325 0.206219)
(-0.12481 0.933947 0.318631)
(-0.0740302 0.870835 0.235075)
(-0.0908763 0.854678 0.250168)
(-0.0457812 0.781565 0.175433)
(-0.0104154 0.76236 0.165293)
(-0.0805966 0.82955 0.235514)
(0.0210937 0.748482 0.18061)
(0.0389751 0.717376 0.142242)
(0.00497053 0.75968 0.163696)
(0.0151066 0.782534 0.193989)
(0.101368 0.840834 0.354698)
(0.115616 0.83827 0.332032)
(0.114434 0.883671 0.40449)
(0.111303 0.872939 0.37836)
(0.114866 0.813359 0.323592)
(0.0386295 0.863284 0.390955)
(-0.0474588 0.710133 0.339212)
(-0.0547789 0.694018 0.35363)
(0.0600462 0.939567 0.460106)
(0.0597453 0.822141 0.369337)
(-0.0151141 0.733527 0.314861)
(0.0295944 0.764473 0.304973)
(0.0938007 0.821644 0.315854)
(0.0377124 0.821773 0.34539)
(0.0284849 0.899602 0.448386)
(-0.0274404 0.851646 0.439199)
(-0.0483542 0.799319 0.398706)
(0.0311979 0.895487 0.449455)
(-0.291761 1.00428 0.473283)
(-0.26836 1.03979 0.486582)
(-0.229929 0.898643 0.405857)
(-0.253053 0.949995 0.418976)
(-0.239724 0.965279 0.42341)
(-0.207774 0.924652 0.376595)
(-0.3008 1.00457 0.51201)
(-0.216441 0.936404 0.402604)
(-0.210977 0.940479 0.427083)
(-0.278099 1.05229 0.516098)
(-0.284737 1.01112 0.505457)
(-0.169769 0.53934 0.245365)
(-0.174471 0.570339 0.245839)
(-0.212072 0.569196 0.280827)
(-0.207577 0.605531 0.263818)
(-0.170423 0.488597 0.187668)
(-0.117612 0.433775 0.14854)
(-0.143988 0.549035 0.158047)
(-0.110392 0.460483 0.135236)
(-0.135357 0.507102 0.166738)
(-0.148521 0.473483 0.191286)
(-0.118928 0.521898 0.14352)
(-0.132544 0.564981 0.162686)
(-0.204467 0.595447 0.239139)
(-0.169884 0.482027 0.214347)
(-0.145991 0.475212 0.191945)
(-0.232388 0.610137 0.265475)
(-0.211549 0.535789 0.269572)
(-0.173384 0.548067 0.183189)
(0.129583 0.910694 0.277138)
(0.0993624 0.964355 0.321885)
(0.0716617 0.948626 0.287236)
(0.127689 0.925466 0.249217)
(0.12465 0.868511 0.197516)
(0.14778 0.858662 0.199529)
(0.111208 0.936035 0.292098)
(0.1653 0.878768 0.260494)
(0.108908 0.895822 0.256704)
(0.159047 0.901094 0.267314)
(0.202787 0.797878 0.134121)
(0.199347 0.767616 0.141966)
(0.228563 0.796408 0.165413)
(0.162405 0.810591 0.148024)
(0.191715 0.790561 0.138725)
(0.221199 0.804904 0.164061)
(0.232758 0.762712 0.142503)
(0.233528 0.731517 0.114844)
(-0.0505355 0.41104 0.235549)
(-0.0324984 0.417809 0.173543)
(-0.0305285 0.409963 0.193886)
(-0.0548886 0.416965 0.257204)
(-0.00616473 0.344447 0.201281)
(-0.0230461 0.389254 0.169664)
(-0.00763048 0.348482 0.160499)
(-0.019204 0.350749 0.234371)
(-0.0632503 0.409321 0.241007)
(-0.0314164 0.361319 0.223044)
(0.00218617 0.310821 0.163704)
(-0.0168683 0.34292 0.2139)
(0.371903 0.496875 0.275378)
(0.398573 0.436711 0.223524)
(0.378974 0.509395 0.233195)
(0.372588 0.536742 0.253852)
(0.370609 0.543003 0.239058)
(0.340457 0.574063 0.280281)