/*--------------------------------*- C++ -*----------------------------------*\
| =========                 |                                                 |
| \\      /  F ield         | OpenFOAM: The Open Source CFD Toolbox           |
|  \\    /   O peration     | Version:  v1612+                                |
|   \\  /    A nd           | Web:      www.OpenFOAM.com                      |
|    \\/     M anipulation  |                                                 |
\*---------------------------------------------------------------------------*/
FoamFile
{
    version     2.0;
    format      ascii;
    class       surfaceScalarField;
    location    "206";
    object      phi;
}
// * * * * * * * * * * * * * * * * * * * * * * * * * * * * * * * * * * * * * //

dimensions      [0 3 -1 0 0 0 0];

internalField   nonuniform List<scalar> 
41876
(
-2.87062e-09
3.01149e-09
1.26531e-09
-1.40608e-09
-2.99051e-09
3.03589e-09
8.6923e-09
-8.73766e-09
-8.49925e-09
-7.91751e-09
1.58595e-08
5.57272e-10
-9.15626e-09
7.18898e-09
-6.53197e-09
-5.32077e-11
1.37098e-09
-9.23529e-09
-1.04755e-08
1.266e-09
4.86159e-09
6.71673e-09
4.28116e-09
-7.97445e-09
5.64229e-09
7.19375e-09
2.64025e-10
-1.0495e-09
6.28153e-09
-5.55526e-09
-6.76951e-09
6.04321e-09
-9.06643e-10
7.09365e-09
9.44985e-11
6.68088e-09
-5.49654e-09
-9.20325e-10
-3.8267e-09
8.65998e-09
1.88346e-09
-2.16173e-09
7.72069e-09
-5.7155e-09
1.56539e-10
9.56891e-09
-1.03597e-08
5.63626e-09
1.37956e-10
-4.27765e-10
-4.60728e-09
8.76941e-09
-3.73441e-09
6.47004e-09
7.38003e-09
-3.55272e-09
9.59498e-09
-2.8067e-10
4.44856e-09
6.67127e-09
-5.08694e-09
7.10524e-09
-3.00784e-09
9.89535e-10
6.68279e-09
-5.7213e-09
-6.04843e-09
-7.01665e-09
-4.53562e-09
7.33963e-09
4.21275e-09
-3.4175e-09
3.08365e-09
2.7672e-09
-1.97584e-10
-3.8599e-09
4.00888e-09
-3.1568e-09
2.31073e-09
-1.18919e-08
6.67358e-10
-1.11268e-09
7.78504e-09
-1.60134e-08
9.95847e-10
1.46375e-08
3.80095e-10
-9.9916e-09
-1.06185e-08
4.59673e-09
6.32928e-09
-4.02148e-09
4.59432e-10
-8.91982e-10
7.42205e-09
-2.52119e-09
5.96013e-09
-4.54135e-09
-8.50531e-11
7.08164e-09
5.40552e-10
-8.68311e-09
9.1384e-09
8.14723e-09
-4.74662e-09
-6.45796e-09
6.91348e-09
-1.17967e-08
5.5155e-10
2.56211e-09
-1.58282e-08
2.24082e-09
-3.82944e-09
-9.21935e-09
9.65475e-09
3.39406e-09
4.32516e-09
-4.28949e-10
-7.72562e-09
5.79929e-09
-5.51082e-09
-9.50781e-09
6.68179e-09
-4.17567e-09
1.81904e-09
-5.93716e-10
-3.09816e-09
1.03737e-08
-4.62204e-09
1.36831e-08
-3.52223e-09
-1.87232e-08
1.76234e-08
2.30536e-09
-1.81484e-08
1.23208e-08
7.41221e-09
-9.98393e-09
9.36922e-11
2.47806e-09
-4.59941e-09
-8.32446e-09
-1.01691e-08
9.37634e-09
3.58527e-09
-3.48728e-10
1.13465e-08
-3.91878e-09
-1.4677e-08
7.2493e-09
4.76266e-09
7.97281e-09
-4.54161e-10
5.041e-09
-1.25598e-08
4.47913e-09
6.27589e-09
-2.78225e-09
7.62944e-09
5.0713e-09
-1.31549e-08
6.9759e-09
1.95338e-09
-1.29988e-09
9.2332e-09
6.84783e-09
-1.10401e-08
1.38441e-08
-1.31828e-10
1.15005e-09
-5.92575e-09
1.21179e-08
-7.34227e-09
1.76071e-08
-9.60934e-09
9.34291e-09
3.90892e-09
7.32352e-09
-8.17799e-09
8.94531e-09
3.31636e-10
5.23503e-09
3.85672e-09
8.5153e-09
5.90109e-09
1.14519e-08
5.80759e-09
5.21513e-09
-2.07734e-09
8.33697e-09
-5.34608e-09
2.81669e-09
6.27068e-09
1.14301e-08
4.70552e-09
6.4107e-09
-2.09144e-09
6.29939e-09
-2.30258e-09
1.04785e-08
1.87152e-09
-2.6759e-09
4.59247e-09
-3.78802e-09
-6.07478e-10
-4.79623e-09
-1.54744e-09
6.95116e-09
-4.052e-09
4.73081e-09
3.33374e-09
-4.01253e-09
-7.20741e-09
-3.43806e-09
6.59348e-09
7.21349e-11
-5.22084e-09
-2.05872e-09
-5.46174e-09
-2.18296e-09
7.03725e-09
4.76517e-09
-4.02704e-09
-5.53435e-09
-1.55121e-09
6.38853e-09
-7.68421e-09
-4.68997e-09
9.17878e-09
3.19545e-09
-2.32603e-09
-1.22759e-08
6.91772e-09
1.14601e-08
-6.38418e-09
-1.02968e-08
5.69605e-09
4.58024e-09
-1.4093e-08
-2.76313e-09
-1.11568e-08
2.63098e-09
3.83585e-09
-8.89231e-09
2.31578e-09
-1.29685e-09
-2.08819e-09
-5.50724e-09
-5.24083e-09
-1.0149e-08
2.4187e-09
8.8257e-10
-7.32829e-09
-5.13122e-09
-1.07424e-08
4.96702e-09
1.75551e-08
-1.40943e-08
-8.42776e-09
-3.56402e-09
-2.29628e-09
1.08274e-08
-1.08727e-08
5.38104e-09
2.30468e-08
-1.9268e-08
6.67224e-09
2.38766e-09
1.02079e-08
4.5933e-09
-1.86014e-08
-5.25989e-09
2.07573e-08
-1.50137e-08
-1.98381e-08
-1.40345e-09
1.1288e-08
-1.3195e-08
4.46801e-09
1.53992e-08
-1.08513e-08
2.24956e-09
-3.31305e-09
1.41716e-08
-2.9866e-10
-1.05599e-08
6.57523e-09
-2.02498e-08
1.22711e-08
4.34403e-09
-9.81283e-09
7.85636e-09
4.76871e-09
1.17973e-08
-1.60106e-08
-5.55414e-10
2.00416e-08
-1.70966e-08
-6.25806e-09
2.57348e-08
-1.02346e-08
-1.32852e-09
1.41931e-08
-6.50746e-09
-1.23926e-08
3.92899e-09
-5.66778e-09
-5.55903e-09
-1.36332e-09
-2.18958e-09
-5.035e-09
8.89781e-09
-1.68475e-09
-2.17805e-09
1.07317e-08
-8.05565e-09
-7.71102e-09
-3.82837e-09
1.84762e-09
1.02005e-08
-8.21975e-09
3.45966e-09
-9.11991e-09
1.83189e-09
8.01605e-09
-2.70876e-09
-5.567e-09
-7.80735e-09
1.02714e-08
3.10292e-09
6.58089e-09
-4.13184e-09
-1.87943e-10
8.3754e-10
8.2482e-09
1.04278e-09
9.50096e-09
-1.04707e-08
2.19052e-09
9.32295e-09
8.24472e-09
-9.31864e-09
-9.39674e-09
7.53699e-09
-2.64085e-09
8.55978e-09
-6.16661e-09
-1.76805e-08
1.59222e-09
1.82788e-08
-2.97973e-09
-6.45603e-09
1.23146e-09
7.14308e-09
3.04356e-10
1.11986e-08
-1.2559e-08
1.44556e-08
-6.97896e-09
7.74017e-09
1.99849e-09
1.2487e-09
-1.09874e-08
-1.74529e-09
5.89386e-09
3.59166e-09
-1.18422e-08
7.0816e-09
3.01528e-09
3.00599e-09
-1.28497e-08
6.15763e-09
6.98151e-09
-5.23465e-09
-7.90455e-09
-2.01525e-09
3.43672e-09
4.73613e-09
2.43834e-09
2.17054e-09
-6.1565e-09
4.68648e-09
1.61957e-09
-3.29999e-09
6.53789e-09
5.23021e-09
1.54712e-09
3.60843e-09
-2.98497e-09
7.53251e-09
-4.36585e-09
1.42574e-10
1.65677e-09
5.73324e-09
-5.37028e-09
1.75498e-09
3.75795e-09
3.65621e-09
1.67486e-09
-3.73355e-09
5.94124e-10
9.08325e-10
1.89621e-09
-7.71405e-09
4.18701e-09
-9.16e-09
1.2687e-08
3.29956e-09
-2.03972e-08
9.38355e-09
6.19964e-09
-1.58843e-08
1.29841e-08
-6.02366e-09
1.64103e-08
-1.00169e-08
-9.68507e-09
-6.95205e-10
-1.37584e-08
7.0572e-09
-2.45877e-09
-1.74477e-08
-6.17659e-09
7.74014e-09
-1.54598e-08
-1.20048e-08
-1.43648e-08
-9.07863e-09
2.78196e-09
-1.53925e-08
-1.75417e-09
1.8376e-08
-1.02292e-09
-1.45711e-08
-1.15704e-08
1.60531e-08
-1.05064e-08
9.44147e-09
-1.62423e-08
-8.65887e-09
2.63266e-09
6.32314e-10
-3.50931e-09
3.69733e-09
1.8188e-08
1.18767e-08
-1.16079e-08
-1.29177e-09
-1.03049e-08
1.36718e-09
-1.93747e-09
1.4353e-08
1.75019e-09
-8.72314e-09
1.06445e-08
-6.84439e-11
3.77695e-09
-6.4691e-09
1.95598e-09
-9.97738e-09
1.44905e-08
-2.22662e-08
2.1777e-09
1.36194e-08
-1.83884e-08
-8.89172e-09
5.01385e-09
-1.0188e-08
2.61557e-09
-1.0816e-08
-1.50301e-08
1.36115e-08
1.2063e-08
-7.22654e-09
-6.05337e-09
9.4851e-09
-6.26414e-09
-1.19441e-08
6.84144e-09
2.5752e-09
-1.0455e-08
8.81114e-09
-7.24786e-09
-2.74336e-09
-1.78997e-08
-3.53967e-09
-6.15221e-09
1.16478e-08
-1.34938e-08
1.21318e-08
-7.22245e-09
9.7417e-09
-9.74578e-09
-1.62299e-08
-2.04334e-09
8.77099e-10
-4.03676e-09
-6.21086e-09
1.36702e-08
1.48749e-09
2.07883e-08
-5.33009e-09
3.90865e-09
-1.93667e-08
8.94302e-09
4.51625e-09
7.32902e-09
-7.54939e-09
-1.41494e-08
4.17597e-09
1.75229e-08
-1.43172e-08
1.29405e-09
5.47381e-09
2.09197e-09
1.06715e-08
-1.80936e-08
1.89683e-08
-4.19482e-09
-1.08648e-08
9.88915e-09
1.80221e-08
9.69689e-09
1.33905e-08
-2.09954e-08
1.58833e-08
-1.03812e-08
2.1322e-09
-3.98392e-10
-1.572e-08
3.53497e-09
4.56161e-09
-3.11751e-09
9.22741e-09
3.48556e-09
6.72632e-09
-8.91782e-09
1.75506e-08
2.23212e-09
2.69122e-09
6.63122e-09
-4.82544e-09
-4.497e-09
4.81574e-09
-1.50502e-09
-6.195e-10
3.488e-09
4.16838e-09
-3.79314e-09
-3.86324e-09
6.98943e-10
3.3353e-09
-5.46214e-10
-3.70631e-09
-4.96876e-10
1.09575e-09
3.10743e-09
-2.56507e-09
-4.42298e-10
-6.54601e-09
6.6568e-09
3.22451e-09
-3.65229e-10
-2.0124e-09
-4.93239e-09
4.62276e-09
5.12537e-09
7.79495e-10
9.19329e-10
-3.46545e-09
-6.04629e-10
-2.37296e-09
-1.15948e-10
-2.33653e-09
-2.01504e-09
-3.82337e-09
1.23103e-09
2.89485e-09
9.10851e-10
6.8417e-09
1.25061e-09
-7.0588e-09
6.45017e-09
-5.18343e-09
-1.63198e-09
-7.75912e-10
8.13694e-09
-3.32527e-09
6.66294e-09
-3.45362e-09
4.67822e-09
-6.75288e-09
6.10362e-09
-5.64851e-09
-6.59514e-10
1.54306e-10
-6.9481e-10
6.69823e-09
-7.5695e-10
-4.22759e-09
-1.57636e-10
5.14217e-09
-4.96203e-09
-5.56645e-10
4.76171e-09
3.64495e-09
-5.87659e-09
-1.99599e-09
-6.27123e-09
4.95416e-09
-1.53549e-09
3.83867e-09
-3.54914e-09
1.24593e-09
2.29425e-09
-3.55546e-09
-2.74299e-10
-5.58488e-12
3.28759e-09
-1.48639e-09
4.05629e-09
-2.75646e-10
3.04623e-09
4.13716e-09
-8.58448e-11
-7.09754e-09
-2.96511e-09
1.34739e-10
-2.75868e-09
-2.47865e-10
-5.4262e-10
-2.74556e-09
-3.56857e-09
-2.38193e-09
4.26558e-09
-4.13893e-09
-2.84299e-10
-4.31821e-09
1.48681e-09
-7.54816e-09
-1.14304e-08
-1.55859e-09
2.05372e-08
-1.20062e-08
-6.73798e-09
1.1196e-08
-1.15724e-08
3.10099e-10
-1.68039e-10
6.16358e-09
-4.22236e-09
-1.35136e-08
-7.3107e-09
-1.02224e-08
1.59745e-08
-1.87968e-09
4.16799e-09
-9.59902e-09
-1.25086e-08
8.126e-10
-1.33433e-08
5.6303e-10
2.71704e-10
3.96193e-09
-1.95409e-09
-9.56272e-09
9.45046e-10
3.8568e-09
-7.91558e-09
1.01916e-08
3.26713e-10
-6.5564e-09
1.19193e-09
4.43556e-09
-1.48356e-08
-4.75696e-09
1.5157e-08
-6.03189e-09
1.07942e-08
5.02708e-09
-1.89244e-09
-7.90835e-09
4.77371e-09
6.4665e-10
3.66294e-09
7.17543e-10
-5.45822e-09
1.26328e-09
1.143e-08
-7.23511e-09
-1.19684e-08
-1.88894e-09
8.39909e-09
-5.09375e-10
-8.20334e-09
-3.25578e-09
3.66674e-09
8.52219e-10
-6.41142e-09
3.61831e-09
6.95096e-10
-1.62066e-09
-3.04663e-09
5.93056e-09
-1.00133e-08
2.91527e-09
5.209e-09
-3.4168e-09
-7.10589e-09
4.35299e-09
-6.35959e-09
4.92186e-09
-3.2805e-09
6.0128e-09
1.4618e-10
4.2552e-10
3.45567e-09
-5.16776e-09
-4.64753e-09
3.21316e-10
-7.73233e-09
1.03785e-08
-4.86588e-09
-2.75704e-09
-2.75549e-09
1.45405e-08
1.70432e-08
-1.96743e-08
-1.19094e-08
-3.82411e-09
6.10024e-09
1.22645e-08
3.88377e-09
9.33531e-09
8.9563e-09
-9.83681e-09
-3.70365e-09
4.58421e-09
-7.84199e-09
-1.68898e-09
6.08211e-09
8.1802e-09
6.21465e-09
-6.87262e-09
4.47291e-09
-5.12854e-09
-8.49442e-10
-7.98267e-09
-2.29189e-08
-1.17006e-08
1.24857e-08
-1.4606e-08
-1.37631e-08
-3.94198e-09
-2.11924e-08
1.45045e-08
-5.84889e-09
-2.32614e-08
6.38066e-09
-3.57676e-09
-1.20499e-08
-1.40603e-08
-2.38511e-08
-9.5328e-09
2.64948e-10
8.57304e-09
6.51221e-09
-8.15289e-09
-7.89212e-09
-1.87136e-08
1.43441e-09
1.75442e-08
-7.92366e-09
-4.27776e-09
-1.33838e-08
8.16313e-10
1.40019e-08
-9.33631e-09
-2.55497e-09
-1.4925e-09
-6.42443e-09
-5.18208e-09
-6.7508e-09
-1.05092e-08
7.42158e-09
-6.8144e-09
-3.16215e-09
8.3922e-09
-4.67196e-09
1.2657e-10
-2.20748e-09
3.80502e-10
-1.14769e-08
4.72468e-09
-1.1095e-08
-1.96315e-09
2.20261e-09
3.56553e-09
5.73881e-09
-1.1507e-08
7.82106e-09
-8.31904e-09
-5.28069e-10
1.02602e-09
-8.48127e-09
5.28319e-09
5.40069e-09
-1.09887e-09
4.38647e-10
1.0338e-08
2.27911e-09
-1.71163e-09
-1.09056e-08
6.34406e-09
7.55948e-09
-6.11326e-09
3.65043e-09
8.80678e-09
-1.07232e-08
3.7601e-10
4.23383e-09
-6.97373e-10
1.34063e-08
-1.04298e-08
-1.93357e-09
1.90599e-09
-1.07418e-08
1.07694e-08
8.47793e-09
5.80394e-09
-6.75962e-09
-7.52228e-09
3.39342e-09
1.03677e-08
1.37482e-08
-6.70443e-09
-1.12883e-08
3.28652e-10
2.68867e-09
8.27094e-09
-6.69127e-10
-1.25528e-08
-1.31039e-08
7.29402e-09
1.67306e-08
-7.2675e-09
-1.67572e-08
7.29344e-09
-1.77294e-11
1.82924e-11
6.93287e-09
1.70912e-08
4.93469e-09
-2.47473e-09
-6.2804e-09
3.82048e-09
-6.12392e-10
-4.6232e-09
1.01703e-08
-4.6253e-09
-3.88156e-09
8.64798e-09
-1.41108e-10
-9.35049e-09
3.4299e-09
3.44589e-09
9.73518e-09
-5.52386e-10
1.93616e-09
-1.11189e-08
1.12216e-08
-6.35539e-10
-8.50891e-10
6.92394e-09
-9.31915e-09
-7.04553e-09
9.44075e-09
-2.75416e-09
5.82977e-09
1.39815e-09
-7.78027e-09
6.79323e-09
-1.59898e-09
4.95101e-10
1.29949e-08
1.77275e-09
-1.28315e-08
1.98809e-09
3.12622e-10
1.06942e-08
-5.42529e-09
1.17458e-08
-4.27191e-10
2.72795e-09
7.19196e-10
-6.5885e-09
1.02546e-08
-7.76259e-09
9.43899e-09
2.80366e-09
3.58652e-09
-3.7092e-09
1.26037e-08
-1.19137e-08
3.01928e-09
5.3852e-09
-8.98169e-09
-1.12721e-10
-1.82055e-08
8.89235e-09
3.97383e-09
5.33929e-09
-6.32394e-09
-6.27018e-09
-5.61137e-09
-2.90412e-09
-1.67161e-08
1.30732e-08
6.54708e-09
1.38547e-08
-2.05003e-08
3.74142e-09
-8.18701e-09
-1.2698e-09
1.79879e-09
7.65804e-09
-2.91846e-09
1.16653e-10
-8.40499e-09
1.08142e-08
6.48319e-09
-1.08252e-08
-4.98245e-10
8.9266e-10
1.04412e-08
-4.68548e-09
2.12234e-09
-9.35059e-09
-1.02151e-08
-3.45205e-09
1.12697e-09
8.07014e-09
2.2876e-09
-1.14847e-08
-9.58858e-09
-9.41461e-09
1.26792e-08
-1.47494e-08
-1.87074e-09
1.65502e-09
1.49651e-08
-3.21517e-09
2.32052e-09
-2.61285e-09
-1.1981e-08
-4.66652e-09
-1.84466e-08
1.20951e-08
3.07409e-10
1.23056e-08
-5.10352e-09
-6.46971e-09
7.48021e-10
-1.31281e-08
1.58566e-08
-1.38941e-08
-8.59899e-09
3.57047e-09
-1.14501e-09
6.17372e-09
1.08669e-08
1.90154e-09
1.1356e-09
-1.3904e-08
3.90673e-09
2.11673e-11
6.93913e-09
2.58519e-09
-9.28258e-09
-9.0674e-09
9.88433e-09
2.75359e-09
3.5387e-09
2.5305e-09
2.60178e-09
-8.67069e-09
2.37031e-09
-8.10257e-09
9.27106e-09
1.91647e-09
-5.98923e-09
6.60338e-09
-5.65367e-09
9.94049e-09
1.52252e-08
-1.608e-08
1.99043e-09
1.12932e-08
7.83879e-09
-7.34311e-09
8.60945e-10
-7.85018e-10
2.56679e-09
1.93254e-09
3.37155e-09
-1.06075e-08
6.8864e-09
1.54653e-09
-1.2939e-08
1.66803e-09
-2.28721e-09
9.87114e-09
-9.25196e-09
-4.35254e-09
3.66643e-09
-8.17186e-09
8.85797e-09
-4.61292e-09
4.99915e-10
5.78104e-09
-4.07966e-09
-5.16754e-10
-1.65009e-11
4.5685e-09
-2.06076e-09
-6.86028e-09
1.20481e-09
-7.15963e-10
-1.52517e-08
8.81697e-10
1.20828e-08
-4.89683e-09
-6.68847e-09
5.26081e-09
4.07185e-09
-1.13934e-08
5.78252e-10
-1.06325e-08
-1.99887e-09
1.20531e-08
-4.2298e-09
5.30795e-09
-1.7915e-09
-9.60009e-09
7.59105e-10
-5.23815e-09
-7.83145e-10
3.45003e-09
6.35244e-09
-4.54166e-09
-5.83322e-10
9.63021e-09
-1.04552e-08
-1.17071e-08
1.05899e-08
-1.76774e-09
-1.4799e-09
-3.84462e-09
1.94313e-08
-8.90785e-09
7.37925e-09
-1.79027e-08
2.1785e-08
-1.99674e-09
-3.56903e-10
-3.65252e-09
-1.30972e-08
9.50184e-09
1.24791e-08
5.65332e-09
-1.17877e-08
1.21908e-08
-2.39983e-09
8.1581e-10
-2.15113e-08
-1.03385e-09
-4.68406e-09
-8.15145e-09
-8.71842e-09
1.09953e-08
5.8746e-09
-1.31223e-08
1.34606e-09
3.62478e-09
-1.26758e-08
1.77438e-08
7.41111e-09
3.24688e-09
-1.01681e-08
-1.79725e-09
-1.14236e-08
1.54824e-09
-1.00969e-08
4.36066e-09
7.08227e-09
-6.98494e-09
-4.14576e-09
8.35667e-09
-1.45258e-08
7.88186e-10
-1.27317e-09
8.82474e-09
-1.18917e-08
-5.55128e-10
4.29681e-09
5.99963e-09
-1.34335e-09
5.04005e-09
-2.08013e-09
-2.14439e-09
-6.03168e-09
1.32161e-08
7.9052e-09
3.1501e-09
3.84122e-09
1.98386e-09
-5.35358e-09
7.05042e-09
4.52383e-09
1.07765e-08
1.82597e-09
1.21377e-08
-2.80573e-10
-5.31958e-09
1.67003e-08
6.2427e-09
-8.20191e-09
-1.78876e-09
1.09579e-08
-9.67238e-10
-1.03669e-08
-7.61895e-10
2.9269e-09
3.07453e-09
1.42144e-08
2.51363e-09
-1.98025e-08
2.38758e-09
-2.3808e-09
1.27736e-08
-1.14878e-08
-9.33151e-09
-3.42278e-09
-4.42952e-09
1.71838e-08
-1.00184e-08
1.00633e-08
-3.71314e-09
-1.74683e-08
6.13137e-09
1.50501e-08
-1.6251e-08
3.60641e-09
8.93145e-09
2.26658e-08
-2.52974e-08
1.23323e-10
5.07423e-09
1.14315e-08
1.40449e-08
-1.38286e-08
1.59382e-08
-3.3026e-09
-1.20398e-09
1.06541e-08
-1.22551e-08
5.20747e-09
2.27453e-09
1.77602e-08
-9.38058e-09
1.83194e-09
-1.03916e-08
1.4691e-08
1.12983e-08
3.31554e-09
-9.08657e-09
1.08209e-08
1.42038e-08
2.63144e-09
2.32691e-09
-3.42593e-09
1.78603e-08
3.53814e-09
-1.01358e-08
-9.86507e-09
4.53034e-09
-9.63017e-09
-1.13271e-09
6.27156e-10
5.91469e-09
-4.18031e-09
7.25813e-09
-8.99235e-09
3.56206e-09
7.41734e-10
1.61157e-09
-6.2667e-09
9.42427e-09
6.0065e-09
-9.164e-09
3.91196e-09
-1.43589e-08
6.85131e-09
-7.05717e-09
-5.78022e-09
2.76654e-09
8.24086e-09
-7.78625e-09
-1.58725e-09
-4.48234e-09
1.72536e-08
1.36719e-08
3.57662e-09
-9.99032e-09
8.37597e-09
8.85799e-09
9.68045e-10
2.94961e-09
-6.82385e-09
-1.12289e-08
1.51226e-08
-4.70262e-09
4.9209e-09
-1.00157e-08
-1.35685e-08
1.86633e-08
-6.6696e-09
2.42775e-08
9.72507e-09
2.95483e-09
-1.59778e-08
3.29782e-09
-1.58117e-08
-1.50567e-08
2.41988e-08
-1.97525e-08
1.36658e-08
-1.28231e-08
5.76222e-09
-1.68739e-08
1.2689e-08
3.25153e-09
-1.32524e-08
-5.97684e-09
5.72496e-09
-1.6546e-08
-8.07598e-09
-1.49565e-09
-8.70306e-09
-8.8661e-09
-6.38137e-09
-2.3417e-08
-8.64153e-09
-8.13755e-09
-2.41015e-08
-6.3082e-09
5.3046e-09
1.6978e-08
1.06795e-09
1.3161e-08
1.55053e-08
-2.52328e-08
5.50517e-09
1.60849e-08
-7.47613e-10
-6.65291e-09
1.05942e-08
-1.35621e-08
8.96225e-09
8.16255e-09
-5.63967e-09
-1.68014e-08
7.9589e-09
9.85248e-09
5.60931e-09
-7.41633e-09
-8.04543e-09
6.22931e-09
-1.23874e-08
-7.33527e-09
-6.85719e-09
-7.18953e-09
7.27085e-09
6.77588e-09
-4.78503e-09
1.48148e-09
-6.84829e-09
1.01518e-08
-3.17099e-09
-1.03556e-08
8.74156e-09
-3.86596e-09
-3.23037e-09
8.57781e-09
-2.32032e-09
-3.06241e-09
-1.47449e-09
5.17694e-09
-2.39345e-09
-5.10384e-09
-3.94444e-10
-5.49825e-10
6.12115e-09
8.19548e-11
-6.31537e-09
3.45999e-09
-5.77149e-09
-8.0042e-10
8.81638e-09
-3.72162e-09
-1.55076e-09
-3.54395e-09
-1.38258e-08
8.51833e-09
1.41239e-08
7.56557e-09
-1.24417e-08
9.48455e-09
1.25896e-08
-1.75786e-08
-9.31111e-09
1.43001e-08
1.66812e-08
-1.15425e-09
-2.93735e-09
3.09662e-09
2.76686e-09
1.08177e-08
1.67679e-08
-3.6625e-09
5.0117e-09
1.48529e-08
8.29594e-09
-2.28111e-09
9.21429e-09
-6.50088e-09
5.58255e-09
5.66627e-09
1.14343e-08
-1.43338e-08
-2.55934e-09
1.60894e-08
1.23212e-08
1.57113e-08
-2.58834e-08
1.70351e-09
8.46851e-09
1.75141e-08
1.24116e-08
-1.06765e-09
2.18834e-08
-3.30165e-09
-1.30731e-08
2.18481e-08
-1.61453e-08
7.3703e-09
-1.724e-08
-1.39784e-09
-7.24554e-09
1.54934e-08
-1.32617e-08
-1.15747e-08
9.34309e-09
1.92007e-09
-2.05495e-09
1.56283e-08
-2.88276e-09
1.58161e-08
-1.40009e-08
1.23245e-09
-1.87385e-08
4.24442e-09
1.22631e-08
-1.63502e-08
1.31623e-08
7.66465e-10
-1.66563e-09
-1.57849e-08
1.46694e-08
-1.76719e-09
-7.02536e-10
-1.92132e-08
5.92361e-09
-1.38029e-09
1.46699e-08
-1.16587e-08
-2.73607e-09
-4.81839e-09
1.66833e-08
-1.64774e-08
-1.18646e-08
-1.3082e-08
2.02468e-08
9.51847e-09
-1.30126e-08
5.28265e-09
-5.3521e-09
-4.06267e-09
-2.54273e-08
-1.21304e-08
4.29691e-09
3.85464e-09
3.97892e-09
-1.26921e-08
4.79731e-09
1.38184e-08
-9.54315e-09
-5.88498e-09
-6.13632e-09
-1.01615e-08
4.16738e-09
-1.0987e-08
-2.88781e-09
7.73849e-09
-1.64445e-09
-4.02596e-09
1.1399e-08
-5.72856e-09
5.58455e-09
1.3282e-08
5.54957e-09
4.59943e-09
-1.42117e-08
7.44978e-09
4.09523e-09
-8.08879e-09
5.57937e-10
-6.6242e-09
-4.11498e-09
-6.31409e-09
-4.72084e-09
9.90548e-09
9.80115e-11
-4.23638e-09
8.51691e-09
-1.57739e-09
2.96598e-09
3.01316e-09
4.60918e-09
-5.23894e-10
7.68932e-09
-3.49841e-09
9.0023e-09
-6.02777e-09
-1.73291e-09
4.77819e-10
1.73214e-09
-6.27203e-09
-8.53544e-09
1.30755e-08
1.20029e-08
-4.04494e-09
-6.22576e-09
-6.88934e-09
1.3554e-08
-1.29367e-08
1.95461e-09
1.22882e-08
-2.1132e-08
5.86034e-09
1.44612e-09
4.69649e-09
8.78949e-09
-1.08798e-08
-1.13949e-09
1.17806e-08
2.91302e-09
1.00532e-08
1.09539e-09
8.36676e-09
5.60094e-09
-2.18702e-09
7.06174e-09
-1.9691e-09
7.6781e-10
6.43613e-09
7.10996e-09
-6.48431e-09
-2.07767e-09
-5.26493e-09
1.37789e-08
-6.23003e-09
1.25192e-08
-6.9246e-09
1.71022e-08
-1.24258e-10
1.33134e-08
-1.14484e-08
-4.39231e-09
-1.27229e-08
1.18505e-08
6.47991e-09
-1.37859e-09
-1.5381e-09
-4.99626e-09
-4.37163e-09
1.0906e-08
-2.97473e-09
4.74197e-09
-3.30533e-09
1.94327e-09
-5.84427e-09
1.24372e-09
2.65727e-09
-2.82262e-09
6.07458e-09
-5.78974e-09
-7.61363e-12
4.71471e-09
2.68175e-09
-5.00472e-09
-3.5213e-09
-1.58816e-09
4.22425e-09
4.56561e-11
-3.72467e-09
-6.443e-09
4.37793e-09
-5.31521e-09
2.37787e-12
2.77723e-09
-6.17308e-10
-7.47512e-09
-5.84382e-09
-8.26287e-09
-7.04926e-09
8.06096e-09
-1.94844e-09
9.3679e-10
9.92807e-10
1.34711e-09
-9.3892e-09
1.57451e-09
7.79737e-09
-1.31097e-09
-3.93994e-09
5.29254e-09
2.21897e-10
3.7278e-09
-1.1444e-08
8.70909e-09
5.40432e-09
1.99269e-09
-6.04987e-09
1.62241e-09
-1.58055e-10
5.90683e-09
-6.14221e-09
-1.45387e-09
1.68927e-09
-2.43279e-09
-2.48533e-09
1.08249e-08
4.30585e-09
9.40761e-10
5.91951e-09
-1.11661e-08
5.80934e-09
1.01119e-08
-1.16154e-08
3.81961e-09
4.91851e-09
3.21843e-09
5.8937e-09
6.69272e-09
-2.43362e-10
-4.45668e-09
3.20958e-09
2.06092e-09
-7.61495e-09
2.34441e-09
-5.7686e-09
6.54538e-09
3.92078e-09
6.91272e-09
-4.14077e-09
5.35247e-09
1.90734e-10
2.83143e-09
-4.28175e-09
5.01487e-09
-3.83143e-10
9.5053e-09
-6.02085e-09
-5.0694e-09
5.11012e-09
-3.17907e-09
3.52044e-09
8.31454e-09
-1.32191e-08
1.38413e-09
1.62768e-08
-2.0436e-08
7.6796e-09
-3.12523e-09
1.09947e-08
4.45023e-10
-3.70155e-09
1.68531e-08
3.88999e-09
-3.30433e-09
-2.10216e-08
1.83016e-10
-9.51215e-09
1.60882e-08
-1.25758e-08
1.62045e-09
-5.13277e-09
1.3329e-08
-9.42337e-10
9.26687e-09
-2.23426e-09
-6.8496e-09
-3.34283e-09
1.28731e-09
1.13224e-08
-4.78651e-10
-1.54015e-08
1.26831e-08
-2.32519e-09
-1.25922e-08
1.23222e-08
-2.98195e-09
-8.50903e-09
8.36077e-09
-2.90336e-09
3.0516e-09
6.49382e-10
3.16379e-09
-1.39277e-08
1.11239e-08
4.52695e-09
3.62306e-09
6.48762e-09
5.39437e-09
8.27098e-09
8.14743e-09
-1.08806e-08
6.35634e-09
-4.32349e-09
-3.42011e-09
-2.72832e-09
-2.68683e-09
-5.38062e-09
-1.60038e-09
6.44406e-09
2.06972e-09
5.2181e-09
2.63176e-10
2.83338e-09
9.23754e-10
4.80766e-09
1.17399e-09
-1.33647e-09
-2.16455e-10
6.44142e-09
2.23789e-09
-8.46277e-09
4.95192e-09
1.83479e-09
-7.00312e-09
-3.01185e-09
-1.20018e-09
8.98061e-09
-5.55102e-09
2.77079e-10
4.78498e-09
-3.22723e-09
6.34338e-09
-3.82837e-09
1.99231e-09
-5.25894e-09
2.3972e-09
8.69631e-10
-5.48245e-09
7.71576e-09
-2.40867e-10
-1.01937e-08
9.70635e-10
5.67463e-09
3.54852e-09
-9.33271e-09
2.89411e-09
6.24434e-09
-6.71828e-09
3.50683e-09
9.8836e-09
-8.04156e-09
5.50504e-09
4.93378e-09
-8.29108e-10
7.29813e-09
-8.79625e-09
-4.65841e-09
-1.44969e-09
8.43217e-10
3.43189e-09
-4.08609e-09
-7.95549e-10
1.34858e-09
3.86147e-09
-4.01716e-09
-1.19292e-09
5.33413e-09
-2.78966e-09
-1.19591e-09
3.65548e-09
1.699e-10
-3.93487e-10
3.28309e-09
5.10849e-09
2.34833e-09
5.51222e-09
-3.9991e-09
3.05099e-09
-5.32769e-10
-2.55211e-09
7.51004e-09
-2.46043e-10
2.59518e-09
2.76332e-09
2.50287e-09
3.2622e-09
1.93627e-08
-2.18591e-08
1.11886e-08
-8.69221e-09
1.23647e-08
6.48748e-10
6.3492e-09
8.46621e-10
1.02433e-08
-6.35131e-09
-4.73867e-09
1.4182e-08
-6.82891e-09
-6.50648e-09
-9.52043e-09
2.12054e-08
9.10168e-09
-2.07867e-08
-2.43006e-08
1.64837e-08
-9.85629e-09
-1.09297e-08
-3.51463e-09
-8.54724e-09
2.01396e-08
7.72399e-10
1.14982e-08
-6.23845e-09
-1.3807e-08
-4.08772e-09
-1.29108e-08
1.44366e-08
2.56183e-09
-9.57343e-09
5.73312e-09
-2.47429e-10
-1.4096e-08
4.06104e-09
-2.87577e-09
-9.48744e-09
2.21453e-09
1.69457e-08
-2.67656e-09
-4.63159e-10
2.38832e-08
1.26886e-08
-1.23015e-08
-3.16001e-10
1.87377e-08
1.71505e-08
-1.59132e-09
8.32259e-10
1.27316e-08
8.72816e-10
-1.64361e-09
2.132e-08
1.63392e-08
4.23196e-09
5.23544e-09
-6.29574e-09
-3.17161e-09
-2.35175e-09
5.81787e-09
7.65867e-10
7.95957e-09
3.00797e-09
-3.44683e-09
-7.52072e-09
4.81578e-09
7.92086e-10
9.11354e-09
-5.11601e-09
7.44181e-09
6.48752e-09
2.6414e-09
4.60285e-09
-3.60813e-09
6.70897e-09
4.26497e-09
-8.4201e-10
1.81249e-09
6.47467e-09
5.81449e-11
-9.80068e-09
6.37071e-09
-9.46933e-09
8.33641e-09
-4.48689e-09
2.74778e-09
2.85358e-09
1.27398e-08
-4.24449e-09
-1.13488e-08
1.36758e-08
-4.9514e-09
-5.87076e-09
7.32765e-09
5.16395e-09
1.18434e-09
-1.16273e-08
1.16156e-08
-1.23853e-08
1.40067e-08
3.54258e-09
-1.29768e-08
9.10681e-09
1.04795e-08
-9.36684e-09
-6.64725e-09
-1.1281e-08
9.54776e-09
-2.04395e-08
-1.01628e-08
4.60594e-09
-5.10192e-09
4.04604e-09
-2.37201e-08
1.12411e-08
-2.19242e-09
1.46715e-08
1.32522e-09
-1.34885e-08
-1.15568e-08
-1.86853e-08
5.78698e-09
-6.88063e-09
1.3886e-08
-1.78266e-08
6.59164e-09
-3.0506e-09
6.65365e-10
-4.61779e-09
2.06271e-09
1.99676e-09
2.8963e-09
-6.76974e-09
5.9362e-09
-4.15366e-09
7.71534e-09
-7.08963e-09
-1.18223e-10
2.59011e-09
-5.73293e-09
-5.88848e-10
2.47323e-09
-6.7451e-09
-9.42148e-09
5.13469e-09
-1.27983e-09
-5.6734e-09
1.83529e-10
-5.52048e-09
-1.01529e-08
1.04892e-08
-8.73396e-09
-3.31129e-10
-7.18086e-09
1.54899e-09
-4.53789e-09
5.22219e-09
4.4703e-09
-3.00072e-09
-6.69167e-09
-2.93794e-09
-5.73762e-10
1.11018e-09
-4.30113e-09
7.66131e-09
-3.23074e-09
-2.83992e-09
-9.49551e-09
9.26495e-10
-1.58384e-09
-6.65754e-09
-5.77591e-09
4.19533e-09
-1.38536e-08
-7.6414e-09
8.60602e-09
-2.1737e-10
4.18474e-09
-8.07084e-09
4.10341e-09
-1.42848e-08
6.62216e-09
7.44527e-09
9.37279e-09
7.6769e-09
-1.16895e-08
-5.36028e-09
-1.2265e-08
7.35298e-09
-6.7062e-09
-2.12084e-09
-5.44294e-09
1.427e-08
-3.74702e-09
3.66295e-09
-4.25148e-09
-6.71599e-10
2.77636e-10
-5.18421e-11
-3.14993e-09
-9.06326e-09
-2.85011e-09
-8.8912e-09
-8.35842e-09
-3.98727e-09
6.90274e-09
-9.49597e-09
-2.60949e-09
-2.56824e-09
-5.82833e-09
4.14506e-09
1.0238e-09
-7.50856e-09
3.91649e-09
-8.282e-09
5.31853e-09
-2.74688e-09
7.43766e-09
-7.84072e-09
5.85686e-10
5.07571e-09
-8.4083e-09
-6.14881e-09
-3.5113e-10
4.79874e-09
-7.06319e-09
-2.73544e-09
-2.07491e-09
-2.69822e-09
-5.0201e-09
-5.99735e-09
-3.03638e-09
9.78061e-10
-2.98075e-09
-3.425e-09
-1.5472e-09
2.45394e-09
-3.10862e-09
2.20192e-09
1.86784e-09
-2.9571e-09
-4.57943e-10
-8.57732e-10
-2.85703e-10
3.59737e-09
-6.90975e-10
1.70107e-09
-3.81682e-09
-1.30421e-09
1.42571e-09
-2.55123e-09
-2.69131e-09
6.0866e-09
-2.58796e-09
1.53564e-09
-5.03429e-09
3.74781e-09
1.03457e-09
-1.30857e-09
-2.22809e-10
-7.81445e-10
-3.91934e-09
4.41503e-09
-4.03776e-09
2.56532e-09
-1.3798e-09
-4.26395e-09
1.60599e-09
-2.34565e-09
-3.42737e-10
3.73237e-10
-5.51243e-09
6.37304e-09
-1.5429e-09
-3.29454e-09
6.20152e-09
-1.84284e-09
-3.96402e-09
-3.81525e-09
-1.10109e-09
7.09286e-09
-9.16893e-10
-5.07487e-09
-3.69994e-09
4.10614e-09
-1.50729e-09
3.67163e-09
1.56312e-09
4.46587e-09
3.41111e-10
-7.0084e-10
-8.30958e-09
-4.89072e-09
6.31331e-09
6.88699e-09
-8.24258e-09
2.09065e-09
-2.15765e-09
-3.7692e-09
1.39305e-09
6.84204e-09
-2.01527e-09
5.33894e-09
3.90656e-09
-5.39094e-09
-6.7582e-09
-6.43043e-10
1.19647e-08
-4.25834e-09
4.97064e-09
-7.62077e-09
1.45402e-08
-1.28081e-08
4.29196e-09
1.00018e-08
7.73368e-09
-8.56265e-09
-9.17289e-09
-2.2718e-09
1.14968e-08
7.76885e-10
-1.16671e-08
-1.22665e-08
1.43815e-08
9.55209e-09
-1.56087e-08
1.66989e-09
-7.31806e-09
6.26204e-09
-9.61742e-10
1.37732e-09
-3.46214e-10
-1.05198e-08
1.08064e-08
5.96374e-11
-8.66303e-09
8.21231e-09
1.04533e-10
5.22408e-09
-5.48497e-09
-8.40218e-09
-1.8642e-09
-3.43155e-09
1.10173e-09
1.30462e-08
9.12118e-09
-2.32691e-08
-1.29459e-08
-1.82423e-08
2.01219e-09
3.96365e-09
-2.08048e-08
1.79398e-09
-9.39599e-09
1.65815e-09
5.94389e-09
-6.24316e-09
3.48263e-09
4.55455e-09
5.3612e-09
1.88937e-09
9.92449e-09
1.16258e-08
-4.36883e-09
4.24203e-09
-1.20161e-09
6.71707e-09
-4.49553e-09
-1.01993e-09
6.36502e-09
-4.74928e-09
-2.81729e-09
-3.87318e-09
-3.36828e-09
-1.65082e-09
8.89236e-09
-1.0553e-09
3.54727e-09
-2.69523e-09
6.04401e-09
1.92649e-09
-1.08228e-08
4.14706e-09
4.6018e-09
-7.17083e-09
3.32788e-09
2.19427e-09
-6.57734e-09
-3.8888e-09
5.56589e-09
1.76607e-09
1.40518e-10
-2.41862e-09
2.95925e-10
1.14641e-08
-1.59604e-09
1.21733e-09
-1.10854e-08
1.18901e-08
-2.65443e-09
2.22844e-09
1.13837e-08
6.5442e-10
-1.48059e-10
-3.18147e-10
-2.50838e-10
1.19527e-08
8.48709e-10
-7.79712e-09
8.58567e-09
-1.63728e-09
-5.33379e-09
6.69767e-09
-5.15148e-10
-1.00404e-08
-4.11152e-10
-6.5949e-10
-1.0977e-08
-1.45241e-08
-5.95165e-10
1.48012e-08
-1.42684e-08
3.98635e-10
6.37205e-09
5.83194e-10
-7.61473e-09
1.79037e-09
-7.52111e-10
4.63578e-09
9.53232e-09
-8.37327e-09
-5.79482e-09
7.00233e-09
-5.76171e-10
-7.26485e-10
9.06133e-09
-5.16396e-10
6.48758e-09
-2.46265e-10
-1.28048e-08
-8.82755e-09
1.00503e-08
5.77955e-09
2.45721e-09
-1.75244e-09
-1.55145e-08
-4.27879e-10
1.53472e-08
-1.24753e-08
-5.82013e-10
1.45489e-09
-9.24497e-09
-1.12666e-08
9.10607e-09
-5.54289e-09
-9.2375e-09
2.90518e-09
1.18752e-08
-9.61511e-09
2.74502e-09
1.32719e-09
6.53411e-09
-7.35285e-09
-4.15055e-10
1.23378e-09
-6.11838e-09
5.21501e-09
7.43747e-09
5.07367e-09
-6.50445e-09
-5.9221e-09
-1.20264e-09
1.57927e-10
3.21515e-09
-8.89182e-09
-3.93843e-09
-7.5585e-09
1.53617e-09
1.33635e-08
-5.24335e-09
-7.68617e-09
-2.87388e-10
1.93462e-09
2.00605e-10
-8.63971e-09
6.171e-09
1.71381e-09
-5.95019e-09
5.06688e-09
-9.85106e-11
3.1397e-09
-1.06253e-08
7.70665e-09
-5.58074e-10
-5.43477e-09
5.85325e-09
6.92029e-09
-6.31022e-09
1.56275e-08
-4.58389e-09
-1.05376e-08
-5.06001e-10
1.10095e-08
4.47649e-09
1.41513e-10
-3.73658e-09
-1.21963e-08
1.1349e-08
8.99903e-09
1.19282e-08
-9.91782e-09
-1.78082e-08
1.09277e-08
1.84896e-08
-1.16091e-08
-5.08554e-09
-1.84903e-08
5.76761e-09
2.51713e-09
1.02302e-08
-1.64839e-08
8.29255e-09
-1.0861e-08
8.96483e-09
-8.98229e-09
1.02477e-08
-4.48421e-09
-3.65448e-09
1.71377e-08
-4.84909e-09
1.10679e-08
-1.0703e-08
1.47455e-08
2.51185e-09
3.18819e-09
6.70826e-09
1.04614e-08
1.34924e-08
8.06082e-09
-1.66211e-08
-4.93218e-09
7.7431e-09
1.29162e-08
-7.1669e-09
2.05051e-09
-6.25151e-09
1.32561e-08
-1.45793e-09
-3.73746e-09
8.28503e-09
-6.24414e-09
-7.7564e-09
1.24572e-08
1.37152e-08
-4.536e-09
1.13632e-08
2.32595e-09
1.1046e-08
1.5955e-08
-1.14881e-08
-2.14093e-09
5.74155e-09
7.35232e-09
-4.38874e-09
-8.70509e-09
5.98728e-09
-3.9991e-09
3.75338e-09
4.98795e-09
-4.96787e-09
1.74663e-10
-1.9471e-10
-1.55868e-09
6.15175e-09
2.09669e-09
-6.68975e-09
3.11187e-09
-4.8835e-09
2.12958e-10
5.2664e-09
8.01019e-09
-8.2886e-09
3.68596e-09
1.35317e-09
2.27309e-10
6.06547e-09
2.04422e-09
-9.9459e-11
5.26696e-09
4.48449e-09
-8.13299e-09
2.55349e-09
1.15668e-08
1.26356e-09
1.37815e-09
3.33987e-09
-8.7171e-09
4.34787e-09
1.17189e-10
-2.41024e-09
1.02307e-08
3.73743e-09
3.79248e-09
5.67507e-09
-1.26968e-08
-2.33209e-09
6.70389e-09
8.32509e-09
-4.35408e-09
-5.5403e-10
-7.78872e-09
9.30945e-09
6.23024e-09
-9.90374e-10
-1.45493e-08
1.11395e-09
-3.96249e-09
1.2158e-08
-1.23173e-08
6.49498e-09
3.49024e-09
-1.04412e-08
8.05088e-09
-3.07765e-09
-5.52722e-09
-6.51042e-09
5.26445e-09
7.94987e-09