/*--------------------------------*- C++ -*----------------------------------*\
| =========                 |                                                 |
| \\      /  F ield         | OpenFOAM: The Open Source CFD Toolbox           |
|  \\    /   O peration     | Version:  v1612+                                |
|   \\  /    A nd           | Web:      www.OpenFOAM.com                      |
|    \\/     M anipulation  |                                                 |
\*---------------------------------------------------------------------------*/
FoamFile
{
    version     2.0;
    format      ascii;
    class       volVectorField;
    location    "206";
    object      wallShearStress;
}
// * * * * * * * * * * * * * * * * * * * * * * * * * * * * * * * * * * * * * //

dimensions      [0 2 -2 0 0 0 0];

internalField   uniform (0 0 0);

boundaryField
{
    WALL
    {
        type            calculated;
        value           nonuniform List<vector> 
1702
(
(-0.00300744 0.00571558 0.0123531)
(-0.00377435 0.00571836 0.0116529)
(-0.015002 0.00144143 0.0110842)
(-0.0157101 0.00172785 0.0121242)
(-0.0152592 0.00156097 0.0110544)
(-0.0156826 -0.00067927 0.0118126)
(-0.0149928 0.00199805 0.00782167)
(-0.0129298 9.81051e-05 0.00805595)
(-0.0157938 -1.684e-06 0.0134861)
(-0.0160133 -0.0034807 0.0131946)
(-0.0103776 0.0125596 0.0131447)
(-0.00875665 0.0130565 0.012114)
(-0.00975501 0.0162872 0.00966244)
(-0.00197047 0.00660506 0.0116204)
(-0.00218987 0.00905436 0.0126213)
(-0.00360656 0.00977024 0.0104604)
(-0.00497635 0.0135432 0.0121498)
(-0.00644082 0.00203963 0.0107008)
(-0.006754 0.00315642 0.011179)
(-0.00691381 0.00414379 0.0111558)
(-0.00508296 0.0063838 0.0112622)
(-0.00968564 0.0121196 0.0125706)
(-0.00939721 0.0116553 0.010398)
(-0.00851998 0.0108302 0.0108947)
(-0.008391 0.0101027 0.0102425)
(-0.0129084 0.0100299 0.00310367)
(-0.0105733 0.012039 0.00537361)
(-0.0109261 0.0104962 0.00443648)
(-0.0135003 0.015704 0.0071863)
(-0.0112048 0.0135052 0.00691459)
(-0.0126942 0.00478261 0.0160061)
(-0.013184 0.00458086 0.0132169)
(-0.012224 0.0139652 0.0153998)
(-0.0129799 0.0132645 0.0160357)
(-0.01354 0.0148768 0.0159843)
(-0.0142024 0.0149121 0.0164062)
(-0.0130183 0.0124023 0.0164131)
(-0.0139652 0.0134993 0.0167952)
(-0.0176072 0.0227036 0.0137449)
(-0.0167143 0.0211373 0.0138283)
(-0.0179887 0.0209798 0.0140694)
(-0.0168199 0.0183448 0.0128005)
(-0.0175063 0.0199149 0.0124506)
(-0.0188712 0.0226492 0.0139513)
(-0.00523508 0.0140858 0.0123873)
(-0.00667691 0.0158727 0.0129371)
(-0.00710258 0.0164313 0.0131964)
(-0.00509375 0.0145755 0.0133413)
(-0.00401384 0.0135977 0.0133776)
(-0.00423214 0.0134638 0.013284)
(-0.00161363 0.0113281 0.0136885)
(-0.000417734 0.0098416 0.0148043)
(-0.00179171 0.0121287 0.0143948)
(-0.000574132 0.010009 0.0137056)
(-0.000935778 0.0105915 0.0140916)
(-9.56356e-06 0.0095822 0.0144605)
(-0.00894929 0.00424325 0.0232381)
(-0.0104411 0.00210788 0.0234145)
(-0.0109456 0.00250893 0.0236439)
(-0.00991277 0.00399848 0.0228753)
(-0.00915158 0.00179555 0.0227099)
(-0.00802682 0.00139755 0.0227244)
(-0.011304 0.00767772 0.020704)
(-0.0124181 0.00913239 0.0191358)
(-0.0118755 0.00819522 0.0212911)
(-0.0134191 0.00848663 0.0215087)
(-0.0130926 0.00823338 0.0189392)
(-0.0113635 0.00803662 0.0190693)
(-0.00435901 0.00629107 0.0200253)
(-0.00469024 0.00713968 0.0197506)
(-0.00419344 0.00671642 0.0179887)
(-0.00295436 0.00599394 0.0191665)
(-0.00336934 0.00567565 0.0201946)
(-0.00533466 0.00748396 0.0192924)
(-0.00869913 -0.00922576 0.022168)
(-0.00725454 -0.00828764 0.0193264)
(-0.00878343 -0.00814703 0.0181714)
(-0.00967672 -0.00981581 0.0183643)
(-0.00634414 -0.0100734 0.0205325)
(-0.00937736 -0.00850853 0.0193407)
(-0.0140284 -0.004824 0.0126912)
(-0.0153505 -0.00436713 0.0128288)
(-0.0154022 -0.00169025 0.013253)
(-0.015241 -0.00489695 0.0142064)
(-0.0151794 -0.00458078 0.0147421)
(-0.0138844 -0.00285054 0.0119253)
(-0.0147813 0.00312883 0.0163855)
(-0.0133925 0.00516419 0.018134)
(-0.0127464 0.00574717 0.0180475)
(-0.0139093 0.00221841 0.0126685)
(-0.0145886 0.00278938 0.0148808)
(-0.0137887 0.00385136 0.0171636)
(0.000312607 0.00731196 0.0143875)
(0.00110869 0.00784739 0.0154804)
(0.00229758 0.00651923 0.0173311)
(0.00193469 0.00645952 0.0165823)
(0.00146357 0.00717203 0.016004)
(0.00147311 0.00720543 0.0163566)
(-0.00504068 0.00935306 0.0110609)
(-0.00604511 0.0104093 0.0120764)
(-0.00735194 0.0101191 0.0119189)
(-0.00633452 0.0106306 0.0119638)
(-0.00795307 0.0107702 0.0124121)
(-0.00515435 0.00960678 0.0115263)
(-0.0113845 0.0145491 0.00808446)
(-0.0106365 0.0126235 0.00603406)
(-0.0122625 0.01615 0.0086086)
(-0.00984265 0.0130522 0.00766931)
(-0.0129145 0.0163505 0.00979864)
(-0.0128532 0.0152418 0.00683906)
(-0.0113912 0.0132092 0.00784081)
(-0.0102994 0.0134076 0.0105734)
(-0.0125869 0.0153254 0.0111604)
(-0.011935 0.0143189 0.00924271)
(-0.00958014 0.0122969 0.00971823)
(-0.0123033 0.0153428 0.0108375)
(-0.0117534 0.0160948 0.00884106)
(-0.0124028 0.017091 0.00944972)
(-0.011324 0.0150192 0.00989789)
(-0.0125125 0.0165955 0.010825)
(-0.0121991 0.0164983 0.00905567)
(-0.0122744 0.0165663 0.0109642)
(-0.0117434 0.0149188 0.013575)
(-0.00982599 0.012904 0.0116321)
(-0.0119901 0.0153401 0.012426)
(-0.0096542 0.0123379 0.0124483)
(-0.0119989 0.0159713 0.0108496)
(-0.0133018 0.016055 0.014231)
(-0.0121848 0.0156208 0.0118045)
(-0.0137704 0.00678526 0.00274384)
(-0.0143186 0.00763379 0.00295521)
(-0.0141068 0.00616407 0.00367561)
(-0.0144745 0.00762923 0.00366358)
(-0.0138124 0.00556222 0.00353285)
(-0.01421 0.00693849 0.00367859)
(-0.012546 0.00921443 0.00394421)
(-0.0127539 0.0109029 0.00429023)
(-0.0122334 0.0102498 0.0041497)
(-0.0132551 0.00984122 0.00403285)
(-0.0133019 0.00864243 0.00350258)
(-0.0132953 0.0105491 0.00372924)
(-0.0137944 0.00868068 0.00238541)
(-0.0133815 0.0112497 0.00391483)
(-0.0135099 0.00880405 0.00265613)
(-0.0125044 -0.00165934 0.0114006)
(-0.012833 -0.000510057 0.0113525)
(-0.0140215 -0.00127131 0.0106427)
(-0.0134276 -0.000581705 0.0109656)
(-0.0121789 -0.00148572 0.00952424)
(-0.0122744 -0.00206171 0.0119612)
(-0.00678909 0.015536 0.0123717)
(-0.00842992 0.0166622 0.0116778)
(-0.0100858 0.0183538 0.0121327)
(-0.0085243 0.016776 0.0123666)
(-0.0072682 0.0157261 0.0124272)
(-0.0100073 0.018409 0.0125246)
(-0.00934027 0.00968215 0.0117107)
(-0.00815745 0.00997399 0.0139335)
(-0.0080656 0.00891461 0.00997932)
(-0.00795376 0.00993213 0.0112819)
(-0.00855898 0.0102664 0.01138)
(-0.00728975 0.00887077 0.0118901)
(-0.00918337 0.00929652 0.00821244)
(-0.0108818 0.0112165 0.0115628)
(-0.00923737 0.0109359 0.0122558)
(-0.0101954 0.010354 0.00973903)
(-0.0104538 0.0117319 0.0129093)
(-0.00454976 0.0125712 0.0133022)
(-0.00312027 0.0113165 0.0130814)
(-0.00318203 0.0113256 0.0121617)
(-0.00408524 0.0132036 0.013445)
(-0.00227781 0.0120962 0.0142327)
(-0.00184825 0.0115335 0.0138005)
(-0.00151118 0.00558986 0.0132614)
(-0.00332698 0.00589952 0.0123131)
(-0.00215216 0.00586211 0.011944)
(-0.00108324 0.0068866 0.0141435)
(-0.000540882 0.00592235 0.0137114)
(-0.0029712 0.00577002 0.011762)
(-0.002488 0.00573061 0.0124814)
(-0.00344018 0.00611229 0.0117086)
(-0.00423894 0.00953003 0.0121441)
(-0.00529467 0.00834664 0.0113886)
(-0.0052484 0.00682638 0.0110727)
(-0.00380465 0.00775868 0.0117026)
(-0.00612322 0.00724361 0.0112876)
(-0.00302618 0.00895467 0.012024)
(-0.00784339 0.00237462 0.0119062)
(-0.00618214 0.00409147 0.010969)
(-0.00710152 0.00262596 0.0113772)
(-0.00734173 0.00374035 0.0115644)
(-0.00938328 0.00198735 0.0127935)
(-0.0110472 0.000421597 0.0149329)
(-0.0112426 -0.000871012 0.0157077)
(-0.00964787 0.00131533 0.0138407)
(-0.0097854 0.00181199 0.0137148)
(-0.0103705 0.000168779 0.0153974)
(-0.0111377 0.00218523 0.0142867)
(-0.0118473 0.00366521 0.0151207)
(-0.0109162 0.0036301 0.0136543)
(-0.0121102 0.00452014 0.0149128)
(-0.0112303 0.00229542 0.015352)
(-0.0111257 0.00237419 0.0138903)
(-0.0118897 -0.00111747 0.0212993)
(-0.0115275 0.000730737 0.017247)
(-0.0112046 -0.0003098 0.0180362)
(-0.011112 -0.0021977 0.0198386)
(-0.0122051 -0.000657416 0.0180283)
(-0.0105444 -0.000902414 0.0174575)
(-0.0126967 0.00118227 0.0195978)
(-0.0134613 0.0010174 0.0202729)
(-0.0132818 0.00325373 0.0178977)
(-0.0126838 0.00252872 0.0164429)
(-0.0127593 0.00164901 0.0181601)
(-0.0124489 0.00116102 0.017488)
(0.00020368 0.00951529 0.0157497)
(-0.000331226 0.0100531 0.014805)
(0.000501925 0.0082554 0.0154719)
(0.000123111 0.0100432 0.0146014)
(0.000276094 0.00865789 0.0145556)
(0.000631241 0.00832181 0.0156795)
(-0.00225893 0.00936003 0.0127502)
(-0.00114336 0.00951547 0.0135132)
(-0.00312186 0.00890519 0.0114544)
(-0.000169161 0.00815395 0.0129691)
(-0.00121249 0.00850057 0.0129079)
(-0.00243233 0.00874275 0.0117758)
(0.00640675 -0.000287298 0.0241628)
(0.0055656 0.00154911 0.022466)
(0.00502252 0.000552902 0.0230622)
(0.00451781 0.0023806 0.0229813)
(0.00533172 -0.00102687 0.0249318)
(0.00593082 -0.00152748 0.024464)
(0.00238466 0.0056032 0.0184061)
(-5.9558e-05 0.00521898 0.014557)
(0.00139374 0.00577053 0.0160976)
(-0.00240369 -0.0103095 0.0237498)
(0.000159451 -0.00885793 0.025557)
(-0.001734 -0.0090308 0.0237504)
(0.00328234 -0.00551275 0.0250122)
(0.00287359 -0.00696361 0.0253961)
(0.00458358 -0.00643699 0.0263193)
(0.00407594 -0.00414037 0.0256442)
(0.00380506 -0.00763284 0.0256207)
(0.00481154 -0.00470059 0.0249651)
(0.00035299 -0.00414043 0.0227376)
(0.00244045 -0.00314855 0.0238253)
(0.00112269 -0.00417961 0.0246475)
(0.00105413 -0.00264204 0.0233104)
(-0.000384718 -0.00519808 0.0232622)
(-0.000648154 -0.00526136 0.0238925)
(0.000828409 -0.00570126 0.0246368)
(0.00097057 -0.00735147 0.0251709)
(0.00165046 -0.00617336 0.0243083)
(6.31921e-05 -0.00701247 0.0235058)
(-0.00120468 -0.00749968 0.023981)
(-0.000297139 -0.00833271 0.0242014)
(0.00461891 -0.000711368 0.0235834)
(0.00424399 -0.00205054 0.0254677)
(0.00283426 -0.00322126 0.025242)
(0.00368156 -0.00208943 0.0238352)
(0.00361506 -0.00023549 0.0238952)
(0.00334854 -0.00353858 0.0247228)
(0.00280808 -0.000483403 0.0215169)
(0.00348938 0.00182584 0.0197452)
(0.00238278 0.000822376 0.0202929)
(0.00249764 -0.00058891 0.022005)
(0.00239117 0.00207167 0.0196477)
(0.00308864 0.00100807 0.0219201)
(-0.0130839 0.00449802 0.0123312)
(-0.0143988 0.00453067 0.0122397)
(-0.0132286 0.00552395 0.0127315)
(-0.0151509 0.0032146 0.0131848)
(-0.0160817 0.00183685 0.0129776)
(-0.0147857 0.00248727 0.0106232)
(-0.0153085 0.00031776 0.0110396)
(-0.0144989 0.0028639 0.0111475)
(-0.00815567 0.0072474 0.0190183)
(-0.0108567 0.00745025 0.0199008)
(-0.0108068 0.00642633 0.0179008)
(-0.00968442 0.00761918 0.0195543)
(-0.00914078 0.00658702 0.018072)
(-0.0146451 5.11829e-05 0.0138781)
(-0.0149091 -0.00141955 0.0140847)
(-0.0147903 0.000586392 0.0133066)
(-0.0152161 -0.00127564 0.0130904)
(-0.0152665 -0.000722979 0.0148096)
(-0.0147496 0.00149173 0.0137349)
(-0.00807929 -0.00999075 0.018827)
(-0.00828007 -0.0110472 0.0183355)
(-0.00981381 -0.00951314 0.0201451)
(-0.0100193 -0.00949497 0.0181738)
(-0.00790671 -0.011386 0.0193726)
(-0.0119101 -0.0069338 0.0145914)
(-0.0113621 -0.00683957 0.0164994)
(-0.0138865 -0.00589703 0.0164839)
(-0.0135576 -0.00684357 0.0165034)
(-0.0117899 -0.00728012 0.0170333)
(-0.0109761 -0.00723768 0.0172947)
(-0.0115915 0.00914669 0.0149991)
(-0.0122368 0.00862613 0.0138675)
(-0.0132741 0.0065575 0.0126281)
(-0.0122432 0.00780469 0.0138803)
(-0.0113448 0.00805239 0.0136442)
(-0.0126045 0.00669404 0.0116631)
(-0.0154197 0.000709167 0.00991095)
(-0.0148571 -0.00213292 0.0104268)
(-0.0150887 -0.000130058 0.00929929)
(-0.0148185 -0.00052196 0.0101483)
(-0.0154019 0.000920491 0.011424)
(-0.0160872 -0.0007995 0.011739)
(-0.015485 0.000828669 0.0110141)
(-0.0160798 -0.00158375 0.0119102)
(-0.01454 0.00441915 0.0104265)
(-0.0139138 0.0052784 0.0108285)
(-0.0143928 0.00361853 0.010786)
(-0.0137144 0.00396717 0.00949996)
(-0.0142565 0.00353062 0.0102373)
(-0.0146842 0.00292322 0.0106882)
(-0.0104993 0.0123553 0.0108226)
(-0.0107516 0.0118845 0.00937409)
(-0.00992607 0.0112545 0.0092424)
(-0.011304 0.0111899 0.00861593)
(-0.0104285 0.0119531 0.00933652)
(-0.01078 0.0108829 0.008031)
(-0.0143264 0.00203234 0.00540922)
(-0.0149421 0.0025207 0.00730746)
(-0.013348 0.00351097 0.00561429)
(-0.0141398 0.00249782 0.0064274)
(-0.014261 0.00436143 0.0057755)
(-0.0148227 0.00228105 0.00637099)
(-0.0113066 0.00496864 0.0221483)
(-0.011489 0.0048317 0.0211899)
(-0.011976 0.00499519 0.0212381)
(-0.0104972 0.00575068 0.0201253)
(-0.00974636 0.00392913 0.0219335)
(-0.0103326 0.00600116 0.0219313)
(-0.0112899 0.00224614 0.0210603)
(-0.0106737 -0.00146177 0.0194752)
(-0.00947338 -0.000603419 0.0212703)
(-0.0113487 -0.00210023 0.0227309)
(-0.0106933 -4.27453e-05 0.0225819)
(-0.00899162 -0.00170245 0.0219585)
(-0.00854075 -0.00249405 0.0247227)
(-0.00922397 -0.00386458 0.020783)
(-0.00779215 -0.00333033 0.0242118)
(-0.00839343 -0.00356564 0.0223513)
(-0.00927134 -0.00332832 0.023179)
(-0.00959634 -0.00288663 0.0220747)
(-0.00372184 0.0127493 0.0132566)
(-0.00528565 0.0123738 0.0124327)
(-0.00731857 0.0152153 0.0134742)
(-0.00523425 0.0148453 0.0135372)
(-0.00695957 0.0139542 0.0128908)
(-0.00378683 0.0139044 0.01393)
(-0.00377092 0.0130933 0.0132102)
(-0.00268338 0.0120126 0.0132084)
(-0.00307108 0.0127376 0.0138192)
(-0.00405503 0.0132144 0.0129)
(-0.00204845 0.0115779 0.0138397)
(-0.00167289 0.0113411 0.0140533)
(-0.00843992 0.0157445 0.0124189)
(-0.00950989 0.015974 0.0122287)
(-0.00672585 0.0149961 0.0125997)
(-0.0096652 0.0166727 0.0126293)
(-0.0079119 0.0162846 0.0128811)
(-0.00677712 0.0151535 0.0124461)
(-0.00135486 0.00442834 0.0131797)
(-0.00141554 0.00512871 0.0128709)
(-0.00176953 0.00632674 0.0127864)
(-0.000772834 0.00629883 0.0130792)
(-0.000749064 0.00606318 0.0140451)
(-0.000893797 0.00492109 0.0134626)
(-0.00025149 0.00578596 0.0154811)
(-0.000999816 0.00499342 0.0153583)
(-0.000831889 0.00384451 0.0158317)
(8.46283e-05 0.00459219 0.0155079)
(-0.000863921 0.00616421 0.0153098)
(0.000508989 0.00341852 0.015772)
(0.000921961 0.00486534 0.0176421)
(0.000758727 0.00462871 0.017542)
(0.0011076 0.00256728 0.019006)
(0.000877629 0.00413072 0.0193263)
(0.000257132 0.00282904 0.0191248)
(0.000396548 0.00351744 0.0173508)
(-0.0074225 0.0154777 0.0109155)
(-0.0089866 0.015795 0.00957936)
(-0.00743546 0.0142883 0.0100361)
(-0.00598106 0.0119823 0.00949653)
(-0.00680214 0.0136152 0.00974907)
(-0.0117831 0.0191313 0.0106112)
(-0.00423033 0.00328311 0.00864767)
(-0.0056637 0.00217063 0.00973018)
(-0.00532537 0.00143912 0.0100477)
(-0.00476871 0.00180732 0.00999086)
(-0.00392683 0.00233094 0.00811684)
(-0.00419616 0.00145981 0.0083457)
(-0.00413193 0.00274524 0.00856371)
(-0.0149943 0.0174767 0.0128503)
(-0.0174456 0.0198394 0.0143833)
(-0.0137083 0.0175792 0.0135744)
(-0.0135073 0.0179878 0.0131423)
(-0.0123833 0.0169799 0.0128775)
(-0.0155666 0.0183976 0.0138478)
(-0.0127953 0.0190346 0.0120923)
(-0.00970457 0.0179748 0.0130125)
(-0.0151769 0.0221127 0.013701)
(-0.0137597 0.0199585 0.0134334)
(-0.0106981 0.0194016 0.0134911)
(-0.0110539 0.0173473 0.012514)
(-0.0176483 0.0205521 0.0127273)
(-0.0183091 0.0228618 0.0134754)
(-0.019981 0.0247297 0.0135749)
(-0.0189144 0.0238761 0.0141579)
(-0.00143091 -0.000196675 0.018781)
(-0.000218761 0.00137867 0.0196694)
(8.48896e-05 0.00207172 0.0175512)
(-0.000424984 -0.000232049 0.0191111)
(-0.00102666 0.000794566 0.0177137)
(-0.000421051 0.00159226 0.0172836)
(-0.00160619 0.00329479 0.014531)
(-0.00188933 0.00254892 0.0148223)
(-0.00231851 0.00188662 0.0160582)
(-0.00132583 0.0013547 0.0161916)
(-0.0016416 0.00302552 0.0161052)
(-0.00141417 0.00373739 0.0145678)
(-0.00751013 -0.00687493 0.0211926)
(-0.0091417 -0.00696188 0.0203188)
(-0.00819652 -0.00828203 0.0183605)
(-0.00733704 -0.0086303 0.0205554)
(-0.00667012 -0.00751695 0.0207868)
(-0.00920969 -0.00787315 0.0186395)
(-0.00278336 -0.00357558 0.0221952)
(-0.00210172 -0.00224596 0.0201887)
(-0.0035361 -0.0035807 0.020505)
(-0.00268744 -0.00263006 0.0209541)
(-0.003686 -0.00470639 0.0217841)
(-0.00437138 -0.0046302 0.021473)
(-0.0115063 -0.00208398 0.012268)
(-0.0122619 -0.00220151 0.0115906)
(-0.0125166 -0.00201515 0.0124705)
(-0.0120584 -0.00236115 0.0103158)
(-0.0135697 -0.00224844 0.0116386)
(-0.0138116 -0.00166768 0.011285)
(-0.012948 -0.00393988 0.0135874)
(-0.0137059 -0.00387406 0.0134635)
(-0.0120719 -0.00437032 0.0149588)
(-0.0124384 -0.00370043 0.0146623)
(-0.010984 -0.00496841 0.0147488)
(-0.0132539 -0.00434512 0.0133687)
(-0.0119036 -0.0042329 0.0126788)
(-0.0121498 -0.00299712 0.0133164)
(-0.0126279 -0.00313688 0.0129619)
(-0.0120383 -0.00378183 0.0117225)
(-0.0130265 -0.00219614 0.0117789)
(-0.0129642 -0.00220588 0.0110559)
(-0.00452732 -0.00213594 0.0181373)
(-0.00359508 -0.00154522 0.0172565)
(-0.002226 -0.000417859 0.0175195)
(-0.0031742 -0.0027866 0.0187423)
(-0.00290246 -0.000515983 0.0172303)
(-0.00288905 -0.00132625 0.0194158)
(-0.00465839 -0.000675684 0.0158965)
(-0.00346153 0.00137288 0.0142953)
(-0.00389362 -0.000446345 0.0153813)
(-0.00346339 0.000989149 0.0162679)
(-0.00244647 0.00107491 0.014918)
(-0.00424167 0.000515985 0.0148943)
(-0.00999857 -0.00259072 0.0149261)
(-0.0109165 -0.00354147 0.0134064)
(-0.0103262 -0.00380077 0.014164)
(-0.00878985 -0.00325396 0.0146881)
(-0.0114011 -0.00295444 0.0147497)
(-0.00978043 -0.00404645 0.0152948)
(-0.00234599 0.0040509 0.0105717)
(-0.00234487 0.00441412 0.0103277)
(-0.00310797 0.00466095 0.00978053)
(-0.00290845 0.00357703 0.00970422)
(-0.00285009 0.00310348 0.010365)
(-0.0026124 0.00347315 0.0105643)
(-0.00441389 0.000143566 0.013381)
(-0.00334789 0.00172228 0.0132424)
(-0.0036311 0.00199335 0.0118371)
(-0.00457822 0.00137386 0.0122639)
(-0.00372196 0.000572305 0.0134791)
(-0.00315928 0.00220003 0.0120808)
(-0.011365 -0.00162783 0.0129853)
(-0.00989181 -0.00216064 0.0133969)
(-0.0100371 -0.00200891 0.0122448)
(-0.0108947 -0.00298811 0.0141555)
(-0.00934192 -0.00150437 0.0140078)
(-0.0103426 -0.00219027 0.0148563)
(-0.00377369 0.00227322 0.0103815)
(-0.00355014 0.00289017 0.00941237)
(-0.0039325 0.00318465 0.00959629)
(-0.00497949 0.000983027 0.0116891)
(-0.00425978 0.00199213 0.00977988)
(-0.00431012 0.0014769 0.0111505)
(-0.0115484 -0.00146624 0.0126998)
(-0.0108463 -0.000880997 0.0113368)
(-0.00991246 -0.00138305 0.0123289)
(-0.0119422 -0.00142177 0.012387)
(-0.00970604 -0.00113585 0.0127656)
(-0.0106258 -0.000774481 0.0125974)
(-0.00200482 0.00599472 0.012204)
(-0.00180934 0.0056727 0.0114679)
(-0.0017252 0.00515943 0.0116476)
(-0.00245486 0.00792338 0.0119964)
(-0.00170287 0.00713769 0.0116499)
(-0.00180043 0.00707693 0.0126817)
(-0.00288722 0.00791197 0.0116086)
(-0.00264904 0.00653115 0.0109231)
(-0.00285385 0.00844961 0.01116)
(-0.00266972 0.00616045 0.0102335)
(-0.00241707 0.00643425 0.0100622)
(-0.00271768 0.00777736 0.0106559)
(-0.0099987 0.0103786 0.00657243)
(-0.0113289 0.0125481 0.00774123)
(-0.011524 0.0123196 0.00747867)
(-0.00974917 0.0118732 0.00845959)
(-0.00969297 0.0108867 0.00730104)
(-0.0112083 0.0111759 0.00620437)
(-0.0148615 0.0027912 0.00603426)
(-0.0143382 0.00395787 0.00463657)
(-0.014789 0.00471422 0.00477772)
(-0.014364 0.00311441 0.00560579)
(-0.0150201 0.0044003 0.00528538)
(-0.0150013 0.00350021 0.00559888)
(-0.0148389 0.00314221 0.00529087)
(-0.0154363 0.00503582 0.0045934)
(-0.0151874 0.00389386 0.00509087)
(-0.0154239 0.00543736 0.00415363)
(-0.0123765 0.0111482 0.0179392)
(-0.0130465 0.0111015 0.0188429)
(-0.0133468 0.01001 0.0194996)
(-0.0120156 0.0105703 0.0180466)
(-0.0140392 0.0130701 0.0182521)
(-0.0135768 0.0103188 0.0184796)
(-0.0132878 0.016579 0.0127361)
(-0.013333 0.015697 0.0141164)
(-0.0141672 0.0163593 0.0148718)
(-0.0132337 0.0166514 0.013362)
(-0.013553 0.0165154 0.0135282)
(-0.0146898 0.0172184 0.0141423)
(-0.00198475 0.00433546 0.0124872)
(-0.00247894 0.00321428 0.0118975)
(-0.00205093 0.0036724 0.0131471)
(-0.00249363 0.00431495 0.0122221)
(-0.00281494 0.00300243 0.0129973)
(-0.00218784 0.00279728 0.0132464)
(-0.0156562 0.000925602 0.00999324)
(-0.015064 0.00153445 0.00961971)
(-0.0152535 -0.000741026 0.0108448)
(-0.0157446 0.00298774 0.010809)
(-0.0154396 -0.000904554 0.00975751)
(-0.0162891 -0.00123278 0.0117808)
(-0.0151653 -0.00112836 0.00957979)
(-0.0138203 0.000743074 0.00818395)
(-0.0148373 0.00127076 0.00781002)
(-0.0152706 0.000194738 0.00843611)
(-0.0147745 0.00294458 0.00799765)
(-0.0140134 0.00196846 0.00756131)
(-0.0154369 0.000559856 0.00928011)
(-0.0144091 0.00129249 0.00776232)
(-0.0137032 -0.000647788 0.00863334)
(-0.000746574 -0.00101793 0.0206249)
(-0.000852423 -0.00267036 0.0207544)
(0.000309346 -0.00317801 0.0209336)
(0.00108545 -0.00174418 0.0216011)
(0.00131229 -0.000410974 0.0204324)
(-0.00016863 0.000359225 0.0203224)
(-0.00569729 -0.00542857 0.0227398)
(-0.00420775 -0.00614108 0.0244956)
(-0.0063508 -0.00635755 0.0229229)
(-0.00521214 -0.00531675 0.0257825)
(-0.00531542 -0.00637803 0.0229909)
(-0.00610254 -0.00608171 0.021632)
(-0.00170087 -0.00595342 0.0236926)
(-0.00327535 -0.00808377 0.0239443)
(-0.00378992 -0.00790604 0.0247367)
(-0.00123472 -0.00710384 0.0250166)
(-0.00213141 -0.00817332 0.0244906)
(-0.00269572 -0.00630791 0.0241286)
(-0.00513544 0.0063118 0.0209576)
(-0.00532694 0.00647859 0.0218137)
(-0.00646623 0.00716029 0.0197052)
(-0.0039209 0.00597929 0.0221697)
(-0.0051571 0.00667673 0.0199812)
(-0.00716134 0.00744472 0.0202491)
(-0.00149967 0.00413824 0.0215529)
(-0.00119238 0.00349472 0.0216821)
(0.000101498 0.00125175 0.0226704)
(-0.00183666 0.00282696 0.0236201)
(-0.00208837 0.0041911 0.022892)
(-0.00043726 0.0022245 0.0238691)
(-0.0117107 -0.00851378 0.0189506)
(-0.0119601 -0.00746519 0.0179591)
(-0.0124904 -0.00592044 0.0156782)
(-0.0124102 -0.0078061 0.0184203)
(-0.0120296 -0.00725363 0.015326)
(-0.0135385 -0.006677 0.0158546)
(-0.0142266 -0.00404417 0.0142779)
(-0.0155657 -0.00356018 0.0135314)
(-0.0152923 -0.00467569 0.0157822)
(-0.0138712 -0.00627603 0.0146051)
(-0.0153445 -0.00311167 0.0138517)
(-0.00731392 0.00879378 0.0170711)
(-0.00678253 0.00865249 0.0159645)
(-0.00993066 0.00973393 0.0164715)
(-0.00921753 0.00986345 0.0182504)
(-0.00831479 0.008825 0.0138504)
(-0.0103152 0.00932469 0.0150046)
(-0.00938571 0.0108478 0.0157208)
(-0.00989142 0.0106239 0.0143262)
(-0.00771132 0.0103851 0.0159911)
(-0.00705247 0.00898291 0.0131386)
(-0.010774 0.010764 0.0134103)
(-0.00683224 0.00923675 0.0134111)
(-0.0122093 0.0157014 0.00630156)
(-0.0128403 0.0165974 0.00731427)
(-0.0105294 0.013104 0.00529806)
(-0.0129759 0.0153329 0.00471113)
(-0.00967793 -0.00579855 0.0182285)
(-0.00912796 -0.00616781 0.0202262)
(-0.00884158 -0.0063618 0.0185878)
(-0.00793517 -0.00785424 0.0201274)
(-0.0179303 0.0195914 0.0151615)
(-0.0191477 0.0209776 0.0150475)
(-0.0149656 0.0135473 0.0132428)
(-0.0162322 0.0172714 0.0138788)
(-0.0149908 0.0145932 0.0136223)
(-0.0162807 0.0152942 0.0143132)
(-0.0173915 0.0149748 0.0149993)
(-0.0175518 0.0164354 0.0144611)
(-0.0188867 0.016645 0.0164492)
(-0.0178316 0.015002 0.0149822)
(-0.0169718 0.00947381 0.0182185)
(-0.0144186 0.0103662 0.0175932)
(-0.0169939 0.0104226 0.0182698)
(-0.0151568 0.0104172 0.017551)
(-0.0159875 0.0119166 0.016152)
(-0.0188231 0.0146588 0.0177672)
(-0.0184275 0.0125922 0.018806)
(-0.0159644 0.0137429 0.0143682)
(-0.0153121 0.01467 0.0140936)
(-0.0170641 0.0115019 0.0163383)
(-0.015623 0.00990673 0.015287)
(-0.017111 0.0134154 0.0161063)
(-0.0176676 0.0112533 0.0156931)
(-0.0163243 0.0149474 0.0159258)
(-0.0151151 0.0125568 0.0137929)
(-0.0183089 0.0135481 0.0172221)
(-0.0167218 0.0137246 0.0157094)
(-0.018328 0.0147686 0.0153167)
(-0.0174905 0.0165104 0.0153698)
(-0.0170977 0.0165433 0.0161441)
(-0.017247 0.0140477 0.016687)
(-0.0143415 0.0118379 0.0172909)
(-0.0145566 0.0128103 0.0166806)
(-0.0159583 0.0142255 0.0173966)
(-0.0167035 0.0133753 0.018877)
(-0.0158981 0.0128865 0.0173839)
(-0.016615 0.0122276 0.0169133)
(-0.017774 0.0134429 0.0179303)
(-0.0163962 0.0129964 0.0169029)
(-0.0171385 0.0116514 0.0196193)
(-0.0178459 0.0122809 0.0196463)
(-0.017403 0.0186937 0.0150235)
(-0.0175378 0.019766 0.0151884)
(-0.0187451 0.0157015 0.0155746)
(-0.0186258 0.0184734 0.0155937)
(-0.0182715 0.0161307 0.0156513)
(-0.0198046 0.0176778 0.0171538)
(-0.0192432 0.0173118 0.0160682)
(-0.0186772 0.0199314 0.0152608)
(-0.0177364 0.0173291 0.0149348)
(-0.018171 0.018471 0.0155647)
(-0.0180054 0.0180803 0.0149709)
(-0.0179481 0.0187484 0.0145364)
(-0.0180009 0.0173286 0.0133395)
(-0.0180145 0.0183304 0.0134842)
(-0.0186288 0.020255 0.0147211)
(-0.0178076 0.0176675 0.0139221)
(-0.0186721 0.0208906 0.0144756)
(-0.0185525 0.0186972 0.0144261)
(-0.0182435 0.0213352 0.0143956)
(-0.0176943 0.0173092 0.0144152)
(-0.0190855 0.0186422 0.0152056)
(-0.0180991 0.0187434 0.0143005)
(-0.0146063 0.0144825 0.0167606)
(-0.0186453 0.0163466 0.0176827)
(-0.0181362 0.0178458 0.0158371)
(-0.0170026 0.015105 0.0171515)
(-0.0174118 0.0188252 0.0156589)
(-0.017467 0.0173452 0.015584)
(-0.0168672 0.0167645 0.0156217)
(-0.0165487 0.0170132 0.0157741)
(-0.0158612 0.0158025 0.0168725)
(-0.0158599 0.0159175 0.0164573)
(-0.0156218 0.015947 0.0162743)
(-0.0162296 0.0169867 0.0160945)
(-0.0161388 0.0190955 0.0147741)
(-0.017048 0.0184559 0.0157257)
(-0.0170694 0.0179649 0.0159991)
(-0.0159895 0.0180895 0.0151666)
(-0.0161053 0.0169555 0.0158026)
(-0.01486 0.0101618 0.0187712)
(-0.016139 0.0131708 0.0197699)
(-0.0122414 -0.000877105 0.0100865)
(-0.0125942 0.000153845 0.00927019)
(-0.0146775 0.00111494 0.0102347)
(-0.0138263 0.00487262 0.00421449)
(-0.0152487 0.00310486 0.00561794)
(-0.0142883 0.00625245 0.00433142)
(-0.0135723 0.00438499 0.00416439)
(-0.0131946 0.00393472 0.00460615)
(-0.0121235 0.00884098 0.00604919)
(-0.0108922 0.0105438 0.00637929)
(-0.010995 0.00902997 0.00487313)
(-0.0114052 0.00962711 0.00671823)
(-0.00999999 0.00992572 0.00698246)
(-0.0110123 0.00938608 0.00580738)
(-0.0111375 0.00760341 0.00502093)
(-0.012427 0.00691966 0.00466453)
(-0.0110369 0.00828664 0.00485622)
(-0.0133527 0.00683705 0.00525877)
(-0.0140726 0.00626532 0.00516707)
(-0.012951 0.00683766 0.00429318)
(-0.0127724 0.00847806 0.00523149)
(-0.0128607 0.00918848 0.005073)
(-0.0141408 0.0061853 0.00378804)
(-0.0137238 0.00780591 0.00503738)
(-0.0134636 0.00762629 0.00431433)
(-0.0137739 0.00706711 0.00377372)
(-0.0137489 0.00552336 0.00406508)
(-0.0135645 0.00619651 0.00442479)
(-0.0066998 0.000759518 0.0117406)
(-0.00546103 0.000357909 0.0115283)
(-0.00803866 -0.000159706 0.0126289)
(-0.00892896 -6.91069e-05 0.0110944)
(-0.00862024 -0.000406267 0.0123326)
(-0.00500188 0.000821822 0.0123834)
(-0.00560705 7.3615e-05 0.0139742)
(-0.00301305 0.0106037 0.0125315)
(-0.00405226 0.0111515 0.012123)
(-0.003243 0.00879593 0.010447)
(-0.00379209 0.0085813 0.0100784)
(-0.00309779 0.00691179 0.00961317)
(-0.00295914 0.00599474 0.00947239)
(-0.00267073 0.00488651 0.0090284)
(-0.00284481 0.00296073 0.0116861)
(-0.00319679 0.0025443 0.010575)
(-0.00301763 0.00427256 0.00858485)
(-0.00282312 0.00477372 0.00910728)
(-0.0034216 0.00386557 0.00924546)
(-0.0029359 0.00530886 0.00960605)
(-0.00277857 0.00578843 0.0109307)
(-0.00211341 0.00453923 0.0111868)
(-0.0139853 -0.00498565 0.0154342)
(-0.0142152 -0.00423604 0.0149971)
(-0.0117357 -0.00549342 0.0137869)
(-0.0130332 -0.00588144 0.0136575)
(-0.0124267 -0.00467612 0.0137899)
(-0.0132691 -0.00495254 0.0137858)
(-0.0117694 -0.00529225 0.0155062)
(-0.0117124 -0.00534091 0.0149208)
(-0.010965 -0.00611424 0.0154024)
(-0.0112988 -0.00605142 0.0162336)
(-0.0103672 -0.00624602 0.0174389)
(-0.0117741 -0.00618 0.0156353)
(-0.0128253 0.00532589 0.00748735)
(-0.0139582 0.00502233 0.00771506)
(-0.0117712 0.00965051 0.0115852)
(-0.0119633 0.00919424 0.0113118)
(-0.0123563 0.00794745 0.00991708)
(-0.0130645 0.00574148 0.00765088)
(-0.0119292 0.00525696 0.00657349)
(-0.0125594 0.00790708 0.00977512)
(-0.0109779 0.00693247 0.00917974)
(-0.0106816 0.0077639 0.0115301)
(-0.0116398 0.00678143 0.00996523)
(-0.0104673 0.00796298 0.00983447)
(-0.00873323 0.00776884 0.0106669)
(-0.0101288 0.00967739 0.0120578)
(-0.0101706 0.00829106 0.01019)
(-0.00717381 0.00821616 0.011911)
(-0.0123287 0.00634347 0.00938921)
(-0.0133498 0.00691242 0.00968888)
(-0.0118923 0.00691973 0.00951377)
(-0.011874 0.00607789 0.0091248)
(-0.0131552 0.003861 0.00723188)
(-0.0134082 0.00494234 0.00828122)
(-0.0135673 0.00550797 0.00974748)
(-0.0143419 0.00455206 0.0091316)
(-0.0153098 0.00288226 0.0092175)
(-0.0154209 0.00315059 0.00903702)
(-0.00677821 -0.00202941 0.0148266)
(-0.00794844 -0.00183453 0.0151346)
(-0.00922363 -0.00262022 0.0149604)
(-0.00796803 -0.00229133 0.0156353)
(-0.00893267 -0.00383187 0.0157342)
(-0.00276114 0.00173083 0.0133687)
(-0.00562622 -0.00146733 0.0165135)
(-0.00505483 -0.000669875 0.0148088)
(-0.00473745 0.000549447 0.0153303)
(-0.00629443 -0.00113751 0.0162666)
(-0.0104618 -0.00368915 0.0166296)
(-0.00458469 -0.00127258 0.0170353)
(-0.00277067 0.000553101 0.0165787)
(-0.00534261 -0.00331862 0.0176359)
(-0.00435233 -0.00339455 0.0200224)
(-0.00601446 -0.00420211 0.0179511)
(-0.00506808 -0.00417996 0.0183378)
(-0.00624721 -0.00421474 0.0187497)
(-0.00970734 -0.00492221 0.0169214)
(-0.00710751 -0.00486309 0.0172543)
(-0.00838105 -0.00473331 0.0177933)
(-0.0141725 -0.0026642 0.0128647)
(-0.0138493 -0.00339471 0.0115806)
(-0.0137445 -0.00229457 0.0101747)
(-0.0134464 -0.00570624 0.012668)
(-0.0138189 -0.00344685 0.0122365)
(-0.0132633 -0.0040959 0.0125344)
(-0.0140582 -0.0021219 0.0123991)
(-0.0136041 -0.00263226 0.0103737)
(-0.0145673 -0.00178774 0.00992108)
(-0.014905 -0.00161508 0.0110117)
(-0.00850492 -0.00644841 0.0185326)
(-0.00866422 -0.00565073 0.0186828)
(-0.00775074 -0.00504226 0.0180118)
(-0.01027 -0.00527614 0.0163728)
(-0.00941551 -0.005464 0.0171325)
(-0.0109456 -0.00539158 0.0180926)
(-0.0117391 -0.00505453 0.0159991)
(-0.00966343 -0.00631727 0.0182163)
(-0.01051 -0.00552791 0.0173745)
(-0.011056 -0.00443983 0.0152851)
(-0.0108439 -0.00329292 0.0139686)
(-0.0140102 -0.00431405 0.0124199)
(-0.0135716 -0.00294283 0.0120027)
(-0.0144169 -0.00225173 0.0122543)
(-0.0114018 -0.00360458 0.0139466)
(-0.0133652 -0.00300357 0.0124553)
(-0.0118319 -0.0049376 0.0132519)