/*--------------------------------*- C++ -*----------------------------------*\
| =========                 |                                                 |
| \\      /  F ield         | OpenFOAM: The Open Source CFD Toolbox           |
|  \\    /   O peration     | Version:  v1612+                                |
|   \\  /    A nd           | Web:      www.OpenFOAM.com                      |
|    \\/     M anipulation  |                                                 |
\*---------------------------------------------------------------------------*/
FoamFile
{
    version     2.0;
    format      ascii;
    class       volVectorField;
    location    "118";
    object      wallShearStress;
}
// * * * * * * * * * * * * * * * * * * * * * * * * * * * * * * * * * * * * * //

dimensions      [0 2 -2 0 0 0 0];

internalField   uniform (0 0 0);

boundaryField
{
    WALL
    {
        type            calculated;
        value           nonuniform List<vector> 
1542
(
(0.0107048 -0.00994365 -0.0186741)
(0.00605042 -0.0158271 -0.0252753)
(0.00640205 -0.0166506 -0.0234947)
(0.0100143 -0.004093 -0.0136659)
(0.00945742 -0.00405123 -0.0118914)
(0.0149006 -0.00824939 -0.0214697)
(0.0151567 -0.0102962 -0.0222382)
(0.0108245 -0.00320244 -0.0148973)
(0.0105357 -0.00341649 -0.0132149)
(0.00780265 -0.00449088 -0.010298)
(0.00697771 -0.00414143 -0.00878664)
(0.00702012 -0.00403881 -0.00867539)
(0.0118045 -0.00873385 -0.0187144)
(0.0108345 -0.00998906 -0.0190436)
(0.0150819 -0.0163564 -0.0217235)
(0.00342779 -0.00359392 -0.00527885)
(0.00340901 -0.00375855 -0.0062952)
(0.0133013 -0.00469078 -0.0224189)
(0.0135375 -0.00654963 -0.0235216)
(0.0135699 -0.016401 -0.0214422)
(0.014627 -0.0159878 -0.0225301)
(0.0130158 -0.00893186 -0.0196923)
(0.0127866 -0.00793414 -0.0193892)
(0.00920548 -0.0156052 -0.0245082)
(0.00686276 -0.0141815 -0.0246352)
(0.00258049 -0.00424439 -0.00472823)
(0.00235384 -0.00490944 -0.0068828)
(0.00533063 -0.00362126 -0.00566133)
(0.00748085 -0.0037218 -0.0073584)
(0.0123352 -0.00209905 -0.0127317)
(0.0101875 -0.00279257 -0.00984621)
(0.0118414 -0.0021364 -0.0122331)
(0.00882509 -0.00314952 -0.0091401)
(0.0112139 -0.00316089 -0.013598)
(0.0101218 -0.0033288 -0.0114106)
(0.00914977 -0.00618849 -0.0164641)
(0.00898802 -0.00544389 -0.0167303)
(0.0110527 -0.00951383 -0.0190866)
(0.0101055 -0.00906527 -0.0177294)
(0.0152325 -0.000399593 -0.0199931)
(0.0144943 -0.00143683 -0.0165008)
(0.0108742 -0.00283735 -0.0116271)
(0.0106152 -0.00297436 -0.0117698)
(0.0151819 -0.0121199 -0.0212462)
(0.0150601 -0.0115888 -0.0220493)
(0.0142337 -0.00999116 -0.0203423)
(0.0144545 -0.00959662 -0.0210867)
(0.0166336 -0.0124892 -0.02276)
(0.0164218 -0.0105368 -0.0228753)
(0.0127389 -0.00668996 -0.0203785)
(0.0136715 -0.00508298 -0.021262)
(0.00688767 -0.0103949 -0.027507)
(0.00665071 -0.0115015 -0.0274513)
(0.00676504 -0.0101103 -0.028992)
(0.0070918 -0.0100553 -0.0280491)
(0.00655875 -0.011497 -0.0267228)
(0.00664083 -0.0123463 -0.0270227)
(0.012068 -0.00683254 -0.0189394)
(0.0111784 -0.0058978 -0.0186591)
(0.0115121 -0.00543543 -0.0184481)
(0.0120122 -0.00724948 -0.0188647)
(0.0118218 -0.00709955 -0.0191295)
(0.0114048 -0.00632419 -0.0189216)
(0.0099565 -0.0117112 -0.0209438)
(0.0096855 -0.0114818 -0.0209231)
(0.00967788 -0.0111122 -0.0204378)
(0.00981746 -0.0116183 -0.0209837)
(0.00982506 -0.0117217 -0.0220075)
(0.010363 -0.0117521 -0.0216212)
(0.00344751 -0.00323247 -0.0051607)
(0.00350275 -0.00321579 -0.005322)
(0.00330479 -0.00311989 -0.00519734)
(0.00364812 -0.00325189 -0.00545874)
(0.00363029 -0.00326437 -0.00533663)
(0.00347852 -0.0031601 -0.00512943)
(0.00370084 -0.00329729 -0.00516617)
(0.00414404 -0.00339284 -0.00566865)
(0.0038529 -0.00335419 -0.00550546)
(0.00376033 -0.00328395 -0.00526813)
(0.00358581 -0.00318114 -0.00521572)
(0.003855 -0.00321718 -0.00530684)
(0.00741713 -0.00395826 -0.00880107)
(0.00833118 -0.00385826 -0.0097551)
(0.00740407 -0.00381358 -0.00868697)
(0.00686541 -0.00385705 -0.00824797)
(0.00849901 -0.00367783 -0.00972427)
(0.00871682 -0.00386654 -0.0102922)
(0.00959027 -0.0100416 -0.018085)
(0.0101872 -0.0109462 -0.0195297)
(0.0102201 -0.00947775 -0.0179423)
(0.00683608 -0.00374388 -0.0157905)
(0.00679553 -0.0036483 -0.0168206)
(0.00756036 -0.00371553 -0.0163383)
(0.00850674 -0.00517217 -0.017171)
(0.006649 -0.00406352 -0.01511)
(0.00793037 -0.00485912 -0.0172544)
(0.00714404 -0.0148193 -0.0229674)
(0.00963915 -0.0164283 -0.0237381)
(0.00929804 -0.0159896 -0.0243977)
(0.00924018 -0.0160048 -0.0239773)
(0.00871792 -0.0162417 -0.023629)
(0.0138248 -0.0148773 -0.0220998)
(0.0134377 -0.0145191 -0.0215099)
(0.0148505 -0.0146723 -0.023134)
(0.015049 -0.0138494 -0.0229531)
(0.0147671 -0.0147237 -0.0226214)
(0.0140868 -0.0141027 -0.0215073)
(0.00928344 -0.00809486 -0.024258)
(0.0106646 -0.00631945 -0.0248069)
(0.0101803 -0.00477818 -0.0250948)
(0.00947882 -0.00666883 -0.0233907)
(0.00806258 -0.0057339 -0.0230061)
(0.00939005 -0.00714213 -0.0235156)
(0.0129903 -0.00129273 -0.0175096)
(0.0136812 -0.0011628 -0.0207189)
(0.0134511 -0.00177158 -0.0202504)
(0.0125238 -0.000934893 -0.018706)
(0.0124252 -0.00238362 -0.0175568)
(0.0128456 -0.00232834 -0.0169638)
(0.00860194 -0.00577331 -0.0156173)
(0.00765408 -0.00593781 -0.0147585)
(0.0100309 -0.00793317 -0.0173136)
(0.0100985 -0.00759687 -0.0176956)
(0.00965916 -0.00754872 -0.0170903)
(0.00950365 -0.0063165 -0.0166056)
(0.00944571 -0.00727422 -0.0171904)
(0.0078101 -0.00353121 -0.00842352)
(0.00886353 -0.00358958 -0.00970204)
(0.00792373 -0.0035718 -0.00845908)
(0.00856382 -0.00380514 -0.00968616)
(0.00712933 -0.00347386 -0.00773202)
(0.00905863 -0.00362412 -0.0100743)
(0.00444559 -0.00338642 -0.00586273)
(0.00513863 -0.00337836 -0.00601497)
(0.00614907 -0.00359589 -0.00709832)
(0.0049007 -0.00364057 -0.00611255)
(0.00574878 -0.00354655 -0.00665857)
(0.00564482 -0.00358634 -0.00656056)
(0.00989083 -0.00313637 -0.0101855)
(0.0123063 -0.00252845 -0.0146815)
(0.0118917 -0.00219581 -0.0144428)
(0.0112309 -0.00284584 -0.0122639)
(0.0114159 -0.00285135 -0.0137016)
(0.011431 -0.00279025 -0.0125657)
(0.0131886 -0.00156943 -0.0200941)
(0.0129979 -0.00101758 -0.0179433)
(0.0133531 -0.00102102 -0.0201113)
(0.014082 -0.00160364 -0.0187104)
(0.0145269 -0.000422619 -0.0192996)
(0.0132512 -0.00165369 -0.0214787)
(0.0114687 -0.00118539 -0.020992)
(0.0103146 -0.00258441 -0.0211638)
(0.0104228 -0.00295909 -0.022713)
(0.0121326 -0.00139686 -0.0215476)
(0.0123414 -0.00193446 -0.0227107)
(0.0112541 -0.00199397 -0.0220857)
(0.00955367 -0.00311338 -0.00950665)
(0.00821498 -0.00274663 -0.00751155)
(0.0073373 -0.00359714 -0.00746106)
(0.0081219 -0.00350307 -0.00826857)
(0.0103105 -0.00305516 -0.0104511)
(0.0126254 -0.00160075 -0.0133067)
(0.0140958 -0.00147974 -0.016199)
(0.013406 -0.00189203 -0.014182)
(0.0116671 -0.00223836 -0.0118107)
(0.0146968 -0.0013848 -0.0173844)
(0.0152971 -0.00062603 -0.0184417)
(0.0146647 -0.00119558 -0.0172245)
(0.0142273 -0.00169089 -0.0149268)
(0.012761 -0.00196497 -0.0130081)
(0.01361 -0.00154033 -0.0143909)
(0.00400974 -0.00359599 -0.00463182)
(0.00598283 -0.00370471 -0.00604157)
(0.00529833 -0.00350785 -0.00544114)
(0.00422083 -0.0034427 -0.00475962)
(0.0043331 -0.00349541 -0.00522553)
(0.00552269 -0.00359329 -0.0060917)
(0.00480919 -0.0032606 -0.00522275)
(0.00403804 -0.00333496 -0.00489961)
(0.00544859 -0.00347659 -0.00589284)
(0.00451103 -0.00346005 -0.00537788)
(0.00386825 -0.00351261 -0.00471149)
(0.00408478 -0.00338732 -0.00494523)
(0.00430052 -0.00329335 -0.00464847)
(0.00504697 -0.00353337 -0.0057037)
(0.00581147 -0.00357496 -0.00602053)
(0.00325896 -0.00348237 -0.0039752)
(0.00332733 -0.00322536 -0.00405669)
(0.00340182 -0.00340453 -0.00432824)
(0.00330594 -0.0034358 -0.0038853)
(0.00327017 -0.00331518 -0.00401329)
(0.00329908 -0.0034703 -0.00416513)
(0.00363261 -0.0032699 -0.00479255)
(0.0037571 -0.0032977 -0.00466892)
(0.00356542 -0.00335918 -0.00443789)
(0.00358912 -0.00327199 -0.00473001)
(0.00354593 -0.00330261 -0.0045999)
(0.00355144 -0.0032726 -0.00444375)
(0.00264004 -0.00434855 -0.00648847)
(0.00293405 -0.00388696 -0.00449254)
(0.00291618 -0.00401937 -0.00514805)
(0.00274328 -0.00415069 -0.00608911)
(0.00253507 -0.00395308 -0.00523542)
(0.00296283 -0.00377248 -0.00432004)
(0.00357807 -0.00316295 -0.00465614)
(0.00345574 -0.00328547 -0.00430304)
(0.00346184 -0.00337666 -0.00430341)
(0.0034797 -0.00333371 -0.00445487)
(0.0037223 -0.0033709 -0.00466359)
(0.00343171 -0.0032137 -0.0044897)
(0.00294808 -0.00398376 -0.00421301)
(0.00297295 -0.00376882 -0.00392017)
(0.00244083 -0.00445146 -0.00555972)
(0.00264678 -0.00422833 -0.00494939)
(0.00295796 -0.00402834 -0.00406958)
(0.00375337 -0.00340314 -0.00464264)
(0.00356157 -0.00343695 -0.00412978)
(0.0034917 -0.00332307 -0.00426788)
(0.00357993 -0.00338099 -0.0043483)
(0.00348383 -0.00328086 -0.00400054)
(0.00371854 -0.00334902 -0.0044708)
(0.0083211 -0.00536232 -0.0274929)
(0.00942874 -0.00782749 -0.0286684)
(0.0074744 -0.00796383 -0.0265989)
(0.00747219 -0.00842122 -0.0270586)
(0.0084493 -0.00484686 -0.0275429)
(0.00749369 -0.0077365 -0.0279235)
(0.0154072 -0.000300885 -0.0233283)
(0.0146461 -1.00459e-06 -0.0242724)
(0.0153439 -0.000272243 -0.0214977)
(0.0151659 -2.33392e-05 -0.022364)
(0.0145108 -0.000806359 -0.0263897)
(0.0156647 -0.000401188 -0.0260778)
(0.011217 -0.00303665 -0.0283957)
(0.0106273 -0.00126013 -0.0278724)
(0.0113255 -0.00142765 -0.0259708)
(0.01321 -0.00164957 -0.0280365)
(0.0123102 -0.00101537 -0.0245762)
(0.00993677 -0.00147843 -0.0282168)
(0.0103394 -0.00812766 -0.0225495)
(0.0106877 -0.00796926 -0.0227272)
(0.00990249 -0.00633817 -0.0211173)
(0.00957271 -0.00663308 -0.0216888)
(0.0100208 -0.0084392 -0.0221402)
(0.0097653 -0.00672871 -0.0201387)
(0.00932944 -0.00322495 -0.0234016)
(0.0101237 -0.00643587 -0.0240246)
(0.00906741 -0.00554556 -0.0255632)
(0.00857461 -0.00381114 -0.0234836)
(0.0101698 -0.00436 -0.0234945)
(0.00999094 -0.00564645 -0.0273671)
(0.0107029 -0.0119378 -0.0219388)
(0.0105044 -0.0117486 -0.021867)
(0.00994812 -0.0113179 -0.0203794)
(0.0104019 -0.0116536 -0.0207424)
(0.0106501 -0.0118464 -0.0211484)
(0.0100647 -0.0115146 -0.0215063)
(0.00809775 -0.0141591 -0.0262735)
(0.00790265 -0.013608 -0.0231919)
(0.0078315 -0.013287 -0.0245009)
(0.00783339 -0.0143011 -0.0246163)
(0.00770586 -0.0133007 -0.0250013)
(0.00882273 -0.0154847 -0.0254387)
(0.0107186 -0.0122932 -0.0208982)
(0.0101858 -0.0120571 -0.0212791)
(0.0114012 -0.0121013 -0.0210304)
(0.0114314 -0.0123181 -0.0215598)
(0.0108753 -0.0125371 -0.0218904)
(0.0112047 -0.0121915 -0.0217457)
(0.00999743 -0.0144161 -0.0240095)
(0.00825407 -0.0130142 -0.0239323)
(0.00972723 -0.0140926 -0.0236905)
(0.00902643 -0.0133426 -0.0240411)
(0.00853563 -0.0136617 -0.0245512)
(0.00838864 -0.0138641 -0.0238189)
(0.00997623 -0.014968 -0.0235797)
(0.00929361 -0.0144537 -0.0222744)
(0.0103905 -0.0147774 -0.0224228)
(0.0104719 -0.0152084 -0.0226728)
(0.00932741 -0.0151921 -0.0232942)
(0.00952529 -0.0156504 -0.0229519)
(0.0129895 -0.0137147 -0.0212597)
(0.01379 -0.0130887 -0.0214883)
(0.0129943 -0.0122916 -0.0202493)
(0.013216 -0.0141623 -0.0221373)
(0.0123267 -0.0127751 -0.0202843)
(0.0122628 -0.0119534 -0.0210093)
(0.0113825 -0.0118246 -0.0205941)
(0.0125851 -0.0113421 -0.0208429)
(0.012692 -0.0110354 -0.0201067)
(0.0123985 -0.0113092 -0.0199564)
(0.0113013 -0.0113563 -0.0204539)
(0.0126591 -0.0102434 -0.0196426)
(0.0123348 -0.00925023 -0.0189764)
(0.0134688 -0.0102479 -0.0196832)
(0.0131699 -0.00985818 -0.0200341)
(0.0127538 -0.0109254 -0.0206641)
(0.0126164 -0.0102208 -0.0195252)
(0.0135115 -0.0103617 -0.0206874)
(0.0132494 -0.011267 -0.0211917)
(0.0138135 -0.0102353 -0.0211317)
(0.0130561 -0.0106515 -0.0202423)
(0.0128675 -0.011675 -0.0210906)
(0.0137303 -0.0104783 -0.0210762)
(0.0129936 -0.00542456 -0.0272169)
(0.0147587 -0.00659331 -0.028394)
(0.0131633 -0.00660297 -0.0290391)
(0.0138827 -0.00599558 -0.0260308)
(0.0129008 -0.00405314 -0.0292938)
(0.0130203 -0.0163276 -0.0229924)
(0.0116796 -0.0168787 -0.0229123)
(0.0116484 -0.015955 -0.0227495)
(0.0123046 -0.0156618 -0.0217309)
(0.011969 -0.0172738 -0.0239481)
(0.0106477 -0.0161608 -0.0224416)
(0.0126784 -0.0147791 -0.0227368)
(0.0125839 -0.0147847 -0.0214236)
(0.0132643 -0.0140729 -0.0213864)
(0.0118256 -0.0143281 -0.021283)
(0.01286 -0.013495 -0.0208406)
(0.0123611 -0.015065 -0.0220256)
(0.0152466 -0.0107611 -0.0205831)
(0.0140171 -0.013759 -0.0223727)
(0.017023 -0.012953 -0.024769)
(0.0154163 -0.0123611 -0.0221445)
(0.0154478 -0.0125052 -0.0215933)
(0.0155661 -0.0124851 -0.0228151)
(0.0136317 -0.0121883 -0.0207746)
(0.0152592 -0.0140454 -0.0230708)
(0.013746 -0.00706173 -0.0209177)
(0.0126098 -0.00700379 -0.0195491)
(0.0126355 -0.00637086 -0.0200458)
(0.0124564 -0.00631899 -0.0202448)
(0.0130633 -0.00706953 -0.019862)
(0.0119704 -0.00601002 -0.0198881)
(0.0150717 -0.00885318 -0.0219375)
(0.0149685 -0.0105924 -0.022172)
(0.0143177 -0.00876002 -0.0211979)
(0.014903 -0.0084575 -0.0218593)
(0.0146633 -0.0102343 -0.0215773)
(0.0138066 -0.00876801 -0.0207136)
(0.0142711 -0.00856563 -0.0203398)
(0.0139321 -0.00856087 -0.0214803)
(0.0137719 -0.00915009 -0.0204674)
(0.0144096 -0.00921217 -0.0207732)
(0.0140127 -0.00841238 -0.0208366)
(0.016854 -0.0075274 -0.0284689)
(0.0165279 -0.00837231 -0.027355)
(0.0170415 -0.00837674 -0.0270567)
(0.0169926 -0.00874681 -0.0253721)
(0.0156126 -0.00757246 -0.0278854)
(0.0181589 -0.00988608 -0.0282765)
(0.0168509 -0.0138716 -0.0231688)
(0.0169638 -0.0116245 -0.0233468)
(0.0170848 -0.0117122 -0.0228329)
(0.0168847 -0.0141678 -0.0240646)
(0.0168988 -0.014452 -0.0234368)
(0.0161636 -0.0120064 -0.0231026)
(0.0158599 -0.0127634 -0.0225599)
(0.0170109 -0.011935 -0.0242694)
(0.0173105 -0.0124721 -0.023955)
(0.0155323 -0.0139417 -0.0226161)
(0.0160529 -0.0146128 -0.023642)
(0.0141973 -0.00699795 -0.0235213)
(0.0138272 -0.00448615 -0.0230721)
(0.0120255 -0.00367672 -0.0231456)
(0.0108514 -0.00382783 -0.0214931)
(0.0127447 -0.00479258 -0.023015)
(0.0132362 -0.00600877 -0.0239684)
(0.00345617 -0.00523181 -0.0138899)
(0.00320549 -0.00490697 -0.010385)
(0.00288664 -0.00494367 -0.00947503)
(0.00275038 -0.00451796 -0.00853403)
(0.00288559 -0.00475307 -0.0115144)
(0.00372876 -0.00515376 -0.0122385)
(0.00493955 -0.00490147 -0.0194754)
(0.00445005 -0.00426431 -0.0193845)
(0.00388519 -0.00468997 -0.0185642)
(0.0038596 -0.00582756 -0.0175655)
(0.00544649 -0.0049008 -0.0206605)
(0.00326963 -0.00461774 -0.0152944)
(0.00231762 -0.00453453 -0.00724111)
(0.00262768 -0.00544111 -0.0111196)
(0.00231664 -0.0050421 -0.00812931)
(0.00249081 -0.0049576 -0.00870628)
(0.00217512 -0.00499161 -0.00954397)
(0.00243191 -0.00560254 -0.012325)
(0.0111366 -0.00429122 -0.0241285)
(0.00872538 -0.00403497 -0.0214706)
(0.00789592 -0.00416088 -0.0209062)
(0.01123 -0.00436408 -0.0248898)
(0.0096329 -0.00313466 -0.0233451)
(0.00845433 -0.00305062 -0.0228638)
(0.00398988 -0.00432429 -0.0128513)
(0.00366681 -0.00510145 -0.00986223)
(0.00318457 -0.00470155 -0.0110605)
(0.00346495 -0.00475307 -0.0119347)
(0.00404045 -0.00498736 -0.0107767)
(0.00447119 -0.00541637 -0.0139183)
(0.0060465 -0.0038485 -0.0171526)
(0.00667757 -0.00447562 -0.0162576)
(0.00730389 -0.00327872 -0.0171899)
(0.00737876 -0.00513226 -0.0180713)
(0.00616169 -0.00477332 -0.0157111)
(0.00803451 -0.00483291 -0.0184768)
(0.00278054 -0.00416229 -0.00655954)
(0.00308392 -0.00409044 -0.00625741)
(0.00274898 -0.00390678 -0.00569345)
(0.00304754 -0.0039568 -0.00543069)
(0.00288407 -0.00405234 -0.00728453)
(0.00302057 -0.00441741 -0.00790672)
(0.00763929 -0.0164129 -0.0246772)
(0.00753201 -0.0162412 -0.0233696)
(0.00721086 -0.0160049 -0.0250923)
(0.00770012 -0.0169176 -0.023927)
(0.00704079 -0.0163723 -0.0251782)
(0.00694373 -0.0168889 -0.0253333)
(0.00849917 -0.0172812 -0.0234313)
(0.0074551 -0.0174942 -0.0240533)
(0.00854626 -0.0186493 -0.022371)
(0.00674222 -0.0180207 -0.0232821)
(0.0075204 -0.0183932 -0.0235739)
(0.00835339 -0.0190084 -0.0222421)
(0.0055664 -0.013369 -0.0278469)
(0.0061652 -0.014767 -0.027063)
(0.00589347 -0.0144248 -0.0257981)
(0.00619483 -0.0130198 -0.026952)
(0.00630228 -0.0153787 -0.0265352)
(0.00652602 -0.0140977 -0.0268886)
(0.00475455 -0.0125785 -0.0287863)
(0.00497973 -0.0147407 -0.026527)
(0.00506707 -0.0135415 -0.0261578)
(0.00575088 -0.0136067 -0.029)
(0.00520714 -0.0121344 -0.0288998)
(0.0048101 -0.013987 -0.0272043)
(0.00734816 -0.0080249 -0.0286944)
(0.00742625 -0.00651324 -0.0279949)
(0.00857296 -0.00432325 -0.028548)
(0.00752612 -0.00707461 -0.0287477)
(0.00937133 -0.00661334 -0.0300681)
(0.00772531 -0.00423904 -0.027351)
(0.00691342 -0.0106971 -0.0297376)
(0.00638699 -0.0113973 -0.0292423)
(0.00580564 -0.0108798 -0.0272442)
(0.00549788 -0.0112566 -0.0285517)
(0.00623846 -0.00857126 -0.0282086)
(0.00992032 -0.0114248 -0.0198755)
(0.0097129 -0.011213 -0.01961)
(0.0100994 -0.0112072 -0.0200507)
(0.00977529 -0.0114433 -0.0200517)
(0.0101777 -0.0113186 -0.0202076)
(0.0106814 -0.0118826 -0.0212083)
(0.0105211 -0.00497082 -0.01817)
(0.00864647 -0.00469329 -0.0158007)
(0.00996423 -0.00501501 -0.0171091)
(0.00931571 -0.00488968 -0.0169428)
(0.0096412 -0.00531305 -0.0173701)
(0.00513997 -0.00388633 -0.0118447)
(0.00599699 -0.00482079 -0.0128788)
(0.00684968 -0.00522741 -0.0144538)
(0.00575799 -0.00555062 -0.0111421)
(0.00527835 -0.00520423 -0.0111823)
(0.00655493 -0.00472733 -0.0127099)
(0.00714019 -0.00413104 -0.0156964)
(0.00719183 -0.00495743 -0.0147332)
(0.00873094 -0.00463424 -0.0172725)
(0.00790184 -0.00421901 -0.0155859)
(0.00726819 -0.00469073 -0.0149912)
(0.00637526 -0.00370481 -0.0134469)
(0.00613334 -0.00439971 -0.0134239)
(0.00539685 -0.00453373 -0.0120828)
(0.00625084 -0.0046716 -0.0142891)
(0.00479016 -0.00439245 -0.0106866)
(0.00521709 -0.00456062 -0.0118639)
(0.00541907 -0.00387039 -0.0126296)
(0.0107807 -0.010573 -0.0194864)
(0.0107032 -0.0102071 -0.0189711)
(0.0112576 -0.010298 -0.0192737)
(0.0110348 -0.00945814 -0.0183938)
(0.0110194 -0.00936905 -0.0181417)
(0.0110868 -0.0100324 -0.0185047)
(0.0111444 -0.0084101 -0.0182004)
(0.0106767 -0.00794611 -0.0177884)
(0.0106186 -0.00822178 -0.0178728)
(0.0108891 -0.00828163 -0.018244)
(0.0120869 -0.00886601 -0.0191703)
(0.0112003 -0.00886193 -0.0185166)
(0.0113887 -0.00321033 -0.0161206)
(0.0112501 -0.0023616 -0.0166327)
(0.0118493 -0.0024189 -0.0171821)
(0.0110438 -0.00287473 -0.0156537)
(0.0106134 -0.00288908 -0.0144632)
(0.0115308 -0.00290447 -0.0179178)
(0.0109362 -0.00204767 -0.0178601)
(0.0115182 -0.00303554 -0.0200661)
(0.0125377 -0.00222218 -0.0204874)
(0.0106406 -0.00212479 -0.019763)
(0.0109871 -0.00316222 -0.0194054)
(0.00483165 -0.00342205 -0.00618839)
(0.00622724 -0.00355906 -0.00710169)
(0.00442155 -0.00323457 -0.00560439)
(0.00568906 -0.00365071 -0.00695674)
(0.00573164 -0.00338961 -0.00659359)
(0.00501036 -0.00350618 -0.00629347)
(0.00365898 -0.00324744 -0.00533146)
(0.00345748 -0.00309393 -0.0050668)
(0.00379494 -0.00320192 -0.00533393)
(0.00379099 -0.00316949 -0.00535114)
(0.00360479 -0.00320036 -0.00515721)
(0.0034905 -0.00322443 -0.00512465)
(0.010773 -0.00379614 -0.0181413)
(0.0112119 -0.0042958 -0.0215404)
(0.011704 -0.0037769 -0.0218011)
(0.0115224 -0.00270102 -0.0206358)
(0.0109919 -0.00269221 -0.0188886)
(0.0108993 -0.00454216 -0.0194738)
(0.00972285 -0.00584357 -0.0220614)
(0.010289 -0.00719534 -0.0218494)
(0.00951844 -0.00536161 -0.0221194)
(0.0109397 -0.00555623 -0.0223753)
(0.0102154 -0.00454386 -0.0204999)
(0.0100563 -0.00580618 -0.0213062)
(0.00880423 -0.00494581 -0.0122158)
(0.00990442 -0.00427139 -0.0133271)
(0.00866629 -0.00442808 -0.0116812)
(0.0099294 -0.00446526 -0.0136591)
(0.00927855 -0.00500595 -0.013304)
(0.00965249 -0.00381773 -0.0118017)
(0.00982159 -0.00417248 -0.0130722)
(0.0106229 -0.00390503 -0.0136387)
(0.0100605 -0.00343417 -0.0125586)
(0.00937955 -0.0039469 -0.0114198)
(0.0107955 -0.00363909 -0.0139492)
(0.0100618 -0.00355885 -0.0118264)
(0.0090422 -0.00405145 -0.0111968)
(0.0108879 -0.00305313 -0.0153196)
(0.010939 -0.00390416 -0.0153947)
(0.0114647 -0.00350405 -0.0173708)
(0.0109746 -0.00409282 -0.0171161)
(0.0108831 -0.00428065 -0.0159297)
(0.011292 -0.00355935 -0.0177571)
(0.00888342 -0.00528494 -0.0171312)
(0.00945888 -0.00416399 -0.0176049)
(0.0110285 -0.00507616 -0.0196422)
(0.00983793 -0.00548188 -0.0184203)
(0.0101474 -0.00507743 -0.0179123)
(0.0109541 -0.00534182 -0.0185641)
(0.00308825 -0.00407707 -0.00682141)
(0.00334045 -0.00397406 -0.00644604)
(0.00328487 -0.00406918 -0.00643436)
(0.00318731 -0.00390284 -0.00736587)
(0.00367655 -0.00458868 -0.00829231)
(0.00348013 -0.00458193 -0.00783683)
(0.00361189 -0.00437737 -0.00808249)
(0.00326555 -0.00379047 -0.00620597)
(0.00323779 -0.00390235 -0.00664012)
(0.00332317 -0.00401558 -0.0073233)
(0.00346114 -0.00416317 -0.00780955)
(0.0152395 -0.00669778 -0.0239793)
(0.0159016 -0.00862876 -0.0231929)
(0.0146687 -0.00737229 -0.0226539)
(0.01589 -0.00807299 -0.023211)
(0.0156162 -0.00802563 -0.0232541)
(0.0154968 -0.0079654 -0.0238054)
(0.0109391 -0.0126865 -0.0212669)
(0.0105979 -0.0130442 -0.0227494)
(0.0117281 -0.01326 -0.0221115)
(0.011166 -0.0129705 -0.0224911)
(0.0104062 -0.0127837 -0.0224688)
(0.011051 -0.0131506 -0.0222069)
(0.0101353 -0.0137123 -0.0229004)
(0.00946493 -0.0131831 -0.0232891)
(0.00996454 -0.0132424 -0.0223207)
(0.0100012 -0.0132626 -0.0230069)
(0.00999675 -0.0136983 -0.024118)
(0.0110095 -0.0139571 -0.0230015)
(0.00723411 -0.0145322 -0.026638)
(0.00647027 -0.0135388 -0.0257967)
(0.00706955 -0.0144899 -0.0235004)
(0.00653959 -0.0127313 -0.0264657)
(0.00666162 -0.0134812 -0.0262892)
(0.00681208 -0.0145756 -0.0251819)
(0.00856265 -0.00928929 -0.0237228)
(0.00926054 -0.00989016 -0.0233394)
(0.00938963 -0.0104293 -0.0235243)
(0.00969283 -0.0113645 -0.0235959)
(0.00909304 -0.0106519 -0.0227709)
(0.00909779 -0.00989109 -0.0240645)
(0.00811493 -0.00892058 -0.0224813)
(0.00846108 -0.00966031 -0.0234856)
(0.00794911 -0.0107513 -0.02346)
(0.00935134 -0.0114327 -0.022716)
(0.0098603 -0.0116711 -0.0226048)
(0.00923432 -0.012634 -0.0232906)
(0.00875758 -0.0123651 -0.0235394)
(0.00859216 -0.0116242 -0.0237713)
(0.00952924 -0.0125841 -0.0221064)
(0.0153054 -0.0104252 -0.0225374)
(0.014959 -0.00873957 -0.021574)
(0.0158196 -0.0104905 -0.0226923)
(0.0159108 -0.010094 -0.02335)
(0.0157578 -0.00785772 -0.0236529)
(0.0168355 -0.0104447 -0.0238025)
(0.0161445 -0.00900704 -0.0239166)
(0.0161732 -0.00918503 -0.0231782)
(0.0134847 -0.00506614 -0.0235833)
(0.0146801 -0.00543071 -0.023799)
(0.0150292 -0.0053341 -0.0249462)
(0.0158582 -0.00593084 -0.0253755)
(0.0157786 -0.00786257 -0.0248354)
(0.00374051 -0.00425303 -0.00948378)
(0.00327994 -0.00398204 -0.00836526)
(0.00966687 -0.00653995 -0.0181202)
(0.00918847 -0.00556061 -0.016429)
(0.0093219 -0.00563757 -0.0159016)
(0.00992673 -0.00559873 -0.016651)
(0.01089 -0.00604844 -0.0188091)
(0.0107693 -0.00510942 -0.0172146)
(0.0103244 -0.00569227 -0.0172023)
(0.0105142 -0.0043621 -0.0172671)
(0.0103735 -0.00404414 -0.0162597)
(0.0108956 -0.00438508 -0.0172197)
(0.0104705 -0.0040024 -0.0152698)
(0.0103784 -0.004014 -0.0149066)
(0.009733 -0.00563673 -0.0154459)
(0.0102562 -0.00464782 -0.0141468)
(0.0101901 -0.00459346 -0.0148969)
(0.0102128 -0.00514766 -0.0151424)
(0.0101525 -0.00478345 -0.0153659)
(0.00966289 -0.00495075 -0.0223294)
(0.0096702 -0.00505313 -0.0212809)
(0.0100575 -0.00642985 -0.0229995)
(0.0114794 -0.00451068 -0.0197908)
(0.010529 -0.00624598 -0.0206714)
(0.010197 -0.00615148 -0.0211596)
(0.0111368 -0.00569524 -0.0232455)
(0.00946747 -0.00603686 -0.0194332)
(0.0101763 -0.00522323 -0.0192578)
(0.0109659 -0.00569779 -0.0192009)
(0.0102035 -0.00493664 -0.018261)
(0.0102832 -0.00532786 -0.0178023)
(0.0102266 -0.00559481 -0.0187816)
(0.00986352 -0.00558417 -0.0192677)
(0.0116446 -0.00290731 -0.0176134)
(0.0108825 -0.0060673 -0.0201817)
(0.0116482 -0.00441142 -0.0199799)
(0.0109339 -0.00343104 -0.0182503)
(0.0103953 -0.00415212 -0.0215087)
(0.0104174 -0.00451114 -0.0215464)
(0.0115457 -0.00441511 -0.0215786)
(0.0104871 -0.00382526 -0.0201009)
(0.0106246 -0.00542719 -0.0212276)
(0.0048641 -0.00387596 -0.00695932)
(0.00492753 -0.00388313 -0.0067948)
(0.00442192 -0.00365404 -0.00632937)
(0.00477863 -0.00372138 -0.0067868)
(0.00453428 -0.00357813 -0.0063242)
(0.003662 -0.00327968 -0.00569203)
(0.00331727 -0.00322921 -0.00545792)
(0.00449367 -0.00354405 -0.00604688)
(0.00323717 -0.00319722 -0.00513621)
(0.00296096 -0.00309247 -0.00511563)
(0.00337585 -0.00317692 -0.00493353)
(0.00351904 -0.00322115 -0.00506898)
(0.00336714 -0.00322365 -0.00505459)
(0.00331073 -0.00325099 -0.00504616)
(0.00321755 -0.00331479 -0.00519281)
(0.00327027 -0.00346233 -0.00554369)
(0.00321024 -0.00319905 -0.00498817)
(0.00323008 -0.00333449 -0.00516611)
(0.00337926 -0.00330792 -0.00501852)
(0.00327961 -0.00338985 -0.00535073)
(0.00297209 -0.00321235 -0.00535767)
(0.00321866 -0.00345358 -0.00563467)
(0.0050698 -0.00355952 -0.00639756)
(0.00471691 -0.00339355 -0.00607941)
(0.0041522 -0.00330794 -0.00569059)
(0.00379515 -0.00318709 -0.00538928)
(0.0036174 -0.00336283 -0.0049267)
(0.00369032 -0.00326909 -0.00500532)
(0.00356929 -0.00321581 -0.00497359)
(0.00368823 -0.00336135 -0.00498863)
(0.00348895 -0.00331081 -0.00496123)
(0.00361086 -0.00333061 -0.00495828)
(0.00343832 -0.00318549 -0.00502748)
(0.00346273 -0.00318693 -0.00498698)
(0.00340194 -0.00326731 -0.0049439)
(0.00356101 -0.00324112 -0.00494153)
(0.0096283 -0.00358602 -0.0112964)
(0.0100975 -0.00357514 -0.0121472)
(0.0102599 -0.0032936 -0.0133018)
(0.0091553 -0.00439943 -0.0116444)
(0.00798881 -0.00447434 -0.0109928)
(0.00715571 -0.00429728 -0.0094466)
(0.00530198 -0.00381243 -0.00720576)
(0.00652657 -0.00384544 -0.0080423)
(0.00586387 -0.00383066 -0.00741756)
(0.00554856 -0.0037993 -0.00719787)
(0.0114426 -0.00658713 -0.0209204)
(0.0109054 -0.00607692 -0.0211444)
(0.0123227 -0.00289513 -0.0201964)
(0.0111623 -0.00328116 -0.0139618)
(0.0121559 -0.00314408 -0.0186723)
(0.0111111 -0.0106124 -0.0195442)
(0.00916421 -0.00482402 -0.017373)
(0.00321105 -0.00348208 -0.0059281)
(0.00502436 -0.00375763 -0.0108803)
(0.00448312 -0.00425806 -0.00956295)
(0.00310699 -0.00341853 -0.00581267)
(0.0060523 -0.00490225 -0.0133573)
(0.00501675 -0.0048152 -0.0113968)
(0.00310467 -0.00332403 -0.0064603)
(0.00347699 -0.00393836 -0.00745237)
(0.0031637 -0.00358867 -0.00733289)
(0.00338972 -0.00365385 -0.0058959)
(0.00303113 -0.00323823 -0.00542479)
(0.00342402 -0.00364448 -0.0058284)
(0.0109064 -0.0106692 -0.0194626)
(0.0101635 -0.010887 -0.0196806)
(0.0107987 -0.0111403 -0.0202007)
(0.0104907 -0.0114153 -0.0205968)
(0.00654502 -0.00881124 -0.029462)
(0.00465838 -0.0151517 -0.025355)
(0.00577194 -0.012704 -0.0259124)
(0.00630693 -0.0121114 -0.0281043)
(0.00581755 -0.0151999 -0.0273776)
(0.00571341 -0.0129378 -0.0283377)
(0.0072141 -0.0155746 -0.0242607)
(0.00639348 -0.014909 -0.0258924)
(0.00540977 -0.0161189 -0.0253014)
(0.00596377 -0.0159526 -0.0254864)
(0.00610735 -0.0174524 -0.0245439)
(0.00681414 -0.0177875 -0.0239049)
(0.00804495 -0.0179864 -0.0232239)
(0.00985367 -0.0190564 -0.0231132)
(0.00921997 -0.0185015 -0.0234291)
(0.00968027 -0.0187233 -0.022855)
(0.00857403 -0.0177113 -0.0229164)
(0.00927623 -0.0193525 -0.0215479)
(0.0112397 -0.019269 -0.0221584)
(0.0106701 -0.0189361 -0.0222213)
(0.0118406 -0.0184531 -0.0210544)
(0.0163858 -0.0165779 -0.0238789)
(0.013682 -0.0179205 -0.0214052)
(0.0128004 -0.01818 -0.0216844)
(0.014662 -0.0166985 -0.0214394)
(0.00313733 -0.00452497 -0.00843344)
(0.00298933 -0.00381579 -0.00581697)
(0.00331612 -0.00378478 -0.00519455)
(0.00348058 -0.00355777 -0.00462689)
(0.0035809 -0.0034507 -0.00460952)
(0.00358234 -0.00338969 -0.00471052)
(0.00343939 -0.00371608 -0.00509851)
(0.00352991 -0.00362486 -0.00483517)
(0.00523839 -0.00436545 -0.0133265)
(0.00427478 -0.004471 -0.0108303)
(0.00518645 -0.00450865 -0.013011)
(0.00528913 -0.00480153 -0.0123185)
(0.00474349 -0.00415088 -0.0121965)
(0.0047244 -0.00402723 -0.0117596)
(0.00503021 -0.00377824 -0.0119935)
(0.00525113 -0.00400842 -0.0127582)
(0.00551743 -0.00409188 -0.0133995)
(0.0036229 -0.00346608 -0.00502491)
(0.00361428 -0.00353307 -0.00488654)
(0.00349604 -0.0033586 -0.00485792)
(0.00350306 -0.00355791 -0.00503836)
(0.00340369 -0.00349138 -0.00483059)
(0.00361938 -0.00374514 -0.00510216)
(0.00341205 -0.0037852 -0.00540311)
(0.00362377 -0.00380282 -0.00519873)
(0.00333136 -0.00374993 -0.00545101)
(0.00328963 -0.00389089 -0.00551036)
(0.00344591 -0.00386098 -0.00533702)
(0.00320758 -0.00380521 -0.00597261)
(0.00321301 -0.00340108 -0.00526672)
(0.00322104 -0.00326775 -0.00502462)
(0.00326114 -0.00359444 -0.00591309)
(0.00325085 -0.00352452 -0.00552346)
(0.00340472 -0.00368851 -0.00548498)
(0.00316994 -0.00334174 -0.00514721)
(0.00338974 -0.00357671 -0.00555049)
(0.00342585 -0.00377405 -0.00563873)
(0.0034515 -0.00345235 -0.00500852)
(0.0033831 -0.0033149 -0.00487222)
(0.00336957 -0.00342747 -0.00512898)
(0.00397409 -0.00352302 -0.00986275)
(0.00453928 -0.00418505 -0.0106259)
(0.0038929 -0.00412743 -0.00912311)
(0.00410982 -0.00417195 -0.00970259)
(0.00422321 -0.0043075 -0.010492)
(0.00410283 -0.00402174 -0.00968957)
(0.00350298 -0.00384426 -0.00840011)
(0.00333558 -0.00379203 -0.00751904)
(0.00317074 -0.00347067 -0.00629705)
(0.00350304 -0.00388416 -0.00799308)
(0.0034551 -0.00370363 -0.00750452)
(0.00343983 -0.00375882 -0.00566413)
(0.00318098 -0.00380597 -0.00644985)
(0.00340436 -0.00370261 -0.00629284)
(0.00388661 -0.00449529 -0.00845881)
(0.00859433 -0.0165814 -0.0234024)
(0.0141608 -0.0174741 -0.0223592)
(0.00917793 -0.0167499 -0.0223435)
(0.00925339 -0.0172273 -0.0224561)
(0.0128198 -0.0183699 -0.0221938)
(0.0121496 -0.0195687 -0.023589)
(0.0126647 -0.0181411 -0.0225478)
(0.0133233 -0.01797 -0.0228139)
(0.0113966 -0.0187068 -0.0226597)
(0.01227 -0.0178456 -0.0217963)
(0.0116523 -0.0164045 -0.0207316)
(0.0111796 -0.0172048 -0.0220409)
(0.00992698 -0.0173443 -0.0217433)
(0.0112448 -0.0182634 -0.0221558)
(0.00586671 -0.00371365 -0.0145553)
(0.00501209 -0.00440853 -0.0142245)
(0.00386884 -0.00445718 -0.0100424)
(0.00405691 -0.00385045 -0.0118336)
(0.00404527 -0.00447161 -0.0108053)
(0.00375031 -0.00433432 -0.0110788)
(0.00340101 -0.00403807 -0.00950924)
(0.00309962 -0.00444097 -0.00941921)