/*--------------------------------*- C++ -*----------------------------------*\
| =========                 |                                                 |
| \\      /  F ield         | OpenFOAM: The Open Source CFD Toolbox           |
|  \\    /   O peration     | Version:  v1612+                                |
|   \\  /    A nd           | Web:      www.OpenFOAM.com                      |
|    \\/     M anipulation  |                                                 |
\*---------------------------------------------------------------------------*/
FoamFile
{
    version     2.0;
    format      ascii;
    class       volVectorField;
    location    "100";
    object      U;
}
// * * * * * * * * * * * * * * * * * * * * * * * * * * * * * * * * * * * * * //

dimensions      [0 1 -1 0 0 0 0];

internalField   nonuniform List<vector> 
16990
(
(-0.2049 0.275598 -0.182975)
(-0.494363 0.916567 -0.370935)
(-0.364363 0.462363 -0.100477)
(-0.793872 0.831754 -0.321111)
(-0.7695 0.817518 -0.300511)
(-0.658078 0.758377 -0.298395)
(-0.701599 0.794411 -0.301906)
(-0.765588 0.818267 -0.323073)
(-0.775093 0.841257 -0.315898)
(-0.754687 0.792471 -0.302917)
(-0.713925 0.795774 -0.285769)
(-0.651942 0.764126 -0.266184)
(-0.611764 0.732236 -0.266378)
(-0.695461 0.785978 -0.314896)
(-0.688714 0.773911 -0.258216)
(-0.652073 0.746033 -0.297169)
(-0.640868 0.738621 -0.281168)
(-0.642765 0.741289 -0.270362)
(-0.441804 0.975508 -0.308403)
(-0.442818 0.986649 -0.28659)
(-0.419174 0.952588 -0.319806)
(-0.41357 0.963075 -0.316943)
(-0.414663 0.957632 -0.291417)
(-0.381161 0.963864 -0.254909)
(-0.387716 0.944229 -0.254493)
(-0.470221 0.997913 -0.328017)
(-0.379019 0.952059 -0.271295)
(-0.36606 0.93072 -0.266297)
(-0.458815 0.998307 -0.340071)
(-0.409871 0.965025 -0.306464)
(-0.364581 0.949974 -0.256503)
(-0.458162 0.995751 -0.329657)
(-0.446929 1.00052 -0.313588)
(-0.23204 0.872013 -0.375708)
(-0.340563 0.929767 -0.396125)
(-0.204052 0.863382 -0.329225)
(-0.168427 0.821218 -0.304008)
(-0.218546 0.86569 -0.344677)
(-0.318995 0.920721 -0.387151)
(-0.222268 0.846992 -0.337595)
(-0.21761 0.853893 -0.337381)
(-0.208442 0.838176 -0.334841)
(-0.198441 0.848366 -0.357296)
(-0.181582 0.81709 -0.302707)
(-0.135916 0.761868 -0.284641)
(-0.152438 0.783953 -0.319093)
(-0.218801 0.855703 -0.334051)
(-0.286406 0.882581 -0.285044)
(-0.194136 0.800803 -0.284162)
(-0.197381 0.778658 -0.317957)
(-0.19597 0.786667 -0.324198)
(-0.399491 0.772078 -0.316022)
(-0.364305 0.769256 -0.347081)
(-0.213159 0.773765 -0.338325)
(-0.243001 0.807413 -0.347982)
(-0.249529 0.797625 -0.324263)
(-0.269788 0.838824 -0.297982)
(-0.300746 0.788432 -0.343267)
(-0.273796 0.798949 -0.336647)
(-0.407875 0.757706 -0.32505)
(-0.334198 0.848884 -0.301126)
(-0.373363 0.822454 -0.329107)
(-0.307024 0.793942 -0.33624)
(-0.149519 0.326958 -0.215212)
(-0.12801 0.3098 -0.201102)
(-0.187692 0.381954 -0.239597)
(-0.15929 0.336676 -0.21076)
(-0.158727 0.348474 -0.231397)
(-0.141635 0.342213 -0.232293)
(-0.122668 0.308433 -0.204083)
(-0.128584 0.296588 -0.184875)
(-0.203026 0.388379 -0.229176)
(-0.160169 0.339841 -0.205979)
(-0.125259 0.297125 -0.189223)
(-0.196038 0.396482 -0.254408)
(-0.133985 0.345827 -0.235563)
(-0.153096 0.369854 -0.255815)
(-0.206069 0.3983 -0.237847)
(-0.198609 0.415053 -0.268613)
(-0.187537 0.392182 -0.256398)
(-0.129276 0.335521 -0.233259)
(-0.145753 0.331603 -0.221235)
(-0.607685 0.803218 -0.258202)
(-0.573471 0.768303 -0.237597)
(-0.653391 0.839067 -0.275208)
(-0.630684 0.815319 -0.25109)
(-0.718744 0.840041 -0.295936)
(-0.700969 0.840153 -0.285629)
(-0.66756 0.839456 -0.29677)
(-0.697697 0.876587 -0.30475)
(-0.641505 0.798072 -0.290089)
(-0.598205 0.761385 -0.27475)
(-0.669027 0.824716 -0.298719)
(-0.645192 0.7902 -0.282239)
(-0.72521 0.853767 -0.31063)
(-0.678778 0.822988 -0.276547)
(-0.664769 0.827738 -0.274372)
(-0.591084 0.761066 -0.245464)
(-0.654812 0.82569 -0.265278)
(-0.615692 0.784871 -0.241515)
(-0.475715 0.495639 -0.237647)
(-0.485066 0.477864 -0.210716)
(-0.468494 0.497869 -0.236446)
(-0.475359 0.563924 -0.250374)
(-0.57048 0.530589 -0.244728)
(-0.537692 0.516333 -0.225913)
(-0.527989 0.553682 -0.22281)
(-0.495107 0.502421 -0.23368)
(-0.50394 0.559732 -0.246735)
(-0.526609 0.599988 -0.22919)
(-0.551373 0.560976 -0.225554)
(-0.559819 0.67136 -0.238577)
(-0.535854 0.653815 -0.241738)
(-0.537807 0.55248 -0.203124)
(-0.504693 0.537997 -0.222)
(-0.551049 0.574505 -0.230126)
(-0.556691 0.683167 -0.233746)
(-0.382424 0.785724 -0.36286)
(-0.524661 0.858168 -0.393458)
(-0.42609 0.813328 -0.380121)
(-0.437889 0.79679 -0.379356)
(-0.490516 0.809655 -0.403295)
(-0.455573 0.796503 -0.392731)
(-0.632566 0.899408 -0.412071)
(-0.5027 0.839896 -0.394855)
(-0.609183 0.859489 -0.419739)
(-0.61845 0.865432 -0.409042)
(-0.617056 0.865943 -0.409089)
(-0.632003 0.87071 -0.415729)
(-0.516987 0.81821 -0.412115)
(-0.526937 0.83462 -0.416739)
(-0.459151 0.805592 -0.388373)
(-0.608461 0.862388 -0.411281)
(-0.528415 0.832588 -0.418886)
(-0.509078 0.834061 -0.402396)
(-0.550061 0.542546 -0.227847)
(-0.551333 0.594984 -0.233654)
(-0.540629 0.448759 -0.214793)
(-0.519951 0.494687 -0.210135)
(-0.572764 0.520022 -0.22952)
(-0.572641 0.489836 -0.226581)
(-0.477076 0.473808 -0.239423)
(-0.480988 0.447229 -0.215443)
(-0.493253 0.450778 -0.190944)
(-0.49161 0.504742 -0.195842)
(-0.495218 0.454845 -0.209903)
(-0.489584 0.520596 -0.233993)
(-0.477472 0.416785 -0.18779)
(-0.51517 0.585082 -0.227981)
(-0.54791 0.678889 -0.291614)
(-0.528895 0.713587 -0.27585)
(-0.464142 0.560327 -0.221187)
(-0.477534 0.587735 -0.227439)
(-0.510931 0.60393 -0.237412)
(-0.519397 0.598487 -0.258051)
(-0.505056 0.668294 -0.27555)
(-0.529347 0.716469 -0.296111)
(-0.463461 0.549788 -0.220176)
(-0.481488 0.585962 -0.228845)
(-0.478198 0.530376 -0.224984)
(-0.474975 0.602873 -0.239575)
(-0.510975 0.677906 -0.280467)
(-0.463646 0.547761 -0.224552)
(-0.433817 0.488865 -0.203713)
(-0.528893 0.715383 -0.316604)
(-0.465334 0.678698 -0.235878)
(-0.456829 0.703709 -0.229559)
(-0.46634 0.738352 -0.252901)
(-0.444888 0.804854 -0.262823)
(-0.486623 0.676453 -0.257261)
(-0.480369 0.707146 -0.248223)
(-0.470297 0.765962 -0.270395)
(-0.474455 0.790968 -0.293759)
(-0.466607 0.778637 -0.266865)
(-0.514071 0.801449 -0.312901)
(-0.49547 0.818645 -0.313623)
(-0.4807 0.796809 -0.279264)
(-0.465454 0.815128 -0.294587)
(-0.514575 0.752647 -0.300639)
(-0.503543 0.827963 -0.31875)
(-0.529685 0.808923 -0.307772)
(-0.502242 0.798454 -0.29933)
(-0.299475 0.302741 -0.173124)
(-0.260964 0.285452 -0.181381)
(-0.259544 0.287141 -0.20536)
(-0.297681 0.304405 -0.192572)
(-0.312995 0.31096 -0.167806)
(-0.275823 0.285539 -0.178563)
(-0.264209 0.301828 -0.219676)
(-0.287884 0.314471 -0.235028)
(-0.28172 0.309311 -0.232363)
(-0.274985 0.30446 -0.216114)
(-0.331459 0.317923 -0.215996)
(-0.294519 0.302918 -0.209724)
(-0.271367 0.283638 -0.190456)
(-0.340109 0.317175 -0.209121)
(-0.386447 0.858908 -0.288631)
(-0.37477 0.897867 -0.29452)
(-0.391951 0.875763 -0.291543)
(-0.381246 0.85833 -0.280654)
(-0.422697 0.949576 -0.300922)
(-0.395656 0.946029 -0.305186)
(-0.400264 0.702167 -0.249406)
(-0.413022 0.874974 -0.291696)
(-0.445587 0.885593 -0.313368)
(-0.467041 0.919116 -0.313984)
(-0.438028 0.932139 -0.294097)
(-0.412211 0.752546 -0.268001)
(-0.450825 0.838166 -0.296832)
(-0.474761 0.895129 -0.294222)
(-0.403105 0.697623 -0.251337)
(-0.530822 0.825974 -0.39517)
(-0.46972 0.829053 -0.372585)
(-0.436105 0.814844 -0.368766)
(-0.457372 0.80241 -0.377389)
(-0.527704 0.819122 -0.3923)
(-0.469236 0.826888 -0.37585)
(-0.591578 0.857555 -0.374043)
(-0.509893 0.824155 -0.394512)
(-0.464846 0.807909 -0.392262)
(-0.528493 0.839936 -0.390928)
(-0.494617 0.817649 -0.383431)
(-0.587235 0.868923 -0.395397)
(-0.618332 0.854769 -0.402121)
(-0.595499 0.858791 -0.40342)
(-0.53314 0.879996 -0.394431)
(-0.583764 0.870614 -0.39699)
(-0.523322 0.87334 -0.405922)
(-0.498017 0.869076 -0.394898)
(-0.671889 0.87183 -0.395809)
(-0.582829 0.877158 -0.380912)
(-0.580743 0.879238 -0.404843)
(-0.673251 0.85725 -0.39817)
(-0.681615 0.860833 -0.393538)
(-0.684894 0.838992 -0.394478)
(-0.681141 0.858583 -0.407557)
(-0.646732 0.881776 -0.408918)
(-0.608914 0.882717 -0.418406)
(-0.653386 0.875432 -0.413505)
(-0.576528 0.876848 -0.393027)
(-0.639399 0.873105 -0.424593)
(-0.107083 0.401526 -0.279113)
(-0.0887154 0.39371 -0.271027)
(-0.0981973 0.525795 -0.343928)
(-0.0959287 0.423807 -0.290026)
(-0.112326 0.418992 -0.286522)
(-0.0744119 0.386818 -0.260176)
(-0.0838944 0.470383 -0.315398)
(-0.0721165 0.430724 -0.292734)
(-0.153309 0.529514 -0.346476)
(-0.104745 0.480195 -0.326549)
(-0.297963 0.775772 -0.352984)
(-0.330345 0.808099 -0.338216)
(-0.319587 0.850805 -0.330521)
(-0.3131 0.815769 -0.331448)
(-0.30479 0.803573 -0.342399)
(-0.30503 0.792582 -0.347011)
(-0.221855 0.751903 -0.335288)
(-0.218217 0.744299 -0.337391)
(-0.355863 0.740958 -0.353761)
(-0.332206 0.728333 -0.354559)
(-0.405381 0.815957 -0.306469)
(-0.381775 0.746638 -0.307955)
(-0.328532 0.828795 -0.31764)
(-0.286082 0.779958 -0.346449)
(-0.339927 0.707904 -0.363679)
(-0.403149 0.700447 -0.315983)
(-0.413831 0.669138 -0.295175)
(-0.371774 0.709131 -0.363649)
(-0.383649 0.734019 -0.353446)
(-0.280059 0.714822 -0.356836)
(-0.37913 0.71176 -0.356286)
(-0.322331 0.723143 -0.366468)
(-0.169946 0.526035 -0.352829)
(-0.165763 0.526433 -0.347395)
(-0.227769 0.570686 -0.37967)
(-0.253444 0.581587 -0.370442)
(-0.186838 0.506927 -0.352965)
(-0.155492 0.488293 -0.346222)
(-0.126982 0.429109 -0.304542)
(-0.233645 0.530099 -0.365332)
(-0.15513 0.443786 -0.315739)
(-0.191339 0.517384 -0.365607)
(-0.151851 0.43885 -0.311862)
(-0.171251 0.517747 -0.358539)
(-0.157415 0.405134 -0.300695)
(-0.232802 0.491994 -0.34902)
(-0.190845 0.424601 -0.320244)
(-0.174405 0.418604 -0.317706)
(-0.219308 0.519309 -0.362781)
(-0.24102 0.50006 -0.355628)
(-0.70384 0.860548 -0.405001)
(-0.645114 0.862014 -0.408491)
(-0.676103 0.857032 -0.401094)
(-0.638456 0.833721 -0.377072)
(-0.656818 0.823518 -0.367581)
(-0.627593 0.804556 -0.368447)
(-0.604729 0.828213 -0.417552)
(-0.615241 0.852661 -0.418289)
(-0.745866 0.861663 -0.407601)
(-0.578747 0.804848 -0.390141)
(-0.661375 0.80733 -0.372247)
(-0.617528 0.796211 -0.366156)
(-0.709895 0.860037 -0.409545)
(-0.752933 0.869337 -0.408198)
(-0.64894 0.827314 -0.405339)
(-0.639286 0.842205 -0.420078)
(-0.569742 0.783599 -0.381005)
(-0.610976 0.792412 -0.38204)
(-0.588674 0.799986 -0.38293)
(-0.66414 0.832915 -0.388559)
(-0.671581 0.699302 -0.285366)
(-0.656899 0.671358 -0.253679)
(-0.635895 0.724962 -0.281222)
(-0.635118 0.679818 -0.269661)
(-0.653402 0.739827 -0.286502)
(-0.641388 0.754921 -0.261111)
(-0.615528 0.704552 -0.21337)
(-0.595933 0.726313 -0.254616)
(-0.581407 0.75998 -0.245038)
(-0.605365 0.770345 -0.264048)
(-0.548851 0.783704 -0.250567)
(-0.55636 0.712583 -0.199067)
(-0.570069 0.66667 -0.188876)
(-0.57605 0.682118 -0.189897)
(-0.523774 0.74075 -0.198417)
(-0.769594 0.830515 -0.299604)
(-0.745898 0.838705 -0.307939)
(-0.74852 0.837838 -0.304689)
(-0.747668 0.836646 -0.296516)
(-0.740963 0.853633 -0.25945)
(-0.740302 0.862954 -0.260029)
(-0.756539 0.803959 -0.295362)
(-0.756746 0.797577 -0.296699)
(-0.723023 0.794149 -0.283948)
(-0.743686 0.776958 -0.28761)
(-0.722318 0.855639 -0.279834)
(-0.713951 0.859037 -0.269911)
(-0.744086 0.807693 -0.286909)
(-0.725328 0.850461 -0.27072)
(-0.75049 0.853383 -0.277169)
(-0.73703 0.867192 -0.261349)
(-0.734091 0.801208 -0.29348)
(-0.727886 0.849517 -0.271262)
(-0.225417 0.369835 -0.242541)
(-0.244961 0.370805 -0.238213)
(-0.243625 0.38987 -0.248849)
(-0.231195 0.354064 -0.211048)
(-0.218029 0.357822 -0.219381)
(-0.26976 0.394748 -0.237419)
(-0.274021 0.385756 -0.224398)
(-0.276884 0.394567 -0.223467)
(-0.274605 0.382939 -0.20555)
(-0.237811 0.37037 -0.205374)
(-0.2246 0.366293 -0.193783)
(-0.216512 0.361227 -0.196121)
(-0.198402 0.342404 -0.202922)
(-0.236635 0.377455 -0.225585)
(-0.667601 0.886719 -0.247469)
(-0.640603 0.91801 -0.242599)
(-0.689615 0.874976 -0.265875)
(-0.635874 0.878825 -0.25939)
(-0.637775 0.893801 -0.248187)
(-0.66179 0.776968 -0.268963)
(-0.615897 0.798627 -0.264847)
(-0.694936 0.883288 -0.272729)
(-0.679577 0.901267 -0.274331)
(-0.690683 0.829567 -0.283481)
(-0.695852 0.832668 -0.279133)
(-0.650114 0.793267 -0.27346)
(-0.701287 0.855503 -0.290933)
(-0.643157 0.876432 -0.26041)
(-0.598928 0.878556 -0.419995)
(-0.639001 0.900401 -0.427969)
(-0.603338 0.864907 -0.419792)
(-0.534691 0.83374 -0.415535)
(-0.49404 0.811482 -0.405517)
(-0.641482 0.881145 -0.423436)
(-0.645484 0.879353 -0.423781)
(-0.561536 0.855602 -0.419737)
(-0.557041 0.817335 -0.40937)
(-0.5856 0.842784 -0.412749)
(-0.54187 0.82721 -0.411407)
(-0.48631 0.792288 -0.393117)
(-0.526285 0.807159 -0.408371)
(-0.468953 0.789089 -0.398174)
(-0.584841 0.855242 -0.431673)
(-0.519341 0.80281 -0.401633)
(-0.252336 0.291577 -0.200069)
(-0.254228 0.296473 -0.215646)
(-0.257494 0.329187 -0.26206)
(-0.257557 0.313801 -0.237427)
(-0.193915 0.287365 -0.240649)
(-0.21448 0.323596 -0.265823)
(-0.217069 0.267964 -0.212792)
(-0.222326 0.269408 -0.191535)
(-0.200327 0.24656 -0.18769)
(-0.192803 0.298255 -0.246956)
(-0.174335 0.259471 -0.213728)
(-0.19603 0.266569 -0.217892)
(-0.201658 0.256313 -0.184708)
(-0.16984 0.231107 -0.181571)
(-0.226133 0.296017 -0.23073)
(-0.170866 0.242206 -0.194654)
(-0.754725 0.839617 -0.259558)
(-0.659395 0.75588 -0.211059)
(-0.726691 0.805586 -0.239474)
(-0.67583 0.827111 -0.193916)
(-0.631488 0.77705 -0.178212)
(-0.660207 0.789713 -0.205459)
(-0.718728 0.830572 -0.236067)
(-0.698921 0.765182 -0.237356)
(-0.620249 0.732587 -0.194271)
(-0.779355 0.825256 -0.267938)
(-0.722124 0.786989 -0.235534)
(-0.775636 0.824734 -0.25472)
(-0.727604 0.826389 -0.239111)
(-0.683049 0.800463 -0.202185)
(-0.783552 0.81604 -0.274548)
(-0.718702 0.772008 -0.233385)
(-0.651597 0.743936 -0.189921)
(-0.622507 0.738599 -0.184743)
(-0.366436 0.992954 -0.299326)
(-0.328822 1.00509 -0.289099)
(-0.334453 0.984654 -0.293226)
(-0.236718 0.966733 -0.253642)
(-0.214868 0.920723 -0.221122)
(-0.261423 0.967406 -0.245056)
(-0.350441 0.991092 -0.283339)
(-0.343509 0.986549 -0.291637)
(-0.350771 1.00993 -0.296353)
(-0.288591 0.968621 -0.251303)
(-0.32183 1.02054 -0.291821)
(-0.297402 0.976531 -0.25087)
(-0.271546 0.946601 -0.235391)
(-0.345794 1.01523 -0.286285)
(-0.398973 0.612671 -0.251091)
(-0.352537 0.607918 -0.282396)
(-0.35655 0.6175 -0.2865)
(-0.346844 0.606345 -0.28487)
(-0.346826 0.548067 -0.246221)
(-0.347159 0.572609 -0.253773)
(-0.389828 0.658142 -0.267392)
(-0.379186 0.676145 -0.296449)
(-0.392537 0.607999 -0.228817)
(-0.410128 0.572352 -0.228452)
(-0.381607 0.619892 -0.234298)
(-0.387153 0.669448 -0.265912)
(-0.363953 0.600306 -0.264436)
(-0.350821 0.572625 -0.269326)
(-0.407157 0.574984 -0.226949)
(-0.400995 0.570661 -0.241386)
(-0.362303 0.582096 -0.257498)
(-0.365696 0.628058 -0.282751)
(-0.393805 0.749409 -0.314404)
(-0.376367 0.754618 -0.313258)
(-0.433918 0.733852 -0.3165)
(-0.392998 0.716213 -0.31446)
(-0.32378 0.789919 -0.27243)
(-0.306001 0.784027 -0.263786)
(-0.289609 0.746153 -0.309955)
(-0.284153 0.758257 -0.284421)
(-0.26087 0.727671 -0.303062)
(-0.214523 0.704864 -0.280348)
(-0.336402 0.70838 -0.328729)
(-0.382556 0.720351 -0.325697)
(-0.40442 0.796555 -0.307192)
(-0.368204 0.725779 -0.326492)
(-0.237548 0.725281 -0.277216)
(-0.242309 0.718494 -0.30835)
(-0.270678 0.730975 -0.329963)
(-0.268273 0.736895 -0.312439)
(-0.298068 0.777223 -0.299421)
(-0.282829 0.763204 -0.266825)
(-0.222632 0.491888 -0.349691)
(-0.22631 0.470602 -0.34837)
(-0.304074 0.521792 -0.358444)
(-0.33357 0.579751 -0.368175)
(-0.221358 0.430647 -0.325358)
(-0.224945 0.437027 -0.333966)
(-0.298085 0.535696 -0.362495)
(-0.301027 0.493866 -0.35315)
(-0.249051 0.451131 -0.338407)
(-0.278713 0.445942 -0.342167)
(-0.292269 0.443427 -0.335439)
(-0.342063 0.519026 -0.351194)
(-0.32365 0.439809 -0.330029)
(-0.315994 0.51315 -0.356745)
(-0.488537 0.894407 -0.427623)
(-0.462876 0.861424 -0.421904)
(-0.460383 0.83923 -0.410676)
(-0.414464 0.80456 -0.39476)
(-0.571808 0.936432 -0.410636)
(-0.551716 0.933799 -0.425398)
(-0.49513 0.863086 -0.393363)
(-0.499392 0.90727 -0.4239)
(-0.431493 0.806759 -0.393646)
(-0.464726 0.856293 -0.406955)
(-0.52855 0.914634 -0.409328)
(-0.0500004 0.772372 -0.317703)
(-0.0961402 0.822925 -0.319365)
(-0.154881 0.851721 -0.3617)
(-0.153219 0.854105 -0.34172)
(-0.189015 0.836754 -0.353643)
(-0.161395 0.800513 -0.362613)
(-0.0445402 0.779024 -0.302948)
(-0.00699788 0.681971 -0.302314)
(-0.157759 0.858347 -0.339312)
(-0.08811 0.775503 -0.346143)
(-0.0358641 0.710921 -0.337642)
(-0.0788075 0.736379 -0.359069)
(-0.146016 0.797751 -0.359515)
(-0.145172 0.768735 -0.365685)
(-0.0787443 0.810276 -0.316848)
(-0.033343 0.701847 -0.341703)
(-0.00258221 0.668018 -0.324172)
(-0.0617113 0.770853 -0.342876)
(-0.0414044 0.744808 -0.322974)
(-0.0285865 0.710345 -0.322048)
(-0.396685 0.846422 -0.18414)
(-0.425775 0.862882 -0.196621)
(-0.400483 0.841264 -0.183203)
(-0.36096 0.808278 -0.155025)
(-0.404794 0.828199 -0.160272)
(-0.408625 0.838065 -0.189914)
(-0.485517 0.878483 -0.223399)
(-0.489625 0.892554 -0.225083)
(-0.406281 0.827889 -0.163357)
(-0.367937 0.801337 -0.148576)
(-0.502281 0.879832 -0.226787)
(-0.458885 0.835408 -0.169301)
(-0.435506 0.820939 -0.162239)
(-0.462222 0.857209 -0.181069)
(-0.47631 0.853511 -0.179055)
(-0.520352 0.858467 -0.212599)
(-0.446681 0.829563 -0.164784)
(-0.480374 0.840817 -0.174618)
(-0.530861 0.875998 -0.215669)
(-0.54531 0.866959 -0.222443)
(-0.423136 0.956854 -0.437266)
(-0.419025 0.945788 -0.428846)
(-0.394279 0.959522 -0.426872)
(-0.475082 0.964284 -0.431097)
(-0.484819 0.980737 -0.437401)
(-0.38275 0.927454 -0.443546)
(-0.346028 0.919457 -0.449785)
(-0.337974 0.925211 -0.439589)
(-0.446972 0.989281 -0.440922)
(-0.469403 0.97578 -0.438647)
(-0.463231 0.970204 -0.430869)
(-0.344824 0.917986 -0.447108)
(-0.322601 0.889835 -0.433718)
(-0.420279 0.979018 -0.444231)
(-0.441621 0.970273 -0.440217)
(-0.335348 0.917896 -0.448155)
(-0.307346 0.897732 -0.439761)
(-0.288765 0.877212 -0.436214)
(-0.289323 0.883095 -0.428598)
(-0.390092 0.938911 -0.451666)
(-0.337423 0.897247 -0.437778)
(-0.3699 0.914278 -0.445877)
(-0.807851 0.808221 -0.401283)
(-0.797862 0.834987 -0.388897)
(-0.759956 0.742158 -0.357478)
(-0.777128 0.803656 -0.372952)
(-0.77499 0.755058 -0.326168)
(-0.767293 0.776209 -0.321219)
(-0.79278 0.739815 -0.308243)
(-0.768545 0.697599 -0.316637)
(-0.822157 0.814416 -0.383065)
(-0.808377 0.799834 -0.358243)
(-0.743165 0.663984 -0.31309)
(-0.796102 0.738318 -0.332481)
(-0.701855 0.626664 -0.309589)
(-0.817208 0.800426 -0.343716)
(-0.816544 0.808201 -0.387608)
(-0.818339 0.723931 -0.338824)
(-0.822023 0.762191 -0.318193)
(-0.755688 0.707474 -0.339935)
(-0.840045 0.789444 -0.370743)
(-0.820053 0.800019 -0.387476)
(-0.688937 0.860677 -0.253948)
(-0.696824 0.888826 -0.271632)
(-0.712265 0.853697 -0.296082)
(-0.713711 0.888202 -0.288398)
(-0.67923 0.884234 -0.252439)
(-0.720752 0.873282 -0.280369)
(-0.705018 0.865617 -0.262033)
(-0.726884 0.868552 -0.260984)
(-0.710979 0.812009 -0.297062)
(-0.712358 0.836965 -0.257297)
(-0.68837 0.836474 -0.26164)
(-0.687993 0.789243 -0.254377)
(-0.694264 0.855706 -0.248094)
(-0.738282 0.784263 -0.282855)
(-0.707911 0.794534 -0.265004)
(-0.695304 0.849138 -0.248479)
(-0.713066 0.862301 -0.257081)
(-0.686227 0.79811 -0.271614)
(-0.68467 0.852212 -0.260067)
(-0.700337 0.854049 -0.254712)
(-0.709544 0.790762 -0.266783)
(-0.719434 0.747673 -0.27833)
(-0.73476 0.764615 -0.285406)
(-0.716255 0.767051 -0.2778)
(-0.569947 0.514444 -0.238974)
(-0.628686 0.581708 -0.271228)
(-0.584703 0.534506 -0.248117)
(-0.586255 0.554523 -0.249398)
(-0.576958 0.489217 -0.231464)
(-0.598361 0.520035 -0.245342)
(-0.532274 0.460527 -0.211762)
(-0.587659 0.547745 -0.224183)
(-0.542228 0.469689 -0.215163)
(-0.529779 0.495161 -0.224401)
(-0.484096 0.419708 -0.201535)
(-0.507972 0.423871 -0.208197)
(-0.472835 0.391303 -0.197637)
(-0.497295 0.401407 -0.204104)
(-0.488305 0.38263 -0.204269)
(-0.5095 0.40424 -0.212701)
(-0.505072 0.4787 -0.22736)
(-0.435736 0.515496 -0.291608)
(-0.402626 0.478824 -0.306058)
(-0.453485 0.477051 -0.269219)
(-0.489846 0.359466 -0.21117)
(-0.458458 0.369216 -0.227308)
(-0.482699 0.471669 -0.246017)
(-0.428593 0.499568 -0.30516)
(-0.42157 0.466383 -0.295757)
(-0.404321 0.36211 -0.259236)
(-0.409957 0.400907 -0.271913)
(-0.475398 0.925892 -0.388067)
(-0.448391 0.873532 -0.363698)
(-0.478688 0.946688 -0.398379)
(-0.474857 0.923255 -0.367006)
(-0.484198 0.91478 -0.374513)
(-0.435538 0.84784 -0.328632)
(-0.439606 0.89933 -0.355654)
(-0.449117 0.944994 -0.382627)
(-0.456343 0.937085 -0.396636)
(-0.450065 0.969245 -0.398464)
(-0.439825 0.995409 -0.394876)
(-0.448626 1.00088 -0.411387)
(-0.40574 0.657315 -0.239596)
(-0.430914 0.658212 -0.242995)
(-0.416812 0.716508 -0.277265)
(-0.403288 0.626518 -0.248209)
(-0.410353 0.764681 -0.271224)
(-0.413108 0.773756 -0.282612)
(-0.405253 0.781543 -0.268953)
(-0.408915 0.830762 -0.287523)
(-0.376184 0.695406 -0.299866)
(-0.376393 0.707512 -0.316208)
(-0.361625 0.722547 -0.270917)
(-0.351567 0.829425 -0.318993)
(-0.355341 0.858055 -0.301007)
(-0.358703 0.71865 -0.302455)
(-0.329102 0.783056 -0.316712)
(-0.383291 0.666805 -0.283896)
(-0.382783 0.812032 -0.300468)
(-0.505905 0.808882 -0.333122)
(-0.509561 0.880603 -0.366638)
(-0.437421 0.711793 -0.265043)
(-0.436672 0.77981 -0.30272)
(-0.452302 0.703873 -0.287057)
(-0.446986 0.666469 -0.271159)
(-0.445849 0.730743 -0.296284)
(-0.428793 0.66461 -0.254313)
(-0.45881 0.784266 -0.304815)
(-0.480518 0.860502 -0.347837)
(-0.49255 0.866123 -0.352662)
(-0.443575 0.688099 -0.274676)
(-0.438917 0.769325 -0.294416)
(-0.451614 0.812986 -0.323391)
(-0.242963 0.351196 -0.220272)
(-0.262345 0.353024 -0.216511)
(-0.28448 0.373208 -0.2422)
(-0.255426 0.343709 -0.196059)
(-0.221196 0.330926 -0.210611)
(-0.260886 0.342299 -0.20775)
(-0.277381 0.345367 -0.221242)
(-0.287765 0.343824 -0.213838)
(-0.279354 0.346619 -0.213462)
(-0.265338 0.387464 -0.273074)
(-0.241843 0.37306 -0.267285)
(-0.223396 0.356803 -0.254596)
(-0.238033 0.339457 -0.214625)
(-0.252371 0.345006 -0.233027)
(-0.285836 0.367204 -0.229702)
(-0.254105 0.378439 -0.262133)
(-0.275449 0.39615 -0.280731)
(-0.224181 0.33909 -0.225505)
(-0.332728 0.932673 -0.380222)
(-0.291801 0.926798 -0.388238)
(-0.356161 0.950639 -0.389388)
(-0.316751 0.933663 -0.378082)
(-0.314053 0.927632 -0.372122)
(-0.304117 0.926279 -0.384881)
(-0.413917 0.972721 -0.426465)
(-0.292802 0.908462 -0.410344)
(-0.382171 0.965347 -0.416466)
(-0.274785 0.941333 -0.436837)
(-0.260641 0.915869 -0.416633)
(-0.39502 0.971769 -0.42667)
(-0.394212 0.980732 -0.427278)
(-0.245433 0.914778 -0.421457)
(-0.25069 0.902486 -0.401576)
(-0.445257 0.909467 -0.289578)
(-0.436525 0.905977 -0.2794)
(-0.38227 0.749561 -0.311399)
(-0.406223 0.777991 -0.324862)
(-0.485764 0.89524 -0.281361)
(-0.470607 0.880624 -0.283401)
(-0.414937 0.896274 -0.287922)
(-0.412882 0.725704 -0.293687)
(-0.401504 0.740508 -0.284316)
(-0.474336 0.800132 -0.282219)
(-0.417078 0.82967 -0.300597)
(-0.463365 0.629901 -0.244799)
(-0.451787 0.643942 -0.248392)
(-0.486233 0.742674 -0.267536)
(-0.479579 0.760279 -0.288195)
(-0.461942 0.685522 -0.265718)
(-0.452371 0.661313 -0.251181)
(-0.468093 0.772484 -0.275325)
(-0.457641 0.541631 -0.222829)
(-0.481293 0.537489 -0.231732)
(-0.439006 0.50395 -0.212771)
(-0.45135 0.672803 -0.267013)
(-0.479011 0.651411 -0.26053)
(-0.434508 0.596392 -0.222401)
(-0.432204 0.498779 -0.214759)
(-0.462397 0.566365 -0.242019)
(-0.473817 0.575341 -0.239738)
(-0.430432 0.56072 -0.214794)
(-0.437581 0.594156 -0.241316)
(-0.442064 0.631226 -0.242062)
(-0.466669 0.633269 -0.234046)
(-0.444811 0.589827 -0.236722)
(-0.388615 0.47383 -0.216108)
(-0.421158 0.487615 -0.235864)
(-0.444176 0.537363 -0.231081)
(-0.432008 0.573167 -0.240626)
(-0.445071 0.57453 -0.243061)
(-0.411019 0.504507 -0.233623)
(-0.444695 0.588742 -0.259978)
(-0.734724 0.72085 -0.36646)
(-0.741968 0.788128 -0.398726)
(-0.761057 0.797241 -0.391218)
(-0.759236 0.765264 -0.39307)
(-0.756964 0.709441 -0.354297)
(-0.768343 0.7813 -0.389548)
(-0.77259 0.737223 -0.391149)
(-0.779521 0.774885 -0.390661)
(-0.757408 0.68857 -0.359779)
(-0.514488 0.702297 -0.273447)
(-0.532536 0.762292 -0.27383)
(-0.515389 0.738792 -0.28544)
(-0.493635 0.74924 -0.283512)
(-0.511825 0.865001 -0.308991)
(-0.495604 0.875448 -0.309418)
(-0.513334 0.80987 -0.29319)
(-0.526454 0.845307 -0.293751)
(-0.49105 0.844797 -0.291947)
(-0.465471 0.814475 -0.290205)
(-0.49872 0.85103 -0.298337)
(-0.519117 0.769024 -0.29616)
(-0.499987 0.713547 -0.270731)
(-0.422336 0.608163 -0.225711)
(-0.421751 0.64059 -0.245197)
(-0.449199 0.652724 -0.248887)
(-0.284682 0.430781 -0.152079)
(-0.257034 0.4187 -0.151477)
(-0.300337 0.464212 -0.153812)
(-0.321846 0.48235 -0.149692)
(-0.278321 0.399874 -0.167587)
(-0.264812 0.405333 -0.163906)
(-0.281201 0.423418 -0.162627)
(-0.344993 0.46183 -0.188304)
(-0.296571 0.422094 -0.186129)
(-0.307038 0.413018 -0.199801)
(-0.356473 0.454705 -0.181271)
(-0.380859 0.469401 -0.177338)
(-0.305725 0.405796 -0.185302)
(-0.359593 0.514215 -0.176675)
(-0.372319 0.476286 -0.185834)
(-0.366408 0.520066 -0.163289)
(-0.383626 0.532236 -0.17359)
(-0.639008 0.813395 -0.295578)
(-0.671077 0.869134 -0.330173)
(-0.701 0.894252 -0.330521)
(-0.721045 0.878044 -0.313321)
(-0.628126 0.824702 -0.309192)
(-0.582401 0.7771 -0.285987)
(-0.594753 0.795518 -0.25783)
(-0.616968 0.841508 -0.259858)
(-0.570072 0.792843 -0.254291)
(-0.722437 0.871697 -0.311483)
(-0.719877 0.880181 -0.310955)
(-0.643797 0.848667 -0.262089)
(-0.673001 0.874439 -0.290178)
(-0.65626 0.867076 -0.311118)
(-0.445573 0.849494 -0.301063)
(-0.370512 0.805783 -0.278579)
(-0.400167 0.888996 -0.329638)
(-0.474851 0.924856 -0.333176)
(-0.423972 0.855741 -0.302599)
(-0.452281 0.914598 -0.352203)
(-0.426009 0.89186 -0.34604)
(-0.471281 0.886408 -0.334698)
(-0.418088 0.872376 -0.310305)
(-0.456648 0.887571 -0.34717)
(-0.423374 0.86836 -0.309484)
(-0.499468 0.864169 -0.331262)
(-0.470683 0.813725 -0.293014)
(-0.526999 0.839303 -0.347248)
(-0.506418 0.764325 -0.301682)
(-0.510007 0.789854 -0.291656)
(-0.537567 0.862957 -0.359604)
(-0.528359 0.816067 -0.338969)
(-0.538082 0.86731 -0.364729)
(-0.545677 0.869806 -0.362971)
(-0.617642 0.820244 -0.215769)
(-0.579283 0.806979 -0.198277)
(-0.661077 0.878562 -0.253175)
(-0.675295 0.878644 -0.243645)
(-0.554404 0.769474 -0.182139)
(-0.620469 0.862192 -0.209054)
(-0.724812 0.851742 -0.276411)
(-0.693122 0.870704 -0.282301)
(-0.594358 0.820307 -0.189266)
(-0.5649 0.801199 -0.188034)
(-0.658694 0.823341 -0.246115)
(-0.617237 0.79902 -0.219116)
(-0.68709 0.873208 -0.248123)
(-0.593181 0.807244 -0.194345)
(-0.611959 0.840459 -0.20179)
(-0.345992 0.333811 -0.188)
(-0.301279 0.305275 -0.184749)
(-0.330436 0.347847 -0.206709)
(-0.36374 0.372304 -0.201133)
(-0.330597 0.335001 -0.191602)
(-0.299839 0.313365 -0.197103)
(-0.296712 0.305426 -0.172659)
(-0.377548 0.370319 -0.196397)
(-0.348203 0.348913 -0.211012)
(-0.375316 0.367116 -0.183599)
(-0.279795 0.319839 -0.196191)
(-0.286829 0.317291 -0.214128)
(-0.28624 0.322959 -0.220663)
(-0.259588 0.307879 -0.187309)
(-0.354718 0.343285 -0.168768)
(-0.321517 0.329316 -0.165032)
(-0.401458 0.373043 -0.169493)
(-0.316677 0.333733 -0.171663)
(-0.284297 0.307023 -0.159782)
(-0.319049 0.336872 -0.162691)
(-0.247651 0.339106 -0.225934)
(-0.194413 0.298062 -0.208739)
(-0.184904 0.285339 -0.192105)
(-0.190705 0.27808 -0.177922)
(-0.171828 0.25864 -0.161587)
(-0.276909 0.343323 -0.205304)
(-0.24276 0.327217 -0.164622)
(-0.259013 0.324948 -0.161453)
(-0.196043 0.297179 -0.193929)
(-0.211127 0.287122 -0.179183)
(-0.248116 0.318754 -0.178884)
(-0.202197 0.288295 -0.148099)
(-0.202646 0.293965 -0.155602)
(-0.19082 0.26998 -0.160789)
(-0.180106 0.260549 -0.158984)
(-0.219162 0.301181 -0.150377)
(-0.182346 0.272523 -0.163516)
(-0.168269 0.252615 -0.151195)
(-0.486597 0.43573 -0.189124)
(-0.54005 0.500206 -0.204068)
(-0.582097 0.58617 -0.23507)
(-0.512614 0.536277 -0.175479)
(-0.503329 0.452299 -0.19827)
(-0.556185 0.505558 -0.215815)
(-0.55075 0.576002 -0.207757)
(-0.512945 0.565511 -0.175096)
(-0.427122 0.486786 -0.147797)
(-0.452872 0.523461 -0.151305)
(-0.445594 0.486003 -0.159435)
(-0.48447 0.499769 -0.18182)
(-0.552792 0.519727 -0.215079)
(-0.539471 0.49833 -0.205997)
(-0.434395 0.43373 -0.176267)
(-0.429034 0.453381 -0.167307)
(-0.403009 0.439528 -0.148678)
(-0.456385 0.523629 -0.153674)
(-0.522285 0.58097 -0.196732)
(-0.448846 0.430111 -0.176375)
(-0.497884 0.478874 -0.202812)
(-0.562811 0.588603 -0.231129)
(-0.592131 0.860568 -0.400157)
(-0.558918 0.837832 -0.387453)
(-0.658857 0.898471 -0.386752)
(-0.644503 0.90606 -0.386212)
(-0.560415 0.856704 -0.405422)
(-0.532625 0.832536 -0.398779)
(-0.522065 0.834989 -0.397234)
(-0.522531 0.854351 -0.414156)
(-0.495411 0.823414 -0.38706)
(-0.661617 0.895811 -0.395863)
(-0.654042 0.883262 -0.388506)
(-0.513462 0.832464 -0.394593)
(-0.516092 0.852828 -0.40316)
(-0.540155 0.867698 -0.416558)
(-0.624138 0.898094 -0.408835)
(-0.631722 0.917788 -0.405731)
(-0.149771 0.43526 -0.312748)
(-0.154099 0.415782 -0.296524)
(-0.165888 0.463523 -0.329158)
(-0.139339 0.428827 -0.306322)
(-0.118662 0.372887 -0.266275)
(-0.209149 0.443777 -0.306758)
(-0.210275 0.446541 -0.303576)
(-0.200814 0.446185 -0.312154)
(-0.162257 0.405271 -0.299523)
(-0.18386 0.434993 -0.30642)
(-0.182257 0.457567 -0.327125)
(-0.141105 0.37015 -0.26109)
(-0.161576 0.373495 -0.279615)
(-0.139653 0.361204 -0.266265)
(-0.20407 0.475044 -0.327294)
(-0.117683 0.346044 -0.248081)
(-0.160996 0.375274 -0.274779)
(-0.20617 0.429444 -0.299858)
(-0.194627 0.426869 -0.290474)
(-0.163973 0.383547 -0.269495)
(-0.147942 0.359705 -0.26128)
(-0.132836 0.349398 -0.251464)
(-0.423228 0.832126 -0.335237)
(-0.456706 0.850091 -0.347683)
(-0.45509 0.837795 -0.350217)
(-0.438816 0.828526 -0.341054)
(-0.40312 0.813382 -0.330226)
(-0.426111 0.828034 -0.371273)
(-0.423203 0.810589 -0.355173)
(-0.579695 0.868912 -0.36539)
(-0.574058 0.864082 -0.369921)
(-0.492475 0.843474 -0.384034)
(-0.599595 0.860998 -0.372504)
(-0.588998 0.84467 -0.35025)
(-0.507095 0.850054 -0.368714)
(-0.583488 0.870009 -0.382531)