/*--------------------------------*- C++ -*----------------------------------*\
| =========                 |                                                 |
| \\      /  F ield         | OpenFOAM: The Open Source CFD Toolbox           |
|  \\    /   O peration     | Version:  v1612+                                |
|   \\  /    A nd           | Web:      www.OpenFOAM.com                      |
|    \\/     M anipulation  |                                                 |
\*---------------------------------------------------------------------------*/
FoamFile
{
    version     2.0;
    format      ascii;
    class       volVectorField;
    location    "50";
    object      U;
}
// * * * * * * * * * * * * * * * * * * * * * * * * * * * * * * * * * * * * * //

dimensions      [0 1 -1 0 0 0 0];

internalField   nonuniform List<vector> 
16915
(
(-0.297228 0.741155 -0.461893)
(-0.424102 0.763103 -0.392276)
(-0.14608 0.710542 -0.352223)
(-0.183336 0.345594 -0.181759)
(-0.200897 0.38298 -0.16659)
(-0.146553 0.335113 -0.135939)
(-0.162742 0.350343 -0.14616)
(-0.154412 0.290698 -0.15336)
(-0.13311 0.278321 -0.133357)
(-0.116604 0.261767 -0.122844)
(-0.109209 0.237385 -0.126384)
(-0.449512 0.662111 -0.272185)
(-0.497532 0.709952 -0.307212)
(-0.468002 0.677213 -0.270201)
(-0.529582 0.753107 -0.330919)
(-0.470754 0.676663 -0.2881)
(-0.428575 0.65264 -0.263758)
(-0.441215 0.681738 -0.24637)
(-0.414306 0.678343 -0.234167)
(-0.587946 0.795161 -0.364484)
(-0.542681 0.778903 -0.327494)
(-0.559844 0.798131 -0.34174)
(-0.56815 0.80606 -0.358229)
(-0.392067 0.640345 -0.232559)
(-0.461414 0.722195 -0.26022)
(-0.434058 0.704005 -0.235676)
(-0.513457 0.743622 -0.315187)
(-0.437134 0.690668 -0.261299)
(-0.468216 0.738899 -0.273115)
(-0.129408 0.24416 -0.0997716)
(-0.155949 0.255895 -0.104305)
(-0.140693 0.23896 -0.106368)
(-0.165756 0.253104 -0.131079)
(-0.235034 0.319563 -0.148899)
(-0.173833 0.260108 -0.128903)
(-0.152576 0.243471 -0.124718)
(-0.209989 0.311977 -0.143368)
(-0.163826 0.250508 -0.132377)
(-0.157327 0.736856 -0.375217)
(-0.0981468 0.656074 -0.322984)
(-0.148722 0.731161 -0.350973)
(-0.0817221 0.611893 -0.272704)
(-0.0777668 0.61406 -0.296422)
(-0.102378 0.653403 -0.301021)
(-0.413876 0.850318 -0.442442)
(-0.364389 0.872902 -0.412931)
(-0.407101 0.88602 -0.432471)
(-0.482714 0.926899 -0.471269)
(-0.347493 0.856436 -0.42588)
(-0.418054 0.916672 -0.497748)
(-0.495054 0.922779 -0.494973)
(-0.308144 0.847496 -0.401757)
(-0.310993 0.854398 -0.431947)
(-0.460309 0.914163 -0.505128)
(-0.481104 0.924018 -0.495152)
(-0.470028 0.857068 -0.426331)
(-0.477114 0.899857 -0.464863)
(-0.310962 0.862813 -0.414105)
(-0.298902 0.84549 -0.410646)
(-0.383207 0.873542 -0.409903)
(-0.378233 0.842958 -0.382222)
(-0.410676 0.863252 -0.415886)
(-0.37653 0.884621 -0.468635)
(-0.338148 0.859507 -0.419796)
(-0.0378928 0.500015 -0.371014)
(-0.112836 0.547001 -0.403861)
(-0.0647927 0.497523 -0.391406)
(-0.0433913 0.478395 -0.367386)
(-0.00868082 0.453256 -0.341136)
(-0.0281193 0.480123 -0.34889)
(-0.0509611 0.527775 -0.369862)
(-0.150675 0.560751 -0.399068)
(-0.141541 0.581689 -0.4009)
(-0.151221 0.634875 -0.402237)
(-0.129289 0.622109 -0.397089)
(-0.0480231 0.570194 -0.362798)
(-0.0525106 0.565208 -0.371287)
(-0.0563932 0.519732 -0.382537)
(-0.150419 0.614251 -0.400497)
(-0.027111 0.523269 -0.366724)
(-0.751229 0.81354 -0.422887)
(-0.704258 0.700565 -0.414764)
(-0.649017 0.701643 -0.402443)
(-0.629504 0.77801 -0.379341)
(-0.688184 0.76842 -0.386135)
(-0.655595 0.708751 -0.367249)
(-0.482779 0.733383 -0.332762)
(-0.541038 0.809055 -0.346434)
(-0.605818 0.780282 -0.376329)
(-0.548182 0.717698 -0.378466)
(-0.492854 0.762265 -0.366253)
(-0.578776 0.825636 -0.368784)
(-0.672065 0.83797 -0.473592)
(-0.671583 0.813008 -0.468307)
(-0.624527 0.828573 -0.4725)
(-0.639632 0.825747 -0.47334)
(-0.69199 0.875252 -0.505369)
(-0.688414 0.866091 -0.484767)
(-0.58948 0.85839 -0.490992)
(-0.61901 0.879639 -0.50498)
(-0.514086 0.784427 -0.391358)
(-0.495883 0.848321 -0.449624)
(-0.529286 0.835817 -0.441026)
(-0.547257 0.872463 -0.476895)
(-0.549592 0.825041 -0.422043)
(-0.676468 0.912885 -0.518182)
(-0.577705 0.890057 -0.507079)
(-0.514301 0.836137 -0.41476)
(-0.523371 0.878047 -0.463494)
(-0.610353 0.897876 -0.520556)
(-0.590358 0.90755 -0.51107)
(-0.306262 0.772267 -0.32035)
(-0.282426 0.77046 -0.33007)
(-0.342622 0.791592 -0.335233)
(-0.374564 0.784587 -0.344742)
(-0.424348 0.798771 -0.351781)
(-0.393505 0.778384 -0.327052)
(-0.36952 0.796837 -0.305835)
(-0.483119 0.773814 -0.370618)
(-0.422338 0.736119 -0.310992)
(-0.508174 0.857388 -0.414839)
(-0.519824 0.821366 -0.421406)
(-0.413011 0.734068 -0.31936)
(-0.164587 0.252207 -0.265786)
(-0.192672 0.260545 -0.26887)
(-0.174799 0.33087 -0.342971)
(-0.153066 0.326552 -0.345727)
(-0.252207 0.284929 -0.284598)
(-0.257759 0.311542 -0.308363)
(-0.128306 0.243498 -0.249178)
(-0.164235 0.280095 -0.292159)
(-0.151096 0.295421 -0.314032)
(-0.122211 0.259619 -0.272204)
(-0.253464 0.364911 -0.355683)
(-0.227844 0.354878 -0.34972)
(-0.165983 0.305034 -0.333473)
(-0.145015 0.280485 -0.294939)
(-0.17342 0.291889 -0.305457)
(-0.153671 0.269739 -0.276499)
(-0.293271 0.308162 -0.30565)
(-0.282978 0.329935 -0.326245)
(-0.188721 0.311644 -0.333196)
(-0.161988 0.274172 -0.285315)
(-0.143338 0.258281 -0.270195)
(-0.195824 0.265236 -0.28596)
(-0.786167 0.735027 -0.468876)
(-0.832173 0.756571 -0.489547)
(-0.813007 0.736602 -0.489123)
(-0.844053 0.77699 -0.502411)
(-0.825273 0.694715 -0.497035)
(-0.829495 0.739019 -0.489214)
(-0.772275 0.743348 -0.466918)
(-0.791833 0.782746 -0.509577)
(-0.745175 0.774071 -0.483971)
(-0.778501 0.732542 -0.490827)
(-0.721993 0.719251 -0.434111)
(-0.696336 0.762209 -0.466761)
(-0.789512 0.717175 -0.470371)
(-0.748711 0.774245 -0.482504)
(-0.711222 0.754964 -0.453504)
(-0.531774 1.0622 -0.499747)
(-0.472229 1.01497 -0.447372)
(-0.427227 0.90352 -0.391328)
(-0.414301 0.880311 -0.384311)
(-0.389301 0.921514 -0.374883)
(-0.470096 0.953115 -0.414494)
(-0.515341 1.00858 -0.469982)
(-0.497591 1.01146 -0.45449)
(-0.445477 0.928618 -0.421229)
(-0.437092 0.905964 -0.408611)
(-0.459483 0.953165 -0.430132)
(-0.427997 0.92963 -0.407388)
(-0.282666 0.282034 -0.272605)
(-0.425716 0.290412 -0.278037)
(-0.383066 0.292485 -0.261497)
(-0.318671 0.289518 -0.282177)
(-0.323155 0.289048 -0.28509)
(-0.339279 0.322071 -0.334461)
(-0.352938 0.299792 -0.289029)
(-0.379501 0.294621 -0.270753)
(-0.401331 0.28905 -0.2676)
(-0.329889 0.328154 -0.32135)
(-0.352473 0.354858 -0.348808)
(-0.418068 0.374985 -0.340292)
(-0.439673 0.379183 -0.342537)
(-0.479308 0.38395 -0.337544)
(-0.435129 0.327922 -0.318927)
(-0.504896 0.339345 -0.303947)
(-0.469132 0.320333 -0.282854)
(-0.447759 0.304912 -0.275322)
(-0.431095 0.339929 -0.306595)
(-0.510305 0.353136 -0.31521)
(-0.474051 0.315877 -0.285466)
(-0.234277 0.287189 -0.233119)
(-0.221332 0.285851 -0.227297)
(-0.324444 0.353351 -0.240004)
(-0.301069 0.319165 -0.228137)
(-0.278738 0.460556 -0.348795)
(-0.200962 0.301164 -0.274112)
(-0.175517 0.327842 -0.318638)
(-0.166346 0.276384 -0.254218)
(-0.202227 0.287707 -0.246713)
(-0.248001 0.304217 -0.245528)
(-0.251339 0.438432 -0.353378)
(-0.207198 0.397389 -0.350857)
(-0.343667 0.423379 -0.296642)
(-0.215009 0.312472 -0.270915)
(-0.187506 0.2947 -0.267929)
(-0.194241 0.345143 -0.316698)
(-0.299114 0.474034 -0.362861)
(-0.240074 0.39701 -0.337901)
(-0.229746 0.341043 -0.304477)
(-0.182893 0.308782 -0.282559)
(-0.303156 0.341182 -0.27248)
(-0.311118 0.355293 -0.305294)
(-0.436499 0.374208 -0.253976)
(-0.407011 0.360549 -0.23348)
(-0.346977 0.342527 -0.232692)
(-0.253934 0.303029 -0.254345)
(-0.280708 0.341441 -0.299248)
(-0.239249 0.291138 -0.235265)
(-0.37889 0.362007 -0.220624)
(-0.325863 0.337601 -0.233439)
(-0.390099 0.365399 -0.236214)
(-0.354859 0.355055 -0.242558)
(-0.393003 0.391694 -0.276208)
(-0.346532 0.361783 -0.280086)
(-0.812217 0.841951 -0.492238)
(-0.812374 0.839548 -0.480746)
(-0.760632 0.823854 -0.483532)
(-0.801901 0.855059 -0.494714)
(-0.829016 0.857801 -0.489179)
(-0.80112 0.867832 -0.506693)
(-0.782276 0.868739 -0.501174)
(-0.722101 0.881833 -0.470309)
(-0.725738 0.881188 -0.468111)
(-0.793306 0.851238 -0.486823)
(-0.740659 0.886272 -0.48012)
(-0.760252 0.874134 -0.476748)
(-0.704298 0.881768 -0.440469)
(-0.702328 0.877066 -0.443228)
(-0.698057 0.849713 -0.44306)
(-0.742697 0.877081 -0.458153)
(-0.730203 0.869305 -0.45876)
(-0.7682 0.868029 -0.489088)
(-0.222238 0.769625 -0.331126)
(-0.223614 0.787931 -0.335741)
(-0.259104 0.817492 -0.357047)
(-0.269161 0.827526 -0.378096)
(-0.240293 0.756232 -0.308024)
(-0.275096 0.755383 -0.305963)
(-0.321704 0.847873 -0.37498)
(-0.352927 0.902726 -0.450128)
(-0.313095 0.86505 -0.40657)
(-0.31255 0.758705 -0.313883)
(-0.357694 0.825322 -0.376292)
(-0.339171 0.851937 -0.378025)
(-0.418053 0.94729 -0.470178)
(-0.414876 0.893819 -0.419252)
(-0.251972 0.368273 -0.212819)
(-0.232556 0.371376 -0.215764)
(-0.250849 0.389302 -0.212308)
(-0.211767 0.359758 -0.200359)
(-0.260344 0.383448 -0.268183)
(-0.185243 0.296936 -0.212193)
(-0.155821 0.278814 -0.219581)
(-0.208361 0.362212 -0.282437)
(-0.17903 0.331634 -0.264095)
(-0.219716 0.358512 -0.25677)
(-0.266015 0.396891 -0.254028)
(-0.254723 0.394916 -0.272762)
(-0.184003 0.315558 -0.22455)
(-0.211076 0.352394 -0.269283)
(-0.172696 0.284963 -0.185637)
(-0.167867 0.281671 -0.208606)
(-0.219379 0.342275 -0.214613)
(-0.156591 0.270779 -0.19891)
(-0.308526 0.738047 -0.389991)
(-0.320185 0.74888 -0.389874)
(-0.335701 0.77464 -0.382544)
(-0.379987 0.913367 -0.444179)
(-0.375749 0.897796 -0.430612)
(-0.377583 0.890583 -0.418029)
(-0.318924 0.777687 -0.355127)
(-0.279102 0.70106 -0.328026)
(-0.364294 0.861229 -0.411287)
(-0.300503 0.724018 -0.349131)
(-0.29757 0.72105 -0.367921)
(-0.181072 0.335645 -0.106065)
(-0.172502 0.339865 -0.102851)
(-0.183655 0.297414 -0.108863)
(-0.199785 0.316972 -0.111899)
(-0.17129 0.342944 -0.0998825)
(-0.150954 0.337048 -0.0977785)
(-0.217324 0.383294 -0.139497)
(-0.224196 0.406026 -0.129778)
(-0.205242 0.330668 -0.139723)
(-0.226448 0.365286 -0.139352)
(-0.151989 0.268278 -0.107174)
(-0.125471 0.259881 -0.0981255)
(-0.178046 0.374594 -0.103903)
(-0.14112 0.293462 -0.0968761)
(-0.155361 0.270539 -0.116597)
(-0.149134 0.269536 -0.11479)
(-0.168834 0.352626 -0.100407)
(-0.175015 0.33798 -0.112233)
(-0.250268 0.459065 -0.383225)
(-0.272833 0.529784 -0.377046)
(-0.154192 0.404502 -0.379554)
(-0.13645 0.453769 -0.375067)
(-0.260892 0.409478 -0.378952)
(-0.172595 0.400858 -0.368232)
(-0.123821 0.480693 -0.359092)
(-0.151238 0.513809 -0.369946)
(-0.13706 0.40985 -0.358098)
(-0.093987 0.394767 -0.337491)
(-0.118005 0.469914 -0.356329)
(-0.100613 0.434228 -0.344677)
(-0.275259 0.388992 -0.249599)
(-0.29653 0.458423 -0.339771)
(-0.298485 0.472708 -0.343557)
(-0.296975 0.463931 -0.336179)
(-0.266034 0.389285 -0.276043)
(-0.228694 0.382049 -0.279505)
(-0.291242 0.4725 -0.316422)
(-0.203756 0.427241 -0.348626)
(-0.209908 0.408935 -0.332773)
(-0.263506 0.487566 -0.375126)
(-0.288117 0.500224 -0.371646)
(-0.20562 0.367508 -0.293254)
(-0.200109 0.35514 -0.289194)
(-0.199026 0.619175 -0.123884)
(-0.164434 0.604734 -0.127045)
(-0.19128 0.65575 -0.151596)
(-0.228307 0.638772 -0.144048)
(-0.221811 0.651307 -0.146653)
(-0.169889 0.642669 -0.150359)
(-0.141189 0.607231 -0.136877)
(-0.220727 0.709565 -0.187916)
(-0.323666 0.743625 -0.236393)
(-0.208176 0.723715 -0.208014)
(-0.188142 0.690837 -0.185028)
(-0.314627 0.706599 -0.210343)
(-0.203143 0.71026 -0.191993)
(-0.317649 0.752493 -0.252218)
(-0.300143 0.743304 -0.242885)
(-0.178094 0.604704 -0.41034)
(-0.17483 0.610113 -0.404569)
(-0.161628 0.608073 -0.403087)
(-0.21713 0.577463 -0.4131)
(-0.215336 0.680662 -0.399914)
(-0.218974 0.667666 -0.412385)
(-0.200612 0.690184 -0.39414)
(-0.176241 0.537089 -0.408393)
(-0.191005 0.566068 -0.407818)
(-0.34756 0.755691 -0.38376)
(-0.24095 0.709931 -0.342492)
(-0.251902 0.700767 -0.360573)
(-0.198947 0.694753 -0.327923)
(-0.327463 0.735455 -0.3836)
(-0.282858 0.746748 -0.401294)
(-0.262417 0.724255 -0.384367)
(-0.243523 0.699991 -0.368064)
(-0.38042 0.770735 -0.425956)
(-0.323074 0.730686 -0.402242)
(-0.279245 0.708016 -0.384039)
(-0.394522 0.772759 -0.44139)
(-0.423993 0.799821 -0.414276)
(-0.261383 0.704189 -0.382731)
(-0.392434 0.772465 -0.420849)
(-0.293397 0.721836 -0.402342)
(-0.32747 0.730379 -0.416908)
(-0.317655 0.726251 -0.405064)
(-0.241792 0.479742 -0.167388)
(-0.261707 0.542633 -0.186706)
(-0.233588 0.589312 -0.183688)
(-0.2109 0.547816 -0.161767)
(-0.274475 0.70369 -0.255952)
(-0.2099 0.597565 -0.182372)
(-0.20346 0.489545 -0.150591)
(-0.260597 0.481878 -0.187074)
(-0.224444 0.583106 -0.18558)
(-0.273633 0.632148 -0.231476)
(-0.21862 0.486833 -0.159916)
(-0.253399 0.469711 -0.174436)
(-0.322564 0.610719 -0.244909)
(-0.331841 0.635305 -0.262217)
(-0.295352 0.572008 -0.231731)
(-0.483073 0.898051 -0.40849)
(-0.535574 0.901598 -0.4384)
(-0.542709 0.786454 -0.432376)
(-0.56756 0.808258 -0.435057)
(-0.600211 0.84062 -0.4504)
(-0.606879 0.885955 -0.462564)
(-0.588952 0.862507 -0.463701)
(-0.538214 0.905644 -0.453084)
(-0.515196 0.888948 -0.414292)
(-0.466059 0.895963 -0.382856)
(-0.425812 0.810509 -0.421811)
(-0.40817 0.830451 -0.422299)
(-0.544631 0.902278 -0.415739)
(-0.474905 0.818036 -0.427964)
(-0.494716 0.823465 -0.43051)
(-0.448721 0.85114 -0.418896)
(-0.118635 0.311161 -0.295877)
(-0.100589 0.307735 -0.293281)
(-0.120082 0.329513 -0.31176)
(-0.183387 0.331648 -0.286408)
(-0.172267 0.339025 -0.305153)
(-0.1683 0.297188 -0.258757)
(-0.175122 0.290723 -0.235809)
(-0.162242 0.274779 -0.226613)
(-0.125173 0.248317 -0.223585)
(-0.164398 0.317133 -0.285339)
(-0.100108 0.261996 -0.243992)
(-0.10063 0.279207 -0.266674)
(-0.0889323 0.254889 -0.249264)
(-0.186543 0.296001 -0.232139)
(-0.134264 0.248076 -0.226995)
(-0.119501 0.257509 -0.258824)
(-0.12043 0.224606 -0.193985)
(-0.0859672 0.229875 -0.211217)
(-0.118908 0.216893 -0.191382)
(-0.0961475 0.213644 -0.197243)
(-0.106993 0.257672 -0.252203)
(-0.0967504 0.233637 -0.221307)
(-0.374103 0.849525 -0.515852)
(-0.349603 0.803369 -0.502423)
(-0.326377 0.827328 -0.501745)
(-0.276755 0.747516 -0.470671)
(-0.368522 0.846505 -0.508443)
(-0.348185 0.811873 -0.510928)
(-0.271451 0.731587 -0.462958)
(-0.298163 0.757401 -0.483449)
(-0.278088 0.768434 -0.490461)
(-0.220442 0.7237 -0.471313)
(-0.256338 0.722174 -0.471974)
(-0.252235 0.741039 -0.467826)
(-0.229324 0.720326 -0.465141)
(-0.195759 0.66285 -0.434499)
(-0.240669 0.706388 -0.456682)
(-0.31543 0.813678 -0.49733)
(-0.252056 0.771596 -0.489879)
(-0.212913 0.678203 -0.437511)
(-0.545917 0.924125 -0.525062)
(-0.563868 0.922418 -0.520899)
(-0.599003 0.958976 -0.562388)
(-0.623503 0.972821 -0.556954)
(-0.611623 0.974024 -0.548277)
(-0.620629 1.01649 -0.560963)
(-0.581341 0.974399 -0.541641)
(-0.500856 0.886203 -0.536805)
(-0.52032 0.937719 -0.548671)
(-0.486805 0.911029 -0.547292)
(-0.631019 0.983516 -0.546138)
(-0.516838 0.930649 -0.553095)
(-0.543148 0.96751 -0.553455)
(-0.598318 0.961492 -0.559236)
(-0.582514 0.985768 -0.561242)
(-0.611568 0.985534 -0.541983)
(-0.617589 0.963205 -0.555144)
(-0.546464 0.955698 -0.553853)
(-0.552321 0.976971 -0.547677)
(-0.35521 0.836955 -0.452163)
(-0.300336 0.788285 -0.442247)
(-0.253632 0.796218 -0.427822)
(-0.300708 0.896102 -0.449059)
(-0.386853 0.85648 -0.471129)
(-0.376807 0.860157 -0.475881)
(-0.306974 0.865136 -0.446764)
(-0.347134 0.901481 -0.462175)
(-0.361529 0.935218 -0.452433)
(-0.303855 0.895336 -0.452411)
(-0.317385 0.924515 -0.45096)
(-0.473709 1.03717 -0.496277)
(-0.393041 0.97954 -0.462162)
(-0.442076 1.00539 -0.501876)
(-0.399251 0.960205 -0.473804)
(-0.386008 0.913563 -0.465284)
(-0.440669 0.956036 -0.495239)
(-0.374247 0.94897 -0.461008)
(-0.450518 1.00986 -0.489849)
(-0.359842 0.940147 -0.453003)
(-0.438652 0.945493 -0.492515)
(-0.476824 0.997184 -0.500224)
(-0.575919 0.652471 -0.384473)
(-0.532139 0.537414 -0.310619)
(-0.574725 0.634527 -0.367831)
(-0.534621 0.538258 -0.332103)
(-0.572113 0.573125 -0.363216)
(-0.441136 0.498247 -0.358859)
(-0.49947 0.438023 -0.263035)
(-0.478799 0.428507 -0.271443)
(-0.425715 0.489619 -0.33869)
(-0.459636 0.469799 -0.304674)
(-0.478576 0.436424 -0.264696)
(-0.222712 0.452089 -0.170845)
(-0.225084 0.403275 -0.165597)
(-0.281687 0.55727 -0.221888)
(-0.295595 0.646537 -0.243733)
(-0.159733 0.381853 -0.142778)
(-0.152693 0.383253 -0.133836)
(-0.281429 0.483456 -0.211796)
(-0.241573 0.434749 -0.178125)
(-0.313284 0.590473 -0.248746)
(-0.210565 0.538127 -0.162754)
(-0.173387 0.415119 -0.131131)
(-0.183943 0.416751 -0.148716)
(-0.161224 0.414755 -0.134572)
(-0.227913 0.436453 -0.168324)
(-0.186312 0.459493 -0.146322)
(-0.0304828 0.501046 -0.349367)
(-0.0251269 0.459359 -0.331648)
(-0.0307935 0.445881 -0.334272)
(-0.0499494 0.510389 -0.368853)
(-0.0556321 0.553494 -0.375895)
(-0.0351721 0.502403 -0.352834)
(-0.135726 0.539814 -0.405788)
(-0.160766 0.604385 -0.432892)
(-0.139683 0.577554 -0.419707)
(-0.130846 0.540139 -0.407168)
(-0.0953586 0.573698 -0.406156)
(-0.0178168 0.416654 -0.313158)
(-0.104757 0.599889 -0.398572)
(-0.145936 0.594147 -0.423377)
(-0.129329 0.520997 -0.400495)
(-0.0683862 0.462971 -0.372859)
(-0.0523439 0.431861 -0.361472)
(-0.0677187 0.45593 -0.373974)
(-0.0530211 0.52487 -0.369086)
(-0.104847 0.591659 -0.398665)
(-0.0309891 0.458749 -0.346811)
(-0.0252348 0.430969 -0.334448)
(-0.13753 0.473931 -0.385237)
(-0.163914 0.406195 -0.366343)
(-0.258762 0.447461 -0.391106)
(-0.199477 0.420874 -0.389038)
(-0.281009 0.414364 -0.368794)
(-0.151122 0.445277 -0.384444)
(-0.137513 0.464745 -0.389841)
(-0.265524 0.475034 -0.385917)
(-0.334824 0.471456 -0.380242)
(-0.409112 0.517227 -0.378312)
(-0.376825 0.616868 -0.394153)
(-0.260365 0.537682 -0.399981)
(-0.298753 0.497716 -0.404065)
(-0.405402 0.531014 -0.373826)
(-0.39204 0.571638 -0.384181)
(-0.224734 0.532489 -0.400693)
(-0.273984 0.57749 -0.387363)
(-0.288044 0.602592 -0.396929)
(-0.159354 0.51978 -0.406187)
(-0.479677 0.792321 -0.413376)
(-0.483447 0.799025 -0.417932)
(-0.564373 0.870489 -0.415424)
(-0.428717 0.788679 -0.350062)
(-0.500477 0.791739 -0.41901)
(-0.47454 0.811511 -0.420164)
(-0.60395 0.73304 -0.418601)
(-0.639803 0.817003 -0.457707)
(-0.625142 0.74368 -0.426632)
(-0.51909 0.76413 -0.407008)
(-0.666404 0.98911 -0.471376)
(-0.563709 0.874596 -0.415026)
(-0.483589 0.785437 -0.420831)
(-0.605175 0.758163 -0.430769)
(-0.458247 0.77361 -0.37778)
(-0.465369 0.793759 -0.416895)
(-0.440082 0.702679 -0.347629)
(-0.459933 0.78284 -0.403384)
(-0.467654 0.762361 -0.409695)
(-0.44258 0.684841 -0.341492)
(-0.312551 0.477063 -0.269131)
(-0.331311 0.511444 -0.278311)
(-0.369007 0.568437 -0.271746)
(-0.374764 0.542503 -0.274275)
(-0.406901 0.675312 -0.391108)
(-0.403822 0.682825 -0.39051)
(-0.334203 0.506032 -0.306574)
(-0.33866 0.525237 -0.328681)
(-0.419947 0.693133 -0.384335)
(-0.37833 0.555248 -0.292625)
(-0.360737 0.539698 -0.345111)
(-0.385563 0.560247 -0.338017)
(-0.282843 0.563563 -0.166468)
(-0.256098 0.555937 -0.157835)
(-0.281505 0.69832 -0.22222)
(-0.256382 0.627083 -0.192244)
(-0.274299 0.558901 -0.157941)
(-0.239313 0.549329 -0.146368)
(-0.349222 0.694583 -0.269004)
(-0.359928 0.65749 -0.260779)
(-0.274046 0.709798 -0.233733)
(-0.219146 0.60794 -0.172377)
(-0.26691 0.568769 -0.162581)
(-0.22349 0.551843 -0.139879)
(-0.20637 0.581859 -0.152687)
(-0.251622 0.606141 -0.161816)
(-0.296692 0.564689 -0.165898)
(-0.343734 0.704385 -0.268169)
(-0.374587 0.678294 -0.259335)
(-0.230692 0.603133 -0.171549)
(-0.325134 0.691489 -0.224557)
(-0.309426 0.622166 -0.19108)
(-0.275801 0.703989 -0.237727)
(-0.283088 0.712186 -0.221787)
(-0.218898 0.31911 -0.21184)
(-0.214843 0.313948 -0.21895)
(-0.3141 0.420524 -0.246053)
(-0.277781 0.396748 -0.201606)
(-0.210501 0.33164 -0.253264)
(-0.266332 0.37904 -0.258381)
(-0.222806 0.313315 -0.207231)
(-0.300565 0.40901 -0.233077)
(-0.271147 0.391663 -0.278361)
(-0.263931 0.363768 -0.215548)
(-0.300595 0.445514 -0.321491)
(-0.284874 0.447633 -0.330621)
(-0.299674 0.43829 -0.316234)
(-0.263261 0.381246 -0.259159)
(-0.719647 0.807709 -0.441561)
(-0.70995 0.775382 -0.422236)
(-0.671887 0.567272 -0.373714)
(-0.768237 0.709383 -0.428512)
(-0.746939 0.672923 -0.414968)
(-0.689088 0.690481 -0.404072)
(-0.859639 0.833661 -0.50225)
(-0.817995 0.809506 -0.482308)
(-0.698065 0.653047 -0.389401)
(-0.667784 0.614885 -0.390314)
(-0.800658 0.809225 -0.486964)
(-0.837216 0.793523 -0.485912)
(-0.786096 0.753357 -0.471209)
(-0.758478 0.74467 -0.460325)
(-0.288662 0.404424 -0.381022)
(-0.296847 0.419571 -0.380582)
(-0.128466 0.357991 -0.34611)
(-0.135723 0.346487 -0.345404)
(-0.0903805 0.343468 -0.330496)
(-0.114812 0.447893 -0.377965)
(-0.113255 0.407266 -0.36264)
(-0.111764 0.418737 -0.365694)
(-0.089889 0.3794 -0.342917)
(-0.141724 0.390626 -0.356943)
(-0.126663 0.479489 -0.377256)
(-0.152232 0.47944 -0.380128)
(-0.141788 0.391625 -0.3666)
(-0.230252 0.493911 -0.378115)
(-0.268644 0.507159 -0.381717)
(-0.236585 0.438208 -0.388458)
(-0.43689 0.952713 -0.4865)
(-0.451561 0.922218 -0.477133)
(-0.39941 0.929422 -0.468607)
(-0.404934 0.953637 -0.4804)
(-0.359794 0.858578 -0.457573)
(-0.383119 0.936218 -0.463855)
(-0.305278 0.863444 -0.438402)
(-0.370861 0.952878 -0.443121)
(-0.325682 0.931272 -0.424482)
(-0.26138 0.864151 -0.392771)
(-0.277098 0.88578 -0.396208)
(-0.309329 0.900591 -0.432602)
(-0.234847 0.836492 -0.421491)
(-0.252027 0.862186 -0.405038)
(-0.256176 0.846359 -0.442146)
(-0.334853 0.625511 -0.406544)
(-0.271676 0.635546 -0.419545)
(-0.430314 0.658721 -0.397849)
(-0.417618 0.620516 -0.378125)
(-0.385974 0.624824 -0.396609)
(-0.341974 0.581122 -0.386477)
(-0.28816 0.704441 -0.426881)
(-0.348827 0.700941 -0.422232)
(-0.308307 0.658787 -0.420654)
(-0.332754 0.777385 -0.42393)
(-0.351682 0.722654 -0.418243)
(-0.459866 0.735024 -0.445391)
(-0.45048 0.814165 -0.441098)
(-0.444082 0.849192 -0.458482)
(-0.327892 0.716145 -0.425557)
(-0.252262 0.674688 -0.411034)
(-0.268692 0.741292 -0.411143)
(-0.441543 0.921573 -0.464181)
(-0.436776 0.724584 -0.439208)
(-0.4616 0.786804 -0.434456)
(-0.321606 0.775166 -0.429439)
(-0.375637 0.847424 -0.44182)
(-0.465171 0.844692 -0.462542)
(-0.389737 0.887026 -0.448564)
(-0.0557354 0.428193 -0.355506)
(-0.0273859 0.388353 -0.323803)
(-0.0710008 0.45337 -0.372363)
(-0.0545427 0.420698 -0.348794)
(-0.171283 0.620277 -0.430128)
(-0.128805 0.587725 -0.418293)
(-0.0297161 0.420294 -0.326907)
(-0.125038 0.605113 -0.412051)
(-0.120137 0.601137 -0.408273)
(-0.0719105 0.545065 -0.362727)
(-0.0458645 0.511736 -0.360005)
(-0.0405104 0.488735 -0.359792)
(-0.0284126 0.402536 -0.320029)
(-0.11856 0.510394 -0.398807)
(-0.142979 0.5601 -0.414477)
(-0.13643 0.580188 -0.416133)
(-0.040224 0.471519 -0.344612)
(-0.0635826 0.469209 -0.361587)
(-0.872804 0.803521 -0.502273)
(-0.862637 0.782408 -0.508119)
(-0.828149 0.812175 -0.494534)
(-0.821154 0.835472 -0.495324)
(-0.811731 0.749023 -0.502012)
(-0.817562 0.859233 -0.515905)
(-0.19368 0.28137 -0.159198)
(-0.182242 0.274044 -0.16331)
(-0.314691 0.422292 -0.186629)
(-0.349429 0.442853 -0.246577)
(-0.284007 0.353642 -0.181613)
(-0.279832 0.353557 -0.174937)
(-0.335292 0.430895 -0.221193)
(-0.333348 0.403922 -0.244858)
(-0.234686 0.316582 -0.159411)
(-0.229219 0.33209 -0.150865)
(-0.236472 0.302253 -0.17274)
(-0.255777 0.337658 -0.159001)
(-0.208902 0.284724 -0.178506)
(-0.209506 0.303961 -0.234346)
(-0.206535 0.297135 -0.201325)
(-0.277019 0.380221 -0.267988)
(-0.268717 0.367041 -0.247635)
(-0.298845 0.37334 -0.225253)
(-0.303369 0.417815 -0.27894)
(-0.217457 0.316444 -0.22951)
(-0.299792 0.391496 -0.222295)
(-0.275705 0.389478 -0.273679)
(-0.119019 0.695943 -0.363719)
(-0.112721 0.673274 -0.370199)
(-0.0841801 0.642839 -0.342242)
(-0.10341 0.690719 -0.361437)
(-0.109197 0.67383 -0.363548)
(-0.195133 0.782915 -0.427601)
(-0.157462 0.739632 -0.409685)
(-0.123289 0.70262 -0.360081)
(-0.167911 0.742485 -0.42503)
(-0.270067 0.863259 -0.475313)
(-0.205917 0.794614 -0.409598)
(-0.137375 0.716742 -0.397321)
(-0.222619 0.809593 -0.457085)
(-0.242496 0.818067 -0.448993)
(-0.232246 0.819053 -0.433338)
(-0.278826 0.842574 -0.443385)
(-0.306261 0.870291 -0.466778)
(-0.233631 0.817983 -0.442306)
(-0.219935 0.828568 -0.434616)
(-0.248345 0.835927 -0.408777)
(-0.17834 0.766114 -0.377832)
(-0.299956 0.859291 -0.451886)
(-0.298665 0.862588 -0.464639)
(-0.234651 0.812945 -0.450478)
(-0.415869 0.684078 -0.451434)
(-0.453354 0.737189 -0.471591)
(-0.407259 0.685511 -0.442296)
(-0.388164 0.668737 -0.4282)
(-0.505541 0.789298 -0.483979)
(-0.538804 0.803798 -0.483738)
(-0.578259 0.814923 -0.484392)
(-0.604024 0.855288 -0.508083)
(-0.475414 0.694671 -0.429581)
(-0.466684 0.694493 -0.408737)
(-0.49153 0.697874 -0.41335)
(-0.464723 0.682538 -0.402525)
(-0.536827 0.750194 -0.432664)
(-0.57417 0.782581 -0.447503)
(-0.555825 0.817228 -0.482902)
(-0.43606 0.683054 -0.423462)
(-0.48426 0.708587 -0.409834)
(-0.463033 0.73262 -0.453839)
(-0.461647 0.695045 -0.420104)
(-0.397053 0.423081 -0.232116)
(-0.457103 0.452287 -0.243434)
(-0.431204 0.477538 -0.223631)
(-0.359215 0.396482 -0.199047)
(-0.396803 0.422634 -0.24054)
(-0.381305 0.517034 -0.197079)
(-0.3271 0.399558 -0.173764)
(-0.485575 0.548761 -0.283901)
(-0.439946 0.506369 -0.260735)
(-0.462536 0.484408 -0.273494)
(-0.499937 0.538528 -0.294888)
(-0.443383 0.517296 -0.233188)
(-0.358387 0.386637 -0.199269)
(-0.334761 0.419446 -0.169309)
(-0.38229 0.488456 -0.197599)
(-0.480139 0.588752 -0.287658)
(-0.447684 0.556417 -0.266972)
(-0.376322 0.855214 -0.485472)
(-0.385924 0.86962 -0.485637)
(-0.34033 0.800659 -0.46986)
(-0.357736 0.848672 -0.496444)
(-0.391077 0.857152 -0.469495)
(-0.36444 0.817719 -0.460328)
(-0.339549 0.811791 -0.484975)
(-0.379054 0.861709 -0.498937)
(-0.293139 0.692431 -0.405432)
(-0.303072 0.709182 -0.406928)
(-0.289873 0.691188 -0.416324)
(-0.295136 0.697636 -0.414609)
(-0.375962 0.84169 -0.476424)
(-0.335075 0.780101 -0.471911)
(-0.309808 0.74713 -0.458589)
(-0.297321 0.747194 -0.468793)
(-0.308795 0.705235 -0.423672)
(-0.300661 0.695628 -0.421268)
(-0.28834 0.713245 -0.435462)
(-0.328952 0.771594 -0.45495)
(-0.289278 0.725906 -0.453561)
(-0.285543 0.696418 -0.437494)
(-0.164875 0.704223 -0.220431)
(-0.142356 0.690202 -0.215253)
(-0.135149 0.694308 -0.229666)
(-0.117929 0.657696 -0.206901)
(-0.292798 0.795122 -0.336377)
(-0.252544 0.807507 -0.342915)
(-0.225161 0.747547 -0.252427)
(-0.27162 0.765892 -0.277746)
(-0.161039 0.713301 -0.224925)
(-0.118768 0.674912 -0.220136)
(-0.08888 0.660261 -0.229515)
(-0.132419 0.713966 -0.26885)
(-0.104847 0.69012 -0.25105)
(-0.290786 0.822638 -0.363935)
(-0.285905 0.808437 -0.376814)
(-0.273917 0.814607 -0.357781)
(-0.233501 0.771916 -0.294809)
(-0.254431 0.756867 -0.272922)
(-0.173547 0.75159 -0.271882)
(-0.151735 0.746812 -0.306376)
(-0.140532 0.723344 -0.272006)
(-0.167303 0.741232 -0.316466)
(-0.13277 0.712188 -0.283632)
(-0.278321 0.81018 -0.361623)
(-0.308173 0.805228 -0.343823)
(-0.247463 0.785857 -0.299929)
(-0.178518 0.419412 -0.349256)
(-0.185524 0.419318 -0.350821)
(-0.174798 0.403738 -0.343946)
(-0.179498 0.470728 -0.380628)
(-0.14807 0.416589 -0.361933)
(-0.153369 0.364679 -0.330902)
(-0.140935 0.414419 -0.354485)
(-0.154396 0.462809 -0.38772)
(-0.0860632 0.3282 -0.312931)
(-0.101801 0.332388 -0.318598)
(-0.0912689 0.367194 -0.332345)
(-0.110961 0.354092 -0.332915)
(-0.0694869 0.361406 -0.330491)
(-0.0886713 0.423114 -0.364305)
(-0.0960249 0.325411 -0.312073)
(-0.0739554 0.301068 -0.287457)
(-0.0912839 0.385987 -0.351839)
(-0.0726366 0.379831 -0.341189)
(-0.0633608 0.322982 -0.306474)
(-0.113441 0.21021 -0.124432)
(-0.110843 0.214152 -0.11634)
(-0.105955 0.208332 -0.137019)
(-0.105629 0.221718 -0.190544)
(-0.155783 0.272622 -0.206547)
(-0.0915675 0.189443 -0.150603)
(-0.0888884 0.182308 -0.11999)
(-0.114584 0.211238 -0.152616)
(-0.0952323 0.188473 -0.13905)
(-0.13471 0.224036 -0.142607)
(-0.179821 0.485608 -0.161299)
(-0.227389 0.601324 -0.217102)
(-0.243263 0.59811 -0.420192)
(-0.258759 0.625737 -0.429695)
(-0.265326 0.611663 -0.426198)
(-0.241933 0.63083 -0.434072)
(-0.188826 0.565355 -0.420722)
(-0.191257 0.531928 -0.421178)
(-0.223989 0.580149 -0.427011)
(-0.183253 0.52915 -0.41873)
(-0.212587 0.634498 -0.431822)
(-0.208993 0.641689 -0.437895)
(-0.205994 0.711443 -0.450657)
(-0.203997 0.685329 -0.449822)
(-0.249554 0.718338 -0.458778)
(-0.272214 0.739572 -0.464031)
(-0.246683 0.708806 -0.449819)
(-0.242255 0.706688 -0.455728)
(-0.200837 0.658794 -0.439642)
(-0.215139 0.734998 -0.459642)
(-0.230699 0.718619 -0.468997)
(-0.268895 0.748347 -0.47887)
(-0.221541 0.741256 -0.462991)
(-0.237638 0.750702 -0.47125)
(-0.313595 0.832227 -0.500247)
(-0.234367 0.7439 -0.452406)
(-0.325965 0.832785 -0.495383)
(-0.304072 0.794491 -0.477168)
(-0.293655 0.814011 -0.48847)
(-0.278514 0.817133 -0.49293)
(-0.296802 0.812558 -0.491681)
(-0.347455 0.910011 -0.538155)
(-0.35012 0.866133 -0.508427)
(-0.336117 0.846374 -0.498221)
(-0.265796 0.741728 -0.462211)
(-0.307889 0.806102 -0.487985)
(-0.34329 0.829836 -0.49209)
(-0.668891 0.475369 -0.321517)
(-0.686055 0.473296 -0.334291)
(-0.488748 0.398075 -0.199815)
(-0.479472 0.363189 -0.200101)
(-0.607425 0.463844 -0.260105)
(-0.503298 0.412954 -0.193359)
(-0.511805 0.392617 -0.199684)
(-0.468647 0.357276 -0.203114)
(-0.494901 0.404926 -0.196688)
(-0.550505 0.435255 -0.233778)
(-0.518017 0.399447 -0.218222)
(-0.607662 0.471309 -0.252752)
(-0.507243 0.379499 -0.218541)
(-0.579419 0.399212 -0.271593)
(-0.497821 0.606591 -0.33081)
(-0.502724 0.589085 -0.354471)
(-0.488548 0.596878 -0.327603)
(-0.494593 0.626835 -0.329521)
(-0.479964 0.604313 -0.328836)
(-0.560814 0.674652 -0.391844)
(-0.461084 0.581251 -0.342259)
(-0.486799 0.599892 -0.366612)
(-0.451748 0.587875 -0.355944)
(-0.508738 0.642955 -0.370743)
(-0.602224 0.704656 -0.433245)
(-0.606548 0.704224 -0.429457)
(-0.523151 0.622997 -0.367789)
(-0.514203 0.649374 -0.389386)
(-0.469706 0.61516 -0.372404)
(-0.630167 0.798585 -0.513784)
(-0.561406 0.775932 -0.493434)
(-0.548744 0.778826 -0.497299)
(-0.541258 0.776594 -0.49054)
(-0.533561 0.801303 -0.495396)
(-0.506695 0.771803 -0.489092)
(-0.485598 0.769871 -0.472179)
(-0.436589 0.749612 -0.450908)
(-0.358283 0.690656 -0.438044)