/*--------------------------------*- C++ -*----------------------------------*\
| =========                 |                                                 |
| \\      /  F ield         | OpenFOAM: The Open Source CFD Toolbox           |
|  \\    /   O peration     | Version:  v1612+                                |
|   \\  /    A nd           | Web:      www.OpenFOAM.com                      |
|    \\/     M anipulation  |                                                 |
\*---------------------------------------------------------------------------*/
FoamFile
{
    version     2.0;
    format      ascii;
    class       volVectorField;
    location    "150";
    object      wallShearStress;
}
// * * * * * * * * * * * * * * * * * * * * * * * * * * * * * * * * * * * * * //

dimensions      [0 2 -2 0 0 0 0];

internalField   uniform (0 0 0);

boundaryField
{
    WALL
    {
        type            calculated;
        value           nonuniform List<vector> 
1504
(
(-0.0135855 -0.0273299 -0.00383566)
(-0.00940121 -0.0265732 -0.00909198)
(-0.00185352 -0.02392 -0.0167436)
(-0.00321335 -0.02512 -0.0133007)
(-0.00884471 -0.00887149 0.0040232)
(-0.0109734 -0.00941386 0.00483828)
(-0.00868018 -0.00688445 0.00525412)
(-0.00618692 -0.00583434 0.00340418)
(-0.0106846 -0.0179953 -0.00821362)
(-0.0104583 -0.0189667 -0.0083237)
(-0.0130487 -0.0201623 -0.00819572)
(-0.0121326 -0.0208096 -0.00891919)
(-0.0145403 -0.0197146 -0.00772223)
(-0.0150195 -0.0203086 -0.00856862)
(-0.0108092 -0.00514239 -0.00636353)
(-0.0116293 -0.00548615 -0.00931324)
(-0.0242036 -0.014985 0.00339471)
(-0.00723508 -0.00529714 9.09451e-05)
(-0.0163667 -0.0163373 -0.0072754)
(-0.0177432 -0.0184111 -0.00755488)
(-0.00365219 -0.00518876 0.00246405)
(-0.00385799 -0.00628315 0.00229131)
(-0.0122131 -0.00882545 -0.00360462)
(-0.0128851 -0.0118404 -0.00270711)
(-0.00968813 -0.0076598 -0.000791043)
(-0.00978944 -0.00560754 -0.00228523)
(-0.0120512 -0.00810099 -0.00374699)
(-0.0128421 -0.00938506 -0.00555431)
(-0.0143428 -0.0245024 -0.00252164)
(-0.0143303 -0.0204334 -0.00230105)
(0.00244173 -0.0161408 -0.0101941)
(0.00252254 -0.0137589 -0.00694673)
(-0.0044648 -0.0232003 -0.0240217)
(-0.00851408 -0.0215779 -0.0250011)
(0.00110857 -0.0191921 -0.0154934)
(-0.000784649 -0.0196939 -0.0181115)
(-0.00275409 -0.0236473 -0.0226541)
(6.86324e-06 -0.0221475 -0.0186323)
(-0.00935239 -0.0252641 0.000217672)
(-0.0206771 -0.0247443 0.00769908)
(-0.00485429 -0.0124638 -0.00101067)
(-0.0034218 -0.0111186 0.000220947)
(-0.00675481 -0.012876 -0.00196802)
(-0.00912525 -0.0143519 -0.00315845)
(0.00623959 0.0022432 -0.00583028)
(0.00679082 0.00330235 -0.00678034)
(-0.0165264 -0.0157775 -0.000878074)
(-0.0153535 -0.0168177 -0.00300131)
(-0.0123725 -0.0170795 -0.00636086)
(-0.00957992 -0.0157642 -0.00570387)
(-0.0266814 -0.0126408 0.0274293)
(-0.02315 -0.0111894 0.0235299)
(-0.0147683 -0.00835612 0.0118787)
(-0.0171908 -0.0111415 0.0114171)
(-0.00446607 0.000494987 -0.00549075)
(-0.00753118 -0.00101859 -0.0100257)
(-0.0192152 -0.0211468 -0.0112278)
(-0.0175448 -0.0197433 -0.0152457)
(-0.0156922 -0.0134118 -0.0065294)
(-0.0145735 -0.012163 -0.00849109)
(-0.0205254 -0.0256311 -0.00890598)
(-0.0197503 -0.0200226 -0.0107308)
(-0.0194684 -0.0221051 -0.00875427)
(-0.0211312 -0.0108887 0.0205622)
(-0.0182458 -0.00875161 0.0178219)
(-0.0039841 -0.00204437 0.00164622)
(-0.00184402 -0.00128123 0.00168041)
(-0.028769 -0.0155241 -0.0116309)
(-0.0211834 -0.0115613 -0.00909665)
(-0.0321308 -0.0186903 -0.00495452)
(-0.0179379 -0.00929976 -0.00601274)
(-0.0214304 -0.0134577 -0.00995265)
(-0.0261891 -0.0137322 -0.0055132)
(-0.0108105 -0.00847443 -0.00228187)
(-0.0108632 -0.0103282 -0.00118908)
(-0.00928203 -0.00758039 2.16136e-05)
(-0.0119208 -0.00758252 -0.00479179)
(-0.0100783 -0.00682842 -0.00181608)
(-0.0125488 -0.0087085 -0.00405952)
(-0.00718436 -0.0124832 0.000273008)
(-0.00571948 -0.00954416 0.0011994)
(-0.00445814 -0.00957175 0.00121768)
(-0.00620551 -0.0106911 0.000787836)
(-0.00552883 -0.0115163 0.000792771)
(-0.00642914 -0.0131046 0.000485807)
(-0.0141588 -0.0168058 -0.00603714)
(-0.013954 -0.0175994 -0.00465086)
(-0.0124316 -0.0183978 -0.00920542)
(-0.0136535 -0.0214865 -0.00642856)
(-0.0130741 -0.0202367 -0.00863261)
(-0.00537782 -0.0208317 -0.0249122)
(-0.00112537 -0.0241252 -0.021549)
(-0.005591 -0.0220341 -0.0255995)
(-0.00613199 -0.0230096 -0.0239257)
(-0.00499925 -0.0221183 -0.0227557)
(-0.000943734 -0.0227812 -0.023488)
(-0.00897336 -0.0110895 0.0033382)
(-0.00225922 -0.00235094 6.47662e-05)
(-0.00137294 -0.00354633 0.00023808)
(-0.0110603 -0.00738004 0.00241681)
(0.000822326 -0.000201603 0.000566101)
(-0.0170281 -0.0141011 0.00529346)
(-0.0100856 -0.0195118 -0.0082584)
(-0.0118901 -0.0190794 -0.00758934)
(-0.0130322 -0.0185127 -0.00793789)
(-0.0128452 -0.0198202 -0.00855878)
(-0.0131269 -0.020074 -0.0082424)
(-0.012751 -0.0204283 -0.00864673)
(-0.0145463 -0.0214204 -0.00975103)
(-0.0134047 -0.0202987 -0.00882103)
(-0.00962819 -0.00535156 -0.000886121)
(-0.00887846 -0.00471797 0.000973719)
(-0.0100353 -0.00582599 0.00131947)
(-0.0108215 -0.0071978 -6.20021e-06)
(-0.0108491 -0.00684371 -0.000467376)
(-0.00880864 -0.00489279 0.000960143)
(-0.00176253 -0.0103079 0.00133844)
(-0.00246083 -0.0128424 0.000404926)
(-0.00288903 -0.0121419 0.00106198)
(-0.00196154 -0.0114666 0.000633135)
(-0.00211902 -0.0103455 0.00160166)
(-0.045419 -0.0167558 0.0409512)
(-0.051717 -0.020832 0.0443306)
(-0.0391523 -0.01675 0.0380019)
(-0.0467977 -0.0235718 0.0390655)
(-0.0473374 -0.0194746 0.0381058)
(-0.0437616 -0.0218487 0.0401237)
(-0.0507372 -0.0191554 0.0205483)
(-0.057428 -0.0214941 0.0355341)
(-0.0538921 -0.0191299 0.0338496)
(-0.061778 -0.0278158 0.0312435)
(-0.0553933 -0.0228162 0.0297064)
(-0.0542613 -0.0208828 0.0322047)
(-0.00850798 -0.0137861 -0.00191634)
(-0.00652393 -0.0134089 -0.00185328)
(-0.00698239 -0.0120639 -0.000704004)
(-0.00955059 -0.0132159 -0.000714397)
(-0.00796865 -0.0119219 -0.000365142)
(-0.00964904 -0.0138712 -0.00198031)
(-0.0178038 -0.0214933 -0.00638982)
(-0.0182486 -0.0204011 -0.00733491)
(-0.016938 -0.0197154 -0.00638066)
(-0.0189263 -0.0222882 -0.0074138)
(-0.0182203 -0.0220696 -0.00718912)
(-0.0177503 -0.0209661 -0.00707419)
(-0.0205775 -0.0259046 -0.00840059)
(-0.0190213 -0.0235391 -0.00787308)
(-0.0188724 -0.0201745 -0.00975624)
(-0.0174283 -0.0177771 -0.00890248)
(-0.0196889 -0.0204832 -0.0117947)
(-0.020465 -0.0213653 -0.011023)
(-0.0188554 -0.0209029 -0.00913197)
(-0.0185341 -0.0201795 -0.00852563)
(-0.00602655 -0.0210018 -0.02249)
(-0.00871107 -0.0207803 -0.0226077)
(-0.0104521 -0.0216504 -0.0224302)
(-0.00756736 -0.0217678 -0.0236335)
(-0.0102875 -0.021071 -0.024106)
(-0.0108105 -0.0198426 -0.0220095)
(-0.0197256 -0.0211641 -0.0117677)
(-0.0190545 -0.0201638 -0.0131811)
(-0.0204856 -0.023406 -0.011244)
(-0.0205965 -0.0210678 -0.0151112)
(-0.0209991 -0.0233781 -0.011741)
(0.00176472 0.0023549 0.000154733)
(0.000651224 0.000627306 0.000539825)
(0.00347574 0.0035232 0.00074462)
(0.00158518 0.0010527 0.000208698)
(0.00294921 0.00160294 0.00104639)
(0.0026553 0.00222962 0.00117522)
(-0.00818171 -0.00422454 -0.00382381)
(-0.00227201 0.000201358 -0.00207935)
(-0.00558809 -0.00150488 -0.00391823)
(-0.0151052 -0.00875344 -0.00911959)
(-0.00421351 -0.00166245 -0.00177745)
(-0.00768097 -0.00245754 -0.00637927)
(-0.0134215 -0.012304 -0.0174307)
(-0.0136328 -0.0136716 -0.0177732)
(-0.0133899 -0.0163282 -0.0160335)
(-0.0129218 -0.0146458 -0.0174158)
(-0.0136071 -0.0175826 -0.0150123)
(-0.0147158 -0.0169859 -0.0170465)
(-0.011113 -0.00646174 -0.0162808)
(-0.0117474 -0.00609294 -0.0153868)
(-0.0126357 -0.0099868 -0.0174994)
(-0.0115667 -0.00643504 -0.01524)
(-0.0124307 -0.00924556 -0.0180477)
(-0.0103747 -0.00425988 -0.0135707)
(-0.012567 -0.0109176 -0.0173976)
(-0.0111848 -0.00724722 -0.0135087)
(-0.00932635 -0.00293582 -0.0116837)
(-0.0100919 -0.0054176 -0.012385)
(-0.0111478 -0.00711026 -0.015048)
(-0.00809686 -0.00328691 -0.0101643)
(0.00363039 0.00262 0.00134473)
(0.00563928 0.00391576 0.00183895)
(0.00491663 0.00380286 0.00183874)
(0.00406447 0.00341317 0.00156987)
(0.00452412 0.00171565 0.0012649)
(0.0038467 0.00192281 0.00115065)
(-0.0129702 -0.019267 -0.00788333)
(-0.0130648 -0.0199155 -0.00798787)
(-0.0133522 -0.0201194 -0.0081656)
(-0.0129466 -0.0203723 -0.008198)
(-0.0145853 -0.0204365 -0.00824612)
(-0.0152723 -0.0197804 -0.00714304)
(-0.0125044 -0.0211746 -0.00809182)
(-0.0116094 -0.0224294 -0.0083556)
(-0.0135033 -0.0220773 -0.00845881)
(-0.0133248 -0.0230579 -0.0084901)
(-0.0127644 -0.0214986 -0.00857725)
(-0.0221102 -0.0100954 0.0230342)
(-0.0251355 -0.010342 0.0264317)
(-0.0213069 -0.0158708 0.0154963)
(-0.0215631 -0.0132407 0.0173467)
(-0.0246717 -0.0153828 0.0221754)
(-0.0240237 -0.0161709 0.0189232)
(-0.0216444 -0.0222603 0.00992035)
(-0.0224635 -0.0230821 0.0130259)
(-0.0213363 -0.0182592 0.0134562)
(-0.0210349 -0.018551 0.0102778)
(-0.0181309 -0.0208157 0.00661582)
(-0.0220057 -0.0204024 0.013915)
(-0.0157165 -0.0150191 0.00369301)
(-0.014791 -0.0168383 -0.00159025)
(-0.017085 -0.0168917 0.00398296)
(-0.0162234 -0.0153511 0.00175113)
(-0.0168342 -0.0183531 0.000929977)
(-0.0172521 -0.0195234 0.00305694)
(-0.0114697 -0.00568783 0.0114778)
(-0.0114393 -0.00593958 0.00857956)
(-0.0145174 -0.00970668 0.00747134)
(-0.0146494 -0.00799379 0.00999717)
(-0.0119167 -0.00682086 0.00735062)
(-0.0129334 -0.00620621 0.0122489)
(-0.0141214 -0.00965428 0.00554539)
(-0.0124929 -0.00824528 0.00470732)
(-0.0144088 -0.0111991 0.00370166)
(-0.0122288 -0.00782197 0.00314934)
(-0.0119988 -0.00903745 0.000855443)
(-0.0138796 -0.0104374 0.00221566)
(-0.0401218 -0.0221343 0.0153515)
(-0.0391439 -0.022629 0.00399567)
(-0.0380188 -0.0196967 0.00572296)
(-0.0320935 -0.0195411 0.00393537)
(-0.0315136 -0.0198346 0.00709223)
(-0.0372408 -0.0204295 0.0109637)
(-0.0198595 -0.0133892 0.00991987)
(-0.0261528 -0.0152781 0.0153865)
(-0.0278786 -0.01758 0.0113888)
(-0.0224233 -0.0139956 0.0121321)
(-0.0227074 -0.0155139 0.00813165)
(-0.0249683 -0.0149574 0.015156)
(-0.057862 -0.0204609 0.0395698)
(-0.0497225 -0.020597 0.0378516)
(-0.053811 -0.018543 0.0406131)
(-0.0489504 -0.0155704 0.0369786)
(-0.052648 -0.0187692 0.0324227)
(-0.0578971 -0.0248347 0.0375554)
(-0.0139372 -0.0198931 -0.0133649)
(-0.0145653 -0.0202744 -0.0113322)
(-0.015859 -0.020084 -0.0118276)
(-0.0174334 -0.0212913 -0.0150541)
(-0.0162911 -0.0213562 -0.0139807)
(-0.0160028 -0.0209016 -0.0107142)
(-0.0211796 -0.0205844 -0.0176573)
(-0.0159569 -0.0187271 -0.0169371)
(-0.0172978 -0.0155046 -0.019581)
(-0.0196125 -0.016896 -0.0183253)
(-0.0177378 -0.0184031 -0.0193878)
(-0.0177754 -0.0192275 -0.0186033)
(-0.0194621 -0.0216128 -0.0122157)
(-0.0208888 -0.0215238 -0.0113746)
(-0.0228141 -0.0207754 -0.0145667)
(-0.0224827 -0.0207033 -0.0118146)
(-0.0208455 -0.0202015 -0.0139971)
(-0.0201967 -0.0212405 -0.0137605)
(-0.0318743 -0.0241142 -0.00876919)
(-0.0325743 -0.0223456 -0.00310257)
(-0.0309354 -0.0205562 -0.00805508)
(-0.0265077 -0.0210704 -0.0055045)
(-0.026627 -0.0212908 -0.00707327)
(-0.0301435 -0.0211474 -0.00398032)
(-0.0270358 -0.0194438 0.00136279)
(-0.0257202 -0.0183032 0.00408471)
(-0.0217096 -0.0171341 0.00329361)
(-0.0212871 -0.0179256 -0.000430601)
(-0.0219492 -0.0160665 0.00418291)
(-0.0242564 -0.0193281 0.00112713)
(0.0015311 0.00126895 -0.00178283)
(0.00581793 0.00143085 -0.00493065)
(0.000511483 0.00136584 -0.001038)
(0.00213206 0.00143052 -0.00222839)
(0.00594157 0.00237777 -0.0056154)
(0.00383504 0.00184922 -0.00366088)
(0.00394048 0.00163543 -0.00399899)
(-0.00531897 -0.00150915 0.00525231)
(-0.00411981 0.0002109 0.00442284)
(-0.0020345 1.68094e-05 0.00191451)
(-0.00284264 0.000676882 0.00271867)
(-0.00628501 -0.000707317 0.00625073)
(-0.00277333 -0.000966336 0.00253457)
(0.000519337 -0.000952172 -0.000104172)
(-0.000340886 -0.000192107 0.000322352)
(0.00405544 0.00154953 -0.00322055)
(0.00436243 0.000955383 -0.00309228)
(0.00301942 -6.2084e-05 -0.00195603)
(0.000853813 0.00091408 -0.000566052)
(-0.000865918 -0.00390145 0.000576086)
(0.000494117 -0.00230682 -0.000102853)
(-0.000431858 -0.0038395 0.000381811)
(0.00218812 -0.00349065 -0.000789349)
(0.00192529 -0.00174832 -0.0010302)
(-0.00408103 -0.0126027 0.001034)
(-0.00316235 -0.00800665 0.00167917)
(-0.00369873 -0.0111294 0.00110289)
(-0.00379291 -0.00914272 0.00152473)
(-0.0044468 -0.0113378 0.00110982)
(-0.00303073 -0.00919012 0.00167603)
(-0.00514352 -0.0126234 -0.00144115)
(-0.00334827 -0.013401 -0.00124192)
(-0.00546646 -0.0120778 -0.000944793)
(-0.00351181 -0.0121947 -2.2903e-05)
(-0.00475617 -0.0135085 -0.0015128)
(-0.00374278 -0.0119016 -0.000428283)
(-0.00206131 -0.0106806 0.00104687)
(-0.00123044 -0.00907871 0.00142551)
(-0.00032212 -0.00771005 0.00103275)
(-0.000319141 -0.00707128 0.00146817)
(-0.00186287 -0.00910795 0.00104517)
(-0.00215174 -0.0103614 0.000579547)
(-0.00219965 -0.00494919 0.00223629)
(-0.00256408 -0.00550134 0.00223705)
(-0.00159029 -0.0048154 0.00195249)
(-0.00295558 -0.00611427 0.00206347)
(-0.0018631 -0.00536966 0.0018269)
(-0.00781977 -0.00336199 -0.000663822)
(-0.00683832 -0.00300323 0.000906705)
(-0.00606557 -0.00298438 0.0015196)
(-0.00926024 -0.00404179 -0.00091447)
(-0.00841614 -0.00369686 -0.000203982)
(-0.00707364 -0.00313881 0.000319246)
(-0.00299586 -0.00320327 0.00241765)
(-0.00496013 -0.00345041 0.00227008)
(-0.0037915 -0.00265519 0.00206473)
(-0.00231994 -0.00292249 0.00241016)
(-0.00439358 -0.00385 0.00269592)
(-0.00245207 -0.00270827 0.00234759)
(-0.00510843 -0.00285722 0.00939066)
(-0.00334966 -0.00250444 0.00839536)
(-0.00639322 -0.00323357 0.0135227)
(-0.00603775 -0.00285595 0.0113195)
(-0.00253674 -0.00236099 0.00900935)
(-0.00862857 -0.00459026 0.00300435)
(-0.00909388 -0.00459629 0.00579768)
(-0.0102671 -0.00594597 0.00349465)
(-0.0100072 -0.00574866 0.0042767)
(-0.0082171 -0.00429716 0.00433735)
(-0.00860207 -0.0037521 -0.000402535)
(-0.00747065 -0.00298479 3.48976e-05)
(-0.00549747 -0.00241225 0.00166888)
(-0.00745928 -0.00335847 0.00104817)
(-0.00604576 -0.00235089 0.000544493)
(-0.00489005 -0.00226346 0.00191089)
(-0.0151258 -0.0300924 0.00168067)
(-0.0113896 -0.0294536 -0.00349055)
(-0.0103437 -0.028269 -0.00481149)
(-0.0115545 -0.0289749 -0.000742323)
(-0.0145266 -0.0280023 0.0010095)
(-0.0135021 -0.0284249 -0.00266789)
(-0.0118289 -0.0255516 -0.00721514)
(-0.0103403 -0.0292053 -0.00793016)
(-0.00549895 -0.0177896 -0.00285018)
(-0.00641801 -0.0168667 -0.000703766)
(-0.0051654 -0.0164055 -0.000530801)
(-0.00590168 -0.0152281 -0.000189411)
(-0.00637743 -0.0183455 -0.00227602)
(-0.00532683 -0.0176081 -0.00227239)
(-0.0156517 -0.0216594 -0.0153428)
(-0.0129095 -0.0178125 -0.0157498)
(-0.0140637 -0.0180955 -0.0189659)
(-0.0151931 -0.021499 -0.0126811)
(-0.0140933 -0.0193101 -0.014185)
(-0.014921 -0.0197503 -0.0164776)
(-0.0154167 -0.0115693 -0.0180128)
(-0.0134979 -0.0109933 -0.0180379)
(-0.0139974 -0.0126213 -0.0205176)
(-0.014641 -0.0126137 -0.0186191)
(-0.0137841 -0.0139807 -0.0201369)
(-0.015068 -0.0146908 -0.019048)
(-0.0129651 -0.0182092 -0.0167399)
(-0.0148066 -0.0190086 -0.0165156)
(-0.0121437 -0.0146984 -0.0178942)
(-0.0133154 -0.018995 -0.0140011)
(-0.0128516 -0.0143707 -0.0185501)
(-0.0144343 -0.0189323 -0.0175939)
(-0.0136528 -0.0198566 -0.00754746)
(-0.0131144 -0.0202478 -0.00793044)
(-0.0134007 -0.0224094 -0.00860638)
(-0.0416064 -0.0243613 0.0294656)
(-0.0464784 -0.0246616 0.0330691)
(-0.0279249 -0.0271521 0.0185456)
(-0.0396495 -0.0273422 0.0262763)
(-0.0360913 -0.0223407 0.0185449)
(-0.0455129 -0.0274264 0.0289852)
(-0.0523653 -0.0265332 0.0219334)
(-0.0313014 -0.0179572 0.00926392)
(-0.0552316 -0.028275 0.0287489)
(-0.0371192 -0.0185316 0.0103421)
(-0.0542397 -0.0256143 0.0296252)
(-0.039071 -0.0239065 0.0177897)
(0.00545683 0.000826162 -0.00241323)
(0.00662549 0.00258854 -0.00484251)
(0.00631896 0.00251089 -0.0047098)
(0.00608171 0.00135626 -0.0034944)
(0.00626988 0.00169372 -0.00374214)
(0.00579832 0.000789013 -0.00249705)
(0.00368379 -0.000358566 -0.000864478)
(0.00470016 0.000466637 -0.00185493)
(0.00496463 0.000640934 -0.00209303)
(0.00339384 -0.000586938 -0.000323392)
(0.00296898 -0.00068898 -0.00020423)
(0.00435698 1.95764e-05 -0.00111848)
(0.000973013 -0.000830431 0.00201465)
(-0.000726191 -0.00134058 0.00277067)
(0.00214894 -0.000846603 0.00185342)
(0.00059662 -0.000796828 0.0018061)
(0.000157855 -0.00142304 0.00373286)
(-0.00122536 -0.00145462 0.00321821)
(0.000621677 -0.0181039 -0.00803535)
(0.0011653 -0.0212071 -0.010908)
(-6.62991e-05 -0.020541 -0.00760987)
(-0.00190005 -0.0229538 -0.00918468)
(-0.000132107 -0.0225741 -0.0128965)
(-0.00244185 -0.0257684 -0.0170341)
(-0.00119185 -0.0233634 -0.0119157)
(-9.14334e-05 -0.0228758 -0.0153418)
(0.00608272 0.000475684 0.00127888)
(0.00577797 0.000419238 0.00077342)
(0.00446683 -0.00422839 -0.00135614)
(0.00443844 -0.00423395 -0.000900877)
(0.00542635 -0.00110701 0.000474509)
(0.0041543 -0.00272927 -0.000562169)
(0.00331797 -0.00673882 -0.00285295)
(0.00279724 -0.0104685 -0.00517931)
(0.00363109 -0.00785544 -0.00340937)
(0.00233242 -0.00956115 -0.00449058)
(0.00321735 -0.00619389 -0.0023386)
(0.00291292 -0.010931 -0.00571249)
(-0.00526564 -0.021669 -0.0232889)
(-0.00272513 -0.0215566 -0.0223839)
(-0.000804656 -0.0211265 -0.0199343)
(0.000679845 -0.0199943 -0.0213514)
(-0.0027541 -0.0228697 -0.0233366)
(-0.00358808 -0.0217846 -0.0241698)
(-0.000468277 -0.020479 -0.018474)
(0.0029902 -0.0153024 -0.0104693)
(0.00245653 -0.0183111 -0.0125833)
(0.00181491 -0.0202638 -0.015427)
(0.00161377 -0.0185871 -0.0137691)
(-0.00889761 -0.0235535 -0.015626)
(-0.00715174 -0.0227936 -0.0197863)
(-0.00677348 -0.0243809 -0.0200569)
(-0.00843912 -0.0259662 -0.0156423)
(-0.00852343 -0.0223217 -0.0179964)
(-0.00676377 -0.0255932 -0.0173832)
(-0.006824 -0.00929932 0.00151061)
(-0.00853565 -0.00787099 0.000303848)
(-0.00903113 -0.00931547 0.000323631)
(-0.00720937 -0.00998664 0.000972975)
(-0.00734509 -0.0083468 0.00151654)
(-0.00886384 -0.0106969 0.000468398)
(-0.00705314 -0.00440363 0.000925399)
(-0.00829534 -0.00444356 -0.000323084)
(-0.00625102 -0.00411338 0.00157239)
(-0.00859724 -0.00454565 0.000105872)
(-0.00942859 -0.00469555 -0.000827199)
(-0.00743034 -0.00425203 0.00119551)
(-0.00308117 -0.00479588 0.00263154)
(-0.00520269 -0.00493776 0.0022406)
(-0.00465459 -0.0052241 0.00222236)
(-0.00355691 -0.00438886 0.00261357)
(-0.00474307 -0.00432216 0.00218634)
(-0.0123778 -0.0157845 -0.00262486)
(-0.0144385 -0.0171288 -0.00389144)
(-0.016333 -0.0198628 -0.00517739)
(-0.015143 -0.0182315 -0.00465408)
(-0.0142272 -0.0186186 -0.00418374)
(-0.0137208 -0.0176052 -0.00336287)
(-0.0158705 -0.0268043 -0.00863877)
(-0.0134481 -0.0247226 -0.00824363)
(-0.0142812 -0.0263696 -0.00830072)
(-0.0126144 -0.0234071 -0.00809589)
(-0.014367 -0.0240646 -0.00824214)
(-0.0142333 -0.0253894 -0.00795593)
(-0.00926617 -0.0215176 -0.00325637)
(-0.0109282 -0.0183965 -0.00179401)
(-0.00826917 -0.0202927 -0.00265241)
(-0.00894093 -0.0159393 -0.00119198)
(-0.00826624 -0.0176326 -0.00114217)
(-0.00902887 -0.0204713 -0.0032824)
(-0.00960457 -0.0199158 -0.00278142)
(-0.0101406 -0.0234336 -0.00838317)
(-0.0108316 -0.0214184 -0.00862502)
(-0.0108598 -0.0206508 -0.00832875)
(-0.0101859 -0.0233204 -0.00836381)
(-0.0090839 -0.0212373 -0.00843531)
(-0.0104033 -0.0230999 -0.00905068)
(-0.0188062 -0.0256951 -0.00719801)
(-0.0173898 -0.0258497 -0.00642525)
(-0.0167137 -0.0227247 -0.00566382)
(-0.0179661 -0.0226861 -0.0063104)
(-0.0178321 -0.0237898 -0.00659722)
(-0.0168304 -0.0252846 -0.00605392)
(-0.019149 -0.0284304 -0.00811425)
(-0.0158242 -0.0286599 -0.0082107)
(-0.0157278 -0.0279422 -0.00756213)
(-0.019295 -0.0270323 -0.00816288)
(-0.0172404 -0.027309 -0.00733416)
(-0.0166138 -0.0276269 -0.00833771)
(-0.0170009 -0.0266081 -0.00784718)
(0.0042704 0.000375942 -0.00279828)
(0.00506219 4.4536e-05 -0.00254292)
(0.00479555 0.000929408 -0.00393921)
(0.00375288 -7.15655e-05 -0.00157187)
(0.00507071 0.000993111 -0.00406847)
(0.00366946 -0.000311672 -0.00112124)
(0.00566792 0.00216178 -0.00468974)
(0.00472671 0.000348607 -0.00235468)
(0.00561523 0.00116293 -0.00365958)
(0.0049249 0.00125214 -0.00359437)
(0.0059283 0.00143531 -0.00438013)
(0.00288999 -0.000739323 0.000197273)
(0.00296424 -0.000803071 0.000863999)
(0.00199568 -0.000951896 0.00158547)
(0.00402316 -0.000465663 -0.000383404)
(0.00376043 -0.000241368 -0.00106836)
(0.00235265 -0.000967588 0.00119595)
(-0.051662 -0.0222676 0.0157752)
(-0.0423417 -0.0203966 0.00285663)
(-0.056504 -0.0233705 0.013324)
(-0.0406057 -0.0214297 0.00381532)
(-0.0531216 -0.0267396 0.011279)
(-0.0445183 -0.0219199 0.0103238)
(-0.00989242 -0.0276081 -0.000586694)
(-0.00681013 -0.020248 -0.000953452)
(-0.00559165 -0.0246054 -0.00516688)
(-0.00865749 -0.0271912 -0.00389052)
(-0.00304105 -0.0170535 -0.000897675)
(-0.0038431 -0.021567 -0.00398338)
(-0.0138298 -0.0192849 -0.00756735)
(-0.0150933 -0.0194178 -0.00708086)
(-0.0139577 -0.0197691 -0.0137372)
(-0.0159828 -0.0215683 -0.0108743)
(-0.014489 -0.020269 -0.0119255)
(-0.0163979 -0.0214283 -0.00809024)
(-0.0154906 -0.0202739 -0.00910012)
(-0.0138566 -0.0191962 -0.0104164)
(-0.0133804 -0.0194179 -0.0103263)
(-0.0148383 -0.0207739 -0.0107918)
(-0.0153197 -0.0211258 -0.00990546)
(-0.0146341 -0.0209509 -0.0127691)
(-0.0139383 -0.0197931 -0.0101423)
(-0.014958 -0.0205208 -0.00910728)
(-0.00704466 -0.016874 -0.00584786)
(-0.00721697 -0.0183759 -0.00579353)
(-0.00577183 -0.0163974 -0.00457109)
(-0.00711991 -0.0169304 -0.00512428)
(-0.00589033 -0.0178371 -0.00485313)
(-0.00597628 -0.0169032 -0.00392724)
(-0.0099867 -0.0174177 -0.00700431)
(-0.0091339 -0.0170957 -0.00681411)
(-0.0114361 -0.0170384 -0.00631302)
(-0.00950987 -0.0165298 -0.00543633)
(-0.011308 -0.0173881 -0.00662293)
(-0.00947636 -0.0156634 -0.00452419)
(-0.000528556 -0.00334773 0.00204456)
(-0.00174118 -0.00389154 0.0025294)
(-0.00172183 -0.00425458 0.00250715)
(-0.000609024 -0.00365049 0.00197853)
(-0.0010703 -0.00403358 0.00223674)
(-0.00114223 -0.00314544 0.00222717)
(0.000507265 -0.00312462 0.00124687)
(0.0014301 -0.00294395 0.000677222)
(0.00207918 -0.00187241 0.000337739)
(0.000553098 -0.0036293 0.00099906)
(0.00122432 -0.00185603 0.000801953)
(0.000657383 -0.00279819 0.00134438)
(-0.0139404 -0.00843124 0.0100784)
(-0.0193277 -0.010773 0.0139539)
(-0.0150537 -0.0101273 0.00911567)
(-0.0179323 -0.0112855 0.0121992)
(-0.0168857 -0.00854232 0.0147846)
(-0.014559 -0.00731903 0.012177)
(-0.00287958 -0.00272769 0.00237037)
(-0.00327916 -0.00393065 0.00193278)
(-0.00624413 -0.00459335 0.00439616)
(-0.0047764 -0.00322238 0.00389681)
(-0.00359687 -0.00229737 0.00293232)
(-0.018862 -0.0146515 0.00574894)
(-0.0138691 -0.0125995 0.00265214)
(-0.0158537 -0.0133809 0.00460659)
(-0.0152333 -0.0108382 0.00713473)
(-0.0178727 -0.0129811 0.00745077)
(-0.0148799 -0.0120415 0.00645195)
(0.00149733 0.00256605 0.000419187)
(0.00259748 0.00326751 0.000977519)
(-0.00121358 0.0016592 -0.00155764)
(-0.00542125 0.000122538 -0.00599114)
(-0.00471355 -0.000225738 -0.00479983)
(-0.0023739 0.00146146 -0.00291761)
(0.000878064 0.00293987 -9.57346e-05)
(-0.00814318 -0.00307988 0.00772386)
(-0.0105026 -0.0170627 -0.00722824)
(-0.0105027 -0.0184981 -0.00741877)
(-0.0105711 -0.0200607 -0.00825333)
(-0.00920642 -0.0193494 -0.00767616)
(-0.00872462 -0.0206189 -0.00763853)
(-0.00772744 -0.0205664 -0.00693438)
(-0.00805959 -0.0203667 -0.00641745)
(-0.00928302 -0.0181809 -0.0071663)
(-0.00731917 -0.0187417 -0.00653186)
(-0.00863808 -0.0192981 -0.00734048)
(-0.00908402 -0.0179558 -0.00662444)
(-0.00777079 -0.0160675 -0.00490232)
(-0.0146774 -0.0203014 -0.00893264)
(-0.0139278 -0.0199952 -0.00900664)
(-0.0140174 -0.0204458 -0.00942683)
(-0.0148386 -0.0202368 -0.0119486)
(-0.0154261 -0.0201449 -0.00788197)
(-0.0155976 -0.0197167 -0.00660785)
(-0.0143531 -0.0192556 -0.00872937)
(-0.015275 -0.0212575 -0.00956952)
(-0.0163311 -0.0207605 -0.00805323)
(-0.0154167 -0.020191 -0.00807851)
(-0.016703 -0.0203023 -0.0072461)
(-0.014564 -0.0193759 -0.00883266)
(-0.014316 -0.0183249 -0.0066519)
(-0.0148129 -0.0199114 -0.00776774)
(-0.0160975 -0.0201964 -0.00715931)
(-0.0264199 -0.0182471 -0.0144646)
(-0.0235883 -0.0170126 -0.0185525)
(-0.0245597 -0.0184822 -0.0170007)
(-0.0273054 -0.0213557 -0.0126785)
(-0.0226389 -0.0144649 -0.0131942)
(-0.0195808 -0.015582 -0.0168712)
(-0.0188558 -0.0109121 -0.0149991)
(-0.0202483 -0.0137771 -0.0171246)
(-0.0174057 -0.0127283 -0.0175523)
(-0.0326289 -0.0212711 -0.0130743)
(-0.0303333 -0.0212902 -0.010589)
(-0.0321639 -0.0180401 -0.0103124)
(-0.0381266 -0.0227734 -0.00534844)
(-0.0417431 -0.0213518 0.00344853)
(-0.0414696 -0.0247694 0.00130943)
(-0.0364187 -0.0212483 -0.00664909)
(-0.0344491 -0.0225529 -0.00977904)
(-0.048126 -0.024754 0.00330206)
(-0.0424008 -0.0226806 -0.00018668)
(-0.0443823 -0.0230033 -0.00241911)
(-0.0476922 -0.0216289 0.00690948)
(0.00449115 -0.000273694 -0.000883808)
(0.00447434 -0.000108869 -0.00138909)
(0.00528741 9.43391e-05 -0.00169895)
(0.00566247 0.000846877 -0.00289628)
(0.00488979 0.000531688 -0.00294305)
(0.00290815 -0.000649056 -4.92658e-05)
(-0.0160277 -0.0276128 -0.00649669)
(-0.0111955 -0.0257248 -0.00847693)
(-0.0168658 -0.026807 -0.00712932)
(-0.0132431 -0.026213 -0.00761609)
(-0.0118123 -0.0256872 -0.00824)
(-0.0126679 -0.025304 -0.00837502)
(-0.0133245 -0.025735 -0.00899632)
(-0.00864893 -0.0224417 -0.006973)
(-0.00881513 -0.0219675 -0.0064691)
(-0.00835894 -0.0210509 -0.00474142)
(-0.0102422 -0.024684 -0.00687148)
(-0.0107333 -0.0244384 -0.00684291)
(-0.0147739 -0.0263142 -0.0064351)
(-0.0122463 -0.0254372 -0.00664184)
(-0.0120091 -0.024602 -0.0051818)
(-0.0136038 -0.0264282 -0.00688563)
(-0.0157376 -0.0258994 -0.00585038)
(-0.0155882 -0.0239804 -0.00528421)
(-0.0120846 -0.0227512 -0.00417771)
(-0.0124826 -0.0217898 -0.00334033)
(-0.0088307 -0.0233188 -0.00564663)
(-0.00760478 -0.0207264 -0.00428753)
(-0.0110416 -0.0221189 -0.00480289)
(-0.0110856 -0.0221215 -0.00865115)
(-0.0115451 -0.0239985 -0.00889277)
(-0.0118116 -0.024267 -0.00901631)
(-0.0120147 -0.0224102 -0.00883623)
(-0.0122856 -0.0220601 -0.00858027)
(-0.0119112 -0.0244485 -0.00930471)
(-0.0123989 -0.0211661 -0.00851221)
(-0.0135671 -0.0192439 -0.007648)
(-0.0120102 -0.019725 -0.00827637)
(-0.0168651 -0.0281356 -0.00856616)
(-0.0145255 -0.02095 -0.0042046)
(-0.0162471 -0.0213618 -0.00511111)
(-0.00529678 -0.00393681 0.00212546)
(-0.00484742 -0.0258953 -0.00962462)
(-0.00344387 -0.024755 -0.00850073)
(-0.00464627 -0.0270117 -0.0129732)
(-0.0104893 -0.00550213 -0.00529797)
(-0.0110691 -0.00653683 -0.00423139)
(-0.0114235 -0.00663034 -0.00534733)
(-0.0109166 -0.00747911 -0.00613341)
(-0.0108513 -0.00809651 -0.00619973)
(-0.0106792 -0.00797543 -0.00832702)
(-0.0106668 -0.00533388 -0.00297958)
(-0.00966601 -0.00487182 -0.00210411)
(-0.0102712 -0.00525126 -0.0037498)
(-0.0112662 -0.0067693 -0.00243104)
(-0.0106753 -0.00632883 -0.00203502)
(-0.0110639 -0.0056869 -0.0057808)
(-0.0112234 -0.0067869 -0.00793869)
(-0.0111696 -0.00614339 -0.00487659)
(-0.0115905 -0.00645935 -0.00620804)
(-0.010401 -0.00589194 -0.00604738)
(-0.0118564 -0.00794926 -0.00850208)
(-0.0113404 -0.00770858 -0.00762974)
(-0.0120792 -0.0144323 -0.00204145)
(-0.0120362 -0.0134284 -0.00176714)
(-0.0132248 -0.0140195 -0.00303725)
(-0.0143656 -0.0152162 -0.00412459)
(-0.0135838 -0.0127886 -0.0038418)
(-0.012142 -0.0115593 -0.00176895)
(-0.00966221 -0.0116146 -0.000176238)
(-0.0115048 -0.0124865 -0.00135509)
(-0.00756089 -0.011152 0.000477797)
(-0.00541864 -0.00839737 0.00160932)
(-0.00916727 -0.00609086 -0.000592066)
(-0.00653522 -0.00509736 0.0017115)
(-0.00863511 -0.00531427 -0.000260976)
(-0.00882571 -0.00709054 0.000341983)
(-0.0081655 -0.00565499 0.000508019)
(-0.00741605 -0.00547369 0.00124729)
(-0.00643836 -0.00589466 0.00163084)
(-0.0064534 -0.00745944 0.00186415)
(-0.0072321 -0.00677037 0.00158041)
(-0.0111649 -0.00739314 -0.00861591)
(-0.0106727 -0.00622865 -0.0042563)
(-0.0122565 -0.00801086 -0.0077605)
(-0.0116665 -0.00663682 -0.00575155)
(-0.013084 -0.00890222 -0.00834104)
(-0.0136888 -0.0105651 -0.00921028)
(-0.0123118 -0.00803514 -0.00719408)
(-0.00347784 -0.00581595 0.00233854)
(-0.00517697 -0.00725764 0.0021893)
(-0.00499549 -0.0080584 0.00201205)
(-0.00510415 -0.00587587 0.00217949)
(-0.00411691 -0.00772594 0.00193346)
(-0.00389875 -0.00715843 0.00202873)
(-0.00475074 -0.00652637 0.00223426)
(-0.0081827 -0.0119739 -0.000150038)
(-0.00983075 -0.012955 -0.000503708)
(-0.0104776 -0.0137632 -0.00143343)
(-0.0140581 -0.0191488 -0.00365639)
(-0.0123668 -0.0190857 -0.00274446)
(-0.0119015 -0.0156972 -0.00209211)
(-0.0125265 -0.0166277 -0.00301186)
(-0.00827306 -0.0142106 -0.000251394)
(-0.0110001 -0.0175188 -0.00186204)
(-0.00894589 -0.0138128 -0.00058913)
(-0.0101733 -0.0149239 -0.00136049)
(-0.0116035 -0.0248592 -0.00805754)
(-0.00731318 -0.0278732 -0.012848)
(-0.00538435 -0.0264195 -0.013973)
(-0.00534425 -0.0262714 -0.0167813)
(-0.00839513 -0.0274331 -0.0134514)
(-0.0103048 -0.0267179 -0.0114093)
(-0.0115219 -0.00914179 -0.00971651)
(-0.0113913 -0.00945027 -0.00944153)
(-0.0115199 -0.010156 -0.0104805)
(-0.0124913 -0.00954458 -0.0108794)
(-0.0112824 -0.0113798 -0.0140283)
(-0.0116552 -0.00993688 -0.0119423)
(-0.0117461 -0.0155082 -0.0165961)
(-0.0115418 -0.0119895 -0.014385)
(-0.0126177 -0.00943039 -0.0116693)
(-0.0116898 -0.00815189 -0.0110236)
(-0.0119453 -0.0112207 -0.0129502)
(-0.0126814 -0.01018 -0.0114029)
(-0.0120715 -0.0122769 -0.0152947)
(-0.0133794 -0.0119805 -0.0139474)
(-0.0114925 -0.0237285 -0.0105605)
(-0.0105131 -0.0234709 -0.0141233)
(-0.00988726 -0.0241818 -0.0120926)
(-0.0116431 -0.0211617 -0.010479)
(-0.0119385 -0.0205982 -0.0124319)
(-0.010236 -0.0213727 -0.0143949)
(-0.0102736 -0.0164803 -0.0174034)
(-0.0101134 -0.018779 -0.0187237)
(-0.00981081 -0.0206901 -0.017857)
(-0.0111868 -0.0203154 -0.0155743)
(-0.0122219 -0.0130911 -0.0118569)
(-0.0110608 -0.0153631 -0.014958)
(-0.0115363 -0.0173694 -0.0147975)
(-0.0118978 -0.0135224 -0.0139885)
(-0.01204 -0.0103616 -0.00694672)
(-0.0121428 -0.0112079 -0.00938423)
(-0.0119246 -0.0183354 -0.0123783)
(-0.0117506 -0.0165261 -0.0129444)
(-0.0112175 -0.0139159 -0.0124388)
(-0.0121824 -0.0128294 -0.00980008)
(-0.012958 -0.017075 -0.0097877)