/*--------------------------------*- C++ -*----------------------------------*\
| =========                 |                                                 |
| \\      /  F ield         | OpenFOAM: The Open Source CFD Toolbox           |
|  \\    /   O peration     | Version:  v1612+                                |
|   \\  /    A nd           | Web:      www.OpenFOAM.com                      |
|    \\/     M anipulation  |                                                 |
\*---------------------------------------------------------------------------*/
FoamFile
{
    version     2.0;
    format      ascii;
    class       volVectorField;
    location    "200";
    object      wallShearStress;
}
// * * * * * * * * * * * * * * * * * * * * * * * * * * * * * * * * * * * * * //

dimensions      [0 2 -2 0 0 0 0];

internalField   uniform (0 0 0);

boundaryField
{
    WALL
    {
        type            calculated;
        value           nonuniform List<vector> 
1482
(
(-0.00892079 -0.0115691 -0.00400307)
(-0.00873679 -0.0115567 -0.00413393)
(-0.0100952 -0.0120997 -0.00468243)
(-0.00947207 -0.0108123 -0.00448918)
(-0.00901478 -0.0113145 -0.00396975)
(-0.00867673 -0.0112873 -0.00415293)
(-0.00877063 -0.0111357 -0.00406914)
(-0.00913651 -0.011467 -0.00385348)
(-0.00861107 -0.0114528 -0.00385715)
(-0.00857175 -0.0113742 -0.00384074)
(-0.00815886 -0.0103314 -0.00294749)
(-0.00861876 -0.0105237 -0.00329424)
(-0.00826315 -0.010208 -0.00322241)
(-0.00832281 -0.00984237 -0.0037695)
(-0.00794079 -0.0103878 -0.00311064)
(-0.00798625 -0.0103325 -0.0031989)
(-0.00767688 -0.00970654 -0.00315631)
(-0.00797398 -0.00951594 -0.00337523)
(-0.00931938 -0.0116218 -0.00398826)
(-0.00878391 -0.0110918 -0.0041131)
(-0.00915625 -0.0115572 -0.00390427)
(-0.00840405 -0.0111648 -0.00417282)
(-0.0091219 -0.0114431 -0.0037026)
(-0.00856311 -0.0109104 -0.00409209)
(-0.0100803 -0.0131165 -0.00453499)
(-0.0102297 -0.0128928 -0.00437552)
(-0.007993 -0.010532 -0.00339997)
(-0.00873662 -0.01147 -0.00372191)
(-0.00709321 -0.00902603 -0.00304918)
(-0.00722407 -0.00942342 -0.00301519)
(-0.00813168 -0.0105175 -0.00356632)
(-0.00821396 -0.0108126 -0.00372047)
(-0.00867953 -0.0103698 -0.00343391)
(-0.00893308 -0.0104099 -0.00390367)
(-0.00996582 -0.0112785 -0.00467443)
(-0.0101609 -0.0122579 -0.00458136)
(-0.00910191 -0.0110832 -0.00343434)
(-0.00928233 -0.0118844 -0.00354612)
(-0.00884211 -0.0120582 -0.0045958)
(-0.00961924 -0.0123109 -0.00450756)
(-0.00867249 -0.0114282 -0.00429785)
(-0.00858379 -0.0109406 -0.00379847)
(-0.00913996 -0.0120062 -0.00447876)
(-0.00938591 -0.0120937 -0.00487372)
(-0.00867903 -0.0113206 -0.00388881)
(-0.00948743 -0.012629 -0.00449816)
(-0.00813103 -0.0102451 -0.00339998)
(-0.00755707 -0.00924335 -0.00379504)
(-0.00855344 -0.0107139 -0.00376088)
(-0.00768689 -0.0103945 -0.00394688)
(-0.00843517 -0.0104099 -0.00335511)
(-0.00799265 -0.0101628 -0.00308994)
(-0.00768652 -0.0105173 -0.00322595)
(-0.0082593 -0.0110485 -0.0035643)
(-0.00833106 -0.0109894 -0.00348812)
(-0.00863991 -0.011333 -0.0036237)
(-0.00875785 -0.0121327 -0.00421634)
(-0.00824065 -0.0118297 -0.00411565)
(-0.00861087 -0.0108415 -0.00371827)
(-0.00853512 -0.0109773 -0.00385718)
(-0.00933179 -0.0119469 -0.00439873)
(-0.00901469 -0.0114524 -0.00392208)
(-0.0079128 -0.0100449 -0.0030681)
(-0.00801467 -0.00975216 -0.00323836)
(-0.00921636 -0.0118641 -0.00417549)
(-0.00930405 -0.0120112 -0.00446843)
(-0.00925432 -0.011825 -0.00448097)
(-0.00948488 -0.0118508 -0.00426281)
(-0.00893676 -0.0107612 -0.00376586)
(-0.00895972 -0.0113537 -0.00408998)
(-0.00988644 -0.0125369 -0.004385)
(-0.00908446 -0.0114516 -0.0042907)
(-0.00951759 -0.0124502 -0.0046029)
(-0.00922946 -0.0116044 -0.00407058)
(-0.00826221 -0.0111178 -0.00357006)
(-0.00818464 -0.0107397 -0.00336497)
(-0.00814667 -0.0106663 -0.0034003)
(-0.0081949 -0.01096 -0.00330002)
(-0.00822208 -0.0106491 -0.00333853)
(-0.00795921 -0.010391 -0.00321353)
(-0.00881489 -0.0111555 -0.00379362)
(-0.00937573 -0.011586 -0.00394543)
(-0.00868768 -0.0114831 -0.00407836)
(-0.00862316 -0.0113012 -0.00445149)
(-0.00888451 -0.0108544 -0.00374498)
(-0.00896919 -0.0114441 -0.00386919)
(-0.00865184 -0.0106866 -0.00376953)
(-0.0090263 -0.0115244 -0.00425689)
(-0.0087326 -0.010138 -0.00372513)
(-0.00825071 -0.0104673 -0.00310185)
(-0.00877014 -0.0104646 -0.00382535)
(-0.00849866 -0.010639 -0.00337995)
(-0.00792984 -0.0103831 -0.00308574)
(-0.00823564 -0.0104271 -0.00320194)
(-0.00856346 -0.0104792 -0.00396136)
(-0.00897211 -0.0111479 -0.00420735)
(-0.00818194 -0.0100963 -0.00366635)
(-0.00819981 -0.0101108 -0.00313563)
(-0.00842221 -0.0104469 -0.00360015)
(-0.0090434 -0.0106814 -0.00408121)
(-0.00791255 -0.00961353 -0.00321695)
(-0.00822443 -0.00981294 -0.00376825)
(-0.00871704 -0.010366 -0.0039626)
(-0.00790042 -0.0105397 -0.00356723)
(-0.00870417 -0.0105303 -0.00335152)
(-0.00868414 -0.010418 -0.00344024)
(-0.00712173 -0.0103412 -0.00335334)
(-0.00750039 -0.00972263 -0.00309855)
(-0.00742961 -0.00957992 -0.00318324)
(-0.00954011 -0.010429 -0.00460075)
(-0.00947901 -0.0115066 -0.00421087)
(-0.00937461 -0.0110091 -0.00358074)
(-0.00983673 -0.0116672 -0.00390844)
(-0.00862047 -0.0105155 -0.00374188)
(-0.00891574 -0.0110472 -0.00359142)
(-0.00997276 -0.0115363 -0.00476264)
(-0.00952778 -0.0106752 -0.00483519)
(-0.00925707 -0.0115419 -0.00372764)
(-0.00989161 -0.0120957 -0.00397089)
(-0.00939824 -0.0115337 -0.00374018)
(-0.00912993 -0.0113539 -0.0034506)
(-0.00935187 -0.0116962 -0.00356488)
(-0.00980955 -0.0115953 -0.00400281)
(-0.0087233 -0.0111055 -0.00413393)
(-0.00891526 -0.011466 -0.00385956)
(-0.00843441 -0.011129 -0.00403918)
(-0.00932111 -0.0121439 -0.00442821)
(-0.00930473 -0.01148 -0.00392716)
(-0.00924381 -0.0125009 -0.00439886)
(-0.00904292 -0.01206 -0.00432494)
(-0.0087595 -0.0120926 -0.00459876)
(-0.0090806 -0.0120435 -0.00435379)
(-0.00896371 -0.0124488 -0.00472925)
(-0.00896028 -0.0120365 -0.00425901)
(-0.00975058 -0.0113177 -0.00460889)
(-0.00981091 -0.0122516 -0.00390078)
(-0.0102672 -0.0125677 -0.00419041)
(-0.0101699 -0.0119228 -0.00416111)
(-0.0114044 -0.0136705 -0.0046113)
(-0.0100117 -0.0129496 -0.00415545)
(-0.00974821 -0.0123944 -0.00417047)
(-0.00978626 -0.0121887 -0.00401042)
(-0.0095318 -0.012076 -0.00382429)
(-0.00828891 -0.0102344 -0.00414353)
(-0.00900442 -0.0105962 -0.00379607)
(-0.00876359 -0.0106514 -0.00336545)
(-0.00861368 -0.0104487 -0.00366263)
(-0.00821639 -0.0100862 -0.00351419)
(-0.00850629 -0.0104105 -0.00455174)
(-0.00897339 -0.0109041 -0.00371381)
(-0.00849832 -0.010533 -0.00388087)
(-0.00815865 -0.010053 -0.00349113)
(-0.00821698 -0.0101114 -0.00389671)
(-0.00842947 -0.0101433 -0.00362766)
(-0.0105151 -0.0129783 -0.0043548)
(-0.0102377 -0.012511 -0.00414489)
(-0.0104521 -0.0129143 -0.00415728)
(-0.0107687 -0.0138076 -0.00459956)
(-0.0100795 -0.0128871 -0.00429773)
(-0.0105967 -0.0130691 -0.00430835)
(-0.0103245 -0.0129963 -0.00428919)
(-0.00993735 -0.0124164 -0.00406207)
(-0.0105877 -0.0130521 -0.00416908)
(-0.00998782 -0.0126649 -0.00411915)
(-0.0101462 -0.0123015 -0.00411575)
(-0.00981709 -0.0121889 -0.00410709)
(-0.0100986 -0.0125052 -0.00395119)
(-0.0104533 -0.0128302 -0.00421144)
(-0.0105682 -0.0129723 -0.00421687)
(-0.0101243 -0.0121823 -0.0041013)
(-0.0105122 -0.0130597 -0.00419001)
(-0.0107542 -0.0129896 -0.00435644)
(-0.0108783 -0.0131862 -0.00456506)
(-0.00961465 -0.0119446 -0.00376749)
(-0.010245 -0.0122694 -0.00426273)
(-0.0103044 -0.0121054 -0.00422216)
(-0.0103687 -0.0130185 -0.00423399)
(-0.0103962 -0.0127002 -0.00433655)
(-0.0102194 -0.0126211 -0.0041274)
(-0.00856022 -0.0121441 -0.0042832)
(-0.00864355 -0.0115897 -0.00401448)
(-0.00814339 -0.0118118 -0.00396464)
(-0.00827201 -0.0116214 -0.00389231)
(-0.00892616 -0.0119965 -0.00403718)
(-0.00840817 -0.0116822 -0.00403335)
(-0.00815221 -0.0117121 -0.0038048)
(-0.00818266 -0.0116339 -0.00386621)
(-0.00856058 -0.0118683 -0.00371324)
(-0.00757715 -0.0112396 -0.0036688)
(-0.00797432 -0.0112224 -0.00374411)
(-0.00837486 -0.0115057 -0.00376758)
(-0.00792069 -0.0108658 -0.00336665)
(-0.00787954 -0.0104634 -0.00325196)
(-0.00799227 -0.0111314 -0.00334927)
(-0.00783213 -0.0112039 -0.00357187)
(-0.00798683 -0.0107214 -0.00348283)
(-0.00849279 -0.0116413 -0.00377173)
(-0.00848329 -0.0111493 -0.00369795)
(-0.00868039 -0.0114299 -0.00356216)
(-0.00829649 -0.0108662 -0.0035927)
(-0.00857358 -0.0115536 -0.00385144)
(-0.0086247 -0.011297 -0.00366618)
(-0.00780168 -0.00985343 -0.00323982)
(-0.00764724 -0.00925881 -0.00324961)
(-0.00781074 -0.00985963 -0.00317028)
(-0.00775891 -0.010072 -0.00317859)
(-0.00747587 -0.00914023 -0.00328272)
(-0.00760707 -0.00939937 -0.00326697)
(-0.00777472 -0.00948734 -0.00314966)
(-0.00775412 -0.00964486 -0.00325394)
(-0.00806006 -0.0101909 -0.0033121)
(-0.00827149 -0.0101127 -0.00335766)
(-0.00781739 -0.00982586 -0.00319634)
(-0.00774571 -0.00989772 -0.00316236)
(-0.00869104 -0.0108864 -0.00363423)
(-0.00827309 -0.0110527 -0.00361155)
(-0.00854429 -0.0109374 -0.00345743)
(-0.00844131 -0.0108309 -0.00353757)
(-0.00805722 -0.0104952 -0.00346449)
(-0.0085749 -0.011149 -0.00346934)
(-0.00882438 -0.0116908 -0.0040708)
(-0.00864849 -0.0115039 -0.00400833)
(-0.00875534 -0.0117116 -0.00402445)
(-0.00880562 -0.0117142 -0.00392396)
(-0.00843293 -0.0112422 -0.00396346)
(-0.00890795 -0.0118316 -0.00405275)
(-0.00923208 -0.0122578 -0.00401198)
(-0.00899782 -0.0112309 -0.00358428)
(-0.00929079 -0.0124828 -0.00392496)
(-0.0091101 -0.0123486 -0.0040693)
(-0.00905409 -0.0117979 -0.00383132)
(-0.00886241 -0.011596 -0.00391593)
(-0.00891608 -0.0115744 -0.00400894)
(-0.00915481 -0.0113183 -0.00381537)
(-0.0087123 -0.0114953 -0.00395784)
(-0.00909869 -0.0116584 -0.00398218)
(-0.00880839 -0.0113404 -0.00384722)
(-0.00994452 -0.0125268 -0.00402995)
(-0.00994936 -0.0130839 -0.00422616)
(-0.00943719 -0.0118266 -0.00376588)
(-0.00949654 -0.0118265 -0.00398365)
(-0.00948413 -0.0122112 -0.00384516)
(-0.00955385 -0.0120635 -0.00400414)
(-0.00910733 -0.0119113 -0.00410197)
(-0.00908125 -0.0121855 -0.00408299)
(-0.00938737 -0.0124847 -0.00433399)
(-0.00902562 -0.011589 -0.00401742)
(-0.00916558 -0.012033 -0.00415419)
(-0.00895864 -0.0115589 -0.00392281)
(-0.00803582 -0.00984635 -0.00318598)
(-0.0077438 -0.00995978 -0.00351539)
(-0.00779572 -0.0105506 -0.00377201)
(-0.00821246 -0.0105765 -0.00369143)
(-0.00805199 -0.0103823 -0.00353952)
(-0.00777911 -0.0106298 -0.00374822)
(-0.00843346 -0.0107402 -0.00341983)
(-0.00852977 -0.0109204 -0.00353477)
(-0.0082494 -0.0104223 -0.00336633)
(-0.00830156 -0.0107699 -0.00332335)
(-0.00800495 -0.0105179 -0.00332219)
(-0.00787794 -0.010526 -0.00340029)
(-0.00821479 -0.0100972 -0.00337908)
(-0.00817938 -0.0101098 -0.00337591)
(-0.00808918 -0.0101589 -0.00333404)
(-0.00801255 -0.0100676 -0.00329285)
(-0.00812887 -0.0103187 -0.00323848)
(-0.00769975 -0.00982828 -0.00315522)
(-0.00873362 -0.0111918 -0.00372831)
(-0.00803163 -0.0100878 -0.00355483)
(-0.00807542 -0.0100263 -0.00344552)
(-0.00822872 -0.0102368 -0.00421749)
(-0.00844624 -0.0104448 -0.00346932)
(-0.0083591 -0.0108617 -0.0043374)
(-0.00746342 -0.00934016 -0.00307058)
(-0.00776282 -0.00939413 -0.00349537)
(-0.00763403 -0.00945248 -0.00313052)
(-0.00766133 -0.00926175 -0.00344949)
(-0.00752734 -0.00931268 -0.00327287)
(-0.00809773 -0.0103905 -0.00335287)
(-0.00856456 -0.0104106 -0.00330098)
(-0.00800813 -0.00979432 -0.00322037)
(-0.00861199 -0.0105275 -0.00333135)
(-0.00731093 -0.00933144 -0.00320123)
(-0.00767195 -0.00972324 -0.00330033)
(-0.00856681 -0.0108287 -0.00389263)
(-0.00843843 -0.0108499 -0.00381251)
(-0.00857785 -0.0109088 -0.00357856)
(-0.00841761 -0.010724 -0.00365159)
(-0.00830112 -0.0108162 -0.00369693)
(-0.00825563 -0.0107786 -0.0037461)
(-0.00851649 -0.0108538 -0.00373581)
(-0.00831743 -0.0112189 -0.00410927)
(-0.00899574 -0.0108151 -0.00372007)
(-0.00835274 -0.0110087 -0.00441579)
(-0.00895568 -0.0117611 -0.00440961)
(-0.00899204 -0.0113039 -0.00364582)
(-0.00857962 -0.0112902 -0.0045091)
(-0.00878986 -0.0111617 -0.00460758)
(-0.00854258 -0.010665 -0.0040938)
(-0.00915474 -0.0114463 -0.00405132)
(-0.0089584 -0.0108825 -0.00385933)
(-0.00845832 -0.0111886 -0.004682)
(-0.00892431 -0.0110531 -0.00373121)
(-0.0090935 -0.0111987 -0.00429592)
(-0.00836645 -0.0106622 -0.00392977)
(-0.00798452 -0.0105814 -0.00435004)
(-0.00844213 -0.0105738 -0.0039946)
(-0.0086094 -0.0104574 -0.00356639)
(-0.00813005 -0.0108871 -0.00428434)
(-0.00806138 -0.00991387 -0.00350813)
(-0.0086604 -0.0109577 -0.00370901)
(-0.00867848 -0.0112795 -0.00390243)
(-0.00927293 -0.011453 -0.00426271)
(-0.00768855 -0.0103096 -0.00416007)
(-0.00798151 -0.0109388 -0.00415742)
(-0.00828263 -0.0108348 -0.00369748)
(-0.0081141 -0.0105581 -0.00368674)
(-0.00856976 -0.0114277 -0.0041249)
(-0.00828777 -0.0103599 -0.00373869)
(-0.00753269 -0.0100272 -0.00406363)
(-0.00810253 -0.0103775 -0.00348207)
(-0.00801452 -0.0101677 -0.00348217)
(-0.00781464 -0.0101913 -0.00408606)
(-0.00768128 -0.00969248 -0.00350076)
(-0.00781737 -0.00973068 -0.00325887)
(-0.00882123 -0.0107539 -0.00358163)
(-0.00824161 -0.010908 -0.00421855)
(-0.00912031 -0.0112998 -0.00410733)
(-0.00835691 -0.0104149 -0.00378721)
(-0.00851845 -0.0109361 -0.00424649)
(-0.00876966 -0.0112364 -0.00368698)
(-0.00946082 -0.0123633 -0.00417224)
(-0.00877926 -0.0115612 -0.0038379)
(-0.0090968 -0.0118637 -0.00414376)
(-0.00936121 -0.0118379 -0.00403146)
(-0.00939924 -0.0118328 -0.00411258)
(-0.00939942 -0.0121926 -0.00416464)
(-0.00891884 -0.0115981 -0.00401897)
(-0.00892751 -0.0115709 -0.00418936)
(-0.00857574 -0.0107452 -0.00373344)
(-0.00880626 -0.0108832 -0.00383574)
(-0.0091785 -0.0115797 -0.00413041)
(-0.00880022 -0.0114356 -0.00406934)
(-0.00953676 -0.0125122 -0.00327788)
(-0.00946647 -0.0117276 -0.00358903)
(-0.00990323 -0.0129602 -0.00379232)
(-0.0101335 -0.0124784 -0.00438771)
(-0.0102039 -0.0126113 -0.0041848)
(-0.0101934 -0.0123323 -0.00402381)
(-0.0101744 -0.0126952 -0.00405935)
(-0.0101563 -0.0127255 -0.00395884)
(-0.00931914 -0.0118962 -0.00440299)
(-0.0102218 -0.0125227 -0.0041222)
(-0.00934102 -0.0114152 -0.00390203)
(-0.00938004 -0.0117529 -0.00484517)
(-0.0100238 -0.0124614 -0.00437498)
(-0.010035 -0.0121524 -0.00512475)
(-0.0111408 -0.013645 -0.00434438)
(-0.0092897 -0.0114651 -0.00450863)
(-0.0096079 -0.0118703 -0.00395187)
(-0.00979171 -0.0120064 -0.00473954)
(-0.0101138 -0.0125496 -0.0043517)
(-0.0100906 -0.0122025 -0.00410151)
(-0.00960491 -0.0118467 -0.00381692)
(-0.00874915 -0.0114393 -0.00385875)
(-0.00845974 -0.0112473 -0.00380459)
(-0.00894077 -0.0116306 -0.00384157)
(-0.00853168 -0.0110806 -0.0037198)
(-0.00850116 -0.0112911 -0.00386512)
(-0.00870622 -0.0111387 -0.00379221)
(-0.00878575 -0.011636 -0.00411566)
(-0.00879983 -0.0114037 -0.00399815)
(-0.00950235 -0.0123964 -0.00431479)
(-0.00917009 -0.0123478 -0.00480615)
(-0.00914524 -0.0119092 -0.00442592)
(-0.00901993 -0.0123602 -0.00455916)
(-0.008917 -0.0122967 -0.00455007)
(-0.0084562 -0.0115999 -0.00445326)
(-0.00911386 -0.0115708 -0.00413982)
(-0.00881074 -0.0114311 -0.00431677)
(-0.00904406 -0.0114202 -0.00406278)
(-0.00919161 -0.011748 -0.00401795)
(-0.00947603 -0.0125473 -0.00470451)
(-0.00944158 -0.011781 -0.00436828)
(-0.00942059 -0.0115379 -0.00473575)
(-0.00941387 -0.0119796 -0.00494367)
(-0.0102611 -0.0125341 -0.00448443)
(-0.0093491 -0.0117449 -0.00459085)
(-0.0104057 -0.0132852 -0.00461073)
(-0.00981719 -0.0125133 -0.00396488)
(-0.00949187 -0.0118129 -0.00440101)
(-0.0092069 -0.0118697 -0.0047928)
(-0.00989458 -0.0127496 -0.00499012)
(-0.00927384 -0.0114074 -0.00394335)
(-0.00986672 -0.0127115 -0.00514439)
(-0.00893748 -0.0110259 -0.00331752)
(-0.00903203 -0.0113992 -0.00354735)
(-0.00910522 -0.0110126 -0.00374271)
(-0.00925948 -0.0116332 -0.00352183)
(-0.00864869 -0.0101933 -0.00326731)
(-0.00887941 -0.0109711 -0.00350162)
(-0.00900244 -0.011352 -0.00362195)
(-0.0095051 -0.0120222 -0.00372697)
(-0.00975919 -0.0122777 -0.00383258)
(-0.0099319 -0.0122878 -0.00387838)
(-0.0104517 -0.0128785 -0.00413129)
(-0.00967561 -0.0122838 -0.00386075)
(-0.0100856 -0.0123528 -0.00415509)
(-0.0100475 -0.0121869 -0.0040324)
(-0.0101638 -0.0128048 -0.00410199)
(-0.0102085 -0.0126803 -0.00413474)
(-0.00985145 -0.0122888 -0.00393077)
(-0.00930133 -0.011241 -0.00379266)
(-0.00978763 -0.0118557 -0.00394285)
(-0.00992073 -0.0118969 -0.00409625)
(-0.00971782 -0.0115933 -0.00406761)
(-0.00954176 -0.0116662 -0.00377344)
(-0.00972465 -0.0118736 -0.00397786)
(-0.00904369 -0.0109817 -0.00373662)
(-0.00967666 -0.0115918 -0.00380296)
(-0.010072 -0.0115954 -0.0047595)
(-0.00966122 -0.0120245 -0.00396268)
(-0.0101598 -0.0120894 -0.00469059)
(-0.00939657 -0.0113456 -0.00432933)
(-0.00902226 -0.0110365 -0.00368585)
(-0.00922069 -0.0111718 -0.00408559)
(-0.00932805 -0.0112369 -0.00465235)
(-0.0095345 -0.0120442 -0.00401882)
(-0.00989952 -0.0117534 -0.00439729)
(-0.00961773 -0.0112417 -0.0048043)
(-0.00954029 -0.0111688 -0.00404044)
(-0.00903411 -0.011034 -0.00365236)
(-0.00952822 -0.0108208 -0.00402446)
(-0.00983301 -0.011511 -0.00411557)
(-0.00953084 -0.0116348 -0.00396645)
(-0.00890865 -0.0105938 -0.00366976)
(-0.00907554 -0.0114343 -0.00348266)
(-0.00940027 -0.011278 -0.00353753)
(-0.00852685 -0.0106007 -0.00370822)
(-0.00961085 -0.0114087 -0.00435054)
(-0.00985464 -0.0116709 -0.00477453)
(-0.00893018 -0.0107121 -0.00410718)
(-0.00969281 -0.0114276 -0.00432407)
(-0.00824099 -0.00988203 -0.00388398)
(-0.00913863 -0.0106421 -0.00456171)
(-0.00861348 -0.0102219 -0.00366718)
(-0.00886927 -0.0108068 -0.00375464)
(-0.00859855 -0.0102605 -0.0038956)
(-0.00856123 -0.0100715 -0.00346302)
(-0.00875024 -0.0111243 -0.00351251)
(-0.00839671 -0.00985472 -0.0042574)
(-0.00923319 -0.0108032 -0.00417657)
(-0.00899212 -0.0103686 -0.00465246)
(-0.00817281 -0.00948895 -0.0038234)
(-0.0102163 -0.0121898 -0.00428674)
(-0.0100746 -0.0124239 -0.00406141)
(-0.0101913 -0.0123433 -0.00418124)
(-0.00977767 -0.0118981 -0.00388064)
(-0.0100442 -0.0125298 -0.00409563)
(-0.0097684 -0.012135 -0.00384764)
(-0.0101476 -0.0123374 -0.004046)
(-0.00951381 -0.0116999 -0.00399332)
(-0.00984829 -0.0117793 -0.00418901)
(-0.00980666 -0.0118824 -0.00388143)
(-0.010472 -0.0127539 -0.00456803)
(-0.00992724 -0.0115053 -0.00445938)
(-0.0104805 -0.0126561 -0.00461027)
(-0.00949876 -0.0114793 -0.00399895)
(-0.0101436 -0.0119878 -0.0047136)
(-0.0099015 -0.0118275 -0.00422492)
(-0.00958635 -0.0117899 -0.00378231)
(-0.00971549 -0.0120831 -0.00405624)
(-0.00730678 -0.0100456 -0.00379718)
(-0.00773063 -0.010246 -0.00380294)
(-0.00853311 -0.0104988 -0.00376727)
(-0.00797668 -0.010135 -0.00354427)
(-0.00843514 -0.0115004 -0.00410971)
(-0.00837649 -0.0101704 -0.00336025)
(-0.00864517 -0.0106012 -0.00340728)
(-0.00846387 -0.010657 -0.00349008)
(-0.00850436 -0.0110431 -0.00368364)
(-0.00833449 -0.0109414 -0.00360574)
(-0.00884942 -0.0111311 -0.00348957)
(-0.00878147 -0.0114419 -0.00384039)
(-0.00804846 -0.0101222 -0.00331142)
(-0.00789837 -0.00971862 -0.00336845)
(-0.00795797 -0.0105091 -0.00367163)
(-0.00699611 -0.0093083 -0.00316439)
(-0.00749304 -0.00991258 -0.00339583)
(-0.00855458 -0.0113109 -0.00355763)
(-0.00854547 -0.0109078 -0.00354839)
(-0.00843467 -0.0113643 -0.00358691)
(-0.00851292 -0.0114917 -0.00365195)
(-0.00826267 -0.0101837 -0.00313403)
(-0.00963533 -0.012101 -0.00428057)
(-0.00952687 -0.0115657 -0.00393916)
(-0.00949704 -0.0120327 -0.00455603)
(-0.00936274 -0.0112055 -0.003645)
(-0.00892813 -0.0116121 -0.00432128)
(-0.00995109 -0.0127641 -0.00426414)
(-0.00963942 -0.0125917 -0.00423369)
(-0.00996449 -0.0124124 -0.00405719)
(-0.0102122 -0.0128385 -0.00437661)
(-0.00960066 -0.0121798 -0.00412819)
(-0.00810457 -0.00951446 -0.00433609)
(-0.00848706 -0.0100728 -0.00356234)
(-0.0078187 -0.00985176 -0.003025)
(-0.00826511 -0.0106386 -0.00364873)
(-0.00726801 -0.0090705 -0.00302866)
(-0.00804134 -0.0101985 -0.0032672)
(-0.00823434 -0.00994452 -0.00356408)
(-0.00805053 -0.0100103 -0.00306774)
(-0.00860779 -0.0105825 -0.00337937)
(-0.00797571 -0.0098106 -0.00321575)
(-0.00800622 -0.0101971 -0.00319082)
(-0.00836822 -0.0102874 -0.00313877)
(-0.00853336 -0.010201 -0.00385336)
(-0.00830239 -0.0101574 -0.00330974)
(-0.00872132 -0.0107954 -0.00350146)
(-0.00831326 -0.00990645 -0.00374616)
(-0.00830851 -0.0106396 -0.00341657)
(-0.00808123 -0.00998531 -0.00301911)
(-0.00859004 -0.0103776 -0.00391847)
(-0.00815148 -0.0102431 -0.00298083)
(-0.00807253 -0.00987567 -0.00360317)
(-0.00880534 -0.0111219 -0.00331399)
(-0.00819077 -0.0102253 -0.00372237)
(-0.00816162 -0.00998876 -0.00375983)
(-0.00895307 -0.0107332 -0.00391397)
(-0.00879753 -0.0117628 -0.00440405)
(-0.00819009 -0.0108343 -0.00378364)
(-0.00907979 -0.011852 -0.00405016)
(-0.00871405 -0.0115076 -0.00456224)
(-0.00845479 -0.0105365 -0.00332132)
(-0.00951276 -0.0116429 -0.00402308)
(-0.0080426 -0.00974307 -0.00330306)
(-0.00836781 -0.00993817 -0.00311686)
(-0.00931507 -0.0114287 -0.00347197)
(-0.00931421 -0.0110354 -0.00363494)
(-0.00860239 -0.0107845 -0.00424195)
(-0.00867164 -0.0111707 -0.00442347)
(-0.00845059 -0.01032 -0.00367923)
(-0.00844399 -0.0106773 -0.00431457)
(-0.00843305 -0.0105069 -0.0041267)
(-0.00910359 -0.0112155 -0.00408115)
(-0.0090231 -0.0112256 -0.00357247)
(-0.00884055 -0.0107097 -0.00352432)
(-0.00685079 -0.00991988 -0.0029284)
(-0.00746713 -0.0109429 -0.00342519)
(-0.00748066 -0.0108747 -0.00342345)
(-0.00733891 -0.0104501 -0.00323385)
(-0.00703139 -0.0103151 -0.0030276)
(-0.00693223 -0.00999383 -0.00293898)
(-0.00733095 -0.00896812 -0.00301999)
(-0.0077965 -0.00885144 -0.00375021)
(-0.0073016 -0.00900648 -0.00305061)
(-0.00818536 -0.00950652 -0.00383288)
(-0.00739732 -0.00919985 -0.00314517)
(-0.00754655 -0.00918357 -0.00305766)
(-0.00772506 -0.00910902 -0.00357113)
(-0.00792451 -0.00902537 -0.00372029)
(-0.00867494 -0.0101146 -0.00389166)
(-0.00712053 -0.00919377 -0.0027617)
(-0.00665967 -0.00855448 -0.00268149)
(-0.00751182 -0.00937483 -0.00304961)
(-0.00727082 -0.00916858 -0.0029567)
(-0.00717413 -0.00888849 -0.00291457)
(-0.00706261 -0.00881144 -0.00283682)
(-0.00726259 -0.00980882 -0.00299153)
(-0.00740342 -0.0103252 -0.00288588)
(-0.0069902 -0.00953074 -0.00277213)
(-0.00697562 -0.0095916 -0.00285558)
(-0.00725772 -0.00959284 -0.00294328)
(-0.00821807 -0.0106574 -0.00320602)
(-0.0082728 -0.0105979 -0.00324295)
(-0.00823259 -0.0103061 -0.00321541)
(-0.00780614 -0.0102685 -0.00305589)
(-0.00811231 -0.0103859 -0.00325106)
(-0.0080083 -0.0103143 -0.00310652)
(-0.00828277 -0.0102785 -0.00325645)
(-0.0082166 -0.0104118 -0.00318505)
(-0.00799828 -0.0103206 -0.00321023)
(-0.00789439 -0.0100504 -0.00314433)
(-0.00807802 -0.0101793 -0.00316503)
(-0.00831923 -0.0105534 -0.00322343)
(-0.00716224 -0.00870225 -0.00296858)
(-0.00693726 -0.0083691 -0.00290672)
(-0.00711064 -0.00871772 -0.0030609)
(-0.00664104 -0.00860667 -0.00260457)
(-0.00700298 -0.00923539 -0.00278172)
(-0.0066859 -0.00918506 -0.00268418)
(-0.00646699 -0.00862678 -0.00260026)
(-0.00671929 -0.00911868 -0.00258763)
(-0.00649809 -0.00868324 -0.00266467)
(-0.0080155 -0.010317 -0.0032888)
(-0.00815113 -0.0100046 -0.00308254)
(-0.00816343 -0.0102475 -0.00346267)
(-0.00824037 -0.0100966 -0.00306615)
(-0.00863191 -0.0109097 -0.00343274)
(-0.00895425 -0.0106161 -0.0035748)
(-0.00847398 -0.0104702 -0.00282949)
(-0.00877614 -0.0106301 -0.00390224)
(-0.00819199 -0.0100317 -0.00321446)
(-0.00868454 -0.0106651 -0.00364206)
(-0.00848087 -0.0102031 -0.00376585)
(-0.00819792 -0.00982024 -0.0036094)
(-0.00820954 -0.010093 -0.00346414)
(-0.00928875 -0.0110213 -0.00333079)
(-0.00865268 -0.010744 -0.00436094)
(-0.00841802 -0.0102333 -0.00327029)
(-0.00884565 -0.0111569 -0.0036458)
(-0.00936966 -0.0116879 -0.00382571)
(-0.0101183 -0.012407 -0.00442589)
(-0.00921714 -0.0119194 -0.00433434)
(-0.00927903 -0.0119778 -0.00415568)
(-0.00972223 -0.012543 -0.00447017)
(-0.00964547 -0.0124774 -0.00444529)
(-0.00863867 -0.0113826 -0.00508505)
(-0.0101827 -0.0124488 -0.00466333)
(-0.00895349 -0.0112848 -0.00405779)
(-0.00832732 -0.0103268 -0.00345555)
(-0.00758858 -0.00958509 -0.00332391)
(-0.00758204 -0.010132 -0.00339061)
(-0.00754595 -0.00964097 -0.00329927)
(-0.0100761 -0.0126266 -0.00386389)
(-0.0103443 -0.0127557 -0.00467365)
(-0.0101547 -0.0121539 -0.00407876)
(-0.0100687 -0.0120966 -0.0046014)
(-0.00980732 -0.0116543 -0.00462305)
(-0.00975565 -0.0121661 -0.00435596)
(-0.0101647 -0.0122519 -0.00412766)
(-0.00929982 -0.0118152 -0.00361972)
(-0.00961727 -0.0117114 -0.00466606)
(-0.0103097 -0.0129504 -0.00428601)
(-0.0103377 -0.0121419 -0.00488877)
(-0.00941828 -0.0118614 -0.00372719)
(-0.0103589 -0.0126957 -0.00384835)
(-0.00913099 -0.0114658 -0.00354924)
(-0.00904287 -0.0110505 -0.00368201)
(-0.0092812 -0.0118656 -0.00462435)
(-0.00845627 -0.0108107 -0.00434383)
(-0.00869896 -0.010684 -0.00391504)
(-0.00940497 -0.0115562 -0.00440313)
(-0.00927499 -0.0116781 -0.00376722)
(-0.00971714 -0.0122586 -0.00401096)
(-0.00872747 -0.0111739 -0.004386)
(-0.00899277 -0.0111966 -0.0041902)
(-0.00963237 -0.011865 -0.00439929)
(-0.00933677 -0.0116369 -0.00470829)
(-0.00906937 -0.0113789 -0.00400724)
(-0.00971382 -0.0123083 -0.0041681)
(-0.00972 -0.0117429 -0.00402337)
(-0.00910546 -0.0111713 -0.00459557)
(-0.00860356 -0.0105217 -0.00368184)
(-0.00921497 -0.0113878 -0.0047183)
(-0.00939865 -0.0117873 -0.00390947)
(-0.00878868 -0.0108181 -0.00454669)
(-0.00903096 -0.0111985 -0.00458658)
(-0.00959594 -0.0117365 -0.0042004)
(-0.00894284 -0.0112721 -0.00433229)
(-0.00919907 -0.0112163 -0.00410556)
(-0.00892512 -0.0110109 -0.00399571)
(-0.00873682 -0.0108282 -0.00462961)
(-0.00899891 -0.0109795 -0.00387627)
(-0.00888071 -0.011107 -0.00399667)
(-0.0100739 -0.012712 -0.00442191)
(-0.00929011 -0.011776 -0.00400901)
(-0.0097936 -0.011984 -0.00497495)
(-0.00851307 -0.0105754 -0.00385459)
(-0.00853381 -0.0111255 -0.00443937)
(-0.00864552 -0.0107115 -0.00362367)
(-0.00789261 -0.0099637 -0.00328502)
(-0.00873706 -0.0109962 -0.00290155)
(-0.00771766 -0.00993629 -0.00269899)
(-0.00805636 -0.0101647 -0.00313134)
(-0.00843263 -0.0100934 -0.00376143)
(-0.00802363 -0.0101439 -0.00287927)
(-0.00806627 -0.00955071 -0.0035625)
(-0.00835238 -0.0104356 -0.00332082)
(-0.00849884 -0.0104918 -0.00339622)
(-0.00864266 -0.0108774 -0.00364322)
(-0.00914218 -0.011056 -0.00356016)
(-0.00962015 -0.011549 -0.00428483)
(-0.00918682 -0.0111314 -0.00347246)
(-0.0087016 -0.010592 -0.00380379)
(-0.00763384 -0.00934265 -0.00299679)
(-0.00767232 -0.00930988 -0.00321928)
(-0.007346 -0.00937091 -0.00302376)
(-0.00743634 -0.00959415 -0.00289819)
(-0.00764411 -0.0094502 -0.00309429)
(-0.00811425 -0.0099016 -0.00320323)
(-0.00772403 -0.00973397 -0.0031375)
(-0.0075404 -0.00977684 -0.00297744)
(-0.00769856 -0.0100784 -0.00303933)
(-0.00784134 -0.0102161 -0.0030397)
(-0.0080177 -0.0101629 -0.0031659)
(-0.00755726 -0.00994947 -0.00292457)
(-0.00769527 -0.0098414 -0.00304871)
(-0.00766506 -0.0100389 -0.00297967)
(-0.00843804 -0.0112938 -0.00361548)
(-0.00817473 -0.0107867 -0.00339856)
(-0.00841808 -0.00996159 -0.00334551)
(-0.0082211 -0.0103961 -0.00317493)
(-0.00820609 -0.0108903 -0.00324344)
(-0.00788829 -0.010243 -0.00312366)
(-0.00761582 -0.010142 -0.003095)
(-0.00795589 -0.0100702 -0.00319917)
(-0.00789957 -0.0098616 -0.00315127)
(-0.00763968 -0.0100087 -0.00287403)
(-0.00745223 -0.00961609 -0.0030882)
(-0.00723341 -0.00939674 -0.00284552)
(-0.00676354 -0.00850209 -0.00275074)
(-0.00725102 -0.00942096 -0.00288211)
(-0.00700031 -0.00901254 -0.00276629)
(-0.00828036 -0.00996405 -0.00328703)
(-0.00810766 -0.0097175 -0.00331466)
(-0.00794864 -0.00990313 -0.00308699)
(-0.0071111 -0.00857357 -0.00297798)
(-0.00774196 -0.00965297 -0.00291923)
(-0.00765615 -0.00914031 -0.00322758)
(-0.00742157 -0.00920839 -0.00295105)
(-0.00763941 -0.00958792 -0.00307068)
(-0.00781312 -0.00895564 -0.00360758)
(-0.00790875 -0.00950243 -0.00397928)
(-0.00809733 -0.0100382 -0.00373035)
(-0.00848158 -0.0102053 -0.00336236)
(-0.00764218 -0.00945603 -0.00326862)
(-0.00673352 -0.00931262 -0.00276197)
(-0.00695824 -0.0096416 -0.00278743)
(-0.00716403 -0.0102976 -0.00292122)
(-0.00724881 -0.00958357 -0.00268071)
(-0.00764046 -0.00972073 -0.00275969)
(-0.00747248 -0.00941112 -0.00308713)
(-0.00830202 -0.0105646 -0.00332235)
(-0.00811531 -0.0101909 -0.00300029)
(-0.00800923 -0.0101541 -0.00336946)
(-0.00811742 -0.00985914 -0.00374894)
(-0.00817734 -0.0097939 -0.00361369)
(-0.00772256 -0.00965201 -0.00301608)
(-0.0083409 -0.0103654 -0.00314278)
(-0.00809841 -0.0097681 -0.00371016)
(-0.00847783 -0.0105488 -0.00426664)
(-0.00909465 -0.0119317 -0.00430676)
(-0.00909057 -0.0118992 -0.00444586)
(-0.009266 -0.0114943 -0.00400135)
(-0.00932968 -0.0120255 -0.00412317)
(-0.00954847 -0.0118946 -0.00387316)
(-0.00975754 -0.0121316 -0.00421523)
(-0.00919865 -0.0115451 -0.00388215)
(-0.00988899 -0.01164 -0.00393025)
(-0.00950168 -0.0119795 -0.00397391)
(-0.00866302 -0.0108255 -0.00389406)
(-0.00952353 -0.0116317 -0.00382621)
(-0.00918879 -0.0111795 -0.00368125)
(-0.00841053 -0.0104232 -0.00366966)
(-0.00838144 -0.0110191 -0.0041883)
(-0.00903327 -0.011372 -0.00369693)
(-0.00910615 -0.0116505 -0.00429943)
(-0.00894921 -0.0112369 -0.00389847)
(-0.00827184 -0.0107096 -0.00435162)
(-0.00932012 -0.011731 -0.00428571)
(-0.00892921 -0.0112261 -0.00350279)
(-0.00875661 -0.0107345 -0.00347426)
(-0.00805392 -0.0104215 -0.0040491)
(-0.00839096 -0.0102458 -0.00422743)
(-0.00942929 -0.0116675 -0.00387383)
(-0.00904476 -0.0110817 -0.0036933)
(-0.00878757 -0.0110686 -0.00406907)
(-0.00826922 -0.0108996 -0.00418548)
(-0.00762338 -0.0104219 -0.00421254)
(-0.00877616 -0.0108454 -0.00367255)
(-0.0090281 -0.0109559 -0.00378317)
(-0.0083973 -0.0104073 -0.00366985)
(-0.00842586 -0.0106708 -0.00395627)
(-0.00848032 -0.0107932 -0.00400812)
(-0.00878749 -0.0108371 -0.00379569)
(-0.00916768 -0.0106739 -0.004087)
(-0.0082166 -0.0099983 -0.00350191)
(-0.00927128 -0.0110496 -0.00385397)
(-0.00831617 -0.0100346 -0.00374419)
(-0.00831916 -0.0102969 -0.00312081)
(-0.00859391 -0.0106999 -0.00336334)
(-0.00815702 -0.0101227 -0.00343811)
(-0.00823762 -0.0102003 -0.00344907)
(-0.00887335 -0.0107537 -0.00345817)
(-0.00840413 -0.0106998 -0.00351795)
(-0.00880919 -0.0108801 -0.00411046)
(-0.00856032 -0.0104472 -0.00399105)
(-0.00895567 -0.0109419 -0.00355888)