/*--------------------------------*- C++ -*----------------------------------*\
| =========                 |                                                 |
| \\      /  F ield         | OpenFOAM: The Open Source CFD Toolbox           |
|  \\    /   O peration     | Version:  v1612+                                |
|   \\  /    A nd           | Web:      www.OpenFOAM.com                      |
|    \\/     M anipulation  |                                                 |
\*---------------------------------------------------------------------------*/
FoamFile
{
    version     2.0;
    format      ascii;
    class       surfaceScalarField;
    location    "239";
    object      phi;
}
// * * * * * * * * * * * * * * * * * * * * * * * * * * * * * * * * * * * * * //

dimensions      [0 3 -1 0 0 0 0];

internalField   nonuniform List<scalar> 
37113
(
-1.31604e-08
1.15752e-08
1.09196e-08
-9.33443e-09
-3.09556e-09
1.46787e-08
-1.08439e-08
-7.39189e-10
-2.00261e-10
-3.07439e-09
-6.71284e-09
9.98748e-09
-3.78627e-09
-8.12173e-09
1.17078e-08
8.2158e-10
-1.17063e-08
7.8103e-09
1.16593e-08
-1.4624e-08
7.57326e-09
-9.82978e-09
1.73202e-09
5.245e-10
-1.64311e-08
1.22981e-08
-7.97039e-10
-6.84045e-09
9.24668e-10
-8.65295e-09
-2.65808e-10
-8.58078e-09
-1.20869e-08
4.23653e-09
-3.58864e-09
-1.48219e-08
8.27903e-09
-1.28943e-09
7.06418e-09
-1.40538e-08
1.36172e-09
9.20626e-09
-2.28893e-09
-7.08717e-09
1.97875e-09
-5.40965e-09
-3.15788e-10
-1.02877e-08
3.46083e-09
-2.0393e-09
5.64267e-09
4.01416e-09
-3.17378e-09
-3.36028e-09
3.28994e-09
-4.49923e-09
9.08173e-10
4.17254e-10
-3.56082e-09
4.56433e-10
3.07406e-10
-5.97119e-09
6.09326e-10
8.54674e-10
-1.57731e-10
8.8806e-09
7.09397e-10
-9.43221e-09
4.46691e-10
-6.5756e-09
5.76394e-09
-3.78205e-09
3.43944e-09
-4.51358e-09
-3.4251e-09
6.88475e-10
-3.11733e-09
4.64688e-10
-3.98869e-09
1.02622e-09
-3.76519e-09
2.72025e-09
5.73919e-09
4.23916e-10
-5.45365e-09
6.8126e-10
1.29275e-09
3.32189e-10
-4.39908e-09
1.03415e-10
-2.88854e-09
-5.00286e-09
1.69542e-09
-4.47555e-09
-4.3878e-09
3.90647e-09
2.59475e-09
-2.11355e-09
-1.47227e-09
-2.20645e-09
-7.09143e-10
-2.82552e-09
3.8692e-09
-7.73918e-10
-2.69989e-10
-6.20667e-09
1.94624e-09
1.4348e-09
-1.4586e-08
1.94298e-09
2.82979e-09
9.81301e-09
-5.58227e-09
-1.63659e-09
-7.36721e-09
-2.41747e-09
7.52688e-10
2.81377e-09
-1.15075e-09
-2.83861e-09
-2.46598e-09
3.8322e-09
5.95363e-09
-7.66678e-09
7.29234e-09
-5.44247e-09
-3.4865e-09
6.81778e-09
-8.73814e-09
2.45572e-09
9.11217e-09
-2.22685e-09
-5.57744e-10
4.17945e-09
-3.00241e-09
4.56597e-09
-5.74315e-09
6.82236e-09
-4.26129e-09
-1.05391e-10
1.6121e-08
-4.51567e-09
3.20962e-09
-1.4815e-08
-2.17665e-08
1.01238e-09
2.20929e-08
-1.33871e-09
1.56279e-08
-2.12734e-08
1.48732e-08
-1.21037e-08
-1.04564e-08
7.68696e-09
-7.06697e-09
1.62235e-09
2.03178e-08
1.30776e-08
2.96426e-09
-2.05575e-08
1.46292e-08
-5.39266e-10
-7.94728e-09
4.65462e-09
1.20138e-08
-8.72122e-09
1.34222e-08
-1.84052e-08
1.53274e-08
-7.46321e-09
8.32848e-09
-1.76254e-09
9.06202e-09
6.5193e-09
2.39021e-08
-1.01818e-08
-4.76429e-09
7.87909e-09
-1.76731e-08
-4.61238e-09
-1.04264e-08
1.63085e-10
-1.93121e-10
-9.05875e-09
3.39946e-09
-6.06293e-09
1.37492e-08
1.04313e-09
2.18908e-08
8.8006e-09
1.46e-08
8.50321e-09
-1.08468e-08
-1.22563e-08
-1.12649e-08
2.21443e-08
3.72056e-09
-3.51705e-08
2.17825e-09
1.32289e-08
1.97633e-08
-6.54042e-09
-2.01269e-08
1.64012e-08
-6.74807e-09
-2.05e-08
7.79856e-09
-2.6622e-09
9.89981e-09
1.44227e-08
1.70107e-08
-7.26859e-09
-1.62826e-08
1.55438e-08
2.48933e-09
-2.47813e-08
1.6662e-08
-2.88165e-09
3.23036e-09
6.14581e-09
2.37451e-08
8.55174e-09
-7.83192e-09
9.17999e-09
-7.24503e-09
2.19426e-08
-1.10703e-08
-1.53803e-08
1.92056e-08
-2.10275e-08
2.12524e-09
1.30759e-08
1.16207e-08
-9.15289e-09
-1.52961e-10
1.49661e-08
-1.97454e-08
-1.15616e-08
7.8019e-09
5.22776e-10
-4.94772e-09
-6.84975e-09
8.69628e-09
3.10121e-09
-7.37888e-09
3.16613e-09
-7.34969e-10
3.49012e-09
-4.0869e-09
3.79926e-10
-3.73956e-09
-1.88493e-09
5.70058e-09
4.88064e-09
-1.08145e-08
5.5547e-09
3.37489e-09
-6.00823e-09
-6.68065e-09
2.81531e-09
9.56592e-09
-4.11514e-09
6.00627e-10
5.12081e-09
3.07774e-09
1.11997e-08
1.48729e-09
-4.81599e-10
6.05618e-09
1.09456e-09
1.19492e-08
-8.45865e-09
1.45793e-09
-9.39015e-10
7.41597e-10
1.16898e-09
-1.03692e-08
-5.51235e-09
-3.8851e-09
9.14651e-10
-5.39525e-09
-6.19611e-10
-3.92379e-09
3.92873e-10
4.77355e-09
1.56991e-09
-5.60187e-09
7.19134e-10
1.20958e-09
-3.56347e-09
-6.3354e-10
-3.55213e-09
-6.84741e-09
2.79441e-09
-9.88306e-09
1.03313e-08
-3.24262e-09
-1.05466e-08
1.29095e-08
4.31579e-10
-1.17604e-08
-1.88369e-09
3.09747e-09
-1.71169e-08
-4.52656e-09
-6.4629e-09
5.18382e-09
1.41886e-08
8.80528e-10
2.98784e-09
7.86022e-09
7.52617e-09
-1.61506e-09
-1.37713e-08
6.70863e-09
1.26155e-08
-1.14639e-08
-1.06079e-09
1.29532e-08
-6.38046e-09
-8.43565e-09
1.37553e-08
-7.94218e-09
2.44227e-09
1.11408e-08
-1.13904e-08
-7.69258e-09
7.15344e-09
-4.44827e-09
7.21703e-10
7.14442e-10
3.4797e-09
6.86942e-10
-2.52372e-09
2.55848e-09
1.18336e-10
-1.24342e-09
1.81204e-09
-9.79306e-10
-2.34898e-09
3.44663e-09
3.94423e-09
-1.36051e-09
1.63383e-09
-4.83519e-10
4.9931e-10
-1.53371e-09
-1.93237e-10
2.71027e-10
-1.32021e-10
-3.5867e-11
8.22898e-09
1.79769e-09
-7.91352e-09
-2.11313e-09
-4.12612e-09
4.2604e-09
8.09474e-09
-9.77693e-09
1.04374e-09
4.60708e-09
-7.10103e-09
-2.20969e-10
1.15824e-08
-5.46697e-09
1.63643e-10
4.90713e-09
9.68248e-09
-3.13337e-09
-1.14562e-08
1.34918e-08
-1.08149e-09
-7.50318e-09
-2.10175e-09
-6.15394e-09
-1.52121e-09
-6.28375e-09
-3.7315e-09
-1.1574e-09
9.41514e-09
5.2341e-09
2.37115e-09
4.74224e-09
5.71663e-09
1.24976e-08
-7.97632e-09
-4.80433e-09
-6.47281e-09
1.01957e-08
-2.48464e-09
5.75372e-09
-8.07338e-09
4.40622e-09
-1.00242e-08
1.44118e-09
4.53802e-09
-2.25466e-10
4.00362e-09
-5.88115e-09
-2.21708e-11
6.40208e-10
-1.85281e-09
-2.71045e-09
3.92305e-09
-9.37625e-10
-2.42909e-09
4.00692e-09
-2.4141e-09
6.54569e-09
-5.06921e-09
4.81343e-09
4.78299e-11
4.61839e-11
1.74891e-09
2.72539e-09
-4.52048e-09
1.68816e-09
-2.73462e-09
1.09264e-09
-1.42014e-09
3.01396e-09
5.41324e-09
4.08563e-09
-4.68541e-09
-4.12062e-09
1.38542e-09
8.14844e-09
4.09726e-09
-1.67218e-09
2.57193e-09
-1.10783e-09
-1.58058e-09
6.77405e-09
2.50579e-09
3.34037e-09
2.60447e-10
4.81636e-09
-2.57101e-09
-1.55345e-09
3.96093e-09
-2.14704e-09
2.72948e-09
-1.26538e-09
-3.50289e-09
4.04916e-09
-2.09972e-09
-8.42771e-10
6.93605e-11
7.16603e-09
3.64719e-09
-3.8425e-09
-6.97073e-09
7.58947e-09
-1.99204e-09
1.5686e-09
4.48999e-09
1.23972e-10
-9.66784e-10
4.08428e-09
7.99517e-09
-4.56992e-09
3.29092e-09
-7.13031e-10
-6.31067e-10
-7.78134e-09
-3.26452e-09
4.87838e-10
6.86096e-09
-3.40578e-10
3.66976e-10
2.47536e-09
3.56998e-09
-6.67642e-09
4.27246e-09
3.19795e-09
-4.99505e-09
3.35218e-09
-2.85889e-09
-4.23743e-09
3.74415e-09
-4.10046e-09
7.94049e-09
1.47731e-09
3.56778e-09
-1.47511e-09
5.66299e-09
8.67743e-11
3.68314e-10
4.42115e-09
-1.09924e-09
-1.6334e-09
1.95411e-09
-2.07841e-10
1.39723e-08
-2.00248e-09
-1.45004e-08
2.53062e-09
4.00013e-09
-6.94747e-09
1.69196e-08
-9.67862e-09
1.52242e-08
-1.54547e-09
3.52943e-10
-1.2034e-08
2.48432e-09
-1.80333e-08
1.04857e-09
-5.54027e-09
1.53159e-08
-1.67231e-08
9.25513e-09
3.46485e-09
2.50424e-09
1.09252e-08
1.52495e-08
5.29893e-09
-1.49421e-08
1.83763e-08
-8.73312e-09
-1.68037e-08
2.50065e-08
-2.90386e-09
-1.08714e-08
1.0441e-08
3.89532e-09
-6.63413e-11
-1.23452e-08
-3.0564e-09
-1.38136e-08
2.72597e-09
-1.32445e-08
-1.26045e-08
1.30514e-08
1.79294e-08
8.49591e-09
3.90609e-09
6.38408e-09
6.72492e-10
3.3844e-09
6.91173e-10
1.66181e-08
1.28786e-08
-1.3209e-08
7.65497e-09
-8.42124e-09
9.26218e-09
2.13975e-08
5.12984e-09
1.94047e-08
-7.97649e-09
-2.12595e-09
-9.3022e-09
-6.33627e-09
6.71621e-09
1.90247e-08
-1.33851e-08
9.17896e-10
6.13092e-09
-6.22685e-09
-1.51347e-08
-5.84902e-09
1.10883e-08
1.4939e-08
-6.71634e-09
-1.50642e-09
1.30759e-09
6.58052e-09
-1.4115e-08
-8.34033e-09
7.86099e-09
-4.62238e-09
5.10172e-09
5.87884e-09
9.60839e-09
3.00345e-09
-6.03132e-09
5.11316e-09
5.41312e-09
-1.39605e-09
-3.94084e-09
1.23406e-08
-1.94057e-09
3.44844e-09
-3.52864e-09
2.02074e-09
-2.03704e-09
1.03535e-10
-7.06509e-12
-5.55353e-10
-4.21415e-10
4.42518e-09
4.13534e-09
-3.4418e-09
-2.73058e-09
1.07649e-09
-4.69794e-10
5.78966e-10
-3.25127e-09
2.88292e-10
2.38383e-09
-3.55206e-09
7.60532e-10
3.37037e-09
-4.32068e-09
-2.48266e-09
-1.09322e-09
-9.88282e-10
1.75329e-10
1.90597e-09
2.09503e-11
1.00169e-09
-2.11619e-09
-3.566e-09
3.77108e-09
-1.70984e-09
-6.28353e-10
1.91668e-09
-1.61369e-09
7.37083e-12
-3.04262e-09
5.53091e-10
1.222e-09
-2.53247e-09
1.33131e-09
1.66908e-09
-2.00925e-09
7.07567e-10
-2.52819e-09
-9.79876e-10
-1.75438e-09
1.6212e-09
-1.59942e-09
6.99311e-12
4.93734e-13
3.21321e-10
2.10343e-09
-6.1754e-09
3.75068e-09
3.59019e-09
2.25665e-09
-5.52549e-09
2.36455e-09
-6.41631e-09
-5.5067e-10
4.60246e-09
-3.69945e-09
1.25996e-09
4.80408e-09
2.97842e-09
7.48306e-10
-1.36491e-10
5.82993e-09
1.90682e-09
-5.4801e-09
8.01827e-10
-1.38818e-09
8.08376e-11
-8.89381e-09
4.9973e-09
3.34586e-09
-1.66477e-09
-5.32218e-09
-6.29606e-09
6.73472e-09
-3.91732e-09
7.30216e-09
-2.12475e-09
5.23483e-09
-5.22568e-10
-4.22957e-09
-4.82622e-10
4.65036e-09
-3.33276e-09
1.85105e-10
-1.14126e-09
-9.06809e-09
-6.36503e-10
-7.20631e-09
8.02793e-09
7.07503e-10
4.68845e-10
-7.57649e-09
6.40017e-09
1.05826e-09
-7.49102e-09
7.14029e-09
-5.84856e-09
6.27034e-09
-8.28599e-09
7.61359e-09
3.57052e-09
-8.64361e-09
-3.99499e-09
-3.81563e-09
1.79854e-10
-1.79288e-09
-7.47143e-09
1.68784e-09
-9.29651e-09
1.26265e-11
-1.55594e-08
7.94382e-09
1.35646e-09
6.25917e-09
2.36176e-09
-3.35219e-09
-1.4569e-08
-2.71528e-09
-3.19464e-09
6.14008e-11
-1.11383e-08
1.07961e-08
-2.24803e-10
-8.55172e-09
-9.06202e-09
-2.94973e-09
-1.24909e-08
6.37589e-09
-1.49679e-09
-1.43462e-08
-6.71613e-09
-2.94115e-10
-1.90173e-09
-6.96667e-09
1.02224e-09
-1.1581e-08
-7.59561e-09
4.50303e-09
-6.93582e-09
4.05162e-09
-1.61879e-09
-2.84607e-09
4.71437e-09
2.63473e-09
2.24064e-09
-5.01373e-09
-4.16269e-09
-6.09055e-10
3.62271e-12
-7.66443e-09
3.9899e-11
5.22011e-09
2.40447e-09
4.95806e-09
-9.83054e-09
-2.79189e-09
-8.15595e-09
1.53447e-09
5.92237e-09
6.99208e-10
-6.31836e-09
-2.21607e-10
1.14981e-08
1.21058e-09
2.88093e-09
1.43442e-09
4.49053e-09
1.18834e-09
-8.63602e-10
-5.33846e-09
2.91387e-09
-5.60808e-09
-3.93814e-09
6.63236e-09
-2.31176e-10
3.11767e-09
2.73906e-11
-5.91206e-10
7.38249e-09
-2.15422e-09
-4.63711e-09
-7.59328e-09
-1.04889e-09
-4.6201e-09
-9.85418e-09
2.94058e-09
3.77807e-10
-4.18197e-09
2.42755e-09
-9.60231e-11
-2.23109e-09
3.0743e-09
-3.47139e-11
-7.23917e-09
2.00893e-09
-2.22596e-09
-5.13095e-09
2.19991e-09
5.157e-09
-6.64012e-09
-9.31453e-10
5.3456e-09
2.40914e-09
-6.22016e-09
-1.31994e-09
-3.39075e-09
-4.82337e-10
6.28222e-09
-5.8907e-09
-6.65264e-09
9.15258e-09
-6.34221e-09
2.51547e-09
3.25834e-09
5.68386e-10
6.46374e-09
-7.96662e-10
-1.18872e-08
-7.12837e-10
5.36462e-10
4.79411e-09
5.07427e-09
-1.0665e-08
-2.98664e-10
-7.9792e-10
6.30277e-09
-1.52717e-09
-7.52271e-10
9.73779e-09
1.70147e-08
-1.27167e-08
-1.40358e-08
8.80473e-09
-2.5269e-09
3.45997e-09
1.13162e-08
4.66771e-09
1.03079e-09
7.03269e-09
1.30883e-08
-1.19502e-08
2.10963e-08
-2.11338e-09
-1.27664e-08
5.48399e-09
-1.63455e-08
1.3728e-08
-1.01489e-08
1.16021e-08
-6.18212e-09
4.17376e-09
-9.59376e-09
4.94108e-09
5.58273e-09
-1.30507e-08
-1.52647e-08
9.2742e-09
2.28246e-09
3.70803e-09
3.93714e-09
-5.82383e-09
-1.90344e-08
2.09212e-08
-1.05807e-09
-1.13503e-08
1.16525e-08
-8.82444e-10
-1.65939e-08
3.03012e-09
-6.64229e-09
-8.69259e-09
-4.77752e-09
1.65002e-08
-7.6194e-09
-1.15558e-08
1.04826e-08
3.74576e-09
-1.22476e-08
-1.00291e-08
-1.52236e-09
3.91736e-09
9.12878e-09
-1.15237e-08
1.88778e-09
-1.41317e-08
2.95211e-09
9.29184e-09
-1.2081e-08
3.0098e-09
1.09591e-08
8.40552e-09
-1.23521e-08
2.42431e-09
-2.0979e-08
3.9114e-09
2.09851e-08
-3.8712e-09
-7.38024e-09
-9.72761e-09
1.77684e-08
-1.03921e-08
-1.12475e-08
-9.76469e-11
2.17775e-08
1.94781e-08
-2.40184e-09
-7.44789e-09
-9.62825e-09
2.36439e-08
-4.26338e-09
-1.03801e-08
-1.27131e-09
2.40675e-09
9.24462e-09
1.21858e-09
-3.66012e-09
-7.93853e-09
1.15589e-08
-2.91952e-09
-7.42077e-09
1.54229e-09
8.74526e-09
-6.06377e-09
1.64361e-09
5.96244e-09
1.09614e-09
-4.76126e-09
-2.39865e-09
-1.0276e-09
-2.79342e-09
3.30518e-09
5.15852e-10
3.59323e-09
-7.82689e-10
-3.83815e-09
-4.88325e-09
1.12276e-09
6.16725e-09
-2.66679e-09
1.42754e-10
4.16766e-09
-1.5547e-09
-1.5958e-11
-1.5456e-09
-6.13518e-09
-4.12307e-09
-1.145e-09
3.84824e-10
-1.30952e-09
-6.47366e-09
-2.18039e-09
-3.41364e-09
2.80061e-09
-1.69593e-10
1.88135e-09
1.88147e-09
1.58088e-09
3.14686e-09
-5.03551e-09
6.14617e-09
-3.44119e-09
-4.96456e-09
2.25961e-09
5.15573e-11
4.65111e-09
1.44357e-09
-6.95142e-09
1.54936e-09
-3.0443e-09
-5.635e-11
-3.85067e-09
-3.9159e-10
-6.0938e-09
-3.26184e-09
8.93303e-10
4.06396e-09
4.30257e-09
2.60642e-09
-2.25794e-09
2.34455e-09
-1.92898e-09
-2.02876e-09
1.61318e-09
2.24857e-09
1.92507e-09
-4.56509e-09
4.88899e-09
-2.69675e-09
1.71099e-09
-1.29752e-09
-1.94578e-09
3.94893e-10
1.12541e-09
4.4699e-09
-2.92816e-09
4.9469e-09
-2.90585e-09
3.71732e-09
-3.73967e-09
-7.93545e-10
2.32262e-10
3.00536e-09
-3.00928e-09
2.66116e-10
5.40608e-09
-1.9192e-08
-1.99557e-10
1.39854e-08
1.369e-08
-1.36017e-08
5.3178e-09
1.86336e-08
-5.31094e-09
3.67238e-10
2.27842e-08
-1.78283e-08
1.08861e-09
-6.04455e-09
-2.68576e-09
5.744e-09
1.9726e-08
-1.59672e-08
1.0927e-09
1.21888e-08
-1.80833e-08
-1.57122e-08
1.85885e-09
-7.85872e-09
-7.6018e-09
-9.00368e-09
-8.32944e-09
1.65525e-08
-1.13854e-08
-4.07852e-09
1.73951e-08
4.90136e-09
-1.73269e-08
1.3942e-08
4.47761e-09
-8.21148e-09
-1.00614e-08
4.50101e-09
1.37718e-08
-1.21749e-08
-3.89528e-09
6.15518e-09
-9.73589e-09
-6.23185e-09
-1.46243e-08
-6.82239e-09
-1.40977e-09
-2.53895e-08
8.28935e-09
-1.9435e-08
-6.35046e-09
5.3055e-09
3.41204e-09
-2.36711e-09
2.96526e-09
-7.39264e-09
-1.92308e-09
1.81604e-09
-2.55184e-09
3.22639e-09
-2.4906e-09
4.94567e-09
8.06664e-10
-3.9363e-09
6.0445e-09
-3.07812e-09
-1.12484e-12
6.66385e-09
4.68614e-09
4.78841e-09
1.41764e-09
-2.79402e-09
-3.26419e-09
3.671e-09
-2.99311e-09
2.58628e-09
3.72404e-09
-2.04257e-09
-5.47376e-09
1.01413e-09
8.1306e-09
-2.31472e-09
5.64991e-10
3.12985e-09
9.94293e-10
-7.11726e-09
-4.44981e-09
-2.19094e-09
7.65487e-09
-1.97613e-09
7.60276e-09
3.70646e-09
-7.48452e-09
8.75591e-09
-4.97786e-09
-6.52323e-09
-7.09782e-10
1.09395e-08
1.01507e-08
-1.01707e-08
4.90451e-09
-4.88453e-09
-3.47542e-09
7.22379e-09
6.40232e-09
-7.60941e-09
-1.27951e-08
1.46995e-08
5.70496e-09
2.92318e-09
4.14593e-09
-1.45536e-08
6.27433e-09
-9.87439e-09
3.03024e-09
-4.44504e-09
-1.48872e-08
3.80231e-09
-2.03232e-08
1.38007e-08
-6.27263e-09
6.54797e-09
-8.45018e-09
8.17652e-09
-8.42793e-09
-3.429e-09
-2.49355e-09
-1.15606e-08
2.06021e-08
-8.07153e-09
-1.47452e-08
-1.23535e-08
-2.39862e-09
2.71631e-09
2.0019e-10
-5.17882e-10
2.11049e-09
-2.62765e-09
-1.78066e-09
2.47748e-09
2.01948e-09
4.28868e-10
-9.90514e-11
3.72322e-09
-3.76155e-10
-1.6038e-09
-8.89913e-10
4.97119e-09
-1.99325e-09
-1.78835e-09
2.17781e-09
-1.50931e-09
-5.50775e-11
-2.79745e-09
5.63076e-09
-2.86465e-09
2.21455e-10
8.54852e-10
-1.98469e-09
-2.38927e-09
1.59166e-09
-2.78753e-09
1.27002e-08
-2.64794e-09
-7.26473e-09
7.76184e-09
-5.22617e-09
-5.32321e-09
-2.56496e-09
9.31502e-09
5.95012e-09
2.12167e-10
4.98468e-09
4.37905e-09
-1.30725e-08
3.46726e-09
-7.76007e-09
-3.52519e-09
5.51975e-09
5.76547e-09
7.2063e-09
-1.05873e-08
2.62518e-10
3.41857e-09
-4.11314e-09
2.22662e-09
1.12015e-08
2.39488e-09
-8.47273e-09
1.9647e-09
1.22504e-08
-6.58887e-09
-3.43489e-09
3.66112e-09
1.16472e-08
-1.07012e-08
-1.288e-08
2.65573e-09
1.59409e-08
-9.73978e-09
2.09392e-09
1.61132e-08
-9.79637e-09
-1.51245e-08
-1.54414e-09
9.05756e-09
7.61112e-09
-7.39167e-10
-1.00571e-08
-4.3282e-09
9.4803e-09
8.36302e-09
-1.93874e-08
-1.40191e-08
1.63783e-08
1.28278e-09
-3.64194e-09
-2.28404e-09
-1.97177e-08
7.98267e-09
1.37232e-08
-2.15351e-09
4.80865e-09
-1.31899e-08
8.71551e-09
1.3532e-08
-4.62833e-09
-9.30071e-09
-1.1577e-08
2.48994e-09
1.85674e-08
-9.99387e-09
1.30004e-08
-1.72376e-09
4.16403e-09
-1.64419e-08
-7.59127e-09
9.73748e-09
1.16849e-08
-1.14393e-08
1.09139e-08
-1.11595e-08
-5.23572e-09
1.76324e-08
-7.11785e-10
6.13789e-09
-1.34131e-08
-3.72614e-09
-8.60462e-09
1.98101e-08
3.88547e-09
1.52371e-09
1.29761e-08
1.82325e-09
2.2004e-08
3.35924e-09
1.15858e-09
-8.52955e-09
4.01168e-09
2.55494e-09
-7.49652e-09
1.20225e-09
2.56278e-09
-2.01031e-09
-9.06831e-09
1.98232e-09
1.54699e-09
3.64841e-09
-3.15331e-10
-4.87991e-09
5.0943e-09
4.85243e-10
-4.03237e-09
-7.81063e-09
-1.21082e-09
1.52502e-09
-6.88412e-09
-9.99477e-09
-2.26722e-09
-3.99019e-09
4.24708e-09
5.53208e-09
-4.06045e-09
-4.18624e-09
2.71467e-09
3.85464e-09
-5.89826e-10
7.87002e-10
5.63738e-09
-1.32997e-09
3.75032e-10
1.95408e-09
-7.23381e-09
-4.44482e-09
4.36359e-10
1.63171e-09
1.33453e-09
2.22472e-09
-5.19125e-09
1.03568e-10
3.45797e-09
-1.92993e-09
2.86994e-09
-1.43193e-09
-5.34758e-09
4.47809e-09
3.73927e-09
1.79891e-09
-3.89608e-09
1.72519e-10
1.92445e-09
-4.52972e-09
1.96296e-09
4.36534e-09
-4.96784e-09
4.89688e-09
5.69569e-09
-8.36789e-09
6.1405e-09
-1.26201e-09
1.83583e-11
3.10721e-09
2.76088e-09
1.49042e-09
2.06607e-09
-1.59404e-09
-1.18583e-09
5.55776e-09
-2.88156e-09
8.0619e-09
-1.02566e-10
1.50198e-09
-2.25445e-09
8.54733e-10
3.27208e-09
-7.61503e-11
-2.61754e-09
-5.78575e-10
-4.67842e-10
6.16547e-09
-7.85573e-09
2.15786e-09
-7.26333e-09
5.40911e-09
1.38608e-09
-8.84317e-10
6.99437e-10
3.45681e-09
-1.44819e-09
-7.62039e-10
2.09646e-09
1.13409e-10
1.48742e-09
-2.37262e-09
5.26463e-13
5.89287e-09
-5.43361e-10
8.15752e-10
-1.80258e-09
1.15882e-09
6.53654e-09
-4.58163e-10
-4.67737e-09
5.05928e-09
2.82091e-09
-3.38178e-09
3.50576e-09
-8.54059e-09
1.58347e-10
-3.91597e-09
-2.62639e-10
3.86913e-09
2.33128e-09
1.19852e-09
-2.02816e-09
7.9844e-10
1.57327e-09
-4.11315e-11
2.25637e-09
2.94909e-11
-3.29078e-09
-2.54343e-10
4.70383e-09
-2.05359e-10
-3.62879e-09
-3.42022e-09
3.80879e-09
1.18448e-09
-2.06333e-09
2.02803e-09
2.21826e-09
-1.98991e-09
1.27049e-09
2.27562e-09
3.04417e-09
9.94602e-09
-5.96762e-09
1.67499e-09
-5.65342e-09
-7.82509e-09
4.04272e-09
1.37284e-08
1.02635e-08
-1.60408e-08
-1.90314e-10
-9.2054e-09
1.16438e-08
-4.28192e-09
-5.35198e-09
1.13089e-08
1.02685e-08
-1.18168e-08
-9.71645e-09
1.12647e-08
9.44971e-10
3.10662e-10
9.01286e-09
-1.10612e-08
2.2222e-08
-9.63161e-09
-1.52915e-09
3.01151e-10
-1.0091e-08
-1.27134e-09
3.3037e-09
5.69865e-09
1.60904e-09
-1.06114e-08
7.15181e-09
3.82175e-09
-7.66993e-09
3.17809e-09
4.27957e-09
-3.05861e-10
5.42781e-09
6.99424e-09
-6.7234e-09
8.57742e-09
2.84515e-11
-6.29066e-09
6.90965e-09
-4.90095e-09
3.2744e-09
-9.87631e-10
1.44428e-08
-3.4365e-10
-1.02774e-08
5.18079e-09
1.35415e-08
3.84314e-09
8.62252e-09
-1.08567e-08
1.3379e-08
-9.87954e-09
7.19648e-10
-8.13875e-09
1.44134e-08
-7.11421e-09
1.62251e-08
4.2681e-09
7.26343e-09
-5.7551e-09
-8.05769e-09
1.06507e-08
-7.89639e-11
3.46652e-09
-5.46537e-10
-9.45772e-09
6.53799e-09
6.8906e-10
-9.69741e-09
1.24749e-08
1.56176e-09
-5.82096e-09
3.71261e-09
-4.55601e-09
6.80697e-09
-6.54382e-09
-5.07383e-09
7.06162e-09
-5.46956e-09
-2.40965e-09
1.3355e-09
5.64173e-09
-7.30107e-09
-7.79834e-09
-5.03343e-09
9.77811e-10
2.90204e-09
-5.65542e-09
-2.71617e-09
-2.24228e-09
7.05501e-11
-1.00071e-08
2.28534e-10
2.47758e-09
-4.17231e-10
-1.02468e-08
6.57037e-10
-4.21992e-10
-7.0211e-09
-8.82363e-09
6.34527e-09
2.70695e-09
2.88979e-10
-9.52982e-09
-3.53419e-09
4.05855e-09
-5.75019e-09
-2.62096e-11
4.3697e-10
-5.89814e-09
-5.3595e-09
1.4107e-10
4.05819e-10
-6.09073e-09
4.28077e-09
1.40415e-09
-4.67859e-10
-2.34227e-09
-8.21663e-09
1.10268e-08
-6.32448e-09
-1.73665e-09
1.99685e-09
-5.97481e-09
4.38376e-09
-1.7272e-09
-1.51885e-09
-2.8447e-09
-3.27376e-09
-5.57439e-09
7.12095e-09
-6.17792e-09
5.8325e-09
-2.07947e-09
-8.14851e-09
2.01138e-09
-7.25702e-09
-1.14691e-09
-2.65242e-09
-1.31864e-09
6.87928e-09
-2.90823e-09
3.11844e-09
-4.88047e-09
-8.90398e-10
-3.91082e-09
-3.58284e-09
-8.15922e-09
-6.16721e-09
-6.33262e-09
-3.14523e-09
5.02453e-10
-8.80188e-10
3.47125e-10
-9.96182e-09
-4.28963e-09
1.14618e-08
2.78974e-09
5.9578e-09
-4.78368e-09
-1.11359e-08
-4.54478e-09
6.80513e-09
3.69748e-09
5.88414e-09
1.38729e-08
-1.39267e-08
-5.83022e-09
-5.63693e-09
1.1382e-08
1.39115e-10
1.10459e-08
8.90152e-10
-4.18545e-09
-7.75056e-09
5.721e-09
-3.12037e-10
2.76025e-09
1.16546e-09
7.45628e-09
1.20255e-08
4.60759e-09
1.06067e-08
-3.29416e-09
-8.67351e-09
-4.36306e-09
-4.91779e-09
8.00988e-09
1.18982e-08
-1.38012e-08
1.31694e-08
4.79322e-09
-1.22416e-08
9.79004e-09
4.77226e-09
-1.15499e-08
1.71187e-08
-1.03411e-08
8.94493e-09
-2.56322e-09
-1.02404e-08
3.85874e-09
-1.74062e-08
7.87213e-09
1.8479e-08
-1.63821e-08
6.60049e-09
7.21832e-09
-1.41747e-08
-1.54254e-08
1.3218e-08
-8.08703e-09
-9.27274e-09
-4.64372e-11
-1.19689e-08
-6.35858e-09
1.34623e-08
-2.10102e-09
-1.50032e-08
2.036e-09
2.23819e-08
-1.58585e-08
5.83237e-09
-1.37132e-08
-3.04309e-09
8.97785e-10
4.3953e-10
-1.45094e-08
3.14958e-09
-1.68848e-08
-1.22874e-08
-1.96748e-09
6.84129e-09
6.21233e-09
-1.1086e-08
3.19534e-09
4.43281e-09
-9.59558e-09
3.85961e-09
-8.41832e-09
7.75403e-09
9.76848e-09
-1.71198e-09
-4.19683e-09
6.14502e-09
-5.13641e-09
-6.33081e-09
-6.90298e-09
-1.86772e-09
1.49157e-08
-3.34016e-10
5.47546e-09
5.04201e-09
-1.01834e-08
4.29808e-09
-3.41989e-09
-5.71004e-09
1.59712e-08
8.7058e-09
-7.69287e-09
1.10383e-08
5.69543e-09
-9.87868e-10
7.22927e-09
-8.43683e-09
-6.96446e-09
1.05722e-08
1.29524e-08
-3.32272e-09
-9.23866e-10
7.13501e-09
-1.147e-09
8.10183e-09
-1.20291e-08
9.54348e-09
-5.61622e-09
1.22213e-08
-4.10003e-09
-1.94493e-11
1.12281e-08
2.09644e-09
-1.32542e-08
-7.02687e-11
3.10214e-09
8.49657e-09
-3.70646e-10
-3.10987e-09
-1.51278e-08
1.57979e-08
2.4398e-09
9.59486e-09
-4.83424e-10
8.97642e-10
-1.05894e-08
-2.3373e-09
8.7733e-10
-6.46165e-09
4.14228e-09
1.09598e-08
-1.19999e-08
-8.61764e-10
1.03169e-08
-9.58549e-10
4.47942e-09
-1.33322e-08
1.26717e-08
-3.81896e-09
-5.79179e-09
1.02522e-08
1.89733e-11
1.17937e-08
8.1525e-10
-1.05125e-08
-2.40024e-09
9.16684e-09
-7.45394e-09
-7.24985e-10
3.26997e-09
7.61829e-09
-1.2934e-09
2.80184e-09
1.6266e-08
-1.85475e-09
2.97074e-09
7.91406e-09
1.04003e-09
-2.42301e-08
1.32408e-09
6.24335e-09
1.66627e-08
-4.14135e-09
-1.24182e-08
-7.6706e-09
-1.48548e-09
1.28749e-08
-1.5641e-08
4.25164e-09
-1.33048e-08
1.83834e-09
9.98103e-09
-6.16884e-09
1.81579e-08
8.85829e-10
-5.12246e-09
-5.4888e-09
5.30198e-09
5.30928e-09
-8.98711e-10
6.12888e-09
-1.03526e-08
1.78644e-08
-1.22037e-08
-9.80205e-09
1.36997e-08
-1.89603e-08
1.90348e-08
-1.29804e-08
-1.83981e-08
-8.19261e-09
1.00617e-09
-6.11839e-09
-1.22562e-08
-9.31598e-09
5.9312e-09
-1.56895e-08
-4.7593e-09
-1.3326e-08
9.62082e-10
1.60247e-10
-2.03586e-09
2.00294e-09
-1.32931e-08
-2.93558e-09
1.40289e-09
-7.78327e-09
-1.62952e-09
-1.69956e-08
1.34119e-08
-1.70773e-08
1.6059e-09
1.27681e-08
-9.5746e-09
5.42704e-11
5.83553e-09
-1.78585e-09
-4.10395e-09
-2.82581e-09
3.84951e-09
-9.69425e-10
-2.88617e-09
-5.01393e-09
3.53253e-10
7.54686e-09
-7.21151e-09
-7.04855e-10
5.03018e-09
2.23978e-09
-6.408e-09
1.34241e-09
5.71276e-09
-6.02811e-10
7.25576e-10
7.84835e-10
3.60736e-09
-5.42667e-10
-3.64127e-09
-2.5666e-09
1.19393e-09
-5.4622e-09
-5.39057e-09
-2.98227e-09
5.29498e-09
-1.95945e-09
3.26666e-09
1.74125e-09
2.17431e-09
-3.24454e-09
3.44431e-09
-2.37407e-09
3.35039e-09
-3.91233e-10
3.39009e-09
-4.39485e-09
3.11325e-09
-4.35158e-10
7.66231e-10
3.48137e-09
3.88335e-10
8.36766e-09
9.04845e-09
-1.22793e-08
-5.13681e-09
-7.96021e-09
4.34765e-09
1.19802e-08
8.43565e-10
1.84743e-09
6.35746e-09
-9.21669e-09
-9.68939e-10
1.17078e-08
-1.5222e-09
-2.241e-09
-1.70856e-08
1.01099e-08
5.37741e-09
6.80206e-09
-1.44205e-08
7.06751e-09
-2.65904e-09
5.3163e-09
-1.05281e-08
-1.01031e-09
-1.6336e-09
-7.06305e-09
4.0455e-09
-7.23412e-09
1.02517e-08
-1.05313e-08
3.54554e-09
-7.72663e-11
-3.23236e-09
-4.58418e-09
1.1862e-08
-1.10113e-08
8.8446e-09
3.01026e-09
-5.42241e-09
6.11894e-09
8.46281e-09
-2.67107e-09
-4.37316e-09
3.52226e-10
-3.21319e-09
-6.44169e-09
7.68417e-09
1.55126e-08
-5.70627e-09
-1.74905e-08
1.32964e-08
-2.85596e-09
8.45056e-09
2.14883e-09
-7.74344e-09
-8.61064e-09
6.00853e-09
-2.53843e-10
-4.55016e-09
-1.05662e-08
4.04611e-09
1.10702e-08
1.87436e-09
2.02602e-09
-1.51252e-08
-8.49944e-09
5.82711e-09
1.77975e-08
8.59592e-09
-1.05302e-08
-1.31909e-08
4.06072e-09
-6.24567e-09
-6.4257e-09
-9.60606e-09
5.04837e-09
-5.4282e-09
6.93102e-09
-8.37982e-09
6.87699e-09
3.99867e-09
-1.27907e-08
3.36381e-09
3.1748e-09
4.13011e-09
-1.58044e-08
8.10796e-09
9.18711e-09
4.32777e-09
-6.03879e-09
3.58536e-09
1.4201e-08
-3.43941e-09
-2.10593e-09
7.16566e-09
-8.48656e-10
6.14006e-10
4.30167e-09
-2.62514e-11
-4.46752e-09
4.33383e-09
1.59944e-10
-3.46106e-09
3.29757e-09
1.37255e-10
-2.61055e-10
8.20661e-10
-5.02708e-09
-4.06607e-09
3.43964e-10
-6.39284e-09
1.15429e-10
1.61893e-10
6.11556e-09
2.49443e-10
-5.8216e-09
2.08308e-10
4.24095e-09
8.72859e-12
3.49714e-09
5.13064e-09
3.10269e-09
-3.0954e-09
-5.13795e-09
3.06655e-11
-3.04095e-10
5.40408e-09
3.14209e-09
7.83529e-09
-6.81071e-09
-7.75119e-10
7.69308e-09
6.32675e-10
-5.38268e-11
-3.61628e-09
3.03747e-09
4.66422e-11
-3.48003e-09
-1.74213e-09
2.27875e-09
-2.15526e-09
1.61862e-09
1.60392e-10
-1.8313e-09
-7.12336e-11
4.29306e-10
-2.11138e-09
1.62829e-09
2.7547e-09
-1.54963e-09
-2.44274e-09
1.881e-09
-1.33731e-09
-5.19181e-11
-5.38787e-09
4.75029e-09
-2.97869e-09
-1.71719e-09
-4.78294e-09
1.11227e-09
-1.8679e-09
2.07212e-10
-4.94573e-10
-1.6863e-09
-2.0129e-09
-2.68495e-09
-5.87868e-10
1.19359e-09
-9.55631e-10
-1.57525e-09
-1.44412e-09
1.94981e-10
-4.5864e-10
-3.94351e-09
-3.10057e-09
4.85674e-09
1.07354e-08
-3.52116e-09
-1.2071e-08
3.23341e-10
1.11723e-08
-6.63885e-09
-6.05664e-09
1.28537e-08
-6.47366e-09
4.04025e-09
8.08132e-09
-1.38615e-09
1.17224e-08
3.4901e-09
-2.50144e-09
1.05957e-08
-1.41509e-08
1.05347e-08
-1.65572e-08
-9.71243e-09
1.43054e-09
-3.11332e-10
8.59324e-09
1.35325e-08
-1.03913e-08
1.25066e-09
1.37124e-08
1.4198e-10
1.19752e-08
-1.52145e-09
1.13037e-08
-6.27079e-10
1.53463e-09
1.22672e-08
-2.49805e-09
9.98819e-09
-3.72231e-10
3.93283e-10
1.25798e-08
7.08628e-10
-1.02951e-09
1.25881e-08
1.10901e-08
1.06343e-08
-1.00544e-08
2.17157e-09
-1.22754e-08
1.42709e-08
-1.31228e-11
2.355e-09
-7.03748e-09
-1.88776e-09
5.14492e-09
2.06129e-08
1.98199e-09
-1.01397e-08
-1.24551e-08
-1.2953e-09
-6.16889e-10
2.25251e-08
-1.99129e-08
-1.57228e-09
2.019e-08
-1.07818e-08
-7.1491e-09
1.23335e-08
-9.88096e-10
-1.37401e-08
2.39479e-09
-1.3289e-09
1.19662e-08
-1.12541e-08
6.24314e-09
-6.28738e-10
6.71912e-09
-5.07669e-10
-9.9975e-09
8.93288e-09
1.20272e-09
1.17893e-08
-1.39801e-08
-1.46664e-09
-9.74181e-09
-1.21922e-08
1.02178e-08
-3.78929e-09
2.90621e-10
6.80467e-09
-1.05422e-08
-7.04422e-09
-3.03508e-09
-1.5776e-10
1.60498e-09
8.63204e-09
-9.03427e-09
-8.87242e-09
-6.47928e-11
1.13683e-08
-3.36833e-09
6.01424e-09
-4.17279e-10
5.1904e-09
-9.49557e-09
9.2363e-09
1.95967e-09
-1.7004e-09
1.60783e-09
1.50228e-09
-1.26057e-08
1.65091e-08
4.00395e-09
-1.89052e-08
1.84503e-09
2.09438e-08
-6.27982e-09
1.36848e-08
-2.60345e-09
-9.38174e-09
4.04972e-09
6.58507e-09
-1.25305e-09
-3.26784e-09
-4.04016e-09
7.01189e-09
2.9611e-10
7.61861e-09
2.79897e-09
-8.91531e-09
1.96543e-10
4.668e-09
-3.88613e-09
3.59264e-09
-1.04773e-09
2.67569e-08
9.44717e-10
-2.36977e-08
-2.61163e-09
1.80453e-08
1.13232e-08
-1.69818e-08
1.13795e-08
4.32366e-09
1.27866e-09
-1.71765e-09
-1.43194e-08
1.19758e-08
6.35645e-09
4.11564e-09
8.31608e-09
-1.02217e-08
1.74581e-09
1.31439e-08
-3.71422e-09
-1.03936e-08
-1.29828e-08
1.40642e-08
1.09391e-08
1.84857e-08
4.07624e-09
1.20152e-08
1.67612e-08
-1.17227e-08
1.49307e-08
-1.10523e-08
7.84435e-09
-7.09284e-09
1.00509e-08
-1.46808e-08
2.30189e-10
8.45129e-09
-1.12151e-08
2.53364e-09
1.90742e-09
6.02875e-09
-7.70596e-09
2.67079e-08
-1.2749e-08
9.71842e-10
1.28828e-08
-1.27293e-08
1.75394e-09
1.10539e-09
4.92741e-09
-1.70851e-08
5.75307e-09
1.1428e-08
-8.72974e-09
1.03262e-08
1.45561e-09
7.44287e-09
1.94582e-09
9.36832e-09
4.61984e-09
-1.28382e-08
1.2285e-08
1.08794e-08
3.01895e-09
-1.6975e-09
8.04686e-09
1.97219e-08
-9.59093e-09
-2.24211e-08
1.22902e-08
1.98033e-08
-1.47308e-09
1.39177e-09
7.8649e-09
1.02756e-09
-1.71535e-08
8.26091e-09
9.83996e-09
-2.07444e-10
-8.38453e-10
-8.79415e-09
1.06355e-08
8.94896e-09
-9.74453e-09
9.4932e-09
-1.07325e-08
9.10418e-09
9.95499e-09
2.82515e-10
-7.44418e-10
1.0382e-08
2.43179e-08
-1.48966e-08
-9.53098e-09
8.44168e-09
-3.83745e-10
-1.80943e-08
6.79144e-09
8.12502e-09
-4.96153e-09
1.65387e-08
-9.42643e-09
1.3294e-09
5.91384e-09
1.54604e-08
-4.8355e-09
1.66444e-09
1.57624e-08
1.79603e-08
-4.5782e-09
3.20462e-09
-6.52289e-09
7.89645e-09
-3.08329e-10
-7.37344e-09
3.10358e-09
5.46051e-09
-2.49788e-09
-1.18021e-08
8.83953e-09
8.54463e-09
2.01737e-09
-5.10146e-09
3.74512e-09
4.58617e-09
-8.63962e-09
-1.11785e-08
-1.07884e-08
9.77651e-09
1.21905e-08
-1.25762e-08
4.96472e-09
-3.56703e-09
-2.96622e-09
-4.23197e-09
1.04028e-08
1.12111e-08
-3.34478e-09
6.78288e-10
4.12794e-09
-6.60079e-09
-4.90058e-09
-2.6427e-09
2.47752e-10
1.90895e-09
-1.10076e-08
-1.96594e-09
-3.49652e-09
-1.10456e-08
-7.4524e-09
1.42627e-08
-3.26019e-09
7.72524e-10
5.84772e-09
-7.43529e-09
-5.51624e-11
-1.95118e-09
3.81291e-09
2.66665e-09
-4.52838e-09
2.44728e-09
-4.46716e-09
6.86912e-11
2.31431e-10
-2.36091e-09
4.57674e-09
7.10637e-09
-3.06203e-09
-2.34241e-09
-1.24439e-09
-8.80354e-10
1.244e-09
-5.8058e-09
4.48159e-09
8.02213e-11
-4.27876e-09
4.32509e-09
1.19766e-09
2.51197e-09
-4.2651e-09
-4.05268e-09
-1.0313e-09
-7.35491e-10
7.87587e-09
-9.12292e-09
4.29459e-09
-3.04752e-09
2.58781e-09
-9.2799e-11
5.38087e-09
-3.9308e-09
5.89498e-09
-1.78387e-09
2.33468e-09
-9.83525e-10
-2.39018e-09
1.8958e-09
2.65426e-09
-6.33389e-09
-5.77925e-09
-5.22663e-09
1.28055e-09
2.67419e-09
-6.65255e-09
-1.80099e-09
-2.29573e-09
2.74631e-10
-6.34484e-09
2.38941e-09
-5.78943e-09
-8.84155e-10
-6.49711e-09
1.03631e-09
-6.26018e-10
-4.50684e-09
-1.51959e-09