/*--------------------------------*- C++ -*----------------------------------*\
| =========                 |                                                 |
| \\      /  F ield         | OpenFOAM: The Open Source CFD Toolbox           |
|  \\    /   O peration     | Version:  v1612+                                |
|   \\  /    A nd           | Web:      www.OpenFOAM.com                      |
|    \\/     M anipulation  |                                                 |
\*---------------------------------------------------------------------------*/
FoamFile
{
    version     2.0;
    format      ascii;
    class       volScalarField;
    location    "239";
    object      p;
}
// * * * * * * * * * * * * * * * * * * * * * * * * * * * * * * * * * * * * * //

dimensions      [0 2 -2 0 0 0 0];

internalField   nonuniform List<scalar> 
16840
(
3.22128
3.20803
3.24515
3.21718
3.22075
3.21759
3.24002
3.24289
3.23459
3.22982
3.25999
3.2473
3.26542
3.24963
3.22325
3.2139
3.23694
3.23248
3.23167
3.20411
3.21273
3.23943
3.2478
3.22346
3.20766
3.21065
3.22576
3.23173
3.20777
3.2457
3.27184
3.27894
3.28634
3.28469
3.26611
3.26931
3.27571
3.28637
3.28416
3.27131
3.26648
3.28315
3.26775
3.27289
3.27805
3.18823
3.19285
3.2132
3.21313
3.20885
3.20302
3.1929
3.17788
3.19993
3.18049
3.21639
3.21429
3.20581
3.21354
3.20689
3.21098
3.19663
3.23657
3.25014
3.21551
3.21323
3.24764
3.24282
3.26521
3.23568
3.2076
3.24366
3.22865
3.24214
3.25436
3.23701
3.26323
3.22433
3.24743
3.23998
3.23338
3.23413
3.25131
3.24249
3.23563
3.2503
3.2616
3.23391
3.23637
3.26883
3.25222
3.26538
3.2629
3.21383
3.21694
3.21191
3.20754
3.22029
3.21823
3.20354
3.19302
3.1942
3.18603
3.19194
3.18139
3.13069
3.12691
3.11502
3.11398
3.12459
3.12603
3.11309
3.09879
3.10851
3.11175
3.10561
3.09364
3.10968
3.11495
3.13084
3.12796
3.11705
3.10306
3.11594
3.11407
3.11147
3.11688
3.28665
3.28701
3.28833
3.28632
3.28335
3.27534
3.28406
3.27972
3.28351
3.28305
3.28103
3.27591
3.27215
3.26751
3.26987
3.27362
3.28009
3.28214
3.28825
3.27959
3.27639
3.12264
3.12732
3.1234
3.12668
3.12297
3.12355
3.12121
3.12655
3.12566
3.12199
3.12984
3.13241
3.12512
3.12188
3.13036
3.1306
3.12801
3.13024
3.13081
3.132
3.19894
3.2125
3.21053
3.21488
3.22941
3.21976
3.20572
3.23736
3.23092
3.1901
3.20772
3.21801
3.2019
3.18773
3.1836
3.19005
3.20257
3.20218
3.18636
3.18573
3.29315
3.29867
3.29738
3.2862
3.28714
3.29991
3.29355
3.27414
3.27808
3.27153
3.26913
3.28099
3.29373
3.29783
3.2827
3.28245
3.27519
3.27792
3.28809
3.28663
3.28804
3.29621
3.15266
3.14346
3.17699
3.16268
3.18293
3.16048
3.17869
3.16087
3.14158
3.14168
3.15963
3.16402
3.16264
3.1687
3.17814
3.17121
3.18671
3.15685
3.18703
3.19941
3.18611
3.1958
3.08289
3.07535
3.07154
3.06692
3.08466
3.07653
3.06361
3.08911
3.07302
3.08429
3.08347
3.07644
3.06873
3.07257
3.07403
3.30159
3.30493
3.29319
3.29406
3.29441
3.30881
3.30742
3.3032
3.30514
3.28728
3.29075
3.31598
3.30641
3.3134
3.31156
3.30683
3.29713
3.20299
3.1936
3.20322
3.21256
3.20873
3.20822
3.20517
3.19399
3.20204
3.21685
3.17096
3.17863
3.17036
3.17262
3.17566
3.16957
3.24938
3.22964
3.2306
3.23784
3.25705
3.24729
3.22377
3.23496
3.2393
3.25228
3.21083
3.22334
3.23178
3.24323
3.32647
3.33195
3.31987
3.32088
3.33283
3.3232
3.33059
3.33379
3.32235
3.32891
3.31434
3.31582
3.31933
3.31337
3.33324
3.33876
3.33664
3.33956
3.32641
3.32715
3.21716
3.21343
3.21265
3.21234
3.22233
3.21986
3.21289
3.21406
3.2099
3.23931
3.23617
3.22087
3.23198
3.23268
3.23964
3.22655
3.23358
3.22776
3.21308
3.20435
3.22404
3.2342
3.21899
3.17849
3.19044
3.21887
3.23211
3.20622
3.18875
3.19427
3.11408
3.14428
3.13602
3.14546
3.12651
3.12859
3.13134
3.14615
3.17483
3.16782
3.16687
3.15781
3.14774
3.11492
3.11042
3.08153
3.07512
3.07824
3.07751
3.0799
3.06828
3.06862
3.07171
3.07289
3.11764
3.11873
3.13156
3.11836
3.12884
3.12837
3.11334
3.14805
3.10675
3.11034
3.11871
3.12948
3.23703
3.23888
3.21738
3.22948
3.24328
3.20691
3.21286
3.22408
3.23375
3.21749
3.20837
3.22903
3.23901
3.24346
3.23702
3.25052
3.26064
3.25018
3.24282
3.26027
3.24506
3.26194
3.31251
3.30984
3.30541
3.32022
3.30723
3.31054
3.32299
3.32056
3.31661
3.32051
3.32697
3.32621
3.3133
3.3237
3.32569
3.33268
3.31931
3.32769
3.09811
3.0982
3.10142
3.10016
3.10187
3.09939
3.09498
3.09886
3.10269
3.09622
3.10126
3.09597
3.1069
3.09925
3.09972
3.09827
3.10019
3.22316
3.22774
3.1974
3.1872
3.22389
3.21802
3.20575
3.18828
3.18619
3.21036
3.22315
3.22916
3.21102
3.20918
3.22
3.22154
3.27123
3.27434
3.28277
3.2657
3.29279
3.28103
3.26339
3.26951
3.28578
3.28242
3.28189
3.27763
3.28531
3.27772
3.21157
3.20697
3.25077
3.24858
3.21748
3.22126
3.23644
3.24499
3.21934
3.23799
3.25529
3.24357
3.22679
3.21714
3.25779
3.22634
3.23465
3.20209
3.22656
3.16863
3.15724
3.16212
3.14031
3.20889
3.22395
3.19967
3.21831
3.2051
3.21798
3.19882
3.22349
3.21054
3.19677
3.18259
3.16016
3.17972
3.2165
3.20105
3.18539
3.1774
3.15384
3.1633
3.16496
3.17614
3.1766
3.15449
3.1516
3.15486
3.14999
3.15832
3.14357
3.14558
3.14061
3.13961
3.07123
3.06626
3.06343
3.06289
3.05041
3.05857
3.08035
3.05283
3.06016
3.06482
3.05517
3.07971
3.08374
3.07759
3.06894
3.07152
3.06108
3.05669
3.1926
3.17479
3.21617
3.18359
3.2122
3.22024
3.18637
3.21712
3.24421
3.23959
3.22179
3.23287
3.31263
3.31805
3.30503
3.31385
3.30367
3.29824
3.2928
3.29535
3.29889
3.30679
3.31584
3.31673
3.30636
3.31422
3.31064
3.20672
3.20299
3.22976
3.22421
3.21468
3.21673
3.2312
3.23368
3.19593
3.1946
3.22088
3.20862
3.22005
3.20485
3.20936
3.21861
3.20936
3.19349
3.2058
3.1972
3.17502
3.22528
3.23335
3.22625
3.22985
3.21018
3.22764
3.19709
3.18688
3.19736
3.18946
3.17952
3.20382
3.20988
3.19614
3.20026
3.17499
3.17502
3.18162
3.20241
3.17854
3.17865
3.17078
3.16231
3.18256
3.18538
3.15691
3.17462
3.21846
3.21857
3.21042
3.2261
3.21268
3.19815
3.19336
3.23636
3.23072
3.23449
3.20071
3.20203
3.20507
3.22366
3.22851
3.20281
3.21978
3.21641
3.24172
3.24353
3.23875
3.25343
3.24005
3.25682
3.25648
3.26306
3.25913
3.26549
3.25673
3.25507
3.24028
3.25343
3.26534
3.26058
3.24904
3.26122
3.26176
3.25809
3.25324
3.2496
3.25687
3.24346
3.21977
3.22986
3.21451
3.23897
3.23521
3.22639
3.23615
3.21806
3.27428
3.28042
3.27274
3.28144
3.28318
3.25877
3.28168
3.27354
3.29109
3.27295
3.28327
3.27939
3.29153
3.29547
3.29382
3.28812
3.29953
3.27395
3.27679
3.2864
3.28724
3.29359
3.17718
3.18272
3.20036
3.2046
3.2011
3.18943
3.15772
3.16513
3.16008
3.17352
3.17406
3.19506
3.1609
3.1626
3.17429
3.27299
3.28511
3.27334
3.26601
3.26086
3.26648
3.28067
3.28942
3.28841
3.29651
3.29817
3.28161
3.28526
3.27457
3.28539
3.29081
3.29199
3.29505
3.28609
3.30474
3.30333
3.30162
3.30074
3.29443
3.29393
3.29296
3.29732
3.30952
3.31293
3.31276
3.31112
3.29688
3.30143
3.30511
3.30373
3.30966
3.31073
3.31074
3.30493
3.30796
3.30441
3.31217
3.31736
3.31302
3.30869
3.31386
3.32007
3.31581
3.32558
3.32173
3.3064
3.30575
3.30858
3.09962
3.09672
3.1024
3.1153
3.10271
3.13004
3.1221
3.12061
3.12252
3.12023
3.11929
3.10479
3.10518
3.09812
3.11527
3.32135
3.32313
3.3115
3.31902
3.29593
3.29692
3.31755
3.31118
3.31853
3.31064
3.30951
3.3012
3.30332
3.25217
3.26359
3.25909
3.25107
3.24741
3.25871
3.24749
3.23515
3.23863
3.23878
3.25135
3.27335
3.25224
3.23752
3.2407
3.27708
3.27657
3.26305
3.0699
3.06593
3.06832
3.06942
3.07679
3.06945
3.07133
3.08713
3.0792
3.08383
3.07709
3.275
3.27163
3.26799
3.26725
3.2666
3.25945
3.27532
3.27833
3.27641
3.25605
3.26865
3.27368
3.27623
3.25509
3.256
3.26322
3.26668
3.25968
3.2592
3.27126
3.13168
3.14445
3.15963
3.1461
3.12977
3.1348
3.14215
3.13513
3.14191
3.15361
3.13754
3.15802
3.1687
3.11108
3.12516
3.12658
3.15885
3.16258
3.12188
3.15305
3.14745
3.16834
3.15534
3.14333
3.11418
3.1168
3.12632
3.11319
3.07463
3.08911
3.1008
3.12345
3.08157
3.08033
3.09253
3.1005
3.07803
3.08261
3.09332
3.10105
3.09759
3.09313
3.08965
3.09131
3.09108
3.09487
3.10157
3.09615
3.09815
3.09741
3.09246
3.09761
3.09744
3.09299
3.10321
3.10427
3.10176
3.09538
3.09913
3.10012
3.097
3.10396
3.13436
3.12473
3.13997
3.1381
3.13157
3.13068
3.14213
3.1174
3.11271
3.11303
3.11312
3.12489
3.1197
3.11503
3.1091
3.12696
3.11387
3.11815
3.11492
3.11043
3.29683
3.28089
3.28568
3.27535
3.28499
3.29013
3.27386
3.27963
3.2754
3.27839
3.2758
3.26445
3.28882
3.26759
3.26773
3.08442
3.07455
3.25291
3.25587
3.07815
3.08201
3.07417
3.07564
3.08236
3.08811
3.08735
3.27556
3.27782
3.16868
3.17155
3.14418
3.15534
3.25724
3.25413
3.24534
3.09265
3.08849
3.09618
3.11357
3.09909
3.10794
3.08547
3.08701
3.27359
3.27692
3.19573
3.19305
3.23062
3.25725
3.24284
3.08652
3.0939
3.10463
3.11273
3.08897
3.09474
3.09889
3.09337
3.29519
3.29521
3.28804
3.13929
3.13129
3.1413
3.23316
3.22176
3.22299
3.25522
3.26158
3.17003
3.15976
3.29082
3.2915
3.29263
3.10963
3.11987
3.11219
3.11546
3.1714
3.16177
3.15922
3.14576
3.24829
3.23764
3.1079
3.11068
3.30071
3.29817
3.29756
3.25004
3.24491
3.25353
3.23733
3.15953
3.1485
3.15958
3.29255
3.29521
3.11652
3.10141
3.12348
3.18269
3.18936
3.12213
3.12057
3.28044
3.26883
3.22885
3.22415
3.31959
3.31169
3.31357
3.30902
3.12002
3.11889
3.12248
3.11738
3.13806
3.13969
3.14194
3.14058
3.30184
3.29985
3.24203
3.23471
3.14102
3.13559
3.13788
3.13256
3.28849
3.29163
3.24008
3.23892
3.24344
3.14803
3.14251
3.14066
3.19442
3.18435
3.1859
3.31652
3.31798
3.30726
3.30608
3.31335
3.26061
3.25493
3.13639
3.12473
3.13543
3.13903
3.14654
3.13751
3.1826
3.17618
3.30447
3.30469
3.29574
3.32242
3.3237
3.21927
3.22307
3.14684
3.14586
3.17522
3.17237
3.24859
3.25253
3.33195
3.32769
3.32517
3.32511
3.31309
3.31596
3.13645
3.14807
3.14418
3.28283
3.28588
3.31689
3.31564
3.17819
3.17684
3.19212
3.17037
3.17409
3.1621
3.16073
3.21943
3.21851
3.33525
3.33373
3.17404
3.16856
3.1699
3.29226
3.28498
3.28227
3.16157
3.16015
3.15583
3.3333
3.33049
3.2259
3.23441
3.19222
3.18946
3.17634
3.17411
3.19884
3.20218
3.19151
3.18836
3.21306
3.20006
3.1886
3.19606
3.21773
3.21629
3.19895
3.19138
3.26869
3.29255
3.26791
3.2833
3.17355
3.1737
3.17998
3.17652
3.17576
3.17305
3.17598
3.16127
3.165
3.16548
3.34204
3.34017
3.33816
3.31286
3.31686
3.32099
3.32546
3.32225
3.32022
3.15755
3.15744
3.16176
3.16034
3.1874
3.18328
3.1818
3.17996
3.1846
3.17112
3.18192
3.18389
3.18465
3.18191
3.17248
3.17278
3.22498
3.2355
3.22667
3.26366
3.25138
3.26372
3.25684
3.19777
3.20597
3.24633
3.25142
3.24213
3.23678
3.26149
3.26416
3.21212
3.21598
3.21747
3.21485
3.21551
3.22294
3.21285
3.21048
3.2091
3.22524
3.2246
3.2413
3.2258
3.23667
3.22987
3.2181
3.22439
3.31537
3.32092
3.32568
3.33345
3.33463
3.32815
3.32952
3.14471
3.14881
3.1549
3.15144
3.15605
3.24885
3.24692
3.26201
3.26782
3.26795
3.27721
3.26777
3.28533
3.27696
3.27252
3.26322
3.26091
3.29989
3.29791
3.27774
3.30139
3.29127
3.28687
3.27989
3.29542
3.28541
3.27592
3.29868
3.1661
3.16379
3.16488
3.17522
3.17447
3.17706
3.16608
3.17553
3.17494
3.17209
3.1701
3.15348
3.16361
3.16183
3.15935
3.15615
3.32634
3.329
3.33406
3.3349
3.32334
3.33458
3.33039
3.33117
3.32223
3.32287
3.32487
3.32003
3.32986
3.32651
3.33961
3.34403
3.33367
3.32428
3.33783
3.33052
3.19027
3.19667
3.2105
3.20249
3.22773
3.21929
3.1435
3.15111
3.14224
3.15418
3.1592
3.17019
3.18051
3.17726
3.17626
3.16344
3.1665
3.18523
3.19361
3.16844
3.16995
3.17005
3.17426
3.30457
3.3028
3.31784
3.32398
3.3297
3.32583
3.32175
3.30119
3.31828
3.31981
3.31112
3.30951
3.30814
3.3139
3.31341
3.32351
3.30298
3.29699
3.28821
3.30924
3.29229
3.29427
3.29043
3.31075
3.3115
3.28661
3.27845
3.24793
3.25947
3.26243
3.2445
3.26124
3.26834
3.24992
3.29781
3.30351
3.29125
3.28421
3.2916
3.28475
3.31078
3.31265
3.29986
3.29626
3.28769
3.28676
3.29867
3.29691
3.1381
3.14582
3.1325
3.3106
3.30888
3.32804
3.32277
3.32195
3.32539
3.28479
3.29648
3.30535
3.30546
3.30001
3.29503
3.2842
3.30324
3.30612
3.32581
3.32805
3.32293
3.32914
3.32414
3.32561
3.32254
3.32719
3.33488
3.32867
3.32643
3.32755
3.32377
3.33478
3.33519
3.3273
3.22965
3.23912
3.24227
3.23869
3.24498
3.24193
3.26033
3.2573
3.24445
3.26508
3.27454
3.24569
3.24613
3.2579
3.25451
3.2898
3.25328
3.26162
3.28208
3.26894
3.26729
3.26204
3.25455
3.14971
3.15978
3.16626
3.15921
3.18886
3.17871
3.19249
3.18089
3.17471
3.19465
3.20857
3.19458
3.20169
3.20913
3.20925
3.19178
3.1897
3.17697
3.18417
3.17527
3.20934
3.20791
3.19267
3.18849
3.13507
3.14126
3.13767
3.13765
3.14031
3.13868
3.13875
3.14338
3.14909
3.14775
3.14832
3.13614
3.13739
3.20186
3.20699
3.24198
3.25815
3.22589
3.22427
3.23916
3.2345
3.23494
3.22763
3.32093
3.31224
3.30553
3.32085
3.32659
3.33228
3.32396
3.32025
3.31978
3.33005
3.32325
3.31448
3.31032
3.30113
3.29657
3.29668
3.29722
3.24585
3.26376
3.27612
3.27973
3.28141
3.26257
3.27354
3.26197
3.30934
3.31758
3.29666
3.30098
3.31031
3.3033
3.16615
3.15387
3.16565
3.16388
3.16078
3.1921
3.20765
3.18543
3.18031
3.18271
3.21623
3.21562
3.12724
3.13579
3.12847
3.13063
3.1383
3.15243
3.15698
3.15695
3.17312
3.14896
3.14797
3.1654
3.14503
3.14938
3.14876
3.14634
3.15735
3.16238
3.19503
3.21173
3.19404
3.17467
3.1745
3.1694
3.16324
3.19819
3.20489
3.17341
3.17263
3.12745
3.12468
3.12446
3.1309
3.13288
3.12804
3.28113
3.26998
3.26661
3.25714
3.23088
3.24799
3.24908
3.25697
3.25834
3.22786
3.21893
3.23908
3.2401
3.23687
3.22251
3.22538
3.23529
3.22611
3.22372
3.21863
3.24055
3.24223
3.3209
3.31551
3.31403
3.30381
3.30395
3.30282
3.31194
3.30213
3.31217
3.30937
3.29943
3.30533
3.30008
3.2994
3.31597
3.31218
3.30466
3.31207
3.32089
3.31605
3.3078
3.31705
3.31391
3.31713
3.3128
3.31801
3.31555
3.32229
3.31655
3.31631
3.3202
3.31619
3.31181
3.31499
3.32363
3.31955
3.32895
3.32072
3.31388
3.32576
3.31747
3.31715
3.31854
3.31229
3.32152
3.3183
3.22489
3.22008
3.22098
3.21958
3.21595
3.20103
3.19635
3.13571
3.13474
3.15263
3.15193
3.14279
3.13811
3.13501
3.12371
3.13248
3.13153
3.13466
3.13547
3.13658
3.13822
3.14023
3.13424
3.1458
3.14593
3.14372
3.14921
3.14969
3.25996
3.25355
3.24538
3.21411
3.21815
3.22743
3.21058
3.2883
3.28653
3.29257
3.29673
3.2899
3.25841
3.2733
3.27311
3.27679
3.27642
3.27658
3.27748
3.11927
3.121
3.12246
3.1278
3.12861
3.12991
3.12694
3.12545
3.23221
3.24352
3.26569
3.25868
3.27716
3.26305
3.28351
3.25663
3.2432
3.24458
3.25416
3.29675
3.29063
3.30163
3.29794
3.30873
3.31028
3.29516
3.30013
3.30303
3.31477
3.3141
3.31107
3.30711
3.30036
3.28602
3.29058
3.28857
3.28963
3.27962
3.2884
3.28054
3.29253
3.2927
3.14324
3.13791
3.17249
3.15343
3.13897
3.13851
3.16977
3.1744
3.14758
3.1472
3.14513
3.15437
3.15652
3.16941
3.14531
3.13717
3.15219
3.14972
3.17041
3.18695
3.16875
3.13911
3.13693
3.13499
3.14294
3.13163
3.13565
3.15346
3.14881
3.1137
3.11317
3.11525
3.11448
3.11302
3.11707
3.11969
3.11206
3.11838
3.12424
3.12218
3.11986
3.12466
3.11933
3.11958
3.12009
3.30964
3.30597
3.30807
3.31434
3.30134
3.31471
3.30355
3.30918
3.19436
3.17179
3.17925
3.1986
3.21136
3.19136
3.17949
3.17882
3.24762
3.24387
3.24872
3.23783
3.23089
3.29606
3.30137
3.30312
3.11165
3.11524
3.1127
3.11201
3.12558
3.1094
3.1104
3.12155
3.12028
3.11724
3.11745
3.11474
3.11859
3.1079
3.10867
3.11543
3.11415
3.11811
3.11761
3.11422
3.11392
3.13123
3.13037
3.11676
3.13103
3.1276
3.11911
3.12088
3.11928
3.1248
3.12149
3.12416
3.12173
3.19565
3.19101
3.1724
3.16503
3.21442
3.21911
3.18361
3.18828
3.20005
3.19514
3.23078
3.22405
3.21578
3.20595
3.1927
3.21565
3.22512
3.22903
3.2145
3.21763
3.20596
3.20076
3.18911
3.22855
3.22566
3.10503
3.10591
3.09972
3.11266
3.11525
3.12765
3.12158
3.11931
3.12247
3.12651
3.1157
3.11534
3.27824
3.276
3.28558
3.28106
3.2861
3.28982
3.28555
3.2891
3.28662
3.28796
3.2804
3.30218
3.29046
3.30573
3.29838
3.30014
3.29759
3.16875
3.1645
3.16272
3.1575
3.21545
3.22415
3.2272
3.237
3.22193
3.22899
3.21341
3.21043
3.20536
3.23453
3.23594
3.21412
3.20405
3.2089
3.20435
3.22017
3.23554
3.22533
3.214
3.24938
3.24669
3.23946
3.23508
3.22237
3.23319
3.2335
3.23528
3.23436
3.21777
3.2614
3.253
3.26689
3.24101
3.24428
3.26326
3.24792
3.24766
3.26746
3.2515
3.26573
3.26923
3.2495
3.27448
3.27468
3.26637
3.2782
3.27344
3.2824
3.29497
3.2953
3.30517
3.29624
3.30005
3.28717
3.29966
3.29208
3.30399
3.30514
3.2997
3.30304
3.30876
3.307
3.30524
3.29986
3.29253
3.29902
3.295
3.10257
3.10478
3.10542
3.10032
3.10502
3.10689
3.10522
3.11086
3.10565
3.10533
3.10874
3.11047
3.10927
3.11302
3.10623
3.10964
3.10949
3.11173
3.10777
3.10972
3.10339
3.10289
3.10576
3.11004
3.11146
3.11453
3.11301
3.18921
3.20783
3.20925
3.17686
3.16936
3.18477
3.199
3.1847
3.23338
3.24403
3.23541
3.24633
3.24689
3.2458
3.26114
3.2771
3.24779
3.23553
3.25508
3.24506
3.13235
3.13523
3.14141
3.12782
3.14287
3.14303
3.13254
3.13001
3.16518
3.1687
3.14821
3.1855
3.18423
3.13292
3.14705
3.13458
3.17759
3.15678
3.17795
3.15122
3.14505
3.13264
3.15722
3.14543
3.14275
3.16541
3.14579
3.16918
3.13908
3.14214
3.14469
3.17307
3.16225
3.13589
3.13036
3.16694
3.15753
3.11121
3.10483
3.11405
3.10741
3.1086
3.09729
3.1059
3.09437
3.10806
3.10966
3.10389
3.10404
3.11298
3.10397
3.11757
3.25646
3.2594
3.26093
3.2758
3.28359
3.27807
3.2845
3.27167
3.26299
3.2958
3.29276
3.30081
3.30701
3.29582
3.29092
3.29397
3.28871
3.14238
3.13748
3.12482
3.1386
3.14076
3.14593
3.13314
3.14847
3.14658
3.21322
3.20104
3.20187
3.18459
3.1822
3.17435
3.14975
3.17788
3.17012
3.16905
3.13268
3.16483
3.1524
3.2745
3.2429
3.26642
3.25216
3.24349
3.19229
3.21214
3.20446
3.19163
3.19701
3.17782
3.20231
3.21016
3.19646
3.19148
3.20515
3.19842
3.2041
3.2081
3.25009
3.25615
3.23803
3.23739
3.25262
3.24023
3.13716
3.14299
3.14094
3.10685
3.12075
3.10602
3.11299
3.17547
3.16177
3.15488
3.14139
3.16065
3.15805
3.28024
3.26713
3.2837
3.29249
3.28834
3.28218
3.28756
3.29381
3.28832
3.28608
3.29269
3.28816
3.2939
3.28845
3.29239
3.30091
3.09876
3.09207
3.091
3.08981
3.09356
3.0937
3.09141
3.08883
3.0895
3.08518
3.09216
3.0958
3.0926
3.10193
3.10841
3.09365
3.09846
3.09721
3.09673
3.10192
3.10738
3.0918
3.09318
3.0983
3.09936
3.09827
3.0967
3.09859
3.09931
3.09904
3.09119
3.09376
3.08555
3.08974
3.09886
3.09108
3.08771
3.08316
3.0939
3.09461
3.09234
3.09152
3.09158
3.08872
3.09586
3.09599
3.09829
3.09415
3.09705
3.10236
3.10652
3.19002
3.2032
3.20227
3.21197
3.21545
3.21809
3.22878
3.23427
3.23578
3.22821
3.24523
3.2411
3.14009
3.14584
3.13173
3.13679
3.13531
3.12244
3.12837
3.17636
3.17625
3.17462
3.18224
3.15943
3.15941
3.21939
3.23041
3.22259
3.26625
3.27255
3.27332
3.24681
3.25261
3.25082
3.27595
3.27212
3.26959
3.26969
3.28797
3.28668
3.27825
3.26784
3.27019
3.27746
3.2742
3.2644
3.26112
3.26064
3.25055
3.26423
3.26239
3.2643
3.26618
3.25395
3.25198
3.0821
3.08503
3.08223
3.08246
3.08837
3.0917
3.09424
3.08463
3.08616
3.08996
3.08824
3.08806
3.09044
3.0819
3.07853
3.08599
3.0848
3.07755
3.07325
3.08067
3.08217
3.08474
3.0842
3.08791
3.08183
3.09002
3.07823
3.07933
3.08239
3.08381
3.0848
3.08699
3.09225
3.08627
3.0988
3.09679
3.11747
3.11657
3.10645
3.09595
3.09912
3.12643
3.13446
3.10623
3.12624
3.10849
3.10771
3.09828
3.08019
3.07982
3.09236
3.07967
3.09171
3.07641
3.08335
3.07364
3.08927
3.08844
3.08058
3.07456
3.19964
3.20111
3.21175
3.24092
3.24201
3.23328
3.22886
3.22138
3.28005
3.27131
3.27089
3.23583
3.24658
3.24042
3.26447
3.24763
3.27004
3.26548
3.25008
3.24603
3.28325
3.27193
3.26539
3.26721
3.25623
3.26352
3.25035
3.15393
3.1249
3.14416
3.12711
3.13153
3.12271
3.13187
3.12516
3.14085
3.15049
3.11834
3.11485
3.16926
3.17347
3.17591
3.14091
3.13345
3.1874
3.17787
3.18457
3.16263
3.17014
3.16573
3.15814
3.16112
3.17624
3.19944
3.20301
3.17505
3.18158
3.19501
3.18826
3.18617
3.18106
3.27145
3.26571
3.26262
3.26816
3.26597
3.26775
3.27926
3.27467
3.27708
3.27294
3.11552
3.10585
3.11285
3.08304
3.10094
3.09396
3.09378
3.094
3.1006
3.09514
3.09781
3.08383
3.09665
3.09184
3.0967
3.09695
3.08037
3.08605
3.09085
3.09006
3.08236
3.08137
3.08099
3.08551
3.07918
3.07544
3.06806
3.0725
3.07118
3.0686
3.06264
3.07354
3.07313
3.07312
3.07303
3.07351
3.07808
3.06731
3.08103
3.07914
3.07551
3.07221
3.20694
3.20385
3.23612
3.23905
3.23961
3.2268
3.22076
3.24197
3.24109
3.06488
3.06578
3.09183
3.08776
3.07774
3.11886
3.1053
3.08043
3.07581
3.1063
3.09101
3.09198
3.09392
3.05964
3.07844
3.08196
3.08154
3.07732
3.06767
3.07061
3.08034
3.07977
3.07676
3.07803
3.07587
3.1543
3.16391
3.13617
3.11481
3.12521
3.13838
3.13072
3.16286
3.08452
3.07993
3.08305
3.08546
3.08238
3.08202
3.08218
3.07586
3.07941
3.07515
3.07131
3.0766
3.07073
3.08048
3.07704
3.0678
3.0654
3.27706
3.27258
3.28088
3.27475
3.28671
3.28364
3.27923
3.27091
3.27921
3.27299
3.27927
3.26569
3.26311
3.25929
3.25152
3.25303
3.24749
3.23879
3.23461
3.24072
3.25258
3.2608
3.25806
3.27343
3.26436
3.26319
3.2599
3.27458
3.2746
3.21311
3.22495
3.21596
3.2058
3.22936
3.23733
3.21476
3.19193
3.21421
3.21432
3.21564
3.19842
3.21352
3.20105
3.21043
3.20724
3.22091
3.21334
3.21854
3.26548
3.27314
3.27263
3.27932
3.27459
3.2803
3.28386
3.28336
3.28003
3.2857
3.27987
3.27291
3.27294
3.27961
3.27072
3.28577
3.28461
3.26036
3.25714
3.24511
3.26602
3.25988
3.25085
3.25121
3.2388
3.21918
3.23184
3.21908
3.23343
3.24318
3.24137
3.24048
3.24388
3.21785
3.20619
3.23235
3.22847
3.22256
3.24037
3.24544
3.24869
3.23266
3.24739
3.22878
3.23134
3.23043
3.22489
3.21815
3.20809
3.24487
3.23055
3.22726
3.21945
3.2265
3.23203
3.22056
3.22097
3.20906
3.23543
3.23078
3.10292
3.09819
3.10226
3.09345
3.1026
3.08059
3.07341
3.10732
3.09245
3.11093
3.10187
3.09363
3.11638
3.08968
3.08807
3.0894
3.08311
3.0804
3.08339
3.09002
3.08907
3.28267
3.28275
3.28359
3.27347
3.27959
3.28958
3.27536
3.28045
3.28589
3.28419
3.29702
3.30106
3.30071
3.29384
3.29523
3.29278
3.28912
3.29767
3.29112
3.29431
3.28693
3.28699
3.27785
3.28733
3.27711
3.2839
3.28552
3.28494
3.29265
3.28908
3.28889
3.28151
3.25927
3.25969
3.24782
3.26896
3.26358
3.25481
3.26779
3.25174
3.2616
3.2546
3.24457
3.2697
3.26807
3.25601
3.2668
3.256
3.2122
3.22329
3.21727
3.24052
3.23005
3.25238
3.24926
3.23702
3.23962
3.29028
3.29072
3.28754
3.29519
3.29781
3.29377
3.28767
3.29438
3.29118
3.26412
3.26813
3.27018
3.26527
3.27198
3.27479
3.29303
3.30355
3.30474
3.29717
3.28893
3.28514
3.29806
3.29452
3.30435
3.30246
3.30783
3.31255
3.31035
3.29453
3.28717
3.19142
3.18647
3.18412
3.16636
3.18397
3.17933
3.19207
3.20489
3.201
3.16358
3.17842
3.1869
3.18631
3.17548
3.17945
3.18749
3.19277
3.19732
3.19341
3.19325
3.16594
3.16199
3.15734
3.11351
3.11351
3.10601
3.1088
3.11018
3.11102
3.11147
3.10345
3.11676
3.11795
3.12147
3.12623
3.1189
3.13247
3.1315
3.12802
3.13782
3.1267
3.12199
3.12192
3.12847
3.15346
3.14077
3.13952
3.14803
3.16858
3.14104
3.16268
3.13066
3.13436
3.24221
3.23353
3.23935
3.24703
3.23203
3.2247
3.23756
3.22964
3.2523
3.24182
3.14929
3.14348
3.14721
3.15637
3.15827
3.15229
3.15018
3.17162
3.15927
3.15775
3.15222
3.17242
3.17092
3.14207
3.14241
3.1424
3.14267
3.13706
3.14388
3.13284
3.13423
3.14309
3.14114
3.13781
3.13575
3.13631
3.13782
3.13145
3.31037
3.32537
3.313
3.32184
3.31424
3.32073
3.3136
3.32113
3.31848
3.3121
3.31167
3.27049
3.28362
3.2876
3.29236
3.29299
3.29886
3.30022
3.29528
3.30104
3.29859
3.29743
3.29759
3.29995
3.28767
3.30066
3.29944
3.28879
3.30616
3.29442
3.31662
3.30642
3.30256
3.3187
3.30907
3.30409
3.30206
3.30396
3.31477
3.30731
3.3081
3.30273
3.29997
3.29938
3.30552
3.13787
3.13984
3.13424
3.13297
3.13279
3.13808
3.14521
3.14821
3.13659
3.14696
3.1639
3.16186
3.17015
3.17163
3.16974
3.16318
3.16848
3.15823
3.17408
3.17259
3.28936
3.29336
3.28504
3.27809
3.29425
3.2846
3.27944
3.27078
3.29753
3.29815
3.29366
3.29503
3.30729
3.30257
3.30048
3.30234
3.29555
3.28979
3.30787
3.31131
3.3067
3.30371
3.30506
3.2972
3.30763
3.31865
3.31808
3.32524
3.32931
3.32187
3.32977
3.32334
3.31832
3.28873
3.27756
3.27688
3.28781
3.29045
3.2881
3.30313
3.15674
3.15557
3.16316
3.1693
3.16623
3.17523
3.17078
3.16626
3.15182
3.1455
3.15299
3.16242
3.14693
3.15045
3.13717
3.14899
3.15937
3.17146
3.17633
3.16633
3.16067
3.17862
3.17677
3.18455
3.18617
3.18169
3.18371
3.31884
3.33565
3.32436
3.3387
3.33614
3.3293
3.32706
3.33433
3.33155
3.1536
3.15671
3.15407
3.15935
3.28312
3.30076
3.29075
3.2874
3.30409
3.24255
3.23488
3.21951
3.24518
3.24755
3.31438
3.31488
3.31188
3.30885
3.306
3.3183
3.3203
3.32091
3.21541
3.21273
3.2091
3.22841
3.21383
3.21458
3.23334
3.23107
3.20287
3.21199
3.22977
3.23345
3.23387
3.20221
3.18586
3.19072
3.20517
3.20687
3.19523
3.18733
3.18848
3.1791
3.18201
3.17958
3.17539
3.3262
3.33846
3.3315
3.33864
3.33386
3.34197
3.34309
3.33356
3.33278
3.32745
3.32516
3.23443
3.23784
3.23854
3.25063
3.25333
3.26237
3.24605
3.24393
3.14917
3.14599
3.14873
3.15134
3.14698
3.14469
3.14163
3.1427
3.14394
3.14775
3.17525
3.15805
3.15555
3.15242
3.14429
3.14699
3.1395
3.14249
3.13573
3.14433
3.13999
3.1458
3.14063
3.13923
3.14528
3.23533
3.23606
3.24315
3.23885
3.2544
3.25692
3.23589
3.23682
3.25315
3.24931
3.24668
3.24689
3.26202
3.25979
3.25783
3.24709
3.26047
3.26045
3.29155
3.29723
3.29735
3.30738
3.3008
3.30386
3.30429
3.29718
3.29445
3.29456
3.29586
3.29533
3.29271
3.29207
3.29477
3.29418
3.29549
3.29678
3.29995
3.29189
3.28968
3.29922
3.30067
3.30076
3.29933
3.30606
3.29701
3.08577
3.08568
3.09107
3.08307
3.07866
3.09301
3.09207
3.08929
3.08617
3.28614
3.28859
3.29216
3.27971
3.2866
3.28473
3.2806
3.28386
3.09868
3.10516
3.09578
3.1048
3.10136
3.09925
3.09351
3.13758
3.11496
3.11947
3.13335
3.1382
3.13215
3.118
3.10961
3.13021
3.143
3.2549
3.26243
3.2745
3.27408
3.25484
3.32144
3.31864
3.32038
3.30348
3.30674
3.30051
3.31422
3.31039
3.17592
3.16753
3.16792
3.17367
3.17617
3.16931
3.16873
3.1705
3.16778
3.16754
3.17236
3.17629
3.17545
3.18308
3.17946
3.18242
3.18763
3.19355
3.181
3.19532
3.19111
3.19516
3.19301
3.19097
3.19806
3.19702
3.20595
3.209
3.26465
3.26481
3.25662
3.25891
3.2713
3.28077
3.27635
3.28264
3.30995
3.30044
3.31093
3.31065
3.30551
3.29849
3.29375
3.3003
3.30139
3.30268
3.30508
3.30358
3.30963
3.2931
3.30418
3.31566
3.31515
3.30743
3.30492
3.29576
3.30856
3.30426
3.17425
3.16325
3.16778
3.17302
3.31707
3.31053
3.32483
3.3168
3.31695
3.32113
3.31573
3.32291
3.3297
3.32418
3.3113
3.31748
3.31659
3.32607
3.32748
3.32618
3.32828
3.31972
3.33011
3.33618
3.33689
3.3301
3.3284
3.33275
3.32948
3.23553
3.21727
3.21491
3.21087
3.28241
3.2923
3.32233
3.32419
3.32443
3.32514
3.3291
3.33225
3.32867
3.32312
3.33091
3.32125
3.21871
3.2218
3.20416
3.21375
3.18401
3.18993
3.20457
3.20063
3.19804
3.19575
3.27302
3.27953
3.25799
3.26037
3.26862
3.27523
3.26285
3.27406
3.27542
3.28909
3.27727
3.28345
3.27585
3.28294
3.15211
3.15971
3.16635
3.16795
3.16971
3.16761
3.17352
3.17115
3.1682
3.16608
3.15824
3.15574
3.15728
3.16048
3.16377
3.15226
3.14988
3.16064
3.16571
3.15157
3.15138
3.14461
3.14533
3.12544
3.12682
3.1341
3.13246
3.13401
3.12301
3.12661
3.1347
3.13808
3.13073
3.13557
3.31476
3.31538
3.30511
3.31521
3.31275
3.24317
3.25333
3.28664
3.26299
3.26094
3.29208
3.28875
3.27768
3.2639
3.28484
3.28203
3.17225
3.19405
3.18207
3.17058
3.17294
3.18755
3.19102
3.20193
3.20846
3.16856
3.17285
3.1842
3.17422
3.17675
3.17235
3.29596
3.29089
3.27385
3.28158
3.2904
3.29614
3.28922
3.3087
3.30225
3.31659
3.29962
3.30651
3.30578
3.30582
3.30161
3.30783
3.31354
3.30782
3.31015
3.31215
3.31443
3.31458
3.32101
3.32031
3.31442
3.31014
3.30718
3.30917
3.30644
3.31568
3.30847
3.31124
3.30887
3.32055
3.30406
3.31942
3.31378
3.30757
3.31404
3.31307
3.3105
3.30678
3.30588
3.31655
3.3133
3.3166
3.31127
3.31276
3.32046
3.31651
3.31843
3.3171
3.2983
3.2949
3.29072
3.29701
3.28345
3.28627
3.29156
3.30488
3.30405
3.30259
3.24602
3.26172
3.25845
3.24276
3.24365
3.23632
3.23371
3.25957
3.25312
3.25334
3.24496
3.135
3.15689
3.1566
3.17197
3.16318
3.16545
3.17278
3.18266
3.18739
3.19562
3.13407
3.13353
3.11976
3.11845
3.13029
3.13282
3.12347
3.1238
3.12557
3.13502
3.17547
3.17992
3.25746
3.26193
3.27738
3.26532
3.27392
3.27694
3.26734
3.25772
3.25568
3.27321
3.27383
3.1204
3.10856
3.11156
3.12204
3.12177
3.11059
3.12502
3.11436
3.12489
3.12681
3.10621
3.11461
3.11315
3.10889
3.28184
3.28484
3.27829
3.18302
3.18498
3.17814
3.18507
3.19461
3.21152
3.20176
3.19888
3.1661
3.17113
3.19058
3.18114
3.30997
3.31291
3.30407
3.29997
3.29905
3.30942
3.30758
3.30646
3.29751
3.30056
3.3082
3.30152
3.29394
3.29069
3.28932
3.2852
3.1086
3.11433
3.11337
3.11501
3.10987
3.11407
3.11151
3.11081
3.10909
3.10161
3.11367
3.11053
3.1085
3.18891
3.21769
3.19697
3.21309
3.19519
3.19779
3.20777
3.23075
3.23039
3.27846
3.29546
3.28813
3.27862
3.29518
3.28141
3.27214
3.25562
3.27448
3.27346
3.26503
3.25997
3.27372
3.26182
3.25947
3.27877
3.27129
3.27475
3.27131
3.26126
3.10564
3.12062
3.12181
3.12698
3.11106
3.10254
3.11517
3.11181
3.10615
3.1121
3.28354
3.2829
3.28944
3.29912
3.29192
3.29581
3.30086
3.30177
3.29474
3.29844
3.29527
3.13113
3.11788
3.09831
3.11751
3.119
3.11777
3.12437
3.11807
3.12201
3.11094
3.20985
3.22117
3.18352
3.18691
3.15121
3.17593
3.18068
3.17237
3.17214
3.15422
3.16646
3.14838
3.17656
3.13885
3.12375
3.12495
3.1251
3.1599
3.12443
3.13092
3.13953
3.15053
3.24415
3.26182
3.25985
3.25825
3.2461
3.26405
3.25481
3.26703
3.08519
3.08735
3.08838
3.09187
3.09301
3.09168
3.09123
3.0927
3.09128
3.08966
3.09239
3.09146
3.09612
3.11436
3.09644
3.10453
3.10582
3.10247
3.10402
3.09823
3.10307
3.09643
3.10869
3.10175
3.10326
3.2763
3.28551
3.28056
3.28355
3.28386
3.28401
3.10345
3.08684
3.28043
3.27806
3.28412
3.28117
3.27334
3.27889
3.27698
3.2743
3.27099
3.27189
3.13579
3.17987
3.17144
3.18636
3.15929
3.19153
3.17315
3.1868
3.16705
3.16458
3.15226
3.15623
3.20408
3.21578
3.15411
3.14495
3.15657
3.14385
3.15114
3.13368
3.12747
3.25684
3.26418
3.12758
3.11781
3.12689
3.11191
3.10376
3.10876
3.11671
3.11823
3.10965
3.11186
3.10297
3.09531
3.08046
3.08213
3.0771
3.07925
3.07916
3.06367
3.05998
3.07224
3.06394
3.06422
3.06745
3.06714
3.05747
3.06015
3.06965
3.06659
3.05351
3.06648
3.06848
3.06675
3.06745
3.0664
3.07093
3.06562
3.07509
3.07901
3.075
3.08124
3.10251
3.11423
3.1245
3.11952
3.10606
3.10537
3.17927
3.18652
3.19655
3.17916
3.16478
3.08402
3.07624
3.08135
3.08176
3.07989
3.08024
3.07583
3.07678
3.08196
3.08053
3.08229
3.08168
3.07957
3.07379
3.07992
3.08267
3.08408
3.06683
3.08635
3.07891
3.07824
3.07159
3.08258
3.08129
3.07748
3.20027
3.2527
3.2582
3.25406
3.24416
3.26395
3.24941
3.25185
3.26258
3.2552
3.26584
3.26318
3.26099
3.26335
3.189
3.20734
3.22197
3.21997
3.19989
3.21168
3.19511
3.2071
3.19456
3.18489
3.1829
3.19777
3.19292
3.18098
3.18925
3.25661
3.26371