/*--------------------------------*- C++ -*----------------------------------*\
| =========                 |                                                 |
| \\      /  F ield         | OpenFOAM: The Open Source CFD Toolbox           |
|  \\    /   O peration     | Version:  v1612+                                |
|   \\  /    A nd           | Web:      www.OpenFOAM.com                      |
|    \\/     M anipulation  |                                                 |
\*---------------------------------------------------------------------------*/
FoamFile
{
    version     2.0;
    format      ascii;
    class       surfaceScalarField;
    location    "239";
    object      phi;
}
// * * * * * * * * * * * * * * * * * * * * * * * * * * * * * * * * * * * * * //

dimensions      [0 3 -1 0 0 0 0];

internalField   nonuniform List<scalar> 
37033
(
-1.46585e-08
-6.30101e-09
3.69409e-09
1.72654e-08
-1.06497e-08
-3.04192e-09
-9.66867e-10
-1.22945e-08
1.7262e-08
1.37737e-08
-3.05832e-09
-1.9362e-08
-3.8711e-10
1.34481e-08
-6.22354e-09
-3.76795e-09
2.47241e-08
-4.73071e-09
1.49651e-08
1.07571e-08
1.23983e-08
1.75401e-08
1.29164e-09
1.53602e-09
1.69898e-08
8.18104e-10
1.28718e-08
1.6187e-09
2.15576e-08
1.74019e-08
-3.96488e-08
3.43432e-08
-1.41003e-09
6.7157e-09
-4.23119e-10
-3.32952e-08
-1.68724e-08
2.23177e-08
2.78498e-08
-2.42452e-08
-7.50513e-10
-8.29952e-09
2.35888e-08
2.36263e-08
-2.81733e-08
2.39111e-08
2.8522e-09
-1.23766e-08
-1.62199e-08
1.62527e-08
-1.57738e-08
-2.88282e-09
2.26319e-09
5.29571e-09
5.44738e-09
1.28457e-08
8.69401e-09
2.05128e-08
4.04926e-09
3.06632e-08
-2.60185e-08
-6.33267e-09
3.26996e-08
-1.27054e-08
1.18201e-08
-1.29228e-08
1.39943e-08
1.81371e-09
1.59678e-09
-5.25182e-09
7.98803e-09
-4.333e-09
-3.22081e-09
-4.74022e-09
9.55781e-09
4.44627e-09
-4.44505e-09
9.36322e-10
-9.37557e-10
-5.48433e-09
6.7098e-09
-8.14603e-10
-7.72688e-09
3.28965e-09
4.85756e-09
-8.0025e-09
2.33033e-09
-3.94097e-09
4.05829e-09
3.83088e-09
-4.57254e-09
-3.7034e-09
-1.7877e-09
1.34246e-10
2.07612e-09
-6.99162e-09
-3.08699e-09
-1.49217e-09
-4.1586e-09
-5.76214e-09
3.34723e-11
-3.95882e-09
-3.97959e-09
6.44623e-09
-1.91651e-09
-7.96528e-09
5.92296e-09
-7.342e-09
8.52954e-10
1.10863e-08
7.12409e-11
-1.02003e-08
-9.573e-10
9.03368e-10
1.59466e-09
8.58833e-09
4.5217e-09
-3.4501e-09
4.44198e-09
-5.51358e-09
3.4776e-09
7.38585e-10
3.0552e-10
4.5392e-09
-6.37388e-09
-1.61542e-09
2.75433e-10
4.04594e-09
2.1783e-10
-7.13485e-09
1.25139e-09
6.78683e-09
-6.83822e-09
-2.25381e-10
5.58488e-09
-1.19237e-08
-3.86144e-09
5.57251e-10
-7.12003e-09
-8.03044e-09
6.44057e-09
5.06747e-09
5.48762e-10
-4.13722e-09
-1.10614e-08
1.8547e-09
1.08013e-08
-4.92773e-09
4.22312e-09
5.61412e-10
-1.66824e-10
8.4621e-09
5.30769e-09
1.32948e-09
1.14201e-08
-7.99131e-09
-4.75827e-09
-5.20318e-09
1.64289e-08
-9.89623e-09
2.6125e-09
-1.59894e-09
9.49991e-09
-1.05135e-08
8.86973e-09
4.24441e-09
-1.05016e-08
1.2379e-08
-1.15348e-08
-6.04741e-09
3.99291e-09
1.06242e-08
-3.197e-09
1.91481e-08
1.2737e-09
1.10734e-08
7.5834e-09
-9.78706e-09
-2.54004e-09
3.89437e-09
9.71907e-09
1.37455e-08
-3.60177e-09
-2.56033e-09
1.73741e-09
9.46807e-09
1.08418e-08
-3.81932e-09
-9.26995e-09
1.07186e-08
9.39309e-09
1.53716e-08
-1.45136e-09
-1.54115e-09
4.22803e-09
5.65014e-09
2.36849e-09
1.24125e-08
-1.08866e-08
2.99991e-09
9.45613e-09
8.59956e-09
1.1e-08
1.3968e-08
-4.47406e-10
-2.38607e-09
-7.2974e-09
1.01309e-08
-8.89839e-09
-3.25226e-09
1.17032e-08
-7.76053e-09
-7.20115e-09
6.06329e-09
-5.06542e-10
5.44467e-09
-7.3242e-09
-9.7984e-09
6.03959e-09
1.92434e-09
-9.42656e-09
-2.58317e-10
1.38896e-09
-7.36437e-09
-1.22576e-09
-8.71129e-11
-5.82134e-09
-9.57759e-09
1.70352e-09
-7.50924e-09
-9.2817e-09
7.27628e-09
-1.25996e-08
-2.18592e-09
6.67907e-10
-2.96923e-09
2.53458e-09
1.98323e-09
-1.99971e-09
-2.51809e-09
3.61598e-09
-1.17797e-09
9.65716e-11
3.22793e-09
-8.6997e-10
-3.74724e-10
2.64802e-09
4.19589e-09
3.74167e-09
-1.93845e-09
-3.80293e-09
2.41799e-09
1.45723e-10
6.77671e-10
-6.83805e-09
4.22194e-09
-2.55214e-09
6.63456e-09
-1.43439e-09
5.46093e-09
-9.01049e-09
4.22724e-09
3.59002e-09
-5.45596e-10
1.15859e-09
-4.20301e-09
4.93807e-09
-3.90019e-09
-3.84385e-10
5.29972e-09
-3.52863e-09
8.18979e-09
-6.35757e-09
1.69641e-09
-7.59635e-09
4.61097e-09
-5.43258e-10
2.47657e-09
1.78487e-09
3.92835e-09
3.89717e-09
7.72215e-09
-9.14274e-09
-1.03752e-09
-1.37473e-09
-3.9453e-09
-3.41607e-09
-5.21779e-09
3.33747e-09
-1.69727e-09
-3.50959e-09
1.86943e-09
-5.51293e-09
-7.16216e-10
9.56661e-09
-1.21981e-09
-5.99038e-09
-6.77044e-09
5.04571e-09
-1.00171e-08
1.24981e-09
1.78602e-09
6.9813e-09
-5.55715e-09
8.7381e-09
-4.95551e-09
-4.53251e-09
-6.55144e-10
1.01432e-08
-7.86287e-09
-7.10977e-09
9.0321e-09
-4.21162e-09
-8.23655e-09
1.44849e-09
1.61349e-09
5.97012e-09
-4.55715e-09
-3.58802e-09
-7.44584e-09
3.1385e-09
4.63876e-09
-2.34798e-10
-1.22668e-08
-4.45091e-09
-8.27685e-09
2.27951e-09
-1.27233e-08
-2.86829e-09
-7.14271e-09
5.32133e-09
4.6897e-09
-3.09298e-09
1.533e-10
7.1404e-11
5.75398e-09
-4.86664e-09
-3.98031e-09
-1.3047e-09
-8.40339e-11
-1.37545e-09
6.60636e-10
6.03615e-09
-1.01623e-08
4.59194e-10
8.32767e-09
-9.70536e-09
-1.76162e-09
-2.68243e-09
-4.14803e-10
3.75788e-09
-2.68282e-09
1.53689e-10
1.28838e-09
-1.49631e-09
-4.65871e-09
-6.49437e-09
-1.92262e-09
-6.28545e-09
-3.08544e-09
4.86533e-09
4.50555e-09
1.56023e-10
-5.91007e-09
-5.31399e-10
9.21556e-09
-5.55863e-10
-8.50366e-09
1.65984e-09
8.01492e-09
2.98672e-09
-4.56298e-09
-4.33381e-09
-1.61336e-10
6.26252e-11
2.8659e-09
-1.91671e-10
-4.17054e-09
2.17427e-11
6.11037e-09
-6.85015e-09
2.0955e-09
9.03603e-10
-5.50903e-09
3.14231e-09
1.4631e-09
-5.33853e-09
4.33685e-09
1.90529e-09
-1.13888e-09
-1.64134e-09
-2.72882e-09
5.45221e-09
-1.89212e-09
-4.69897e-09
-1.14598e-09
2.83173e-09
-5.71223e-09
4.02647e-09
-4.9925e-09
1.91795e-09
1.92857e-09
-3.32812e-09
4.81406e-09
1.34579e-09
-2.45654e-09
2.57022e-09
2.77116e-09
5.37205e-09
-1.97813e-09
-6.16508e-09
-4.79664e-11
1.17778e-09
3.16351e-09
2.16057e-09
2.53438e-09
-1.07343e-09
-3.35307e-09
2.72914e-10
-4.58416e-09
-1.40099e-09
-2.70482e-09
-3.50396e-10
3.87369e-10
-3.09535e-10
2.53655e-09
-5.58812e-09
-1.12726e-09
-7.01733e-10
-3.68447e-09
-2.02694e-09
-1.99865e-09
-3.18802e-10
-3.14657e-09
2.22215e-09
-2.74413e-09
5.16291e-09
-4.64094e-09
2.30776e-10
8.01763e-09
-6.02626e-09
-3.4256e-09
-3.74198e-09
-1.00264e-09
8.17023e-09
3.64314e-09
-3.25595e-09
-3.81279e-09
2.91625e-09
5.36575e-10
1.90319e-10
3.80716e-09
-1.34169e-09
4.50777e-10
-9.43419e-10
4.98137e-09
2.37683e-09
-2.30045e-09
-3.33233e-09
-2.01165e-09
3.95533e-09
4.3315e-10
4.29624e-09
6.03399e-09
-3.02223e-09
-7.30796e-09
6.12148e-09
-1.76906e-09
-6.36405e-09
2.25005e-09
3.63592e-10
4.21864e-09
-3.31215e-09
-4.64843e-09
8.04202e-09
4.72875e-10
-5.55095e-09
8.77712e-09
2.80782e-09
2.14116e-09
-1.57063e-09
-3.97264e-09
-1.63671e-09
4.66593e-09
4.18571e-10
9.77797e-10
6.16262e-09
6.27569e-09
5.81935e-10
-6.66108e-11
7.59061e-09
-8.10594e-09
2.22307e-10
5.38538e-09
-5.02576e-09
3.02491e-10
8.47067e-09
-8.55085e-09
-9.09409e-10
1.0324e-08
-9.48125e-09
1.13836e-08
-1.19905e-08
-3.26252e-09
1.08288e-08
-2.18088e-09
1.19429e-08
-6.73478e-09
1.25293e-08
-1.28642e-08
2.44438e-09
-2.10953e-09
3.88071e-09
-7.62951e-09
1.62781e-08
3.04282e-09
-1.39177e-08
1.29026e-08
-2.02775e-09
1.56227e-09
5.51653e-09
-9.11019e-09
4.1861e-09
6.92137e-09
-3.51688e-09
5.07932e-09
2.12016e-09
3.6293e-09
6.92702e-09
1.00952e-08
-6.61916e-09
-4.31237e-09
1.48122e-08
2.75225e-09
-3.05802e-09
8.33115e-09
-4.67532e-09
-5.80014e-09
6.16309e-09
-1.09084e-08
3.1751e-09
-1.20581e-09
3.2414e-09
2.53354e-08
-1.91121e-09
-4.60853e-09
-1.88157e-08
1.38025e-08
-7.54764e-09
1.90805e-08
9.35272e-09
-8.3421e-09
-1.81471e-08
1.71364e-08
4.20244e-10
-1.0655e-08
1.95875e-08
8.46885e-09
-2.45776e-08
2.43238e-08
-8.21509e-09
-2.68243e-08
3.52967e-08
-3.53902e-12
5.94119e-09
8.42734e-10
-3.13616e-08
6.83957e-09
-2.77227e-08
2.35377e-08
-1.86094e-08
1.32336e-08
-4.53978e-10
1.07581e-08
6.82416e-09
2.0212e-08
2.313e-08
-4.97086e-09
-2.27677e-08
7.70472e-09
7.87765e-09
-5.47743e-09
1.27218e-08
-1.50182e-08
1.19867e-09
-2.06914e-09
-1.75303e-08
8.94448e-09
-3.05741e-08
1.03579e-08
1.73124e-08
-1.34628e-08
6.14932e-09
-6.77932e-09
5.29008e-10
1.51941e-08
-1.93222e-08
-5.04805e-09
1.099e-08
-2.62473e-09
-8.19626e-09
-1.69048e-10
-1.49856e-10
-1.35969e-09
1.24995e-08
6.2624e-09
-8.5732e-09
-3.13961e-10
-1.91566e-09
8.02815e-09
8.82085e-09
-8.82296e-09
-8.19416e-09
-1.20533e-09
8.66647e-09
-2.55101e-09
9.6708e-09
-9.03547e-09
-2.37361e-09
-1.78398e-09
-4.41563e-09
-7.51106e-10
-1.18968e-08
1.00969e-08
-1.04294e-08
8.47298e-09
-2.19123e-09
-9.00536e-09
4.26834e-09
-1.00906e-08
-4.60719e-09
-8.16854e-09
5.40079e-10
-3.27259e-09
-9.96788e-09
5.07189e-09
-1.55544e-08
7.23638e-11
7.39001e-09
-1.06055e-08
3.14317e-09
6.28344e-09
-1.01585e-08
3.94745e-09
1.20375e-08
-7.42185e-09
-2.24011e-09
-2.37552e-09
7.39683e-10
-4.47435e-11
1.13425e-08
3.814e-10
-6.21782e-10
7.63039e-09
-7.06403e-10
7.37124e-09
1.34825e-09
7.62353e-09
-8.23209e-09
3.09826e-09
-4.16562e-09
-9.53818e-09
-2.76171e-09
-4.29856e-09
1.12218e-08
-7.59409e-09
-1.10496e-08
1.05553e-08
-7.19922e-09
7.84107e-09
3.4587e-09
-4.72028e-09
-1.50013e-09
-6.01794e-09
2.27742e-09
-6.30185e-09
-5.95396e-09
6.23789e-09
-3.96805e-10
-1.06253e-08
-1.21565e-08
2.43941e-09
-1.01534e-08
1.15806e-08
-3.86657e-09
-9.79755e-09
-1.58657e-09
1.38235e-08
1.07354e-08
5.71355e-09
4.64099e-09
-2.109e-08
2.09956e-09
-1.51759e-09
7.38485e-09
-1.5055e-08
-7.93407e-09
1.56042e-08
-2.25113e-09
4.26052e-09
5.37545e-09
6.62896e-09
2.70052e-09
9.82553e-09
-1.39095e-08
1.44207e-08
1.07206e-08
-2.05002e-08
1.46522e-09
-1.75013e-08
-2.95937e-09
-4.14988e-09
-2.10523e-08
-3.00323e-09
6.55425e-09
-1.83925e-08
-5.34209e-09
-1.80797e-08
1.39235e-09
-1.70512e-09
4.1393e-09
-1.23935e-08
-6.19242e-09
7.91221e-09
-2.61774e-09
8.43163e-09
-1.37261e-08
-1.46369e-09
9.22657e-09
1.49336e-10
4.38653e-09
-4.01602e-09
-5.82724e-09
5.45674e-09
5.67802e-09
-3.31918e-10
-9.59571e-10
-5.16245e-09
5.60565e-09
-1.90687e-09
-1.17962e-08
3.70364e-09
-2.66932e-09
4.6437e-09
6.36675e-09
4.43405e-09
-2.36917e-09
6.38271e-09
9.21061e-09
6.47128e-09
-1.19754e-09
5.22793e-09
1.4405e-09
-2.23437e-09
-2.39071e-09
8.68659e-09
-1.06796e-09
-6.37926e-10
4.62993e-09
2.41038e-09
3.42297e-09
-1.5632e-09
-1.61296e-09
7.03898e-09
-2.22274e-09
4.05284e-09
-1.648e-09
5.33068e-09
8.7862e-10
4.59701e-09
4.36738e-09
-5.7115e-09
2.10094e-09
3.70567e-09
1.23238e-09
6.05424e-09
-3.52098e-09
-5.2009e-10
-2.01318e-09
6.04979e-09
-3.64679e-09
3.65124e-09
9.02469e-10
4.6834e-10
-5.59533e-09
4.22452e-09
1.57306e-09
5.3792e-09
1.54279e-09
6.88701e-09
-7.96145e-09
-6.09009e-09
3.94586e-10
7.23831e-09
4.17613e-09
-2.40488e-09
2.82577e-09
9.12054e-10
-4.90119e-09
-5.4312e-09
3.80042e-09
5.33646e-09
-1.64881e-09
2.70454e-10
5.57505e-09
-4.72865e-09
2.7944e-10
-1.93929e-09
5.76807e-09
-4.72118e-09
-3.14045e-09
1.91044e-12
7.85974e-09
-2.8325e-10
-5.37628e-09
9.38347e-10
9.32173e-09
-1.78785e-09
-1.1757e-09
-6.35817e-09
-4.81504e-09
1.09963e-08
-3.15882e-09
-1.87895e-09
5.03969e-09
-3.69437e-09
2.523e-10
-2.49482e-09
-4.66931e-09
-1.03534e-08
-1.95301e-09
7.4914e-09
-3.26364e-09
-8.26549e-09
4.23811e-09
6.61131e-09
-4.8686e-09
-5.98082e-09
2.31946e-10
4.07012e-09
-6.39618e-11
3.64719e-09
-6.27983e-10
-5.51402e-09
1.84762e-10
-3.55084e-09
5.74201e-09
-1.41681e-09
4.47728e-09
8.1535e-09
-2.90244e-09
-8.5147e-09
4.78367e-09
-8.39902e-09
-2.08181e-08
6.47825e-09
-4.85522e-09
1.9195e-08
-3.88239e-09
-2.3362e-09
-1.45995e-08
1.25866e-08
-3.43771e-09
-1.30313e-08
1.05138e-08
-1.00518e-09
3.078e-09
1.58648e-08
1.12728e-09
-1.63012e-08
2.97122e-09
8.47473e-09
-4.03758e-09
-1.45998e-08
1.08072e-08
1.5823e-09
-1.58272e-08
1.11522e-09
8.68677e-09
1.05664e-08
-1.30217e-08
-8.58637e-09
8.2914e-09
3.26618e-09
8.31945e-10
1.14803e-09
1.31542e-08
3.04068e-09
-5.49729e-09
-1.06977e-08
-8.54651e-09
1.12932e-09
-1.28158e-08
2.0233e-08
-1.34899e-08
5.95281e-10
4.34806e-09
-7.11588e-09
-8.00831e-09
1.63431e-09
-7.82332e-09
-9.6442e-09
1.85968e-08
-1.12438e-08
4.01575e-09
-4.8905e-09
6.80091e-09
1.30892e-09
-1.33153e-08
-1.42412e-08
-8.38281e-09
9.80811e-09
-1.37747e-08
-7.7883e-09
-4.12528e-09
-1.86117e-09
-1.56836e-08
2.41643e-09
5.47887e-09
1.08491e-08
2.7229e-09
-2.19548e-08
-1.7541e-08
1.87458e-08
-6.59296e-09
-7.90735e-09
7.56491e-09
-1.27826e-08
-1.20176e-08
-6.80272e-09
1.30237e-10
2.51984e-09
3.46106e-09
-1.57716e-08
9.79065e-09
5.99977e-09
2.39176e-09
-5.87169e-09
2.87726e-09
-5.31375e-09
1.05312e-09
-5.15358e-09
-2.255e-09
-7.22503e-09
1.16199e-08
-1.04138e-08
-3.26273e-09
-1.19559e-08
-3.99494e-09
8.84106e-09
-9.41838e-10
-3.78931e-09
-7.22474e-09
-1.65914e-10
1.3926e-08
-9.30563e-09
-4.45441e-09
7.13858e-09
-8.34128e-09
3.3576e-09
-2.1549e-09
-2.01472e-08
8.40722e-09
7.74508e-09
-1.46093e-08
-6.47981e-09
8.55521e-09
-8.68383e-09
-3.66069e-09
1.05853e-08
4.71445e-09
-1.25404e-08
-2.75937e-09
-2.47428e-09
-5.10087e-09
6.92e-09
-9.1571e-09
2.23191e-09
5.17523e-09
-6.752e-09
-7.58033e-09
1.38917e-08
-3.60796e-09
2.38036e-09
5.29998e-09
-4.07236e-09
1.13753e-09
5.52961e-09
-1.02751e-08
-2.97727e-09
7.40114e-09
-2.0435e-09
7.36325e-09
-9.20298e-09
1.78826e-09
-3.67523e-09
7.41659e-09
-5.53184e-09
5.14365e-09
-7.29732e-10
1.11798e-09
1.32039e-08
-8.50002e-09
-1.02357e-08
5.28895e-09
1.30586e-08
6.51496e-10
9.25223e-09
1.81769e-09
-3.66877e-09
4.63107e-09
3.89144e-09
-5.49953e-09
8.25273e-10
9.30535e-09
-7.02433e-09
1.05986e-09
4.64965e-10
5.99163e-09
4.9425e-10
-1.1859e-09
1.0738e-08
-4.62381e-09
7.84986e-10
2.59145e-10
4.47139e-10
8.64576e-09
3.01681e-10
7.35896e-09
3.25225e-09
4.61215e-09
1.21911e-09
-5.24485e-09
4.47286e-09
4.77304e-09
3.91712e-09
6.6358e-09
-8.84146e-09
1.53161e-10
2.05247e-09
-4.71399e-09
2.84827e-09
8.50151e-09
-9.56346e-09
3.74251e-09
1.10695e-09
-2.68154e-09
7.21726e-09
-1.68746e-09
-9.7305e-10
-3.22907e-09
-5.36134e-09
-3.68648e-09
-6.12803e-09
-4.55797e-09
-3.59726e-09
5.4737e-09
-6.29721e-09
1.89238e-09
1.94035e-09
-4.85806e-09
-1.90914e-09
4.82685e-09
-1.76107e-09
3.16308e-09
5.38335e-10
2.11159e-09
-5.13841e-09
-3.27038e-09
-1.63848e-09
1.52805e-10
-1.84096e-09
-6.24618e-09
2.01923e-11
1.77669e-09
1.75969e-09
-3.55656e-09
1.80681e-09
-3.62757e-09
3.45083e-09
1.32658e-10
-7.0652e-09
5.12893e-11
-3.05101e-09
8.17636e-10
-7.10138e-10
2.94351e-09
-1.06465e-09
-1.70904e-09
-2.77326e-10
-2.86763e-09
3.54392e-10
3.33088e-09
-3.67598e-09
-6.67952e-11
8.75145e-10
-2.15104e-09
-2.14162e-09
6.16677e-10
-2.51501e-09
-7.00664e-10
-3.79274e-09
3.75823e-10
2.70679e-09
-3.09698e-09
-2.4048e-09
4.3367e-09
-5.50514e-09
1.10166e-09
-9.09076e-10
5.60018e-09
1.23669e-09
-3.39672e-09
-3.54968e-10
-5.6352e-09
5.10195e-09
4.26222e-09
-2.24154e-09
-4.16228e-09
2.19311e-09
2.60346e-09
-2.51623e-09
-2.28032e-09
9.502e-10
5.50018e-10
-2.4103e-09
-2.48172e-09
2.44406e-09
3.60494e-09
-2.0578e-09
-3.99119e-09
-3.33797e-09
5.62528e-09
1.56744e-10
-8.1018e-10
1.67278e-08
-3.53108e-09
-1.23865e-08
6.41657e-09
-5.06324e-09
-2.16349e-09
1.14713e-09
-3.28182e-09
-1.20327e-09
-9.01973e-10
1.45839e-09
5.06888e-09
2.59551e-10
2.44344e-09
-4.07743e-09
4.7676e-09
1.60377e-08
2.59871e-09
4.64319e-09
-7.4637e-09
-7.10561e-10
-5.57743e-09
1.43046e-10
6.89277e-09
8.08992e-11
-6.1386e-09
4.8028e-10
7.80189e-09
-1.13898e-08
1.27125e-08
-3.78753e-10
-4.61272e-09
-7.12532e-09
5.38333e-09
-3.74907e-09
-6.89575e-09
5.26149e-09
-4.66051e-09
-1.56129e-09
1.16051e-08
-6.27664e-09
-2.62093e-09
4.23707e-09
5.25258e-09
-8.97599e-09
-2.56646e-11
-1.66171e-09
-5.79484e-09
1.17992e-09
-8.56009e-09
2.63745e-12
6.15878e-09
6.81089e-09
-7.71709e-09
9.2743e-09
-4.67681e-09
2.41351e-09
-2.23327e-10
-1.07503e-08
1.94934e-09
-5.33066e-09
-7.94883e-09
3.36206e-09
1.96585e-09
2.59431e-09
-1.17936e-08
-2.53772e-10
-5.74572e-09
-8.03089e-09
1.03714e-08
-9.51687e-09
3.11878e-09
1.39363e-09
5.00446e-09
-1.49207e-09
-6.07263e-09
-1.95217e-09
-4.65356e-09
-5.80853e-09
8.8832e-09
1.57889e-09
-5.02045e-09
5.3133e-09
-4.9464e-09
7.77001e-09
-2.2208e-09
5.54808e-09
-1.10973e-08
7.41776e-09
3.47102e-09
-1.13186e-08
3.28928e-09
1.63431e-09
-8.22487e-09
1.57011e-09
-5.35866e-09
2.28663e-09
4.46567e-09
-3.7584e-09
8.46688e-09
4.17472e-09
1.33547e-09
2.19442e-10
2.56856e-09
2.90949e-09
-3.84374e-09
-5.55795e-09
7.31318e-10
-5.32018e-10
-4.48146e-09
3.83422e-09
4.10745e-10
-4.13745e-09
5.6837e-09
7.40389e-10
4.28091e-10
-9.49055e-09
-3.36915e-09
1.16056e-09
1.16991e-08
-9.37783e-09
-2.06957e-09
1.95685e-09
1.85523e-09
2.65351e-08
-1.04122e-08
-1.79781e-08
1.90953e-08
-1.02763e-08
-6.96372e-09
2.29113e-09
2.36758e-08
5.68118e-10
1.77907e-08
3.59575e-09
-1.09466e-08
-3.78734e-09
1.13648e-08
-1.48798e-08
-7.97043e-09
-6.53519e-10
9.7845e-09
-1.10559e-08
1.01584e-09
-7.47329e-10
-8.77346e-09
8.77023e-09
7.5055e-10
-1.23237e-08
5.20539e-10
-3.52383e-09
-3.40916e-09
-1.84049e-09
7.76416e-09
-5.89614e-09
-5.39185e-09
1.18415e-08
-1.1957e-08
5.24605e-09
-5.13055e-09
-4.67773e-09
1.27319e-08
-1.92374e-08
-3.13184e-09
9.12361e-11
2.75629e-09
1.49431e-08
1.90893e-08
-9.47026e-09
4.91068e-09
-2.27776e-09
1.03945e-08
1.00202e-08
-3.68587e-09
-9.74352e-09
1.04988e-08
-8.27896e-09
1.05167e-08
7.78609e-10
-3.01638e-09
1.40663e-09
-9.05413e-09
-6.31459e-10
4.74048e-09
1.41681e-09
-4.86242e-09
-1.29487e-09
-1.38145e-09
6.51275e-09
2.20855e-09
-7.33984e-09
3.19326e-09
1.6576e-10
1.66088e-09
-4.88137e-09
4.6373e-09
-5.33643e-11
-3.41595e-09
5.13019e-09
1.31565e-09
-2.27891e-09
7.47604e-09
-4.1945e-09
6.82956e-11
5.44185e-09
-8.59609e-10
-1.41629e-10
6.77144e-09
-5.41817e-09
-2.23883e-10
8.46173e-09
-1.18573e-09
5.8162e-09
-4.56218e-09
5.36183e-09
1.09076e-08
1.79724e-09
-1.4757e-08
2.05215e-09
4.16529e-09
-7.83357e-09
-1.15992e-08
-4.92037e-09
-1.34893e-08
3.68736e-09
1.993e-08
-1.12856e-08
-6.01166e-09
-2.63274e-09
1.7711e-08
-1.04982e-08
1.27171e-08
-5.312e-09
-1.31534e-08
3.70838e-09
-5.5471e-09
-7.86065e-09
-8.15658e-11
1.73329e-08
-4.54221e-09
1.26191e-08
-7.52407e-09
-1.63807e-08
-3.42613e-09
-1.14603e-08
1.03622e-08
-6.7355e-09
-1.81838e-08
1.41149e-09
-4.74013e-09
7.28906e-10
-1.41726e-08
-1.67357e-09
-1.63282e-08
1.32616e-08
-1.21795e-08
-8.83455e-09
-1.73355e-09
-9.71705e-09
-1.09312e-08
-2.86944e-08
-3.1268e-09
2.54479e-08
6.37329e-09
-9.52308e-09
1.16202e-08
-3.07915e-08
1.22296e-08
8.84781e-10
-1.62412e-08
-2.22355e-08
-9.30582e-09
1.56203e-08
1.5921e-08
1.19231e-08
1.0201e-08
-1.26783e-08
-9.44577e-09
2.3694e-08
6.7926e-09
-1.85634e-08
-1.30045e-08
9.69999e-10
-1.76071e-08
1.82555e-08
4.23816e-09
-4.88654e-09
-1.26168e-09
4.43315e-09
-2.37969e-08
2.06254e-08
1.44466e-08
2.68897e-09
-1.83972e-08
8.54561e-09
-2.3148e-09
1.74632e-08
5.38504e-09
2.7493e-09
3.22559e-09
-3.58933e-09
-2.38557e-09
-1.06324e-09
3.58491e-09
2.27628e-10
-1.06734e-09
6.49991e-10
3.64294e-09
2.3292e-09
-1.02124e-10
-5.81641e-09
-2.66891e-09
2.29814e-09
1.01187e-09
-6.41075e-10
-1.30475e-10
-3.43076e-09
4.74116e-09
4.31947e-09
-1.14001e-09
-3.30993e-09
-3.70586e-09
-7.92247e-10
9.00143e-10
4.53235e-09
-6.9133e-10
-2.95675e-09
1.30735e-09
-1.01951e-09
3.94857e-09
2.19835e-09
-3.81772e-09
2.67391e-09
2.11417e-10
-6.47689e-09
2.66891e-09
-3.15449e-09
2.87166e-09
-8.52964e-10
-1.03193e-10
1.23858e-10
1.40692e-08
-3.48493e-10
-1.38446e-08
-3.39949e-10
1.45167e-08
-1.40529e-08
-1.39525e-10
1.61516e-08
7.70568e-10
-1.67827e-08
3.41442e-10
1.02182e-08
-1.06991e-08
-1.11441e-08
3.40091e-09
-1.04994e-09
8.79316e-09
-1.11426e-08
-6.62137e-10
8.49654e-09
2.38376e-09
1.2781e-08
2.70847e-09
2.31563e-10
1.00272e-08
3.81048e-09
4.34258e-09
1.04057e-08
1.06514e-08
1.24609e-09
-1.1419e-08
-1.02271e-08
-1.05516e-09
2.27012e-08
-8.3572e-09
9.71921e-09
-8.11675e-09
7.91683e-09
-1.69913e-08
5.17318e-10
-1.65692e-08
1.9266e-08
-9.66985e-09
4.60625e-09
-1.28384e-09
-1.29263e-08
-6.08874e-10
-1.2279e-09
1.47631e-08
4.6322e-09
-2.79078e-09
-1.47677e-08
-8.33045e-09
1.34355e-08
-2.32063e-09
-9.5366e-09
5.96109e-09
-9.22176e-09
3.64538e-09
3.25576e-09
-5.1476e-09
-5.0768e-09
-8.3467e-09
-1.79878e-09
5.81129e-09
-1.19142e-08
-7.683e-09
9.87314e-09
-1.39964e-08
6.247e-10
3.49852e-09
-8.71858e-09
1.90318e-08
-4.40135e-10
5.62008e-09
-2.27598e-08
4.21699e-09
1.2231e-08
-1.21865e-08
5.5756e-09
-1.28409e-08
1.63533e-08
-1.93008e-09
-2.70533e-08
-4.20015e-09
1.69617e-08
-1.37284e-08
1.77706e-08
-2.39771e-09
-1.15905e-08
1.45558e-08
5.76409e-09
4.15974e-10
-6.738e-09
-3.38821e-10
-1.34466e-08
-5.47794e-09
-1.77744e-08
1.43724e-08
-2.63256e-09
1.88395e-09
2.63475e-09
-2.10198e-09
1.38396e-08
9.69342e-09
-8.74389e-09
-5.12244e-10
-4.37289e-10
7.45444e-10
1.15827e-08
-1.15868e-09
2.31727e-09
1.66697e-08
-2.48114e-09
1.20187e-08
-8.79208e-09
1.3479e-08
-1.06455e-09
1.93503e-08
-1.05061e-08
-7.77965e-09
-7.41007e-09
1.60795e-08
-9.73398e-09
6.43159e-09
-1.16236e-08
-2.21808e-09
3.43603e-09
5.01055e-09
1.09037e-08
7.14686e-09
1.23687e-08
1.4518e-08
-1.3633e-08
5.54659e-09
8.90428e-09
8.53682e-09
-2.9231e-09
-1.09142e-08
-1.61517e-09
1.22684e-08
2.61006e-10
-1.18715e-08
-4.4403e-09
5.39758e-09
1.01606e-08
-5.79729e-10
-1.11961e-08
4.29104e-09
1.17601e-08
-4.48035e-09
4.20637e-09
8.83594e-09
-8.56196e-09
3.5073e-10
6.34718e-09
-1.11783e-08
1.23818e-08
1.21765e-09
-1.33103e-09
6.31264e-09
8.85853e-09
-1.63442e-09
1.01318e-08
5.31399e-09
7.41849e-09
9.9922e-09
4.32909e-09
-8.55567e-09
-6.63624e-09
1.08628e-08
-3.66186e-09
1.34321e-08
-5.44115e-09
-7.85661e-09
-2.83738e-09
2.13832e-09
-9.16083e-09
-1.61015e-09
5.40573e-09
5.36526e-09
-1.03699e-08
-5.50741e-09
6.7165e-09
-8.22669e-09
1.84268e-09
4.77386e-09
2.74116e-09
-6.23585e-09
-4.732e-09
7.56372e-09
-1.86196e-09
-8.46616e-09
2.7644e-09
-5.60878e-09
9.51064e-09
-1.2147e-08
8.38091e-09
-4.21436e-09
-5.1915e-09
-8.71995e-09
2.21744e-10
9.65087e-10
-5.05623e-09
-3.76547e-09
-6.07643e-09
-1.05293e-08
-6.88981e-09
-5.79071e-09
-5.72317e-09
-2.0317e-09
1.7765e-09
-1.08365e-08
-1.47998e-08
1.56125e-08
-6.91104e-09
6.09827e-09
-4.32675e-09
-1.25047e-08
1.25872e-08
3.24713e-09
-1.29519e-08
-3.24198e-09
9.28282e-09
-9.75302e-10
2.59303e-09
1.74363e-08
-7.44212e-09
1.1621e-08
1.54238e-08
-1.05543e-08
-1.64906e-08
2.19029e-09
6.58754e-09
2.84317e-09
5.9709e-09
1.16432e-08
-6.96798e-09
2.04238e-08
3.38788e-09
-1.03176e-08
7.79079e-09
-3.10536e-10
6.79372e-09
-2.35254e-09
-4.59748e-09
1.71295e-10
6.77868e-09
8.43252e-10
-3.44804e-09
2.52194e-10
-3.87338e-09
-5.19864e-09
4.47453e-09
-3.99235e-09
1.5186e-09
-1.39963e-09
-6.40828e-09
1.79024e-09
6.25679e-10
1.05373e-09
-8.92108e-09
2.66871e-09
1.75571e-09
-2.7434e-09
1.83093e-09
-3.61569e-09
5.5427e-09
-2.64496e-09
7.15513e-10
7.67857e-09
-4.84338e-09
-2.8514e-09
1.62071e-11
7.7654e-11
-3.22319e-09
4.02126e-10
1.37025e-09
-4.90829e-09
3.92401e-10
-1.18905e-10
-3.49669e-09
-2.58142e-09
3.28867e-10
3.28187e-10
1.01877e-09
9.92776e-09
-1.14851e-09
-2.71709e-10
9.22415e-09
-7.80394e-09
1.16097e-09
9.6167e-09
-2.26923e-09
1.10677e-08
1.25425e-08
-6.30762e-09
-9.46135e-10
6.98204e-09
-2.54626e-09
1.7374e-10
6.91203e-09
1.33273e-08
-4.45279e-09
-7.71375e-09
-1.16079e-09
5.96536e-09
1.5001e-09
5.86184e-09
-1.36077e-08
6.55142e-09
-1.51246e-08
2.36365e-09
-8.46802e-10
-5.21872e-09
-1.43587e-08
2.17215e-09
-1.58177e-08
8.42686e-09
-1.09685e-08
8.49142e-09
4.34016e-09
-1.86308e-09
-1.6094e-08
7.29766e-09
6.73653e-09
7.15763e-09
-1.23941e-08
-4.43665e-09
-4.67312e-10
1.14553e-08
-7.98742e-09
1.30008e-09
2.25068e-09
1.12134e-08
-9.16182e-09
-1.0039e-08
-5.44197e-09
1.17112e-08
-8.86963e-09
4.72773e-09
-1.40192e-09
1.02372e-09
-3.23536e-10
6.23614e-09
-1.37842e-08
7.87165e-09
3.54075e-09
4.5262e-09
-8.39048e-09
-5.53655e-09
-2.66367e-09
-2.21303e-09
1.04133e-08
-8.95495e-10
1.5951e-09
5.09324e-09
8.86397e-10
-6.87512e-09
-4.15195e-09
6.58152e-09
-4.07679e-09
-6.83021e-09
-2.87725e-09
-3.46976e-09
4.79748e-09
3.37916e-09
-6.33815e-10
-6.29043e-09
3.5451e-09
4.43845e-09
1.14962e-09
-2.20889e-09
5.80464e-09
-1.11154e-09
-2.54647e-10
6.8276e-09
-6.85026e-09
1.92036e-10
-1.69354e-10
-3.96708e-09
6.64275e-09
-3.76134e-09
-6.05821e-09
5.74278e-09
4.0704e-09
-8.46556e-09
5.72173e-09
-5.01702e-10
-6.68213e-10
3.0031e-09
-6.7684e-09
2.13312e-09
-7.89693e-09
-2.72679e-09
4.06644e-09
-1.13209e-09
-2.07586e-10
-2.45941e-10
-5.99773e-09
3.65199e-09
3.51377e-09
-7.4117e-09
5.72848e-09
1.57936e-09
8.78004e-09
-6.33387e-09
5.42216e-09
-8.00605e-09
5.75899e-09
7.0055e-12
-3.77975e-09
9.93583e-09
-3.07502e-09
8.50418e-09
-7.01247e-09
-2.24199e-09
5.97069e-09
3.28376e-09
2.00121e-09
-5.58321e-09
1.01598e-09
2.56601e-09
4.45777e-09
3.99873e-09
-6.45529e-09
-6.38002e-09
-2.16484e-09
2.96164e-09
1.50529e-09
-7.31314e-10
2.96471e-09
-4.83869e-09
-6.68492e-10
4.93756e-09
-6.26248e-09
-2.14821e-09
1.07612e-09
4.54229e-09
-3.4702e-09
3.47995e-10
3.20795e-09
-5.70416e-09
4.11867e-09
-6.84995e-09
3.07928e-09
5.39978e-09
-2.64141e-09
-1.68226e-09
-7.59428e-10
-2.8509e-09
2.04741e-10
3.40558e-09
2.64993e-10
4.37536e-09
-2.26658e-09
3.95797e-09
1.35923e-09
-4.17869e-10
-4.70246e-10
-3.12747e-09
3.80245e-09
-5.87218e-09
5.66692e-09
-5.73146e-09
6.66956e-09
-6.81028e-09
1.21531e-09
-2.82811e-09
-5.5293e-10
2.54509e-09
5.0367e-09
-3.66893e-09
7.12608e-09
-1.95882e-09
6.69331e-09
1.15743e-08
9.21541e-09
4.78433e-09
9.80023e-09
6.2578e-09
4.81834e-10
2.56393e-09
-9.30356e-09
4.86176e-10
-3.24062e-09
9.01224e-09
7.27827e-09
4.08309e-09
-7.85429e-09
-3.50707e-09
6.00728e-09
-6.60988e-09
1.08444e-09
-1.20865e-09
7.70212e-09
-6.60358e-09
-1.62257e-09
1.61627e-09
-6.15958e-10
-6.52637e-09
5.38749e-10
5.29681e-09
1.58902e-10
-6.07167e-09
4.1817e-09
-5.07454e-10
1.09127e-09
5.35375e-09
-4.75458e-09
-1.69044e-09
5.50298e-09
-2.30003e-10
-1.06225e-09
5.35657e-09
3.57364e-10
3.93414e-09
4.39501e-09
-5.81244e-09
1.21676e-09
-6.76978e-10
5.98031e-09
4.46631e-10
-5.74997e-09
8.52388e-09
-9.44901e-09
2.48137e-10
-3.82557e-09
-6.10654e-09
6.08046e-09
3.85165e-09
6.58364e-09
-3.62255e-09
-6.44362e-09
3.48254e-09
5.93726e-09
-1.15896e-09
-9.80407e-09
-8.1664e-09
5.83103e-09
-2.01818e-09
4.71103e-09
4.90199e-09
6.90935e-09
3.70722e-09
-6.57262e-09
-8.60708e-09
5.5693e-10
2.30595e-09
9.13595e-09
-7.81261e-09
8.7873e-09
-5.47339e-09
9.50346e-09
-1.50243e-08
1.09942e-08
1.43926e-09
-8.07377e-09
1.16111e-09
7.12802e-09
-6.07633e-09
1.91582e-08
-2.99075e-09
2.38925e-08
-7.53326e-09
5.56392e-09
-1.06761e-08
1.26455e-08
-7.52635e-09
1.43236e-09
-5.95605e-09
2.10234e-08
-1.03031e-08
-3.52145e-09
-1.19976e-09
-9.7768e-09
-8.60006e-09
-5.44284e-09
1.21663e-08
-9.71421e-09
5.77917e-09
-1.72983e-08
3.53942e-09
7.6625e-09
7.95627e-09
1.16581e-08
1.5738e-08
-7.09317e-09
2.14401e-08
-6.50922e-09
3.4956e-09
-1.04624e-08
-3.57318e-09
-1.446e-08
-5.38765e-09
-3.39486e-09
-2.66606e-09
1.14485e-08
-3.08474e-09
-5.4211e-09
3.11818e-09
-7.89743e-09
1.25307e-08
-1.88872e-09
3.66207e-09
-3.55389e-09
-3.76377e-09
4.65159e-09
-5.24164e-09
-1.39701e-09
-7.77245e-09
4.62615e-10
6.43147e-09
2.86957e-09
-6.19781e-09
-3.10325e-09
2.35373e-09
5.84671e-09
-7.50546e-09
-3.5829e-09
-3.89091e-09
-5.65772e-09
1.77615e-09
-2.01905e-09
5.57779e-10
5.22064e-09
-3.75937e-09
5.22146e-09
7.44511e-10
-7.98502e-09
5.16577e-09
5.25369e-09
-5.19799e-09
-2.32862e-09
7.05897e-09
-4.17257e-09
6.88867e-09
-8.47278e-09
1.30606e-10
4.1495e-09
8.85651e-10
5.33034e-10
4.55638e-09
1.64261e-10
3.45549e-09
5.59987e-09
-3.83473e-09
3.91921e-09
6.93188e-11
5.74289e-09
1.27638e-09
4.14966e-09
4.55623e-09
-1.36862e-09
1.29562e-09
3.99221e-09
1.83326e-11
4.21291e-09
9.97227e-10
7.00999e-09
-2.26432e-09
-6.96064e-09
9.44844e-09
-1.49057e-09
4.97121e-09
-4.87287e-09
-2.3767e-10
5.68295e-09
-2.73087e-09
9.50319e-09
-1.48641e-09
8.20398e-09
3.50314e-09
-2.04748e-09
-1.31099e-09
-7.72715e-09
1.10856e-08
-9.58495e-09
-4.04215e-09
1.15796e-08
-6.03524e-09
-8.91752e-09
5.3678e-09
2.18381e-09
-7.99938e-09
-2.19669e-10
-4.05246e-09
-8.8179e-09
1.15594e-08
7.03552e-09
1.16096e-09
-2.43921e-09
-5.75726e-09
5.51628e-09
1.63959e-09
-1.20364e-10
-2.70516e-11
3.20124e-09
1.9482e-09
-1.53357e-08
1.01862e-08
-1.11377e-08
1.02968e-08
-1.27394e-08
1.06351e-08
9.17791e-09
-1.0046e-08
-7.13128e-09
-1.52303e-10
4.12698e-10
-9.38859e-09
2.11581e-09
-1.54513e-09
-9.23921e-09
1.49021e-09
-1.77306e-09
-6.30519e-09
-1.45151e-09
-1.10257e-08
-2.85845e-09
-9.02728e-09
-3.56196e-09
-1.02921e-08
-3.31456e-10
-1.70357e-09
-1.07817e-08
-9.66872e-09
-1.16491e-08
-9.98702e-09
8.07441e-10
9.15966e-10
-1.26066e-08
-1.05258e-08
-3.70566e-09
4.0543e-09
6.10008e-09
-6.44871e-09
-2.00123e-09
-5.26521e-09
6.87731e-09
3.89115e-10
-1.22652e-08
2.40581e-09
6.15373e-09
1.14956e-09
-9.49179e-09
-3.92296e-09
6.09192e-10
-4.94573e-09
-3.68703e-09
8.02355e-09
-3.70844e-09
-3.61845e-09
7.93607e-09
-1.65536e-09
1.46428e-09
-6.29406e-10
4.69291e-10
-8.72173e-09
3.30672e-09
-7.65755e-09
4.50839e-09
-5.14012e-09
-7.73622e-09
5.21879e-09
-6.67288e-09
-1.22619e-10
-8.74597e-09
7.46476e-09
-6.69571e-09
-9.00703e-10
-1.01446e-09
8.52438e-10
-7.57421e-09
-4.69493e-10
-7.21785e-09
2.43103e-10
-3.62854e-10
-9.37203e-09
-6.6751e-09
7.70467e-10
-8.63976e-09
-6.2881e-09
-6.95379e-10
-3.76263e-09
1.41205e-09
3.04597e-09
-3.70396e-09
4.84398e-10
2.52418e-09
1.79538e-09
-3.55903e-09
-1.99898e-09
-1.64119e-09
-2.67397e-10
-1.78234e-09
3.78624e-09
1.32697e-09
-3.06886e-09
-3.54667e-10
8.31841e-10
-2.38178e-09
-1.25879e-09
2.80862e-09
-3.84253e-09
-1.06751e-09
5.74188e-09
-4.1147e-09
-2.10962e-09
3.01185e-09
-8.21368e-09
2.4757e-09
4.85328e-09
8.84704e-10
5.51444e-10
-7.66346e-09
4.28479e-10
-2.6222e-09
-4.4007e-09
4.74523e-09
3.73919e-09
9.18512e-11
-3.27959e-09
1.81418e-09
6.33875e-09
-3.0387e-09
-2.28984e-08
5.47465e-09
1.24404e-08
4.98341e-09
-8.01124e-09
2.78079e-09
-1.7668e-08
-1.05838e-08
1.42248e-09
1.10634e-08
-1.90209e-09
-2.03785e-09
-1.65572e-08
-5.72931e-09
-1.3845e-09
8.53628e-09
-6.57832e-09
6.49557e-09
-5.64656e-09
9.63271e-09
6.90534e-09
-1.12798e-08
1.09734e-08
1.27467e-08
-1.81789e-09
-6.68109e-09
6.98409e-09
-4.21402e-09
6.29305e-09
-9.06313e-09
7.07924e-10
6.90199e-09
-6.25824e-10
-1.28302e-08
7.75758e-09
-5.54091e-10
-1.0303e-08
1.00735e-08
7.13147e-09
-5.82782e-09
-1.455e-09
-1.23365e-09
1.23214e-08
-2.15363e-09
1.16721e-08
-2.1023e-09
9.68844e-09
-8.81979e-09
-9.02164e-10