/*--------------------------------*- C++ -*----------------------------------*\
| =========                 |                                                 |
| \\      /  F ield         | OpenFOAM: The Open Source CFD Toolbox           |
|  \\    /   O peration     | Version:  v1612+                                |
|   \\  /    A nd           | Web:      www.OpenFOAM.com                      |
|    \\/     M anipulation  |                                                 |
\*---------------------------------------------------------------------------*/
FoamFile
{
    version     2.0;
    format      ascii;
    class       volVectorField;
    location    "239";
    object      U;
}
// * * * * * * * * * * * * * * * * * * * * * * * * * * * * * * * * * * * * * //

dimensions      [0 1 -1 0 0 0 0];

internalField   nonuniform List<vector> 
16840
(
(-0.236712 0.64993 -0.920162)
(-0.249314 0.618841 -0.866729)
(-0.257661 0.641865 -0.924917)
(-0.235956 0.646086 -0.910975)
(-0.249099 0.683951 -0.995603)
(-0.221518 0.651183 -0.973234)
(-0.268836 0.648241 -0.930303)
(-0.249202 0.619138 -0.927021)
(-0.247305 0.68098 -0.996219)
(-0.26303 0.651662 -0.983176)
(-0.280912 0.572252 -0.89159)
(-0.312486 0.618738 -0.949803)
(-0.282755 0.575344 -0.899238)
(-0.262948 0.628342 -0.933783)
(-0.278575 0.635811 -0.975076)
(-0.274257 0.64327 -0.98763)
(-0.287678 0.639929 -0.898079)
(-0.283987 0.629532 -0.885182)
(-0.282878 0.640173 -0.968157)
(-0.244062 0.636925 -0.958622)
(-0.234817 0.652082 -0.979535)
(-0.264205 0.636993 -0.917513)
(-0.295181 0.635006 -0.899065)
(-0.30266 0.650787 -0.961584)
(-0.26824 0.664508 -0.983258)
(-0.278726 0.658534 -0.931982)
(-0.308795 0.646351 -0.926096)
(-0.302242 0.650334 -0.951937)
(-0.235307 0.64546 -0.976547)
(-0.279123 0.611904 -0.90265)
(-0.321974 0.514795 -0.666923)
(-0.31701 0.521929 -0.661261)
(-0.296692 0.531726 -0.615608)
(-0.289755 0.520209 -0.610919)
(-0.319571 0.513544 -0.695702)
(-0.310851 0.536628 -0.702842)
(-0.305558 0.528354 -0.671763)
(-0.281216 0.533596 -0.611846)
(-0.281042 0.498446 -0.593952)
(-0.29517 0.537366 -0.69731)
(-0.309775 0.507865 -0.691642)
(-0.289995 0.501948 -0.621667)
(-0.314041 0.504874 -0.661599)
(-0.298604 0.526855 -0.642634)
(-0.288453 0.54589 -0.643498)
(-0.580044 0.398193 -0.82446)
(-0.581307 0.376952 -0.803628)
(-0.51221 0.334103 -0.678128)
(-0.507334 0.304087 -0.650865)
(-0.538854 0.347524 -0.724454)
(-0.560624 0.331198 -0.71614)
(-0.583298 0.346339 -0.762686)
(-0.573212 0.336284 -0.746015)
(-0.560881 0.394238 -0.808181)
(-0.579247 0.350273 -0.748025)
(-0.511155 0.326513 -0.662146)
(-0.530116 0.343158 -0.684741)
(-0.568529 0.380296 -0.767556)
(-0.563762 0.386436 -0.75803)
(-0.537335 0.294966 -0.673267)
(-0.552478 0.353024 -0.728589)
(-0.556965 0.315132 -0.704004)
(-0.502053 0.462628 -0.550632)
(-0.497915 0.48966 -0.595283)
(-0.493557 0.525636 -0.689312)
(-0.512802 0.567798 -0.685057)
(-0.486625 0.53064 -0.668646)
(-0.507827 0.463529 -0.530253)
(-0.494188 0.473746 -0.529624)
(-0.537639 0.502574 -0.649051)
(-0.578758 0.497957 -0.639187)
(-0.547258 0.437555 -0.532476)
(-0.564578 0.466859 -0.58179)
(-0.52036 0.407886 -0.463259)
(-0.511505 0.448536 -0.517113)
(-0.484207 0.545828 -0.706836)
(-0.537366 0.464948 -0.548931)
(-0.515194 0.535457 -0.696668)
(-0.555058 0.446698 -0.546793)
(-0.502745 0.520279 -0.676561)
(-0.531334 0.493271 -0.634623)
(-0.659258 0.415631 -0.584514)
(-0.629757 0.362144 -0.510752)
(-0.588133 0.37443 -0.495725)
(-0.689171 0.400762 -0.538443)
(-0.649262 0.356 -0.500908)
(-0.599 0.376788 -0.499569)
(-0.605026 0.413366 -0.559904)
(-0.649567 0.445964 -0.634164)
(-0.607366 0.36946 -0.483318)
(-0.58219 0.405433 -0.504969)
(-0.584188 0.407998 -0.540303)
(-0.619612 0.387552 -0.493015)
(-0.551032 0.145245 -0.292817)
(-0.533434 0.103513 -0.280619)
(-0.589012 0.198475 -0.34276)
(-0.570515 0.149813 -0.306068)
(-0.553614 0.155286 -0.315465)
(-0.554628 0.134911 -0.303205)
(-0.575601 0.187041 -0.358077)
(-0.585474 0.155813 -0.36108)
(-0.571078 0.276942 -0.48143)
(-0.586216 0.145544 -0.388022)
(-0.573165 0.102681 -0.338736)
(-0.57422 0.241807 -0.491499)
(-0.495155 -0.0029048 -0.517073)
(-0.452621 -0.0377719 -0.484814)
(-0.503943 -8.92775e-05 -0.538788)
(-0.460102 -0.0138242 -0.544176)
(-0.527956 0.0334023 -0.537593)
(-0.472439 0.00133297 -0.513937)
(-0.495358 0.13235 -0.620329)
(-0.481891 0.148631 -0.633042)
(-0.457135 0.213993 -0.63976)
(-0.507281 0.0879048 -0.598515)
(-0.417734 0.229461 -0.652371)
(-0.444702 0.0765541 -0.607233)
(-0.475937 0.232892 -0.639833)
(-0.414368 0.21782 -0.638844)
(-0.421097 0.0376047 -0.541826)
(-0.417671 0.0226904 -0.565636)
(-0.514989 0.130278 -0.614166)
(-0.420536 0.127049 -0.62866)
(-0.449327 0.142593 -0.619388)
(-0.472358 0.151128 -0.608416)
(-0.42623 0.0674159 -0.597527)
(-0.425663 0.141778 -0.59865)
(-0.431732 0.364012 -0.460381)
(-0.40565 0.333114 -0.431495)
(-0.425544 0.369175 -0.455797)
(-0.445779 0.371921 -0.47293)
(-0.462099 0.368334 -0.496825)
(-0.479013 0.381531 -0.528092)
(-0.465211 0.384759 -0.530027)
(-0.426806 0.342225 -0.465689)
(-0.395468 0.320345 -0.435964)
(-0.428267 0.375879 -0.475661)
(-0.460228 0.384977 -0.527148)
(-0.435551 0.370221 -0.511531)
(-0.451736 0.383946 -0.536391)
(-0.472083 0.391124 -0.573038)
(-0.482896 0.385855 -0.558559)
(-0.427166 0.38037 -0.513992)
(-0.414258 0.336586 -0.472526)
(-0.417836 0.371353 -0.47748)
(-0.409282 0.345502 -0.464045)
(-0.460027 0.376741 -0.523971)
(-0.440137 0.395659 -0.512735)
(-0.285392 0.0606629 -0.543715)
(-0.284655 0.00712486 -0.510134)
(-0.292603 0.0789881 -0.545324)
(-0.295906 -0.0119995 -0.510421)
(-0.222835 0.0753484 -0.485615)
(-0.240173 0.109326 -0.522136)
(-0.213699 0.0340695 -0.452165)
(-0.274399 -0.0196919 -0.480512)
(-0.25265 0.0880427 -0.523952)
(-0.251672 0.10793 -0.52789)
(-0.257083 0.101698 -0.519434)
(-0.258344 -0.0123936 -0.457904)
(-0.202572 0.0391319 -0.449224)
(-0.195636 -0.0112304 -0.417747)
(-0.234239 -0.0223617 -0.427427)
(-0.228971 0.0281806 -0.482035)
(-0.241304 0.108615 -0.520131)
(-0.215125 0.0555651 -0.479185)
(-0.216449 -0.00656963 -0.430469)
(-0.218232 0.0268211 -0.459319)
(-0.696952 0.214123 -0.386028)
(-0.687606 0.221722 -0.361114)
(-0.659847 0.242945 -0.368113)
(-0.641248 0.208329 -0.332645)
(-0.629259 0.191945 -0.314119)
(-0.645328 0.158665 -0.302188)
(-0.667216 0.160107 -0.328418)
(-0.670269 0.218982 -0.353859)
(-0.666157 0.189523 -0.337276)
(-0.691921 0.247867 -0.446414)
(-0.67075 0.193513 -0.359553)
(-0.675535 0.168922 -0.319462)
(-0.697438 0.305784 -0.436245)
(-0.69869 0.306298 -0.484109)
(-0.687939 0.178303 -0.386238)
(-0.674882 0.126714 -0.338149)
(-0.683117 0.12371 -0.329567)
(-0.667998 0.101515 -0.303676)
(-0.700952 0.165217 -0.376389)
(-0.712567 0.250296 -0.446024)
(-0.301154 0.450504 -0.557147)
(-0.296438 0.458149 -0.548362)
(-0.323857 0.452531 -0.609743)
(-0.320231 0.428089 -0.646238)
(-0.343528 0.431822 -0.692269)
(-0.313347 0.454018 -0.546444)
(-0.330361 0.435953 -0.594825)
(-0.374678 0.428791 -0.703079)
(-0.360389 0.424129 -0.681761)
(-0.34289 0.411806 -0.67403)
(-0.346112 0.426896 -0.682888)
(-0.320536 0.421389 -0.637557)
(-0.309566 0.471951 -0.528976)
(-0.329278 0.455426 -0.548223)
(-0.335355 0.453944 -0.574816)
(-0.343391 0.445379 -0.599462)
(-0.360413 0.433582 -0.622136)
(-0.343186 0.416039 -0.615825)
(-0.331889 0.450625 -0.553516)
(-0.327665 0.459258 -0.575123)
(-0.315519 0.454585 -0.580921)
(-0.318837 0.461149 -0.536021)
(-0.542924 0.518417 -0.906112)
(-0.571197 0.486148 -0.908196)
(-0.619449 0.470658 -0.850628)
(-0.611302 0.497076 -0.846912)
(-0.591711 0.512362 -0.851212)
(-0.597688 0.539018 -0.847375)
(-0.568711 0.515421 -0.870769)
(-0.555434 0.534099 -0.881226)
(-0.51731 0.49269 -0.881476)
(-0.544534 0.505067 -0.873947)
(-0.547654 0.501334 -0.900559)
(-0.561202 0.477855 -0.906688)
(-0.591278 0.47647 -0.918723)
(-0.610382 0.479211 -0.859075)
(-0.603905 0.46207 -0.851438)
(-0.598546 0.528641 -0.822011)
(-0.607233 0.486815 -0.83527)
(-0.580743 0.529919 -0.869064)
(-0.587871 0.458263 -0.867923)
(-0.591133 0.476749 -0.830242)
(-0.585947 0.499593 -0.885998)
(-0.578732 0.459664 -0.815257)
(-0.340533 0.234744 -0.608847)
(-0.350268 0.208515 -0.595286)
(-0.343429 0.12426 -0.608266)
(-0.376092 0.149678 -0.599797)
(-0.339175 0.256327 -0.606731)
(-0.35436 0.243999 -0.60742)
(-0.434285 0.116807 -0.63851)
(-0.352357 0.131789 -0.600861)
(-0.459524 0.217295 -0.643615)
(-0.459908 0.288504 -0.626808)
(-0.345998 0.196314 -0.580476)
(-0.451016 0.310647 -0.647463)
(-0.469239 0.164825 -0.65529)
(-0.445178 0.12405 -0.656388)
(-0.417672 0.241625 -0.639947)
(-0.259256 0.443352 -0.522866)
(-0.26423 0.495205 -0.484902)
(-0.257011 0.449209 -0.576657)
(-0.27151 0.467305 -0.565791)
(-0.28186 0.441236 -0.527824)
(-0.27852 0.481049 -0.491297)
(-0.257321 0.515752 -0.532824)
(-0.260933 0.435289 -0.528081)
(-0.263383 0.509235 -0.481617)
(-0.263743 0.428234 -0.586704)
(-0.264841 0.433407 -0.580322)
(-0.250819 0.526918 -0.489798)
(-0.244889 0.545113 -0.475241)
(-0.243204 0.540968 -0.469128)
(-0.240029 0.531831 -0.502784)
(-0.230639 0.531438 -0.506081)
(-0.253693 0.464014 -0.522321)
(-0.596739 0.386084 -0.767208)
(-0.611694 0.384937 -0.815159)
(-0.596423 0.39227 -0.778966)
(-0.596368 0.383103 -0.766747)
(-0.616761 0.370477 -0.750218)
(-0.621306 0.371373 -0.747543)
(-0.606926 0.366611 -0.763491)
(-0.612961 0.389757 -0.834671)
(-0.610646 0.386914 -0.75884)
(-0.623633 0.386557 -0.779905)
(-0.651178 0.38872 -0.811442)
(-0.642234 0.423415 -0.795956)
(-0.649859 0.405991 -0.84888)
(-0.639243 0.405563 -0.868579)
(-0.629436 0.417404 -0.861937)
(-0.632729 0.399117 -0.808599)
(-0.384165 0.479272 -0.602882)
(-0.384971 0.419362 -0.50245)
(-0.443749 0.378456 -0.471941)
(-0.468586 0.354601 -0.421328)
(-0.429039 0.409722 -0.481001)
(-0.424995 0.433431 -0.480717)
(-0.476154 0.324764 -0.428102)
(-0.41759 0.550912 -0.733814)
(-0.392288 0.483466 -0.618764)
(-0.450421 0.390111 -0.445238)
(-0.475765 0.46605 -0.640104)
(-0.470424 0.439609 -0.569518)
(-0.405323 0.469004 -0.58792)
(-0.470305 0.393143 -0.462534)
(-0.250356 0.525822 -0.331129)
(-0.243704 0.534545 -0.302345)
(-0.239453 0.537976 -0.387346)
(-0.231485 0.548312 -0.396566)
(-0.229545 0.560623 -0.352052)
(-0.26755 0.522697 -0.325525)
(-0.22603 0.5569 -0.367046)
(-0.228644 0.545196 -0.343917)
(-0.256819 0.555449 -0.388009)
(-0.244275 0.552222 -0.354351)
(-0.26083 0.520199 -0.424409)
(-0.262178 0.508119 -0.405681)
(-0.238651 0.539288 -0.408767)
(-0.260626 0.501709 -0.395108)
(-0.254347 0.520531 -0.291311)
(-0.234838 0.513172 -0.278608)
(-0.218619 0.549233 -0.332075)
(-0.226236 0.519685 -0.308143)
(-0.23659 0.550654 -0.406205)
(-0.26592 0.524616 -0.337071)
(-0.506136 0.389065 -0.731453)
(-0.492335 0.371653 -0.71635)
(-0.514504 0.422835 -0.804363)
(-0.512799 0.430661 -0.799826)
(-0.48298 0.355529 -0.676743)
(-0.471692 0.340566 -0.646189)
(-0.492211 0.402975 -0.738897)
(-0.509753 0.431665 -0.783443)
(-0.510873 0.43984 -0.80179)
(-0.455824 0.405999 -0.66159)
(-0.446551 0.369923 -0.624932)
(-0.464221 0.381442 -0.701824)
(-0.462925 0.36689 -0.660082)
(-0.456826 0.382118 -0.657756)
(-0.467976 0.41197 -0.692029)
(-0.484271 0.43262 -0.744837)
(-0.500297 0.414872 -0.743034)
(-0.469043 0.409217 -0.704687)
(-0.734026 0.416829 -0.630647)
(-0.719555 0.402817 -0.628614)
(-0.699382 0.372304 -0.550206)
(-0.705357 0.323552 -0.516744)
(-0.727373 0.358238 -0.539249)
(-0.772283 0.384507 -0.641709)
(-0.74262 0.401434 -0.644826)
(-0.714249 0.326134 -0.494251)
(-0.706521 0.320685 -0.483855)
(-0.759785 0.357322 -0.56042)
(-0.795713 0.33883 -0.548748)
(-0.768851 0.325618 -0.525586)
(-0.744158 0.292647 -0.649629)
(-0.787166 0.386373 -0.629367)
(-0.796514 0.335994 -0.646145)
(-0.790785 0.358744 -0.633887)
(-0.773875 0.317854 -0.642195)
(-0.810923 0.276029 -0.620556)
(-0.782378 0.286899 -0.617115)
(-0.783285 0.325391 -0.623566)
(-0.725154 0.406507 -0.660802)
(-0.770883 0.391515 -0.645465)
(-0.725599 0.389945 -0.664733)
(-0.712893 0.425066 -0.678248)
(-0.667692 0.454584 -0.696827)
(-0.672891 0.387787 -0.677058)
(-0.678081 0.302657 -0.65359)
(-0.378479 0.267388 -0.583348)
(-0.386223 0.217562 -0.568936)
(-0.335784 0.209805 -0.556557)
(-0.280022 0.148669 -0.499774)
(-0.292889 0.174604 -0.513299)
(-0.267383 0.0979806 -0.488166)
(-0.301554 0.0756736 -0.537618)
(-0.323223 0.161812 -0.562114)
(-0.382155 0.17462 -0.588974)
(-0.38032 0.320579 -0.659929)
(-0.331175 0.23515 -0.618858)
(-0.463384 0.123642 -0.591895)
(-0.467951 0.22361 -0.629459)
(-0.416648 0.415433 -0.717443)
(-0.413332 0.413944 -0.723495)
(-0.392182 0.176522 -0.603135)
(-0.49968 0.387706 -0.684223)
(-0.511276 0.295265 -0.644255)
(-0.540709 0.187281 -0.601062)
(-0.533808 0.203385 -0.593083)
(-0.461756 0.408277 -0.709722)
(-0.519428 0.339453 -0.415831)
(-0.467047 0.449498 -0.493384)
(-0.480603 0.408664 -0.517559)
(-0.43445 0.466666 -0.621071)
(-0.471912 0.445583 -0.483163)
(-0.480934 0.475282 -0.603806)
(-0.455778 0.512914 -0.654515)
(-0.471392 0.46642 -0.610572)
(-0.476365 0.435997 -0.545915)
(-0.509263 0.380368 -0.50304)
(-0.511991 0.370183 -0.51958)
(-0.533362 0.359931 -0.479467)
(-0.521968 0.320983 -0.411125)
(-0.497925 0.351663 -0.389556)
(-0.506688 0.397599 -0.488698)
(-0.5098 0.335092 -0.417289)
(-0.384719 0.373853 -0.445221)
(-0.403882 0.38134 -0.489128)
(-0.412767 0.233366 -0.333557)
(-0.424653 0.305027 -0.335548)
(-0.433488 0.291105 -0.36573)
(-0.408572 0.293115 -0.310931)
(-0.176807 0.582537 -0.537796)
(-0.183805 0.591022 -0.550497)
(-0.171393 0.581283 -0.58427)
(-0.174998 0.599654 -0.541134)
(-0.159103 0.577215 -0.584138)
(-0.168085 0.589113 -0.544727)
(-0.16135 0.599982 -0.498032)
(-0.171482 0.604466 -0.512513)
(-0.143106 0.609268 -0.584628)
(-0.146386 0.57816 -0.530982)
(-0.14719 0.606988 -0.501721)
(-0.142938 0.570173 -0.479405)
(-0.14535 0.608836 -0.574595)
(-0.125558 0.603273 -0.527508)
(-0.136387 0.604308 -0.558892)
(-0.130905 0.600117 -0.5278)
(-0.141947 0.617845 -0.523258)
(-0.132864 0.573244 -0.509541)
(-0.172656 0.0848238 -0.374292)
(-0.159599 0.0721404 -0.350119)
(-0.198771 0.140492 -0.419839)
(-0.203882 0.156502 -0.421229)
(-0.194056 0.143351 -0.405979)
(-0.161478 0.103446 -0.354463)
(-0.180981 0.0928874 -0.406137)
(-0.171831 0.0743958 -0.392689)
(-0.238123 0.225026 -0.498423)
(-0.22364 0.181689 -0.467136)
(-0.176238 0.126513 -0.402904)
(-0.22502 0.158249 -0.484973)
(-0.231988 0.205075 -0.49033)
(-0.222938 0.195939 -0.484263)
(-0.226232 0.202409 -0.496419)
(-0.184535 0.10149 -0.416654)
(-0.224816 0.175891 -0.503561)
(-0.515226 0.179918 -0.3452)
(-0.497355 0.162961 -0.305638)
(-0.484593 0.436307 -0.606523)
(-0.503545 0.279971 -0.502115)
(-0.511218 0.182972 -0.294192)
(-0.5225 0.160378 -0.333702)
(-0.537738 0.158541 -0.37032)
(-0.488909 0.377559 -0.573946)
(-0.500851 0.233917 -0.480649)
(-0.512098 0.382149 -0.535014)
(-0.530117 0.229514 -0.358893)
(-0.518048 0.234356 -0.326)
(-0.511376 0.371256 -0.49679)
(-0.518303 0.330681 -0.495017)
(-0.515381 0.239786 -0.330794)
(-0.501073 0.375321 -0.504813)
(-0.417421 0.477004 -0.563544)
(-0.428885 0.449876 -0.494263)
(-0.428825 0.429992 -0.41169)
(-0.434697 0.51456 -0.607526)
(-0.407574 0.44043 -0.453152)
(-0.401446 0.448151 -0.524614)
(-0.454892 0.472539 -0.504211)
(-0.455627 0.449113 -0.453462)
(-0.396613 0.45591 -0.533378)
(-0.408612 0.429175 -0.418631)
(-0.428634 0.411148 -0.372061)
(-0.402754 0.492163 -0.558766)
(-0.421189 0.421861 -0.380336)
(-0.423906 0.444345 -0.461173)
(-0.637479 0.267425 -0.410152)
(-0.634763 0.286545 -0.441945)
(-0.595901 0.352917 -0.399154)
(-0.567359 0.259849 -0.264921)
(-0.623628 0.395887 -0.474959)
(-0.640624 0.333118 -0.459268)
(-0.583115 0.37168 -0.446986)
(-0.57083 0.278138 -0.319918)
(-0.628943 0.210001 -0.346738)
(-0.573111 0.290205 -0.313349)
(-0.549347 0.191552 -0.253036)
(-0.590031 0.250909 -0.288528)
(-0.602029 0.185049 -0.292459)
(-0.614185 0.212895 -0.3124)
(-0.575598 0.220082 -0.258391)
(-0.609777 0.193928 -0.289415)
(-0.593439 0.17373 -0.250916)
(-0.716694 0.358483 -0.527434)
(-0.700311 0.369938 -0.547329)
(-0.673693 0.493614 -0.691369)
(-0.69352 0.404579 -0.674764)
(-0.65335 0.481414 -0.704854)
(-0.706579 0.382401 -0.653467)
(-0.698486 0.418303 -0.582447)
(-0.683736 0.410235 -0.551788)
(-0.719101 0.335745 -0.48735)
(-0.698311 0.311849 -0.468545)
(-0.72693 0.296267 -0.47057)
(-0.685173 0.337021 -0.48389)
(-0.721813 0.323149 -0.519788)
(-0.701248 0.371873 -0.549234)
(-0.668601 0.470298 -0.657015)
(-0.695513 0.455494 -0.673732)
(-0.678728 0.4707 -0.66541)
(-0.701438 0.418602 -0.673284)
(-0.687385 0.484469 -0.665853)
(-0.681856 0.347524 -0.488021)
(-0.728072 0.3268 -0.515135)
(-0.703977 0.329509 -0.557454)
(-0.730686 0.339716 -0.593251)
(-0.753593 0.182689 -0.473885)
(-0.745891 0.177603 -0.495449)
(-0.704702 0.0822283 -0.360409)
(-0.726878 0.0840156 -0.362191)
(-0.701081 0.062213 -0.348579)
(-0.698082 0.0148457 -0.364289)
(-0.716856 0.0241583 -0.426185)
(-0.731892 0.070646 -0.390809)
(-0.709474 0.0121907 -0.363771)
(-0.677923 -0.00984792 -0.323913)
(-0.733379 0.120469 -0.507855)
(-0.751697 0.15093 -0.476284)
(-0.726301 0.03189 -0.418484)
(-0.753629 0.100541 -0.495697)
(-0.686112 0.183131 -0.635639)
(-0.651565 0.224479 -0.624861)
(-0.630903 0.153981 -0.625637)
(-0.644052 0.120084 -0.624989)
(-0.459277 0.209968 -0.623101)
(-0.4925 0.157599 -0.634285)
(-0.652355 0.224746 -0.627544)
(-0.620255 0.124049 -0.640756)
(-0.495851 0.196669 -0.62727)
(-0.527787 0.14853 -0.647519)
(-0.526255 0.0907776 -0.649672)
(-0.590211 0.293665 -0.605202)
(-0.64971 0.295743 -0.638945)
(-0.602924 0.293475 -0.633956)
(-0.531842 0.28298 -0.639556)
(-0.681009 0.175732 -0.633219)
(-0.608638 0.226062 -0.634331)
(-0.529471 0.158713 -0.642587)
(-0.437901 0.582874 -0.796648)
(-0.42362 0.587331 -0.800471)
(-0.448213 0.584559 -0.803959)
(-0.407827 0.625641 -0.909262)
(-0.421682 0.657897 -0.963684)
(-0.394827 0.631193 -0.925115)
(-0.415627 0.642005 -0.934429)
(-0.436406 0.613424 -0.896448)
(-0.421377 0.645095 -0.887442)
(-0.391149 0.578227 -0.855616)
(-0.417497 0.622098 -0.92028)
(-0.413103 0.587859 -0.872779)
(-0.38001 0.397197 -0.26023)
(-0.375348 0.388593 -0.253952)
(-0.408437 0.40912 -0.286164)
(-0.377342 0.415875 -0.293946)
(-0.406351 0.4058 -0.290058)
(-0.405015 0.435427 -0.389084)
(-0.396223 0.441938 -0.390866)
(-0.410137 0.430467 -0.343308)
(-0.40845 0.430749 -0.380689)
(-0.39021 0.40206 -0.265163)
(-0.369826 0.417223 -0.280231)
(-0.361473 0.393652 -0.260499)
(-0.381684 0.437149 -0.359549)
(-0.375473 0.415354 -0.289572)
(-0.384823 0.426541 -0.306662)
(-0.53894 0.468461 -0.853338)
(-0.522526 0.453692 -0.835937)
(-0.496057 0.40211 -0.713869)
(-0.499437 0.420322 -0.743351)
(-0.518645 0.436686 -0.805646)
(-0.524904 0.43554 -0.804404)
(-0.498801 0.411453 -0.738236)
(-0.503649 0.390654 -0.71955)
(-0.540743 0.452641 -0.851246)
(-0.536585 0.439985 -0.838373)
(-0.520972 0.406102 -0.742765)
(-0.545736 0.417934 -0.765647)
(-0.521794 0.39227 -0.714769)
(-0.56916 0.465982 -0.845987)
(-0.540809 0.459726 -0.781362)
(-0.524315 0.431602 -0.783675)
(-0.52744 0.423132 -0.780205)
(-0.706488 0.237562 -0.426387)
(-0.664934 0.429709 -0.605394)
(-0.66268 0.437593 -0.608596)
(-0.697407 0.376016 -0.575741)
(-0.666969 0.340561 -0.469626)
(-0.674701 0.285497 -0.364681)
(-0.656237 0.30246 -0.385778)
(-0.668613 0.371591 -0.522689)
(-0.659503 0.369401 -0.49304)
(-0.660546 0.350078 -0.477484)
(-0.298201 0.546277 -0.803927)
(-0.272633 0.517816 -0.795883)
(-0.219043 0.582022 -0.895962)
(-0.232224 0.569863 -0.881073)
(-0.233026 0.469145 -0.753706)
(-0.220841 0.606057 -0.939896)
(-0.272286 0.580732 -0.832038)
(-0.230333 0.517231 -0.78792)
(-0.270363 0.540786 -0.802323)
(-0.275267 0.50897 -0.759828)
(-0.257105 0.417703 -0.675495)
(-0.206782 0.443278 -0.742161)
(-0.221819 0.566754 -0.864591)
(-0.213068 0.578513 -0.934983)
(-0.228165 0.594098 -0.950151)
(-0.196652 0.484898 -0.814987)
(-0.209581 0.503646 -0.840768)
(-0.204442 0.525987 -0.853047)
(-0.255565 0.632332 -1.01094)
(-0.206756 0.491115 -0.820458)
(-0.249469 0.600329 -0.972735)
(-0.352741 0.50915 -0.860808)
(-0.399366 0.536164 -0.933275)
(-0.379819 0.539755 -0.939216)
(-0.371888 0.498684 -0.865257)
(-0.398105 0.524913 -0.92207)
(-0.394069 0.536525 -0.954027)
(-0.396699 0.542193 -0.951023)
(-0.326036 0.535818 -0.875993)
(-0.321251 0.540077 -0.882077)
(-0.335703 0.528756 -0.835885)
(-0.399228 0.532365 -0.946577)
(-0.389425 0.522028 -0.906708)
(-0.359223 0.523268 -0.858841)
(-0.33411 0.532853 -0.864881)
(-0.338495 0.522526 -0.859424)
(-0.390544 0.526742 -0.911173)
(-0.359766 0.530981 -0.875152)
(-0.367012 0.518376 -0.884905)
(-0.261516 0.523466 -0.868617)
(-0.247995 0.550489 -0.863783)
(-0.264077 0.545488 -0.913235)
(-0.217005 0.591726 -0.896356)
(-0.218399 0.577762 -0.902109)
(-0.202217 0.578655 -0.861975)
(-0.203753 0.576291 -0.85491)
(-0.223174 0.538068 -0.809334)
(-0.222348 0.548912 -0.811382)
(-0.19603 0.570245 -0.825798)
(-0.199102 0.575822 -0.804273)
(-0.250302 0.50917 -0.810492)
(-0.250848 0.537098 -0.875596)
(-0.213275 0.575405 -0.900661)
(-0.202548 0.550858 -0.805555)
(-0.236678 0.51371 -0.83674)
(-0.224637 0.54785 -0.871759)
(-0.218274 0.532009 -0.824116)
(-0.275177 0.48487 -0.790218)
(-0.257034 0.471605 -0.761086)
(-0.277916 0.473792 -0.779983)
(-0.280266 0.497912 -0.810597)
(-0.28385 0.494459 -0.838605)
(-0.296746 0.496711 -0.826301)
(-0.302594 0.579499 -0.949948)
(-0.317021 0.54934 -0.963402)
(-0.310743 0.553905 -0.952347)
(-0.284154 0.531067 -0.882459)
(-0.288882 0.541431 -0.916345)
(-0.270313 0.55218 -0.937242)
(-0.259211 0.545807 -0.92978)
(-0.303337 0.557464 -0.939529)
(-0.529071 0.31771 -0.294746)
(-0.500794 0.274991 -0.23762)
(-0.5501 0.349781 -0.337438)
(-0.5107 0.310578 -0.246213)
(-0.504333 0.363422 -0.305463)
(-0.561143 0.407907 -0.434718)
(-0.521108 0.319986 -0.277714)
(-0.531892 0.353632 -0.342257)
(-0.493842 0.299108 -0.241953)
(-0.507689 0.398683 -0.412864)
(-0.510997 0.347374 -0.318984)
(-0.538297 0.379838 -0.400827)
(-0.488509 0.329538 -0.273966)
(-0.478666 0.310435 -0.257531)
(-0.144593 0.564732 -0.697997)
(-0.154476 0.601885 -0.81482)
(-0.10862 0.60609 -0.700514)
(-0.169735 0.577977 -0.792598)
(-0.165377 0.553666 -0.733038)
(-0.13612 0.597178 -0.768243)
(-0.134757 0.583927 -0.748817)
(-0.1114 0.612283 -0.727609)
(-0.740446 0.402599 -0.632463)
(-0.755368 0.377549 -0.613889)
(-0.754633 0.357843 -0.563022)
(-0.736236 0.324484 -0.519094)
(-0.743478 0.376187 -0.57108)
(-0.753098 0.291605 -0.501156)
(-0.769804 0.294293 -0.557187)
(-0.769841 0.258203 -0.529146)
(-0.758635 0.312997 -0.6102)
(-0.767331 0.262639 -0.484614)
(-0.754522 0.179213 -0.422928)
(-0.739765 0.22816 -0.40902)
(-0.769367 0.251957 -0.540741)
(-0.793256 0.237339 -0.513249)
(-0.769702 0.23958 -0.529392)
(-0.352227 0.501001 -0.555844)
(-0.333639 0.472999 -0.520946)
(-0.39476 0.441574 -0.457898)
(-0.383779 0.470054 -0.549433)
(-0.398497 0.421061 -0.436709)
(-0.408728 0.401577 -0.377499)
(-0.340642 0.495591 -0.583894)
(-0.367065 0.440518 -0.423699)
(-0.336051 0.421067 -0.386093)
(-0.359385 0.416993 -0.325881)
(-0.345719 0.430287 -0.373521)
(-0.3897 0.379751 -0.293204)
(-0.403431 0.356909 -0.269749)
(-0.371493 0.43821 -0.438263)
(-0.346049 0.414959 -0.383358)
(-0.355239 0.416814 -0.358085)
(-0.366172 0.408514 -0.32299)
(-0.384285 0.371432 -0.275928)
(-0.368296 0.388523 -0.290289)
(-0.312887 0.521389 -0.477103)
(-0.309028 0.486291 -0.523202)
(-0.291808 0.528902 -0.535892)
(-0.319327 0.482605 -0.509573)
(-0.300888 0.501718 -0.569438)
(-0.31742 0.485391 -0.57769)
(-0.336678 0.472102 -0.531784)
(-0.316094 0.49608 -0.536702)
(-0.287798 0.516987 -0.509821)
(-0.301067 0.526543 -0.474566)
(-0.299839 0.511436 -0.484324)
(-0.293688 0.519387 -0.471994)
(-0.301184 0.512 -0.56415)
(-0.324977 0.497919 -0.496351)
(-0.297747 0.52384 -0.51505)
(-0.280202 0.539742 -0.503979)
(-0.222488 0.576185 -0.583131)
(-0.205489 0.575402 -0.52078)
(-0.222328 0.595415 -0.515662)
(-0.240794 0.562835 -0.580294)
(-0.232097 0.568177 -0.541388)
(-0.247622 0.564767 -0.562618)
(-0.215331 0.566837 -0.538967)
(-0.206388 0.529878 -0.472335)
(-0.228343 0.540398 -0.470333)
(-0.242089 0.559411 -0.508741)
(-0.236949 0.56994 -0.50332)
(-0.226442 0.574727 -0.474073)
(-0.207807 0.517394 -0.438066)
(-0.272179 0.508171 -0.304615)
(-0.26914 0.49364 -0.365476)
(-0.232172 0.440642 -0.510622)
(-0.248626 0.446461 -0.495846)
(-0.262808 0.4678 -0.423945)
(-0.594528 0.0897751 -0.591744)
(-0.569863 0.0322456 -0.589199)
(-0.548236 0.0813536 -0.598449)
(-0.59151 -0.0601044 -0.504806)
(-0.551282 -0.0558153 -0.543292)
(-0.565587 -0.0617057 -0.477541)
(-0.597296 -0.0208418 -0.503313)
(-0.536492 -0.0660461 -0.476554)
(-0.515054 -0.097534 -0.44163)
(-0.488626 -0.0716659 -0.502335)
(-0.487619 -0.115526 -0.44747)
(-0.496527 -0.0935593 -0.488034)
(-0.506977 -0.0732531 -0.526299)
(-0.539487 0.0508631 -0.602467)
(-0.522279 -0.0420259 -0.52118)
(-0.310438 0.498992 -0.412448)
(-0.276768 0.504966 -0.409376)
(-0.302561 0.496666 -0.463124)
(-0.289019 0.524312 -0.444357)
(-0.298053 0.46995 -0.521498)
(-0.295125 0.477722 -0.522004)
(-0.288965 0.513349 -0.434142)
(-0.302359 0.516459 -0.422467)
(-0.27316 0.523892 -0.435713)
(-0.307038 0.497634 -0.491731)
(-0.299004 0.511722 -0.451152)
(-0.328064 0.475118 -0.493962)
(-0.31981 0.500316 -0.461182)
(-0.356819 0.481784 -0.563437)
(-0.369314 0.477202 -0.56665)
(-0.249446 0.584012 -0.806169)
(-0.247559 0.605949 -0.862598)
(-0.322912 0.552804 -0.689082)
(-0.336137 0.482108 -0.613043)
(-0.339354 0.521568 -0.670351)
(-0.347857 0.487159 -0.610664)
(-0.343458 0.496496 -0.592301)
(-0.281806 0.561533 -0.777204)
(-0.288932 0.538699 -0.728273)
(-0.28732 0.580772 -0.800496)
(-0.278455 0.611188 -0.85326)
(-0.316609 0.528857 -0.731743)
(-0.296094 0.570134 -0.794558)
(-0.287714 0.589108 -0.766551)
(-0.29223 0.525137 -0.650141)
(-0.28499 0.538949 -0.72916)
(-0.363471 0.0565048 -0.597323)
(-0.353382 -0.00190711 -0.589104)
(-0.387431 0.12447 -0.625682)
(-0.433935 0.1081 -0.648347)
(-0.294999 0.0280918 -0.560645)
(-0.287656 -0.0362544 -0.548961)
(-0.430063 0.043113 -0.624899)
(-0.284526 0.0398439 -0.55121)
(-0.289902 0.0819688 -0.574761)
(-0.304988 -0.0318046 -0.530905)
(-0.391194 0.0291325 -0.595496)
(-0.4293 0.421352 -0.567042)
(-0.420545 0.435039 -0.593494)
(-0.414371 0.418097 -0.584)
(-0.456775 0.420854 -0.615996)
(-0.449238 0.424646 -0.638554)
(-0.443467 0.413548 -0.607148)
(-0.401587 0.380024 -0.535954)
(-0.416978 0.41539 -0.53616)
(-0.400406 0.391945 -0.518083)
(-0.456255 0.424208 -0.630527)
(-0.423937 0.403526 -0.572022)
(-0.411883 0.388208 -0.533358)
(-0.42757 0.413265 -0.549662)
(-0.469552 0.413857 -0.656604)
(-0.469152 0.412724 -0.63493)
(-0.456081 0.423701 -0.612919)
(-0.436608 0.397807 -0.568807)
(-0.469743 0.41235 -0.636581)
(-0.470606 0.410037 -0.628976)
(-0.467068 0.405786 -0.599972)
(-0.608443 0.330478 -0.775023)
(-0.62958 0.358451 -0.83558)
(-0.601785 0.337103 -0.793833)
(-0.594408 0.314027 -0.758492)
(-0.603398 0.349299 -0.782896)
(-0.591322 0.329493 -0.752313)
(-0.602094 0.328818 -0.736267)
(-0.588018 0.295432 -0.706686)
(-0.635318 0.417377 -0.911102)
(-0.633403 0.408371 -0.887214)
(-0.637712 0.391102 -0.886923)
(-0.593202 0.358156 -0.797319)
(-0.599396 0.366866 -0.820131)
(-0.602593 0.329098 -0.741385)
(-0.603967 0.348207 -0.783772)
(-0.572638 0.341899 -0.777308)
(-0.612214 0.409817 -0.896897)
(-0.617086 0.394232 -0.86891)
(-0.596273 0.395421 -0.850142)
(-0.614723 0.386688 -0.860128)
(-0.612034 0.438778 -0.916215)
(-0.608002 0.405895 -0.875725)
(-0.608251 0.414519 -0.886078)
(-0.600437 0.413859 -0.8772)
(-0.742701 -0.0665015 -0.453591)
(-0.708611 -0.129095 -0.431259)
(-0.774942 -0.0179096 -0.477374)
(-0.770828 0.0138183 -0.467818)
(-0.733209 -0.0292414 -0.568161)
(-0.705055 -0.119396 -0.48667)
(-0.715165 -0.132032 -0.429367)
(-0.720805 -0.0911905 -0.430667)
(-0.703848 -0.0222535 -0.579359)
(-0.677613 -0.118926 -0.504838)
(-0.665725 -0.136753 -0.471316)
(-0.637082 -0.15677 -0.426021)
(-0.770647 0.0208256 -0.553018)
(-0.741964 0.0768548 -0.573948)
(-0.665721 -0.116884 -0.500002)
(-0.677776 -0.123094 -0.450697)
(-0.776716 0.00514651 -0.479178)
(-0.718868 -0.104963 -0.434319)
(-0.704341 -0.00650475 -0.571482)
(-0.74685 0.0437073 -0.564586)
(-0.228735 0.19098 -0.427679)
(-0.217283 0.16077 -0.396245)
(-0.239188 0.20027 -0.435748)
(-0.208035 0.147323 -0.376131)
(-0.198199 0.129769 -0.397128)
(-0.187457 0.124341 -0.36044)
(-0.239732 0.194987 -0.469402)
(-0.244315 0.208041 -0.491314)
(-0.242495 0.215631 -0.499861)
(-0.202881 0.148649 -0.405431)
(-0.273448 0.276295 -0.576234)
(-0.250733 0.248901 -0.529916)
(-0.201919 0.149068 -0.392487)
(-0.263819 0.228177 -0.490663)
(-0.256405 0.246161 -0.477293)
(-0.277328 0.272093 -0.537995)
(-0.254067 0.232667 -0.512887)
(-0.240939 0.207629 -0.438497)
(-0.530164 0.460745 -0.885832)
(-0.494575 0.453216 -0.866124)
(-0.54874 0.427407 -0.881101)
(-0.53866 0.4543 -0.894321)
(-0.532278 0.384532 -0.795555)
(-0.533715 0.389634 -0.769278)
(-0.561004 0.454324 -0.915867)
(-0.490527 0.420913 -0.83244)
(-0.470339 0.404534 -0.767812)
(-0.503736 0.377581 -0.734079)
(-0.49945 0.330224 -0.652104)
(-0.520904 0.411138 -0.803919)
(-0.517294 0.365707 -0.716621)
(-0.495378 0.368449 -0.703881)
(-0.474764 0.375313 -0.710684)
(-0.545606 0.41784 -0.855351)
(-0.495801 0.396754 -0.78174)
(-0.547063 0.361244 -0.753718)
(-0.524828 0.353508 -0.72214)
(-0.517322 0.375265 -0.72619)
(-0.49499 0.363401 -0.37761)
(-0.515764 0.398478 -0.438905)
(-0.471144 0.350101 -0.311568)
(-0.527182 0.38918 -0.447008)
(-0.495573 0.354268 -0.337826)
(-0.467679 0.29541 -0.275067)
(-0.515623 0.316746 -0.304658)
(-0.5069 0.269701 -0.257669)
(-0.548429 0.322374 -0.341768)
(-0.548749 0.309756 -0.294582)
(-0.54076 0.40915 -0.445783)
(-0.548785 0.406473 -0.440573)
(-0.491262 0.29812 -0.260625)
(-0.575667 0.35866 -0.422823)
(-0.550845 0.336014 -0.333206)
(-0.641156 -0.167679 -0.466437)
(-0.603868 -0.205942 -0.463263)
(-0.632655 0.221706 -0.340264)
(-0.609627 0.238318 -0.36152)
(-0.205788 -0.0422926 -0.412277)
(-0.25001 -0.0639291 -0.464365)
(-0.219189 -0.0551658 -0.413012)
(-0.271291 -0.0877483 -0.462092)
(-0.374568 0.21116 -0.435636)
(-0.341974 0.214346 -0.42339)
(-0.327697 0.186788 -0.398519)
(-0.496942 0.266349 -0.401358)
(-0.501312 0.270582 -0.389371)
(-0.590867 0.299994 -0.728688)
(-0.57234 0.294071 -0.716219)
(-0.71171 -0.0617602 -0.362854)
(-0.743721 0.0111163 -0.353285)