/*--------------------------------*- C++ -*----------------------------------*\
| =========                 |                                                 |
| \\      /  F ield         | OpenFOAM: The Open Source CFD Toolbox           |
|  \\    /   O peration     | Version:  v1612+                                |
|   \\  /    A nd           | Web:      www.OpenFOAM.com                      |
|    \\/     M anipulation  |                                                 |
\*---------------------------------------------------------------------------*/
FoamFile
{
    version     2.0;
    format      ascii;
    class       surfaceScalarField;
    location    "118";
    object      phi;
}
// * * * * * * * * * * * * * * * * * * * * * * * * * * * * * * * * * * * * * //

dimensions      [0 3 -1 0 0 0 0];

internalField   nonuniform List<scalar> 
45509
(
3.17513e-09
-2.80924e-09
5.75238e-11
-4.23416e-10
4.63835e-09
-1.94319e-09
-3.96467e-09
1.26952e-09
4.21911e-10
-1.02035e-09
-2.90585e-09
3.50428e-09
8.01746e-09
-1.02388e-08
2.78353e-09
-5.62179e-10
-1.09866e-08
1.07235e-08
8.28062e-09
-3.33358e-09
3.46189e-09
1.10163e-09
-1.22995e-09
3.71214e-09
-6.3638e-09
4.66294e-09
-2.01128e-09
-2.2119e-09
3.93835e-09
-2.31516e-10
-1.49493e-09
-1.48055e-09
4.32922e-09
3.11387e-09
-5.96255e-09
-8.14712e-09
-3.81265e-09
1.05078e-08
1.45194e-09
-5.11178e-09
5.73692e-09
-3.75599e-09
3.13086e-09
-3.90205e-10
1.72867e-09
-1.50466e-09
1.66197e-10
-1.26724e-09
4.04058e-10
-3.55771e-09
4.42089e-09
-3.12603e-09
-1.06416e-09
3.941e-09
2.49192e-10
6.70297e-09
-3.80893e-09
-9.9427e-09
7.04866e-09
-5.16039e-09
6.02621e-10
6.28454e-09
-1.72677e-09
5.87682e-09
-2.30686e-09
-2.22345e-09
-1.34651e-09
2.06025e-09
2.11639e-09
-4.76525e-10
-3.7001e-09
2.04237e-09
-3.11344e-09
1.19751e-09
-1.26445e-10
1.38434e-10
2.99515e-09
-2.98546e-09
-1.48102e-10
1.75524e-09
-3.37173e-09
-4.46528e-10
2.06302e-09
-2.94727e-09
3.19227e-09
5.24532e-09
-5.49033e-09
2.98394e-09
-6.70708e-09
8.23576e-09
-4.51263e-09
1.40246e-08
-4.17376e-09
-6.86692e-09
-3.74408e-09
-3.52774e-09
-6.2009e-10
7.8919e-09
4.16437e-09
-6.27387e-09
5.31555e-09
-1.45016e-09
5.36726e-09
-1.59115e-09
-2.32593e-09
8.59804e-09
-2.73397e-10
-1.44922e-09
-6.87541e-09
-8.18434e-09
1.04738e-09
-5.45859e-11
7.19156e-09
-4.54891e-09
2.74652e-09
-3.74396e-09
5.54634e-09
4.94626e-09
-5.83607e-10
-3.28812e-09
-1.07454e-09
5.9693e-09
-6.10738e-09
-3.37043e-09
3.5085e-09
-5.68863e-09
6.01238e-09
-2.53743e-10
-7.00019e-11
2.50915e-10
-2.13727e-09
-1.9658e-11
2.84809e-09
-3.93937e-09
1.22168e-09
-1.30424e-10
6.37719e-09
-8.65917e-09
-1.50313e-09
3.78511e-09
-3.41179e-09
1.08975e-09
4.09523e-09
-1.7732e-09
8.69723e-09
-1.00776e-09
-2.06336e-09
-5.62611e-09
1.95832e-09
-5.3697e-09
2.33316e-09
1.07824e-09
1.36947e-09
-2.1724e-09
9.76548e-10
-1.73632e-10
-4.6853e-09
-1.44613e-09
3.59979e-09
2.53164e-09
-1.84658e-09
2.76833e-09
1.92633e-09
-3.96398e-09
7.55401e-10
5.50998e-09
-2.3014e-09
2.98011e-09
4.16251e-09
-7.03121e-09
-1.11421e-10
-3.99643e-10
-8.10365e-09
7.7199e-09
7.83397e-10
-1.54185e-09
-3.0084e-09
-3.64302e-10
4.91456e-09
-6.60556e-10
9.90834e-09
-9.02064e-09
-2.27122e-10
2.35135e-09
2.46933e-09
5.56118e-09
-1.03819e-08
6.73609e-09
-2.98796e-09
-2.83662e-09
-9.11508e-10
1.35989e-09
-4.62056e-09
2.0258e-09
1.2349e-09
-2.68884e-09
-3.04737e-09
4.2436e-09
1.4926e-09
-1.49375e-09
3.52547e-09
-2.68493e-10
-1.7632e-09
5.87658e-10
-2.7673e-09
2.90824e-09
-7.2859e-10
1.40428e-09
-1.53489e-09
1.43911e-09
-1.30848e-09
2.47518e-10
-3.40486e-09
6.59794e-09
-3.44058e-09
-5.79784e-09
2.6981e-09
5.67889e-09
-2.57915e-09
-7.09516e-09
1.22741e-08
2.6713e-09
-7.85027e-09
-4.9764e-09
5.71279e-09
-3.08917e-09
2.3528e-09
1.48631e-09
-2.8113e-09
-8.48468e-10
2.17341e-09
8.59609e-10
-3.51415e-09
-3.33713e-09
5.99168e-09
2.94205e-09
-1.23187e-08
2.72839e-09
6.64826e-09
-2.47994e-09
-2.11799e-09
8.77581e-10
3.72034e-09
-5.34765e-09
-5.57491e-10
2.17142e-09
3.73372e-09
8.22494e-09
-6.26179e-09
-4.12642e-09
2.16326e-09
-3.60749e-09
6.47711e-09
-2.99052e-09
1.2089e-10
2.01544e-09
2.61644e-09
-4.67106e-09
3.91815e-11
-2.6586e-09
-9.13532e-09
1.12647e-08
5.29199e-10
6.28035e-09
-6.81076e-09
3.28194e-10
2.02215e-10
7.99922e-09
-4.31621e-09
7.34943e-10
-4.41795e-09
8.03624e-09
-9.68775e-09
-3.12656e-09
4.77807e-09
6.98138e-10
2.03136e-09
-2.687e-09
-4.25076e-11
1.33305e-09
-7.43478e-09
3.16609e-09
2.93564e-09
-2.20468e-09
-2.44507e-09
4.59171e-09
5.80409e-11
5.27017e-09
-3.5016e-09
-1.73685e-09
-3.17159e-11
3.23969e-09
-1.29899e-09
-1.82413e-09
-1.16568e-10
2.55799e-09
1.08616e-09
2.8417e-09
-6.48587e-09
-4.64067e-09
1.43528e-09
2.83463e-09
3.70735e-10
1.43433e-09
-3.19242e-09
7.17731e-09
-5.41923e-09
1.90175e-09
-2.26205e-09
4.18379e-09
-3.82349e-09
5.40113e-09
-3.53643e-09
1.68426e-10
-2.03312e-09
-4.32001e-09
2.65949e-09
-2.61033e-09
4.27084e-09
6.98312e-10
3.4117e-09
-4.20553e-09
9.55156e-11
-4.10084e-09
3.55585e-09
6.08375e-10
-6.3379e-11
3.93413e-09
-4.49063e-09
-3.54435e-09
-3.08335e-09
2.47599e-09
6.9375e-10
-8.6394e-11
1.03548e-09
-6.52935e-09
2.41052e-09
5.34753e-09
-3.93533e-09
-1.49152e-09
7.93113e-11
1.41004e-09
8.63883e-09
-9.86228e-09
-1.86587e-10
-4.51243e-09
-1.33048e-09
3.32195e-09
2.52096e-09
3.40906e-09
-7.76632e-10
-2.55628e-09
-7.61476e-11
3.42505e-09
-6.82998e-09
1.58656e-09
1.81836e-09
3.94058e-09
2.08276e-09
-6.01482e-09
-8.52708e-12
3.6154e-10
-6.31914e-10
-4.04965e-09
7.02216e-09
-1.00298e-09
-3.09211e-09
-2.92707e-09
-2.03776e-09
1.90045e-09
-3.8084e-09
3.94571e-09
-5.5729e-10
2.79854e-09
-2.60184e-09
3.60588e-10
-7.34567e-09
-1.50748e-09
7.51938e-10
-3.91831e-09
3.38359e-09
-2.17213e-10
-4.06007e-09
-1.65318e-09
5.61587e-09
9.73623e-11
-8.54198e-09
5.57659e-09
4.60971e-09
-1.64431e-09
-4.66311e-09
4.77191e-09
-3.07571e-09
2.96691e-09
-6.46517e-09
6.98098e-11
1.73225e-09
-2.97249e-09
2.89528e-09
2.21529e-10
-1.44325e-10
-4.33695e-09
7.79221e-09
-3.93598e-09
4.8072e-10
-7.88785e-11
-4.97375e-09
7.62354e-11
4.25551e-09
-1.41788e-09
1.5198e-09
-4.35743e-09
-3.38899e-09
-6.56157e-09
2.4331e-09
7.51745e-09
1.37255e-10
4.48699e-09
-4.74293e-09
1.18693e-10
7.44485e-09
-7.10489e-09
5.48087e-09
-5.82082e-09
1.3592e-09
2.22473e-09
1.78078e-09
-5.36471e-09
-2.04777e-09
2.10914e-09
9.87084e-09
6.3428e-09
-2.88494e-09
2.91931e-09
-1.06607e-09
-1.95934e-09
4.27394e-09
-1.24852e-09
1.68848e-09
3.35332e-09
2.40307e-09
-8.11072e-09
-7.55818e-09
4.7764e-09
1.08925e-08
4.11628e-09
-1.64105e-12
3.16441e-09
-2.60987e-09
-5.89951e-10
3.54201e-11
-2.8764e-09
1.98866e-09
-2.00376e-10
1.08813e-09
-1.50991e-09
-1.60029e-09
-1.21281e-09
4.32303e-09
6.11784e-09
-7.90589e-09
-3.60016e-09
5.38822e-09
1.00794e-08
5.86957e-10
-4.54847e-09
1.51633e-09
2.97691e-09
-3.00692e-09
6.92112e-10
-1.22812e-09
6.59347e-09
-6.05746e-09
-4.18804e-09
5.90512e-09
-6.00166e-09
4.28459e-09
4.06688e-10
-2.35372e-09
2.04979e-09
-1.02752e-10
1.27968e-09
-2.03139e-09
2.19351e-09
-1.44186e-09
5.22894e-09
-6.68939e-11
-6.20226e-09
1.04021e-09
-2.24415e-09
-7.08215e-10
2.98705e-09
-3.46819e-11
4.49894e-09
-1.87738e-09
-2.19038e-09
-4.31178e-10
-4.31652e-09
1.14988e-09
3.15287e-09
1.37865e-11
8.14702e-10
-2.9935e-09
3.86495e-09
-1.68616e-09
-1.05374e-09
-4.80273e-09
4.63631e-09
1.22014e-09
-5.25027e-09
6.8164e-09
-4.21863e-09
2.6525e-09
1.80126e-09
-2.38486e-09
4.40619e-09
-3.82259e-09
-2.49222e-09
-6.10271e-10
2.91665e-09
1.85843e-10
6.08794e-09
-4.70657e-09
3.13571e-10
-1.69495e-09
2.98728e-09
-2.32961e-09
-4.79594e-10
-1.78086e-10
-3.92981e-09
9.20065e-09
-5.3773e-09
1.06463e-10
2.92694e-09
-2.46421e-09
-6.85631e-10
2.22896e-10
-2.81157e-09
1.44054e-09
3.50216e-09
-2.13114e-09
1.09852e-09
-1.40146e-09
-1.50318e-09
1.80608e-09
8.77079e-09
2.35181e-09
-5.3445e-09
-5.77809e-09
1.08926e-09
2.68641e-09
-3.75309e-09
-2.25788e-11
4.73881e-09
-4.41996e-09
-7.66452e-09
-9.00279e-10
2.24608e-09
-1.3696e-09
2.37933e-11
2.85302e-10
1.9162e-09
2.21848e-09
-4.41998e-09
-3.6583e-09
-2.01288e-10
1.57001e-09
2.28957e-09
4.84611e-11
3.95562e-09
2.77162e-09
-6.77571e-09
9.1774e-10
-3.99767e-09
3.19921e-09
-1.19279e-10
-2.24627e-10
2.38695e-09
3.5855e-09
2.57603e-10
6.74672e-10
5.43991e-09
-6.37218e-09
4.58914e-09
1.0566e-09
-5.38813e-09
-3.90261e-09
-2.15257e-09
-1.33248e-09
7.38767e-09
1.75804e-09
7.30252e-10
-2.37936e-09
-1.08928e-10
-9.99543e-10
-6.5827e-09
6.62601e-09
9.56233e-10
5.90087e-09
3.89764e-09
-3.71102e-09
-6.08749e-09
-8.99928e-09
4.9244e-09
3.46992e-09
6.04953e-10
-1.71586e-09
-5.01138e-09
-2.27203e-09
4.37193e-09
5.43194e-09
-4.3612e-09
-5.44267e-09
1.01857e-09
-3.30847e-09
2.47047e-09
-1.80572e-10
7.91369e-09
-5.65311e-09
-5.25298e-09
2.9924e-09
1.18539e-09
3.9256e-09
-4.72645e-10
-6.77855e-09
-3.58271e-09
1.84435e-09
8.51691e-09
-3.53968e-09
5.13558e-09
1.10049e-09
-2.69639e-09
7.81425e-09
2.09828e-11
-2.21822e-09
-5.61699e-09
6.55469e-09
-2.18351e-09
1.24408e-09
-5.61525e-09
1.38563e-09
-4.74073e-09
-7.01711e-10
4.05682e-09
-3.53199e-09
5.04678e-09
-4.67231e-09
3.15753e-09
2.35627e-09
-4.28462e-09
2.24179e-09
-3.13449e-10
-1.61281e-09
-4.96127e-09
2.292e-09
4.28209e-09
4.04655e-09
-7.19083e-10
2.6012e-10
-3.58759e-09
4.7306e-09
4.04959e-09
-9.23474e-09
4.54546e-10
-4.68793e-09
5.19697e-10
-3.48524e-09
-6.24572e-09
7.00804e-09
4.18393e-09
3.48027e-09
2.14701e-09
-4.25172e-09
-1.37556e-09
-1.64193e-09
4.87502e-09
-3.23361e-09
5.16045e-13
1.38278e-09
-4.05518e-09
2.46409e-09
2.08306e-10
-8.86108e-09
3.8143e-09
5.09523e-09
-1.32999e-09
5.33549e-09
-4.06437e-09
5.88733e-11
-2.65946e-09
2.8241e-09
1.82604e-09
-1.99067e-09
-4.25401e-09
1.71202e-09
-1.17472e-10
2.55817e-09
5.33584e-09
-3.73062e-09
-4.16339e-09
-3.36615e-09
6.12632e-09
-3.90188e-09
1.14172e-09
5.32007e-09
-3.15088e-09
-1.27985e-09
-8.89319e-10
7.3872e-09
4.96337e-09
-1.03082e-08
4.14261e-09
-3.55442e-10
3.60004e-09
-5.19772e-09
2.35499e-09
5.69577e-10
2.27316e-09
4.79495e-09
-5.46823e-09
3.66408e-09
-2.99081e-09
1.02262e-08
-7.46667e-09
-6.37771e-09
3.61815e-09
5.18363e-09
6.20025e-09
2.36105e-09
1.51122e-09
1.31138e-09
-9.69682e-10
5.61555e-09
-5.75571e-09
1.10985e-09
-1.90752e-09
-9.82447e-10
7.83905e-11
1.41199e-10
2.92076e-09
5.13018e-09
-8.19214e-09
2.54669e-09
1.37643e-09
1.27747e-09
6.08826e-09
-3.6848e-09
-2.60564e-09
2.0217e-10
3.25557e-09
2.515e-10
8.76073e-10
-4.38314e-09
3.59642e-09
-4.44552e-09
-1.20569e-10
6.29111e-09
-3.21992e-09
2.77384e-09
-5.84503e-09
2.68079e-09
5.79751e-09
-3.99727e-09
-4.48101e-09
-2.00928e-09
-1.25758e-09
3.21766e-09
4.92072e-11
8.76105e-09
-5.47014e-09
-3.85359e-10
-2.90556e-09
7.14253e-09
-1.12631e-09
1.75907e-09
-7.7753e-09
3.0262e-09
-2.09989e-09
-1.02621e-09
9.99118e-11
-3.67848e-10
-2.18623e-09
2.45928e-09
9.48012e-11
-2.09223e-09
-1.80865e-09
-4.81301e-09
8.71389e-09
-4.61363e-09
4.8525e-09
-3.45776e-10
1.06927e-10
-6.44207e-09
5.97263e-09
-1.94964e-09
2.41909e-09
6.16059e-09
-1.55598e-09
2.27638e-09
4.02532e-09
-3.312e-09
-5.83675e-10
-1.29652e-10
-3.26898e-09
1.49204e-09
4.11604e-09
-2.3391e-09
-5.91647e-09
4.96689e-09
-5.63781e-09
6.58739e-09
3.88348e-10
2.81578e-09
-1.6349e-09
-1.56922e-09
1.29352e-09
1.05052e-09
-2.22518e-09
-1.1886e-10
2.50154e-09
5.55208e-09
-2.80863e-09
-5.24498e-09
-6.74285e-10
-1.93654e-09
5.22693e-09
-2.6161e-09
-1.76917e-09
-1.6961e-09
3.47521e-09
-9.93893e-12
-1.74629e-09
1.5872e-09
2.66063e-09
-3.87304e-09
4.73903e-09
-1.37119e-09
5.05193e-10
-5.45124e-10
4.6648e-09
1.07577e-09
-5.19544e-09
-4.96916e-09
-4.56502e-09
3.92093e-09
5.61325e-09
4.11756e-09
-6.55253e-09
2.5451e-09
-1.10139e-10
6.2136e-10
-3.43896e-09
2.96898e-09
-1.51375e-10
1.28152e-09
-8.42655e-09
4.63514e-09
2.50988e-09
-6.15726e-09
4.54365e-09
-1.03927e-08
1.20063e-08
1.13373e-09
-2.34898e-09
7.56714e-09
-6.3519e-09
-1.58106e-09
2.57423e-09
1.40558e-10
-3.46639e-09
1.76236e-09
1.2298e-10
-3.61819e-09
-3.27907e-09
1.90173e-10
3.01372e-09
2.47272e-09
8.56353e-10
-8.76559e-09
5.84111e-09
4.20599e-09
-5.15071e-09
5.16178e-09
3.30786e-09
-3.31893e-09
-1.52444e-09
-2.04328e-09
1.37887e-10
3.42984e-09
7.91388e-10
1.64687e-09
-2.46843e-09
3.02407e-11
9.52161e-10
-2.59834e-09
-2.93988e-09
4.58606e-09
-3.33222e-09
5.24673e-09
-1.20669e-08
1.01524e-08
6.41226e-10
1.9525e-09
2.89793e-09
-5.49166e-09
2.53562e-09
-3.57586e-09
1.68147e-09
-6.09025e-09
5.6648e-09
-5.60379e-09
6.02925e-09
3.4773e-09
-1.97088e-09
-7.82782e-09
6.3214e-09
-5.11015e-09
-3.89006e-09
8.7989e-09
2.01301e-10
5.85086e-09
-7.48477e-09
-2.9714e-09
4.60533e-09
-9.15493e-10
-6.58734e-09
5.26235e-09
2.24048e-09
1.45128e-09
-3.22163e-10
-9.89628e-10
-1.39491e-10
2.08651e-09
-4.01877e-09
6.60898e-09
-4.67672e-09
-4.434e-10
-2.23053e-09
2.639e-09
3.49328e-11
2.65202e-09
-3.02291e-09
-4.99959e-09
5.37048e-09
1.80426e-09
-6.37737e-09
1.62584e-09
-4.71572e-09
-2.50525e-09
-1.94613e-09
9.1671e-09
-2.1545e-09
1.21398e-09
1.14599e-09
-2.05471e-10
3.90601e-09
-1.37513e-09
-3.63599e-09
1.10512e-09
-7.59679e-09
-2.4194e-09
2.43334e-09
7.58284e-09
3.29556e-09
1.976e-09
-3.73693e-09
-1.53465e-09
-1.78744e-09
-8.19165e-10
2.53026e-09
7.63375e-11
-4.93245e-09
2.83844e-09
-2.26011e-09
4.35412e-09
2.91329e-09
-3.9631e-09
1.167e-09
-1.17209e-10
6.23918e-09
-2.72977e-09
-5.98671e-09
2.4773e-09
-3.51402e-09
4.64733e-09
-3.4141e-09
2.2808e-09
-2.95831e-09
1.53133e-09
-3.21584e-09
4.64282e-09
-2.34274e-09
5.71339e-09
1.24726e-09
-4.61789e-09
3.32236e-09
8.5724e-09
-5.79604e-09
-6.09872e-09
-2.90504e-09
9.45472e-09
-3.22731e-09
-8.70436e-10
-2.7787e-09
3.69586e-09
-4.67251e-11
1.09988e-08
7.75198e-10
-5.749e-09
-6.02497e-09
-4.19602e-09
1.29058e-09
-1.88311e-09
4.78855e-09
2.35606e-09
4.22384e-09
-5.2667e-09
-1.3132e-09
-4.81096e-10
2.06244e-09
5.33891e-09
-6.92025e-09
3.26057e-09
-4.87561e-09
-3.53566e-09
3.82851e-09
-2.90391e-09
-9.89157e-10
6.45644e-11
2.42199e-09
1.3911e-09
-3.73186e-09
-8.12374e-11
2.78745e-09
2.66397e-09
6.10805e-10
-6.06223e-09
6.4687e-09
-2.77155e-09
-3.79296e-09
9.58139e-11
2.87957e-09
3.67032e-09
-8.11875e-11
1.66e-09
-1.39314e-09
-3.3059e-09
3.03908e-09
3.41536e-09
-4.15862e-09
6.99055e-10
4.41943e-11
2.3606e-09
-2.08214e-10
-2.90908e-09
1.57366e-10
-1.51652e-10
2.90336e-09
2.15769e-09
-1.61026e-09
-6.44261e-10
9.68359e-11
1.6271e-09
4.51048e-09
-9.98371e-09
3.84613e-09
-3.3375e-09
-8.53172e-10
4.32103e-09
-1.30349e-10
4.58414e-09
-5.95883e-09
-2.67236e-10
-1.76284e-09
1.81669e-09
9.17131e-11
-1.45575e-10
-6.05169e-09
4.91095e-09
-1.27682e-09
2.41755e-09
-1.39672e-09
4.51103e-09
-2.26149e-09
-8.5283e-10
-1.12224e-09
5.81793e-09
-1.06549e-10
-6.64869e-09
2.06116e-09
4.62211e-09
-3.45698e-11
-3.61392e-09
-1.92644e-09
5.47444e-09
6.59185e-11
-3.49397e-10
-3.24342e-09
5.83227e-09
-2.23946e-09
-3.13659e-09
-5.50922e-10
-5.71064e-09
9.39816e-09
-4.26815e-10
-2.36723e-09
2.93943e-09
-1.4539e-10
-6.0645e-09
2.27159e-09
3.86007e-09
-6.71518e-11
5.30688e-09
9.81143e-10
-3.73015e-09
-2.55788e-09
3.36384e-09
3.29403e-09
-6.45872e-09
-1.9915e-10
5.50406e-09
-7.80104e-09
-4.00675e-09
6.30374e-09
-5.18644e-09
4.64026e-09
2.69019e-09
-2.14396e-09
4.9737e-09
-5.82793e-10
-4.90336e-09
5.1245e-10
-5.07693e-09
-2.13061e-09
5.33336e-09
1.87418e-09
-3.69773e-09
-3.85902e-09
2.80233e-09
4.75443e-09
3.32863e-09
-3.55855e-09
2.99788e-10
-6.98635e-11
2.52233e-09
-5.49521e-09
3.14356e-09
-1.70691e-10
-2.57874e-09
4.53055e-09
-2.2113e-09
2.59493e-10
-1.28108e-09
3.93102e-09
-2.83614e-09
1.86199e-10
-3.50934e-09
-6.46943e-10
5.95166e-10
3.56112e-09
-2.41313e-09
1.80977e-09
4.56678e-10
1.46681e-10
-2.81395e-09
3.35753e-09
-8.71747e-10
3.28162e-10
-4.25701e-09
3.81772e-09
-2.00594e-09
2.44523e-09
4.61631e-09
-5.81071e-10
-8.96189e-10
-3.13906e-09
3.94965e-09
-1.9831e-09
-1.15185e-09
3.10817e-10
1.71278e-09
-1.86612e-09
-1.57481e-10
-1.45062e-09
-2.48984e-09
3.87218e-09
6.82989e-11
2.52003e-09
-3.81133e-09
-1.59299e-10
-4.15987e-09
-4.13368e-09
9.02613e-10
7.39095e-09
4.63686e-10
4.83796e-09
-2.35159e-09
-2.95006e-09
2.0244e-09
1.11549e-09
-3.23472e-09
9.4818e-11
-7.45942e-09
9.83862e-10
-8.82737e-10
4.71689e-09
-3.72023e-09
-1.22085e-09
2.24194e-10
-1.73293e-09
-3.93933e-09
5.39369e-09
2.78568e-10
9.05927e-10
3.87895e-09
-2.88193e-09
-1.90296e-09
-3.83653e-09
-4.18557e-09
2.76e-09
5.2621e-09
4.14655e-09
-3.11032e-09
-4.40239e-09
1.50907e-09
2.43462e-09
1.73871e-10
-6.18033e-09
5.53462e-10
-1.40282e-09
7.02969e-09
2.20473e-09
-3.16326e-09
3.14876e-09
-2.19023e-09
-2.28714e-09
2.92245e-09
-4.76475e-11
2.7954e-09
-3.51197e-09
8.57244e-10
-1.40676e-10
-4.89023e-09
8.40227e-09
2.91024e-09
-6.42228e-09
5.52285e-09
-5.29288e-09
-1.68155e-10
-6.18215e-11
8.80708e-09
-9.16931e-09
1.45661e-09
-1.09439e-09
-2.15194e-09
-1.08943e-10
-3.16507e-09
5.42593e-09
-2.09196e-09
-5.11471e-09
5.94918e-09
1.25749e-09
-1.07764e-08
9.77726e-09
-1.95797e-09
2.95713e-09
4.91743e-09
-8.36198e-09
8.69325e-09
-5.24869e-09
2.48302e-09
5.87411e-09
-3.4397e-09
1.93592e-09
-1.54009e-09
-5.40235e-09
5.00652e-09
-1.63633e-09
2.05639e-09
-4.92579e-10
7.25031e-11
-4.81442e-09
-2.39238e-09
1.56153e-09
5.6453e-09
2.94243e-09
4.59703e-10
-3.49357e-09
9.14585e-11
-9.42753e-10
-3.34708e-09
3.73387e-10
-4.27269e-09
-3.99053e-09
9.59389e-09
-1.33065e-09
2.00077e-09
-1.78031e-09
-4.21498e-10
2.0099e-10
-3.11991e-09
4.0021e-09
-8.3778e-10
-4.44035e-11
5.17414e-09
-1.93522e-09
-3.41943e-09
1.80523e-10
-4.43091e-09
1.48788e-09
3.0345e-09
-9.14565e-11
-3.18796e-09
6.32842e-09
-2.28086e-09
1.66048e-09
6.20457e-09
-3.13445e-09
-2.0123e-09
1.04928e-09
1.12051e-09
-1.57488e-10
3.85754e-09
-4.58573e-09
-4.91966e-09
5.64784e-09
-1.96887e-09
4.72346e-09
-2.85726e-09
1.02655e-10
3.84094e-09
2.76436e-09
-1.20637e-09
-5.39894e-09
3.99532e-09
1.64418e-09
6.29211e-10
-6.2687e-09
2.63014e-09
9.72993e-09
-8.21747e-09
-2.49014e-09
-4.83881e-10
7.02263e-09
-4.04862e-09
-2.05566e-09
-3.44608e-09
3.01162e-09
-5.12761e-09
2.43231e-09
2.6993e-09
-3.99001e-12
4.48534e-09
2.27097e-09
-2.70975e-09
-4.83311e-09
5.83003e-09
1.88475e-10
-5.95009e-09
9.52648e-10
1.53529e-09
3.46215e-09
5.08844e-09
-7.07753e-09
1.86557e-09
1.23524e-10
4.97384e-09
4.29945e-09
-4.39824e-09
-4.87506e-09
3.41416e-09
-3.76086e-09
4.57298e-09
-4.22627e-09
-5.50728e-09
3.11312e-09
2.39323e-09
9.26443e-13
-6.39214e-09
-4.08357e-09
3.13368e-09
7.34202e-09
-6.1831e-09
6.39333e-09
3.95234e-10
-6.05464e-10
6.21623e-09
7.83104e-09
-6.44057e-09
-7.6067e-09
-7.60184e-09
-5.30179e-09
6.83558e-09
6.06804e-09
3.96234e-09
-9.35388e-09
5.45407e-09
-6.25186e-11
-3.16669e-09
1.47865e-09
1.66716e-09
2.08725e-11
7.97898e-09
2.71638e-09
-7.02332e-09
-3.67205e-09
-4.94248e-09
4.07756e-10
4.59167e-09
-5.69613e-11
4.3026e-09
-6.55488e-09
2.67676e-09
-4.24486e-10
2.10095e-09
-5.21481e-09
-1.04192e-09
4.15578e-09
2.3777e-09
4.27709e-09
-6.67629e-09
2.15005e-11
2.0203e-09
-5.71177e-09
3.76589e-09
-7.44112e-11
4.24747e-09
-6.75447e-09
2.3571e-09
1.49914e-10
-4.68964e-09
6.29282e-09
1.92168e-09
-3.52485e-09
-3.10329e-09
3.7e-09
-7.41205e-10
1.445e-10
4.59612e-09
-2.6871e-09
-1.40122e-10
-1.76889e-09
-2.47949e-09
1.50849e-09
6.06344e-09
-5.09244e-09
-2.38999e-09
-5.08714e-11
-2.16236e-09
5.21763e-09
-2.63478e-09
-2.60462e-09
2.1778e-11
-7.86807e-11
4.75513e-09
4.59538e-10
-5.13598e-09
3.41611e-09
5.3169e-10
-4.19979e-09
2.51982e-10
-1.44844e-09
2.84615e-09
-3.35107e-09
3.9566e-10
-4.86111e-09
3.3973e-09
1.06815e-09
-2.61701e-10
2.47031e-09
8.69923e-09
-5.67046e-09
-4.52488e-09
1.4961e-09
-4.5642e-09
-4.40152e-09
3.80532e-09
-2.30467e-09
2.82617e-09
-5.07238e-10
-1.42649e-11
-8.1578e-10
2.92005e-09
-2.13054e-09
2.63115e-11
5.20976e-09
-2.50973e-09
-2.62224e-09
-7.77798e-11
8.38086e-10
1.93147e-09
-2.60852e-09
-1.61028e-10
-4.25887e-09
1.88015e-09
7.34596e-09
-4.96723e-09
1.21958e-09
1.74392e-09
3.362e-10
4.16096e-09
-4.57426e-09
2.43416e-09
-2.02086e-09
-2.74598e-09
-3.59275e-09
5.38065e-09
9.58104e-10
-1.71653e-09
-9.14598e-10
2.68764e-09
-5.651e-11
4.2329e-09
-2.60886e-09
-4.67071e-09
3.04666e-09
1.51068e-09
-3.22628e-09
3.46983e-09
-1.75423e-09
2.59518e-09
-4.67647e-09
2.07914e-09
2.14721e-12
-1.13063e-09
1.68473e-09
2.4124e-09
-2.96649e-09
2.72087e-09
-2.17194e-09
-5.82103e-10
3.31888e-11
-1.17022e-09
-2.61001e-09
3.62467e-09
1.55564e-10
-4.21235e-09
-2.86779e-09
2.41811e-09
4.66203e-09
-3.18404e-09
-6.71426e-09
4.02104e-09
5.87727e-09
-3.2904e-09
-7.26567e-10
-3.79279e-09
7.80976e-09
2.45051e-09
-4.42317e-09
2.18783e-09
-2.15181e-10
-1.80226e-09
4.96518e-09
-1.37794e-09
-1.78498e-09
-4.05263e-09
2.98701e-09
9.40673e-10
1.24955e-10
3.25864e-09
-2.83008e-09
1.91938e-09
-2.34794e-09
-3.12233e-09
5.63232e-10
3.25723e-09
6.35255e-09
-2.69946e-09
5.90413e-11
-8.19161e-09
1.15775e-08
7.78514e-10
-1.31298e-09
3.80544e-09
-3.48246e-09
9.89995e-10
2.75157e-09
5.60294e-09
-3.80188e-09
-4.55263e-09
3.38894e-10
-3.65051e-09
4.65036e-09
-1.33874e-09
-6.59188e-10
3.29587e-09
-1.28404e-09
-1.35267e-09
2.79042e-09
-1.41172e-09
-1.43846e-09
5.97542e-11
3.01135e-09
-2.88754e-09
-7.69421e-11
-4.68674e-11
4.73728e-09
4.22315e-09
-6.3235e-09
-2.63694e-09
-8.30036e-09
2.35956e-09
5.82593e-09
1.14875e-10
2.52417e-09
-1.17182e-09
6.00163e-10
-2.73389e-09
1.41829e-09
7.74967e-09
-6.43408e-09
2.91019e-09
-5.48831e-09
-1.5577e-10
-3.82476e-09
1.80069e-09
-2.79031e-09
2.34426e-09
1.86569e-09
-7.53574e-09
3.32579e-09
-7.21488e-10
2.74858e-09
-2.05395e-09
2.68563e-11
-2.43577e-09
3.91574e-09
-2.34192e-09
8.61942e-10
3.1277e-09
-1.36937e-09
-1.9492e-09
1.90897e-10
-3.9055e-09
3.07505e-09
8.07592e-10
2.2858e-11
-4.81531e-09
5.76494e-09
-3.44185e-09
-3.42863e-10
3.75159e-09
-3.57448e-09
1.65745e-10
3.82359e-09
1.66923e-09
-3.80434e-09
5.59087e-09
6.42899e-09
-8.19628e-09
5.42084e-09
-3.75219e-09
2.8078e-10
-1.94943e-09
-3.43471e-09
1.58699e-09
-1.81799e-09
3.6657e-09
2.40816e-09
2.26206e-09
-1.5651e-10
-1.9973e-09
-3.40974e-09
5.23939e-09
1.6765e-10
-4.53359e-09
6.84677e-11
1.24851e-09
-2.35574e-09
-4.26165e-09
5.36887e-09
2.59404e-09
1.53999e-09
-3.93022e-09
-2.03812e-10
5.54243e-10
3.10736e-10
4.10872e-09
2.35756e-09
2.90987e-09
-5.23266e-09
-3.47761e-11
3.16187e-09
-1.82297e-09
-1.3895e-09
5.05936e-11
1.52299e-09
-3.65995e-09
2.07991e-09
5.70578e-11
5.02067e-10
-1.88566e-09
5.60437e-09
-4.22079e-09
3.91623e-09
2.77468e-09
-7.66046e-09
9.69552e-10
-2.53974e-09
-2.79014e-09
-4.77909e-09
1.0109e-08
-4.12558e-09
2.35699e-09
-4.06663e-09
5.83523e-09
3.20067e-09
-5.2639e-09
2.08286e-09
-1.96364e-11
-2.53909e-09
6.57076e-11
4.36543e-09
-1.83389e-09
-4.45019e-10
1.46162e-09
2.24772e-09
-3.65927e-10
-3.34341e-09
3.0301e-09
-5.10293e-09
-1.09631e-09
3.16916e-09
7.24789e-09
-1.9082e-09
1.64369e-10
-3.53724e-09
-1.93874e-09
-2.32507e-09
-3.89079e-09
2.68714e-09
1.09735e-09
1.06346e-10
-2.94703e-09
-6.97976e-09
5.58984e-09
-8.41091e-10
-4.07367e-09
-2.25928e-09
1.71134e-09
-8.85696e-11
4.86043e-10
5.95642e-10
-3.38636e-09
-2.00782e-09
4.94944e-09
-2.94756e-09
5.95654e-12
-2.41112e-09
2.87071e-09
-5.2901e-11
2.83827e-09
-4.57002e-09
4.09707e-09
-2.36532e-09
3.01814e-10
-2.30904e-09
1.93142e-09
7.5831e-11
3.07115e-09
1.0859e-09
-3.97219e-09
-1.84863e-10
3.56814e-09
-8.30858e-10
-2.65231e-09
-8.49609e-11
-2.83821e-09
1.01277e-09
1.87858e-09
-5.31303e-11
4.07727e-09
-4.90597e-09
-2.267e-09
3.09571e-09
-3.47063e-09
-2.40984e-09
5.71659e-09
1.63881e-10
1.74687e-09
2.53556e-09
-4.25723e-09
-2.52052e-11
7.07585e-10
-8.67408e-10
-1.35001e-09
1.1517e-09
3.35827e-10
3.14529e-09
2.59581e-09
1.33735e-09
-5.79199e-09
1.85882e-09
1.09597e-09
-1.97157e-09
-1.98202e-09
2.8576e-09
1.29934e-09
-3.90778e-09
-1.13233e-09
3.74076e-09
2.50294e-09
-1.95901e-09
-6.12146e-10
6.82197e-11
-1.4772e-09
1.80651e-09
-1.8499e-11
1.78099e-09
9.64594e-10
5.31432e-12
-1.53252e-09
3.47669e-09
-1.69664e-09
-5.87616e-11
2.97489e-09
-3.06967e-09
1.53549e-10
1.44958e-09
-4.65378e-09
2.0062e-09
1.19804e-09
4.98445e-10
2.36705e-09
-2.87903e-09
1.35366e-11
-7.3366e-10
1.63808e-09
5.45172e-10
2.67914e-09
-2.91689e-09
5.62909e-10
-3.2516e-10
1.89694e-09
-3.50013e-09
-1.11516e-09
2.71838e-09
-3.29525e-09
7.7113e-10
2.69259e-09
-1.68474e-10
3.37697e-09
-5.25165e-10
-5.64073e-11
3.01162e-09
7.36697e-10
-3.32213e-10
-2.35188e-09
-3.08791e-09
3.28786e-09
1.63526e-09
-4.67425e-09
-3.44227e-09
6.48125e-09
3.7955e-09
-3.91816e-09
-1.37227e-09
2.79022e-09
6.16812e-10
-2.03476e-09
5.74249e-09
-4.17345e-09
-3.78094e-09
2.47432e-09
-4.21726e-09
1.66401e-09
7.89336e-11
-2.77705e-09
4.4591e-09
-1.86502e-09
1.82961e-10
-1.23737e-09
2.19838e-09
-5.50806e-11
3.11374e-09
-1.64109e-09
-3.25455e-09
1.7819e-09
-1.65564e-09
-1.77001e-09
3.28109e-09
1.44548e-10
1.61991e-09
3.69122e-09
-1.3998e-09
-3.91135e-09
5.5679e-09
-2.22251e-09
-1.32784e-09
-2.01755e-09
-3.00255e-09
2.68058e-09
4.6448e-09
-4.32283e-09
8.41222e-10
-3.03251e-09
4.6243e-09
-2.433e-09
-4.15937e-09
-2.61559e-09
5.29417e-09
1.48078e-09
6.56837e-10
-3.31526e-09
2.53527e-09
1.23171e-10
3.87086e-10
1.97063e-09
-2.28997e-09
-6.7699e-11
-2.9065e-09
-6.90095e-09
5.18021e-09
4.62724e-09
-1.04354e-09
-1.19441e-10
4.41983e-09
-1.95987e-09
-9.45371e-12
1.09107e-09
3.39836e-09
-4.32147e-09
-1.67954e-10
8.4737e-10
-5.11891e-10
4.6092e-09
-4.94467e-09
2.83861e-10
2.4531e-09
1.09828e-11
-2.74795e-09
5.4072e-09
-6.00975e-09
2.46812e-09
-1.86557e-09
1.43689e-09
-2.65455e-09
-1.79071e-10
-4.91739e-09
2.18315e-09
2.73517e-09
-9.31813e-13
-1.33075e-09
3.40063e-09
-6.75953e-09
-1.98727e-09
5.59774e-09
3.53206e-09
1.51777e-09
-2.54169e-09
-1.02388e-10
1.16601e-09
-1.08853e-09
3.36141e-09
-3.43888e-09
2.36229e-09
-2.66792e-09
5.63163e-10
-2.57529e-10
-3.06201e-09
7.9331e-10
-1.42423e-10
4.32354e-09
2.27536e-09
-3.12298e-09
-3.47593e-09
5.66628e-09
-3.55395e-09
1.04954e-09
3.56829e-09
-2.23743e-09
1.9212e-10
1.56272e-09
-3.42197e-09
3.62696e-11
1.11296e-09
6.01624e-09
1.54471e-09
4.3446e-09
-6.80481e-09
-5.04848e-10
1.80068e-09
-2.85438e-09
1.55854e-09
1.07656e-09
-3.51944e-09
-1.16486e-09
3.60773e-09
-3.24077e-09
1.72739e-11
4.92509e-09
4.57457e-09
-3.97682e-09
1.7207e-09
-2.5758e-09
8.68146e-10
-1.30542e-11
1.69888e-09
-3.03375e-09
2.19148e-11
5.44147e-09
-9.05595e-10
-4.83259e-09
2.96725e-10
3.62381e-09
-4.25401e-09
4.17703e-09
-3.54681e-09
2.8307e-09
3.29908e-09
-6.51372e-09
3.83943e-10
-1.13247e-08
6.66495e-09
-6.01146e-09
-3.41151e-09
-6.49745e-09
4.87643e-09
1.497e-09
1.24013e-10
3.81871e-09
-3.58134e-10
-3.379e-09
-8.15737e-11
-4.7539e-09
-3.84665e-09
3.0019e-10
3.58784e-09
1.15569e-08
-6.53674e-09
-8.60797e-09
8.69104e-09
-4.37303e-09
1.53286e-09
-4.74926e-09
6.15241e-09
9.31527e-10
-2.33468e-09
-2.47787e-09
5.38374e-09
-3.19744e-09
2.91571e-10
-1.19818e-09
-4.70474e-10
1.61211e-09
5.65563e-11
-1.92721e-09
1.23281e-09
7.22523e-10
-2.81074e-11
7.4226e-10
1.81619e-09
-2.46186e-09
-9.65729e-11
-2.35456e-09
5.89883e-09
-7.13552e-09
3.59125e-09
1.01886e-09
9.54889e-10
-1.82991e-09
-1.43838e-10
4.92862e-09
1.1344e-09
-1.62148e-10
2.06897e-09
6.11009e-10
2.24864e-09
1.24403e-09
3.56676e-09
-4.85464e-09
4.38666e-11
-2.4543e-09
6.82333e-09
-3.29209e-09
-1.07693e-09
2.11313e-09
-6.76866e-09
-1.39617e-09
1.01448e-09
4.36237e-09
-5.32241e-09
-5.44484e-11
2.71515e-09
-5.58587e-09
-1.55244e-09
-3.51117e-09
5.53823e-09
6.88078e-10
-1.64943e-09
2.40499e-09
-2.36859e-10
2.13896e-09
-1.93422e-09
3.21666e-11
5.50769e-10
-2.71382e-09
2.21546e-09
-5.23879e-11
-2.66053e-09
-3.22105e-09
5.68893e-09
1.92646e-10
4.65729e-09
-2.28719e-09
-2.60073e-09
2.30629e-10
1.74832e-09
-8.04535e-09
2.39154e-09
1.05794e-09
-2.75043e-09
-9.49623e-11
-6.87423e-10
-1.53805e-09
-1.07662e-09
3.30209e-09
3.88239e-09
-3.40119e-09
-1.66499e-09
1.18378e-09
4.35296e-09
-8.05028e-09
-2.32502e-10
-2.72437e-09
-3.71065e-10
3.04393e-09
5.15009e-11
3.91056e-10
-9.2356e-09
3.68664e-09
5.15791e-09
-5.1184e-09
5.03622e-09
2.13047e-09
-2.0483e-09
-1.37279e-09
2.49625e-09
-9.65177e-10
-1.58284e-10
4.2508e-09
-2.52766e-09
-1.77757e-09
5.44139e-11
-2.34422e-09
1.12536e-09
-1.53938e-10
2.89074e-09
-5.87323e-09
3.12015e-09
-1.37666e-10
4.18953e-09
-7.47802e-09
7.83741e-09
-4.54892e-09
-7.72728e-09
4.51726e-09
-4.79075e-09
8.00077e-09
-1.88266e-09
2.84798e-09
3.03001e-09
2.43543e-10
-1.70609e-09
1.47592e-09
-1.33735e-11
-4.15395e-09
1.24867e-09
2.78862e-09
1.16672e-10
2.03426e-09
-1.81995e-09
2.37602e-09
-2.59033e-09
-3.14884e-09
-7.99795e-10
4.04223e-09
-9.35935e-11
-7.39752e-09
3.88128e-09
1.04855e-08
-6.96927e-09
-6.32467e-09
3.3403e-09
3.07786e-09
-9.34928e-11
4.36542e-09
-1.88155e-09
5.17589e-11
-7.053e-10
3.75233e-09
-3.06284e-09
1.58044e-11
-1.04913e-09
-2.08621e-09
2.50951e-09
6.2585e-10
-2.15749e-09
1.92981e-09
3.50551e-10
-1.22856e-10
1.59693e-09
-3.41742e-10
-8.91782e-11
-1.64414e-09
-5.18519e-09
1.65566e-09
-3.69077e-09
2.04288e-09
-7.75775e-12
3.11373e-09
-6.73237e-10
-3.26147e-09
4.61945e-10
2.74049e-09
5.90484e-11
-1.8224e-09
-1.7025e-09
-3.12377e-09
7.08172e-10
2.70221e-09
-3.51475e-09
1.04364e-10
8.62873e-10
-7.12608e-10
4.12268e-09
-4.27293e-09
2.37565e-09
-6.65028e-09
-4.26736e-09
6.10661e-10
2.98728e-09
-3.44074e-09
-1.57201e-10
1.23551e-09
-3.54411e-09
-4.08561e-09
6.39424e-09
5.12441e-09
8.09318e-10
-2.80602e-09
-4.29655e-09
3.385e-09
7.84425e-10
1.27125e-10
4.6764e-10
-9.07004e-11
2.14723e-09
-3.11944e-09
3.27022e-09
-2.31447e-10
8.06735e-11
-4.27186e-09
6.14122e-09
1.51822e-09
-3.38757e-09
5.69788e-09
-3.12992e-09
5.51414e-10
-3.11937e-09
-1.32506e-09
1.31428e-09
2.43814e-09
-2.42736e-09
-3.7356e-09
7.22878e-09
-2.87387e-09
-6.19313e-10
3.49092e-09
-5.89696e-09
2.57882e-09
-1.72789e-10
3.90353e-09
8.16937e-09
-5.94658e-09
-1.51607e-09
5.08266e-09
1.75348e-09
-5.07662e-09
-4.61706e-09
5.43968e-09
-1.21062e-09
4.97313e-09
3.49061e-09
-7.25312e-09
1.66912e-10
5.45177e-09
-2.37063e-10
-5.38159e-09
-3.03228e-09
3.18018e-09
1.90377e-11
2.29071e-09
-1.0731e-08
1.83042e-09
6.60983e-09
3.62542e-09
-5.50805e-09
2.89312e-09
-1.01048e-09
-6.55131e-09
1.23642e-08
-1.05807e-08
4.76782e-09
5.4167e-09
-1.83672e-09
-1.01269e-08
6.54692e-09
-2.55075e-09
3.05486e-09
-6.87354e-10
1.83231e-10
-1.12184e-09
3.75732e-09
-2.74849e-09
1.12995e-10
-3.42818e-09
-1.44719e-09
9.31964e-09
-4.44426e-09
-5.83704e-09
-4.45053e-09
8.41267e-09
1.87491e-09
-4.90655e-09
1.18429e-08
-1.70188e-09
-5.23448e-09
-9.08091e-09
1.79897e-09
3.31256e-09
3.96939e-09
-1.21645e-08
1.03088e-08
-4.86627e-09
6.72193e-09
-4.5109e-09
3.57018e-09
-1.11591e-09
2.05663e-09
-2.29615e-09
-7.76875e-10
4.33735e-09
-1.26433e-09
6.13566e-09
4.12293e-09
1.97668e-09
-1.22353e-08
-4.78174e-09
-8.64796e-09
1.01007e-08