/*--------------------------------*- C++ -*----------------------------------*\
| =========                 |                                                 |
| \\      /  F ield         | OpenFOAM: The Open Source CFD Toolbox           |
|  \\    /   O peration     | Version:  v1612+                                |
|   \\  /    A nd           | Web:      www.OpenFOAM.com                      |
|    \\/     M anipulation  |                                                 |
\*---------------------------------------------------------------------------*/
FoamFile
{
    version     2.0;
    format      ascii;
    class       surfaceScalarField;
    location    "239";
    object      phi;
}
// * * * * * * * * * * * * * * * * * * * * * * * * * * * * * * * * * * * * * //

dimensions      [0 3 -1 0 0 0 0];

internalField   nonuniform List<scalar> 
37455
(
-1.0025e-08
-5.85126e-09
6.73156e-09
9.14472e-09
4.01938e-10
-5.88301e-09
-1.73603e-10
5.65467e-09
2.82926e-10
-3.39672e-09
4.32832e-09
-1.21452e-09
-8.81798e-09
2.27904e-09
1.11877e-09
5.42017e-09
-3.49397e-09
-1.45385e-09
3.08396e-09
1.86386e-09
3.91058e-09
-1.971e-09
2.59561e-09
-1.38879e-10
-3.9954e-09
9.64556e-10
1.47942e-09
1.55142e-09
3.04737e-09
-1.89257e-09
6.16784e-09
-1.11703e-11
-3.1093e-09
3.11948e-09
4.01292e-09
2.181e-09
1.83756e-09
2.72581e-09
5.24371e-09
-2.61012e-09
-2.64476e-09
5.04094e-10
7.8591e-09
3.68908e-09
-6.4996e-10
-4.43515e-10
6.03074e-09
3.61585e-09
-8.68093e-09
7.80368e-10
4.28471e-09
3.66669e-09
-5.31099e-09
5.26015e-09
4.35185e-09
5.77963e-09
-2.6419e-09
-7.48958e-09
2.94958e-09
-7.27867e-09
2.07827e-09
-7.24936e-09
2.78811e-09
2.38298e-09
1.06348e-09
-3.63632e-09
4.6511e-09
7.34167e-09
-2.6115e-09
3.20717e-09
3.35283e-09
-2.22887e-09
-1.32536e-10
3.56467e-09
-1.62607e-09
-6.02986e-09
4.09126e-09
-2.18888e-09
-1.49581e-09
-5.87127e-09
5.44212e-09
4.58604e-09
-8.854e-09
-3.47412e-09
-1.0177e-08
-1.18533e-09
5.51528e-09
5.84704e-09
-1.9289e-09
-4.20701e-09
-4.04108e-09
-1.36342e-08
6.54177e-09
5.90706e-09
4.36139e-11
5.6636e-09
-1.91927e-10
5.55522e-09
-4.9286e-09
-2.55553e-09
-5.26018e-09
6.68491e-09
4.1305e-09
5.49307e-09
-3.85426e-09
-6.56742e-09
4.23857e-10
-1.90967e-10
-4.77842e-10
6.12019e-09
-5.43344e-09
-2.0891e-10
-4.33011e-09
-1.99377e-12
5.34083e-09
5.90246e-09
-5.1231e-09
5.92585e-09
-1.61158e-10
-6.07536e-09
5.61074e-09
6.39047e-09
-8.46803e-10
6.73901e-10
-2.2421e-10
6.95273e-09
-1.60618e-11
5.40259e-09
5.74996e-09
4.4958e-10
-7.04634e-09
-7.42557e-09
-5.5544e-09
4.16199e-09
-6.12041e-10
-6.85561e-09
2.78232e-09
4.68533e-09
-8.19246e-09
1.36636e-09
-5.99476e-10
-5.81413e-09
6.36607e-10
5.33387e-09
-1.56346e-10
7.61999e-09
8.60216e-10
-3.95896e-09
-4.52125e-09
5.39282e-09
-8.41213e-09
-5.17316e-09
-1.47762e-10
-1.38136e-11
3.89249e-09
-4.44047e-09
-5.26615e-09
-6.09086e-12
3.75081e-09
-6.59731e-09
1.95647e-09
4.0288e-09
-5.10609e-10
-1.05272e-08
-6.80633e-09
-2.02578e-09
3.6651e-10
8.4656e-09
-6.83031e-09
1.03872e-09
-1.01474e-09
-6.74809e-09
-1.23622e-09
5.95853e-09
1.08028e-09
-4.63957e-09
-3.18881e-09
-3.9693e-09
-1.78072e-09
-5.15005e-09
-1.36097e-09
6.87753e-09
-4.79875e-09
6.87425e-10
-6.17925e-09
6.87918e-10
4.25511e-09
-1.84109e-09
-2.96349e-09
-1.37467e-09
-4.71943e-11
-3.74027e-09
3.5996e-09
1.8786e-10
-4.09622e-09
7.97302e-11
-1.37142e-09
5.9843e-09
-6.05292e-09
-1.77246e-09
4.93164e-09
-5.322e-09
6.37466e-09
-2.94236e-09
-4.6607e-09
4.25858e-09
4.97646e-11
-1.24892e-09
-3.97221e-09
-1.30002e-09
-2.5688e-09
-1.01579e-09
-5.74693e-09
6.24819e-09
5.14534e-10
-6.15267e-09
6.18977e-09
-1.05289e-09
-3.73818e-09
-1.22807e-09
-7.80688e-10
-2.85649e-09
-7.03437e-09
-2.67805e-09
1.32417e-09
7.60206e-09
-9.78005e-12
3.5215e-09
4.27889e-09
-9.21139e-09
2.07601e-09
2.24569e-09
-5.24675e-09
2.99128e-09
-2.89899e-09
4.22446e-09
3.68702e-09
-5.01249e-09
1.6619e-09
-4.33002e-09
-2.30865e-10
1.59023e-09
-4.57989e-09
5.23535e-09
7.13886e-09
2.95942e-09
-3.92728e-09
4.14377e-11
1.43081e-09
-7.34213e-09
1.82539e-09
4.08593e-09
-8.1262e-09
3.38075e-09
6.17626e-09
2.67622e-10
-4.37014e-09
-4.02368e-09
-3.71022e-09
-3.36429e-09
6.25475e-10
-3.42774e-09
4.62765e-09
-4.0825e-09
8.08872e-09
-9.36243e-09
5.41251e-09
-4.02796e-09
7.97788e-09
5.02384e-10
-5.72612e-09
-4.13869e-09
-1.92873e-09
6.74142e-09
-4.50246e-09
-3.10227e-10
-4.65648e-09
-1.6424e-09
-5.61256e-09
8.27148e-09
-6.32407e-09
8.30883e-09
-3.27642e-09
-2.54527e-09
-4.25504e-09
-1.80017e-09
2.02725e-09
-5.84944e-09
-4.13173e-09
-3.82952e-09
3.64043e-09
-4.31337e-09
-1.41153e-09
-3.35255e-09
-3.63408e-09
-3.79162e-09
1.2981e-09
6.93342e-10
-2.39584e-09
-6.74026e-10
-7.31448e-09
3.17296e-09
8.6102e-10
3.2805e-09
4.22277e-09
-3.48477e-09
-8.05248e-09
-4.48888e-09
-2.63597e-09
3.00329e-09
4.12156e-09
1.18649e-09
-3.43689e-09
-2.23848e-09
-8.20059e-09
8.32796e-09
3.04559e-09
-2.79133e-09
5.02081e-09
-2.67433e-09
2.14838e-09
-4.49486e-09
2.86378e-09
3.01805e-09
-2.47018e-09
3.3687e-09
1.96527e-09
-3.40239e-09
1.62255e-09
-6.90337e-10
2.75646e-09
-1.5731e-09
-4.62025e-09
7.5664e-10
-6.36155e-10
-7.73221e-09
-4.97374e-10
3.19858e-09
4.24118e-09
-1.88934e-09
-5.55042e-09
6.61867e-10
6.58788e-09
-4.05117e-09
2.97188e-09
5.47343e-09
-2.11535e-09
-6.32996e-09
7.31717e-09
-3.68342e-09
-3.08362e-09
5.9706e-09
3.70091e-09
1.58679e-09
-4.29232e-10
-3.08608e-09
-8.4982e-10
3.8499e-09
8.60015e-11
-3.77046e-09
1.42742e-09
-7.43036e-10
-1.63334e-09
7.92972e-09
-8.22947e-10
9.41636e-09
-3.73253e-09
3.78133e-09
-7.78602e-09
-2.23387e-09
5.01955e-11
-1.0962e-09
6.21698e-09
-6.33487e-10
1.75386e-09
-9.40976e-09
8.28939e-09
4.37872e-09
-4.2916e-09
-3.13001e-09
3.04289e-09
7.68667e-09
1.08973e-08
-1.95226e-09
-4.56632e-09
-2.74414e-09
-3.14937e-09
-9.1606e-09
1.19405e-08
3.69438e-10
-1.13481e-08
1.19744e-08
-3.77569e-09
9.65501e-10
1.40802e-09
-1.37217e-08
1.86811e-09
-1.00632e-08
-9.23079e-09
-1.78019e-09
1.40404e-09
9.60694e-09
-7.86159e-09
2.08792e-10
-1.57799e-09
-8.5462e-10
1.10489e-08
1.23807e-09
9.84785e-09
-8.21693e-09
1.76336e-09
-8.85871e-09
-9.90066e-10
1.12528e-08
-7.50584e-09
-1.14407e-09
8.72688e-09
-8.15547e-09
1.2967e-09
-7.09409e-09
8.51598e-09
-8.92774e-09
4.50392e-09
1.7546e-09
-1.33526e-08
-7.96974e-09
8.21774e-09
5.26105e-09
-1.48772e-08
5.38871e-09
4.90048e-09
4.58805e-09
-2.63739e-09
9.74093e-10
-1.32139e-08
1.3949e-08
-3.73846e-10
-1.62126e-08
7.89396e-09
-6.609e-10
-6.25896e-09
6.63126e-09
6.65141e-09
-7.61426e-09
5.80101e-09
-8.45935e-09
1.02726e-08
-3.86533e-11
-7.91839e-09
3.42785e-10
-1.59634e-08
1.00845e-08
1.07793e-08
3.92629e-09
-5.94064e-09
-9.78113e-09
1.40948e-08
-3.87375e-10
-8.39811e-09
6.35641e-09
-7.73943e-09
1.59699e-09
-1.03689e-08
-6.36445e-09
-3.10266e-10
1.24757e-08
2.28155e-10
6.62617e-09
-5.69008e-09
-5.20775e-09
-3.0765e-09
-1.7509e-10
-6.49997e-09
-1.6607e-09
9.30894e-09
6.44656e-09
1.61921e-09
1.90832e-08
5.97367e-09
6.20714e-09
-2.97954e-09
-9.20127e-09
6.38372e-12
6.06131e-09
-9.4031e-11
4.15107e-09
-3.4581e-09
3.4202e-09
-4.11317e-09
4.19602e-09
-3.85604e-11
6.32675e-09
3.92251e-09
-4.04212e-09
5.40848e-09
6.97959e-09
-9.07084e-09
2.63321e-09
-2.66612e-09
3.80581e-09
3.05633e-09
8.66308e-10
-1.12237e-10
-1.28858e-09
3.90182e-10
4.82091e-09
-2.61817e-09
7.86148e-09
-1.4375e-09
4.02708e-09
-3.174e-09
1.32224e-11
-3.16309e-09
4.572e-09
1.44448e-10
-4.59612e-09
7.63336e-09
-5.43023e-09
-2.84081e-09
6.37681e-10
-4.41124e-09
6.99855e-09
5.04605e-09
8.87112e-10
5.98979e-09
-5.02241e-10
-7.86826e-11
-4.08763e-09
5.05343e-09
2.94631e-09
-4.30294e-09
-4.0736e-09
-9.97636e-10
-4.67297e-10
-2.68673e-09
1.09465e-08
-1.26121e-09
5.68524e-09
4.56313e-09
-3.03444e-09
6.38032e-09
3.88492e-09
-7.23081e-09
6.2854e-11
5.74909e-09
-5.3981e-10
-5.27213e-09
5.02658e-09
-4.43419e-09
-5.29541e-10
-3.59314e-09
-7.88478e-10
4.83785e-09
-8.08898e-10
-2.7112e-09
4.86232e-09
-2.39814e-10
2.89061e-09
2.79807e-09
2.83495e-09
2.77347e-11
-5.91195e-09
3.04927e-09
2.81867e-09
-5.89716e-09
5.91344e-09
7.69176e-10
-2.97538e-09
-4.02641e-09
6.23262e-09
-4.39752e-09
7.98536e-09
-6.18918e-09
3.24153e-09
3.53495e-09
-3.68004e-09
-5.76686e-09
-2.22831e-09
-1.33897e-10
-3.56032e-09
6.86179e-09
-2.29995e-09
-1.00152e-09
5.17692e-09
-1.26658e-09
-7.47066e-09
1.42716e-09
-8.7801e-09
3.32653e-09
-8.82062e-09
5.85026e-09
-6.48378e-09
7.1564e-09
3.78779e-09
-5.09465e-09
3.5318e-09
-8.76188e-09
3.96349e-09
-4.49807e-09
-8.49708e-09
4.17453e-09
-6.30074e-09
-4.2563e-10
-5.28033e-10
-4.46428e-09
-4.11492e-09
-4.91019e-09
-6.88386e-09
-4.70887e-09
-4.27732e-09
-1.13728e-09
1.01235e-08
-7.73077e-09
-2.33473e-09
5.35664e-09
3.96686e-09
-8.29821e-09
3.4373e-09
8.9405e-10
-6.55121e-09
6.24075e-09
-5.16485e-09
-6.49947e-09
3.93355e-09
1.9963e-09
-6.50618e-09
-6.54975e-10
-4.21012e-09
-3.44785e-10
-2.63606e-09
-7.56048e-09
1.89833e-09
-6.19173e-09
-6.5445e-10
-4.06523e-09
7.71755e-09
-4.7896e-09
-8.92804e-09
2.52809e-09
1.30581e-08
7.96157e-10
-1.33315e-08
-5.22711e-10
8.5527e-09
3.85243e-09
6.52939e-10
6.3158e-10
-6.91925e-09
-2.11806e-10
5.05542e-10
-6.38014e-09
-2.95653e-10
-2.83735e-10
-6.98109e-09
-5.98184e-09
9.24562e-09
-8.7332e-09
9.24655e-09
8.55177e-09
4.14737e-09
-9.22299e-09
-2.31195e-09
-8.48709e-09
2.08435e-09
4.11534e-09
-6.41595e-09
-1.13294e-11
-1.82117e-09
1.08225e-10
-2.58813e-09
-9.19865e-10
-4.9791e-09
-3.43516e-09
-5.56892e-09
-5.87914e-09
-3.91064e-11
2.28532e-10
4.01667e-09
-9.85928e-09
-4.62329e-09
-5.59428e-09
-7.82992e-09
3.52797e-09
4.16258e-09
3.27297e-09
-1.09635e-08
-5.06994e-09
-7.53892e-09
2.61187e-09
9.99699e-09
-3.6006e-09
2.05863e-09
-4.00225e-09
-7.13727e-09
3.00912e-09
9.2286e-09
-8.07515e-09
1.41645e-09
7.35802e-09
-5.70791e-09
-3.06657e-09
7.32263e-09
-3.8741e-09
-2.03207e-09
5.29915e-09
9.3815e-09
1.09201e-08
6.08401e-09
8.16047e-09
7.03734e-10
-1.49482e-08
2.80283e-09
1.2146e-08
-8.8648e-09
-1.35559e-08
1.73583e-09
5.72238e-09
6.09772e-09
-1.35721e-08
8.17668e-09
6.99792e-09
9.43027e-09
-1.57245e-08
1.52589e-09
2.09337e-08
-1.54617e-08
1.14885e-08
-7.1598e-09
7.88556e-09
8.90039e-09
-1.50501e-08
8.27673e-09
9.59163e-09
1.36511e-08
-6.15476e-09
1.93396e-09
-1.00177e-08
8.81403e-09
1.26922e-08
3.83497e-09
7.08107e-09
8.47259e-09
9.01345e-09
1.8962e-09
1.44619e-08
1.8987e-08
-4.64618e-09
-1.09367e-08
-3.71768e-09
2.04343e-09
-4.22353e-09
1.76851e-09
-1.01324e-08
4.59157e-09
-8.38774e-09
7.13913e-09
-5.04125e-10
-9.7386e-09
-5.51495e-09
2.45188e-09
-4.9475e-09
8.01056e-09
2.33899e-09
-7.39854e-09
-4.55399e-10
6.82313e-09
-3.5476e-09
-8.23655e-10
1.58819e-09
9.6359e-09
-4.40096e-09
1.30006e-09
-2.50867e-09
1.07971e-09
-3.83985e-09
7.04485e-09
6.02073e-09
-6.50683e-09
5.50606e-09
-2.83909e-09
3.08733e-09
-7.23584e-09
-2.35832e-09
2.52935e-09
-6.72069e-09
-3.66016e-09
-1.35726e-08
-5.01794e-09
1.92897e-09
1.66616e-08
-1.53008e-09
-1.72335e-08
5.19101e-09
-1.02498e-08
-1.57704e-08
2.35967e-08
2.42362e-09
1.57588e-08
-1.63166e-08
-9.69207e-09
-1.68923e-08
-4.79553e-09
1.66699e-08
3.14064e-09
-4.27411e-09
1.72952e-08
-8.15899e-09
1.10996e-08
-2.02358e-08
7.32997e-09
1.44831e-08
-4.51787e-09
-1.13087e-08
6.57199e-09
-1.10337e-08
-2.82348e-09
-2.48018e-08
-1.63037e-08
-3.53293e-09
2.17655e-08
-2.26586e-08
4.82486e-09
-1.11045e-08
-2.98837e-09
1.34463e-08
-1.27893e-08
-1.17615e-08
-1.88228e-09
1.52699e-09
1.72741e-08
-2.37718e-08
1.34997e-08
3.92398e-09
-6.32404e-09
1.91324e-08
8.85041e-09
1.74216e-08
-6.92564e-09
4.80687e-09
1.41417e-08
2.04063e-08
7.66785e-09
-1.65964e-09
-7.23695e-09
1.22873e-09
3.65992e-09
-7.10913e-09
1.11171e-08
-1.5624e-08
7.69873e-09
1.35086e-08
-5.58328e-09
-8.5151e-09
-1.42387e-09
1.35989e-08
6.76504e-10
-1.08512e-08
9.00882e-09
-8.75334e-09
-7.49242e-09
4.29431e-09
-2.39462e-09
5.60681e-09
-4.37966e-09
-9.29662e-09
8.06946e-09
-4.27373e-09
1.12721e-09
6.18051e-09
8.05937e-09
-1.86195e-08
8.81416e-09
-6.90739e-09
-4.01505e-09
-7.68221e-09
-3.92679e-09
-7.66384e-09
1.2463e-08
-1.48689e-08
2.11438e-08
1.02298e-08
-9.85263e-09
-3.0665e-09
-1.57262e-09
2.22371e-08
-6.37353e-09
-5.86174e-09
-1.00018e-08
5.40665e-09
6.49758e-09
1.03328e-08
-1.09792e-08
1.25405e-08
-7.93489e-09
1.6195e-08
-7.56955e-09
-1.44872e-08
-5.61849e-09
1.18271e-08
-1.71878e-08
-1.78401e-08
9.96704e-09
1.32798e-08
-1.02883e-08
4.98871e-09
2.50766e-08
1.0271e-08
-1.91526e-08
1.51303e-08
1.64439e-08
6.17492e-09
-1.9363e-08
5.89921e-09
-4.36044e-09
-3.14371e-09
5.98878e-09
7.12197e-09
6.5131e-09
-1.30452e-08
3.38837e-09
1.86631e-08
-2.01267e-09
-6.37949e-09
-5.05271e-09
-7.83254e-09
1.8874e-08
1.35956e-08
-1.21352e-08
1.2096e-08
4.90639e-09
1.66075e-09
1.93938e-08
1.28131e-08
9.44692e-09
-1.60851e-08
-4.85596e-09
-2.28999e-09
1.81604e-08
-7.35996e-09
6.50143e-09
-1.91047e-09
8.2694e-09
1.63925e-08
8.33107e-09
-1.02026e-09
4.55364e-09
-1.18644e-08
6.61896e-09
-6.0748e-09
7.78692e-09
1.72741e-09
-7.1911e-09
-7.95271e-10
-6.62083e-10
9.00845e-09
-1.10465e-08
2.83517e-09
-5.56415e-09
7.7671e-10
-1.28736e-09
1.55334e-09
-5.51275e-09
3.16414e-09
-5.05144e-09
5.94269e-09
-4.68922e-09
-2.42679e-11
-6.33305e-09
-7.15763e-09
1.17331e-09
4.20174e-10
-8.76987e-09
7.45928e-09
-1.21411e-09
-6.35582e-09
2.05718e-09
-5.76196e-09
-5.03589e-10
1.07495e-09
-6.55438e-09
4.25762e-09
-4.05905e-09
2.04539e-10
5.52936e-09
-3.34083e-10
3.14893e-09
-1.16924e-08
8.87752e-09
-1.22414e-08
8.85893e-09
3.0484e-09
-7.2096e-09
1.77837e-09
8.58016e-09
-5.97796e-09
6.37215e-10
-1.86885e-09
-1.7701e-09
-1.15839e-08
1.66166e-09
-1.34758e-08
-5.35714e-10
-1.25843e-08
-9.73756e-10
1.97411e-09
3.84404e-09
-1.27755e-08
-3.65281e-09
1.12407e-08
-2.19989e-09
-7.2624e-09
-9.07812e-09
-5.53637e-10
3.87406e-10
-7.33912e-09
-1.1517e-08
4.62623e-09
3.87969e-09
3.01106e-09
-3.17744e-09
-1.35257e-08
5.18615e-09
-9.22304e-09
-2.68312e-10
6.31391e-09
4.49402e-10
-3.39145e-09
7.56828e-09
9.64508e-09
1.00863e-08
-1.58517e-08
-2.19678e-09
1.22e-09
7.65075e-09
-6.67397e-09
-1.07044e-09
-8.22161e-09
7.09527e-09
7.41661e-09
1.46603e-09
-6.11975e-09
-2.7629e-09
8.82767e-09
5.6798e-09
-7.09086e-09
9.25633e-10
-7.44701e-09
8.57329e-09
-2.05191e-09
-8.3857e-09
1.07774e-08
1.90892e-09
8.32145e-09
-1.13008e-08
-4.41301e-09
-3.52576e-09
-2.82837e-10
5.56852e-09
-7.77948e-09
1.70832e-09
5.0264e-10
6.02182e-09
2.58233e-10
-7.1153e-10
1.58247e-09
9.15412e-09
-6.15722e-09
8.95968e-09
-6.81015e-09
1.57161e-09
1.27157e-10
5.11138e-09
-8.37341e-09
8.15364e-09
-6.59038e-09
1.43621e-09
-8.35676e-09
-6.19368e-09
8.05885e-09
6.4916e-09
-9.07388e-09
1.78777e-09
-1.07066e-09
8.18053e-09
2.49227e-09
-7.18024e-09
-3.49257e-09
-1.97064e-10
2.18391e-09
-5.713e-09
-8.68612e-10
2.4449e-09
-1.48892e-09
-8.13621e-09
1.25224e-09
-4.52034e-09
-2.82514e-09
-8.71133e-09
1.27887e-08
1.29516e-08
-3.15599e-09
-1.26208e-08
-6.14646e-10
-9.51431e-09
5.11803e-09
5.01092e-09
3.99995e-09
4.82466e-09
-9.43925e-09
2.81429e-09
3.02711e-09
7.11023e-09
7.9516e-09
-1.25965e-08
-1.14077e-08
4.70773e-09
-1.17094e-08
8.25323e-09
4.46187e-09
-1.10864e-08
4.40873e-09
2.21583e-09
-1.6536e-08
1.17012e-08
1.02488e-08
-8.60181e-09
-1.27334e-08
8.60685e-10
-7.14783e-09
-9.76125e-09
-4.04684e-10
2.48823e-09
7.6777e-09
5.39808e-09
-1.42589e-08
2.5454e-09
6.31542e-09
1.27601e-08
-2.94178e-10
-8.0572e-09
-7.58755e-09
1.37222e-08
6.62543e-09
8.16334e-09
-7.15993e-09
4.39467e-09
-2.55415e-09
2.86964e-09
-1.00767e-08
3.89319e-09
2.44944e-09
1.07439e-08
-1.70866e-08
1.13447e-08
-1.50391e-08
6.85921e-09
-1.25002e-09
-1.40169e-08
1.12758e-08
5.1906e-09
-2.36494e-09
-4.79279e-09
4.66545e-09
1.06914e-08
-7.20159e-09
-8.15525e-09
1.36958e-08
-5.94166e-09
-3.08868e-09
-1.0454e-08
7.8518e-09
1.6298e-08
4.03106e-10
-1.65677e-10
5.48927e-09
-5.34787e-10
-1.21561e-08
-5.7117e-09
5.25931e-09
-2.4905e-10
-7.75997e-09
9.69608e-09
-4.77925e-10
8.18419e-09
-1.3868e-08
-1.1238e-08
-2.20265e-09
4.15957e-09
9.28103e-09
7.291e-10
-7.8949e-10
-9.2516e-10
-1.21533e-08
5.96491e-09
-1.44309e-08
7.9312e-09
-3.74448e-09
-2.68972e-09
1.3924e-08
-7.48984e-09
-9.06023e-09
-1.03988e-09
9.31062e-09
-6.8398e-09
-5.57803e-09
7.43112e-09
-1.28309e-09
-5.69998e-10
4.65922e-09
-3.36039e-09
-6.87687e-09
-1.11503e-08
1.16421e-09
2.31468e-09
7.67144e-09
-6.60182e-10
-5.83093e-09
2.03647e-09
-6.83135e-09
1.48072e-09
3.31416e-09
-7.90523e-09
3.57925e-09
6.36246e-09
5.82986e-09
2.76547e-09
3.02299e-09
1.16372e-09
-7.5471e-09
3.52493e-09
-1.78503e-09
1.02034e-09
-6.9569e-09
-8.94787e-10
-7.1235e-09
2.38601e-10
-3.99718e-09
-5.24986e-09
8.58685e-09
-3.84811e-09
-7.55891e-10
1.09618e-08
-6.35779e-09
-6.83479e-09
4.46739e-09
8.65321e-09
1.67839e-09
-5.27695e-09
-1.96555e-09
-3.31297e-09
3.67064e-09
-6.5041e-09
-5.74969e-09
5.90835e-10
-1.67593e-09
-4.04459e-09
-6.23258e-09
-5.56682e-09
6.3198e-09
5.4796e-09
2.24289e-09
-5.14931e-09
-3.32617e-09
2.32919e-09
5.82776e-09
-3.13708e-09
-5.01987e-09
8.35267e-09
-3.78059e-09
-1.00082e-09
2.91045e-09
3.91813e-09
3.23717e-09
4.11468e-09
-3.63709e-09
2.57195e-09
-4.50167e-09
2.8901e-10
-9.07541e-09
-4.61619e-10
-2.73827e-09
-3.30261e-09
6.5025e-09
-3.92156e-09
-3.78386e-09
7.2438e-09
6.81869e-09
2.48268e-09
-5.33075e-09
2.20081e-09
-7.17205e-09
1.66863e-09
-6.20039e-09
4.47965e-09
-2.3394e-09
1.46599e-09
-7.89203e-10
-3.8109e-09
6.50221e-09
-4.80874e-09
-2.03758e-09
5.13727e-09
1.11408e-08
-8.96033e-09
-7.31778e-09
-5.343e-09
1.50906e-08
-4.61034e-09
8.24121e-09
-7.57119e-09
-6.01302e-09
-2.39282e-09
7.88779e-09
5.64588e-09
8.53147e-09
4.16631e-09
-5.63785e-09
5.26532e-09
8.904e-09
3.2801e-09
-1.27139e-08
3.79594e-09
6.17006e-09
-9.04314e-09
6.15318e-09
-2.80439e-09
-1.66828e-09
-3.30818e-09
9.6516e-09
-5.53414e-09
-8.09274e-10
1.17223e-08
-1.40144e-08
-1.01609e-09
9.9045e-09
-5.85828e-09
3.84157e-09
-2.68877e-09
1.78586e-08
-1.07988e-08
1.42801e-08
1.08924e-08
-5.02844e-09
1.2795e-08
-5.9478e-09
4.11726e-09
-3.65392e-10
4.21089e-09
1.78515e-09
8.4131e-09
1.61024e-09
-1.18085e-08
6.6826e-09
1.91835e-09
-6.8158e-09
-8.201e-10
8.79835e-09
4.34843e-10
6.71458e-09
-8.52084e-10
1.19027e-08
4.10803e-09
-1.44004e-08
-5.469e-09
-2.73184e-09
-1.59693e-09
9.79777e-09
-4.76158e-09
-1.59928e-09
8.91856e-10
2.01725e-09
-1.15146e-08
4.76792e-09
4.72947e-09
-8.29116e-09
5.54682e-09
-7.9123e-09
-2.19243e-09
-1.40992e-09
-9.48887e-09
1.31814e-09
9.48323e-09
1.10129e-09
7.87349e-09
2.24301e-09
7.40286e-09
-1.12865e-09
-4.51433e-09
9.18535e-09
2.26259e-09
9.94677e-09
-8.10133e-09
8.21005e-09
-4.02912e-09
-4.51751e-09
7.6885e-09
9.04231e-09
-3.02468e-09
-2.13742e-09
7.10632e-09
-2.65127e-09
7.17607e-09
5.15808e-09
-1.86656e-09
1.08622e-08
-8.30323e-09
-6.92422e-10
-1.10288e-08
1.19278e-08
-9.75728e-09
-4.93872e-09
9.8507e-09
4.84529e-09
-4.30144e-09
-1.01668e-09
-4.43916e-09
4.71202e-09
-4.43512e-09
-4.57834e-09
1.88936e-10
-4.15634e-10
-7.95919e-09
-6.17584e-09
6.52123e-09
7.6138e-09
4.6675e-09
-1.76448e-09
-2.54802e-09
5.01014e-10
-8.98184e-09
-2.17564e-09
-8.67561e-09
-3.63838e-10
6.11576e-09
9.14255e-10
3.77977e-09
5.15668e-09
-8.84851e-09
4.01156e-09
5.7512e-09
-5.0536e-09
-4.81159e-09
5.17142e-09
-4.56459e-09
-4.17898e-10
-6.08914e-09
-4.38573e-09
4.8822e-09
5.59266e-09
-5.02206e-10
-5.2889e-09
-2.98032e-10
-4.9655e-09
3.66407e-09
5.08119e-09
-2.96286e-10
-9.34031e-09
4.59074e-09
-9.39722e-09
-5.23199e-09
-5.04595e-09
2.13074e-10
1.13541e-08
3.63311e-09
2.8585e-11
-7.25783e-09
1.96833e-09
-6.37486e-09
1.88667e-09
-4.48293e-09
8.75935e-09
-7.00953e-09
4.71723e-09
4.61366e-09
-3.95823e-09
-5.37267e-09
3.71628e-09
-2.34655e-09
3.3475e-09
-5.35214e-09
1.6469e-09
7.42153e-09
8.1295e-10
-1.55143e-09
-4.29696e-09
1.83027e-09
1.20145e-10
-1.28894e-09
3.3793e-09
-1.57811e-09
-9.88239e-10
1.42032e-09
1.33574e-09
-5.30032e-09
-2.19863e-09
9.14584e-09
-5.51783e-09
3.59681e-09
1.84116e-09
-1.99894e-09
5.11907e-09
-2.26788e-09
-5.04981e-09
-3.14386e-09
-5.32806e-10
2.76323e-09
1.03904e-09
5.04362e-09
-8.84589e-09
2.23957e-09
8.4175e-09
-7.89385e-09
-1.34409e-09
-4.91398e-09
8.49764e-09
-4.77547e-09
4.47041e-09
-4.72642e-09
-4.00423e-09
3.95518e-09
-3.71443e-09
-5.23252e-09
4.22054e-09
4.39576e-09
1.26678e-09
-9.37697e-09
1.55234e-09
-1.16081e-09
4.12655e-09
5.4298e-09
-8.28957e-09
1.77923e-09
2.90116e-09
-5.53839e-10
5.81391e-09
-4.90774e-09
4.52364e-09
6.15542e-09
1.43772e-09
4.83038e-09
-3.76878e-10
6.07182e-09
-8.14604e-09
2.34318e-09
5.81998e-09
-1.71198e-11
-4.91651e-09
-5.11056e-09
1.88103e-09
3.79762e-09
-2.96946e-09
9.44443e-09
-5.96546e-10
7.41168e-09
-3.01752e-09
-5.02711e-09
5.16362e-09
2.20668e-09
-3.37029e-09
-6.57334e-09
-1.90105e-09
-2.06578e-09
3.53261e-09
-8.40312e-09
-9.50641e-09
4.9028e-09
-1.30429e-09
4.60064e-09
4.11533e-09
3.6198e-09
-4.27937e-09
-1.21016e-08
1.75868e-09
1.46223e-08
-7.70927e-09
-2.57991e-09
6.00982e-09
-1.04141e-08
-9.39673e-09
1.04353e-08
6.58235e-09
-1.29999e-08
-4.01776e-09
-1.91978e-09
8.85936e-09
3.49572e-09
-9.60518e-09
1.33504e-08
-1.98659e-09
-6.89411e-09
1.59835e-09
1.18781e-08
-1.41232e-08
9.62349e-09
-3.88211e-09
-7.97007e-09
2.24699e-09
-9.58236e-09
-4.71389e-09
-9.80809e-09
-5.79589e-10
2.41761e-09
5.09321e-10
1.22958e-09
-1.1547e-08
-1.22737e-09
-1.36331e-09
-1.15325e-08
-1.7318e-09
-1.24955e-08
-1.04364e-08
9.23309e-09
-9.73531e-09
1.75938e-09
-4.24531e-09
1.14185e-08
-9.72002e-09
2.54683e-09
-6.08144e-09
-4.09903e-09
5.93517e-09
2.81288e-09
-2.62517e-09
1.12308e-08
-5.3711e-09
1.8112e-09
-6.16012e-09
-3.60863e-10
-1.10917e-08
-9.47934e-10
1.35706e-08
-9.80984e-09
8.7069e-09
-3.56416e-09
-3.33154e-09
1.18523e-09
4.8965e-09
5.88934e-09
-5.31266e-09
-4.14083e-09
9.59413e-09
-7.49554e-09
3.79074e-09
-9.21924e-09
-3.59192e-09
1.18632e-08
-5.11048e-09
-4.23397e-10
-3.68537e-09
7.18744e-09
-5.93005e-09
-6.67597e-09
-1.16036e-08
9.41507e-09
-1.93299e-09
3.16758e-09
-1.06497e-08
4.25684e-09
6.12336e-09
-9.65131e-10
3.72102e-09
-2.1936e-09
1.22039e-08
-1.37313e-08
1.13648e-08
5.38036e-10
-8.18184e-09
1.0204e-08
-1.43306e-08
3.9473e-09
8.20036e-09
5.62731e-11
4.97721e-09
7.04087e-09
2.98914e-09
-6.86243e-09
1.05992e-08
6.98555e-10
7.34359e-09
6.60847e-09
-3.74806e-09
3.33459e-09
3.87213e-09
1.1333e-08
-7.80584e-09
5.12115e-09
-7.39051e-09
-1.01489e-09
-1.5029e-09
4.2864e-09
7.96044e-09
-3.80327e-09
-8.86518e-09
9.38373e-09
3.28471e-09
9.04714e-09
-1.20517e-08
-7.98675e-10
-1.34141e-08
-4.11596e-09
2.0034e-09
1.55267e-08
-5.60577e-09
1.23881e-09
-1.31189e-08
3.07289e-09
8.54308e-09
2.70003e-10
-1.57131e-08
2.32424e-09
-8.02626e-09
6.98319e-09
-1.13007e-08
-2.33136e-09
-2.44292e-09
-6.52179e-09
9.95319e-11
-2.22944e-09
-1.22652e-08
1.82565e-09
1.38055e-08
1.32128e-08
-1.32601e-08
4.48123e-09
3.39655e-09
-7.7977e-09
-8.00811e-11
4.47948e-09
-6.74152e-09
6.74326e-09
-4.63899e-09
-4.19783e-09
1.33163e-08
-5.95826e-09
4.71582e-09
-2.71273e-09
-4.62009e-09
5.91308e-10
4.47555e-09
-3.31222e-09
-3.87606e-09
-2.59871e-09
-6.39719e-09
4.37581e-09
-4.12904e-09
1.5834e-09
-5.30687e-11
-3.48285e-09
4.17861e-09
3.01048e-09
-7.86974e-09
6.80648e-10
-5.64519e-09
5.62597e-09
1.1268e-09
-4.44895e-09
-7.39413e-09
4.44636e-09
-5.21062e-09
-4.61394e-09
1.95482e-09
2.73609e-09
-4.30425e-09
-3.64245e-09
6.86314e-10
-1.3257e-09
-3.18879e-09
-3.07855e-09
-4.1536e-09
-3.64913e-09
-3.34079e-09
-6.65583e-09
3.71565e-09
6.28097e-09
-9.6227e-09
2.79028e-09
3.49163e-09
5.60146e-10
-1.037e-09
-6.06738e-09
-2.83051e-11
7.28826e-09
-4.6476e-09
-1.96356e-09
-6.77106e-10
1.17254e-09
1.13969e-08
-5.28116e-09
7.47822e-09
3.74088e-09
-3.84922e-09
-7.36987e-09
-2.28409e-09
5.11471e-09
1.13698e-09
3.1981e-10
-2.55666e-09
7.44484e-09
-4.41652e-09
4.65014e-09
-1.33359e-09
-4.01929e-09
-8.18176e-10
3.24612e-09
-2.41109e-10
1.27737e-08
3.16019e-11
-9.02e-09
-3.78527e-09
3.26157e-09
5.18214e-09
4.32996e-09
-4.35904e-10
3.3256e-09
-5.52364e-09
2.63395e-09
3.95807e-09
-6.75058e-09
2.3566e-09
-2.47256e-09
9.60737e-09
-3.80921e-09
6.81525e-09
-5.32974e-09
7.84412e-09
1.78902e-09
-2.36968e-09
-7.26346e-09
6.46832e-09
4.63737e-09
-9.20004e-09
4.91146e-09
9.47072e-09
-6.45873e-09
-2.70971e-09
-2.56394e-09
5.21672e-09
6.95459e-09
2.03374e-09
2.21757e-09
-6.69457e-09
7.56551e-10
1.24063e-08
3.11169e-10
4.93866e-09
2.63877e-09
-5.54369e-09
1.06067e-08
-5.6902e-09
-4.45086e-09
-6.17102e-09
1.63121e-08
-8.0708e-09
-8.53085e-09
1.09115e-08
-3.06343e-09
-6.13944e-09
1.13206e-09
-5.15582e-09
-4.30577e-09
9.30737e-10
-6.44154e-09
1.02622e-08
-9.53445e-09
2.94893e-11
-7.69389e-09
-3.60137e-09
5.84636e-09
-9.47148e-09
-7.1448e-09
6.82014e-09
-7.3586e-09
-2.84988e-09
-1.73111e-10
-4.46186e-09
-3.05891e-09
-3.88181e-09
-3.63485e-09
-6.62493e-09
-6.17245e-09
5.65258e-09
-7.68796e-09
-2.81878e-09
-4.39244e-09
-3.13927e-09
-3.31102e-09
-4.78569e-09
4.8242e-09
-3.25148e-09
-1.65848e-09
-1.24272e-09
2.80718e-09
3.00635e-10
-7.15898e-09
-6.27632e-09
2.98407e-09
6.09943e-09
-1.42364e-08
3.69775e-09
1.01467e-08
3.92031e-10
5.26462e-09
-6.94515e-09
-1.25559e-08
-3.71811e-09
7.46075e-10
-6.71644e-09
9.68847e-09
-8.54836e-09
5.13089e-09
8.45095e-09
-4.05736e-09
1.07926e-10
-4.50152e-09
3.60034e-09
3.16672e-09
-6.85375e-09
-3.47196e-09
-2.9448e-09
-1.64796e-10
-5.47253e-09
9.20267e-09
5.19921e-09
2.2747e-10
-1.62061e-10
8.62944e-09
-7.75947e-10
-1.02266e-08
-4.13736e-09
-6.12251e-09
4.78734e-09
-6.62871e-09
-4.53449e-10
-2.79039e-09
3.21581e-09
-4.20951e-09
3.78409e-09
-8.23407e-09
4.66773e-09
-3.53001e-09
-3.3654e-10
-5.5585e-09
7.7678e-09
5.84353e-09
-5.99134e-09
5.5593e-09
2.11338e-09
-5.71622e-09
4.73152e-09
1.07433e-09
-2.4655e-10
1.32779e-09
-6.91694e-09
7.49e-09
-1.90086e-09
6.17795e-09
-1.18629e-10
-2.96516e-10
-4.50704e-09
-1.53244e-09
-2.1848e-10
9.24092e-09
-1.44102e-09
6.08653e-09
8.35243e-09
-5.86663e-09
1.00565e-08
-1.92258e-09
5.81803e-09
5.08749e-10
-2.58908e-09
4.51729e-09
-1.93634e-09
8.12615e-12
-1.7822e-09
-7.10349e-09
7.08255e-09
1.80314e-09
-4.2403e-09
-1.3098e-10
-3.03364e-09
-2.99869e-09
-5.03372e-10
6.53571e-09
-2.78409e-12
2.66601e-09
-5.69687e-09
-3.10006e-09
4.61866e-09
9.03121e-09
1.00352e-09
-3.64733e-10
-9.67e-09
2.74571e-10
2.71141e-09
6.04523e-09
1.95835e-10
-6.44441e-10
-3.79169e-09
-7.16677e-10
-6.19098e-09
-4.6442e-09
5.00328e-09
4.26695e-09
-8.14793e-09
3.8782e-09
-4.50335e-09
8.26693e-09
8.59236e-10
3.12326e-09
-1.03753e-08
7.26222e-09
3.38767e-09
8.64351e-10
-1.16044e-08
-8.33247e-09
4.68836e-09
1.05531e-08
-1.04054e-08
-7.47752e-09
6.59181e-09
-5.25691e-09
-1.26657e-09
-5.55346e-09
1.52714e-09
5.2929e-09
-5.40206e-09
1.78352e-09
2.35197e-09
9.23061e-09
6.50877e-10
-7.61454e-09
-2.26694e-09
6.82396e-09
-1.94924e-09
4.35589e-09
-3.95371e-09
5.37561e-09
5.79483e-09
-2.36239e-09
-7.38615e-09
8.63491e-09
-1.69345e-09
-6.29058e-09
5.06187e-09
1.6238e-09
-7.2581e-11
5.26318e-09
-1.28736e-10
-5.35743e-09
5.44048e-09
-1.55636e-10
-1.51902e-09
1.76038e-09
6.05521e-10
-5.87128e-09
7.04928e-09
-5.46575e-09
7.59841e-09
-2.04555e-09
-5.00532e-09
-4.32623e-09
-5.76288e-09
4.62336e-09
-6.64433e-09
7.99086e-10
-4.54543e-09
3.93733e-09
9.91776e-10
-9.67264e-11
6.37539e-09
-8.44875e-09
2.78059e-11
4.73823e-09
-5.00717e-09
-3.28674e-11
2.09019e-08
1.31017e-08
-2.18679e-08
-1.21357e-08
-1.06188e-10
1.71324e-09
-3.32078e-09
1.39597e-09
4.66458e-09
-3.31878e-09
-2.32137e-08
2.12959e-08
1.05854e-09
-1.76899e-08
1.61597e-08
1.81539e-09
2.65798e-09
-1.84997e-08
-2.52485e-09
-4.11154e-11
1.98991e-08
1.76285e-10
-2.33942e-08
1.64448e-09
-2.98673e-09
-1.44544e-08
3.73073e-09
-2.46419e-08
1.08532e-09
3.49415e-09
1.26657e-09
-5.84605e-09
6.11875e-09
2.21299e-09
-7.24642e-09
4.70699e-09
5.8293e-09
-4.41754e-09
-1.19692e-10
5.1159e-09
-2.89216e-10
4.53279e-09
-4.35505e-09
3.31642e-09
4.71557e-09
-3.02477e-10
9.93782e-10
5.02837e-09
-4.75558e-09
-5.5631e-09
-5.39731e-09
3.43282e-10
5.83073e-09
-6.10532e-09
1.12819e-09
-5.95105e-10
3.19086e-10
4.65668e-09
-1.3589e-10
1.15274e-08
-9.14626e-09
2.64726e-09
9.96365e-09
-4.03487e-09
5.59859e-09
1.04751e-08
3.97171e-09
-4.48313e-09
1.4066e-11
6.97891e-09
-3.80964e-10
-6.61201e-09
4.91455e-09
-1.84907e-10
-3.29825e-10
5.32979e-09
9.65429e-10
9.39144e-09
1.18208e-10
-1.03617e-09
5.62089e-09
6.90817e-09
1.20697e-08
2.85825e-09
-9.18457e-09
-5.74334e-09
3.56165e-09
1.08227e-08
-1.16101e-08
1.44793e-08
-2.21034e-09
-6.54146e-09
-6.90103e-09
-8.11447e-09
7.41197e-09
-2.71612e-09
-7.84765e-09
3.1518e-09
5.78059e-10
-5.32885e-09
-2.12607e-09
-4.21722e-09
-2.10575e-09
-2.13987e-09
7.35794e-10
-7.25493e-09
1.5353e-09
4.98383e-09
-8.56969e-09
2.50396e-09
6.80153e-09
7.88925e-09
-6.61988e-09
-8.5243e-09
-4.02955e-10
-2.77485e-10
-6.02471e-09
7.47753e-09
1.05114e-09
-6.25256e-09
5.63044e-09
-2.6505e-10
-5.58141e-09
3.43243e-09
3.68428e-09
-8.165e-09
-1.36627e-09
1.38256e-08
-6.46695e-09
-7.27947e-09
-1.01714e-09
-4.92884e-09
-7.03451e-09
1.53599e-09
2.22448e-09
-1.85546e-10
2.56683e-09
1.68517e-09
-6.30752e-10
-8.39117e-10
-2.07995e-09
3.35765e-09
-4.38578e-10
2.95306e-09
1.47412e-09
-5.97387e-10
1.8289e-09
-2.62375e-10
2.41078e-09
2.65848e-09
-3.78383e-10
9.49217e-10
-3.82018e-10
1.89622e-09
3.75374e-09
-7.50861e-10
-5.2741e-09
6.3854e-09
-5.36622e-10
-5.74683e-10
-7.60157e-11
-7.81669e-11
6.92673e-09
-5.58182e-10
-3.71976e-09
4.90752e-09
-6.29571e-10
3.74282e-09
-4.3433e-10
7.21863e-11
3.77286e-09
-1.62377e-10
-1.06385e-10
4.70282e-09
4.25536e-09
-1.58044e-10
-1.84741e-09
4.97101e-09
4.40039e-09
-1.31201e-10
-1.26128e-10
3.31391e-09
3.16865e-09
-5.91539e-10
-2.11367e-09
-1.28013e-09
3.30039e-09
9.34074e-11
4.01993e-10
-2.26296e-09
4.28515e-09
-1.70411e-09
-3.1808e-10
-2.54907e-09
-1.5675e-09
4.4029e-09
-2.86322e-10
3.07416e-09
-2.96899e-10
3.42435e-09
-1.30486e-11
4.98738e-09
-2.39808e-10
4.32471e-09
-3.16568e-10
-1.6591e-09
3.42608e-09
-2.30992e-10
1.32844e-09
2.47025e-09
-2.10858e-10
1.46689e-09
-7.91601e-11
-1.43551e-12
2.63313e-11
4.96478e-09
3.34074e-09
-3.87299e-13
1.95479e-09
7.10412e-10
-1.73247e-10
1.62915e-09
2.31399e-09
-3.603e-10
4.53952e-09
1.20001e-11
2.17112e-09
1.81846e-09
-2.57097e-10
3.47874e-09
-1.06677e-09
-2.40845e-10
-2.64838e-09
3.72544e-09
-5.2844e-10
-5.4862e-10
7.05334e-10
-1.05228e-10
4.14064e-09
1.90696e-09
-6.11279e-09
6.519e-11
2.06145e-09
-6.35482e-09
4.42737e-09
-1.33995e-10
-2.03856e-09
-1.12483e-11
3.87085e-09
-5.69625e-09
-2.1316e-10
7.09535e-11
-6.99461e-10
-4.4013e-09
-1.69027e-10
3.95652e-09
-4.50959e-09
-1.46392e-10
-2.42353e-09
1.36004e-10
4.98354e-09
-4.64035e-09
-2.7605e-10
-6.7141e-11
4.50911e-09
4.94273e-10
-4.98742e-09
-1.59629e-11
1.83255e-10
4.77624e-09
2.40434e-11
4.64456e-09
4.78042e-11