/*--------------------------------*- C++ -*----------------------------------*\
| =========                 |                                                 |
| \\      /  F ield         | OpenFOAM: The Open Source CFD Toolbox           |
|  \\    /   O peration     | Version:  v1612+                                |
|   \\  /    A nd           | Web:      www.OpenFOAM.com                      |
|    \\/     M anipulation  |                                                 |
\*---------------------------------------------------------------------------*/
FoamFile
{
    version     2.0;
    format      ascii;
    class       volVectorField;
    location    "150";
    object      wallShearStress;
}
// * * * * * * * * * * * * * * * * * * * * * * * * * * * * * * * * * * * * * //

dimensions      [0 2 -2 0 0 0 0];

internalField   uniform (0 0 0);

boundaryField
{
    WALL
    {
        type            calculated;
        value           nonuniform List<vector> 
1494
(
(0.00562264 -0.00581359 0.0113178)
(0.00481361 -0.00624498 0.0112295)
(0.0052693 -0.00620615 0.0115363)
(0.00560499 -0.00640399 0.0124797)
(0.00493396 -0.00601059 0.011054)
(0.0050054 -0.00633239 0.0115937)
(0.00522063 -0.00638511 0.011753)
(0.00527584 -0.00656394 0.0120613)
(0.00504093 -0.00642089 0.0117889)
(0.00527919 -0.00649944 0.011957)
(0.00565289 -0.00658176 0.012332)
(0.00534371 -0.00669508 0.0124184)
(0.00528456 -0.0061479 0.0116895)
(0.00511916 -0.00611377 0.0114626)
(0.00533551 -0.00619931 0.0115679)
(0.00522908 -0.00637545 0.0118146)
(0.0055555 -0.00664328 0.0119332)
(0.005944 -0.00723535 0.0124607)
(0.00543297 -0.00658898 0.0122643)
(0.00534319 -0.00643717 0.0118579)
(0.00498592 -0.00646696 0.0118593)
(0.0047259 -0.00604143 0.0108384)
(0.00494846 -0.00673422 0.0115048)
(0.0054403 -0.00647509 0.0118638)
(0.00544854 -0.00597038 0.0113075)
(0.00516944 -0.00629941 0.0117437)
(0.00506924 -0.00682946 0.0120252)
(0.00524444 -0.00602016 0.0117308)
(0.00524653 -0.00684373 0.0122684)
(0.00551224 -0.00655677 0.0122126)
(0.00535628 -0.0069141 0.0123176)
(0.00528391 -0.00560322 0.0111174)
(0.0049546 -0.0060804 0.01125)
(0.00530377 -0.00634183 0.0118338)
(0.00526102 -0.00655855 0.0120019)
(0.00472308 -0.00622721 0.011165)
(0.00480539 -0.00640944 0.0112219)
(0.00549288 -0.00686312 0.0131911)
(0.00493107 -0.0060176 0.0110026)
(0.00486607 -0.00607253 0.011131)
(0.0050229 -0.00584387 0.0112797)
(0.00562159 -0.00650711 0.0119328)
(0.00514745 -0.00635318 0.0118062)
(0.0051854 -0.00632636 0.0117798)
(0.0050064 -0.00602239 0.0114808)
(0.00520862 -0.00618183 0.0115801)
(0.00529453 -0.00642794 0.0120167)
(0.00509433 -0.00589 0.0113063)
(0.00486512 -0.00598676 0.0111202)
(0.00494626 -0.00618273 0.0112448)
(0.00515367 -0.00596516 0.0115093)
(0.00500552 -0.00596249 0.0112626)
(0.0050793 -0.00626815 0.0115374)
(0.00522884 -0.00644897 0.0114495)
(0.00562615 -0.00674385 0.0116549)
(0.00522791 -0.00675038 0.0120965)
(0.00522173 -0.00634833 0.0120385)
(0.0047521 -0.00580583 0.0113376)
(0.00549854 -0.00687967 0.0124051)
(0.00573908 -0.00663757 0.0125036)
(0.00505663 -0.00610293 0.0111265)
(0.00498042 -0.0061584 0.011416)
(0.00524196 -0.0061714 0.011416)
(0.0049526 -0.00599052 0.0112772)
(0.00500977 -0.00615934 0.0113381)
(0.00525381 -0.00634065 0.0119869)
(0.00517406 -0.00625989 0.0113686)
(0.0058788 -0.0066804 0.0121252)
(0.00546616 -0.00632284 0.0116965)
(0.00531106 -0.00642321 0.0119201)
(0.00545155 -0.00639045 0.0117815)
(0.00544206 -0.00645139 0.0115839)
(0.00578472 -0.0067234 0.0120686)
(0.00522533 -0.00631777 0.0117095)
(0.00496107 -0.00624093 0.0116678)
(0.00596906 -0.00696755 0.0125709)
(0.00535605 -0.00623301 0.0116273)
(0.0052147 -0.00630862 0.0124826)
(0.00582781 -0.00688627 0.0137798)
(0.00525542 -0.00655811 0.0123245)
(0.00606835 -0.00695546 0.0128483)
(0.00629146 -0.00652384 0.0135453)
(0.00611664 -0.00706831 0.0144276)
(0.00546952 -0.00660312 0.0113346)
(0.00524547 -0.00636861 0.0116966)
(0.0052677 -0.00638912 0.0118565)
(0.00512888 -0.00647982 0.0119451)
(0.00527632 -0.00639075 0.0118382)
(0.00533049 -0.00646632 0.0118641)
(0.0052704 -0.00650841 0.0118956)
(0.00504319 -0.0061414 0.0115891)
(0.00499904 -0.00644074 0.011788)
(0.00529167 -0.00623572 0.0118967)
(0.00494162 -0.00624246 0.0115341)
(0.00499812 -0.00627881 0.0117613)
(0.00519721 -0.00625126 0.0118022)
(0.00503597 -0.00620344 0.0114341)
(0.00492731 -0.00596171 0.0110929)
(0.00504218 -0.00611784 0.0113742)
(0.00496231 -0.00620347 0.0115004)
(0.00526516 -0.00671622 0.0122755)
(0.00568182 -0.00648878 0.0122692)
(0.00476715 -0.00583442 0.011788)
(0.00499113 -0.00559104 0.0115965)
(0.00498877 -0.0060287 0.0110036)
(0.00491061 -0.0060472 0.0120499)
(0.00501592 -0.0064975 0.0114308)
(0.00560414 -0.00705391 0.0125286)
(0.00569272 -0.00709319 0.0121585)
(0.0057374 -0.00620642 0.0126432)
(0.00555944 -0.0065538 0.0113293)
(0.00495253 -0.005879 0.0111487)
(0.00501412 -0.0061304 0.0113175)
(0.00492933 -0.00605506 0.0112908)
(0.00540408 -0.00655205 0.0127338)
(0.00478811 -0.00620657 0.0114894)
(0.00522593 -0.00606125 0.0114273)
(0.00496517 -0.00614404 0.0112383)
(0.00499022 -0.00619583 0.0113308)
(0.00488644 -0.00611558 0.0110896)
(0.00512848 -0.00606988 0.0108229)
(0.00522118 -0.00629607 0.0115336)
(0.00505621 -0.00638811 0.0118912)
(0.00504637 -0.00603185 0.01155)
(0.00552722 -0.0065277 0.0123617)
(0.00500823 -0.00619872 0.0115642)
(0.00541319 -0.00623476 0.0113985)
(0.00518556 -0.00625188 0.0115647)
(0.00508564 -0.00627879 0.0113465)
(0.00461952 -0.00564566 0.0113758)
(0.00475088 -0.00598221 0.0111268)
(0.00544382 -0.00719072 0.0111603)
(0.00616597 -0.00742517 0.0129366)
(0.00546967 -0.00675793 0.0126707)
(0.00543476 -0.00730184 0.0116338)
(0.00529625 -0.00657882 0.0117348)
(0.00560286 -0.00597296 0.0120497)
(0.00528165 -0.00616771 0.0119422)
(0.00528113 -0.0064787 0.011832)
(0.00525046 -0.00634689 0.0116523)
(0.0058212 -0.00669072 0.012848)
(0.0053702 -0.00659992 0.0117619)
(0.00522433 -0.00659629 0.012132)
(0.00566609 -0.00687445 0.0118446)
(0.00537272 -0.00670653 0.0120114)
(0.00579182 -0.00704219 0.0120186)
(0.00583395 -0.00700627 0.0120952)
(0.00575035 -0.00747475 0.0131437)
(0.00549756 -0.00716399 0.0122635)
(0.00540365 -0.00665231 0.0126621)
(0.00540783 -0.00659653 0.0119793)
(0.00528462 -0.00669354 0.0122333)
(0.00531597 -0.00643835 0.0123295)
(0.0052643 -0.00647479 0.0122326)
(0.00554833 -0.00703153 0.0128141)
(0.00554857 -0.00690954 0.0125388)
(0.00528304 -0.00625311 0.0116687)
(0.00533179 -0.00628294 0.0120684)
(0.00578239 -0.00713265 0.0123489)
(0.00524255 -0.00631169 0.0117128)
(0.0054099 -0.00648 0.0118164)
(0.00520584 -0.00624308 0.0116419)
(0.00546012 -0.00656303 0.0121238)
(0.00538515 -0.00628329 0.0118864)
(0.00534717 -0.00638423 0.0121737)
(0.00546322 -0.0065779 0.0121096)
(0.00523608 -0.00619813 0.011925)
(0.00512713 -0.00617457 0.011589)
(0.00583708 -0.00689026 0.0121176)
(0.00541852 -0.00627129 0.0112633)
(0.00591499 -0.00721401 0.0120861)
(0.00518555 -0.00658592 0.0124582)
(0.00513322 -0.00585859 0.0119522)
(0.0054539 -0.00697792 0.011848)
(0.00515983 -0.0061645 0.0116307)
(0.0050417 -0.00615682 0.0115401)
(0.00509525 -0.00621569 0.0114976)
(0.00512029 -0.00618631 0.0117169)
(0.00553582 -0.00678166 0.0116864)
(0.00505573 -0.00625412 0.0116191)
(0.00523066 -0.00623512 0.0116602)
(0.00512627 -0.00599255 0.0114407)
(0.00511625 -0.00609073 0.0112734)
(0.00522922 -0.00637291 0.0118228)
(0.00519615 -0.00624148 0.0114807)
(0.00533673 -0.00637488 0.0116299)
(0.00544549 -0.00702265 0.0127856)
(0.00535598 -0.00642088 0.0119749)
(0.0054251 -0.00636675 0.0119294)
(0.00510684 -0.00639048 0.0121391)
(0.00536666 -0.00665953 0.0126044)
(0.00577573 -0.00686303 0.0125173)
(0.0053421 -0.00626648 0.0119092)
(0.00514065 -0.00618276 0.0120941)
(0.00582171 -0.00678062 0.0125223)
(0.00494312 -0.00587118 0.0113556)
(0.00591203 -0.0070139 0.0121813)
(0.00518462 -0.00602646 0.0120114)
(0.00548899 -0.00664119 0.0121457)
(0.00558569 -0.0068881 0.0124389)
(0.00521872 -0.00652209 0.011808)
(0.00531828 -0.00667179 0.0117843)
(0.00538544 -0.0065121 0.0115584)
(0.00568355 -0.00706896 0.0120514)
(0.00527905 -0.00632466 0.0116174)
(0.00525251 -0.00651441 0.0118531)
(0.00564116 -0.0068195 0.0121571)
(0.00510446 -0.00627796 0.0119704)
(0.00499987 -0.00640796 0.0117711)
(0.00519452 -0.00647514 0.0115972)
(0.00553424 -0.00666841 0.0120137)
(0.00508505 -0.00622694 0.0116102)
(0.00517095 -0.00623013 0.0117403)
(0.00498048 -0.0061798 0.011727)
(0.005028 -0.00607274 0.0116889)
(0.00507697 -0.00625248 0.0113609)
(0.00550894 -0.00659208 0.0121188)
(0.0052989 -0.00635719 0.0117407)
(0.00502512 -0.00629156 0.0118098)
(0.00535201 -0.00650052 0.0119404)
(0.00503354 -0.0061896 0.0117609)
(0.00524868 -0.0062284 0.0117869)
(0.00530896 -0.00616366 0.0117606)
(0.00552526 -0.00648431 0.0126949)
(0.00552927 -0.00602731 0.0122406)
(0.00501018 -0.00664664 0.0115761)
(0.00491318 -0.00598906 0.010968)
(0.00535197 -0.00649685 0.0120632)
(0.00505726 -0.00651332 0.011484)
(0.0054892 -0.00671325 0.0128212)
(0.00555476 -0.00633282 0.0122854)
(0.00549288 -0.00668972 0.0127662)
(0.00549749 -0.00634442 0.0123211)
(0.00525302 -0.00620006 0.011616)
(0.00544071 -0.00644142 0.0121414)
(0.00498849 -0.00657611 0.0117022)
(0.00543413 -0.00595972 0.0117081)
(0.00517056 -0.00590699 0.0115907)
(0.00522902 -0.00603552 0.0116916)
(0.00555719 -0.00648843 0.0123424)
(0.00524494 -0.00628548 0.0114698)
(0.00537635 -0.00620835 0.0118659)
(0.0053179 -0.00610651 0.0115432)
(0.00528062 -0.00663014 0.0119964)
(0.00507177 -0.00605061 0.011196)
(0.00528203 -0.00623076 0.0115608)
(0.00530897 -0.00642071 0.0117795)
(0.00527123 -0.00638968 0.0118606)
(0.00509749 -0.00659835 0.0120653)
(0.00531143 -0.00642489 0.0118088)
(0.00560371 -0.00631706 0.0118412)
(0.00529041 -0.00621518 0.0116481)
(0.00532291 -0.00694715 0.0121913)
(0.00527535 -0.00635176 0.0116687)
(0.00526284 -0.00643234 0.0118707)
(0.00533467 -0.00661734 0.0118736)
(0.00537377 -0.00647255 0.0118366)
(0.0055125 -0.00658671 0.0120833)
(0.00551662 -0.00621395 0.0120213)
(0.00547816 -0.00648985 0.0122246)
(0.00567741 -0.00698048 0.0129725)
(0.0052954 -0.00672752 0.0120948)
(0.00545136 -0.00624023 0.0120925)
(0.00523087 -0.00621861 0.0114871)
(0.0052132 -0.00679683 0.0123069)
(0.00470989 -0.00649003 0.0116102)
(0.00520264 -0.00651696 0.011919)
(0.00517684 -0.00634149 0.0120948)
(0.00549874 -0.00577864 0.0113677)
(0.00531622 -0.00636831 0.0118852)
(0.00485025 -0.00608291 0.0111795)
(0.00505926 -0.00563932 0.010816)
(0.00535796 -0.00608682 0.0116043)
(0.00484459 -0.00629861 0.0111528)
(0.00476729 -0.00654194 0.0111484)
(0.00490809 -0.00611301 0.0111875)
(0.00508345 -0.0062162 0.0114435)
(0.00466063 -0.00618248 0.0108702)
(0.00519708 -0.00639027 0.0117021)
(0.00523438 -0.00582897 0.0111359)
(0.00467168 -0.0063203 0.0106886)
(0.00500584 -0.00641953 0.0114603)
(0.00469706 -0.00688458 0.0113292)
(0.00486185 -0.00640166 0.0113586)
(0.00500133 -0.00635162 0.0114197)
(0.00481865 -0.0062092 0.0110687)
(0.0053425 -0.00614603 0.0117675)
(0.00545446 -0.00637556 0.0118547)
(0.00503167 -0.00623362 0.0116148)
(0.00482714 -0.00624046 0.0114733)
(0.00527968 -0.00620136 0.0114572)
(0.00492812 -0.00621683 0.0117264)
(0.0052897 -0.00606459 0.0112532)
(0.00509489 -0.00609108 0.0112718)
(0.00516306 -0.00649261 0.0117782)
(0.00519637 -0.00628554 0.0117985)
(0.00482196 -0.00607971 0.011312)
(0.00525812 -0.00634437 0.0115473)
(0.00521672 -0.00641442 0.0120072)
(0.00516505 -0.00609947 0.0116168)
(0.00517133 -0.00635987 0.0116161)
(0.00551637 -0.00650393 0.0118316)
(0.00535354 -0.00657447 0.0117956)
(0.00543328 -0.00689602 0.0126352)
(0.00537861 -0.00664985 0.0119247)
(0.0054361 -0.0066611 0.0125549)
(0.00559498 -0.00696816 0.0125412)
(0.00519942 -0.00636744 0.0124737)
(0.00557309 -0.00711917 0.0129549)
(0.00552711 -0.00657684 0.012676)
(0.00544277 -0.00662974 0.0121765)
(0.00565383 -0.00709587 0.0123226)
(0.00525648 -0.00616718 0.0113434)
(0.00583522 -0.00718612 0.0125056)
(0.00539498 -0.0065589 0.0120127)
(0.00568727 -0.00691823 0.0118115)
(0.00519924 -0.00632486 0.0116991)
(0.0051169 -0.00645689 0.0124087)
(0.0048847 -0.00633776 0.011717)
(0.00535672 -0.00624916 0.0115313)
(0.00523255 -0.00656891 0.0121554)
(0.00567895 -0.00649401 0.0119145)
(0.00507917 -0.00637454 0.0119524)
(0.00549677 -0.00650306 0.0121228)
(0.00546581 -0.00668486 0.0122366)
(0.00536186 -0.00651065 0.0117614)
(0.00522927 -0.0063794 0.0116023)
(0.00547485 -0.00666839 0.0121388)
(0.00526968 -0.00678726 0.0125823)
(0.00491896 -0.00629978 0.0120575)
(0.00548766 -0.00646686 0.0116143)
(0.00517955 -0.00634793 0.011377)
(0.00519482 -0.0064087 0.0115305)
(0.00506393 -0.00655872 0.0124674)
(0.00523303 -0.00615671 0.0109353)
(0.00531132 -0.00648874 0.0118288)
(0.00531475 -0.0063937 0.0116022)
(0.00527845 -0.0062813 0.0115581)
(0.00491829 -0.00644136 0.0116916)
(0.00500689 -0.00625876 0.0121037)
(0.00512281 -0.00639742 0.0119165)
(0.00553801 -0.00664824 0.0122162)
(0.00525329 -0.00639943 0.0117387)
(0.00547686 -0.00663116 0.0121986)
(0.00521391 -0.00694154 0.0124577)
(0.00558061 -0.00643468 0.0121603)
(0.00554589 -0.00659763 0.0120746)
(0.00572641 -0.00644821 0.0121905)
(0.0052331 -0.00656406 0.0119718)
(0.00525256 -0.00624905 0.0115514)
(0.00545344 -0.00603992 0.0115562)
(0.00517372 -0.00657437 0.0118562)
(0.00565073 -0.00610163 0.0118345)
(0.00507408 -0.00631239 0.0113799)
(0.00484001 -0.00653723 0.0115707)
(0.00536569 -0.00609487 0.011665)
(0.00531738 -0.00655302 0.012043)
(0.00516928 -0.0061571 0.0114637)
(0.0051031 -0.00624767 0.0116072)
(0.00505617 -0.0062223 0.011477)
(0.00512534 -0.0062587 0.0114905)
(0.00517503 -0.00620066 0.0115837)
(0.00542939 -0.00659615 0.0120133)
(0.00520009 -0.00651805 0.0117442)
(0.00531564 -0.00635177 0.0112087)
(0.00474977 -0.00580279 0.0111806)
(0.00520612 -0.00635704 0.0112885)
(0.00486548 -0.00594709 0.0112141)
(0.00532405 -0.0064011 0.0114911)
(0.00541363 -0.00660463 0.011932)
(0.00517955 -0.00639043 0.011725)
(0.00500502 -0.00604663 0.0116232)
(0.00515831 -0.00633572 0.0116591)
(0.00516238 -0.00628105 0.0114413)
(0.00530021 -0.00652965 0.0120446)
(0.00557101 -0.00681571 0.0128628)
(0.00551543 -0.00650344 0.0123535)
(0.00536169 -0.00620529 0.0118827)
(0.00546195 -0.00676777 0.0123501)
(0.00522389 -0.00614409 0.0115994)
(0.00593402 -0.00707572 0.0126547)
(0.00514205 -0.00659644 0.0123111)
(0.00566487 -0.0067423 0.0123041)
(0.00576417 -0.00643018 0.0121462)
(0.00528523 -0.00614494 0.011355)
(0.00508161 -0.0061649 0.0115847)
(0.00542392 -0.00678516 0.0123547)
(0.00550084 -0.00674849 0.0123489)
(0.00518283 -0.00651883 0.0122337)
(0.00532392 -0.00646129 0.0119979)
(0.00524052 -0.00642869 0.0120034)
(0.00542934 -0.0070957 0.0130785)
(0.00542145 -0.00664236 0.0127037)
(0.00548017 -0.00661119 0.0124402)
(0.0052383 -0.00660259 0.0118534)
(0.0053822 -0.00633017 0.0119041)
(0.00550635 -0.00669591 0.0122686)
(0.00521839 -0.00674922 0.0128109)
(0.00575963 -0.00676084 0.0124854)
(0.00557956 -0.00686296 0.0131272)
(0.00579515 -0.00678842 0.0122541)
(0.00515821 -0.0064159 0.0117335)
(0.00522493 -0.00630667 0.0116237)
(0.00564723 -0.0061384 0.0118999)
(0.00524145 -0.00688809 0.0121534)
(0.00546337 -0.0066935 0.0123309)
(0.00565288 -0.00651949 0.0124288)
(0.00549882 -0.00687243 0.0124553)
(0.00534791 -0.00658568 0.0119954)
(0.00572165 -0.00629757 0.0121348)
(0.0050892 -0.00676595 0.0121513)
(0.005439 -0.00635429 0.0116125)
(0.00520161 -0.00666523 0.0119078)
(0.00531262 -0.00630458 0.0118451)
(0.00525651 -0.00647419 0.012079)
(0.00509353 -0.00622399 0.0115196)
(0.00534346 -0.00614598 0.0116307)
(0.00533635 -0.00620273 0.0115805)
(0.0054491 -0.00625044 0.0117143)
(0.00491664 -0.00642256 0.011623)
(0.00537925 -0.00642414 0.0120851)
(0.005745 -0.00642645 0.012183)
(0.00534555 -0.00633728 0.0117047)
(0.00557537 -0.00623386 0.0121441)
(0.00542468 -0.00660895 0.0119625)
(0.00506541 -0.00596942 0.0115864)
(0.00533531 -0.00589195 0.0117735)
(0.00485896 -0.00587838 0.0110213)
(0.00513717 -0.00600995 0.0113007)
(0.00529542 -0.00619379 0.0120687)
(0.0055473 -0.00651654 0.0122571)
(0.00542377 -0.00620838 0.0119417)
(0.0050575 -0.00641979 0.0117223)
(0.00554592 -0.00668715 0.0124326)
(0.00540207 -0.00686836 0.0121395)
(0.00567086 -0.00630582 0.0119749)
(0.00534018 -0.00649525 0.0117577)
(0.00532213 -0.00631192 0.0116838)
(0.00501929 -0.00638439 0.0114493)
(0.00534326 -0.00656993 0.0120605)
(0.00511823 -0.0063669 0.0115325)
(0.00543825 -0.00637864 0.0121029)
(0.00504941 -0.00624283 0.0115647)
(0.00510016 -0.00609077 0.0116488)
(0.00511306 -0.00621775 0.0117152)
(0.00522351 -0.00654115 0.0117398)
(0.00527507 -0.00601471 0.0114073)
(0.00498333 -0.00631348 0.0114202)
(0.00500983 -0.00608873 0.0113166)
(0.00528564 -0.00623168 0.0116538)
(0.00512463 -0.00633906 0.011706)
(0.00502551 -0.00639371 0.0115247)
(0.00496488 -0.00597533 0.0111799)
(0.00540023 -0.00630248 0.0119591)
(0.00526913 -0.00601603 0.011475)
(0.0052596 -0.00591246 0.0115383)
(0.00514071 -0.00603076 0.0115697)
(0.00503711 -0.00596555 0.0112825)
(0.00541885 -0.0063606 0.0119825)
(0.00498224 -0.00595851 0.0112482)
(0.00505145 -0.00607417 0.0120422)
(0.00509481 -0.00593695 0.011629)
(0.00513228 -0.00688858 0.0116965)
(0.00555167 -0.00659189 0.0121327)
(0.0053979 -0.00653115 0.0121777)
(0.00519443 -0.00621008 0.0117475)
(0.0053571 -0.00622568 0.0120513)
(0.00520336 -0.00653341 0.0116688)
(0.00542535 -0.0064242 0.0121495)
(0.00474549 -0.00585334 0.0108984)
(0.00488141 -0.00625253 0.0113102)
(0.00493451 -0.0064079 0.0115378)
(0.00506124 -0.00604165 0.011475)
(0.00485878 -0.00614996 0.0111728)
(0.0047936 -0.00608585 0.0110541)
(0.00521806 -0.0062599 0.0116758)
(0.00516779 -0.00616227 0.0113744)
(0.00503427 -0.00601479 0.0112659)
(0.005369 -0.0060143 0.0116215)
(0.00503696 -0.00625423 0.0116784)
(0.00492001 -0.00609153 0.0113255)
(0.00598853 -0.0074393 0.0125187)
(0.00541906 -0.00668027 0.0121057)
(0.00501022 -0.00611414 0.0116604)
(0.00509426 -0.00624131 0.0115858)
(0.00547355 -0.00668514 0.0120013)
(0.0051025 -0.00633143 0.012274)
(0.00505244 -0.00607605 0.0116873)
(0.00510278 -0.00616534 0.0117672)
(0.00501625 -0.00626905 0.0113191)
(0.00506564 -0.00631963 0.0113799)
(0.00487736 -0.00597705 0.0114338)
(0.00520284 -0.00626315 0.0123467)
(0.00544256 -0.00635742 0.0120877)
(0.005211 -0.00630118 0.0110199)
(0.00550894 -0.00670777 0.0117366)
(0.00551164 -0.00681488 0.0120045)
(0.00564584 -0.00663103 0.0119739)
(0.00495571 -0.00623753 0.0116222)
(0.00516834 -0.00609323 0.0112927)
(0.0056088 -0.00663137 0.0117919)
(0.00619556 -0.00700437 0.0131583)
(0.00523485 -0.0058483 0.0118918)
(0.00492775 -0.00597619 0.0115685)
(0.00485313 -0.0059505 0.0114991)
(0.00541392 -0.00633397 0.0122432)
(0.00499261 -0.00625771 0.0112843)
(0.00523809 -0.00640733 0.0117563)
(0.00559987 -0.00695915 0.012382)
(0.0057466 -0.00729748 0.0126029)
(0.00514112 -0.00713835 0.0117983)
(0.00540108 -0.00648553 0.0120376)
(0.00517415 -0.00629111 0.0117735)
(0.005165 -0.00654886 0.0118849)
(0.00507464 -0.00643249 0.0117531)
(0.00520678 -0.0066009 0.0117874)
(0.00531223 -0.00611758 0.0114622)
(0.0053613 -0.0065506 0.0121302)
(0.00527501 -0.00678637 0.0126336)
(0.00561685 -0.00660381 0.0121151)
(0.00590439 -0.00703738 0.0129107)
(0.00521892 -0.00643841 0.0119255)
(0.00578154 -0.00669559 0.0123307)
(0.00531513 -0.00634304 0.011631)
(0.00556341 -0.00656122 0.0121753)
(0.00540373 -0.00664008 0.0121002)
(0.00539552 -0.00674485 0.0123845)
(0.005308 -0.00674763 0.0123943)
(0.0054989 -0.00652924 0.0120652)
(0.00539346 -0.00716743 0.012856)
(0.00548715 -0.00671789 0.0123927)
(0.00492502 -0.00681448 0.0121395)
(0.00536795 -0.00655705 0.0118678)
(0.00537122 -0.00690489 0.0129145)
(0.00563572 -0.00640173 0.0121437)
(0.00545578 -0.00649934 0.0118764)
(0.00518536 -0.00615904 0.0111889)
(0.00530194 -0.00610333 0.0115759)
(0.00519465 -0.00600386 0.011117)
(0.00505352 -0.0061064 0.0114504)
(0.00528066 -0.00652481 0.0119416)
(0.00531753 -0.00631381 0.011693)
(0.00516402 -0.00618318 0.0115643)
(0.00550274 -0.00641596 0.0118665)
(0.00509873 -0.00647358 0.0119935)
(0.00525525 -0.00642468 0.0120304)
(0.00504655 -0.00635439 0.0117128)
(0.00542076 -0.00650629 0.0119559)
(0.00525267 -0.00643826 0.0116958)
(0.00536739 -0.00681934 0.012396)
(0.00534964 -0.00669609 0.0123963)
(0.00545665 -0.00661813 0.0123021)
(0.00517592 -0.00627502 0.0115495)
(0.00532511 -0.00646369 0.012125)
(0.00542858 -0.00643309 0.0117681)
(0.00526837 -0.00635645 0.0116682)
(0.00510643 -0.00624008 0.0116625)
(0.00576521 -0.00732826 0.0125499)
(0.00561902 -0.00645062 0.0123794)
(0.00516497 -0.00673467 0.0119137)
(0.0052631 -0.00684772 0.0128143)
(0.00566558 -0.00689601 0.0119231)
(0.00568289 -0.00733113 0.0126548)
(0.00533032 -0.00674572 0.0121496)
(0.00523772 -0.00647154 0.0123175)
(0.00545901 -0.0065558 0.0121399)
(0.00524278 -0.0062564 0.0117696)
(0.00537674 -0.00633561 0.0122212)
(0.00524319 -0.00669091 0.0124592)
(0.00525699 -0.00600651 0.0115109)
(0.00521416 -0.00673684 0.0124616)
(0.00535759 -0.00683607 0.0125248)
(0.00515198 -0.00618663 0.0113466)
(0.00569661 -0.00590337 0.0116119)
(0.00495251 -0.00619226 0.0116228)
(0.00523012 -0.00615683 0.0119463)
(0.00514273 -0.00607919 0.0115391)
(0.00465617 -0.00621833 0.0113214)
(0.00526092 -0.00625507 0.0116412)
(0.00572356 -0.00604923 0.0114291)
(0.00497331 -0.00617108 0.0113553)
(0.0055373 -0.00642402 0.0120113)
(0.00521553 -0.00644041 0.0122244)
(0.00536058 -0.00638344 0.0117009)
(0.0051471 -0.00634519 0.0118295)
(0.00503881 -0.00641962 0.0111546)
(0.00524529 -0.00669127 0.0116551)
(0.00512472 -0.00621043 0.0116054)
(0.00503324 -0.00629509 0.0112893)
(0.00503133 -0.00596634 0.0113764)
(0.00517825 -0.00638405 0.0116904)
(0.0050655 -0.0060161 0.0112284)
(0.00516714 -0.00625955 0.0117868)
(0.00501856 -0.00624702 0.0114587)
(0.00508107 -0.005708 0.0112503)
(0.00538143 -0.00633981 0.0119044)
(0.00509087 -0.00619703 0.0113838)
(0.00498887 -0.00631709 0.0116632)
(0.00501931 -0.00620459 0.0114615)
(0.00502114 -0.00617836 0.0113397)
(0.00494664 -0.00598181 0.010968)
(0.00524626 -0.00627883 0.0115109)
(0.00489076 -0.00601829 0.0112436)
(0.00516104 -0.0059729 0.0114682)
(0.0054381 -0.00634213 0.0117558)
(0.00512965 -0.00596276 0.0109563)
(0.00506881 -0.00620344 0.011238)
(0.0051265 -0.00609543 0.0114336)
(0.00547246 -0.00679294 0.0122648)
(0.00543097 -0.00637617 0.0120807)
(0.00487959 -0.00643015 0.0120292)
(0.00547873 -0.00642064 0.0120408)
(0.00568684 -0.00656211 0.0119131)
(0.00494618 -0.0063466 0.0113205)
(0.00529459 -0.00649635 0.0122386)
(0.00536077 -0.00650157 0.0119905)
(0.00543921 -0.0065211 0.0119036)
(0.00530621 -0.00638324 0.0119929)
(0.00518521 -0.00623418 0.0112943)
(0.00554955 -0.00665957 0.011908)
(0.00514346 -0.00625007 0.0115814)
(0.00508924 -0.00616479 0.0116541)
(0.00529646 -0.00617088 0.0122891)
(0.00553965 -0.00645378 0.0114578)
(0.00526328 -0.00609125 0.0115767)
(0.00588592 -0.00671608 0.0121048)
(0.00543387 -0.00644492 0.0119577)
(0.00537049 -0.00656148 0.0118169)
(0.00502226 -0.00632614 0.0111363)
(0.00532391 -0.00661495 0.0119415)
(0.00535294 -0.00687721 0.0120823)
(0.00590027 -0.00666743 0.0128817)
(0.00528615 -0.00669863 0.0120584)
(0.00544388 -0.0059814 0.0118433)
(0.00539827 -0.00632053 0.0117366)
(0.00544465 -0.00651394 0.0118663)
(0.00544911 -0.00644109 0.0118572)
(0.00537297 -0.00620787 0.0117779)
(0.00498376 -0.00619674 0.0116042)
(0.00516108 -0.00629975 0.0114961)
(0.00488361 -0.00603169 0.0116227)
(0.0051415 -0.00652812 0.0116328)
(0.00551816 -0.00694914 0.0126868)
(0.00485422 -0.00578408 0.0113917)
(0.0053207 -0.00604985 0.0123864)
(0.00538559 -0.00631026 0.0126919)
(0.00500061 -0.00610073 0.0120202)
(0.0049809 -0.00594597 0.0114781)
(0.00534653 -0.0067962 0.0125551)
(0.00513073 -0.00614984 0.0118369)
(0.00603369 -0.00727368 0.0120178)
(0.0055608 -0.00627953 0.0121207)
(0.00586072 -0.00723567 0.011816)
(0.00612047 -0.00709428 0.0123142)
(0.00647244 -0.0071994 0.0122883)
(0.004821 -0.00615303 0.0114989)
(0.00523131 -0.00629645 0.0125068)
(0.00539831 -0.00695231 0.0120018)
(0.00569953 -0.0068085 0.0115995)
(0.00535829 -0.00641601 0.0116768)
(0.00508523 -0.00618755 0.0114571)
(0.00525164 -0.00625838 0.0114244)
(0.00503474 -0.00655446 0.0116801)
(0.00492785 -0.00630496 0.0114523)
(0.00514258 -0.00613864 0.0114135)
(0.00523371 -0.00625321 0.0116686)
(0.00531833 -0.00650095 0.012058)
(0.00503518 -0.00645172 0.0114705)
(0.00505181 -0.00649344 0.0115083)
(0.00506849 -0.00638459 0.0114891)
(0.00474423 -0.00617402 0.01107)
(0.00499063 -0.00627003 0.0113256)
(0.0049352 -0.00608948 0.0113019)
(0.00519461 -0.00603106 0.0116826)
(0.00493741 -0.00641555 0.0113815)
(0.00493583 -0.00639368 0.011286)
(0.00511877 -0.00637998 0.0116109)
(0.00517719 -0.00619715 0.0114711)
(0.00507219 -0.00621839 0.0113681)
(0.00508165 -0.00623653 0.0113923)
(0.00524585 -0.00664182 0.0117011)
(0.00549148 -0.0066406 0.0121729)
(0.00540862 -0.00640345 0.0119899)
(0.00506446 -0.00652906 0.011221)
(0.00474583 -0.00643755 0.0112971)
(0.00512153 -0.00620485 0.0115282)
(0.00566309 -0.00716091 0.012343)
(0.00537475 -0.00631179 0.0118278)
(0.00517819 -0.00652142 0.0118582)
(0.00500478 -0.00633013 0.011493)
(0.00522576 -0.00629035 0.011721)
(0.00538901 -0.00637538 0.0119123)
(0.00523598 -0.00656372 0.0119196)
(0.00543675 -0.00662901 0.0122183)
(0.005266 -0.0066025 0.012046)
(0.00539494 -0.00622075 0.0117646)
(0.00545929 -0.00636434 0.0118964)
(0.00537871 -0.00637732 0.0118296)
(0.0053807 -0.00631197 0.011789)
(0.00520031 -0.00624708 0.0117699)
(0.00541681 -0.00653105 0.0120575)
(0.00578186 -0.00682008 0.0126157)
(0.00550827 -0.00664735 0.0122758)
(0.00532713 -0.00692072 0.0126324)
(0.00578129 -0.00642104 0.0119609)
(0.00543021 -0.00714641 0.0126127)
(0.00581638 -0.00638206 0.0124781)
(0.00527838 -0.00642291 0.011887)
(0.00543374 -0.0064389 0.0118929)
(0.00528289 -0.00651704 0.0119261)
(0.00557293 -0.00616112 0.0120588)
(0.00574921 -0.00676071 0.0124846)
(0.00526701 -0.0065857 0.0121346)
(0.00572686 -0.00659411 0.0118871)
(0.00538104 -0.00665827 0.0121274)
(0.00537521 -0.00644608 0.0119844)
(0.00538452 -0.00691419 0.0125282)
(0.00530737 -0.00653004 0.0122099)
(0.0057244 -0.00672669 0.0125139)
(0.00564616 -0.00655329 0.0122269)
(0.00536857 -0.00627463 0.0116655)
(0.00586994 -0.00695478 0.0128604)
(0.00596602 -0.00750068 0.01305)
(0.00557549 -0.00660959 0.0123064)
(0.00564459 -0.00715817 0.0130842)
(0.0053188 -0.00670291 0.0125859)
(0.005576 -0.00685842 0.01269)
(0.00538075 -0.00663874 0.0124168)
(0.00533931 -0.00667034 0.0126671)
(0.00606521 -0.00716364 0.0126146)
(0.00566212 -0.00658011 0.0119417)
(0.00552433 -0.00662114 0.0118205)
(0.0054943 -0.00663096 0.0121455)
(0.00545522 -0.00682086 0.0126863)
(0.00584411 -0.00677542 0.0126226)
(0.00563514 -0.00657878 0.0121012)
(0.00562679 -0.00723455 0.0130244)
(0.00496857 -0.00622716 0.0115427)
(0.00515267 -0.00630482 0.0117044)
(0.00520218 -0.00644545 0.0119042)
(0.00526534 -0.0063457 0.0118184)
(0.00509971 -0.00619092 0.0116079)
(0.00512279 -0.00655888 0.0118122)
(0.00509032 -0.00603568 0.0112158)
(0.00536659 -0.00644149 0.0120737)
(0.00542088 -0.00660813 0.0120688)
(0.00544373 -0.00646668 0.0119052)
(0.00504371 -0.00624309 0.0115485)
(0.0051757 -0.00628427 0.0114781)
(0.00549319 -0.00652073 0.0124968)
(0.005069 -0.00616479 0.0116564)
(0.00571133 -0.00709707 0.0127644)
(0.00521029 -0.00669448 0.0122338)
(0.00541978 -0.00657439 0.0119259)
(0.00520208 -0.00640457 0.0118547)
(0.0051874 -0.00615814 0.0114094)
(0.00546169 -0.00666429 0.0126015)
(0.00572575 -0.00680791 0.0123657)
(0.00565266 -0.00667073 0.0122252)
(0.00483222 -0.00598596 0.011544)
(0.00592037 -0.00661339 0.0120479)
(0.00552214 -0.00683795 0.0120609)
(0.00519024 -0.00632742 0.0114748)
(0.00515291 -0.00635298 0.0113381)
(0.00509774 -0.00625213 0.0113791)
(0.00541758 -0.00665333 0.0120595)
(0.00532081 -0.00628702 0.0117331)
(0.00531507 -0.00675898 0.0119916)
(0.00479187 -0.00608663 0.0115005)
(0.00526103 -0.00643463 0.0120143)
(0.00526782 -0.00634497 0.0114889)
(0.00518683 -0.00606992 0.0111197)
(0.004941 -0.00598245 0.0110249)
(0.00520591 -0.00622576 0.011637)
(0.00504552 -0.00582087 0.0113218)
(0.00547034 -0.00691922 0.0118388)
(0.00550455 -0.00676494 0.0115371)
(0.00526411 -0.00650226 0.012083)
(0.0053294 -0.0063758 0.0117822)
(0.00506547 -0.00599037 0.0111545)
(0.0049378 -0.00639355 0.0116084)
(0.00502106 -0.00653817 0.0116316)
(0.00516257 -0.00630865 0.0115457)
(0.00516904 -0.00625496 0.0114532)
(0.00513356 -0.00617882 0.0115308)
(0.00504575 -0.00646446 0.0116318)
(0.00527489 -0.00634933 0.0118081)
(0.00509841 -0.00621862 0.0114357)
(0.00511393 -0.00626478 0.0114895)
(0.00521246 -0.00641924 0.011777)
(0.00511297 -0.00621672 0.0114433)
(0.00511647 -0.00611277 0.0114361)
(0.00529671 -0.00640314 0.0118809)
(0.00513229 -0.00638809 0.0117431)
(0.00534501 -0.00642695 0.0119569)
(0.00562072 -0.00632393 0.0122373)
(0.00564972 -0.00645749 0.012105)
(0.00526916 -0.00638302 0.0117452)
(0.00540528 -0.00627319 0.0118061)
(0.00536172 -0.00657341 0.011997)
(0.00503599 -0.00664761 0.0118697)
(0.00525031 -0.00641183 0.0117313)
(0.00510464 -0.00607548 0.0112544)
(0.00551386 -0.00643768 0.0119681)
(0.00504398 -0.00631531 0.011659)
(0.00531778 -0.00648704 0.0119955)
(0.00503117 -0.00635123 0.0115126)
(0.00513691 -0.00652935 0.0116394)
(0.0054817 -0.00618808 0.011619)
(0.00529505 -0.00618613 0.0116674)
(0.00509399 -0.0065212 0.0117052)
(0.00535302 -0.00636416 0.0115967)
(0.00538078 -0.00638735 0.011915)
(0.00536467 -0.00603696 0.0111737)
(0.00529278 -0.00594199 0.0112741)
(0.00500081 -0.0062783 0.0116242)
(0.00530194 -0.00651893 0.0119765)
(0.00526321 -0.00661411 0.0120169)
(0.00511214 -0.00637699 0.0117316)
(0.00504156 -0.00620681 0.0114086)
(0.00536093 -0.00617883 0.0116156)
(0.0053189 -0.0064626 0.0120017)
(0.00535695 -0.00636522 0.0116953)
(0.00542706 -0.00642511 0.0119079)
(0.00508751 -0.0063499 0.0119046)
(0.00548352 -0.00659811 0.0119775)
(0.0050573 -0.00611347 0.0114841)
(0.0053356 -0.00626398 0.0117379)
(0.00537468 -0.00636018 0.0120262)
(0.00506673 -0.00651736 0.0122351)
(0.00509397 -0.00611706 0.011626)
(0.00527676 -0.00605003 0.0113633)
(0.00537891 -0.00641507 0.0118221)
(0.00520564 -0.00629575 0.0115738)
(0.00536799 -0.00637619 0.0117341)
(0.00493786 -0.00624528 0.0117472)