/*--------------------------------*- C++ -*----------------------------------*\
| =========                 |                                                 |
| \\      /  F ield         | OpenFOAM: The Open Source CFD Toolbox           |
|  \\    /   O peration     | Version:  v1612+                                |
|   \\  /    A nd           | Web:      www.OpenFOAM.com                      |
|    \\/     M anipulation  |                                                 |
\*---------------------------------------------------------------------------*/
FoamFile
{
    version     2.0;
    format      ascii;
    class       volVectorField;
    location    "206";
    object      U;
}
// * * * * * * * * * * * * * * * * * * * * * * * * * * * * * * * * * * * * * //

dimensions      [0 1 -1 0 0 0 0];

internalField   nonuniform List<vector> 
18834
(
(-0.523857 -0.149524 -0.18019)
(-0.78473 -0.184894 -0.376064)
(-0.838326 -0.0752269 -0.4841)
(-0.831119 -0.0651157 -0.484107)
(-0.833492 -0.0656082 -0.482992)
(-0.828027 -0.0672221 -0.484022)
(-0.770306 -0.0590134 -0.455212)
(-0.712589 -0.0548608 -0.418623)
(-0.721853 -0.0572659 -0.428798)
(-0.818665 -0.0691189 -0.468153)
(-0.816717 -0.0735065 -0.472701)
(-0.696057 -0.0549698 -0.404267)
(-0.722699 -0.0604436 -0.412451)
(-0.794238 -0.0554121 -0.469549)
(-0.738997 -0.0540032 -0.437675)
(-0.757262 -0.0693324 -0.438374)
(-0.805687 -0.0697596 -0.473273)
(-0.752967 -0.0614602 -0.451095)
(-0.731161 -0.0492331 -0.439468)
(-0.727211 -0.126141 -0.410554)
(-0.749252 -0.134175 -0.427516)
(-0.726426 -0.11398 -0.408621)
(-0.758725 -0.128361 -0.432105)
(-0.700358 -0.117681 -0.386957)
(-0.780876 -0.130802 -0.436042)
(-0.761877 -0.12068 -0.420487)
(-0.729474 -0.137 -0.411889)
(-0.719508 -0.124775 -0.404635)
(-0.715228 -0.119975 -0.397527)
(-0.685172 -0.120966 -0.383061)
(-0.787842 -0.133048 -0.446104)
(-0.800671 -0.133961 -0.449576)
(-0.718016 -0.131051 -0.405478)
(-0.75072 -0.138722 -0.431554)
(-0.57406 -0.0455379 -0.380734)
(-0.534562 -0.0570779 -0.341734)
(-0.486897 -0.0512532 -0.295834)
(-0.441429 -0.0500923 -0.272182)
(-0.457853 -0.049713 -0.271437)
(-0.521056 -0.0805565 -0.30893)
(-0.478478 -0.078749 -0.266483)
(-0.469782 -0.0741894 -0.259458)
(-0.485538 -0.0769367 -0.278033)
(-0.492696 -0.0758462 -0.285297)
(-0.627444 -0.103055 -0.396221)
(-0.540333 -0.091151 -0.329322)
(-0.573772 -0.0954688 -0.340345)
(-0.581554 -0.0960984 -0.349672)
(-0.506955 -0.0846355 -0.295562)
(-0.443221 -0.0720945 -0.234552)
(-0.453642 -0.0686609 -0.250835)
(-0.57982 -0.0916672 -0.358184)
(-0.59835 -0.0998436 -0.371688)
(-0.525958 -0.0903675 -0.32322)
(-0.576236 -0.0969891 -0.34877)
(-0.504178 -0.0980074 -0.228004)
(-0.461229 -0.095046 -0.189726)
(-0.440684 -0.102555 -0.174289)
(-0.49621 -0.0949004 -0.222837)
(-0.471721 -0.0989945 -0.200356)
(-0.448403 -0.100857 -0.172889)
(-0.413079 -0.104204 -0.146951)
(-0.425123 -0.104745 -0.155235)
(-0.535921 -0.106138 -0.245271)
(-0.485002 -0.118865 -0.199102)
(-0.465566 -0.103682 -0.185953)
(-0.447479 -0.110131 -0.170807)
(-0.478557 -0.12458 -0.190825)
(-0.437118 -0.115344 -0.167332)
(-0.469192 -0.117106 -0.18718)
(-0.500171 -0.120065 -0.205059)
(-0.961663 -0.180858 -0.460902)
(-0.967122 -0.187711 -0.460942)
(-0.958917 -0.187821 -0.450726)
(-0.963311 -0.194758 -0.449246)
(-0.95648 -0.171944 -0.456906)
(-0.963584 -0.185876 -0.456311)
(-0.956615 -0.194074 -0.440002)
(-0.928879 -0.197947 -0.414446)
(-0.960079 -0.198801 -0.438773)
(-0.95414 -0.188824 -0.443178)
(-0.941003 -0.202261 -0.422807)
(-0.935041 -0.193796 -0.424279)
(-0.957251 -0.181968 -0.457281)
(-0.955128 -0.185254 -0.45144)
(-0.941384 -0.166108 -0.448687)
(-0.953075 -0.185411 -0.444789)
(-0.942822 -0.197639 -0.427051)
(-0.947278 -0.178152 -0.448243)
(-0.949284 -0.188709 -0.441438)
(-0.953146 -0.200913 -0.429727)
(-0.764828 -0.201942 -0.386461)
(-0.786288 -0.195872 -0.398626)
(-0.871984 -0.198895 -0.456986)
(-0.872398 -0.206399 -0.459201)
(-0.909745 -0.19543 -0.473107)
(-0.743096 -0.197627 -0.368661)
(-0.699791 -0.195434 -0.345849)
(-0.792031 -0.203839 -0.405512)
(-0.69895 -0.199195 -0.357092)
(-0.76113 -0.206483 -0.395018)
(-0.825667 -0.203665 -0.436517)
(-0.751925 -0.20252 -0.378146)
(-0.716503 -0.200595 -0.362505)
(-0.695912 -0.203388 -0.354453)
(-0.720226 -0.198048 -0.374305)
(-0.666058 -0.199122 -0.33006)
(-0.827608 -0.202367 -0.447951)
(-0.775095 -0.200514 -0.407305)
(-0.844975 -0.201532 -0.46251)
(-0.929492 -0.169752 -0.496322)
(-0.934438 -0.169902 -0.491156)
(-0.911468 -0.20595 -0.491437)
(-0.915912 -0.197677 -0.488158)
(-0.913097 -0.159262 -0.479477)
(-0.905408 -0.179836 -0.480849)
(-0.94299 -0.196145 -0.50767)
(-0.943253 -0.20354 -0.508653)
(-0.929619 -0.184072 -0.485877)
(-0.936418 -0.200082 -0.505611)
(-0.895922 -0.222312 -0.484042)
(-0.924295 -0.217622 -0.495238)
(-0.924474 -0.211949 -0.496089)
(-0.909173 -0.220263 -0.484066)
(-0.931431 -0.203397 -0.506065)
(-0.906745 -0.21554 -0.495367)
(-0.920939 -0.229946 -0.491857)
(-0.908843 -0.227929 -0.488826)
(-0.713103 -0.251151 -0.305696)
(-0.733256 -0.257042 -0.309446)
(-0.738238 -0.253458 -0.326934)
(-0.749005 -0.247517 -0.319948)
(-0.708199 -0.257302 -0.302655)
(-0.659505 -0.242635 -0.283543)
(-0.731498 -0.255011 -0.32181)
(-0.695812 -0.250183 -0.303696)
(-0.806745 -0.228516 -0.379004)
(-0.807509 -0.219825 -0.387839)
(-0.727189 -0.248974 -0.309151)
(-0.712013 -0.250329 -0.300055)
(-0.761814 -0.276073 -0.333483)
(-0.713898 -0.256862 -0.310541)
(-0.770212 -0.281873 -0.340636)
(-0.817295 -0.260535 -0.381832)
(-0.826337 -0.249879 -0.392061)
(-0.762367 -0.224608 -0.335804)
(-0.760852 -0.232169 -0.337775)
(-0.762795 -0.225331 -0.337387)
(-0.723406 -0.254913 -0.309052)
(-0.770734 -0.276938 -0.340301)
(-0.818673 -0.23751 -0.388816)
(-0.812821 -0.253898 -0.381846)
(-0.472299 -0.0945558 -0.175843)
(-0.489723 -0.101084 -0.18539)
(-0.436216 -0.0927972 -0.162748)
(-0.483815 -0.10234 -0.190357)
(-0.541546 -0.113969 -0.217315)
(-0.551846 -0.109833 -0.237353)
(-0.583784 -0.111917 -0.266322)
(-0.570951 -0.10871 -0.252293)
(-0.494944 -0.103498 -0.19269)
(-0.542125 -0.105095 -0.240714)
(-0.568454 -0.111291 -0.262237)
(-0.561415 -0.113851 -0.245281)
(-0.472435 -0.0980176 -0.172495)
(-0.468394 -0.0903212 -0.186911)
(-0.483086 -0.0899865 -0.195762)
(-0.421009 -0.0883027 -0.153132)
(-0.475135 -0.0907612 -0.194563)
(-0.478967 -0.0936031 -0.187346)
(-0.459126 -0.0865177 -0.184532)
(-0.420496 -0.0845703 -0.157504)
(-0.899912 -0.133818 -0.484025)
(-0.89281 -0.122918 -0.495247)
(-0.908262 -0.125349 -0.49253)
(-0.903499 -0.112081 -0.512615)
(-0.898768 -0.138004 -0.490289)
(-0.914379 -0.126147 -0.500592)
(-0.913979 -0.130031 -0.491816)
(-0.881828 -0.124645 -0.466681)
(-0.911651 -0.122224 -0.50224)
(-0.85776 -0.122946 -0.470881)
(-0.77546 -0.111518 -0.402902)
(-0.868687 -0.130783 -0.443042)
(-0.758312 -0.116758 -0.36322)
(-0.897064 -0.123469 -0.49436)
(-0.819622 -0.12468 -0.413304)
(-0.82286 -0.105962 -0.438181)
(-0.867828 -0.130164 -0.451091)
(-0.800913 -0.111403 -0.408525)
(-0.749276 -0.104772 -0.371417)
(-0.615925 -0.120479 -0.354875)
(-0.571645 -0.110631 -0.316257)
(-0.575268 -0.102347 -0.317877)
(-0.575592 -0.102154 -0.320727)
(-0.612895 -0.113495 -0.351178)
(-0.58125 -0.109557 -0.319925)
(-0.619317 -0.110486 -0.346262)
(-0.66028 -0.12743 -0.389655)
(-0.62437 -0.12065 -0.359448)
(-0.658271 -0.11442 -0.385575)
(-0.621536 -0.109653 -0.352163)
(-0.68317 -0.126605 -0.399002)
(-0.672076 -0.122664 -0.390263)
(-0.637868 -0.125672 -0.368524)
(-0.598082 -0.103815 -0.32101)
(-0.552058 -0.101592 -0.293096)
(-0.656713 -0.115395 -0.377305)
(-0.676389 -0.118146 -0.391266)
(-0.701651 -0.129237 -0.411358)
(-0.62512 -0.109098 -0.354412)
(-0.589792 -0.19412 -0.241414)
(-0.630248 -0.195473 -0.268834)
(-0.587301 -0.194549 -0.237555)
(-0.529801 -0.182886 -0.205614)
(-0.577427 -0.1704 -0.235226)
(-0.595234 -0.188845 -0.248603)
(-0.562422 -0.154169 -0.219416)
(-0.590389 -0.161896 -0.231821)
(-0.549872 -0.160059 -0.202413)
(-0.657039 -0.178767 -0.297051)
(-0.651641 -0.169345 -0.285924)
(-0.666299 -0.177477 -0.306)
(-0.575885 -0.148645 -0.237249)
(-0.560638 -0.173651 -0.223942)
(-0.532291 -0.173911 -0.203456)
(-0.555091 -0.163832 -0.211353)
(-0.561258 -0.169 -0.21459)
(-0.533335 -0.17025 -0.1961)
(-0.615845 -0.190794 -0.257212)
(-0.690378 -0.186258 -0.32312)
(-0.623914 -0.150399 -0.273037)
(-0.905155 -0.101129 -0.536173)
(-0.906944 -0.09474 -0.548668)
(-0.864367 -0.103934 -0.504134)
(-0.823201 -0.10346 -0.469609)
(-0.810929 -0.106903 -0.49801)
(-0.783965 -0.109899 -0.473961)
(-0.789342 -0.10156 -0.446382)
(-0.889932 -0.102394 -0.550616)
(-0.907791 -0.0994384 -0.554195)
(-0.798264 -0.109871 -0.47379)
(-0.832719 -0.108893 -0.503637)
(-0.832368 -0.114833 -0.512298)
(-0.791877 -0.103772 -0.465022)
(-0.874076 -0.108745 -0.523173)
(-0.769215 -0.102204 -0.454445)
(-0.762624 -0.194339 -0.388149)
(-0.782431 -0.185507 -0.407468)
(-0.76708 -0.166056 -0.394963)
(-0.747451 -0.166846 -0.382453)
(-0.781892 -0.20057 -0.399477)
(-0.77426 -0.188331 -0.395002)
(-0.776555 -0.159889 -0.4025)
(-0.77468 -0.193474 -0.386086)
(-0.730349 -0.218375 -0.350723)
(-0.784413 -0.176486 -0.396551)
(-0.724551 -0.211608 -0.367374)
(-0.675117 -0.216508 -0.333958)
(-0.708741 -0.218158 -0.351727)
(-0.685274 -0.161084 -0.333622)
(-0.667984 -0.179651 -0.314041)
(-0.742285 -0.156771 -0.376206)
(-0.717557 -0.154489 -0.364684)
(-0.679481 -0.208204 -0.300378)
(-0.63703 -0.193018 -0.271808)
(-0.662634 -0.217942 -0.29406)
(-0.618215 -0.208882 -0.262425)
(-0.678656 -0.221696 -0.301565)
(-0.704852 -0.227348 -0.31538)
(-0.700396 -0.137821 -0.338635)
(-0.688226 -0.132123 -0.338462)
(-0.681655 -0.162171 -0.30821)
(-0.673108 -0.159405 -0.302545)
(-0.655375 -0.175543 -0.268156)
(-0.695216 -0.188874 -0.314571)
(-0.731003 -0.197383 -0.343394)
(-0.638542 -0.196534 -0.266156)
(-0.623927 -0.197964 -0.258731)
(-0.726281 -0.199526 -0.334383)
(-0.755394 -0.183879 -0.361719)
(-0.663027 -0.216942 -0.28279)
(-0.745823 -0.149263 -0.365913)
(-0.724456 -0.167742 -0.338389)
(-0.771759 -0.149938 -0.382151)
(-0.737641 -0.148174 -0.356305)
(-0.672303 -0.170683 -0.292227)
(-0.645539 -0.202518 -0.264574)
(-0.758616 -0.197209 -0.361543)
(-0.755314 -0.18507 -0.361315)
(-0.516755 -0.0784987 -0.275707)
(-0.514907 -0.0762441 -0.268099)
(-0.441082 -0.0736637 -0.210758)
(-0.421717 -0.0709184 -0.189433)
(-0.500426 -0.0717389 -0.267905)
(-0.456729 -0.0699416 -0.20731)
(-0.463218 -0.0717733 -0.222356)
(-0.515986 -0.0714811 -0.287171)
(-0.505019 -0.0712324 -0.278132)
(-0.417527 -0.0667447 -0.200362)
(-0.393438 -0.0651111 -0.17463)
(-0.439178 -0.0658991 -0.211142)
(-0.450142 -0.0656845 -0.228766)
(-0.470077 -0.0706119 -0.235407)
(-0.395421 -0.0599902 -0.171391)
(-0.444564 -0.0677968 -0.214582)
(-0.837923 -0.19917 -0.349462)
(-0.841794 -0.18786 -0.353197)
(-0.909284 -0.191298 -0.397412)
(-0.843169 -0.182497 -0.352563)
(-0.798861 -0.187934 -0.32488)
(-0.930778 -0.182284 -0.416891)
(-0.937826 -0.181463 -0.41414)
(-0.84942 -0.189888 -0.358159)
(-0.873493 -0.180258 -0.379634)
(-0.852669 -0.183462 -0.350763)
(-0.837639 -0.188648 -0.364698)
(-0.832639 -0.181621 -0.354666)
(-0.86403 -0.184101 -0.381249)
(-0.885751 -0.184394 -0.399657)
(-0.782567 -0.169859 -0.314539)
(-0.844656 -0.18422 -0.355706)
(-0.53547 -0.0588155 -0.29646)
(-0.505126 -0.0622714 -0.282581)
(-0.547863 -0.0648019 -0.307449)
(-0.504438 -0.0681144 -0.277958)
(-0.63668 -0.0385971 -0.400146)
(-0.625738 -0.0547499 -0.366368)
(-0.535717 -0.0665415 -0.304609)
(-0.502662 -0.0596983 -0.279513)
(-0.577137 -0.0410823 -0.346361)
(-0.593155 -0.0348763 -0.376069)
(-0.651739 -0.0436346 -0.386998)
(-0.645406 -0.0368258 -0.388589)
(-0.630436 -0.0435415 -0.394136)
(-0.599997 -0.0425254 -0.391433)
(-0.634965 -0.0439811 -0.392909)
(-0.618335 -0.0456075 -0.405718)
(-0.527964 -0.0485315 -0.316364)
(-0.540551 -0.0534553 -0.313091)
(-0.586014 -0.0440671 -0.367926)
(-0.607944 -0.0567808 -0.366507)
(-0.55929 -0.0587554 -0.336114)
(-0.531587 -0.0569025 -0.303994)
(-0.496256 -0.0627876 -0.284105)
(-0.605765 -0.0569088 -0.352479)
(-0.848 -0.197576 -0.475967)
(-0.866639 -0.200486 -0.479309)
(-0.800803 -0.205133 -0.442401)
(-0.757699 -0.19826 -0.424571)
(-0.914024 -0.203942 -0.499711)
(-0.919443 -0.186715 -0.5111)
(-0.841568 -0.18954 -0.475297)
(-0.796008 -0.18984 -0.441507)
(-0.842371 -0.183358 -0.479618)
(-0.858102 -0.179714 -0.484607)
(-0.857754 -0.213352 -0.468196)
(-0.823119 -0.212583 -0.461927)
(-0.776371 -0.206586 -0.434864)
(-0.920921 -0.182364 -0.516251)
(-0.920516 -0.18621 -0.513633)
(-0.817738 -0.187673 -0.451876)
(-0.903391 -0.206298 -0.495914)
(-0.855288 -0.21435 -0.474803)
(-0.800601 -0.208787 -0.45694)
(-0.908374 -0.200841 -0.499028)
(-0.658817 -0.16714 -0.289137)
(-0.64049 -0.162627 -0.276157)
(-0.68401 -0.166718 -0.310574)
(-0.691275 -0.165821 -0.312312)
(-0.648662 -0.17718 -0.271556)
(-0.737656 -0.194782 -0.338058)
(-0.762511 -0.21363 -0.340368)
(-0.697648 -0.208755 -0.303928)
(-0.639467 -0.178556 -0.262397)
(-0.666792 -0.168319 -0.293006)
(-0.60751 -0.194091 -0.247874)
(-0.599464 -0.186317 -0.242653)
(-0.751423 -0.196746 -0.350713)
(-0.764279 -0.220861 -0.338575)
(-0.675743 -0.210068 -0.27535)
(-0.680852 -0.183923 -0.285522)
(-0.684111 -0.216835 -0.283888)
(-0.661305 -0.20599 -0.266387)
(-0.76216 -0.210739 -0.335775)
(-0.729323 -0.202684 -0.307803)
(-0.632537 -0.051863 -0.383708)
(-0.576057 -0.0730412 -0.321947)
(-0.568675 -0.0819168 -0.316518)
(-0.62785 -0.0968289 -0.356177)
(-0.573863 -0.100087 -0.311557)
(-0.626979 -0.121297 -0.365587)
(-0.65219 -0.139005 -0.387859)
(-0.595938 -0.10675 -0.341699)
(-0.62013 -0.107793 -0.371645)
(-0.594228 -0.112679 -0.346293)
(-0.590795 -0.118368 -0.346533)
(-0.650508 -0.128987 -0.390124)
(-0.6564 -0.125908 -0.396421)
(-0.572341 -0.106445 -0.334132)
(-0.66531 -0.136596 -0.395374)
(-0.625551 -0.120787 -0.37943)
(-0.731046 -0.138733 -0.445505)
(-0.714466 -0.134371 -0.433903)
(-0.629024 -0.120355 -0.371617)
(-0.694382 -0.121121 -0.418973)
(-0.690254 -0.115641 -0.416973)
(-0.639481 -0.110879 -0.380216)
(-0.815243 -0.178401 -0.404859)
(-0.838634 -0.192687 -0.41096)
(-0.828492 -0.207801 -0.394122)
(-0.797477 -0.175832 -0.387304)
(-0.805321 -0.206208 -0.379561)
(-0.804513 -0.210071 -0.37789)
(-0.854092 -0.237444 -0.412173)
(-0.855489 -0.236081 -0.413206)
(-0.832215 -0.190248 -0.409373)
(-0.842978 -0.213195 -0.406845)
(-0.825235 -0.182253 -0.412255)
(-0.867779 -0.223284 -0.407338)
(-0.818802 -0.220505 -0.377762)
(-0.884974 -0.209901 -0.43704)
(-0.896475 -0.204819 -0.446154)
(-0.785399 -0.210692 -0.380561)
(-0.729979 -0.209395 -0.342508)
(-0.849701 -0.216557 -0.40723)
(-0.853849 -0.211982 -0.414697)
(-0.857973 -0.208858 -0.424796)
(-0.887267 -0.211668 -0.444708)
(-0.79723 -0.207613 -0.396791)
(-0.754678 -0.207834 -0.357286)
(-0.932074 -0.163068 -0.451752)
(-0.941002 -0.175485 -0.446405)
(-0.947058 -0.166897 -0.454842)
(-0.931335 -0.159051 -0.451702)
(-0.945332 -0.186847 -0.4411)
(-0.940756 -0.182218 -0.450272)
(-0.945574 -0.167529 -0.454473)
(-0.926883 -0.152768 -0.4505)
(-0.939201 -0.162253 -0.44468)
(-0.953131 -0.177868 -0.445742)
(-0.9559 -0.181937 -0.447067)
(-0.928764 -0.186091 -0.419684)
(-0.950063 -0.185921 -0.433086)
(-0.944466 -0.194009 -0.426953)
(-0.954791 -0.182992 -0.43974)
(-0.940312 -0.173011 -0.450084)
(-0.958629 -0.198918 -0.430111)
(-0.943012 -0.190511 -0.424752)
(-0.943785 -0.181346 -0.447639)
(-0.944833 -0.19096 -0.427576)
(-0.532219 -0.154624 -0.205524)
(-0.525477 -0.145072 -0.205158)
(-0.552469 -0.146378 -0.224954)
(-0.548091 -0.14085 -0.226107)
(-0.486397 -0.145097 -0.180641)
(-0.583126 -0.135647 -0.244567)
(-0.607011 -0.128973 -0.278001)
(-0.59051 -0.121317 -0.271216)
(-0.504507 -0.137167 -0.185017)
(-0.496832 -0.127098 -0.183486)
(-0.54658 -0.143438 -0.214297)
(-0.539994 -0.131485 -0.216585)
(-0.576544 -0.123824 -0.25605)
(-0.486876 -0.124473 -0.193731)
(-0.460589 -0.130176 -0.172196)
(-0.493149 -0.114561 -0.197117)
(-0.496025 -0.118818 -0.200214)
(-0.490357 -0.131238 -0.186053)
(-0.490089 -0.133976 -0.174927)
(-0.571954 -0.114456 -0.257957)
(-0.556012 -0.114951 -0.237804)
(-0.614072 -0.088784 -0.407359)
(-0.570525 -0.078573 -0.363335)
(-0.637017 -0.0928832 -0.424701)
(-0.56477 -0.0862497 -0.367294)
(-0.538551 -0.0782962 -0.332935)
(-0.643175 -0.0973511 -0.42837)
(-0.642489 -0.101993 -0.422325)
(-0.484293 -0.0698388 -0.26762)
(-0.447774 -0.0713927 -0.254594)
(-0.497049 -0.077297 -0.299751)
(-0.450715 -0.0657236 -0.249689)
(-0.479645 -0.0735335 -0.285389)
(-0.489104 -0.0770446 -0.286876)
(-0.665602 -0.107952 -0.445334)
(-0.641074 -0.104265 -0.413614)
(-0.48692 -0.0685285 -0.285311)
(-0.499647 -0.0711599 -0.299364)
(-0.520279 -0.0830273 -0.322391)
(-0.630755 -0.0975537 -0.412144)
(-0.520312 -0.0808394 -0.329812)
(-0.532773 -0.0832958 -0.324819)
(-0.525818 -0.087142 -0.257947)
(-0.577448 -0.0960917 -0.286211)
(-0.536209 -0.0824508 -0.271905)
(-0.579924 -0.0910206 -0.294695)
(-0.573955 -0.101084 -0.276587)
(-0.602452 -0.0792384 -0.328469)
(-0.588251 -0.0813405 -0.313509)
(-0.552236 -0.085699 -0.277481)
(-0.601619 -0.102549 -0.298219)
(-0.609105 -0.0865678 -0.322667)
(-0.619756 -0.0878272 -0.325212)
(-0.579676 -0.0980339 -0.283762)
(-0.537592 -0.0889328 -0.261844)
(-0.835078 -0.081896 -0.475081)
(-0.795962 -0.0674474 -0.462559)
(-0.815826 -0.0840288 -0.467944)
(-0.807383 -0.0732056 -0.459334)
(-0.806914 -0.0843602 -0.454279)
(-0.836641 -0.0835454 -0.473905)
(-0.790537 -0.0738916 -0.449109)
(-0.815204 -0.0842188 -0.459751)
(-0.803667 -0.0731453 -0.460368)
(-0.775682 -0.0793646 -0.448746)
(-0.767516 -0.0747247 -0.440423)
(-0.720214 -0.0650235 -0.423563)
(-0.732021 -0.0630247 -0.423216)
(-0.786661 -0.0727732 -0.45128)
(-0.766891 -0.0757567 -0.449471)
(-0.725494 -0.0606137 -0.414904)
(-0.738905 -0.0654165 -0.424778)
(-0.730044 -0.0593313 -0.427034)
(-0.501702 -0.130465 -0.187506)
(-0.509311 -0.123698 -0.19918)
(-0.551966 -0.126196 -0.230226)
(-0.538123 -0.138045 -0.207078)
(-0.466844 -0.136539 -0.157491)
(-0.535955 -0.152126 -0.204764)
(-0.518404 -0.131909 -0.198636)
(-0.503011 -0.154047 -0.179118)
(-0.483695 -0.14502 -0.17391)
(-0.447332 -0.0996478 -0.188641)
(-0.407454 -0.09865 -0.164912)
(-0.431052 -0.09303 -0.185129)
(-0.403129 -0.0952465 -0.162464)
(-0.453605 -0.092697 -0.198942)
(-0.507376 -0.0939374 -0.241935)
(-0.439114 -0.103585 -0.179279)
(-0.472311 -0.0994142 -0.198438)
(-0.499667 -0.0866399 -0.237442)
(-0.499836 -0.087363 -0.245019)
(-0.446183 -0.085732 -0.198525)
(-0.436653 -0.0892654 -0.187447)
(-0.498457 -0.0854524 -0.241502)
(-0.462291 -0.0986848 -0.198827)
(-0.450659 -0.0931963 -0.198755)
(-0.896842 -0.0830668 -0.530394)
(-0.898113 -0.082297 -0.53115)
(-0.903769 -0.0865232 -0.545378)
(-0.906995 -0.101 -0.526735)
(-0.903116 -0.0970136 -0.52677)
(-0.900985 -0.101814 -0.526003)
(-0.79633 -0.145883 -0.461759)
(-0.79373 -0.154807 -0.46187)
(-0.801158 -0.110105 -0.463873)
(-0.800211 -0.128121 -0.462827)
(-0.777212 -0.163453 -0.444419)
(-0.732201 -0.173221 -0.401348)
(-0.709036 -0.162217 -0.367661)
(-0.706855 -0.167389 -0.367025)
(-0.737095 -0.163844 -0.408283)
(-0.70927 -0.0849855 -0.402127)
(-0.702006 -0.0973779 -0.387877)
(-0.748355 -0.166323 -0.413362)
(-0.749684 -0.119119 -0.421189)
(-0.740112 -0.0922957 -0.41881)
(-0.721102 -0.0887297 -0.40155)
(-0.74268 -0.143303 -0.408899)
(-0.671377 -0.116382 -0.354904)
(-0.675108 -0.14189 -0.349055)
(-0.71118 -0.143366 -0.376718)
(-0.750585 -0.141436 -0.40842)
(-0.792273 -0.111726 -0.443053)
(-0.707058 -0.149005 -0.379135)
(-0.457019 -0.0841535 -0.205135)
(-0.445435 -0.0816661 -0.19288)
(-0.429794 -0.0816391 -0.184421)
(-0.402921 -0.0798392 -0.159934)
(-0.454272 -0.0832806 -0.194069)
(-0.527552 -0.0903195 -0.257536)
(-0.534783 -0.0794219 -0.269159)
(-0.520247 -0.0833523 -0.25777)
(-0.432094 -0.0942427 -0.170449)
(-0.402359 -0.093554 -0.154855)
(-0.454214 -0.086587 -0.203587)
(-0.532197 -0.0853252 -0.27293)
(-0.512972 -0.0807533 -0.255229)
(-0.426146 -0.0888219 -0.180719)
(-0.423603 -0.0963829 -0.171205)
(-0.45827 -0.100555 -0.192587)
(-0.917167 -0.117535 -0.518373)
(-0.832758 -0.128005 -0.431313)
(-0.800849 -0.123273 -0.418106)
(-0.914668 -0.112587 -0.522088)
(-0.905021 -0.114821 -0.504052)
(-0.909602 -0.118837 -0.507223)
(-0.869891 -0.127248 -0.449839)
(-0.90708 -0.107851 -0.51342)
(-0.908537 -0.103874 -0.511688)
(-0.903267 -0.124474 -0.488826)
(-0.865457 -0.135937 -0.452393)
(-0.856744 -0.124837 -0.459638)
(-0.910417 -0.134952 -0.481697)
(-0.903154 -0.109682 -0.51352)
(-0.908645 -0.132103 -0.485376)
(-0.9141 -0.12559 -0.498609)
(-0.910765 -0.111005 -0.50713)
(-0.902453 -0.111446 -0.508693)
(-0.90938 -0.127154 -0.495184)
(-0.911681 -0.134308 -0.488056)
(-0.665941 -0.152477 -0.312305)
(-0.653613 -0.170364 -0.306483)
(-0.63607 -0.193171 -0.287404)
(-0.588338 -0.194578 -0.253564)
(-0.536686 -0.182272 -0.222148)
(-0.567228 -0.174376 -0.234803)
(-0.517129 -0.17414 -0.205368)
(-0.556075 -0.174066 -0.225991)
(-0.586039 -0.175931 -0.240564)
(-0.641418 -0.159273 -0.287742)
(-0.619293 -0.185349 -0.26589)
(-0.711373 -0.107535 -0.420403)
(-0.582621 -0.0970019 -0.30561)
(-0.612613 -0.0988007 -0.342293)
(-0.648287 -0.107744 -0.370795)
(-0.695402 -0.105859 -0.416035)
(-0.587552 -0.0932454 -0.316841)
(-0.554602 -0.0932438 -0.281856)
(-0.563426 -0.0962296 -0.296273)
(-0.567202 -0.092042 -0.292174)
(-0.569129 -0.0893159 -0.304948)
(-0.590245 -0.0978529 -0.330059)
(-0.679622 -0.112197 -0.382956)
(-0.639439 -0.112689 -0.354792)
(-0.617603 -0.106672 -0.344743)
(-0.664814 -0.116002 -0.3862)
(-0.561283 -0.0945067 -0.284775)
(-0.546247 -0.0919836 -0.271235)
(-0.603883 -0.102587 -0.31737)
(-0.572549 -0.0934524 -0.285239)
(-0.697158 -0.101887 -0.400173)
(-0.58965 -0.0970126 -0.309196)
(-0.62741 -0.108096 -0.349289)
(-0.874795 -0.209308 -0.373588)
(-0.805794 -0.201852 -0.332072)
(-0.800182 -0.206127 -0.329352)
(-0.837749 -0.208382 -0.349838)
(-0.9075 -0.215992 -0.404379)
(-0.930972 -0.210807 -0.409321)
(-0.922245 -0.212722 -0.405918)
(-0.922111 -0.211741 -0.403188)
(-0.879192 -0.215579 -0.371871)
(-0.849271 -0.21538 -0.360453)
(-0.830728 -0.217037 -0.344755)
(-0.811436 -0.209756 -0.335625)
(-0.802086 -0.204592 -0.33147)
(-0.752091 -0.195908 -0.303437)
(-0.811644 -0.214783 -0.336466)
(-0.756392 -0.202035 -0.307801)
(-0.914096 -0.218379 -0.406154)
(-0.909643 -0.216808 -0.403019)
(-0.826443 -0.211899 -0.351409)
(-0.909778 -0.218519 -0.399768)
(-0.608136 -0.137404 -0.268362)
(-0.592863 -0.139988 -0.256792)
(-0.654893 -0.140066 -0.306314)
(-0.65437 -0.1329 -0.327462)
(-0.563522 -0.126414 -0.24782)
(-0.554837 -0.12661 -0.243147)
(-0.637321 -0.139781 -0.308304)
(-0.653267 -0.139844 -0.319074)
(-0.567094 -0.126972 -0.254648)
(-0.550877 -0.124381 -0.255369)
(-0.58034 -0.130762 -0.266503)
(-0.568077 -0.123873 -0.274649)
(-0.602115 -0.137417 -0.277317)
(-0.589925 -0.135587 -0.267396)
(-0.542245 -0.129665 -0.237016)
(-0.528689 -0.120505 -0.274542)
(-0.533095 -0.121033 -0.291401)
(-0.506914 -0.119722 -0.269549)
(-0.513831 -0.122007 -0.27001)
(-0.536453 -0.130325 -0.297337)
(-0.588044 -0.125082 -0.321501)
(-0.629309 -0.135724 -0.351298)
(-0.643163 -0.134952 -0.357105)
(-0.675714 -0.143225 -0.378776)
(-0.664945 -0.141592 -0.368646)
(-0.685665 -0.151582 -0.380205)
(-0.548795 -0.125781 -0.291263)
(-0.636868 -0.139148 -0.357916)
(-0.600671 -0.140373 -0.331885)
(-0.570456 -0.12284 -0.31916)
(-0.561269 -0.127151 -0.308982)
(-0.577175 -0.126931 -0.322106)
(-0.59166 -0.132507 -0.327595)
(-0.478001 -0.110238 -0.192466)
(-0.471242 -0.108971 -0.19215)
(-0.458773 -0.106289 -0.174108)
(-0.444311 -0.103536 -0.180385)
(-0.559568 -0.118276 -0.242971)
(-0.484378 -0.115485 -0.194429)
(-0.520385 -0.12594 -0.200947)
(-0.474623 -0.114301 -0.18019)
(-0.48552 -0.118542 -0.184289)
(-0.436322 -0.109085 -0.166207)
(-0.460372 -0.124932 -0.162499)
(-0.575356 -0.136142 -0.237557)
(-0.592873 -0.134256 -0.254949)
(-0.464207 -0.112192 -0.174164)
(-0.489827 -0.12499 -0.18766)
(-0.497472 -0.122359 -0.190349)
(-0.580804 -0.141334 -0.235369)
(-0.535113 -0.145233 -0.204615)
(-0.58786 -0.132518 -0.245066)
(-0.570493 -0.132233 -0.225431)
(-0.520189 -0.12495 -0.209006)
(-0.49411 -0.0738346 -0.257598)
(-0.524659 -0.0826653 -0.27278)
(-0.516793 -0.0826048 -0.266481)
(-0.491542 -0.0693735 -0.265607)
(-0.548858 -0.0680955 -0.30936)
(-0.512163 -0.072966 -0.280408)
(-0.5736 -0.0665653 -0.33285)
(-0.547092 -0.0680843 -0.30415)
(-0.570861 -0.076486 -0.30396)
(-0.544235 -0.0682706 -0.312958)
(-0.562484 -0.086472 -0.292819)
(-0.530032 -0.084552 -0.267023)
(-0.523765 -0.08858 -0.261691)
(-0.56746 -0.0780339 -0.293536)
(-0.605264 -0.0642141 -0.344488)
(-0.582122 -0.0709613 -0.321901)
(-0.513235 -0.076341 -0.272609)
(-0.571838 -0.0732376 -0.301546)
(-0.610988 -0.0619388 -0.344277)
(-0.430811 -0.0637655 -0.216619)
(-0.432859 -0.0659322 -0.219971)
(-0.421876 -0.0678638 -0.201114)
(-0.454551 -0.0672019 -0.237162)
(-0.4214 -0.0634227 -0.204937)
(-0.467143 -0.0706267 -0.261724)
(-0.445391 -0.0691707 -0.227481)
(-0.447514 -0.0686234 -0.234634)
(-0.545403 -0.0702982 -0.33492)
(-0.505611 -0.0714959 -0.291566)
(-0.474746 -0.0712811 -0.260264)
(-0.560011 -0.0765798 -0.336387)
(-0.553653 -0.0778345 -0.340449)
(-0.531186 -0.0710578 -0.30894)
(-0.520324 -0.0706143 -0.29839)
(-0.894003 -0.219428 -0.451271)
(-0.884952 -0.219565 -0.453408)
(-0.826963 -0.189308 -0.401574)
(-0.856361 -0.20661 -0.426542)
(-0.849351 -0.250195 -0.422795)
(-0.808463 -0.270548 -0.397239)
(-0.839518 -0.245966 -0.413696)
(-0.841606 -0.239898 -0.399365)
(-0.873491 -0.24211 -0.447733)
(-0.857083 -0.218256 -0.430131)
(-0.805103 -0.263386 -0.38614)
(-0.834831 -0.269507 -0.412795)
(-0.483982 -0.0899741 -0.210219)
(-0.492124 -0.0853842 -0.220788)
(-0.48276 -0.09168 -0.19962)
(-0.484503 -0.0964239 -0.196505)
(-0.565015 -0.0852545 -0.282108)
(-0.611385 -0.0938353 -0.315128)
(-0.58173 -0.0901448 -0.286898)
(-0.61537 -0.0946025 -0.324318)
(-0.623385 -0.0901099 -0.343047)
(-0.627236 -0.0920549 -0.338851)
(-0.519271 -0.0861029 -0.240346)
(-0.540128 -0.0891065 -0.255328)
(-0.559542 -0.0917907 -0.284384)
(-0.489244 -0.0917467 -0.204696)
(-0.522885 -0.0957598 -0.234787)
(-0.551079 -0.0960491 -0.259833)
(-0.847074 -0.191255 -0.460949)
(-0.844907 -0.190548 -0.455021)
(-0.91155 -0.185108 -0.489845)
(-0.771804 -0.198182 -0.41265)
(-0.751666 -0.194457 -0.399156)
(-0.910472 -0.171566 -0.507862)
(-0.893811 -0.172575 -0.481026)
(-0.909069 -0.170108 -0.495208)
(-0.916964 -0.1688 -0.501614)
(-0.922141 -0.176596 -0.513406)
(-0.888311 -0.191791 -0.493344)
(-0.777389 -0.195168 -0.405182)
(-0.801377 -0.192045 -0.405686)
(-0.828428 -0.191395 -0.424601)
(-0.895283 -0.173887 -0.47913)
(-0.806254 -0.187877 -0.416998)
(-0.734768 -0.18103 -0.377854)
(-0.762122 -0.194942 -0.404897)
(-0.728918 -0.191991 -0.380112)
(-0.76328 -0.192456 -0.402418)
(-0.733879 -0.191094 -0.390004)
(-0.892722 -0.182912 -0.489119)
(-0.783038 -0.195776 -0.419611)
(-0.853988 -0.195166 -0.471677)
(-0.86367 -0.107092 -0.489159)
(-0.793059 -0.107867 -0.445309)
(-0.775028 -0.108914 -0.448447)
(-0.907791 -0.117084 -0.542122)
(-0.89147 -0.105689 -0.546287)
(-0.836415 -0.115158 -0.50468)
(-0.789159 -0.115782 -0.465201)
(-0.815505 -0.122975 -0.493185)
(-0.854093 -0.125182 -0.520116)
(-0.873041 -0.104842 -0.500036)
(-0.75547 -0.10523 -0.424455)
(-0.914899 -0.108029 -0.541645)
(-0.906716 -0.10609 -0.548254)
(-0.816541 -0.116414 -0.483787)
(-0.876943 -0.112854 -0.498645)
(-0.800954 -0.109685 -0.454173)
(-0.877644 -0.116478 -0.506168)
(-0.930331 -0.172398 -0.485027)
(-0.929478 -0.178137 -0.486803)
(-0.922908 -0.159481 -0.485427)
(-0.925415 -0.172779 -0.494931)
(-0.855484 -0.189443 -0.420082)
(-0.865272 -0.170517 -0.435072)
(-0.841215 -0.191034 -0.429954)
(-0.9165 -0.180364 -0.469907)
(-0.933269 -0.170146 -0.486995)
(-0.874339 -0.188519 -0.438365)
(-0.864185 -0.183475 -0.416991)
(-0.930053 -0.18292 -0.484864)
(-0.92047 -0.180221 -0.485025)
(-0.927832 -0.16483 -0.492037)
(-0.896439 -0.185003 -0.444989)
(-0.847718 -0.197597 -0.416557)
(-0.826222 -0.19064 -0.397571)
(-0.858283 -0.187563 -0.41947)
(-0.909911 -0.18004 -0.46148)
(-0.930255 -0.166853 -0.487566)
(-0.950858 -0.16373 -0.494059)
(-0.906598 -0.136404 -0.492345)
(-0.890586 -0.135617 -0.476646)
(-0.842682 -0.103367 -0.446782)
(-0.859468 -0.105379 -0.455988)
(-0.886023 -0.147917 -0.472314)
(-0.893153 -0.147045 -0.483165)
(-0.837511 -0.099475 -0.458666)
(-0.842436 -0.108962 -0.45187)
(-0.846974 -0.103103 -0.454841)
(-0.900351 -0.139286 -0.490274)
(-0.853014 -0.116167 -0.45411)
(-0.859021 -0.137665 -0.4624)
(-0.854929 -0.120404 -0.460823)
(-0.847608 -0.115764 -0.456412)
(-0.832787 -0.130149 -0.443996)
(-0.876241 -0.155466 -0.475552)
(-0.851204 -0.10075 -0.455448)
(-0.883448 -0.134225 -0.486416)
(-0.898923 -0.130263 -0.487234)
(-0.8304 -0.231229 -0.451049)
(-0.773796 -0.235172 -0.410573)
(-0.826961 -0.225124 -0.453561)
(-0.772197 -0.233807 -0.411785)
(-0.822418 -0.221718 -0.456183)
(-0.786835 -0.223095 -0.434871)
(-0.878838 -0.221722 -0.480542)
(-0.848398 -0.219214 -0.463531)
(-0.801324 -0.226147 -0.440198)
(-0.882607 -0.101139 -0.481013)
(-0.892617 -0.108174 -0.495077)
(-0.822444 -0.0865693 -0.45923)
(-0.811161 -0.0885983 -0.447971)
(-0.813495 -0.0793733 -0.447615)
(-0.811851 -0.0812329 -0.44687)
(-0.908646 -0.114683 -0.501062)
(-0.899632 -0.113359 -0.507373)
(-0.914695 -0.127411 -0.511577)
(-0.854899 -0.0900615 -0.4747)
(-0.874178 -0.0976748 -0.480431)
(-0.833849 -0.0851583 -0.461867)
(-0.835494 -0.100115 -0.458029)
(-0.897557 -0.117694 -0.493489)
(-0.876172 -0.118808 -0.497356)
(-0.857798 -0.0953388 -0.476599)
(-0.826855 -0.0835099 -0.461334)
(-0.909053 -0.134959 -0.507514)
(-0.872423 -0.109139 -0.495031)
(-0.88129 -0.111165 -0.497752)
(-0.508744 -0.0832619 -0.252647)
(-0.572914 -0.0781753 -0.327577)
(-0.620971 -0.0880922 -0.367758)
(-0.564231 -0.089732 -0.29231)
(-0.559234 -0.0900063 -0.282256)
(-0.60695 -0.090426 -0.345625)
(-0.547927 -0.0854616 -0.301829)
(-0.572913 -0.0778673 -0.322967)
(-0.635344 -0.0874097 -0.376456)
(-0.602532 -0.0804257 -0.330159)
(-0.558701 -0.0879047 -0.283455)
(-0.593762 -0.0847439 -0.324905)
(-0.617921 -0.0928801 -0.355683)
(-0.623528 -0.093703 -0.370077)
(-0.396759 -0.0945019 -0.207906)
(-0.41021 -0.0969563 -0.215529)
(-0.410131 -0.0972922 -0.209592)
(-0.37484 -0.0937267 -0.196433)
(-0.409648 -0.0978765 -0.212206)
(-0.380488 -0.0913197 -0.201071)