/*--------------------------------*- C++ -*----------------------------------*\
| =========                 |                                                 |
| \\      /  F ield         | OpenFOAM: The Open Source CFD Toolbox           |
|  \\    /   O peration     | Version:  v1612+                                |
|   \\  /    A nd           | Web:      www.OpenFOAM.com                      |
|    \\/     M anipulation  |                                                 |
\*---------------------------------------------------------------------------*/
FoamFile
{
    version     2.0;
    format      ascii;
    class       volScalarField;
    location    "50";
    object      p;
}
// * * * * * * * * * * * * * * * * * * * * * * * * * * * * * * * * * * * * * //

dimensions      [0 2 -2 0 0 0 0];

internalField   nonuniform List<scalar> 
21229
(
1.72505
1.73242
1.739
1.81772
1.53293
1.66255
1.69749
1.71387
1.73423
1.6199
1.49189
1.80479
1.80873
1.54903
1.6635
1.62037
1.70369
1.67264
1.69664
1.64031
1.65021
1.74352
1.73984
1.71845
1.71967
1.7807
1.78236
1.83155
1.67731
1.77683
1.74025
1.74715
1.74052
1.73092
1.69542
1.6701
1.8169
1.72463
1.71393
1.75507
1.75193
1.5481
1.49057
1.5167
1.63551
1.65138
1.75633
1.78928
1.77747
1.4728
1.7764
1.82811
1.62949
1.65597
1.63498
1.58875
1.58065
1.55936
1.63596
1.78951
1.79231
1.7857
1.77769
1.77707
1.63631
1.51364
1.79306
1.74746
1.73357
1.74899
1.79899
1.82025
1.81169
1.77401
1.79795
1.80615
1.64383
1.65303
1.75817
1.77841
1.69345
1.78249
1.45047
1.4802
1.54866
1.76753
1.7365
1.50106
1.69004
1.60878
1.60126
1.78992
1.80172
1.81343
1.44551
1.45616
1.45846
1.45238
1.70829
1.78654
1.76579
1.81206
1.70956
1.7556
1.75091
1.81308
1.48137
1.46134
1.46637
1.47428
1.47462
1.46123
1.83643
1.83875
1.79054
1.77992
1.64053
1.64671
1.76106
1.80684
1.5109
1.50325
1.62973
1.67561
1.66077
1.61651
1.66872
1.67872
1.64159
1.74196
1.56952
1.81728
1.67455
1.51174
1.52992
1.51938
1.63279
1.70952
1.68685
1.74701
1.74875
1.47351
1.47201
1.51289
1.51529
1.51168
1.75477
1.56685
1.50955
1.69028
1.67928
1.53412
1.54083
1.83206
1.83105
1.8258
1.74749
1.73952
1.70458
1.73693
1.65069
1.5818
1.61197
1.44423
1.46235
1.45557
1.46058
1.66427
1.66262
1.83013
1.68901
1.78446
1.46647
1.4763
1.71197
1.83039
1.82572
1.81276
1.81508
1.81791
1.82051
1.8213
1.45617
1.7447
1.70471
1.77758
1.74164
1.76012
1.73726
1.81256
1.69355
1.71127
1.68128
1.75238
1.6971
1.73851
1.48002
1.78771
1.78378
1.64925
1.64523
1.80093
1.6299
1.75272
1.73284
1.59329
1.54776
1.77905
1.73882
1.61607
1.59285
1.69248
1.69098
1.70218
1.69627
1.70759
1.61356
1.64384
1.64471
1.58007
1.60131
1.6527
1.75641
1.78579
1.75143
1.77383
1.52638
1.79978
1.78402
1.75612
1.79621
1.51482
1.49596
1.52607
1.52434
1.54923
1.55659
1.55383
1.77688
1.60351
1.80621
1.80586
1.80218
1.61201
1.46177
1.47637
1.47403
1.47583
1.68615
1.67823
1.76423
1.76001
1.78022
1.70759
1.78022
1.76344
1.74256
1.79664
1.74319
1.73602
1.80054
1.80569
1.58426
1.6454
1.66917
1.80309
1.68895
1.66732
1.69732
1.70635
1.70039
1.67583
1.80685
1.78563
1.77651
1.78478
1.79709
1.63564
1.66037
1.66798
1.63236
1.65476
1.60083
1.68426
1.68027
1.64943
1.66748
1.73109
1.68313
1.6722
1.82886
1.70125
1.68977
1.64537
1.60323
1.78145
1.79763
1.68568
1.57508
1.56207
1.69353
1.70168
1.80652
1.8051
1.81828
1.80025
1.81239
1.80682
1.81352
1.80734
1.80208
1.82433
1.83622
1.80777
1.83066
1.79345
1.44704
1.44542
1.8211
1.80288
1.81736
1.8231
1.83077
1.82703
1.80134
1.79973
1.63038
1.76981
1.71608
1.76981
1.78447
1.81451
1.82517
1.8337
1.67114
1.62842
1.75583
1.48683
1.76192
1.69881
1.70053
1.81578
1.81213
1.81369
1.81056
1.44323
1.45006
1.58699
1.8115
1.81448
1.81637
1.80309
1.79079
1.79032
1.79114
1.55154
1.54334
1.54114
1.69518
1.76282
1.55396
1.53123
1.76682
1.76987
1.77709
1.68896
1.59988
1.80194
1.73378
1.7298
1.48565
1.47433
1.585
1.58968
1.58052
1.57993
1.57496
1.61299
1.61393
1.64114
1.6228
1.58131
1.58694
1.65334
1.62551
1.63922
1.52132
1.5422
1.58312
1.80704
1.68591
1.64887
1.60486
1.79818
1.76258
1.76526
1.77163
1.69997
1.78155
1.80677
1.66502
1.75383
1.77237
1.76239
1.77003
1.76715
1.82633
1.56575
1.73369
1.79157
1.79556
1.75425
1.62171
1.70713
1.62325
1.82549
1.71453
1.73776
1.71845
1.82383
1.81405
1.74035
1.80862
1.77387
1.75852
1.70722
1.65284
1.76629
1.621
1.67145
1.53307
1.6818
1.72792
1.78341
1.81114
1.77753
1.70785
1.82761
1.82292
1.45104
1.79947
1.71939
1.82912
1.64174
1.65139
1.58618
1.71487
1.79062
1.65256
1.82037
1.75909
1.74601
1.50059
1.79823
1.62527
1.82976
1.80143
1.4552
1.53014
1.80936
1.75432
1.77338
1.77003
1.64653
1.72213
1.82459
1.81203
1.81114
1.77769
1.74963
1.73084
1.62883
1.59797
1.78801
1.63343
1.64985
1.78208
1.57059
1.56976
1.71389
1.51965
1.51915
1.5407
1.60014
1.76055
1.52291
1.80903
1.78784
1.79676
1.45235
1.4487
1.60357
1.502
1.484
1.792
1.76776
1.61886
1.63175
1.75349
1.73774
1.72158
1.72643
1.80045
1.70187
1.67604
1.66969
1.79293
1.81945
1.76821
1.77708
1.79351
1.78548
1.78739
1.76381
1.7818
1.54395
1.55325
1.70689
1.75315
1.7905
1.75095
1.76872
1.76902
1.82363
1.4967
1.50374
1.82914
1.83667
1.82525
1.82864
1.56399
1.5659
1.72842
1.80663
1.81162
1.68267
1.69801
1.81531
1.68572
1.64505
1.82737
1.8245
1.55139
1.74753
1.82509
1.6987
1.55737
1.7943
1.78261
1.60569
1.45722
1.51424
1.51669
1.55165
1.80177
1.45037
1.82103
1.74
1.74956
1.73125
1.50042
1.80181
1.75557
1.76351
1.70018
1.68945
1.56775
1.56367
1.7817
1.84255
1.52933
1.79496
1.65694
1.74706
1.67646
1.70997
1.70565
1.67849
1.6943
1.66859
1.71462
1.75222
1.75132
1.76452
1.77746
1.80835
1.81881
1.82345
1.58812
1.57414
1.61453
1.64684
1.64304
1.62643
1.66426
1.73032
1.74988
1.76181
1.76233
1.78397
1.7359
1.75698
1.78413
1.68444
1.79117
1.68145
1.67315
1.65522
1.72424
1.63651
1.69027
1.66516
1.67959
1.69405
1.81128
1.80484
1.63138
1.5335
1.53527
1.73126
1.69228
1.78174
1.7952
1.78111
1.61301
1.64261
1.60923
1.6002
1.64783
1.77162
1.71437
1.46193
1.46017
1.68472
1.65268
1.69596
1.78086
1.82648
1.83011
1.61647
1.63363
1.81553
1.82772
1.7962
1.79494
1.80201
1.80201
1.80284
1.79152
1.78895
1.82779
1.83001
1.82817
1.7981
1.76954
1.80774
1.72219
1.63037
1.57509
1.5373
1.51216
1.64301
1.74198
1.48953
1.74419
1.4694
1.67409
1.59787
1.50153
1.7218
1.79717
1.67922
1.73493
1.62496
1.53634
1.74281
1.69142
1.74527
1.83277
1.68767
1.79361
1.62097
1.78657
1.81438
1.76706
1.78319
1.49699
1.5192
1.58653
1.47776
1.66282
1.67692
1.73652
1.63717
1.69945
1.67706
1.74491
1.74107
1.69528
1.44741
1.54287
1.63106
1.60097
1.62922
1.56428
1.45779
1.48542
1.47548
1.49989
1.45625
1.51773
1.49525
1.58814
1.68263
1.5956
1.54227
1.60355
1.59794
1.45309
1.48422
1.58521
1.54703
1.46689
1.56124
1.62024
1.53949
1.58057
1.52472
1.64339
1.58873
1.54836
1.68404
1.77864
1.76387
1.69622
1.75711
1.66453
1.64794
1.57556
1.71912
1.76723
1.74863
1.61262
1.67345
1.71598
1.63146
1.59273
1.60945
1.61044
1.63127
1.62696
1.59257
1.70458
1.69482
1.77624
1.76005
1.80356
1.73103
1.76525
1.66886
1.68665
1.74404
1.74584
1.64497
1.67103
1.77517
1.78517
1.7453
1.8172
1.77942
1.82709
1.81817
1.79243
1.79319
1.82864
1.8364
1.77239
1.67431
1.69765
1.73787
1.69836
1.66403
1.76525
1.67236
1.62129
1.79037
1.76617
1.73898
1.67154
1.64505
1.67801
1.69103
1.65333
1.69453
1.65802
1.77962
1.69054
1.70581
1.71773
1.66845
1.72078
1.7979
1.72751
1.75914
1.73837
1.77319
1.7281
1.79228
1.79352
1.72718
1.78267
1.82009
1.78235
1.70165
1.78456
1.76473
1.76395
1.76627
1.73715
1.76046
1.77622
1.78298
1.80281
1.7511
1.77614
1.77617
1.81782
1.81184
1.81211
1.68058
1.58339
1.65741
1.59908
1.66429
1.64679
1.61278
1.51628
1.5073
1.65799
1.70817
1.45806
1.66152
1.64554
1.67907
1.63509
1.60615
1.65582
1.46845
1.47879
1.47428
1.71031
1.62572
1.71322
1.64637
1.67544
1.65818
1.66916
1.66475
1.61139
1.68286
1.62932
1.62017
1.60966
1.64177
1.5144
1.47896
1.50433
1.49612
1.47855
1.72762
1.70475
1.7281
1.80841
1.79885
1.82088
1.68626
1.48531
1.4746
1.76164
1.69114
1.74471
1.70129
1.73824
1.71292
1.70637
1.68198
1.71264
1.66783
1.66623
1.64491
1.68252
1.5664
1.48993
1.50979
1.60042
1.58846
1.55651
1.53482
1.54431
1.64399
1.67174
1.76067
1.77595
1.76742
1.74832
1.74603
1.77216
1.62344
1.63472
1.61376
1.64652
1.66385
1.67227
1.63547
1.68924
1.76771
1.71083
1.765
1.72096
1.73462
1.74553
1.81609
1.82254
1.82819
1.83648
1.81767
1.82289
1.83186
1.83318
1.83492
1.72648
1.76412
1.72883
1.73733
1.71038
1.70718
1.7366
1.81432
1.77707
1.78233
1.79343
1.75806
1.75346
1.76114
1.77653
1.62459
1.6769
1.6135
1.64986
1.62983
1.63516
1.63979
1.71442
1.6823
1.72873
1.76544
1.76288
1.78178
1.77868
1.77312
1.77102
1.77587
1.79369
1.81941
1.80809
1.80683
1.81452
1.82978
1.77258
1.80008
1.78842
1.79764
1.77653
1.78128
1.79632
1.77339
1.76211
1.83369
1.82289
1.82082
1.58205
1.59321
1.55796
1.51056
1.5738
1.47738
1.44662
1.44683
1.61085
1.57083
1.51869
1.52331
1.58893
1.57364
1.53354
1.5139
1.60718
1.54663
1.56435
1.5609
1.5293
1.55918
1.49954
1.51641
1.51248
1.48364
1.5228
1.7971
1.65173
1.6482
1.60173
1.63979
1.63447
1.60407
1.73417
1.69203
1.74177
1.7027
1.68897
1.67816
1.71927
1.72108
1.66478
1.59225
1.6884
1.59711
1.61611
1.64914
1.67908
1.72077
1.67484
1.69529
1.69951
1.7216
1.68135
1.71849
1.55121
1.61734
1.61338
1.60758
1.80771
1.80668
1.60633
1.61618
1.60712
1.62165
1.52086
1.54337
1.59366
1.56803
1.62567
1.59577
1.50074
1.64579
1.64912
1.63498
1.65265
1.67992
1.68846
1.69546
1.61896
1.65393
1.68803
1.76298
1.70699
1.74732
1.70101
1.7135
1.74008
1.68675
1.73529
1.6476
1.70949
1.68875
1.65771
1.73553
1.70709
1.73139
1.67509
1.69352
1.71924
1.50142
1.45615
1.45117
1.46619
1.46652
1.61742
1.58758
1.555
1.55812
1.60907
1.60782
1.56476
1.47328
1.4945
1.59507
1.6464
1.63099
1.60685
1.59894
1.63054
1.55049
1.57677
1.62734
1.58095
1.57699
1.58124
1.51247
1.58157
1.55684
1.56814
1.54727
1.57815
1.58293
1.53457
1.49911
1.54014
1.52278
1.51921
1.55939
1.63207
1.61979
1.59514
1.61269
1.6221
1.58988
1.60935
1.56365
1.65673
1.59437
1.6334
1.61621
1.61982
1.46683
1.45506
1.43888
1.55951
1.48091
1.54454
1.52581
1.53683
1.5181
1.54846
1.46661
1.45534
1.49053
1.49532
1.48871
1.55304
1.52163
1.56867
1.5132
1.57504
1.55635
1.52492
1.48601
1.44001
1.49645
1.48738
1.48354
1.47394
1.49494
1.47724
1.50352
1.58558
1.51679
1.53401
1.53074
1.5169
1.52889
1.50162
1.48366
1.60623
1.53779
1.56206
1.63054
1.6376
1.62483
1.62672
1.62429
1.65845
1.5976
1.66129
1.65171
1.60785
1.49734
1.56352
1.55856
1.56948
1.62483
1.57486
1.54926
1.55811
1.55971
1.62796
1.6437
1.54436
1.5841
1.61049
1.61345
1.57159
1.48448
1.47788
1.45763
1.45527
1.45835
1.46786
1.47217
1.48517
1.53992
1.59654
1.5474
1.54688
1.55047
1.59648
1.53356
1.57984
1.57618
1.54216
1.48438
1.45891
1.48059
1.48185
1.46528
1.45756
1.49284
1.53627
1.52395
1.46335
1.49389
1.48798
1.50124
1.4864
1.53524
1.59192
1.48189
1.51844
1.53297
1.55375
1.49515
1.66075
1.59565
1.68678
1.66927
1.6561
1.64475
1.68147
1.60511
1.61791
1.59218
1.59757
1.57832
1.57446
1.60143
1.67577
1.61136
1.62048
1.66055
1.65285
1.63459
1.58219
1.51301
1.53047
1.55644
1.5307
1.51992
1.57219
1.58956
1.64277
1.67522
1.61791
1.6532
1.65592
1.6195
1.53308
1.54749
1.62993
1.58759
1.55423
1.5505
1.59814
1.60329
1.54647
1.64675
1.58711
1.61289
1.58939
1.61249
1.81169
1.78713
1.7945
1.80529
1.71009
1.65531
1.69905
1.69954
1.74954
1.72184
1.73593
1.76273
1.76487
1.77402
1.78607
1.76027
1.76891
1.71767
1.68443
1.70031
1.82615
1.7727
1.81961
1.82562
1.74082
1.78758
1.75058
1.79326
1.77545
1.77058
1.77757
1.73197
1.72174
1.67677
1.70327
1.70693
1.7082
1.69962
1.7734
1.74478
1.76581
1.76939
1.77628
1.73691
1.71747
1.71548
1.65287
1.64547
1.67224
1.71794
1.67817
1.70071
1.71492
1.72001
1.7006
1.69552
1.75664
1.748
1.68667
1.73922
1.70686
1.66618
1.65681
1.62021
1.64118
1.6701
1.67498
1.64051
1.55904
1.50838
1.49765
1.63565
1.58178
1.5455
1.62041
1.60307
1.58033
1.50866
1.76666
1.7674
1.75048
1.75267
1.75081
1.74491
1.75438
1.74364
1.70413
1.73757
1.71548
1.7778
1.72788
1.72247
1.78557
1.7391
1.73261
1.66441
1.67135
1.62213
1.68182
1.66848
1.63317
1.60128
1.54587
1.59822
1.61008
1.59842
1.65156
1.71183
1.74934
1.74418
1.7404
1.64387
1.5975
1.67614
1.61869
1.62259
1.74427
1.67404
1.7042
1.7136
1.71758
1.69902
1.72815
1.6394
1.69881
1.75374
1.72485
1.72297
1.68386
1.75239
1.64862
1.66915
1.66212
1.61355
1.66264
1.65596
1.64884
1.64192
1.64909
1.6463
1.60326
1.63057
1.62487
1.6633
1.62767
1.64064
1.6662
1.45216
1.45165
1.45555
1.60506
1.55849
1.6379
1.59219
1.59045
1.60389
1.57489
1.54633
1.53094
1.55028
1.56194
1.57849
1.5819
1.53969
1.55758
1.53301
1.44816
1.45231
1.44359
1.48853
1.46298
1.53358
1.4702
1.50765
1.50806
1.45268
1.47188
1.45296
1.46116
1.45598
1.47012
1.45209
1.45179
1.48173
1.45555
1.54747
1.51481
1.50877
1.50143
1.49624
1.50251
1.5404
1.52916
1.58385
1.60223
1.59762
1.55674
1.55624
1.59866
1.64147
1.64776
1.6614
1.64573
1.64552
1.62863
1.62581
1.60618
1.64363
1.64306
1.61048
1.62623
1.57605
1.58791
1.60208
1.60192
1.61969
1.6239
1.60305
1.59554
1.6052
1.59494
1.61999
1.61441
1.62613
1.60924
1.59715
1.61872
1.58753
1.57831
1.59939
1.5911
1.58043
1.60491
1.62242
1.57637
1.5294
1.55643
1.54081
1.53944
1.57486
1.6026
1.60373
1.66698
1.66874
1.66906
1.68466
1.68327
1.69946
1.66775
1.67156
1.69535
1.69655
1.73989
1.73804
1.72208
1.72459
1.73056
1.71743
1.71373
1.70614
1.69124
1.73286
1.70144
1.71261
1.76842
1.79809
1.78777
1.76545
1.78083
1.77941
1.77071
1.74572
1.73552
1.72989
1.73521
1.77368
1.73828
1.77776
1.78153
1.78954
1.76814
1.808
1.75282
1.74275
1.76525
1.77302
1.79493
1.80296
1.75768
1.80582
1.80259
1.77345
1.64716
1.69394
1.68099
1.71531
1.66724
1.67902
1.80114
1.78069
1.82092
1.79319
1.77694
1.76993
1.80351
1.67584
1.69825
1.6505
1.65212
1.6815
1.68686
1.64502
1.73637
1.71146
1.64571
1.68897
1.69497
1.69917
1.68954
1.70025
1.75483
1.68701
1.7084
1.70195
1.72374
1.69561
1.69751
1.74562
1.76425
1.72229
1.74413
1.74859
1.72061
1.70147
1.64012
1.64824
1.67544
1.65722
1.65059
1.68645
1.77634
1.81387
1.83038
1.81741
1.82533
1.81388
1.75881
1.72653
1.69078
1.61909
1.67621
1.66892
1.67645
1.67619
1.75012
1.78263
1.70826
1.75816
1.72527
1.73769
1.74891
1.80381
1.78269
1.75094
1.76559
1.79589
1.80144
1.76566
1.78407
1.73969
1.79669
1.77204
1.82365
1.79868
1.77793
1.70337
1.70589
1.75286
1.75283
1.70736
1.70408
1.75162
1.75326
1.80317
1.77314
1.80938
1.76016
1.77256
1.78107
1.75989
1.7402
1.76547
1.76308
1.75744
1.82409
1.83967
1.7964
1.8158
1.8118
1.80843
1.76983
1.79762
1.8083
1.80204
1.83554
1.82021
1.83073
1.7948
1.7894
1.75617
1.79655
1.77182
1.77195
1.79475
1.81806
1.79398
1.7598
1.80105
1.78531
1.78136
1.797
1.83231
1.82307
1.80445
1.83149
1.80442
1.81497
1.83174
1.79322
1.82718
1.8299
1.79071
1.78502
1.81496
1.77926
1.81549
1.80804
1.78503
1.69102
1.64065
1.65018
1.62955
1.6818
1.68227
1.63498
1.73706
1.67929
1.72547
1.69255
1.68577
1.74599
1.65949
1.69897
1.73331
1.72447
1.68676
1.69099
1.71908
1.76815
1.72232
1.7444
1.7303
1.76613
1.75572
1.7398
1.74038
1.66228
1.71468
1.70953
1.71523
1.69512
1.72292
1.68624
1.74513
1.77702
1.74471
1.73524
1.74002
1.73614
1.72807
1.7393
1.72216
1.75037
1.70566
1.69514
1.72756
1.67859
1.65474
1.71341
1.71717
1.71711
1.81097
1.78322
1.78359
1.77329
1.77634
1.79079
1.79961
1.73815
1.75738
1.78119
1.77579
1.76071
1.7578
1.77705
1.72986
1.77132
1.80002
1.80955
1.79986
1.80119
1.74209
1.73633
1.7769
1.74559
1.76337
1.75643
1.75004
1.70606
1.66676
1.69244
1.66114
1.68338
1.67647
1.67077
1.70389
1.65203
1.65312
1.67289
1.66873
1.66288
1.68155
1.64403
1.64925
1.65938
1.67527
1.63318
1.63534
1.67111
1.72282
1.71179
1.71165
1.69787
1.73114
1.72668
1.70087
1.68741
1.64393
1.70639
1.68093
1.69063
1.67545
1.692
1.65511
1.6705
1.72552
1.69347
1.68533
1.68089
1.69396
1.66253
1.61442
1.60565
1.6272
1.78214
1.77284
1.76033
1.77037
1.74118
1.76319
1.78173
1.76848
1.75817
1.71995
1.68905
1.67836
1.67583
1.67951
1.59801
1.66797
1.63789
1.67196
1.65048
1.73979
1.75497
1.78913
1.77033
1.76726
1.76423
1.76718
1.72178
1.76547
1.72388
1.66009
1.725
1.70858
1.69198
1.68263
1.71542
1.69778
1.65664
1.70422
1.66958
1.66928
1.70076
1.74686
1.77262
1.72948
1.74689
1.75659
1.75952
1.73142
1.68684
1.62791
1.65719
1.62033
1.6526
1.71317
1.66579
1.71628
1.6534
1.68918
1.6625
1.67581
1.67032
1.78809
1.78542
1.81234
1.81144
1.78613
1.78724
1.80487
1.67606
1.72873
1.68485
1.69765
1.68443
1.69951
1.68671
1.76896
1.78207
1.74057
1.74812
1.76927
1.77632
1.74425
1.72343
1.73733
1.67959
1.72692
1.69777
1.70685
1.72067
1.76211
1.79014
1.75331
1.75213
1.77345
1.77923
1.7431
1.73573
1.73142
1.67765
1.72391
1.70287
1.70674
1.71802
1.82091
1.82067
1.82707
1.81843
1.80618
1.80366
1.79758
1.77887
1.80632
1.8103
1.74811
1.70066
1.71902
1.65454
1.70926
1.66723
1.68059
1.70043
1.79917
1.77749
1.78209
1.79291
1.78166
1.70655
1.73627
1.7684
1.73412
1.72319
1.73359
1.78485
1.797
1.82926
1.8019
1.82414
1.80144
1.8024
1.76777
1.8057
1.77979
1.7938
1.78926
1.78435
1.72537
1.71262
1.63892
1.70344
1.68088
1.68433
1.69503
1.75829
1.78455
1.77635
1.76126
1.80954
1.78856
1.74765
1.77138
1.79027
1.7858
1.76889
1.7741
1.79073
1.77863
1.7847
1.72299
1.76358
1.76754
1.73016
1.72986
1.76255
1.77336
1.73065
1.73916
1.69408
1.73126
1.71111
1.71369
1.72423
1.76024
1.79898
1.7652
1.78048
1.77281
1.77415
1.76557
1.77164
1.76462
1.77121
1.74362
1.76033
1.76266
1.75609
1.74926
1.75197
1.76492
1.80547
1.80565
1.80592
1.79987
1.79803
1.78535
1.77077
1.799
1.80479
1.79374
1.79462
1.7988
1.78523
1.82177
1.78935
1.82464
1.79494
1.81783
1.82643
1.80209
1.7323
1.73399
1.6799
1.72765
1.70626
1.71282
1.72087
1.79238
1.77065
1.80127
1.79284
1.74963
1.77724
1.7811
1.78468
1.78033
1.80311
1.78855
1.80751
1.8057
1.79005
1.74712
1.76234
1.74001
1.74802
1.76926
1.80779
1.80934
1.82158
1.82683
1.80749
1.80934
1.80663
1.81046
1.80638
1.8159
1.81549
1.616
1.62356
1.59044
1.62599
1.6096
1.62179
1.60679
1.67571
1.71957
1.47767
1.71004
1.7267
1.68859
1.71063
1.72895
1.70543
1.584
1.57242
1.58201
1.55128
1.45421
1.65847
1.67795
1.62984
1.65967
1.65264
1.67406
1.64091
1.56774
1.61435
1.56854
1.59346
1.58469
1.59723
1.58308
1.48841
1.49098
1.50212
1.49442
1.47216
1.49543
1.7362
1.78682
1.74935
1.74993
1.79755
1.66255
1.64996
1.68745
1.67685
1.66792
1.6646
1.67798
1.69494
1.71802
1.70121
1.72714
1.69499
1.71825
1.70881
1.5826
1.62916
1.61322
1.6257
1.59507
1.61222
1.60317
1.50067
1.52478
1.498
1.51945
1.49624
1.51829
1.51121
1.74309
1.75929
1.7471
1.74868
1.74843
1.75292
1.74664
1.82531
1.82602
1.72255
1.68611
1.69944
1.69586
1.71004
1.69958
1.70473
1.76283
1.78515
1.76007
1.78113
1.76217
1.77368
1.83534
1.82782
1.83167
1.82542
1.66587
1.68667
1.70842
1.69107
1.67758
1.67608
1.68749
1.76914
1.78643
1.79614
1.72573
1.73277
1.74852
1.74818
1.66971
1.70608
1.73125
1.60164
1.64964
1.62318
1.61798
1.60781
1.6323
1.70558
1.80746
1.8013
1.78691
1.79285
1.8043
1.79896
1.79138
1.78355
1.77185
1.78916
1.80029
1.79289
1.78541
1.79234
1.79295
1.79208
1.82555
1.81844
1.50063
1.52232
1.49578
1.48421
1.49606
1.4905
1.49265
1.51483
1.46739
1.49939
1.48298
1.50626
1.47647
1.54514
1.55119
1.57198
1.58643
1.64662
1.46311
1.46398
1.48043
1.46292
1.45439
1.50807
1.46084
1.56572
1.63397
1.68554
1.66816
1.64824
1.67203
1.64149
1.63082
1.69425
1.60973
1.66096
1.68677
1.65707
1.75556
1.7097
1.71057
1.68329
1.71302
1.70073
1.70005
1.71309
1.64626
1.58062
1.61408
1.63189
1.54306
1.57183
1.57049
1.58331
1.59795
1.54994
1.63479
1.57646
1.6122
1.5845
1.53291
1.53764
1.53086
1.57874
1.55184
1.62229
1.62885
1.63048
1.62365
1.67489
1.66409
1.67242
1.67517
1.67288
1.63556
1.68821
1.65025
1.649
1.6521
1.65515
1.64919
1.71805
1.72129
1.73788
1.71594
1.72402
1.71664
1.72752
1.68444
1.68901
1.75513
1.74981
1.74389
1.74397
1.75135
1.75071
1.74712
1.73159
1.74551
1.46709
1.52901
1.53781
1.50401
1.5399
1.52847
1.53887
1.52297
1.51381
1.51656
1.54121
1.6283
1.63914
1.62921
1.62946
1.62846
1.59314
1.63047
1.59953
1.61383
1.59467
1.6217
1.56783
1.53858
1.55095
1.52862
1.53304
1.53028
1.62909
1.59352
1.63018
1.62288
1.62512
1.61778
1.6292
1.60972
1.58061
1.56177
1.56711
1.59879
1.58496
1.57517
1.45392
1.44342
1.46134
1.45488
1.51688
1.52639
1.49458
1.4971
1.51259
1.51817
1.49231
1.49976
1.49851
1.51652
1.49892
1.50479
1.49513
1.51092
1.51977
1.50386
1.46947
1.48681
1.49538
1.50318
1.4882
1.47866
1.48118
1.46341
1.46987
1.47323
1.47228
1.47543
1.56211
1.51848
1.53645
1.52683
1.54184
1.53306
1.53603
1.47835
1.49219
1.63882
1.62329
1.63459
1.59862
1.63099
1.61469
1.61954
1.67646
1.64465
1.70012
1.70174
1.686
1.67524
1.67673
1.61317
1.58369
1.56737
1.57726
1.58734
1.59202
1.57939
1.57361
1.56024
1.59216
1.5744
1.58332
1.62982
1.56702
1.60298
1.54362
1.56903
1.55192
1.57583
1.55718
1.57134
1.5667
1.46508
1.44946
1.46163
1.46389
1.45479
1.46012
1.52124
1.49532
1.50399
1.49615
1.50178
1.60919
1.57024
1.62719
1.59811
1.60689
1.59032
1.60786
1.56596
1.521
1.53922
1.54189
1.55488
1.54247
1.54975
1.46677
1.49399
1.47069
1.48078
1.4747
1.47039
1.5029
1.47401
1.4925
1.50632
1.51465
1.53368
1.54866
1.511
1.52393
1.53325
1.66433
1.66553
1.64285
1.64415
1.66039
1.65579
1.64734
1.50754
1.52907
1.54492
1.53612
1.52604
1.52976
1.53356
1.59982
1.57611
1.5855
1.63929
1.5864
1.6127
1.53664
1.5677
1.54301
1.5332
1.54614
1.5419
1.5308
1.65726
1.61338
1.64197
1.63665
1.64551
1.63171
1.64481
1.63102
1.60185
1.63099
1.59888
1.6255
1.60112
1.61698
1.60152
1.57899
1.55402
1.55286
1.58889
1.57502
1.56237
1.78614
1.80925
1.77901
1.78648
1.78998
1.79221
1.66545
1.67635
1.68251
1.66681
1.66497
1.73637
1.7483
1.7505
1.75308
1.77343
1.75271
1.76466
1.76075
1.78519
1.75524
1.75682
1.75877
1.7688
1.76686
1.76422
1.74661
1.76762
1.8284
1.83273
1.82943
1.79315
1.77783
1.79073
1.7839
1.74029
1.79296
1.77781
1.79392
1.79332
1.78091
1.68637
1.70182
1.68756
1.69684
1.74483
1.74402
1.75275
1.74494
1.75059
1.75216
1.76
1.7431
1.75783
1.75025
1.80049
1.80092
1.61849
1.59688
1.60781
1.65759
1.63969
1.69624
1.68269
1.74656
1.72195
1.70953
1.73504
1.70474
1.73404
1.74693
1.72993
1.61412
1.60188
1.63816
1.6305
1.61921
1.62211
1.62982
1.55301
1.55955
1.57707
1.525
1.56669
1.58694
1.78071
1.67998
1.69659
1.71618
1.7112
1.69838
1.70199
1.70747
1.75797
1.76321
1.77988
1.77349
1.7622
1.62799
1.61239
1.58198
1.59847
1.60513
1.61387
1.59216
1.72293
1.71193
1.76001
1.70944
1.53586
1.51844
1.64065
1.68752
1.71039
1.67109
1.68342
1.68985
1.70215
1.67403
1.76079
1.66742
1.6492
1.66935
1.66365
1.62684
1.64303
1.64602
1.63788
1.63262
1.63538
1.6327
1.63734
1.64757
1.65312
1.65949
1.64265
1.6468
1.65379
1.4931
1.47045
1.45903
1.46925
1.4941
1.46707
1.48643
1.48854
1.48811
1.48352
1.62709
1.59692
1.61937
1.59437
1.61475
1.59877
1.61355
1.54707
1.5546
1.54301
1.55239
1.55008
1.52256
1.56599
1.54261
1.52662
1.54775
1.45308
1.47053
1.44959
1.46236
1.4581
1.45449
1.49793
1.48474
1.59639
1.60367
1.59363
1.5958
1.64961
1.59892
1.63191
1.60721
1.64255
1.62962
1.63065
1.62094
1.63724
1.63179
1.61007
1.64276
1.62173
1.6293
1.61969
1.63224
1.55562
1.57956
1.6458
1.62711
1.72575
1.70748
1.707
1.71415
1.71758
1.71568
1.71465
1.70379
1.70841
1.72414
1.71116
1.71003
1.70747
1.71534
1.67911
1.69822
1.67118
1.68201
1.68168
1.6872
1.67552
1.70072
1.67385
1.6917
1.68547
1.69454
1.68014
1.7245
1.73181
1.72579
1.74829
1.73668
1.74489
1.80367
1.80496
1.80998
1.82838
1.81339
1.81996
1.78126
1.7599
1.77521
1.7783
1.78882
1.78477
1.74195
1.76091
1.74133
1.76051
1.73607
1.75533
1.75526
1.78375
1.75614
1.76935
1.76569
1.77542
1.76161
1.64349
1.64133
1.63809
1.6556
1.6436
1.64975
1.64925
1.6513
1.68703
1.65921
1.68154
1.66123
1.6758
1.66064
1.71132
1.71427
1.7372
1.73616
1.72045
1.72042
1.73169
1.7524
1.72196
1.74544
1.7388
1.74249
1.73356
1.74447
1.65064
1.68071
1.65243
1.65413
1.65877
1.66127
1.64585
1.78261
1.63199
1.67752
1.64908
1.66932
1.64459
1.66102
1.64586
1.74736
1.76718
1.782
1.77717
1.76504
1.76715
1.77433
1.74735
1.75754
1.76531
1.76735
1.75733
1.76185
1.74736
1.76464
1.75457
1.77963
1.76213
1.76577
1.76425
1.77845
1.75713
1.76731
1.75934
1.76859
1.80676
1.80382
1.82154
1.81333
1.80579
1.82094
1.76641
1.77909
1.77776
1.77222
1.80129
1.81265
1.8025
1.82046
1.80847
1.8138
1.81256
1.81089
1.81011
1.8104
1.80196
1.81834
1.81101
1.81292
1.77582
1.8062
1.79366
1.7934
1.78522
1.79441
1.78736
1.77304
1.81029
1.77954
1.79419
1.81878
1.81152
1.82323
1.81992
1.8199
1.81299
1.82475
1.81549
1.825
1.82299
1.8227
1.78988
1.77153
1.76103
1.7656
1.77555
1.77607
1.76935
1.64652
1.62967
1.65087
1.65249
1.63768
1.64122
1.6545
1.70629
1.73389
1.71671
1.70977
1.71752
1.71598
1.70548
1.75365
1.73754
1.77216
1.75036
1.75579
1.7464
1.76103
1.70943
1.71132
1.67182
1.69795
1.70262
1.70922
1.69263
1.69062
1.70379
1.66424
1.6725
1.68563
1.69361
1.67091
1.78163
1.74939
1.78362
1.76302
1.77096
1.76019
1.77966
1.64441
1.65135
1.67081
1.64377
1.63582
1.66858
1.64818
1.6851
1.65735
1.66227
1.64493
1.68879
1.82005
1.77968
1.78324
1.77183
1.78281
1.80154
1.79543
1.78358
1.78507
1.7838
1.73029
1.74023
1.73419
1.74647
1.73689
1.79518
1.78072
1.79048
1.80598
1.79683
1.78454
1.78817
1.79003
1.75993
1.74271
1.74277
1.73842
1.74926
1.74486
1.74467
1.63299
1.64197
1.64487
1.6528
1.64372
1.64702
1.67246
1.64065
1.64892
1.6518
1.65626
1.64146
1.68396
1.68694
1.70702
1.68941
1.69146
1.68675
1.69567
1.69074
1.68399
1.66955
1.68559
1.68469
1.68931
1.68276
1.68492
1.67727
1.66277
1.66079
1.67751
1.67534
1.66625
1.72187
1.69661
1.717
1.69863
1.71316
1.70255
1.71393
1.67135
1.69079
1.6578
1.76627
1.76082
1.75234
1.75541
1.76202
1.76394
1.76275
1.72612
1.75404
1.74531
1.74067
1.65511
1.66919
1.63705
1.64979
1.65855
1.62863
1.69256
1.67323
1.6636
1.68758
1.67745
1.78579
1.77742
1.73688
1.72037
1.73676
1.72101
1.71562
1.71829
1.70179
1.71692
1.71052
1.71137
1.68662
1.71158
1.71484
1.71071
1.7035
1.70201
1.70792
1.71199
1.72671
1.73907
1.72941
1.73399
1.59243
1.72377
1.73343
1.65067
1.70539
1.67814
1.69215
1.69737
1.72774
1.7149
1.70091
1.70252
1.71902
1.81101
1.82081
1.7964
1.80083
1.80708
1.8133
1.80409
1.70661
1.70411
1.72788
1.72321
1.71258
1.70946
1.72208
1.73789
1.73954
1.73408
1.7501
1.73976
1.74509
1.74301
1.7098
1.73306
1.73848
1.7393
1.72597
1.73059
1.73253
1.75363
1.74801
1.75273
1.75999
1.74927
1.75423
1.75792
1.7016
1.72935
1.72381
1.72536
1.71273
1.72213
1.71908
1.79302
1.79864
1.79079
1.79724
1.81544
1.80088
1.81748
1.6948
1.71766
1.73175
1.72807
1.71416
1.71637
1.72357
1.79353
1.7706
1.80785
1.80321
1.78069
1.79586
1.79736
1.72591
1.77612
1.76763
1.79589
1.78997
1.77684
1.77992
1.78581
1.80659
1.80301
1.82836
1.80525
1.81665
1.81524
1.81315
1.80723
1.81749
1.77579
1.76142
1.79218
1.78265
1.67068
1.70848
1.70096
1.6976
1.69559
1.77149
1.76461
1.74219
1.76091
1.73862
1.75607
1.74479
1.75953
1.74677
1.76747
1.76401
1.74211
1.75632
1.76199
1.76583
1.75605
1.77999
1.7726
1.7918
1.7946
1.78349
1.77117
1.7752
1.77713
1.78075
1.71453
1.73365
1.73551
1.73219
1.72355
1.72668
1.72947
1.78197
1.77239
1.77981
1.77146
1.78862
1.75677
1.74692
1.74664
1.76225
1.77952
1.78609
1.77022
1.78409
1.78512
1.79629
1.79735
1.78843
1.80244
1.7916
1.8082
1.80354
1.80375
1.80115
1.80888
1.78891
1.7135
1.72102
1.71122
1.74517
1.72531
1.72927
1.7855
1.75238
1.77267
1.75674
1.77153
1.76095
1.76666
1.75937
1.78548
1.78465
1.76687
1.77883
1.77767
1.77997
1.77365
1.78106
1.78491
1.7844
1.77998
1.78573
1.80594
1.82326
1.80872
1.8101
1.80696
1.8201
1.80462
1.8128
1.46713
1.66046
1.67815
1.70299
1.68525
1.67596
1.67339
1.69129
1.56306
1.6132
1.57643
1.59022
1.58138
1.59979
1.57496
1.62783
1.60764
1.63439
1.6436
1.62403
1.62484
1.6376
1.6408
1.58793
1.61728
1.59804
1.62843
1.60461
1.6169
1.62128
1.64768
1.66763
1.66292
1.63447
1.63979
1.6507
1.60192
1.59502
1.63048
1.62955
1.6158
1.61579
1.6266
1.65545
1.63248
1.66131
1.63701
1.65186
1.63842
1.64883
1.72112
1.73657
1.74669
1.74429
1.73323
1.52605
1.49264
1.65391
1.66586
1.63461
1.71104
1.68107
1.70075
1.67847
1.68563
1.67102
1.68904
1.71459
1.74353
1.6942
1.70114
1.6956
1.45774
1.45086
1.4544
1.44132
1.47499
1.45166
1.45307
1.48677
1.46763
1.62733
1.63165
1.6397
1.63593
1.60476
1.63893
1.63319
1.63962
1.62452
1.66747
1.64572
1.64861
1.58053
1.596
1.63341
1.61709
1.61345
1.64866
1.6363
1.62747
1.63518
1.63998
1.64145
1.6245
1.64305
1.60255
1.63271
1.60232
1.62706
1.60999
1.62564
1.64474
1.63536
1.61249
1.49069
1.46091
1.47555
1.46533
1.48735
1.46815
1.51081
1.49389
1.47589
1.46319
1.50371
1.49436
1.48336
1.46517
1.4649
1.45155
1.47443
1.47675
1.46756
1.48835
1.47218
1.47318
1.47402
1.4888
1.46921
1.46947
1.47162
1.66441
1.68854
1.7056
1.70577
1.67611
1.68439
1.69297
1.57476
1.62009
1.60186
1.62094
1.58566
1.60563
1.59597
1.69647
1.67259
1.7142
1.69963
1.69104
1.68397
1.71152
1.66829
1.62414
1.67227
1.65179
1.65904
1.64744
1.66322
1.65555
1.65057
1.69717
1.6763
1.6694
1.66491
1.68096
1.63805
1.61319
1.63187
1.64641
1.63297
1.63237
1.6415
1.6896
1.69317
1.70967
1.67983
1.69374
1.6801
1.68881
1.6163
1.62289
1.64607
1.64787
1.63312
1.63679
1.64426
1.56021
1.58719
1.56615
1.59255
1.57542
1.58675
1.58056
1.65903
1.65834
1.70062
1.68133
1.67373
1.67128
1.68514
1.61236
1.58366
1.63057
1.61417
1.60481
1.59641
1.62846
1.63722
1.61549
1.66302
1.63017
1.63813
1.62042
1.65264
1.62615
1.5807
1.60395
1.59422
1.60163
1.59148
1.60844
1.62439
1.64288
1.6668
1.64925
1.64141
1.63884
1.65554
1.50572
1.53416
1.49271
1.49673
1.51815
1.51286
1.50335
1.49469
1.50896
1.50321
1.50931
1.50205
1.4995
1.48387
1.49514
1.4894
1.47723
1.51792
1.49757
1.49784
1.50946
1.49758
1.47849
1.49571
1.50604
1.50468
1.49354
1.49377
1.51131
1.52303
1.47806
1.72138
1.84077
1.83107
1.66472
1.66508
1.68193
1.70879
1.71535
1.73084
1.78502
1.73498
1.7388
1.6979
1.7237
1.70216
1.69143
1.75457
1.74879
1.73642
1.71664
1.73446
1.73421
1.83071
1.81642
1.79792
1.79139
1.79978
1.79814
1.81653
1.8256
1.81277
1.81724
1.82224
1.65832
1.6636
1.65563
1.68128
1.67105
1.48496
1.47363
1.48919
1.5235
1.49903
1.50938
1.49494
1.50845
1.46491
1.46483
1.54625
1.63067
1.69505
1.65856
1.66556
1.69085
1.7099
1.65188
1.67805
1.71223
1.67421
1.74448
1.74886
1.76476
1.75519
1.74716
1.77257
1.71234
1.69208
1.69723
1.70319
1.68888
1.72289
1.70695
1.72447
1.73547
1.71896
1.72182
1.72967
1.73578
1.69688
1.71706
1.70448
1.72765
1.70893
1.7194
1.7186
1.7382
1.75274
1.72769
1.73295
1.73856
1.70499
1.70248
1.72662
1.72538
1.71458
1.71477
1.72251
1.74363
1.72717
1.75009
1.73191
1.74369
1.73251
1.73974
1.68981
1.66525
1.70119
1.69264
1.68577
1.68341
1.69497
1.67959
1.66814
1.67943
1.67305
1.69652
1.71398
1.71123
1.68468
1.6907
1.7