/*--------------------------------*- C++ -*----------------------------------*\
| =========                 |                                                 |
| \\      /  F ield         | OpenFOAM: The Open Source CFD Toolbox           |
|  \\    /   O peration     | Version:  v1612+                                |
|   \\  /    A nd           | Web:      www.OpenFOAM.com                      |
|    \\/     M anipulation  |                                                 |
\*---------------------------------------------------------------------------*/
FoamFile
{
    version     2.0;
    format      ascii;
    class       volVectorField;
    location    "50";
    object      U;
}
// * * * * * * * * * * * * * * * * * * * * * * * * * * * * * * * * * * * * * //

dimensions      [0 1 -1 0 0 0 0];

internalField   nonuniform List<vector> 
21229
(
(-0.147933 0.0124428 -0.67612)
(-0.235136 0.28606 -0.528436)
(-0.238963 0.263371 -0.555298)
(-0.240954 0.243974 -0.419901)
(-0.301379 0.412245 -0.811469)
(-0.122172 0.147392 -0.790584)
(0.00436702 0.0310194 -0.858893)
(0.0133632 0.0223509 -0.84178)
(-0.249478 0.37146 -0.490419)
(-0.241279 0.285117 -0.764051)
(-0.298517 0.343582 -0.780957)
(-0.263932 0.472613 -0.427225)
(-0.262606 0.485602 -0.434322)
(-0.276882 0.362824 -0.835479)
(-0.342925 0.512681 -0.554534)
(-0.189784 0.466602 -0.549991)
(-0.153511 0.109769 -0.680717)
(-0.101025 -0.00555656 -0.658402)
(-0.291641 0.487032 -0.689295)
(-0.321241 0.478394 -0.696741)
(-0.325293 0.548086 -0.735178)
(-0.276145 0.412709 -0.486434)
(-0.304885 0.559211 -0.546646)
(-0.23021 0.414441 -0.594177)
(-0.234611 0.409715 -0.628243)
(-0.0627283 0.0491605 -0.764163)
(-0.0375481 0.0483949 -0.736501)
(-0.211731 0.31344 -0.542615)
(-0.00867583 0.0681234 -0.771367)
(-0.291592 0.429935 -0.468443)
(-0.133399 -0.0393832 -0.694499)
(-0.228652 0.440407 -0.5627)
(-0.249749 0.46055 -0.580766)
(-0.283768 0.433044 -0.559364)
(0.00263077 0.0466241 -0.762485)
(-0.0164019 0.0345726 -0.776528)
(-0.180515 0.355525 -0.529282)
(-0.296203 0.337664 -0.705436)
(-0.289281 0.372855 -0.704)
(-0.269639 0.267416 -0.632301)
(-0.282611 0.340714 -0.688604)
(-0.329838 0.499853 -0.806716)
(-0.151465 -0.0682615 -0.742172)
(-0.274275 0.223637 -0.817033)
(-0.113845 0.179218 -0.88876)
(-0.0869972 0.112872 -0.808933)
(-0.272386 0.356718 -0.479159)
(-0.290315 0.397579 -0.462628)
(-0.288433 0.417442 -0.483575)
(-0.232979 0.11569 -0.779032)
(-0.177478 0.385568 -0.436056)
(-0.220887 0.380136 -0.528417)
(0.0837521 -0.0791081 -0.822158)
(-0.060926 -0.132747 -0.802068)
(-0.0378414 -0.148774 -0.790917)
(-0.356592 0.462514 -0.704851)
(-0.33507 0.447023 -0.701365)
(-0.1444 0.387335 -0.712142)
(-0.301394 0.380831 -0.681646)
(-0.283579 0.437453 -0.420013)
(-0.307895 0.548185 -0.476725)
(-0.303984 0.52805 -0.48592)
(-0.321402 0.5668 -0.498513)
(-0.296273 0.323078 -0.557772)
(-0.224657 0.309551 -0.737881)
(-0.240306 0.18663 -0.819996)
(-0.106839 0.200463 -0.664782)
(-0.0571178 0.192064 -0.726983)
(-0.0589999 0.191868 -0.760318)
(-0.0522089 0.159384 -0.699866)
(-0.102114 0.231248 -0.646158)
(-0.227057 0.214053 -0.568393)
(-0.26209 0.300962 -0.498893)
(-0.303422 0.406313 -0.613255)
(-0.258166 0.232464 -0.506401)
(-0.231769 0.205689 -0.414779)
(-0.068716 -0.0990823 -0.833665)
(-0.00818598 -0.186266 -0.728161)
(-0.326305 0.496555 -0.548947)
(-0.100064 0.0920831 -0.774319)
(-0.292599 0.47516 -0.552802)
(-0.0452443 0.0988153 -0.71802)
(-0.0971496 0.0750043 -0.499387)
(0.117081 0.0546697 -0.733605)
(-0.137128 0.355746 -0.742711)
(-0.0997632 -0.0540752 -0.708215)
(-0.135963 0.0615323 -0.844601)
(0.0904425 -0.0920007 -0.812078)
(-0.00574295 0.114755 -0.80333)
(-0.0877091 -0.0244263 -0.849423)
(0.0281424 -0.125163 -0.743678)
(-0.134747 0.272405 -0.662751)
(-0.126512 0.261079 -0.655582)
(-0.156962 0.297167 -0.63973)
(-0.113789 0.0372496 -0.543861)
(-0.137698 0.0844477 -0.59259)
(-0.147478 0.143453 -0.706602)
(-0.149047 0.0308821 -0.608327)
(0.044391 0.0179062 -0.777375)
(-0.0589578 0.0483282 -0.736903)
(-0.131187 -0.0423193 -0.567506)
(-0.103302 0.151121 -0.6803)
(-0.180605 0.124686 -0.570448)
(-0.0505267 0.145652 -0.738623)
(-0.0679074 0.173439 -0.764832)
(-0.266254 0.401226 -0.469986)
(-0.119022 0.284467 -0.726271)
(-0.0257112 0.179686 -0.591337)
(0.208397 -0.114919 -0.75584)
(0.202599 -0.0896496 -0.711213)
(0.228591 -0.136499 -0.694167)
(0.208409 -0.0442992 -0.65869)
(-0.201076 0.226164 -0.562782)
(-0.178698 0.164975 -0.54482)
(-0.162971 0.360245 -0.482524)
(-0.0376362 0.100211 -0.715733)
(-0.18207 0.404754 -0.625288)
(-0.114081 0.277932 -0.580093)
(-0.270497 0.286855 -0.576639)
(-0.22047 0.443068 -0.546725)
(-0.0348075 0.18283 -0.772504)
(0.00134029 0.170505 -0.717029)
(-0.103275 0.33106 -0.525745)
(-0.138435 0.170844 -0.622397)
(-0.184836 0.453535 -0.489943)
(-0.236556 0.541377 -0.562323)
(-0.347672 0.572651 -0.563385)
(-0.337535 0.54037 -0.539898)
(-0.10757 0.149043 -0.686215)
(-0.232962 0.437339 -0.580856)
(-0.233384 0.498689 -0.56313)
(-0.232376 0.32064 -0.540753)
(-0.118563 -0.00156841 -0.755248)
(-0.288262 0.42991 -0.666052)
(-0.302586 0.497135 -0.690877)
(-0.317984 0.423169 -0.678094)
(-0.0286234 0.0144484 -0.69204)
(-0.218672 0.34421 -0.596813)
(-0.23867 0.417236 -0.655598)
(-0.226046 0.447052 -0.560907)
(-0.222991 0.418499 -0.570004)
(-0.15704 0.287029 -0.624785)
(-0.180455 0.284647 -0.639847)
(-0.291407 0.442346 -0.671451)
(-0.321521 0.39325 -0.672395)
(-0.31556 0.358904 -0.666769)
(-0.223336 0.442823 -0.493317)
(-0.17041 0.432392 -0.667279)
(0.101904 0.0162011 -0.744237)
(-0.00531161 0.0592873 -0.761936)
(-0.211508 0.320147 -0.707791)
(0.00339071 -0.0950753 -0.914679)
(-0.177703 0.0936609 -0.848541)
(-0.183361 0.177597 -0.600912)
(-0.217647 0.224138 -0.527994)
(-0.208489 0.220114 -0.595915)
(-0.14647 -0.0252232 -0.61841)
(-0.156188 0.0582848 -0.75709)
(-0.183262 0.146849 -0.643768)
(-0.231203 0.165443 -0.623525)
(0.0219528 -0.0066098 -0.864219)
(-0.00378639 -0.0342927 -0.83551)
(-0.007824 0.00721802 -0.863393)
(0.0114471 0.101859 -0.368446)
(0.0993346 0.078767 -0.645086)
(-0.128213 0.152347 -0.562826)
(-0.224627 0.113344 -0.757598)
(-0.32805 0.524516 -0.519441)
(-0.351052 0.583755 -0.539384)
(-0.103345 0.167743 -0.635219)
(-0.0900892 -0.0618525 -0.794634)
(-0.292422 0.442858 -0.455182)
(-0.100227 -0.105219 -0.80556)
(-0.10945 -0.124876 -0.746061)
(-0.271694 0.449907 -0.611213)
(-0.221273 0.274024 -0.446018)
(-0.188387 0.319535 -0.602979)
(-0.177961 0.342304 -0.59921)
(-0.18037 0.323656 -0.580439)
(-0.201644 0.338764 -0.568463)
(-0.19294 0.30383 -0.549315)
(-0.218375 0.364045 -0.557211)
(0.0720871 0.105862 -0.509324)
(-0.196005 0.0672787 -0.682671)
(-0.171021 0.0284102 -0.703283)
(-0.187536 0.0663713 -0.613101)
(-0.0793656 -0.0707856 -0.703978)
(-0.11168 -0.0202542 -0.759355)
(-0.269698 0.379978 -0.507546)
(-0.229356 0.185296 -0.578685)
(-0.0830999 -0.0908909 -0.750059)
(-0.0756819 -0.113843 -0.659265)
(-0.0681923 -0.10641 -0.753184)
(-0.0269628 -0.00431839 -0.785663)
(-0.0549496 0.112228 -0.795411)
(-0.041451 0.118953 -0.787948)
(0.0361445 0.179577 -0.647698)
(-0.0221214 0.059883 -0.677645)
(-0.0649646 0.123582 -0.738591)
(-0.136189 0.341598 -0.535726)
(-0.169777 0.433534 -0.506476)
(-0.264633 0.409318 -0.4069)
(-0.248426 0.259374 -0.648994)
(-0.271406 0.375605 -0.531232)
(-0.23472 0.2938 -0.535851)
(-0.167493 0.0982059 -0.741315)
(-0.23257 0.206606 -0.822993)
(-0.284379 0.416229 -0.433468)
(-0.262473 0.433 -0.481345)
(-0.326234 0.514378 -0.505016)
(-0.30838 0.486071 -0.503591)
(-0.305017 0.462346 -0.565236)
(-0.297091 0.443055 -0.541416)
(-0.270258 0.431858 -0.535711)
(-0.296246 0.510497 -0.570373)
(-0.289017 0.486994 -0.586754)
(-0.142327 0.387905 -0.572964)
(-0.190326 0.424999 -0.614939)
(-0.157174 0.321172 -0.597874)
(-0.0325229 -0.0177304 -0.772596)
(-0.138342 0.114419 -0.825705)
(-0.0470247 0.017261 -0.738139)
(-0.280465 0.372525 -0.56503)
(-0.142235 0.00355106 -0.650433)
(-0.25358 0.234091 -0.612825)
(-0.258087 0.252958 -0.558466)
(-0.261875 0.461282 -0.615567)
(-0.0684759 0.139076 -0.690702)
(-0.0797601 0.146101 -0.73561)
(-0.206272 0.120638 -0.541458)
(-0.262287 0.255589 -0.53056)
(-0.171323 0.398787 -0.65595)
(0.0456889 0.176819 -0.582522)
(-0.060449 0.286826 -0.717773)
(-0.0339127 0.255208 -0.643333)
(-0.153086 0.376068 -0.709171)
(-0.209071 0.463325 -0.697803)
(-0.184206 0.439753 -0.628297)
(-0.262474 0.310772 -0.464981)
(-0.164901 0.182056 -0.824824)
(-0.234296 0.430759 -0.401702)
(-0.238422 0.393911 -0.378809)
(-0.243506 0.427976 -0.436836)
(-0.0527409 0.0294746 -0.73537)
(0.149774 0.0774432 -0.634733)
(0.117585 0.0882159 -0.659118)
(0.156894 0.0688849 -0.616468)
(0.0834886 0.130992 -0.64274)
(-0.0289812 0.100167 -0.805423)
(-0.0104478 0.0209365 -0.861205)
(-0.00539603 0.0671749 -0.728482)
(-0.014488 0.0764069 -0.73675)
(-0.242498 0.192325 -0.591981)
(-0.202078 0.154073 -0.666057)
(-0.23533 0.177627 -0.58713)
(-0.239481 0.177046 -0.591064)
(-0.219665 0.158634 -0.619349)
(-0.206937 0.106313 -0.549122)
(-0.107366 -0.0426885 -0.703072)
(-0.0692155 -0.111885 -0.697986)
(-0.251109 0.278544 -0.490046)
(-0.265003 0.330878 -0.48664)
(-0.00650724 0.0577293 -0.706594)
(-0.118137 0.00882512 -0.765268)
(-0.324926 0.520496 -0.507063)
(-0.252598 0.502871 -0.46126)
(-0.224403 0.321126 -0.627186)
(-0.247337 0.339076 -0.682638)
(-0.164137 0.370822 -0.440392)
(-0.213024 0.42068 -0.49519)
(-0.146213 0.305312 -0.433535)
(-0.16868 0.412309 -0.487296)
(-0.236328 0.446289 -0.41906)
(-0.22121 0.476402 -0.463693)
(-0.293291 0.368621 -0.554084)
(-0.269714 0.264412 -0.492183)
(-0.286701 0.354386 -0.487142)
(-0.295743 0.344624 -0.616119)
(-0.287536 0.391675 -0.63879)
(-0.285359 0.390045 -0.589765)
(-0.182053 0.4515 -0.47972)
(-0.186849 0.476624 -0.501771)
(-0.243526 0.534066 -0.540932)
(-0.140483 0.0277522 -0.707521)
(-0.151526 0.0582963 -0.720691)
(-0.0531742 0.000887551 -0.690101)
(-0.0530709 -0.0238932 -0.652681)
(-0.104408 0.247668 -0.72043)
(-0.151029 0.22721 -0.771441)
(-0.331868 0.496857 -0.559496)
(-0.124442 0.175701 -0.65007)
(-0.172861 0.23551 -0.601609)
(-0.213838 0.29737 -0.644701)
(-0.225929 0.342254 -0.741285)
(-0.20464 0.200944 -0.722739)
(-0.0298556 0.0396629 -0.726935)
(-0.206671 0.135836 -0.469767)
(-0.299596 0.450167 -0.533058)
(-0.195156 0.465926 -0.630749)
(-0.150791 0.419188 -0.56804)
(-0.194403 0.249373 -0.549455)
(-0.172705 0.220764 -0.558179)
(-0.241497 0.402497 -0.401692)
(-0.261879 0.443411 -0.423237)
(-0.252268 0.390043 -0.416024)
(-0.284819 0.512664 -0.526884)
(-0.26823 0.39497 -0.425181)
(-0.271376 0.386939 -0.431223)
(-0.154395 0.304643 -0.547911)
(-0.143732 0.28122 -0.595392)
(-0.152277 0.32804 -0.604943)
(-0.185238 0.297374 -0.572809)
(-0.160413 0.26455 -0.54042)
(-0.140332 0.271598 -0.584984)
(-0.182128 0.297021 -0.546351)
(-0.231763 0.497122 -0.490042)
(-0.156678 0.000786734 -0.667377)
(-0.183978 0.0767763 -0.648421)
(-0.173041 0.289604 -0.527588)
(-0.206344 0.410682 -0.509368)
(-0.191451 0.347361 -0.456304)
(-0.203325 0.330366 -0.50473)
(-0.175056 0.316452 -0.451191)
(-0.198032 0.347477 -0.50522)
(-0.266082 0.307155 -0.471329)
(-0.261418 0.290675 -0.46073)
(-0.00179371 -0.0170023 -0.790007)
(-0.241003 0.249554 -0.449115)
(-0.242638 0.30972 -0.508676)
(-0.282542 0.304571 -0.537623)
(-0.277046 0.302559 -0.477992)
(-0.225036 0.416098 -0.439879)
(-0.189798 0.314068 -0.494972)
(-0.232486 0.319444 -0.476825)
(-0.0479589 -0.128076 -0.752379)
(-0.32817 0.433491 -0.615649)
(-0.260845 0.37763 -0.440798)
(-0.241689 0.348684 -0.610549)
(-0.157959 0.0149058 -0.646343)
(-0.161862 0.115744 -0.657097)
(-0.169146 0.0607163 -0.70514)
(-0.0758387 0.148636 -0.619986)
(-0.113084 0.135832 -0.674841)
(-0.0729402 0.140231 -0.68783)
(-0.0903486 0.117725 -0.681008)
(-0.0505872 0.0699108 -0.384513)
(-0.093901 0.034669 -0.469456)
(-0.287807 0.544307 -0.556384)
(-0.246976 0.239714 -0.483761)
(-0.261335 0.293255 -0.509298)
(-0.173427 0.123301 -0.603674)
(-0.183311 0.0763653 -0.604797)
(-0.176205 0.0537595 -0.573654)
(-0.198332 0.0912943 -0.634694)
(-0.277396 0.394372 -0.395089)
(-0.300556 0.488893 -0.598499)
(-0.303872 0.464473 -0.582398)
(-0.31205 0.507332 -0.648052)
(-0.192415 0.306129 -0.716156)
(-0.133056 0.325674 -0.647787)
(-0.315104 0.507963 -0.610628)
(-0.32885 0.487826 -0.646478)
(-0.28243 0.393845 -0.4676)
(-0.29603 0.413133 -0.507047)
(-0.254321 0.269249 -0.416209)
(-0.167036 0.221692 -0.56028)
(-0.0540833 0.109835 -0.678122)
(-0.271313 0.508618 -0.468226)
(-0.222807 0.391046 -0.492659)
(-0.243434 0.44767 -0.529886)
(-0.280046 0.326401 -0.712268)
(-0.267176 0.272872 -0.758074)
(0.0511018 -0.244994 -0.792727)
(-0.119158 0.359911 -0.660889)
(-0.0858875 0.333071 -0.584956)
(-0.0980363 0.326243 -0.636608)
(-0.0395933 0.262214 -0.60183)
(-0.139213 0.36629 -0.627093)
(-0.107905 0.265389 -0.6157)
(-0.097909 0.137478 -0.675232)
(-0.1274 0.283254 -0.635828)
(-0.310533 0.347895 -0.742067)
(-0.288685 0.289794 -0.712271)
(-0.24701 0.295305 -0.640659)
(-0.309927 0.546791 -0.47143)
(-0.29218 0.58366 -0.501018)
(-0.0946062 0.0258218 -0.897007)
(0.00716828 -0.12272 -0.804577)
(-0.350956 0.509216 -0.61842)
(-0.227383 0.430008 -0.407224)
(-0.344188 0.561919 -0.561874)
(-0.331516 0.465118 -0.522039)
(-0.345202 0.428796 -0.592785)
(-0.286565 0.563966 -0.496388)
(-0.180216 0.363022 -0.515134)
(-0.204247 0.411731 -0.53603)
(-0.237384 0.481849 -0.553433)
(-0.174436 0.317461 -0.476691)
(-0.0797576 0.198916 -0.684287)
(-0.120105 0.280816 -0.534483)
(-0.143951 0.165647 -0.69698)
(-0.133049 -0.032786 -0.639595)
(-0.16788 0.0245338 -0.602549)
(-0.15255 -0.0105402 -0.663152)
(-0.178916 0.035197 -0.66994)
(-0.157414 -0.0110037 -0.617908)
(-0.23713 0.322247 -0.56167)
(-0.0240059 -0.0628512 -0.78986)
(-0.223351 0.189536 -0.559985)
(-0.0636214 0.087269 -0.719693)
(-0.0411853 0.0791363 -0.671522)
(-0.270173 0.357424 -0.468672)
(-0.305853 0.534571 -0.480682)
(-0.142464 0.225958 -0.650397)
(-0.339571 0.472407 -0.58584)
(-0.243158 0.304405 -0.452302)
(-0.174475 0.281162 -0.478686)
(-0.103825 -0.0450523 -0.732898)
(-0.0779325 -0.0767315 -0.772755)
(-0.223521 0.167706 -0.514388)
(-0.255964 0.317136 -0.458446)
(-0.22066 0.328111 -0.435355)
(-0.224841 0.442879 -0.536441)
(-0.176267 0.0338193 -0.607103)
(-0.00335769 0.0696294 -0.700099)
(-0.0733519 -0.0980984 -0.731055)
(-0.0534711 0.0436407 -0.752401)
(-0.160154 0.317347 -0.507193)
(-0.248704 0.325698 -0.741269)
(-0.15794 0.208945 -0.622357)
(-0.278763 0.494174 -0.67263)
(-0.223772 0.332373 -0.661951)
(-0.0878914 0.177238 -0.666657)
(-0.26235 0.29703 -0.45881)
(-0.221213 0.450375 -0.448178)
(-0.0984146 0.0293671 -0.737395)
(-0.206505 0.286798 -0.519312)
(-0.162173 0.246553 -0.560733)
(-0.189676 0.291361 -0.62)
(0.245595 -0.0403567 -0.593958)
(-0.180355 0.407533 -0.410086)
(-0.106244 0.208345 -0.655757)
(-0.186839 0.28665 -0.409664)
(-0.139233 0.202137 -0.647685)
(-0.189435 0.463575 -0.472454)
(-0.126248 0.380138 -0.58461)
(-0.274272 0.432237 -0.524164)
(-0.289895 0.406783 -0.407715)
(-0.0689295 -0.0686863 -0.737628)
(-0.238811 0.263392 -0.443038)
(-0.0956089 -0.1005 -0.662603)
(-0.00739153 0.103903 -0.74714)
(-0.208674 0.380005 -0.595448)
(-0.264412 0.277735 -0.465871)
(-0.334477 0.422887 -0.55337)
(-0.19302 0.151533 -0.48343)
(-0.243551 0.195832 -0.537889)
(0.0297556 0.0781444 -0.42078)
(-0.331351 0.416537 -0.642492)
(-0.205357 0.407995 -0.446722)
(-0.233993 0.458388 -0.530744)
(-0.234445 0.4923 -0.523025)
(-0.194827 0.418532 -0.48865)
(-0.253601 0.572629 -0.545875)
(-0.255421 0.45687 -0.520306)
(-0.18631 0.354075 -0.451561)
(-0.174265 0.329491 -0.442781)
(-0.190989 0.374424 -0.470555)
(-0.198234 0.440035 -0.469785)
(-0.0762612 -0.0832751 -0.741942)
(-0.0799765 -0.0898311 -0.778227)
(-0.217356 0.505784 -0.59865)
(-0.154407 0.424997 -0.549585)
(-0.280965 0.41397 -0.436818)
(-0.323042 0.499028 -0.496813)
(-0.129344 0.13811 -0.7442)
(-0.021108 0.0603116 -0.726794)
(-0.337243 0.363639 -0.62924)
(-0.327816 0.354187 -0.604384)
(-0.232777 0.362064 -0.542682)
(-0.151814 0.385675 -0.604574)
(-0.189879 0.42638 -0.637541)
(-0.216613 0.454354 -0.638082)
(0.0295416 -0.0620299 -0.696318)
(-0.13547 -0.045383 -0.608166)
(0.0812855 -0.0441584 -0.780227)
(-0.143121 0.0588014 -0.671857)
(-0.144263 0.0380475 -0.696443)
(-0.141619 0.0198809 -0.640259)
(0.200683 0.0378465 -0.444396)
(0.218463 0.0198803 -0.504788)
(0.0187088 -0.184974 -0.797773)
(-0.304805 0.229603 -0.774878)
(-0.273617 0.26706 -0.806746)
(-0.259552 0.247767 -0.517488)
(-0.223024 0.147275 -0.551995)
(-0.00800625 -0.0307526 -0.685535)
(-0.0515837 0.0228411 -0.693463)
(-0.253169 0.302857 -0.47644)
(-0.217983 0.294772 -0.476635)
(-0.191553 0.287761 -0.464284)
(-0.211183 0.271447 -0.629658)
(-0.224212 0.463971 -0.478117)
(-0.184773 0.309913 -0.522973)
(-0.182317 0.367939 -0.529752)
(-0.177815 0.402979 -0.529877)
(-0.232951 0.498665 -0.501456)
(-0.148476 0.286441 -0.613923)
(-0.217857 0.454665 -0.470496)
(-0.0855742 0.0357357 -0.760908)
(-0.0860929 0.0354398 -0.683248)
(-0.0625533 0.0120352 -0.714082)
(-0.0836807 0.00476806 -0.717499)
(-0.0501641 -0.00895614 -0.74528)
(-0.262502 0.233204 -0.548124)
(0.117509 -0.206357 -0.745685)
(-0.0695992 -0.0598967 -0.807781)
(-0.238763 0.482479 -0.509123)
(-0.257527 0.434433 -0.471422)
(-0.138941 0.321592 -0.527832)
(-0.183062 0.346319 -0.612027)
(-0.151989 0.31511 -0.530081)
(-0.136668 0.300624 -0.515727)
(-0.210427 0.317588 -0.434634)
(-0.0343977 0.264764 -0.603901)
(-0.0166294 0.227838 -0.69662)
(-0.182474 0.283383 -0.469072)
(-0.223682 0.299324 -0.48335)
(-0.217639 0.268127 -0.49849)
(-0.186269 0.334562 -0.45194)
(0.031004 -0.0649859 -0.761715)
(0.0672277 -0.0926776 -0.739346)
(-0.207109 0.359001 -0.662846)
(-0.232851 0.209192 -0.378122)
(-0.266361 0.325782 -0.461192)
(-0.153101 0.195113 -0.593317)
(-0.139806 0.101557 -0.563243)
(-0.242813 0.261276 -0.561292)
(-0.18504 0.241795 -0.689771)
(-0.180597 0.45113 -0.440063)
(-0.196987 0.316849 -0.411848)
(-0.217923 0.365225 -0.454677)
(0.02221 -0.0786698 -0.849161)
(-0.220726 0.16714 -0.558135)
(-0.172016 0.303315 -0.410063)
(-0.265521 0.40672 -0.620411)
(0.0305216 0.131262 -0.678143)
(-0.245207 0.25414 -0.39405)
(-0.147314 0.0167686 -0.661986)
(-0.0928878 0.312801 -0.617985)
(-0.0967273 -0.109204 -0.809381)
(-0.203993 0.403424 -0.583604)
(-0.180665 0.405474 -0.582698)
(-0.304067 0.29695 -0.691901)
(-0.203928 0.448098 -0.425124)
(0.169519 0.0674651 -0.481641)
(-0.208429 0.364851 -0.590547)
(-0.103696 -0.0607689 -0.774919)
(-0.128276 -0.0403203 -0.729477)
(0.00229791 0.0563615 -0.787213)
(-0.258972 0.416637 -0.72461)
(-0.1557 0.0147204 -0.593433)
(-0.21614 0.392636 -0.582452)
(-0.177165 0.364653 -0.544825)
(-0.173584 0.266952 -0.505017)
(-0.169023 0.284876 -0.533079)
(-0.349509 0.494629 -0.621886)
(-0.340502 0.498949 -0.646198)
(-0.138164 -0.0249925 -0.632338)
(-0.17226 0.26294 -0.494321)
(-0.332721 0.369984 -0.619857)
(-0.271564 0.396217 -0.403454)
(-0.0472784 0.0509415 -0.766868)
(-0.0626766 0.180518 -0.676808)
(-0.148422 0.375918 -0.429277)
(-0.177714 0.258867 -0.47216)
(-0.173958 0.288716 -0.486908)
(-0.211092 0.528897 -0.496466)
(-0.219841 0.466827 -0.51767)
(-0.329841 0.49043 -0.571698)
(-0.122958 0.181689 -0.659097)
(-0.157901 0.0015679 -0.629129)
(-0.291374 0.445412 -0.511252)
(-0.237891 0.47421 -0.525985)
(-0.270078 0.32295 -0.414895)
(-0.102967 0.0583819 -0.670556)
(-0.147453 0.0867608 -0.623758)
(-0.193315 0.175793 -0.609725)
(-0.360771 0.48767 -0.703415)
(-0.351111 0.410098 -0.657748)
(-0.346569 0.486358 -0.666787)
(-0.198323 0.454897 -0.555962)
(-0.13493 0.371591 -0.519522)
(-0.0903303 0.283168 -0.521291)
(-0.199051 0.391377 -0.588639)
(-0.0100287 0.104374 -0.746107)
(-0.0498669 0.152979 -0.698532)
(-0.101542 0.235233 -0.733371)
(-0.262268 0.355145 -0.441013)
(-0.180189 0.388075 -0.593885)
(-0.217586 0.212598 -0.542126)
(-0.218882 0.14808 -0.477501)
(-0.267384 0.287642 -0.497797)
(-0.0905155 0.207459 -0.820011)
(-0.278582 0.381932 -0.411895)
(-0.311723 0.494516 -0.580562)
(-0.0318487 0.0618639 -0.770856)
(0.0200599 -0.0261428 -0.74925)
(-0.0872956 0.218104 -0.745222)
(-0.190101 0.431667 -0.643594)
(-0.144496 0.313672 -0.449355)
(-0.145758 0.230173 -0.578236)
(-0.0625073 0.133896 -0.757619)
(-0.254491 0.382029 -0.578897)
(-0.151668 0.326636 -0.540044)
(-0.186641 0.380801 -0.575202)
(-0.0267607 -0.0560075 -0.734127)
(-0.246547 0.414749 -0.555528)
(-0.280219 0.499548 -0.641518)
(0.0294909 0.0565973 -0.74007)
(0.00753947 0.0556788 -0.835026)
(-0.260816 0.234604 -0.591676)
(-0.226465 0.163084 -0.534988)
(-0.249888 0.210922 -0.568973)
(-0.0302008 0.0525577 -0.827435)
(-0.332165 0.467769 -0.527156)
(-0.167091 0.142734 -0.773153)
(-0.196723 0.170068 -0.785302)
(-0.168496 0.439044 -0.492068)
(-0.18632 0.394794 -0.460881)
(-0.0541095 -0.143087 -0.72931)
(0.134843 0.0862721 -0.554507)
(0.162463 0.0798349 -0.500271)
(-0.201958 0.244694 -0.642724)
(-0.165254 0.233972 -0.695629)
(-0.199806 0.197166 -0.636486)
(-0.279383 0.320904 -0.494218)
(-0.240914 0.32751 -0.509358)
(-0.21163 0.196454 -0.433814)
(-0.211528 0.509625 -0.575745)
(-0.198749 0.442545 -0.597195)
(-0.255073 0.347816 -0.480338)
(-0.225568 0.285098 -0.432387)
(-0.265492 0.323907 -0.40548)
(-0.254679 0.310998 -0.405766)
(-0.179561 0.398606 -0.420392)
(-0.178692 0.395227 -0.420153)
(-0.196776 0.418849 -0.451796)
(-0.24446 0.517835 -0.469978)
(-0.219433 0.479348 -0.463361)
(-0.19568 0.157799 -0.467179)
(-0.193248 0.176841 -0.545283)
(-0.192841 0.171517 -0.581575)
(-0.223461 0.151174 -0.524207)
(-0.238973 0.202433 -0.621608)
(-0.233033 0.191008 -0.461021)
(-0.116878 -0.0614007 -0.704802)
(-0.0929821 0.214342 -0.606366)
(-0.34639 0.525605 -0.665253)
(-0.351234 0.486927 -0.699694)
(-0.328936 0.401274 -0.729647)
(-0.0925353 0.187134 -0.924652)
(-0.0937392 0.252419 -0.730738)
(0.186288 -0.0221886 -0.649736)
(-0.157865 0.0167969 -0.682505)
(0.142229 0.0299307 -0.715059)
(-0.163624 0.155165 -0.90951)
(-0.135072 0.197439 -0.983987)
(-0.110133 0.325555 -0.710267)
(-0.194801 0.125698 -0.628064)
(-0.261307 0.270917 -0.508714)
(-0.0670189 -0.101111 -0.804042)
(0.000414337 0.0331649 -0.786961)
(-0.0599505 0.140283 -0.982041)
(-0.288231 0.495689 -0.750785)
(-0.335854 0.68633 -0.618825)
(-0.304367 0.549133 -0.769423)
(-0.143344 0.271432 -0.827592)
(-0.16061 0.259897 -0.55333)
(-0.226216 0.336223 -0.876237)
(-0.0683316 0.144332 -0.678037)
(-0.355353 0.59738 -0.729593)
(-0.3113 0.567912 -0.605051)
(-0.190624 0.336201 -0.585221)
(-0.143148 0.305936 -0.497163)
(-0.318768 0.560908 -0.517976)
(-0.292594 0.247826 -0.800133)
(-0.220515 0.278861 -0.931065)
(-0.154423 0.193102 -0.908968)
(-0.154626 0.143116 -0.901122)
(-0.0969789 0.209275 -0.893748)
(-0.166488 0.277031 -0.83161)
(-0.119319 0.265376 -0.754705)
(-0.0881771 -0.0548147 -0.865414)
(-0.184544 0.167733 -0.867743)
(-0.136462 -0.0181608 -0.777948)
(-0.115768 -0.0236746 -0.731224)
(-0.137276 -0.0353514 -0.677479)
(-0.0945789 -0.0686225 -0.749184)
(0.0489263 0.0477113 -0.830562)
(-0.278831 0.481143 -0.804165)
(-0.141928 0.31483 -0.635867)
(-0.231463 0.399214 -0.806648)
(-0.279037 0.461646 -0.776915)
(-0.163001 0.248873 -0.987881)
(-0.156407 0.180115 -0.789304)
(-0.273047 0.29603 -0.783677)
(-0.15668 0.26446 -0.780641)
(-0.199069 0.236245 -0.927344)
(-0.191773 0.161846 -0.701381)
(-0.231732 0.379734 -0.883626)
(0.107671 0.0525377 -0.721425)
(-0.0862144 0.00105326 -0.920001)
(-0.168714 0.0799351 -0.797313)
(-0.19626 0.200203 -0.962022)
(0.0778707 -0.0953038 -0.784568)
(-0.0113617 -0.0969232 -0.775916)
(-0.227247 0.287879 -0.919745)
(-0.0442193 0.1737 -0.571147)
(-0.143041 0.197333 -0.924579)
(-0.123416 0.0679632 -0.968631)
(-0.186354 0.246372 -0.969947)
(-0.0667711 0.139358 -0.81147)
(-0.180444 0.181604 -0.957474)
(-0.232801 0.353899 -0.924613)
(-0.28933 0.457427 -0.870314)
(-0.151291 0.235158 -0.787339)
(-0.218824 0.360503 -0.866834)
(-0.271728 0.427675 -0.870745)
(-0.283873 0.481009 -0.864587)
(-0.194008 0.27761 -0.879169)
(-0.226618 0.375118 -0.668055)
(-0.274257 0.298801 -0.547562)
(-0.293755 0.375963 -0.649719)
(-0.146733 0.151958 -0.57149)
(-0.311882 0.522175 -0.516379)
(-0.160791 0.255397 -0.588365)
(-0.0918958 0.177019 -0.915305)
(-0.0545216 0.0384976 -0.929095)
(-0.118213 0.0669453 -0.868134)
(-0.110376 -0.0441065 -0.694154)
(-0.125089 0.0474633 -0.815873)
(-0.0846 0.132725 -0.995157)
(-0.0947674 0.0643816 -0.923712)
(-0.0694139 -0.0532539 -0.830066)
(-0.343575 0.620163 -0.573012)
(-0.276153 0.576524 -0.697598)
(-0.340061 0.560471 -0.565522)
(-0.27032 0.564183 -0.54722)
(-0.356518 0.631287 -0.647069)
(-0.3502 0.596126 -0.581378)
(-0.321333 0.341122 -0.624599)
(-0.341467 0.691259 -0.64691)
(-0.347785 0.717178 -0.640893)
(-0.226791 0.478057 -0.485146)
(-0.195417 0.103566 -0.695292)
(-0.187871 0.143728 -0.689204)
(-0.276616 0.358853 -0.739443)
(-0.280806 0.460513 -0.717089)
(-0.327492 0.608405 -0.731664)
(-0.293794 0.505137 -0.795042)
(-0.302228 0.437933 -0.698484)
(-0.304914 0.514314 -0.716028)
(-0.312513 0.535846 -0.794515)
(-0.222432 0.406248 -0.869498)
(-0.203492 0.315208 -0.772436)
(-0.0919332 0.233568 -0.623198)
(-0.222088 0.361382 -0.809534)
(-0.174696 0.174724 -0.655166)
(-0.214312 0.131351 -0.606106)
(-0.201178 0.212538 -0.560483)
(-0.196238 0.0997866 -0.526656)
(-0.240093 0.307078 -0.72283)
(-0.128585 0.232534 -0.716692)
(-0.198794 0.285033 -0.620446)
(-0.174953 0.216205 -0.516183)
(-0.263703 0.426179 -0.740025)
(-0.261831 0.442401 -0.849309)
(-0.253717 0.305391 -0.83251)
(-0.228125 0.363469 -0.808471)
(-0.291739 0.469892 -0.79606)
(-0.278487 0.441963 -0.851789)
(-0.226156 0.32351 -0.779966)
(-0.0753884 0.165128 -0.892411)
(0.00414498 -0.0388731 -0.797108)
(-0.13293 -0.00106063 -0.667713)
(-0.00904718 0.0589292 -0.70498)
(-0.331496 0.661348 -0.636609)
(-0.339269 0.570794 -0.644151)
(-0.339249 0.665431 -0.707699)
(-0.338499 0.632382 -0.710521)
(-0.349269 0.70549 -0.652397)
(-0.359495 0.65671 -0.663943)
(-0.328173 0.637589 -0.709363)
(-0.266178 0.370633 -0.689272)
(-0.213201 0.449645 -0.535357)
(-0.328443 0.604471 -0.690588)
(-0.300361 0.539993 -0.693441)
(-0.22528 0.389223 -0.573825)
(-0.163844 0.21701 -0.717264)
(-0.305496 0.549631 -0.741217)
(-0.290089 0.4931 -0.630806)
(-0.334297 0.624739 -0.659963)
(-0.310968 0.593475 -0.656763)
(-0.312015 0.542232 -0.709805)
(-0.309835 0.529212 -0.653538)
(-0.327269 0.631929 -0.673962)
(-0.220847 0.450968 -0.510848)
(-0.187118 0.406961 -0.569946)
(-0.260893 0.466876 -0.769348)
(-0.183769 0.387806 -0.60732)
(-0.204203 0.393368 -0.505939)
(-0.203497 0.434045 -0.528568)
(-0.247869 0.425943 -0.686671)
(-0.187437 0.409275 -0.549919)
(-0.296426 0.572727 -0.659664)
(-0.278117 0.550272 -0.632624)
(-0.164803 0.353088 -0.586379)
(-0.326585 0.620659 -0.603962)
(-0.283014 0.41123 -0.46021)
(-0.303772 0.442195 -0.501688)
(-0.273816 0.349978 -0.426462)
(-0.28056 0.444647 -0.49486)
(-0.264383 0.314491 -0.548323)
(-0.306937 0.528076 -0.633652)
(-0.280663 0.344153 -0.478501)
(-0.236537 0.382858 -0.431432)
(-0.248051 0.462422 -0.477823)
(-0.23705 0.303369 -0.378447)
(-0.157236 0.251478 -0.909553)
(-0.142236 0.25481 -0.978765)
(-0.178065 0.303638 -0.921426)
(-0.153451 0.270404 -0.962223)
(-0.126754 0.24127 -0.93257)
(-0.120651 0.236494 -0.934586)
(-0.177342 0.291964 -0.953205)
(0.106962 0.058192 -0.688551)
(0.108537 0.022746 -0.706393)
(-0.0902552 0.0138792 -0.715666)
(-0.153097 -0.0172938 -0.680796)
(0.0731782 0.111089 -0.616248)
(-0.150716 0.190263 -0.662454)
(-0.242415 0.335509 -0.793626)
(-0.120995 0.113698 -0.657108)
(-0.172895 0.2332 -0.762049)
(-0.0918565 0.178923 -0.714692)
(-0.134165 0.169825 -0.717565)
(-0.0547351 0.247111 -0.715042)
(0.0113139 0.199804 -0.63877)
(-0.0871664 0.24492 -0.703946)
(-0.191215 0.236301 -0.868316)
(-0.19577 0.257979 -0.944665)
(-0.16998 0.221054 -0.877845)
(-0.190138 0.220422 -0.928733)
(-0.191494 0.214341 -0.893295)
(-0.187199 0.183814 -0.911743)
(-0.183622 0.220624 -0.9215)
(-0.144907 0.158792 -0.923708)
(-0.195599 0.268365 -0.953157)
(-0.145375 0.185415 -0.908264)
(-0.167186 0.237385 -0.957356)
(-0.146679 0.163357 -0.968114)
(-0.155268 0.181219 -0.983573)
(-0.163158 0.212499 -0.94457)
(0.0138075 0.197884 -0.709684)
(-0.0805276 0.23967 -0.770262)
(0.0429671 0.1666 -0.646688)
(-0.0853621 0.288105 -0.70983)
(0.0693688 0.15312 -0.626996)
(-0.202323 0.11685 -0.668271)
(-0.218989 0.211678 -0.686558)
(-0.195528 0.122235 -0.614652)
(-0.272621 0.2734 -0.517258)
(-0.224709 0.189617 -0.473848)
(-0.241321 0.280545 -0.50403)
(-0.189698 0.133544 -0.679389)
(-0.0348059 -0.107033 -0.877898)
(-0.0657549 -0.0397983 -0.897839)
(-0.0793853 0.0585215 -0.812856)
(-0.0641123 0.0646577 -0.913247)
(-0.101597 0.107852 -0.854595)
(-0.0721356 0.0881871 -0.903005)
(-0.0289849 0.0558594 -0.829696)
(-0.0946001 0.0999246 -0.892054)
(-0.045822 0.0930575 -0.891124)
(-0.0651314 0.0844986 -0.933256)
(-0.0894478 0.139055 -0.901056)
(-0.0830736 0.111056 -0.937136)
(-0.0552845 0.102177 -0.943399)
(-0.0667804 0.109934 -0.957334)
(-0.0911572 0.134921 -0.921778)
(-0.219685 0.139382 -0.7592)
(-0.300785 0.250453 -0.773875)
(-0.300037 0.244568 -0.786284)
(-0.329249 0.603514 -0.790554)
(-0.329209 0.567081 -0.805517)
(-0.322382 0.573322 -0.777233)
(-0.290093 0.499396 -0.698049)
(-0.334471 0.497318 -0.745769)
(-0.331206 0.473837 -0.598647)
(-0.347605 0.555144 -0.581578)
(-0.330118 0.655797 -0.606123)
(-0.321426 0.634979 -0.580356)
(-0.326773 0.680262 -0.585538)
(-0.33747 0.680691 -0.615048)
(-0.335969 0.688038 -0.614639)
(-0.328391 0.672695 -0.585434)
(-0.327779 0.601441 -0.792764)
(-0.302883 0.530957 -0.831794)
(-0.320778 0.574557 -0.813768)
(-0.299691 0.529212 -0.826207)
(-0.317662 0.56748 -0.785956)
(-0.315037 0.553192 -0.78507)
(-0.301271 0.548279 -0.827794)
(-0.185589 0.316291 -0.888827)
(-0.188653 0.291344 -0.803461)
(-0.1653 0.265348 -0.880071)
(-0.182402 0.263411 -0.817853)
(-0.176533 0.299039 -0.856096)
(-0.17887 0.310594 -0.82903)
(-0.186611 0.268763 -0.830204)
(-0.253097 0.301392 -0.616491)
(-0.232132 0.319486 -0.646088)
(-0.243807 0.250209 -0.503896)
(-0.19993 0.234221 -0.519366)
(-0.223919 0.194697 -0.526625)
(-0.213774 0.216414 -0.491193)
(-0.21709 0.30022 -0.637893)
(-0.208526 0.279862 -0.589129)
(-0.182427 0.256086 -0.566903)
(-0.203056 0.250505 -0.851239)
(-0.203461 0.286935 -0.808027)
(-0.182929 0.234537 -0.861109)
(-0.195947 0.284627 -0.839778)
(-0.212057 0.311988 -0.857079)
(-0.227986 0.325735 -0.849515)