/*--------------------------------*- C++ -*----------------------------------*\
| =========                 |                                                 |
| \\      /  F ield         | OpenFOAM: The Open Source CFD Toolbox           |
|  \\    /   O peration     | Version:  v1612+                                |
|   \\  /    A nd           | Web:      www.OpenFOAM.com                      |
|    \\/     M anipulation  |                                                 |
\*---------------------------------------------------------------------------*/
FoamFile
{
    version     2.0;
    format      ascii;
    class       volVectorField;
    location    "100";
    object      U;
}
// * * * * * * * * * * * * * * * * * * * * * * * * * * * * * * * * * * * * * //

dimensions      [0 1 -1 0 0 0 0];

internalField   nonuniform List<vector> 
21109
(
(-0.127449 0.684746 -0.256559)
(-0.110113 0.477702 -0.127171)
(-0.0833542 0.645824 -0.239058)
(-0.108952 0.754095 -0.282679)
(-0.0356937 0.64025 -0.228924)
(-0.109484 0.757781 -0.232646)
(-0.082371 0.684445 -0.243306)
(-0.100989 0.551847 -0.198591)
(-0.122918 0.737246 -0.289346)
(-0.147458 0.646312 -0.15276)
(-0.0656652 0.607185 -0.191097)
(-0.104294 0.57075 -0.152332)
(-0.0889134 0.752628 -0.283448)
(-0.094459 0.411038 -0.159214)
(-0.11476 0.559363 -0.16655)
(-0.0404654 0.600582 -0.223469)
(-0.123555 0.465952 -0.130848)
(-0.0838243 0.733323 -0.229657)
(-0.218254 0.788198 -0.242157)
(-0.106993 0.780846 -0.277248)
(-0.146621 0.718334 -0.312043)
(-0.141088 0.682543 -0.275352)
(-0.0983016 0.496511 -0.236124)
(-0.140389 0.738974 -0.286581)
(-0.0793542 0.641687 -0.255012)
(-0.151199 0.655575 -0.18339)
(-0.066869 0.624394 -0.227379)
(-0.0806937 0.680529 -0.210481)
(-0.0799275 0.728592 -0.229097)
(-0.0430179 0.56005 -0.233204)
(-0.0856373 0.66443 -0.215007)
(-0.16675 0.80001 -0.295318)
(-0.131217 0.695538 -0.264431)
(-0.141104 0.577986 -0.18715)
(-0.0835755 0.448526 -0.199447)
(-0.0703731 0.538992 -0.240505)
(-0.113546 0.549352 -0.187492)
(-0.113756 0.531489 -0.199811)
(-0.138221 0.610741 -0.22651)
(-0.117282 0.555328 -0.226099)
(-0.154851 0.698163 -0.250711)
(-0.145856 0.642477 -0.179867)
(-0.130607 0.539139 -0.176263)
(-0.164214 0.651825 -0.172311)
(-0.174131 0.740314 -0.199919)
(-0.105699 0.480546 -0.180378)
(-0.0872676 0.43252 -0.169805)
(-0.0950928 0.465637 -0.199538)
(-0.13591 0.697146 -0.323598)
(-0.13277 0.696155 -0.31966)
(-0.102621 0.73898 -0.276339)
(-0.0934487 0.691959 -0.259421)
(-0.133515 0.839065 -0.306889)
(-0.088446 0.678159 -0.253484)
(-0.137518 0.753532 -0.274643)
(-0.137191 0.690294 -0.250082)
(-0.158267 0.792708 -0.282776)
(-0.109952 0.61133 -0.277423)
(-0.0895976 0.688054 -0.243628)
(-0.126157 0.641256 -0.151371)
(-0.0717536 0.648528 -0.257774)
(-0.145546 0.773618 -0.239524)
(-0.103934 0.69456 -0.290719)
(-0.140732 0.755693 -0.28841)
(-0.134238 0.663777 -0.238159)
(-0.118021 0.688691 -0.280984)
(-0.104975 0.421503 -0.129303)
(-0.119919 0.686256 -0.274409)
(-0.154813 0.759288 -0.326138)
(-0.133838 0.686946 -0.286409)
(-0.0993596 0.751705 -0.250119)
(-0.0923635 0.730231 -0.237913)
(-0.131105 0.770691 -0.240409)
(-0.120279 0.551165 -0.194827)
(-0.125674 0.730927 -0.236529)
(-0.162226 0.85241 -0.309758)
(-0.167397 0.862272 -0.309642)
(-0.0704147 0.686439 -0.219056)
(-0.168064 0.772062 -0.243329)
(-0.148051 0.767114 -0.238841)
(-0.120628 0.683005 -0.223014)
(-0.128748 0.76131 -0.203733)
(-0.126066 0.748476 -0.192921)
(-0.0910671 0.706892 -0.251358)
(-0.0552687 0.660331 -0.244756)
(-0.0725503 0.498382 -0.206788)
(-0.100457 0.668153 -0.202103)
(-0.0953464 0.583757 -0.224643)
(-0.0899182 0.593939 -0.225721)
(-0.0803543 0.623955 -0.199863)
(-0.0748799 0.602772 -0.249277)
(-0.138912 0.694715 -0.256372)
(-0.122431 0.660914 -0.22291)
(-0.0975859 0.488264 -0.218747)
(-0.0969052 0.482458 -0.16625)
(-0.111024 0.544031 -0.236459)
(-0.0765192 0.710334 -0.259843)
(-0.10363 0.508374 -0.210312)
(-0.0579538 0.534803 -0.227909)
(-0.0812515 0.670913 -0.280167)
(-0.139866 0.702692 -0.283407)
(-0.0704546 0.599448 -0.264153)
(-0.0859233 0.551244 -0.250443)
(-0.0815678 0.545303 -0.24629)
(-0.0685269 0.640803 -0.247962)
(-0.0740524 0.567627 -0.241228)
(-0.0978977 0.597283 -0.171151)
(-0.140825 0.699494 -0.278597)
(-0.129783 0.654851 -0.29058)
(-0.174999 0.797372 -0.263065)
(-0.103328 0.59787 -0.255696)
(-0.177431 0.823493 -0.270702)
(-0.149787 0.736408 -0.299302)
(-0.133168 0.660154 -0.275578)
(-0.102368 0.618552 -0.296815)
(-0.114838 0.687497 -0.304143)
(-0.0494747 0.593318 -0.235812)
(-0.0792044 0.617363 -0.24774)
(-0.105284 0.572825 -0.229121)
(-0.0758237 0.46901 -0.211515)
(-0.0745509 0.538099 -0.234298)
(-0.156194 0.782808 -0.274701)
(-0.152948 0.783496 -0.284043)
(-0.140614 0.771079 -0.275885)
(-0.0489322 0.634041 -0.181828)
(-0.0723883 0.713881 -0.224477)
(-0.147962 0.749128 -0.29555)
(-0.062142 0.593561 -0.249841)
(-0.178342 0.80388 -0.282487)
(-0.155177 0.58954 -0.161197)
(-0.1323 0.573515 -0.130567)
(-0.129839 0.477879 -0.127397)
(-0.104297 0.544815 -0.251708)
(-0.100309 0.484324 -0.211403)
(-0.0745817 0.620434 -0.197039)
(-0.0870479 0.684532 -0.219328)
(-0.0773263 0.69168 -0.229466)
(-0.0741903 0.674145 -0.212041)
(-0.0962393 0.722593 -0.27395)
(-0.120622 0.761139 -0.28796)
(-0.104943 0.738564 -0.287201)
(-0.108144 0.716197 -0.295568)
(-0.0970719 0.65414 -0.265511)
(-0.0993677 0.684705 -0.271912)
(-0.0858909 0.706179 -0.214125)
(-0.111195 0.774808 -0.233907)
(-0.091253 0.708382 -0.206758)
(-0.0946591 0.534138 -0.257062)
(-0.103013 0.721421 -0.194263)
(-0.0967614 0.756444 -0.23565)
(-0.105333 0.736696 -0.222452)
(-0.0772875 0.628453 -0.236316)
(-0.158111 0.764649 -0.320348)
(-0.107245 0.655126 -0.299243)
(-0.133086 0.73069 -0.258084)
(-0.129945 0.713994 -0.253768)
(-0.11179 0.58514 -0.180264)
(-0.0934241 0.517522 -0.154423)
(-0.0401422 0.539858 -0.213221)
(-0.0821907 0.629685 -0.243647)
(-0.0429805 0.643886 -0.225106)
(-0.0657657 0.65189 -0.242309)
(-0.135618 0.816473 -0.226112)
(-0.150804 0.745279 -0.273945)
(-0.143665 0.715579 -0.260399)
(-0.128694 0.693403 -0.270926)
(-0.0968663 0.605702 -0.249363)
(-0.0988799 0.632282 -0.268202)
(-0.0844662 0.596128 -0.2453)
(-0.0857779 0.438292 -0.224987)
(-0.102296 0.518635 -0.243904)
(-0.143043 0.715852 -0.304265)
(-0.130383 0.671344 -0.266708)
(-0.0877008 0.678999 -0.193844)
(-0.0879123 0.747964 -0.224654)
(-0.111656 0.782702 -0.271911)
(-0.0575062 0.575424 -0.205753)
(-0.0540536 0.631207 -0.240337)
(-0.0737932 0.658281 -0.226146)
(-0.0974028 0.678065 -0.233423)
(-0.114903 0.748605 -0.251832)
(-0.126476 0.67719 -0.25732)
(-0.119494 0.644611 -0.249475)
(-0.0891264 0.691447 -0.234988)
(-0.0818434 0.70711 -0.23114)
(-0.100551 0.680429 -0.217198)
(-0.135003 0.682721 -0.318971)
(-0.126393 0.746606 -0.189851)
(-0.101537 0.489755 -0.192547)
(-0.113788 0.513648 -0.197636)
(-0.0782185 0.385537 -0.159375)
(-0.103587 0.495196 -0.184219)
(-0.109436 0.522589 -0.194899)
(-0.101329 0.442081 -0.131082)
(-0.0910498 0.770964 -0.214144)
(-0.0888817 0.687098 -0.183663)
(-0.0894089 0.705847 -0.214066)
(-0.0966151 0.563268 -0.243871)
(-0.0909841 0.494118 -0.223629)
(-0.0921664 0.467717 -0.186902)
(-0.0471474 0.496014 -0.211899)
(-0.117089 0.68619 -0.295281)
(-0.141492 0.699881 -0.255045)
(-0.120181 0.673933 -0.24784)
(-0.117101 0.563698 -0.269284)
(-0.076903 0.590537 -0.261596)
(-0.0913201 0.648854 -0.241335)
(-0.108843 0.693307 -0.235372)
(-0.0860719 0.599536 -0.173793)
(-0.0390137 0.624341 -0.209372)
(-0.0727846 0.713312 -0.227559)
(-0.0413382 0.581891 -0.193482)
(-0.0857907 0.718735 -0.21805)
(-0.0667537 0.639716 -0.202815)
(-0.102819 0.691101 -0.221658)
(-0.0749905 0.586988 -0.19201)
(-0.0873281 0.654799 -0.205516)
(-0.121038 0.660455 -0.290138)
(-0.0869599 0.562229 -0.263129)
(-0.118037 0.733931 -0.311459)
(-0.145713 0.715702 -0.305565)
(-0.0436002 0.508214 -0.217032)
(-0.0538279 0.624108 -0.246023)
(-0.0442493 0.606672 -0.231417)
(-0.141139 0.530819 -0.143977)
(-0.0904609 0.372744 -0.148931)
(-0.106913 0.523868 -0.218799)
(-0.109863 0.761584 -0.274652)
(-0.0940567 0.709369 -0.254541)
(-0.1006 0.478408 -0.201332)
(-0.0915329 0.45894 -0.158244)
(-0.111952 0.53837 -0.19695)
(-0.107078 0.504963 -0.209121)
(-0.0904087 0.686631 -0.216654)
(-0.103695 0.501278 -0.205734)
(-0.10705 0.453613 -0.174112)
(-0.104371 0.454741 -0.175116)
(-0.129887 0.745888 -0.204129)
(-0.134564 0.711292 -0.203662)
(-0.144541 0.758331 -0.215181)
(-0.109671 0.739807 -0.273587)
(-0.0909897 0.7053 -0.24988)
(-0.0705744 0.660676 -0.211187)
(-0.110196 0.539789 -0.202434)
(-0.10826 0.513749 -0.200726)
(-0.118202 0.559456 -0.220072)
(-0.106206 0.435692 -0.180018)
(-0.103646 0.583579 -0.198894)
(-0.136219 0.548842 -0.143894)
(-0.0998177 0.462016 -0.12023)
(-0.126296 0.558338 -0.128937)
(-0.121916 0.559409 -0.12689)
(-0.0819773 0.636277 -0.174896)
(-0.113997 0.766082 -0.209722)
(-0.0573962 0.628892 -0.206197)
(-0.0352507 0.589579 -0.176229)
(-0.120195 0.551415 -0.170139)
(-0.11041 0.541695 -0.153183)
(-0.145336 0.609152 -0.195312)
(-0.12259 0.526987 -0.184184)
(-0.101577 0.490272 -0.146041)
(-0.142091 0.754946 -0.293624)
(-0.126465 0.673288 -0.289746)
(-0.103621 0.498827 -0.200359)
(-0.0740125 0.670157 -0.232438)
(-0.0526692 0.575993 -0.236797)
(-0.0664704 0.6531 -0.265696)
(-0.0867103 0.444126 -0.182166)
(-0.102122 0.472658 -0.189611)
(-0.0790293 0.532852 -0.23329)
(-0.0870643 0.632862 -0.1739)
(-0.0934414 0.393397 -0.159574)
(-0.147366 0.73966 -0.293456)
(-0.105383 0.61589 -0.241941)
(-0.145093 0.700513 -0.261491)
(-0.0986227 0.67301 -0.262143)
(-0.140992 0.708902 -0.264361)
(-0.126121 0.695914 -0.274913)
(-0.104774 0.542714 -0.262896)
(-0.108765 0.584939 -0.274123)
(-0.0937134 0.737655 -0.262888)
(-0.161192 0.77778 -0.274007)
(-0.128077 0.637318 -0.188709)
(-0.104278 0.582714 -0.178522)
(-0.10144 0.397634 -0.123284)
(-0.105999 0.439937 -0.164624)
(-0.107561 0.465589 -0.189151)
(-0.106293 0.560404 -0.238045)
(-0.114617 0.517922 -0.212891)
(-0.10019 0.48284 -0.204967)
(-0.11275 0.706051 -0.299772)
(-0.136937 0.709429 -0.254081)
(-0.0672855 0.594206 -0.205026)
(-0.0749283 0.63485 -0.224213)
(-0.122087 0.674797 -0.299209)
(-0.0881165 0.654854 -0.297451)
(-0.107125 0.74604 -0.259852)
(-0.0387427 0.537273 -0.216959)
(-0.0520839 0.595547 -0.242995)
(-0.03184 0.498714 -0.206428)
(-0.0303393 0.529828 -0.212077)
(-0.038938 0.575745 -0.215642)
(-0.05911 0.50916 -0.225054)
(-0.0503903 0.479754 -0.219277)
(-0.0544516 0.55176 -0.243104)
(-0.0990448 0.633202 -0.222167)
(-0.0564539 0.682355 -0.245589)
(-0.0480547 0.661838 -0.206608)
(-0.0468356 0.658643 -0.245301)
(-0.104753 0.660349 -0.264697)
(-0.122821 0.571041 -0.236964)
(-0.126442 0.595382 -0.242503)
(-0.0769835 0.442528 -0.227406)
(-0.0507526 0.546993 -0.217155)
(-0.0345958 0.509415 -0.207081)
(-0.111785 0.623255 -0.265219)
(-0.0862638 0.411677 -0.181459)
(-0.100183 0.490955 -0.202187)
(-0.0809769 0.451178 -0.210593)
(-0.127541 0.717409 -0.259292)
(-0.0918729 0.67291 -0.287919)
(-0.135556 0.631362 -0.276195)
(-0.16074 0.790915 -0.30318)
(-0.0342052 0.591646 -0.2233)
(-0.135418 0.821299 -0.230837)
(-0.0910807 0.696763 -0.183001)
(-0.0912791 0.693312 -0.193663)
(-0.103528 0.732785 -0.271957)
(-0.128796 0.691846 -0.255572)
(-0.125493 0.66432 -0.304205)
(-0.130517 0.67164 -0.30348)
(-0.0658662 0.694284 -0.223589)
(-0.0867896 0.644406 -0.230024)
(-0.150927 0.709886 -0.30801)
(-0.140663 0.678138 -0.295358)
(-0.135637 0.700278 -0.277437)
(-0.146532 0.757324 -0.302994)
(-0.0914727 0.53179 -0.176217)
(-0.0924587 0.658692 -0.236431)
(-0.0817787 0.621398 -0.224831)
(-0.0664358 0.600269 -0.216789)
(-0.158452 0.76385 -0.307302)
(-0.0877933 0.569061 -0.277646)
(-0.0823027 0.586634 -0.272747)
(-0.126956 0.451788 -0.143234)
(-0.14161 0.590293 -0.141909)
(-0.119822 0.757646 -0.255749)
(-0.120163 0.653161 -0.240377)
(-0.106677 0.697894 -0.284891)
(-0.109916 0.718368 -0.288595)
(-0.139738 0.747965 -0.325319)
(-0.1237 0.716695 -0.253591)
(-0.1153 0.734964 -0.290999)
(-0.0881258 0.676428 -0.283301)
(-0.118442 0.668467 -0.289958)
(-0.111039 0.680731 -0.302539)
(-0.11093 0.705442 -0.288987)
(-0.117435 0.698276 -0.300351)
(-0.12069 0.567383 -0.261178)
(-0.0994741 0.485729 -0.209012)
(-0.0464832 0.53419 -0.219643)
(-0.064471 0.629466 -0.246171)
(-0.146007 0.798479 -0.305695)
(-0.131682 0.635569 -0.264492)
(-0.106234 0.498132 -0.215128)
(-0.0455734 0.630553 -0.228091)
(-0.0755377 0.662228 -0.214885)
(-0.0543261 0.531056 -0.220566)
(-0.0712299 0.646181 -0.254338)
(-0.100773 0.669382 -0.230034)
(-0.102196 0.643301 -0.20836)
(-0.132745 0.717452 -0.262373)
(-0.0352665 0.576316 -0.214849)
(-0.0783518 0.529538 -0.198904)
(-0.113512 0.717599 -0.310811)
(-0.103884 0.451464 -0.150037)
(-0.103726 0.74687 -0.30616)
(-0.11324 0.624434 -0.243816)
(-0.0676501 0.687757 -0.257853)
(-0.0592088 0.594334 -0.234274)
(-0.0743837 0.702449 -0.260651)
(-0.0756658 0.510224 -0.243807)
(-0.0349362 0.574224 -0.210184)
(-0.0331135 0.582318 -0.199087)
(-0.103073 0.729458 -0.238976)
(-0.0825494 0.695745 -0.218908)
(-0.0692524 0.665553 -0.22204)
(-0.0929973 0.668086 -0.225229)
(-0.0865194 0.701768 -0.208057)
(-0.0943986 0.752285 -0.232006)
(-0.074123 0.705259 -0.21521)
(-0.0844247 0.646575 -0.244244)
(-0.0723242 0.576547 -0.213449)
(-0.072538 0.598772 -0.225827)
(-0.0998661 0.657556 -0.238884)
(-0.111641 0.731759 -0.26268)
(-0.0836477 0.411137 -0.185011)
(-0.122693 0.618385 -0.269568)
(-0.0921619 0.426392 -0.145403)
(-0.0654016 0.6541 -0.248583)
(-0.100824 0.630209 -0.262476)
(-0.0964632 0.612239 -0.260999)
(-0.140254 0.732711 -0.269832)
(-0.117459 0.648612 -0.249483)
(-0.128404 0.628033 -0.265681)
(-0.134842 0.731926 -0.297086)
(-0.113069 0.717256 -0.205602)
(-0.118933 0.723436 -0.207097)
(-0.129506 0.752411 -0.214304)
(-0.115031 0.738018 -0.245284)
(-0.110925 0.649771 -0.283488)
(-0.119675 0.542317 -0.161463)
(-0.0776102 0.650651 -0.204401)
(-0.125024 0.65656 -0.266926)
(-0.106815 0.50943 -0.26377)
(-0.112666 0.526207 -0.253797)
(-0.104427 0.509568 -0.257337)
(-0.0994371 0.476414 -0.237257)
(-0.0644978 0.6403 -0.219077)
(-0.0475042 0.550126 -0.226035)
(-0.0660051 0.6231 -0.222288)
(-0.0673847 0.640367 -0.233361)
(-0.108882 0.727631 -0.299772)
(-0.0891171 0.674092 -0.256753)
(-0.0852763 0.72009 -0.265142)
(-0.0901635 0.419183 -0.168408)
(-0.112019 0.513095 -0.199446)
(-0.0710752 0.357307 -0.159502)
(-0.0825519 0.429764 -0.186315)
(-0.0403395 0.604238 -0.187839)
(-0.0772088 0.709847 -0.205717)
(-0.0387402 0.583475 -0.174595)
(-0.104152 0.733297 -0.272552)
(-0.121235 0.763253 -0.301254)
(-0.0786603 0.435664 -0.196316)
(-0.0861502 0.413402 -0.188682)
(-0.0972296 0.707802 -0.200531)
(-0.0686191 0.64078 -0.190411)
(-0.123688 0.700655 -0.213556)
(-0.133951 0.756733 -0.236073)
(-0.0562286 0.559813 -0.226883)
(-0.119923 0.71271 -0.212423)
(-0.122534 0.664338 -0.201579)
(-0.109111 0.701487 -0.201539)
(-0.143274 0.68759 -0.226803)
(-0.124621 0.658098 -0.230587)
(-0.135522 0.704253 -0.2548)
(-0.13273 0.735847 -0.279569)
(-0.0841558 0.450697 -0.204162)
(-0.101686 0.681622 -0.268787)
(-0.132219 0.72128 -0.257902)
(-0.0856606 0.546182 -0.137647)
(-0.0691241 0.680893 -0.203092)
(-0.0668004 0.701841 -0.207684)
(-0.123803 0.703313 -0.313294)
(-0.0715466 0.565438 -0.23343)
(-0.0558366 0.568667 -0.241893)
(-0.061164 0.581899 -0.249863)
(-0.110238 0.631094 -0.151501)
(-0.0745801 0.583498 -0.131102)
(-0.0564904 0.595808 -0.172838)
(-0.105502 0.695966 -0.195457)
(-0.0909935 0.496515 -0.243494)
(-0.072283 0.496615 -0.105348)
(-0.106466 0.650463 -0.165451)
(-0.0569116 0.667197 -0.221181)
(-0.13449 0.742938 -0.28645)
(-0.109839 0.710115 -0.261395)
(-0.112307 0.483773 -0.177647)
(-0.0933235 0.735587 -0.239817)
(-0.137097 0.710493 -0.284433)
(-0.0899435 0.525251 -0.110297)
(-0.150351 0.750429 -0.274476)
(-0.0758565 0.707699 -0.262471)
(-0.0907432 0.645834 -0.224981)
(-0.0729548 0.461686 -0.237414)
(-0.11261 0.563751 -0.24725)
(-0.10956 0.657351 -0.296045)
(-0.0962831 0.454228 -0.19867)
(-0.104187 0.472027 -0.197401)
(-0.130192 0.554365 -0.165724)
(-0.152591 0.766548 -0.273474)
(-0.0968421 0.548786 -0.27789)
(-0.100909 0.523383 -0.257953)
(-0.0968909 0.67983 -0.290412)
(-0.0993063 0.503774 -0.22316)
(-0.092015 0.583733 -0.270274)
(-0.13093 0.527601 -0.133366)
(-0.115359 0.603124 -0.232133)
(-0.097806 0.585993 -0.206532)
(-0.0655541 0.605471 -0.248976)
(-0.126507 0.589618 -0.247607)
(-0.10566 0.57681 -0.230031)
(-0.0802952 0.427981 -0.191393)
(-0.086105 0.438094 -0.193921)
(-0.117679 0.782984 -0.280998)
(-0.0894544 0.452774 -0.158393)
(-0.154756 0.716881 -0.243997)
(-0.153977 0.820133 -0.29852)
(-0.0967595 0.589038 -0.250246)
(-0.119411 0.623268 -0.239715)
(-0.132622 0.704514 -0.271954)
(-0.0952531 0.672167 -0.256352)
(-0.0577054 0.615809 -0.247805)
(-0.049617 0.609699 -0.240485)
(-0.0612405 0.579873 -0.249686)
(-0.053774 0.560741 -0.24151)
(-0.0377034 0.590182 -0.226046)
(-0.10877 0.380964 -0.132398)
(-0.0990302 0.442717 -0.191189)
(-0.106105 0.743239 -0.23225)
(-0.121917 0.454297 -0.146942)
(-0.105759 0.664914 -0.275229)
(-0.121454 0.750216 -0.292607)
(-0.117991 0.621841 -0.294822)
(-0.147158 0.783684 -0.202884)
(-0.0966808 0.627486 -0.20787)
(-0.0838818 0.574277 -0.192613)
(-0.114852 0.574576 -0.18331)
(-0.100244 0.714224 -0.215797)
(-0.115423 0.775125 -0.244649)
(-0.102393 0.644457 -0.200656)
(-0.120503 0.676358 -0.303974)
(-0.114058 0.729258 -0.308818)
(-0.107516 0.577066 -0.215333)
(-0.0500817 0.539594 -0.220224)
(-0.134952 0.686171 -0.27653)
(-0.120681 0.644342 -0.251863)
(-0.115163 0.710594 -0.265346)
(-0.0941399 0.564187 -0.242712)
(-0.141296 0.744315 -0.215117)
(-0.125792 0.73126 -0.211635)
(-0.121375 0.710663 -0.197763)
(-0.0941829 0.513568 -0.194364)
(-0.111956 0.669185 -0.262789)
(-0.1031 0.559737 -0.152951)
(-0.106892 0.681487 -0.30195)
(-0.103497 0.472208 -0.112301)
(-0.114065 0.516933 -0.122388)
(-0.115909 0.539309 -0.244537)
(-0.0840473 0.577709 -0.262907)
(-0.0833879 0.524697 -0.274324)
(-0.0752389 0.506399 -0.262274)
(-0.110904 0.684065 -0.299755)
(-0.0956988 0.692048 -0.280455)
(-0.104106 0.668351 -0.256921)
(-0.0891002 0.664758 -0.261685)
(-0.106321 0.70463 -0.275203)
(-0.149397 0.815339 -0.299603)
(-0.132633 0.646349 -0.266296)
(-0.125546 0.622217 -0.258973)
(-0.125234 0.648102 -0.282992)
(-0.0462403 0.52494 -0.235897)
(-0.0697522 0.584336 -0.254448)
(-0.138379 0.685226 -0.201502)
(-0.182481 0.933983 -0.360055)
(-0.205417 0.970983 -0.340395)
(-0.149514 0.729204 -0.20265)
(-0.0939197 0.726395 -0.262797)
(-0.198019 0.974834 -0.37255)
(-0.191244 0.924477 -0.356437)
(-0.12977 0.723492 -0.243996)
(-0.172184 0.851021 -0.33943)
(-0.0971024 0.618019 -0.269133)
(-0.130004 0.706572 -0.29585)
(-0.24728 0.92646 -0.309689)
(-0.111645 0.752867 -0.298338)
(-0.196241 0.931687 -0.370955)
(-0.102644 0.467234 -0.214473)
(-0.19582 0.912035 -0.298375)
(-0.209075 0.972524 -0.330888)
(-0.0928019 0.747191 -0.270604)
(-0.221255 0.942955 -0.31374)
(-0.186564 0.786245 -0.287178)
(-0.105566 0.698955 -0.275373)
(-0.201542 0.689054 -0.242834)
(-0.181029 0.911742 -0.306256)
(-0.0658644 0.540357 -0.251807)
(-0.0815013 0.692972 -0.245237)
(-0.10453 0.768447 -0.277954)
(-0.0697605 0.658572 -0.23239)
(-0.193003 0.949275 -0.376498)
(-0.191902 0.962792 -0.359318)
(-0.121486 0.732338 -0.293222)
(-0.156702 0.893578 -0.327972)
(-0.0748865 0.615745 -0.240949)
(-0.161203 0.88787 -0.348328)
(-0.077931 0.574823 -0.209729)
(-0.208713 0.991476 -0.355727)
(-0.197789 0.8778 -0.313977)
(-0.197665 0.952187 -0.334733)
(-0.218719 0.973273 -0.33619)
(-0.211755 0.993591 -0.348127)
(-0.215368 0.994365 -0.344668)
(-0.207493 0.961687 -0.334091)
(-0.192313 0.951153 -0.328486)
(-0.194145 0.857531 -0.30569)
(-0.178993 0.924461 -0.315905)
(-0.181703 0.780391 -0.256019)
(-0.227153 0.9691 -0.333464)
(-0.211993 0.88179 -0.291946)
(-0.166082 0.794086 -0.258275)
(-0.116256 0.581645 -0.232336)
(-0.0899597 0.566762 -0.205315)
(-0.146711 0.75323 -0.275121)
(-0.120923 0.746531 -0.276182)
(-0.101731 0.671811 -0.247318)
(-0.136881 0.652244 -0.252951)
(-0.164712 0.835783 -0.311709)
(-0.142025 0.81811 -0.312998)
(-0.187473 0.945027 -0.364112)
(-0.130236 0.75603 -0.266378)
(-0.20405 0.96923 -0.381899)
(-0.202136 0.980765 -0.383466)
(-0.195371 0.961162 -0.38041)
(-0.197566 0.966629 -0.378363)
(-0.191732 0.937252 -0.383066)
(-0.205333 0.987699 -0.377502)
(-0.128336 0.753978 -0.286062)
(-0.180567 0.927322 -0.372884)
(-0.1955 0.963997 -0.372063)
(-0.184205 0.923815 -0.35016)
(-0.123903 0.721811 -0.287272)
(-0.115981 0.806153 -0.293058)
(-0.176822 0.900286 -0.335984)
(-0.13725 0.798195 -0.307157)
(-0.109818 0.703177 -0.283112)
(-0.201513 0.975203 -0.350724)
(-0.137423 0.740442 -0.27156)
(-0.151523 0.73369 -0.258896)
(-0.172214 0.859359 -0.309574)
(-0.141178 0.694606 -0.249512)
(-0.168533 0.872235 -0.321378)
(-0.181803 0.886213 -0.313923)
(-0.161868 0.769665 -0.286407)
(-0.142336 0.739707 -0.299995)
(-0.132185 0.677159 -0.268862)
(-0.120881 0.744506 -0.283175)
(-0.0907021 0.652724 -0.259049)
(-0.106778 0.683769 -0.295387)
(-0.164358 0.887308 -0.3522)
(-0.130211 0.785112 -0.333347)
(-0.163319 0.836562 -0.338242)
(-0.111425 0.648062 -0.294029)
(-0.223078 0.951137 -0.32195)
(-0.0908363 0.70626 -0.220864)
(-0.213784 0.973171 -0.333049)
(-0.154644 0.87685 -0.286536)
(-0.124141 0.730584 -0.206258)
(-0.219941 0.853594 -0.267263)
(-0.0865478 0.671413 -0.186135)
(-0.0925013 0.563806 -0.12414)
(-0.219731 0.964193 -0.330215)
(-0.0771182 0.684772 -0.191039)
(-0.135769 0.697946 -0.174276)
(-0.237133 0.987291 -0.333968)
(-0.217884 0.925321 -0.297524)
(-0.141993 0.82766 -0.253477)
(-0.198269 0.872042 -0.265249)
(-0.223511 0.959798 -0.326714)
(-0.133867 0.805797 -0.308801)
(-0.141047 0.76609 -0.306134)
(-0.204286 0.96715 -0.353913)
(-0.131971 0.625382 -0.244987)
(-0.167095 0.867294 -0.306585)
(-0.123516 0.561934 -0.211022)
(-0.188781 0.881546 -0.334449)
(-0.128913 0.644556 -0.264952)
(-0.117663 0.61026 -0.219151)
(-0.0847999 0.552902 -0.257548)
(-0.0790054 0.6321 -0.270864)
(-0.196181 0.9564 -0.365981)
(-0.144267 0.79408 -0.34279)
(-0.132637 0.800865 -0.326028)
(-0.188486 0.948641 -0.369887)
(-0.119109 0.701478 -0.316459)
(-0.0891592 0.481861 -0.221434)
(-0.195909 0.94137 -0.358094)
(-0.102258 0.495628 -0.237207)
(-0.107941 0.541087 -0.241659)
(-0.134042 0.740806 -0.324246)
(-0.101818 0.476287 -0.194394)
(-0.117819 0.608784 -0.183572)
(-0.152838 0.690102 -0.248935)
(-0.161675 0.706067 -0.245801)
(-0.0852551 0.425395 -0.180909)
(-0.0961012 0.469103 -0.194343)
(-0.123562 0.715908 -0.188082)
(-0.106763 0.718218 -0.193176)
(-0.153109 0.820249 -0.263815)
(-0.216873 0.983753 -0.329457)
(-0.205221 0.984611 -0.344051)
(-0.168814 0.910862 -0.296007)
(-0.190503 0.926462 -0.324591)
(-0.212009 0.98517 -0.339681)
(-0.151715 0.880365 -0.290168)
(-0.0969992 0.671303 -0.201039)
(-0.196758 0.954276 -0.312936)
(-0.193075 0.914006 -0.30553)
(-0.111558 0.731053 -0.226568)
(-0.194214 0.93733 -0.29456)
(-0.163066 0.822802 -0.253452)
(-0.172677 0.923653 -0.316722)
(-0.129482 0.833626 -0.282039)
(-0.103174 0.774492 -0.253413)
(-0.0866629 0.388244 -0.168056)
(-0.106474 0.761579 -0.211583)
(-0.250439 0.984794 -0.314609)
(-0.214871 0.939824 -0.296127)
(-0.161567 0.739494 -0.223599)
(-0.225846 0.819095 -0.282855)
(-0.137202 0.592378 -0.170457)
(-0.233794 0.992399 -0.337018)
(-0.197405 0.815063 -0.294235)
(-0.223629 0.909867 -0.296089)
(-0.209524 0.848681 -0.281043)
(-0.231309 0.948478 -0.31815)
(-0.0521629 0.454783 -0.20511)
(-0.136655 0.727687 -0.27582)
(-0.148191 0.831241 -0.285196)
(-0.145746 0.647127 -0.247466)
(-0.080431 0.401823 -0.181069)
(-0.198091 0.768778 -0.276973)
(-0.120703 0.641144 -0.261153)
(-0.251489 0.981916 -0.32398)
(-0.233547 0.994611 -0.331389)
(-0.108548 0.798682 -0.253028)
(-0.210595 0.928395 -0.309691)
(-0.222458 0.966102 -0.303161)
(-0.214939 0.97282 -0.308827)
(-0.128419 0.800248 -0.278424)
(-0.189063 0.935091 -0.341324)
(-0.1301 0.682868 -0.272408)
(-0.127187 0.641586 -0.208617)
(-0.128325 0.623488 -0.251078)
(-0.203195 0.925045 -0.333876)
(-0.170894 0.767176 -0.283355)
(-0.150414 0.701086 -0.266139)
(-0.12848 0.769134 -0.315389)
(-0.0612186 0.563206 -0.247697)
(-0.122568 0.649905 -0.265308)
(-0.0835415 0.489635 -0.228399)
(-0.111438 0.77948 -0.275986)
(-0.122104 0.571367 -0.235947)
(-0.102495 0.507731 -0.198523)
(-0.194745 0.964218 -0.367714)
(-0.148972 0.793671 -0.317312)
(-0.192088 0.950789 -0.371909)
(-0.170568 0.866222 -0.337749)
(-0.190951 0.953769 -0.361482)
(-0.180576 0.914771 -0.352205)
(-0.179791 0.8978 -0.352892)
(-0.0825458 0.587363 -0.22701)
(-0.105421 0.693991 -0.273875)
(-0.0964142 0.65607 -0.271793)
(-0.215046 0.978399 -0.336735)
(-0.211166 0.983992 -0.341112)
(-0.224204 0.994987 -0.337114)
(-0.21704 0.990419 -0.343661)
(-0.205312 0.964309 -0.336531)
(-0.204909 0.966932 -0.338919)
(-0.21972 0.993743 -0.34363)
(-0.0971441 0.516887 -0.15367)
(-0.109736 0.521942 -0.145487)
(-0.135419 0.637755 -0.192898)
(-0.0915798 0.47875 -0.122815)
(-0.13261 0.613863 -0.179447)
(-0.0908462 0.528026 -0.20751)
(-0.110347 0.489332 -0.211668)
(-0.205594 0.990213 -0.371214)
(-0.20441 0.978542 -0.363974)
(-0.206324 0.987957 -0.374065)
(-0.203914 0.980077 -0.365893)
(-0.204453 0.988327 -0.372208)
(-0.201674 0.981106 -0.367147)
(-0.204705 0.9836 -0.367923)
(-0.180191 0.885052 -0.346784)
(-0.191849 0.921619 -0.362342)
(-0.18403 0.940262 -0.336047)
(-0.200328 0.957201 -0.34082)
(-0.188653 0.935497 -0.335486)
(-0.184666 0.928041 -0.336159)
(-0.167566 0.893625 -0.331423)
(-0.160211 0.869447 -0.322605)
(-0.184855 0.924905 -0.3327)
(-0.116068 0.679826 -0.28899)
(-0.144688 0.790475 -0.299189)
(-0.175714 0.903896 -0.337559)
(-0.172117 0.860201 -0.334974)
(-0.15587 0.800499 -0.314713)
(-0.150251 0.770061 -0.309373)
(-0.170025 0.85006 -0.32746)
(-0.111687 0.683729 -0.292113)
(-0.125579 0.750037 -0.315572)
(-0.0954389 0.73266 -0.217511)
(-0.098482 0.704334 -0.245988)
(-0.0741179 0.67676 -0.190673)
(-0.261747 0.98832 -0.328672)
(-0.258031 0.967046 -0.328449)
(-0.251787 0.956453 -0.323033)
(-0.139709 0.810944 -0.308104)
(-0.179378 0.932871 -0.356648)
(-0.177248 0.926316 -0.344627)
(-0.170736 0.912255 -0.348048)
(-0.137213 0.780723 -0.293081)
(-0.132609 0.794236 -0.301737)
(-0.17843 0.927058 -0.34509)
(-0.0904413 0.437518 -0.206375)
(-0.0877956 0.444738 -0.197873)
(-0.0933448 0.418026 -0.187938)
(-0.096559 0.487812 -0.210931)
(-0.068073 0.514855 -0.255221)
(-0.131217 0.664667 -0.300743)
(-0.150902 0.746047 -0.318168)
(-0.175066 0.863819 -0.362857)
(-0.153471 0.74257 -0.324815)
(-0.182639 0.864411 -0.343281)
(-0.121109 0.626321 -0.28372)
(-0.159541 0.749079 -0.311676)
(-0.111807 0.531432 -0.260806)
(-0.152831 0.732355 -0.313467)
(-0.141572 0.693183 -0.300777)
(-0.131478 0.642014 -0.288426)
(-0.0624113 0.505397 -0.239737)
(-0.101359 0.584742 -0.149775)
(-0.0687721 0.474934 -0.220087)
(-0.173438 0.816847 -0.286667)
(-0.15277 0.770505 -0.264084)
(-0.136853 0.69794 -0.24086)
(-0.159046 0.759893 -0.249551)
(-0.193235 0.898774 -0.296966)
(-0.194136 0.882882 -0.290759)
(-0.132049 0.745357 -0.274017)
(-0.111261 0.748796 -0.266078)
(-0.172381 0.89713 -0.332978)
(-0.141019 0.833089 -0.299112)
(-0.129509 0.733209 -0.26167)
(-0.117562 0.677075 -0.243107)
(-0.146933 0.847805 -0.308137)
(-0.148746 0.864621 -0.314795)
(-0.116241 0.833833 -0.282508)
(-0.110598 0.7643 -0.296212)
(-0.147192 0.86637 -0.289227)
(-0.188067 0.93969 -0.322155)
(-0.194663 0.950658 -0.321303)
(-0.126561 0.822395 -0.291007)
(-0.0843813 0.613146 -0.190746)
(-0.100338 0.692346 -0.214597)
(-0.0951247 0.62332 -0.192656)
(-0.128007 0.763727 -0.227631)
(-0.102036 0.789191 -0.257844)
(-0.0445914 0.588851 -0.231967)
(-0.0958764 0.748969 -0.26868)
(-0.0858714 0.724207 -0.262716)
(-0.109119 0.413419 -0.11277)
(-0.135627 0.559381 -0.144335)
(-0.205098 0.92774 -0.300755)
(-0.183512 0.852444 -0.294452)
(-0.215665 0.95292 -0.314204)
(-0.201603 0.902459 -0.292295)
(-0.206835 0.903418 -0.292681)
(-0.209999 0.936759 -0.312868)
(-0.196653 0.906288 -0.318465)
(-0.153117 0.768908 -0.29162)
(-0.14816 0.795195 -0.299731)
(-0.143431 0.741585 -0.286289)
(-0.21017 0.892202 -0.314019)
(-0.208589 0.874332 -0.308693)
(-0.15047 0.788455 -0.293801)
(-0.217207 0.886109 -0.309415)
(-0.204335 0.836468 -0.301535)
(-0.150561 0.814692 -0.280952)
(-0.131857 0.781661 -0.277833)
(-0.226396 0.890792 -0.302549)
(-0.226065 0.873913 -0.305478)
(-0.238855 0.869187 -0.306238)
(-0.174934 0.665773 -0.255693)
(-0.191292 0.704738 -0.25783)
(-0.234902 0.865166 -0.303115)
(-0.0478884 0.614755 -0.213634)
(-0.139238 0.771157 -0.286844)
(-0.064882 0.686466 -0.255497)
(-0.149675 0.818232 -0.301573)
(-0.128426 0.810199 -0.280851)
(-0.163356 0.885893 -0.296757)
(-0.133243 0.787497 -0.284597)
(-0.0935875 0.475939 -0.221997)
(-0.0948401 0.482832 -0.202026)
(-0.0925001 0.481138 -0.195381)
(-0.0673436 0.642482 -0.26087)
(-0.0601499 0.625544 -0.25852)
(-0.0707493 0.593952 -0.26232)
(-0.0658663 0.569264 -0.256938)
(-0.107705 0.759107 -0.291953)
(-0.0479883 0.57283 -0.236886)
(-0.0790189 0.697346 -0.268117)
(-0.0814886 0.707179 -0.254736)
(-0.031141 0.551569 -0.21392)
(-0.0961156 0.475365 -0.222841)
(-0.0914805 0.695468 -0.229553)
(-0.0800589 0.663991 -0.216539)
(-0.0952674 0.743313 -0.254134)
(-0.0895369 0.715852 -0.2476)
(-0.122128 0.776443 -0.282554)
(-0.174026 0.901234 -0.326406)
(-0.116705 0.796058 -0.290366)
(-0.137265 0.850483 -0.304158)
(-0.073268 0.683348 -0.237467)
(-0.0899124 0.723835 -0.264439)
(-0.118795 0.768006 -0.282354)
(-0.0778705 0.669621 -0.223387)
(-0.121033 0.66165 -0.280223)
(-0.190082 0.937083 -0.367854)
(-0.169497 0.814117 -0.339306)
(-0.150053 0.738344 -0.305582)
(-0.167929 0.838215 -0.335013)
(-0.168534 0.805408 -0.328621)
(-0.134083 0.691675 -0.281061)
(-0.194092 0.944015 -0.379054)
(-0.172461 0.851483 -0.3507)
(-0.142337 0.759989 -0.302735)
(-0.147148 0.748495 -0.306258)
(-0.0859379 0.574967 -0.20207)
(-0.0684528 0.620088 -0.222795)
(-0.0984752 0.70376 -0.28456)
(-0.167501 0.893314 -0.354159)
(-0.181926 0.941759 -0.360117)
(-0.204665 0.989743 -0.365259)
(-0.195248 0.969396 -0.361547)
(-0.196497 0.972019 -0.370876)
(-0.196738 0.972626 -0.370593)
(-0.196863 0.971301 -0.362596)
(-0.111446 0.694539 -0.287951)
(-0.0961578 0.644792 -0.27031)
(-0.114632 0.785558 -0.301791)
(-0.106632 0.740571 -0.251158)
(-0.120098 0.793737 -0.280293)
(-0.111002 0.750938 -0.262829)
(-0.112559 0.767298 -0.296716)