/*--------------------------------*- C++ -*----------------------------------*\
| =========                 |                                                 |
| \\      /  F ield         | OpenFOAM: The Open Source CFD Toolbox           |
|  \\    /   O peration     | Version:  v1612+                                |
|   \\  /    A nd           | Web:      www.OpenFOAM.com                      |
|    \\/     M anipulation  |                                                 |
\*---------------------------------------------------------------------------*/
FoamFile
{
    version     2.0;
    format      ascii;
    class       volScalarField;
    location    "239";
    object      p;
}
// * * * * * * * * * * * * * * * * * * * * * * * * * * * * * * * * * * * * * //

dimensions      [0 2 -2 0 0 0 0];

internalField   nonuniform List<scalar> 
16982
(
4.04059
4.06301
4.09557
4.05648
4.05798
4.03339
4.03356
4.03245
4.03153
4.02956
4.03107
4.02909
4.029
4.03596
4.03549
4.0259
4.02746
4.03117
4.02828
4.03017
4.0336
4.03236
4.02737
4.02665
4.02545
4.02764
4.02812
4.02887
4.10354
4.09957
4.10008
4.09748
4.09926
4.10138
4.10332
4.09976
4.10205
4.10287
4.10356
4.1023
4.10107
4.02908
4.02553
4.01948
4.02024
4.02142
4.01984
4.02253
4.02029
4.02235
4.02112
4.01918
4.01847
4.02176
4.02321
4.02966
4.02102
4.02222
4.12166
4.12508
4.12398
4.12636
4.12667
4.12484
4.12159
4.12206
4.12808
4.12966
4.12887
4.12365
4.12277
4.12846
4.12997
4.12687
4.05427
4.05433
4.06017
4.05835
4.05722
4.05712
4.05706
4.05422
4.05484
4.05883
4.05976
4.05623
4.064
4.06278
4.0601
4.06381
4.06329
4.05802
4.101
4.09964
4.10471
4.10336
4.09598
4.096
4.1053
4.09599
4.09371
4.10298
4.10406
4.09739
4.09564
4.09956
4.09493
4.09448
4.09824
4.09732
4.03912
4.03741
4.0389
4.03603
4.03769
4.03737
4.0336
4.03173
4.04032
4.03912
4.03803
4.03835
4.03229
4.03268
4.03844
4.03624
4.064
4.06282
4.06409
4.05936
4.06492
4.06136
4.06336
4.06136
4.06412
4.06767
4.06496
4.06451
4.06645
4.12849
4.12965
4.13212
4.12304
4.12502
4.12228
4.12212
4.13291
4.13192
4.12342
4.12344
4.12969
4.12441
4.13041
4.12964
4.12854
4.04795
4.03871
4.04285
4.04414
4.04748
4.04324
4.0478
4.04335
4.04373
4.04403
4.04821
4.03974
4.03994
4.04162
4.02602
4.02652
4.02131
4.02187
4.02458
4.02326
4.02737
4.03021
4.02749
4.02767
4.01759
4.0263
4.03035
4.06475
4.06497
4.06982
4.07029
4.06467
4.06447
4.0697
4.07053
4.06421
4.06881
4.06306
4.06786
4.06534
4.06548
4.04474
4.04768
4.04823
4.05219
4.04989
4.05327
4.05383
4.05052
4.0478
4.0479
4.05326
4.04819
4.03286
4.03296
4.02479
4.02636
4.03209
4.03726
4.02803
4.03166
4.02741
4.02816
4.03125
4.02915
4.02849
4.02746
4.02623
4.02943
4.02959
4.0239
4.02543
4.02706
4.02866
4.02371
4.08938
4.08784
4.08623
4.08819
4.08814
4.09003
4.08637
4.08374
4.0901
4.08409
4.08917
4.12614
4.12841
4.13355
4.12988
4.13168
4.12802
4.12785
4.13047
4.12871
4.12694
4.1279
4.13273
4.13464
4.12881
4.13207
4.12945
4.1299
4.1341
4.129
4.12926
4.12733
4.12871
4.13419
4.13557
4.13682
4.13723
4.12954
4.13385
4.13178
4.13482
4.1333
4.13434
4.13396
4.12856
4.13111
4.12829
4.12848
4.12777
4.1322
4.13302
4.13092
4.13435
4.12933
4.0372
4.03774
4.03363
4.0337
4.04086
4.03967
4.03418
4.03402
4.03378
4.03901
4.04224
4.03502
4.0371
4.04048
4.03808
4.03372
4.03757
4.03773
4.04149
4.01978
4.01915
4.02
4.01773
4.01529
4.01652
4.02024
4.02112
4.01941
4.0231
4.02371
4.02756
4.02956
4.02694
4.02701
4.0267
4.05376
4.05719
4.05536
4.05645
4.05855
4.0611
4.05943
4.05733
4.05262
4.06325
4.05886
4.11722
4.11622
4.11542
4.1169
4.11765
4.11547
4.11328
4.11857
4.11485
4.11262
4.11217
4.11385
4.12195
4.11957
4.11743
4.11871
4.11875
4.12071
4.11638
4.08624
4.08768
4.08477
4.07923
4.08201
4.08551
4.08531
4.09085
4.08919
4.09056
4.09032
4.09148
4.09221
4.08603
4.08353
4.08682
4.08215
4.07986
4.08232
4.08078
4.08193
4.09103
4.09048
4.08608
4.0824
4.09143
4.0923
4.09963
4.09895
4.08977
4.09952
4.09676
4.09603
4.09144
4.0951
4.09732
4.09615
4.09211
4.09817
4.09249
4.09884
4.0961
4.10381
4.103
4.09621
4.10086
4.10054
4.09838
4.09788
4.10239
4.10263
4.04811
4.04722
4.04884
4.04903
4.04458
4.04535
4.04183
4.04133
4.04575
4.04737
4.04641
4.04914
4.04112
4.0427
4.04
4.04008
4.0415
4.04656
4.04422
4.04451
4.04524
4.04607
4.04735
4.05339
4.05051
4.05316
4.05037
4.10173
4.1033
4.10349
4.10298
4.10583
4.10677
4.10687
4.08715
4.08576
4.08979
4.08692
4.08422
4.08691
4.08549
4.08371
4.09069
4.09275
4.0928
4.09193
4.09124
4.08598
4.0868
4.09137
4.08596
4.08807
4.12306
4.1222
4.11874
4.1193
4.12356
4.12576
4.12685
4.12398
4.123
4.12197
4.12355
4.1224
4.11875
4.1186
4.12472
4.12627
4.12518
4.12204
4.12128
4.1148
4.12179
4.05451
4.05605
4.05693
4.05651
4.05733
4.05861
4.04953
4.04899
4.05395
4.05481
4.05089
4.05211
4.05358
4.05687
4.05335
4.05321
4.05116
4.04979
4.05041
4.07608
4.07575
4.07687
4.07685
4.0787
4.08247
4.08184
4.08589
4.0847
4.08723
4.07858
4.08037
4.08038
4.07919
4.08507
4.08805
4.08795
4.08503
4.08711
4.0818
4.08136
4.08659
4.08962
4.08472
4.08153
4.08531
4.08709
4.0863
4.08981
4.08885
4.08894
4.09051
4.0848
4.08526
4.08349
4.08481
4.08419
4.08863
4.08712
4.08912
4.08921
4.08936
4.08536
4.06528
4.06331
4.06092
4.06501
4.06138
4.06483
4.05819
4.06052
4.0584
4.06576
4.06709
4.0606
4.06631
4.0681
4.05979
4.05978
4.06266
4.06359
4.06425
4.06634
4.1256
4.12154
4.12444
4.12146
4.12096
4.12496
4.13113
4.12924
4.12079
4.12382
4.11993
4.12171
4.11762
4.1199
4.11748
4.11595
4.12826
4.12796
4.11366
4.12474
4.08761
4.08396
4.087
4.08404
4.08375
4.08724
4.0859
4.09115
4.08981
4.0913
4.08458
4.08745
4.09144
4.09208
4.09234
4.08607
4.09067
4.09134
4.13816
4.11037
4.10842
4.10997
4.1102
4.11282
4.11399
4.113
4.1136
4.1075
4.1072
4.11225
4.11265
4.11184
4.11159
4.11318
4.107
4.10999
4.10485
4.10691
4.10688
4.10644
4.08543
4.08658
4.08528
4.0823
4.07704
4.08857
4.08658
4.08285
4.09066
4.09183
4.08739
4.09323
4.0822
4.08468
4.08264
4.09146
4.08793
4.09087
4.08852
4.09045
4.08893
4.01833
4.01931
4.0191
4.02104
4.01763
4.01687
4.02234
4.01988
4.02166
4.01961
4.02076
4.06964
4.06638
4.06376
4.0678
4.06839
4.06661
4.06667
4.06191
4.06086
4.06186
4.06166
4.06803
4.06477
4.065
4.06393
4.06382
4.05871
4.05851
4.06279
4.06412
4.06503
4.05947
4.05838
4.0605
4.05521
4.05697
4.06105
4.05855
4.11696
4.11519
4.11642
4.11319
4.11085
4.11748
4.11105
4.11211
4.10887
4.11679
4.11113
4.11238
4.11376
4.11088
4.11829
4.11616
4.11905
4.11638
4.12182
4.1236
4.12649
4.12909
4.11945
4.11981
4.12118
4.12381
4.12112
4.12547
4.12181
4.12097
4.12186
4.12014
4.106
4.10705
4.10234
4.10455
4.10773
4.10806
4.10125
4.10702
4.10755
4.1036
4.11124
4.10479
4.11084
4.11004
4.11074
4.11142
4.10783
4.10788
4.11262
4.10681
4.10831
4.10593
4.10792
4.11332
4.11584
4.11275
4.10622
4.11826
4.11251
4.11443
4.11786
4.11238
4.08774
4.08918
4.08479
4.08365
4.08905
4.08738
4.08777
4.08554
4.0859
4.08729
4.08603
4.08791
4.08542
4.08543
4.08205
4.08434
4.08135
4.07997
4.11302
4.1132
4.11924
4.12169
4.11916
4.11512
4.11451
4.11533
4.11953
4.11713
4.11792
4.11453
4.11249
4.12011
4.11658
4.11671
4.05321
4.05472
4.05657
4.05729
4.05192
4.05439
4.05653
4.0551
4.04979
4.0497
4.05317
4.05174
4.05516
4.05538
4.05668
4.05885
4.05751
4.04967
4.04579
4.05614
4.05493
4.05712
4.04973
4.05197
4.04114
4.04256
4.04376
4.03926
4.04301
4.03946
4.04015
4.03336
4.03772
4.04088
4.04378
4.0444
4.04044
4.0418
4.04176
4.04436
4.04302
4.04482
4.04211
4.0405
4.04353
4.03946
4.12998
4.12676
4.12821
4.1306
4.12597
4.12774
4.12802
4.12601
4.12554
4.0664
4.06662
4.06745
4.06629
4.06863
4.07011
4.06999
4.071
4.07021
4.07154
4.08756
4.08667
4.08825
4.08662
4.08991
4.09249
4.08572
4.08054
4.08933
4.09092
4.08063
4.08302
4.08641
4.02816
4.03127
4.02791
4.02958
4.02674
4.02413
4.02972
4.02629
4.0293
4.0298
4.02199
4.0277
4.02502
4.02815
4.03006
4.02963
4.03224
4.03227
4.04571
4.0505
4.04665
4.04446
4.04151
4.04774
4.05091
4.04553
4.04539
4.04748
4.04192
4.0448
4.04198
4.04356
4.04671
4.04203
4.04047
4.06804
4.0691
4.06072
4.06655
4.06002
4.06623
4.06462
4.06829
4.06431
4.06203
4.06547
4.06596
4.06378
4.06935
4.07107
4.0672
4.06692
4.06821
4.01791
4.01667
4.01703
4.0139
4.01967
4.02212
4.0278
4.0272
4.01991
4.022
4.02047
4.01981
4.02554
4.01466
4.01781
4.02365
4.02077
4.02135
4.02649
4.01782
4.02184
4.0221
4.01233
4.01592
4.01548
4.02183
4.01824
4.02353
4.0224
4.02288
4.0211
4.02171
4.03041
4.02929
4.0209
4.02016
4.02062
4.01936
4.02716
4.02834
4.03423
4.03424
4.03313
4.0329
4.0288
4.02914
4.04286
4.03908
4.03642
4.03161
4.03402
4.02802
4.03819
4.04427
4.03918
4.03951
4.04116
4.03798
4.03859
4.03638
4.03616
4.04293
4.04267
4.04166
4.03979
4.04512
4.05271
4.04644
4.0463
4.05186
4.05373
4.04596
4.04719
4.04629
4.0495
4.0467
4.04463
4.04685
4.04891
4.04828
4.04683
4.04834
4.05646
4.0591
4.05685
4.0544
4.04941
4.05398
4.05606
4.04542
4.06201
4.05957
4.06102
4.06292
4.06868
4.06306
4.05988
4.05912
4.05587
4.06358
4.05998
4.06594
4.06426
4.0589
4.06556
4.05929
4.06563
4.07082
4.07075
4.06303
4.06231
4.06458
4.06587
4.07164
4.06078
4.07325
4.07944
4.07482
4.07947
4.07084
4.06872
4.0778
4.07093
4.07061
4.06504
4.08005
4.07689
4.07275
4.08527
4.07613
4.07738
4.07567
4.07503
4.086
4.07776
4.07722
4.07667
4.07605
4.07262
4.08676
4.0796
4.08224
4.08092
4.07949
4.07481
4.06987
4.0832
4.0842
4.08753
4.08893
4.09708
4.09099
4.09074
4.0927
4.08687
4.08898
4.09033
4.09296
4.09871
4.09468
4.0889
4.08913
4.08955
4.1068
4.10274
4.10011
4.10132
4.09632
4.09852
4.10144
4.09829
4.09765
4.10079
4.10089
4.09921
4.09502
4.10185
4.10495
4.11092
4.10674
4.10136
4.10411
4.11409
4.11353
4.11033
4.11692
4.11365
4.11013
4.11038
4.11173
4.11154
4.11463
4.11266
4.11434
4.11344
4.10993
4.11213
4.12262
4.12417
4.12173
4.12231
4.1275
4.1312
4.1192
4.12022
4.12029
4.12045
4.12793
4.12481
4.12666
4.12873
4.13144
4.12646
4.13137
4.12327
4.03217
4.02723
4.02912
4.02439
4.02914
4.02963
4.02981
4.0264
4.03419
4.03034
4.02349
4.03215
4.03045
4.03168
4.02765
4.02926
4.01898
4.02235
4.02482
4.01977
4.02615
4.02233
4.02469
4.02493
4.01391
4.01938
4.02201
4.02473
4.02283
4.01977
4.03553
4.03376
4.02899
4.03214
4.03211
4.03244
4.03984
4.03302
4.03076
4.03981
4.03489
4.03059
4.02358
4.0277
4.0266
4.02959
4.02132
4.02279
4.0227
4.02461
4.02686
4.13271
4.12984
4.1282
4.13208
4.13272
4.12011
4.12358
4.12484
4.12371
4.11799
4.12675
4.12443
4.12233
4.12453
4.1176
4.12359
4.11763
4.11918
4.12882
4.12999
4.12243
4.12501
4.12132
4.12046
4.13023
4.11882
4.12588
4.12281
4.125
4.12501
4.12939
4.12583
4.12573
4.12279
4.12622
4.12867
4.11821
4.1247
4.11841
4.12164
4.11914
4.12308
4.12335
4.11982
4.12011
4.12959
4.12173
4.1213
4.12671
4.12388
4.1225
4.12215
4.1118
4.10757
4.11506
4.12457
4.1294
4.11565
4.12028
4.12217
4.11104
4.12015
4.12424
4.12239
4.11151
4.11414
4.11765
4.11759
4.11893
4.11856
4.12153
4.12083
4.11778
4.1137
4.11748
4.11956
4.12218
4.12591
4.12919
4.12726
4.12391
4.11764
4.11572
4.12031
4.11766
4.12391
4.11661
4.11093
4.11862
4.11305
4.12352
4.1205
4.12011
4.11758
4.13225
4.12754
4.12493
4.12734
4.12964
4.12865
4.12441
4.1217
4.11742
4.11728
4.12513
4.12237
4.11022
4.10842
4.11835
4.11708
4.11346
4.11206
4.10736
4.1026
4.11152
4.10498
4.10566
4.10844
4.10987
4.10411
4.10073
4.10727
4.10389
4.0994
4.10555
4.11158
4.11292
4.10809
4.1067
4.10572
4.109
4.11084
4.10993
4.11036
4.10466
4.11254
4.11111
4.1073
4.11008
4.10412
4.10334
4.10415
4.10653
4.11301
4.11223
4.1118
4.105
4.1052
4.10361
4.10438
4.09898
4.1019
4.10957
4.10438
4.11131
4.10905
4.10437
4.10432
4.11042
4.10599
4.10951
4.11523
4.11555
4.11632
4.11554
4.09602
4.10622
4.10617
4.10902
4.11685
4.11617
4.11938
4.11664
4.11367
4.10965
4.10638
4.10881
4.10653
4.10545
4.10246
4.11013
4.10474
4.10284
4.11404
4.10757
4.11009
4.11521
4.11305
4.10152
4.10028
4.11057
4.10426
4.10768
4.10829
4.11526
4.11649
4.11718
4.12007
4.11579
4.12196
4.11325
4.10669
4.11365
4.10939
4.11075
4.11042
4.11309
4.11596
4.11386
4.11807
4.11411
4.11616
4.10667
4.10898
4.11275
4.08995
4.09169
4.09933
4.10376
4.09933
4.0957
4.10188
4.09721
4.09652
4.09215
4.10556
4.09938
4.10022
4.10148
4.10537
4.10402
4.09498
4.09981
4.09409
4.09766
4.11345
4.10814
4.1072
4.09844
4.09428
4.10321
4.10283
4.09481
4.11309
4.10959
4.11722
4.11164
4.1219
4.11896
4.11209
4.10805
4.08546
4.08963
4.09203
4.09561
4.09001
4.092
4.0922
4.08811
4.09255
4.08745
4.0948
4.09928
4.09594
4.09291
4.09494
4.0946
4.09458
4.10032
4.10301
4.10524
4.10007
4.09522
4.09377
4.09406
4.09923
4.09714
4.09489
4.09814
4.09622
4.09529
4.08944
4.08935
4.0978
4.10068
4.09737
4.09499
4.11105
4.10195
4.10281
4.10536
4.11014
4.10416
4.11202
4.11075
4.09753
4.09812
4.09735
4.09562
4.09361
4.10382
4.09659
4.10011
4.09684
4.09938
4.09639
4.09635
4.10627
4.10529
4.10535
4.10329
4.09966
4.09482
4.09027
4.09651
4.09425
4.0933
4.09128
4.09285
4.10351
4.09888
4.10131
4.09876
4.10486
4.10039
4.09867
4.0934
4.08975
4.09112
4.09989
4.09477
4.09568
4.0939
4.09209
4.09514
4.09808
4.10681
4.1073
4.10522
4.10269
4.10619
4.10302
4.10408
4.10125
4.09544
4.10041
4.09396
4.09651
4.09525
4.0939
4.09609
4.10124
4.09948
4.09392
4.09489
4.10001
4.09535
4.09023
4.0957
4.08937
4.08474
4.07987
4.08029
4.08606
4.08669
4.08648
4.08685
4.08754
4.0882
4.09369
4.09413
4.0842
4.0834
4.09582
4.09165
4.09086
4.09456
4.09593
4.09066
4.0882
4.09085
4.08856
4.07512
4.08715
4.08702
4.08623
4.08133
4.08763
4.08866
4.09931
4.09097
4.08628
4.08599
4.08938
4.08988
4.0911
4.08625
4.08577
4.0899
4.08789
4.08968
4.08485
4.08728
4.09812
4.0912
4.08502
4.08618
4.09321
4.09208
4.08289
4.07738
4.08763
4.08627
4.08554
4.08433
4.08391
4.08471
4.07803
4.08698
4.08365
4.07853
4.07947
4.0806
4.08827
4.08553
4.07977
4.0798
4.08852
4.08461
4.08298
4.08599
4.08651
4.08853
4.08353
4.09285
4.0884
4.08634
4.08601
4.09498
4.09627
4.08974
4.09196
4.09158
4.0927
4.06982
4.08193
4.08161
4.08029
4.07439
4.07755
4.08239
4.08165
4.08364
4.07759
4.07857
4.08029
4.07936
4.07234
4.07324
4.06592
4.06862
4.07788
4.07467
4.08483
4.08128
4.08276
4.08656
4.0883
4.08677
4.07839
4.07702
4.06894
4.07718
4.07211
4.08304
4.08265
4.08385
4.07666
4.07913
4.07862
4.08003
4.08375
4.08722
4.08802
4.08159
4.08023
4.08665
4.08117
4.07937
4.07657
4.07303
4.07225
4.0806
4.07846
4.06804
4.06479
4.06085
4.07513
4.06848
4.07289
4.07047
4.08171
4.07458
4.08526
4.08523
4.0806
4.07787
4.0751
4.07506
4.07179
4.06797
4.07124
4.07582
4.07268
4.07619
4.07752
4.07539
4.0753
4.07194
4.07512
4.07495
4.07655
4.07092
4.07547
4.07621
4.08611
4.08494
4.079
4.08557
4.08368
4.08359
4.07832
4.08162
4.07542
4.0756
4.08433
4.08384
4.07661
4.08054
4.07825
4.07475
4.06784
4.07422
4.07148
4.07931
4.07982
4.06743
4.06457
4.07696
4.07363
4.07446
4.06747
4.0772
4.06762
4.07616
4.07285
4.0765
4.07456
4.07613
4.0792
4.08803
4.08513
4.07706
4.07808
4.06529
4.06754
4.0674
4.07301
4.07008
4.06686
4.06757
4.06514
4.08016
4.07667
4.0727
4.07075
4.07345
4.06996
4.08019
4.07853
4.07943
4.06535
4.06254
4.06835
4.06744
4.06536
4.07079
4.06725
4.06185
4.0615
4.06259
4.05951
4.06255
4.07842
4.07223
4.0759
4.0721
4.06676
4.07258
4.06996
4.07342
4.07353
4.07651
4.07412
4.07272
4.06224
4.06799
4.06308
4.07108
4.07557
4.06689
4.06658
4.06884
4.07042
4.07366
4.07403
4.07461
4.07921
4.07573
4.07783
4.0859
4.08252
4.08163
4.07879
4.08185
4.0844
4.07053
4.07518
4.06804
4.06458
4.07274
4.07019
4.07563
4.07304
4.07047
4.06962
4.05899
4.05885
4.06227
4.06088
4.05492
4.06354
4.06603
4.06048
4.06094
4.06719
4.06536
4.06424
4.06179
4.06356
4.06217
4.05645
4.05604
4.06046
4.07031
4.06677
4.06213
4.06882
4.06628
4.05246
4.04961
4.05796
4.06242
4.06077
4.05773
4.05995
4.0586
4.06728
4.06569
4.06368
4.06192
4.05971
4.06387
4.06104
4.05925
4.0553
4.05693
4.06821
4.05923
4.06068
4.0559
4.05707
4.0627
4.0577
4.05918
4.05279
4.05204
4.0622
4.05138
4.04983
4.05784
4.05605
4.0627
4.0602
4.05784
4.04873
4.05656
4.05568
4.05839
4.06356
4.06056
4.05033
4.05311
4.06282
4.06119
4.06422
4.06312
4.0627
4.05902
4.06901
4.06642
4.0619
4.06542
4.0635
4.06554
4.06136
4.05662
4.06046
4.04945
4.05441
4.05298
4.05577
4.04542
4.04955
4.05754
4.05764
4.05896
4.05783
4.0596
4.05647
4.05997
4.06252
4.05322
4.05733
4.05877
4.06983
4.06363
4.05855
4.06491
4.06208
4.06423
4.06512
4.06138
4.05613
4.05459
4.0555
4.05615
4.06181
4.06006
4.05845
4.06628
4.06693
4.06213
4.07058
4.06853
4.06908
4.06955
4.07273
4.0702
4.05768
4.06041
4.05707
4.06136
4.06069
4.05831
4.05912
4.05783
4.05609
4.05589
4.05257
4.04815
4.05856
4.05744
4.06875
4.06911
4.06983
4.04501
4.04386
4.06259
4.05031
4.05399
4.05185
4.05809
4.06134
4.05817
4.05239
4.05426
4.04949
4.04724
4.04563
4.05361
4.04732
4.04676
4.04804
4.05
4.05453
4.04914
4.0496
4.04788
4.05284
4.05082
4.04865
4.05042
4.06199
4.05748
4.05229
4.06049
4.06089
4.04389
4.04565
4.04652
4.05141
4.04126
4.03948
4.04991
4.04794
4.04499
4.04075
4.05414
4.05111
4.0553
4.05786
4.04711
4.04894
4.05002
4.05212
4.0572
4.05237
4.04188
4.0463
4.04544
4.04282
4.04998
4.04165
4.04337
4.04833
4.04697
4.04221
4.03971
4.03757
4.04498
4.04622
4.04956
4.05714
4.05034
4.04841
4.05178
4.05237
4.04446
4.04514
4.05036
4.05131
4.04258
4.04164
4.04414
4.0435
4.04188
4.04668
4.04379
4.04402
4.04962
4.04205
4.04192
4.0549
4.05114
4.04754
4.05743
4.05362
4.05269
4.03312
4.04574
4.04351
4.04757
4.04462
4.04231
4.05101
4.0553
4.04893
4.04294
4.04342
4.04257
4.04942
4.04427
4.04185
4.04687
4.04261
4.04719
4.04913
4.04726
4.03991
4.04335
4.04032
4.04095
4.04223
4.03558
4.03982
4.03884
4.03092
4.03142
4.0309
4.04069
4.0398
4.03991
4.02745
4.03637
4.04174
4.03362
4.03425
4.03339
4.02655
4.03391
4.03816
4.02854
4.03593
4.02851
4.03467
4.03352
4.03099
4.02665
4.03806
4.03457
4.03103
4.03427
4.03679
4.0421
4.04071
4.04329
4.04407
4.03937
4.03889
4.03664
4.04051
4.0408
4.03632
4.03673
4.0277
4.02881
4.03684
4.0324
4.03728
4.0339
4.03404
4.04261
4.03815
4.03749
4.04706
4.04074
4.04752
4.04518
4.04861
4.0452
4.04638
4.04176
4.03975
4.04139
4.04427
4.04157
4.0403
4.04183
4.04447
4.04432
4.04712
4.04313
4.04094
4.0409
4.03168
4.03245
4.03901
4.04128
4.03213
4.03505
4.03785
4.04393
4.04244
4.04082
4.05045
4.04289
4.04392
4.04035
4.04234
4.0314
4.03636
4.03403
4.03166
4.03175
4.03878
4.03379
4.03287
4.03218
4.03423
4.03198
4.02935
4.0305
4.03424
4.02333
4.02064
4.028
4.02585
4.02579
4.02244
4.03008
4.03046
4.03433
4.0327
4.02554
4.02855
4.03544
4.0324
4.04271
4.04407
4.04029
4.03873
4.04346
4.04609
4.04467
4.03059
4.0377
4.02973
4.03106
4.03159
4.03581
4.03269
4.02925
4.02761
4.03037
4.03214
4.02891
4.02604
4.02814
4.02702
4.03011
4.03201
4.0329
4.02876
4.03817
4.0353
4.025
4.02514
4.03292
4.03584
4.04444
4.03885
4.03158
4.03578
4.03025
4.02112
4.02126
4.02711
4.02835
4.03311
4.03475
4.02991
4.03106
4.03234
4.025
4.02582
4.02581
4.01938
4.02743
4.01695
4.01543
4.02329
4.01912
4.0198
4.02901
4.03306
4.02484
4.026
4.02336
4.02234
4.02489
4.0306
4.02429
4.02023
4.02484
4.02175
4.02598
4.02622
4.02801
4.0358
4.0332
4.03378
4.02328
4.02468
4.03163
4.01958
4.01993
4.02888
4.02827
4.02294
4.02023
4.0216
4.01885
4.01989
4.01867
4.01944
4.02077
4.02978
4.0208
4.02045
4.02506
4.02377
4.02349
4.02326
4.02437
4.02405
4.02268
4.02436
4.03025
4.02704
4.02339
4.02572
4.01926
4.02075
4.01864
4.02025
4.01632
4.01849
4.0162
4.01744
4.01995
4.02016
4.01484
4.01409
4.01052
4.02155
4.0175
4.01462
4.02273
4.02652
4.02225
4.01952
4.01838
4.02246
4.02139
4.02558
4.02405
4.01966
4.01797
4.01851
4.0233
4.02014
4.02427
4.02165
4.01701
4.01885
4.02252
4.01839
4.03119
4.02758
4.02598
4.02446
4.01919
4.01875
4.01624
4.01616
4.02215
4.01458
4.01964
4.02286
4.01904
4.0198
4.02347
4.02036
4.01938
4.02162
4.0296
4.02665
4.03519
4.02915
4.02966
4.02645
4.02555
4.02668
4.02886
4.02874
4.02657
4.02609
4.0186
4.01817
4.01974
4.02463
4.01784
4.02133
4.02325
4.02231
4.02205
4.01783
4.01962
4.01631
4.01803
4.01637
4.02591
4.02093
4.03518
4.03223
4.03034
4.02745
4.02466
4.02547
4.02184
4.02806
4.03455
4.02905
4.02735
4.03197
4.02406
4.02706
4.02827
4.0298
4.0272
4.02209
4.02399
4.03315
4.03803
4.03327
4.03612
4.02986
4.03986
4.03726
4.03209
4.03775
4.03612
4.03051
4.03064
4.02514
4.02791
4.0196
4.02443
4.02134
4.03928
4.03925
4.04101
4.03882
4.03642
4.04048
4.02866
4.03857
4.03279
4.03613
4.0355
4.02419
4.02449
4.03288
4.03646
4.03065
4.02936
4.02003
4.02672
4.02529
4.02637
4.02733
4.04245
4.03984
4.03709
4.03157
4.04045
4.03957
4.03601
4.03357
4.03657
4.03409
4.03332
4.0419
4.03994
4.03749
4.04004
4.05567
4.05201
4.04996
4.05676
4.05047
4.04424
4.05392
4.05649
4.05097
4.0468
4.04972
4.04895
4.04312
4.05127
4.05183
4.05396
4.04921
4.0506
4.04853
4.04333
4.03752
4.03524
4.03874
4.05158
4.04815
4.04847
4.04861
4.04521
4.04638
4.0389
4.05185
4.04866
4.04446
4.04145
4.04003
4.04444
4.04486
4.0477
4.04803
4.05099
4.05211
4.04869
4.0456
4.05342
4.04371
4.0372
4.04453
4.04219
4.03841
4.04337
4.04082
4.03685
4.0401
4.03509
4.03853
4.04453
4.0424
4.06063
4.0654
4.0605
4.05823
4.05816
4.05283
4.05619
4.06037
4.04839
4.05367
4.05343
4.05585
4.05286
4.05034
4.04712
4.05577
4.05428
4.05145
4.04857
4.0504
4.07358
4.06821
4.07486
4.07795
4.08393
4.06916
4.0679
4.07667
4.0767
4.0706
4.07167
4.07227
4.07207
4.04803
4.05131
4.0522
4.05196
4.05104
4.05217
4.04448
4.0532
4.04818
4.04817
4.05259
4.0771
4.07497
4.06856
4.06414
4.06872
4.06888
4.07043
4.0678
4.06827
4.0686
4.07134
4.06552
4.06114
4.06508
4.05849
4.05701
4.06192
4.06331
4.06241
4.0592
4.06039
4.06198
4.05862
4.05799
4.05817
4.05525
4.05725
4.05979
4.05412
4.04963
4.05726
4.05746
4.06493
4.06275
4.06451
4.05685
4.05896
4.06072
4.05876
4.05791
4.06292
4.06415
4.05212
4.05732
4.04881
4.04953
4.04934
4.05021
4.06524
4.06879
4.06967
4.07138
4.07095
4.07162
4.07395
4.07252
4.0652
4.06268
4.0666
4.07028
4.06178
4.06176
4.05782
4.06656
4.06928
4.07054
4.05498
4.05563
4.05865
4.0544
4.0499
4.05997
4.05109
4.05053
4.05671
4.05737
4.05878
4.05809
4.06172
4.06456
4.06208
4.06352
4.07054
4.07244
4.07174
4.0667
4.06811
4.06367
4.06521
4.06459
4.08664
4.08963
4.0875
4.08507
4.08226
4.08895
4.08505
4.0774
4.08178
4.07569
4.0843
4.07972
4.0822
4.08802
4.08606
4.06821
4.06949
4.06572
4.06536
4.06797
4.06327
4.05933
4.06913
4.06268
4.06682
4.06847
4.06735
4.06597
4.0706
4.06622
4.0642
4.0643
4.06504
4.06452
4.06536
4.06646
4.07949
4.08414
4.07938
4.09017
4.08669
4.08145
4.07816
4.07584
4.07243
4.06626
4.07265
4.07302
4.07326
4.07307
4.06552
4.07608
4.07404
4.07522
4.07193
4.06876
4.07467
4.07432
4.07025
4.07683
4.07991
4.07262
4.06832
4.07929
4.08188
4.07537
4.07156
4.07334
4.07161
4.05961
4.05902
4.06442
4.06752
4.06699
4.06944
4.07182
4.06161
4.06336
4.06564
4.06784
4.08545
4.09127
4.09014
4.08654
4.08833
4.08541
4.07666
4.07322
4.07678
4.08159
4.07922
4.08003
4.07864
4.08172
4.08193
4.07836
4.0875
4.08744
4.08117
4.07918
4.06856
4.07487
4.07554
4.07113
4.0705
4.07188
4.07263
4.08158
4.076
4.09775
4.09408
4.0969
4.09895
4.09176
4.09509
4.08167
4.07611
4.07731
4.07796
4.08388
4.08102
4.07501
4.07724
4.08311
4.07811
4.09624
4.09125
4.09398
4.09473
4.10872
4.10679
4.10324
4.11318
4.10706
4.10891
4.0898
4.08817
4.10174
4.09487
4.09763
4.09575
4.09357
4.09663
4.09775
4.0973
4.10085
4.10045
4.10249
4.10181
4.11014
4.11102
4.10583
4.10524
4.10036
4.10598
4.10112
4.10169
4.09735
4.09374
4.09551
4.11039
4.10778
4.09744
4.09682
4.07574
4.07968
4.08771
4.077
4.08636
4.08626
4.0852
4.08245
4.08233
4.08602
4.10425
4.10442
4.11209
4.10824
4.11202
4.10075
4.10599
4.10828
4.10988
4.11071
4.10746
4.10832
4.09659
4.103
4.10414
4.1039
4.10217
4.10292
4.10156
4.11092
4.11623
4.11771
4.11332
4.10879
4.1165
4.11271
4.11506
4.10781
4.1093
4.09743
4.10962
4.106
4.10671
4.10145
4.10175
4.10378
4.10562
4.104
4.10237
4.11631
4.11562
4.11423
4.11017
4.11156
4.11079
4.10981
4.10103
4.10135
4.10142
4.10341
4.10125
4.1066
4.10885
4.11397
4.10922
4.10994
4.10149
4.09324
4.09535
4.09879
4.09882
4.09969
4.10125
4.10692
4.10847
4.10836
4.10761
4.11483
4.11366
4.11419
4.11373
4.11582
4.11478
4.1203
4.12218
4.11496
4.11247
4.1181
4.12328
4.12049
4.11313
4.1157
4.12979
4.12876
4.12416
4.12174
4.12
4.10064
4.11182
4.11082
4.10662
4.10455
4.10492
4.10137
4.10664
4.10808
4.09768
4.10397
4.10487
4.12536
4.12624
4.11999
4.12157
4.12321
4.11699
4.12139
4.12176
4.12001
4.11721
4.11766
4.11798
4.12112
4.11671
4.11187
4.11408
4.11113
4.116
4.1178
4.11364
4.03893
4.04003
4.04632
4.04067
4.04024
4.04261
4.03472
4.03374
4.03573
4.03777
4.03025
4.03046
4.0324
4.03498
4.03248
4.02647
4.03547
4.03089
4.03612
4.03212
4.03705
4.03652
4.12259
4.12168
4.12265
4.12145
4.11604
4.11379
4.11902
4.12256
4.12058
4.12559
4.13175
4.12825
4.1265
4.12466
4.12003
4.12867
4.12426
4.12462
4.12771
4.11493
4.11802
4.11604
4.11278
4.11638
4.10755
4.10759
4.11572
4.11289
4.11069
4.08802
4.08053
4.09132
4.08124
4.08488
4.08667
4.08957
4.09325
4.0939
4.09403
4.09179
4.09239
4.08986
4.09013
4.0887
4.08662
4.08585
4.07777
4.0897
4.08115
4.08281
4.08517
4.08676
4.07056
4.07443
4.07358
4.06907
4.07259
4.06971
4.0796
4.07791
4.07703
4.07399
4.0728
4.07207
4.07301
4.07181
4.07768
4.06171
4.0609
4.05813
4.06016
4.05964
4.06435
4.06159
4.05875
4.05978
4.06329
4.12953
4.11979
4.12241
4.12817
4.1256
4.12727
4.12871
4.03792
4.03688
4.03361
4.03394
4.04031
4.03402
4.0376
4.03521
4.0332
4.0427
4.04146
4.04164
4.04347
4.10022
4.09673
4.095
4.09452
4.09059
4.09731
4.09819
4.09322
4.09629
4.0959
4.02107
4.02532
4.03642
4.03298
4.03436
4.03377
4.03354
4.0312
4.03438
4.03378
4.04019
4.03421
4.03388
4.04193
4.04305
4.04484
4.03722
4.0432
4.04413
4.04223
4.04381
4.03766
4.03513
4.04204
4.04342
4.13271
4.12893
4.13496
4.12553
4.12846
4.12506
4.12914
4.12683
4.12696
4.13662
4.12507
4.12239
4.12592
4.13222
4.12919
4.13011
4.12997
4.12534
4.12088
4.13136
4.1297
4.13062
4.13013
4.11547
4.12378
4.11768
4.12474
4.12231
4.12115
4.12273
4.1189
4.11772
4.12161
4.12657
4.12555
4.12321
4.12108
4.13092
4.12614
4.1292
4.12624
4.12382
4.12399
4.12309
4.12476
4.12536
4.12356
4.12794
4.11841
4.12238
4.13233
4.13119
4.12783
4.12435
4.12169
4.11059
4.11704
4.11379
4.12081
4.11747
4.1097
4.1082
4.11208
4.11818
4.12005
4.11371
4.11649
4.10902
4.10833
4.10923
4.10955
4.10943
4.12755
4.11578
4.11848
4.1219
4.1228
4.12376
4.11289
4.12568
4.11675
4.11736
4.11949
4.11689
4.12057
4.1187
4.12138
4.12047
4.12036
4.11619
4.12311
4.12197
4.12495
4.12051
4.1289
4.12656
4.12156
4.12414
4.12539
4.12298
4.12057
4.11122
4.12041
4.11644
4.11266
4.1198
4.10953
4.11181
4.10948
4.11149
4.12021
4.12325
4.12003
4.12059
4.12333
4.12388
4.1214
4.12132
4.1111
4.11166
4.11698
4.11834
4.11929
4.11701
4.11761
4.12386
4.12135
4.10167
4.10236
4.10566
4.1056
4.10084
4.10173
4.10877
4.10518
4.10816
4.10599
4.11167
4.11077
4.10786
4.10254
4.10471
4.10191
4.10227
4.09605
4.1028
4.10303
4.10366
4.1014
4.09099
4.09495
4.1146
4.11656
4.10832
4.10651
4.11653
4.11876
4.11399
4.10968
4.11351
4.11524
4.11348
4.11265
4.11616
4.10251
4.11288
4.10913
4.10977
4.10806
4.10698
4.10275
4.10266
4.09839
4.099
4.10512
4.10618
4.10735
4.09781
4.09737
4.09828
4.10431
4.11638
4.10779
4.10568
4.10803
4.11054
4.10336
4.09788
4.10244
4.09833
4.09568
4.10101
4.09361
4.09559
4.10227
4.09976
4.0927
4.08872
4.09262
4.09395
4.09509
4.09333
4.09341
4.09626
4.09672
4.10061
4.10179
4.10338
4.10316
4.09591
4.09737
4.09658
4.09214
4.09983
4.09247
4.10293
4.10244
4.08956
4.08835
4.08934
4.10258
4.0999
4.10327
4.10034
4.09689
4.09398
4.09177
4.09432
4.09201
4.09133
4.09097
4.0912
4.09056
4.07315
4.07271
4.07455
4.06632
4.08024
4.07582
4.08468
4.07472
4.08021
4.07992
4.07518
4.07624
4.09622
4.09597
4.09538
4.09355
4.09312
4.09301
4.09396
4.10344
4.106
4.10256
4.09786
4.09557
4.08216
4.07967
4.07703
4.08623
4.08481
4.08788
4.08525
4.08593
4.08429
4.08153
4.09331
4.09157
4.0929
4.08775
4.08927
4.0759
4.07664
4.07375
4.07225
4.07054
4.07495
4.07484
4.07189
4.08133
4.08214
4.08276
4.0804
4.07373
4.07914
4.07707
4.07538
4.07531
4.07811
4.0857
4.08213
4.08056
4.07226
4.07904
4.07891
4.07766
4.08021
4.0805
4.08146
4.08504
4.08325
4.07307
4.07545
4.07807
4.07942
4.07985
4.07611
4.0772
4.0776
4.07812
4.07201
4.07333
4.07895
4.07439
4.08496
4.08456
4.08259
4.07904
4.08246
4.08092
4.07765
4.07632
4.07347
4.07115
4.07447
4.07442
4.08026
4.07459
4.07271
4.07683
4.06715
4.06899
4.07123
4.0634
4.04834
4.05238
4.05208
4.05313
4.0568
4.0534
4.05173
4.05044
4.0587
4.06395
4.06308
4.06043
4.04859
4.0559
4.06181
4.06085
4.05368
4.05291
4.05608
4.06078
4.05889
4.05656
4.06515
4.06295
4.0624
4.0665
4.06844
4.06558
4.03914
4.04377
4.04701
4.05022
4.05348
4.05397
4.05218
4.05673
4.0526
4.05471
4.06594
4.0598
4.06839
4.06521
4.06321
4.06502
4.06395
4.05948
4.07102
4.06629
4.06324
4.06988
4.06859
4.06702
4.05695
4.05701
4.04956
4.05128
4.04818
4.06025
4.05642
4.05448
4.05583
4.05206
4.05317
4.04892
4.05878
4.05726
4.05302
4.04873
4.04647
4.05753
4.05863
4.05554
4.05626
4.05452
4.05469
4.0547
4.05623
4.06224
4.06408
4.06052
4.05683
4.05468
4.06168
4.06339
4.05971
4.06563
4.06451
4.06264
4.06452
4.06343
4.05514
4.05001
4.05013
4.05176
4.05197
4.04935
4.05011
4.0492
4.04772
4.04615
4.05626
4.05421
4.0384
4.04047
4.04183
4.04924
4.04697
4.04796
4.04815
4.04345
4.04389
4.04975
4.04818
4.04688
4.04587
4.04095
4.03984
4.04444
4.04151
4.04415
4.03869
4.03922
4.04211
4.04261
4.03429
4.02834
4.03729
4.04232
4.04694
4.05274
4.05453
4.05392
4.04987
4.0546
4.05177
4.05459
4.05868
4.05572
4.05885
4.05691
4.05351
4.05038
4.05177
4.05104
4.05067
4.05054
4.0491
4.05346
4.05316
4.04422
4.04358
4.04574
4.0469
4.04488
4.05314
4.05639
4.05592
4.05617
4.05287
4.05105
4.04657
4.04613
4.04468
4.05004
4.05339
4.04837
4.05361
4.04647
4.04612
4.05247
4.04361
4.04902
4.04752
4.04337
4.03913
4.03858
4.04626
4.04267
4.04057
4.04781
4.04514
4.04382
4.04447
4.03327
4.0395
4.04093
4.03277
4.0335
4.03228
4.03395
4.03277
4.03308
4.03674
4.03583
4.0392
4.0365
4.04381
4.03696
4.03725
4.04231
4.03822
4.04147
4.0417
4.0455
4.04352
4.04665
4.04295
4.03614
4.03931
4.03987
4.03383
4.02962
4.0295
4.02194
4.02435
4.03544
4.03249
4.03484
4.03175
4.02828
4.02742
4.03913
4.04817
4.03447
4.03524
4.04013
4.03294
4.04062
4.03856
4.03523
4.03963
4.03531
4.03584
4.0315
4.03215
4.03524
4.04046
4.03825
4.03747
4.0278
4.02979
4.03073
4.02549
4.0282
4.02969
4.02687
4.03358
4.03749
4.02967
4.0289
4.03587
4.03849
4.03297
4.025
4.02417
4.02176
4.02552
4.01756
4.01783
4.02565
4.02151
4.02892
4.0224
4.02253
4.01797
4.01789
4.02371
4.02147
4.01758
4.02137
4.01646
4.02866
4.02007
4.02568
4.02522
4.02526
4.02676
4.02506
4.02538
4.02492
4.01646
4.01331
4.02421
4.02205
4.02024