/*--------------------------------*- C++ -*----------------------------------*\
| =========                 |                                                 |
| \\      /  F ield         | OpenFOAM: The Open Source CFD Toolbox           |
|  \\    /   O peration     | Version:  v1612+                                |
|   \\  /    A nd           | Web:      www.OpenFOAM.com                      |
|    \\/     M anipulation  |                                                 |
\*---------------------------------------------------------------------------*/
FoamFile
{
    version     2.0;
    format      ascii;
    class       volScalarField;
    location    "150";
    object      p;
}
// * * * * * * * * * * * * * * * * * * * * * * * * * * * * * * * * * * * * * //

dimensions      [0 2 -2 0 0 0 0];

internalField   nonuniform List<scalar> 
16797
(
3.70411
3.67002
3.67021
3.67062
3.67028
3.67168
3.66869
3.66752
3.66857
3.66818
3.6686
3.6651
3.66383
3.66718
3.66809
3.66338
3.66726
3.67151
3.67139
3.66724
3.68928
3.69367
3.68776
3.68897
3.68984
3.69462
3.69316
3.68653
3.688
3.68627
3.6845
3.68555
3.68811
3.68699
3.68569
3.68943
3.65166
3.65249
3.64705
3.64904
3.6492
3.6524
3.64983
3.65022
3.65399
3.65511
3.65097
3.64787
3.65235
3.65184
3.64804
3.65459
3.66787
3.66792
3.66281
3.66609
3.66714
3.66918
3.66452
3.66571
3.66512
3.66427
3.66865
3.6631
3.671
3.66828
3.66948
3.66757
3.66915
3.63828
3.63492
3.64044
3.63937
3.6467
3.64131
3.6394
3.63252
3.63742
3.63913
3.63305
3.63085
3.63611
3.63506
3.63681
3.64653
3.64657
3.64104
3.6477
3.64728
3.64989
3.64642
3.64701
3.64734
3.65283
3.65417
3.64935
3.64761
3.64675
3.6506
3.65203
3.65359
3.65033
3.64079
3.64521
3.64515
3.64469
3.64554
3.64775
3.64278
3.64433
3.63882
3.64352
3.64582
3.64772
3.64856
3.64774
3.64414
3.64065
3.63776
3.70562
3.70449
3.70269
3.70745
3.70533
3.7038
3.70627
3.70305
3.70627
3.71207
3.70357
3.70064
3.70431
3.70121
3.69854
3.70092
3.69917
3.70114
3.7012
3.69957
3.70223
3.69745
3.69601
3.69309
3.6949
3.69453
3.69887
3.70147
3.69869
3.6989
3.6934
3.69167
3.68756
3.69095
3.69039
3.69546
3.69384
3.69662
3.69843
3.6908
3.69729
3.69268
3.69988
3.69203
3.68884
3.6898
3.69651
3.67847
3.6773
3.68103
3.6846
3.68106
3.67672
3.68426
3.68479
3.68508
3.68021
3.68335
3.68407
3.68359
3.68506
3.68276
3.69157
3.69158
3.67847
3.67974
3.68876
3.68716
3.68535
3.67745
3.68139
3.68823
3.68067
3.68173
3.68309
3.68155
3.68517
3.68561
3.6786
3.68001
3.65895
3.65473
3.65089
3.65426
3.64667
3.64976
3.65452
3.65853
3.65263
3.64518
3.64488
3.64891
3.64935
3.67747
3.68288
3.67101
3.67836
3.67735
3.67715
3.68148
3.68422
3.67637
3.67295
3.6831
3.6822
3.6794
3.67875
3.68182
3.6799
3.67718
3.67973
3.68481
3.68334
3.68296
3.68411
3.68974
3.69049
3.68657
3.68468
3.68747
3.68738
3.6926
3.69425
3.68886
3.68954
3.68378
3.68681
3.69151
3.68712
3.69216
3.69267
3.69038
3.66196
3.6604
3.65926
3.6585
3.6608
3.66123
3.6564
3.66158
3.66454
3.66358
3.66145
3.65866
3.66097
3.65849
3.66263
3.66378
3.66221
3.66127
3.65927
3.65199
3.65286
3.65714
3.65467
3.653
3.65231
3.6536
3.65614
3.65569
3.65428
3.65794
3.65708
3.65518
3.65262
3.65759
3.66088
3.65691
3.65611
3.65695
3.65822
3.65654
3.65391
3.6942
3.6957
3.68714
3.68847
3.69543
3.69402
3.69199
3.68552
3.68754
3.69475
3.69315
3.69361
3.6885
3.68913
3.6822
3.68147
3.68296
3.68285
3.682
3.68221
3.68168
3.67789
3.67744
3.67872
3.68333
3.67846
3.68089
3.67965
3.67514
3.67977
3.67763
3.67733
3.67993
3.67861
3.70477
3.70726
3.70112
3.69828
3.70173
3.70147
3.70823
3.70166
3.70184
3.69981
3.70065
3.69771
3.70083
3.71018
3.70086
3.70387
3.70049
3.70616
3.69923
3.69991
3.705
3.71057
3.70762
3.7054
3.67569
3.67921
3.68454
3.68038
3.67806
3.68083
3.68059
3.68073
3.69741
3.69597
3.69293
3.69641
3.68713
3.69412
3.69007
3.69244
3.68699
3.69264
3.7022
3.6919
3.69309
3.69081
3.69818
3.6906
3.69038
3.69189
3.70482
3.70091
3.69556
3.65282
3.65547
3.65621
3.65209
3.65458
3.65399
3.6523
3.65275
3.65696
3.65423
3.65509
3.65215
3.66267
3.65196
3.65704
3.65624
3.6539
3.65391
3.65586
3.65558
3.65465
3.65562
3.63987
3.6474
3.64293
3.64656
3.64308
3.6346
3.64291
3.63321
3.66478
3.6597
3.66677
3.66959
3.66524
3.66535
3.6598
3.66546
3.65195
3.65859
3.66103
3.66334
3.66362
3.659
3.65881
3.65543
3.65787
3.65343
3.6596
3.66824
3.66345
3.66478
3.66403
3.65819
3.6816
3.68206
3.67419
3.68346
3.6908
3.67939
3.67986
3.68207
3.6821
3.67958
3.68329
3.68122
3.6808
3.68273
3.67546
3.6818
3.68134
3.68524
3.68221
3.68467
3.6477
3.64798
3.6527
3.65149
3.65044
3.6504
3.64941
3.6489
3.64544
3.6486
3.65037
3.65209
3.65379
3.65223
3.65396
3.65049
3.64939
3.64972
3.64989
3.64195
3.64711
3.64614
3.69527
3.69576
3.68777
3.69777
3.69738
3.69537
3.69547
3.69905
3.69286
3.69863
3.69994
3.69597
3.69724
3.69408
3.69319
3.69737
3.68857
3.70022
3.69214
3.69283
3.66803
3.66623
3.67098
3.6695
3.6657
3.67219
3.67644
3.67106
3.67082
3.67211
3.67076
3.67485
3.67535
3.67234
3.67056
3.66831
3.67121
3.66906
3.69222
3.69508
3.69602
3.69128
3.68862
3.69845
3.6994
3.69489
3.69258
3.69296
3.69265
3.69342
3.69173
3.69132
3.68747
3.69124
3.66563
3.66035
3.66157
3.64933
3.65857
3.66169
3.66335
3.6586
3.6596
3.66057
3.66474
3.6657
3.66034
3.66175
3.65931
3.65753
3.68915
3.68775
3.68807
3.68764
3.68953
3.68495
3.68136
3.68744
3.68541
3.69318
3.68451
3.69078
3.68656
3.69069
3.68925
3.68948
3.6861
3.68234
3.68237
3.68781
3.68726
3.68221
3.66716
3.66264
3.66881
3.66035
3.66625
3.66991
3.66696
3.66789
3.66514
3.66788
3.65679
3.65887
3.65725
3.66102
3.65745
3.65958
3.69032
3.68618
3.68628
3.6896
3.69178
3.68685
3.69148
3.69626
3.69366
3.68484
3.69437
3.69212
3.6943
3.69702
3.683
3.69019
3.69271
3.69758
3.69538
3.69362
3.66372
3.66199
3.65742
3.65983
3.66072
3.66722
3.66209
3.6632
3.66007
3.66168
3.65856
3.66296
3.6625
3.65701
3.65985
3.66185
3.65605
3.66445
3.65295
3.65461
3.65887
3.6527
3.65483
3.65218
3.65621
3.64778
3.65531
3.65563
3.65227
3.63143
3.62833
3.63831
3.62985
3.63319
3.63851
3.63632
3.6283
3.63516
3.64094
3.63148
3.63458
3.63647
3.63399
3.67285
3.66575
3.66856
3.67314
3.67433
3.67487
3.67089
3.66407
3.67029
3.66777
3.64269
3.64
3.64165
3.63639
3.63924
3.64089
3.63881
3.63946
3.6411
3.64269
3.64131
3.64486
3.64187
3.63852
3.6406
3.63957
3.67552
3.67334
3.67331
3.66731
3.67518
3.67643
3.67763
3.67499
3.67694
3.67868
3.67573
3.66792
3.66996
3.67062
3.67742
3.67611
3.6781
3.67362
3.67425
3.67261
3.63869
3.64402
3.64091
3.65436
3.64036
3.64382
3.64319
3.64551
3.64373
3.64456
3.68764
3.68698
3.69194
3.69059
3.68963
3.69108
3.69751
3.69523
3.67915
3.68857
3.69551
3.69783
3.69112
3.69308
3.6925
3.69776
3.69318
3.65121
3.65281
3.6516
3.64497
3.65578
3.65048
3.64761
3.65045
3.64775
3.64521
3.64138
3.64283
3.64517
3.6454
3.65147
3.65076
3.64985
3.64605
3.65299
3.6531
3.64727
3.64888
3.64795
3.70482
3.70527
3.7049
3.70462
3.70078
3.70079
3.70134
3.70481
3.70404
3.70484
3.6982
3.69824
3.69926
3.69845
3.69595
3.70293
3.70282
3.70079
3.69674
3.69492
3.67491
3.67802
3.67606
3.67746
3.67645
3.67839
3.68164
3.67407
3.67749
3.68708
3.67676
3.68141
3.6795
3.68102
3.67816
3.67921
3.67987
3.64178
3.6425
3.63999
3.63421
3.63262
3.65048
3.64337
3.64596
3.63947
3.62899
3.6374
3.63732
3.64119
3.64633
3.6392
3.64461
3.6455
3.64243
3.64976
3.65297
3.64761
3.64894
3.6471
3.64299
3.64113
3.64698
3.64206
3.64319
3.64163
3.65027
3.64939
3.64936
3.65083
3.64735
3.65103
3.65079
3.64815
3.65519
3.63734
3.64062
3.65887
3.65602
3.65115
3.65106
3.65187
3.65496
3.6589
3.65659
3.6569
3.65444
3.6584
3.65072
3.65618
3.65565
3.65166
3.6554
3.65905
3.66284
3.65682
3.66366
3.65949
3.65716
3.65509
3.666
3.66257
3.65959
3.66094
3.65868
3.66418
3.6563
3.65859
3.66378
3.66888
3.66272
3.66575
3.65833
3.66848
3.66273
3.66446
3.66552
3.6611
3.66497
3.66693
3.67384
3.66789
3.66912
3.66957
3.66548
3.66943
3.66389
3.66889
3.66786
3.66846
3.66699
3.66993
3.66932
3.67051
3.67141
3.66843
3.66775
3.67567
3.67003
3.67307
3.6777
3.67438
3.67295
3.6808
3.67206
3.67874
3.67372
3.67729
3.67737
3.68179
3.68007
3.68142
3.67714
3.67917
3.67499
3.68194
3.68178
3.6769
3.68432
3.6798
3.67979
3.67983
3.68536
3.68033
3.68111
3.68048
3.67868
3.68602
3.68048
3.68183
3.68506
3.69093
3.68526
3.68196
3.68878
3.68641
3.6838
3.68775
3.68993
3.68921
3.68866
3.69881
3.69674
3.69602
3.69333
3.69073
3.69069
3.69387
3.68679
3.68767
3.69621
3.69732
3.68953
3.69633
3.69058
3.69083
3.69301
3.69644
3.69808
3.69663
3.6979
3.69085
3.69005
3.70233
3.7002
3.69654
3.69951
3.69718
3.69953
3.69497
3.69628
3.70073
3.70342
3.70503
3.7058
3.70949
3.70193
3.69641
3.70199
3.70494
3.70328
3.69564
3.70893
3.70981
3.707
3.70741
3.71307
3.71243
3.70675
3.70849
3.7021
3.70588
3.70894
3.702
3.70819
3.70672
3.71146
3.70551
3.70678
3.70418
3.70835
3.70599
3.71094
3.70822
3.71265
3.70875
3.70721
3.70693
3.70628
3.70783
3.70523
3.71108
3.71101
3.71361
3.69365
3.70397
3.70204
3.6961
3.70677
3.70907
3.70656
3.70303
3.7018
3.70565
3.70039
3.70118
3.70595
3.70354
3.70398
3.70235
3.70026
3.70876
3.70336
3.70613
3.70585
3.7035
3.70258
3.71267
3.70948
3.70707
3.70883
3.71066
3.69713
3.70589
3.69999
3.70231
3.70398
3.69937
3.70442
3.70847
3.70662
3.70802
3.71056
3.71218
3.70363
3.7069
3.70332
3.70308
3.70397
3.70667
3.7116
3.70506
3.71055
3.70387
3.70512
3.70464
3.70628
3.70901
3.70818
3.70977
3.70578
3.71274
3.70413
3.70061
3.70686
3.70346
3.70719
3.70817
3.70507
3.71123
3.70548
3.7041
3.70603
3.68919
3.69955
3.70179
3.69703
3.70041
3.69184
3.69233
3.69617
3.70148
3.69981
3.69417
3.69343
3.69493
3.69434
3.69554
3.6962
3.68975
3.70317
3.69922
3.69435
3.69402
3.69723
3.69765
3.6951
3.69334
3.70062
3.69665
3.69469
3.69236
3.70375
3.69939
3.69749
3.69598
3.70262
3.70563
3.70208
3.70144
3.70402
3.70259
3.70401
3.70552
3.7014
3.70294
3.70245
3.70347
3.70321
3.71006
3.70746
3.70444
3.70265
3.70506
3.70627
3.69955
3.70087
3.70276
3.70365
3.70279
3.70122
3.68912
3.69812
3.70434
3.70123
3.69569
3.69805
3.70381
3.70266
3.70299
3.70091
3.69063
3.69157
3.69395
3.69607
3.70235
3.69307
3.69407
3.69674
3.70009
3.693
3.68942
3.69921
3.69662
3.70168
3.70083
3.69957
3.69654
3.70053
3.70165
3.70903
3.70929
3.70832
3.70204
3.70259
3.68817
3.68835
3.6899
3.69843
3.69292
3.69757
3.69718
3.69802
3.69929
3.68897
3.69714
3.69688
3.69871
3.69765
3.68829
3.69598
3.69604
3.6972
3.69872
3.69564
3.69039
3.70237
3.69671
3.70236
3.69984
3.68973
3.69849
3.69134
3.69075
3.69694
3.69082
3.69816
3.6952
3.6847
3.68618
3.69605
3.69315
3.69168
3.6885
3.69295
3.69281
3.69079
3.68475
3.68892
3.68071
3.68905
3.68143
3.68548
3.6887
3.68896
3.68296
3.68231
3.68686
3.68301
3.68695
3.68823
3.69058
3.68889
3.69504
3.69733
3.69154
3.68814
3.693
3.68847
3.69634
3.68643
3.68461
3.68724
3.69041
3.68838
3.68852
3.68434
3.68683
3.68295
3.68873
3.6904
3.68046
3.69335
3.69354
3.69778
3.69811
3.69318
3.69098
3.69252
3.69455
3.6875
3.68772
3.69022
3.6974
3.69169
3.68772
3.69282
3.69175
3.69086
3.69253
3.6925
3.68597
3.69169
3.68284
3.69142
3.69537
3.69278
3.68781
3.68627
3.69394
3.6911
3.68725
3.69035
3.69184
3.6881
3.69094
3.70003
3.70311
3.70035
3.69222
3.69304
3.70011
3.69336
3.69546
3.69238
3.69476
3.70166
3.6947
3.69506
3.69603
3.69493
3.69478
3.69192
3.68998
3.69257
3.69567
3.69284
3.69173
3.69121
3.70221
3.70647
3.70663
3.70664
3.69663
3.6998
3.69671
3.70123
3.70454
3.70154
3.6948
3.68827
3.69389
3.69447
3.69577
3.69859
3.6911
3.68581
3.68102
3.69051
3.68227
3.68967
3.68566
3.68749
3.69468
3.69192
3.69539
3.69278
3.68905
3.68193
3.68218
3.68942
3.68845
3.69677
3.6932
3.69398
3.697
3.6911
3.68493
3.69437
3.69443
3.69368
3.69505
3.694
3.69481
3.68713
3.68845
3.68334
3.68459
3.68174
3.682
3.68127
3.68417
3.68652
3.68803
3.68557
3.69588
3.70128
3.69299
3.69198
3.69613
3.69505
3.68362
3.68913
3.68745
3.68995
3.68703
3.68872
3.68945
3.68257
3.68067
3.68363
3.69025
3.68713
3.6845
3.68313
3.68483
3.68957
3.68758
3.68104
3.68356
3.68597
3.67678
3.67732
3.68393
3.67897
3.68449
3.67913
3.68089
3.68437
3.68074
3.67975
3.68018
3.68765
3.6877
3.68032
3.688
3.68667
3.68956
3.68507
3.68487
3.69071
3.68645
3.69058
3.68958
3.68211
3.68766
3.6881
3.68229
3.67996
3.67572
3.67969
3.67666
3.6838
3.68168
3.67933
3.67747
3.67733
3.67826
3.6802
3.67793
3.685
3.68991
3.67886
3.67953
3.67545
3.68265
3.67766
3.6854
3.68684
3.67805
3.67867
3.67989
3.68174
3.6839
3.68246
3.67825
3.68131
3.678
3.67314
3.68409
3.68213
3.68855
3.68852
3.68741
3.68377
3.68305
3.68548
3.68628
3.6798
3.68011
3.67976
3.6782
3.68004
3.67796
3.67356
3.66895
3.67807
3.67898
3.67557
3.68023
3.67817
3.68713
3.69107
3.69532
3.68073
3.67951
3.67959
3.67907
3.67832
3.67777
3.68072
3.67164
3.6802
3.67705
3.68008
3.67176
3.67764
3.67626
3.68839
3.678
3.68438
3.68296
3.67605
3.67354
3.67565
3.67854
3.68983
3.6847
3.68763
3.68534
3.68019
3.67389
3.67991
3.67916
3.67876
3.67648
3.67463
3.67147
3.67506
3.67693
3.68385
3.67101
3.66929
3.67846
3.67294
3.68384
3.679
3.68274
3.67547
3.68257
3.67911
3.68231
3.67829
3.67729
3.68509
3.68711
3.68273
3.67882
3.68092
3.67863
3.67939
3.68387
3.68148
3.68304
3.66623
3.66524
3.67709
3.67633
3.67234
3.67159
3.67097
3.67803
3.6732
3.67477
3.67206
3.67211
3.6689
3.68288
3.68105
3.68397
3.68106
3.67551
3.67738
3.68028
3.6745
3.67974
3.67736
3.6707
3.67265
3.67122
3.67575
3.66725
3.6668
3.67442
3.67219
3.67075
3.6724
3.67331
3.67756
3.67843
3.67491
3.67786
3.67019
3.66612
3.67314
3.67727
3.67979
3.67517
3.68163
3.68014
3.67854
3.67333
3.67333
3.66671
3.66753
3.67506
3.66538
3.6637
3.66479
3.66415
3.67263
3.66928
3.67035
3.67838
3.67382
3.66979
3.66986
3.67076
3.67049
3.66932
3.66809
3.66979
3.66962
3.67324
3.66949
3.66897
3.66693
3.66144
3.66592
3.66626
3.66679
3.67137
3.67553
3.6716
3.66923
3.67168
3.66422
3.6669
3.66957
3.66426
3.66127
3.66873
3.66764
3.66465
3.66802
3.66149
3.66508
3.66394
3.67347
3.67787
3.66739
3.66979
3.67805
3.67538
3.66538
3.67128
3.67383
3.67222
3.66486
3.66806
3.66938
3.67066
3.665
3.66422
3.67074
3.66811
3.66575
3.6687
3.66626
3.6689
3.6761
3.66758
3.67028
3.672
3.67115
3.66749
3.66481
3.66507
3.66712
3.666
3.67558
3.66758
3.67297
3.66461
3.66696
3.67108
3.67121
3.67079
3.6759
3.67032
3.66724
3.67587
3.67131
3.66062
3.66839
3.67221
3.66535
3.66691
3.6694
3.66118
3.66068
3.6702
3.67641
3.67418
3.66893
3.66837
3.6637
3.66528
3.67018
3.67148
3.66846
3.67006
3.66308
3.66622
3.66257
3.66492
3.6603
3.6673
3.66813
3.67686
3.67169
3.67311
3.6685
3.67883
3.66955
3.66683
3.67354
3.67925
3.67624
3.67741
3.6705
3.66017
3.6638
3.6592
3.66294
3.66056
3.66507
3.66908
3.67072
3.66537
3.66922
3.66752
3.65842
3.66625
3.6699
3.66814
3.66604
3.66459
3.65682
3.65865
3.67238
3.67663
3.67395
3.67554
3.67488
3.6702
3.66658
3.66768
3.6665
3.66485
3.65875
3.66989
3.66932
3.6642
3.66465
3.66557
3.66825
3.66614
3.65838
3.65485
3.66512
3.6661
3.66004
3.66332
3.66055
3.66246
3.66254
3.66715
3.65713
3.66185
3.66336
3.6621
3.66115
3.65977
3.66326
3.66542
3.66131
3.65777
3.66101
3.65247
3.65546
3.66585
3.66232
3.66567
3.66848
3.66431
3.67159
3.67049
3.66342
3.66248
3.65685
3.65577
3.66109
3.65731
3.65864
3.66291
3.66124
3.66142
3.65495
3.65972
3.66047
3.65502
3.65619
3.65094
3.65335
3.6568
3.65719
3.66106
3.66224
3.65991
3.66401
3.64737
3.65942
3.65824
3.66205
3.65704
3.65249
3.65981
3.65345
3.65411
3.6577
3.65769
3.66542
3.65965
3.66238
3.66741
3.66769
3.64873
3.65165
3.64957
3.6543
3.65966
3.655
3.65242
3.65996
3.65911
3.65935
3.65279
3.65377
3.65575
3.65042
3.65688
3.65103
3.65048
3.65799
3.6542
3.65548
3.65186
3.66139
3.65836
3.66317
3.661
3.65878
3.65778
3.66359
3.65953
3.65682
3.65809
3.66255
3.66411
3.66084
3.66202
3.65596
3.66473
3.65875
3.65877
3.65486
3.65971
3.66149
3.6583
3.65764
3.66582
3.66675
3.66733
3.66594
3.66376
3.6546
3.66083
3.65926
3.65685
3.65888
3.65882
3.6589
3.66164
3.65075
3.65922
3.66114
3.65558
3.65532
3.65711
3.6645
3.65923
3.6571
3.65477
3.65631
3.65956
3.6577
3.64741
3.64741
3.65565
3.65066
3.65468
3.65267
3.65703
3.65361
3.6446
3.64982
3.64842
3.65154
3.65051
3.64967
3.65967
3.65532
3.6534
3.64766
3.65193
3.65033
3.65902
3.65599
3.65497
3.66165
3.65767
3.65653
3.65803
3.65566
3.6558
3.65397
3.64509
3.64977
3.65003
3.65293
3.64825
3.65135
3.65785
3.65663
3.65802
3.66006
3.65128
3.64764
3.65519
3.65707
3.65383
3.65569
3.65704
3.65737
3.64992
3.65112
3.65808
3.65634
3.66286
3.66405
3.65761
3.65591
3.66462
3.663
3.65242
3.64981
3.64927
3.65377
3.65454
3.65126
3.65107
3.653
3.64702
3.65335
3.65834
3.65466
3.65661
3.6569
3.65325
3.64394
3.652
3.64725
3.64508
3.65463
3.6484
3.64876
3.64477
3.65642
3.6533
3.65049
3.65067
3.65693
3.65313
3.65405
3.64459
3.64633
3.65357
3.65101
3.65132
3.65538
3.65273
3.63347
3.64134
3.64429
3.64069
3.64049
3.64325
3.63332
3.64417
3.6361
3.6392
3.64753
3.64576
3.64605
3.64271
3.64465
3.64976
3.64696
3.65077
3.64208
3.65194
3.64595
3.65535
3.65443
3.65138
3.65368
3.6524
3.64274
3.64568
3.65004
3.64467
3.64928
3.64147
3.64703
3.64549
3.65419
3.64564
3.64971
3.64971
3.65136
3.64302
3.64688
3.64667
3.65331
3.6485
3.65148
3.65121
3.64783
3.65026
3.65437
3.65971
3.65917
3.64894
3.64967
3.64968
3.65146
3.64775
3.64835
3.64877
3.6489
3.64552
3.64088
3.63696
3.64696
3.64624
3.6494
3.64895
3.65182
3.6466
3.65329
3.6468
3.65186
3.65353
3.64889
3.64562
3.65471
3.64993
3.65023
3.65033
3.65701
3.65373
3.64927
3.65907
3.65532
3.65531
3.65053
3.65042
3.65672
3.65201
3.65136
3.65399
3.63323
3.63235
3.64161
3.63835
3.64807
3.64377
3.6549
3.64879
3.64408
3.64941
3.64342
3.64823
3.64913
3.64834
3.63634
3.6408
3.63943
3.64315
3.64265
3.64175
3.64076
3.63938
3.64383
3.65066
3.64687
3.64561
3.64412
3.64369
3.63191
3.63419
3.64212
3.64225
3.63799
3.64056
3.63933
3.64368
3.64464
3.64581
3.64418
3.63894
3.63989
3.64325
3.6415
3.64094
3.64535
3.64495
3.64642
3.64097
3.64562
3.64693
3.64305
3.64686
3.64466
3.6512
3.65732
3.64913
3.64838
3.65253
3.64876
3.64026
3.64872
3.64955
3.64477
3.65152
3.64653
3.64251
3.64542
3.6403
3.64774
3.64953
3.65262
3.64697
3.64817
3.65043
3.64465
3.65075
3.65204
3.6523
3.64282
3.64477
3.64187
3.64358
3.64673
3.64118
3.64289
3.64741
3.64176
3.64616
3.64611
3.65259
3.64709
3.65235
3.64579
3.64447
3.64403
3.63865
3.64016
3.63907
3.64188
3.63824
3.64499
3.63841
3.63964
3.64784
3.64405
3.64568
3.64544
3.64049
3.64548
3.6418
3.64949
3.6386
3.64938
3.64709
3.64341
3.64389
3.64106
3.63922
3.63685
3.64016
3.63995
3.63423
3.64156
3.64189
3.6463
3.6417
3.64868
3.64195
3.63981
3.63583
3.64535
3.6472
3.64473
3.64402
3.63421
3.64097
3.63821
3.63456
3.63358
3.63239
3.6322
3.63373
3.63617
3.63111
3.63177
3.63442
3.62906
3.62563
3.63778
3.64307
3.64129
3.63638
3.63823
3.64136
3.64431
3.64131
3.64578
3.64717
3.64463
3.63886
3.64325
3.64312
3.64024
3.6405
3.64904
3.64464
3.64447
3.64482
3.64217
3.6399
3.64407
3.6446
3.6347
3.6333
3.63316
3.62761
3.62677
3.62724
3.63253
3.63735
3.63978
3.64562
3.64253
3.63797
3.63488
3.63143
3.63963
3.64109
3.64011
3.641
3.63448
3.63516
3.64149
3.63847
3.639
3.63632
3.63621
3.64
3.64563
3.65094
3.6504
3.64556
3.64203
3.64691
3.64658
3.64096
3.6464
3.64464
3.64447
3.64226
3.64916
3.65022
3.64846
3.64665
3.64046
3.6525
3.64812
3.6462
3.64188
3.64104
3.64134
3.6452
3.64726
3.64522
3.63216
3.63309
3.63149
3.63061
3.63386
3.63889
3.63378
3.62564
3.63878
3.63824
3.64536
3.63887
3.64655
3.64242
3.63948
3.64027
3.64286
3.64036
3.64103
3.6475
3.64329
3.64175
3.64008
3.63913
3.64346
3.6425
3.64484
3.64366
3.65408
3.64973
3.64704
3.64915
3.65251
3.65426
3.65025
3.65247
3.65443
3.6597
3.6593
3.65205
3.64826
3.65312
3.64963
3.65062
3.64076
3.6408
3.64072
3.64182
3.64125
3.6391
3.64686
3.64198
3.64421
3.63911
3.63204
3.63425
3.63644
3.63266
3.63311
3.65022
3.64685
3.64674
3.64721
3.64112
3.64032
3.64437
3.64106
3.64392
3.64685
3.64418
3.64377
3.64926
3.64442
3.64195
3.64259
3.64057
3.64001
3.64066
3.64248
3.63465
3.641
3.64126
3.63949
3.64028
3.6361
3.63837
3.64055
3.65438
3.6546
3.65766
3.64823
3.65011
3.65301
3.65118
3.65244
3.64961
3.64686
3.65305
3.6541
3.65237
3.6554
3.6482
3.65005
3.65241
3.64097
3.65048
3.64539
3.64745
3.64565
3.64717
3.64852
3.64699
3.64634
3.64106
3.63883
3.63142
3.64235
3.63972
3.64268
3.63872
3.64307
3.64246
3.64788
3.64626
3.64128
3.64826
3.64917
3.65188
3.64888
3.64819
3.64677
3.65069
3.65245
3.65159
3.65326
3.65424
3.65283
3.65312
3.65392
3.66148
3.66252
3.66275
3.66607
3.66289
3.66155
3.66137
3.66194
3.66108
3.65898
3.65943
3.66558
3.6663
3.66581
3.67069
3.66796
3.66615
3.66161
3.67144
3.66939
3.66718
3.66548
3.64581
3.65331
3.64753
3.65366
3.65576
3.65517
3.64925
3.65409
3.65489
3.6554
3.65305
3.6592
3.65844
3.65643
3.65501
3.65611
3.65092
3.66334
3.65765
3.65618
3.66425
3.65494
3.66426
3.64185
3.64211
3.64396
3.65057
3.64626
3.64241
3.64766
3.64545
3.64683
3.64061
3.64314
3.64672
3.64157
3.66088
3.65743
3.65736
3.65647
3.65272
3.66163
3.65441
3.65618
3.65481
3.6499
3.65055
3.65472
3.66212
3.66578
3.65691
3.65913
3.66102
3.64928
3.64948
3.65513
3.65866
3.66362
3.65503
3.65606
3.65705
3.65338
3.66155
3.66713
3.66394
3.65602
3.66133
3.66088
3.66291
3.66364
3.66294
3.66617
3.66492
3.65565
3.65288
3.66018
3.66253
3.66487
3.66696
3.66007
3.66782
3.66366
3.66846
3.66784
3.65926
3.65855
3.65973
3.65941
3.66091
3.65509
3.65166
3.65583
3.65603
3.65567
3.65961
3.6607
3.65835
3.65814
3.65838
3.6621
3.65611
3.65939
3.65795
3.65699
3.65891
3.66364
3.66156
3.6531
3.65275
3.65581
3.6783
3.67505
3.67698
3.67759
3.67479
3.67294
3.66984
3.67505
3.67907
3.6746
3.67681
3.67281
3.66795
3.66849
3.66843
3.67083
3.67455
3.67736
3.67714
3.67707
3.67224
3.6757
3.66899
3.66694
3.67022
3.67077
3.67158
3.67334
3.68379
3.68224
3.6763
3.67312
3.67398
3.6735
3.67575
3.67563
3.67552
3.67976
3.67256
3.66926
3.6715
3.67363
3.66696
3.6697
3.67132
3.66303
3.66543
3.67569
3.67244
3.67184
3.66971
3.67052
3.67287
3.67388
3.67139
3.66884
3.67242
3.66463
3.67113
3.66226
3.66212
3.66787
3.66432
3.66596
3.66182
3.66793
3.6682
3.66643
3.6661
3.66571
3.66858
3.66798
3.66541
3.66491
3.6672
3.66749
3.66718
3.6661
3.67022
3.67008
3.66987
3.66979
3.67336
3.66901
3.66833
3.67402
3.67895
3.67617
3.67201
3.6681
3.66737
3.67041
3.67336
3.67017
3.67305
3.67072
3.6719
3.66975
3.67189
3.6715
3.67799
3.67329
3.67456
3.66279
3.67109
3.66099
3.66437
3.66821
3.67112
3.66877
3.66758
3.67341
3.66894
3.67171
3.67463
3.67758
3.67568
3.66764
3.67264
3.67453
3.67271
3.6746
3.66851
3.66718
3.6795
3.67592
3.67478
3.67353
3.67699
3.67545
3.67578
3.67876
3.683
3.68507
3.6812
3.68994
3.69664
3.69365
3.69301
3.69293
3.68363
3.68029
3.68498
3.68163
3.68827
3.68479
3.68703
3.68737
3.68738
3.68874
3.68968
3.6891
3.68612
3.68652
3.68228
3.68144
3.68982
3.68509
3.68259
3.67964
3.6858
3.68594
3.68587
3.68762
3.68403
3.68613
3.67765
3.68386
3.68225
3.67913
3.67865
3.6805
3.67827
3.67101
3.67237
3.67832
3.67587
3.67698
3.67009
3.67384
3.67489
3.67117
3.67399
3.6747
3.67401
3.6763
3.6766
3.68157
3.6801
3.67807
3.68082
3.6767
3.67648
3.67589
3.67417
3.67699
3.67828
3.67936
3.67997
3.67804
3.68319
3.67866
3.68046
3.67738
3.67723
3.68027
3.68172
3.68753
3.69039
3.68344
3.68013
3.68873
3.69031
3.68282
3.68949
3.68638
3.6924
3.68747
3.68845
3.68562
3.6833
3.68951
3.68787
3.70091
3.70474
3.69944
3.69689
3.70164
3.6953
3.69988
3.6993
3.70464
3.70178
3.70186
3.70033
3.70346
3.70156
3.70258
3.7036
3.70482
3.70325
3.70537
3.70267
3.70018
3.70081
3.70954
3.70805
3.70617
3.68271
3.68735
3.68661
3.68625
3.69224
3.68681
3.68297
3.68236
3.68751
3.68604
3.68807
3.68686
3.69803
3.69394
3.69475
3.69422
3.69885
3.69489
3.69579
3.69162
3.70037
3.69748
3.69055
3.68908
3.69394
3.69583
3.68795
3.68772
3.68885
3.69231
3.6893
3.6914
3.67821
3.68565
3.68142
3.68044
3.68425
3.69936
3.69576
3.69728
3.69373
3.68843
3.69563
3.69239
3.69477
3.69591
3.69223
3.69099
3.68812
3.69395
3.69528
3.68777
3.69049
3.69507
3.69132
3.69917
3.69725
3.69826
3.69654
3.69294
3.69403
3.69185
3.70201
3.69865
3.68843
3.69116
3.68692
3.6887
3.69303
3.6902
3.70643
3.7039
3.70398
3.70214
3.70501
3.70649
3.6996
3.70342
3.70221
3.69962
3.70575
3.69904
3.70329
3.70076
3.70102
3.70568
3.70599
3.7086
3.7073
3.69939
3.70366
3.69949
3.69743
3.69306
3.69522
3.69783
3.70346
3.69635
3.70298
3.7044
3.70048
3.69941
3.70505
3.70743
3.70943
3.70902
3.69878
3.69952
3.696
3.69108
3.7035
3.70116
3.69203
3.69522
3.69841
3.69727
3.69624
3.70031
3.70653
3.69968
3.70248
3.70084
3.7034
3.69423
3.69348
3.68642
3.69734
3.69461
3.69292
3.69402
3.69027
3.68856
3.69113
3.68986
3.69585
3.69317
3.70357
3.7086
3.70087
3.69993
3.70406
3.70243
3.70807
3.70417
3.70066
3.70422
3.70444
3.70456
3.69822
3.70074
3.70267
3.70168
3.69694
3.69802
3.69272
3.69824
3.70199
3.70111
3.69989
3.69898
3.69732
3.69611
3.69998
3.69644
3.69893
3.69907
3.69905
3.69687
3.69924
3.69868
3.69907
3.6989
3.70424
3.71449
3.70779
3.71188
3.71041
3.71098
3.70358
3.69939
3.70406
3.70216
3.70831
3.70875
3.70948
3.70677
3.70724
3.70748
3.70968
3.70296
3.70362
3.70256
3.70255
3.70047
3.70208
3.70911
3.707
3.71897
3.70782
3.70861
3.70728
3.70864
3.70386
3.71352
3.70501
3.70624
3.70903
3.70842
3.704
3.70638
3.71049
3.70909
3.70503
3.70326
3.7035
3.70761
3.7035
3.7029
3.70285
3.70537
3.70218
3.70494
3.70118
3.70631
3.70066
3.70596
3.70134
3.69997
3.70658
3.70213
3.70664
3.70574
3.7064
3.6902
3.68963
3.69166
3.69376
3.6911
3.68785
3.69329
3.69108
3.68581
3.69434
3.69166
3.69525
3.68498
3.68729
3.68545
3.68692
3.68272
3.68525
3.68445
3.68294
3.68144
3.67972
3.68052
3.67442
3.67761
3.67779
3.67923
3.68042
3.67482
3.66975
3.66987
3.66668
3.66712
3.66243
3.66153
3.66158
3.66427
3.65941
3.66066
3.65745
3.65369
3.65939
3.65986
3.66126
3.66178
3.65041
3.64942
3.65278
3.6497
3.65749
3.65788
3.65658
3.65065
3.64724
3.64643
3.64773
3.64564
3.64724
3.64913
3.64954
3.6543
3.65864
3.65509
3.6566
3.65605
3.64961
3.65917
3.65682
3.66048
3.65301
3.65083
3.64762
3.65062
3.62613
3.63587
3.63411
3.63733
3.6407
3.64095
3.64037
3.63586
3.63149
3.63096
3.70205
3.69855
3.70005
3.69798
3.69578
3.69654
3.69659
3.6962
3.69539
3.69408
3.69792
3.7005
3.69899
3.70413
3.70001
3.6999
3.70753
3.70931
3.70012
3.70208
3.70216
3.70139
3.71006
3.70858
3.70595
3.70193
3.70851
3.70312
3.70692
3.70747
3.70156
3.70146
3.69748
3.70059
3.70339
3.70872
3.70888
3.69658
3.70609
3.71098
3.70724
3.70598
3.71157
3.71366
3.71537
3.71501
3.69847
3.70677
3.70907
3.68585
3.69258
3.68857
3.68755
3.69167
3.69302
3.68646
3.68508
3.68744
3.68906
3.69425
3.6885
3.68879
3.69001
3.68679
3.68734
3.69564
3.69775
3.69045
3.68888
3.68285
3.6849
3.70251
3.68585
3.69676
3.69029
3.69414
3.69193
3.69174
3.69233
3.69324
3.693
3.69006
3.69319
3.69422
3.69782
3.69601
3.68781
3.70057
3.69555
3.69588
3.69022
3.69104
3.69677
3.69398
3.6967
3.69137
3.68711
3.68888
3.68673
3.68129
3.68704
3.68907
3.68866
3.70016
3.6993
3.7024
3.6893
3.69511
3.69966
3.70124
3.70144
3.70165
3.70021
3.68332
3.68754
3.68728
3.68703
3.6863
3.69252
3.6925
3.68673
3.68459
3.68821
3.68499
3.68588
3.67361
3.6803
3.67919
3.6756
3.67267
3.67848
3.67902
3.68137
3.68342
3.67961
3.68363
3.68723
3.68854
3.68917
3.68567
3.68232
3.68076
3.67834
3.68112
3.68138
3.67766
3.67553
3.67523
3.67676
3.6793
3.68217
3.67965
3.68309
3.68818
3.68456
3.68127
3.67356
3.6751
3.67085
3.67531
3.67373
3.67119
3.67893
3.67737
3.67538
3.66877
3.67061
3.6834
3.67847
3.68314
3.67883
3.67711
3.6758
3.67903
3.68128
3.67596
3.67827
3.67315
3.67209
3.67108
3.67742
3.68132
3.67222
3.66851
3.68904
3.68589
3.68624
3.68623
3.68772
3.69232
3.68734
3.68529
3.6892
3.68718
3.68483
3.68932
3.68151
3.67646
3.6873
3.68488
3.69096
3.68835
3.69304
3.69082
3.69157
3.68243
3.67982
3.69081
3.68553
3.67389
3.68388
3.68067
3.6793
3.68102
3.68729
3.68173
3.67933
3.68144
3.68312
3.66911
3.67075
3.66738
3.67224
3.67316
3.6739
3.67809
3.67715
3.67688
3.67546
3.67823
3.67766
3.67569
3.6743
3.68271
3.68334
3.67623
3.68177
3.68056
3.67645
3.68719
3.68335
3.68119
3.68161
3.6782
3.68168
3.67098
3.67277
3.674
3.66902
3.6782
3.67952
3.67391
3.6818
3.67968
3.67672
3.67277
3.67086
3.67508
3.67447
3.67467
3.67213
3.67616
3.67345
3.67497
3.67673
3.67326
3.67692
3.67104
3.66832
3.66959
3.66082
3.67122
3.67042
3.66918
3.66837
3.67316
3.67032
3.66433
3.66387
3.66613
3.66895
3.66605
3.66374
3.66731
3.66522
3.66817
3.66686
3.66719
3.67009
3.67603
3.68139
3.66357
3.66426
3.66324
3.66375
3.67066
3.67143
3.66606
3.66648
3.66876
3.67081
3.66783
3.67013
3.67142
3.6745
3.67246
3.67188
3.65388
3.65779
3.66092
3.6601
3.657
3.66132
3.65671
3.65965
3.65299
3.65112
3.66178
3.66025
3.65835
3.65858
3.66544
3.66476
3.67033
3.67424
3.67607
3.6769
3.67641
3.67297
3.67199
3.67155
3.67077
3.67904
3.67766
3.67326
3.6756
3.67789
3.6598
3.6616
3.67072
3.6621
3.65626
3.65703
3.65995
3.65822
3.65861
3.65802
3.65424
3.66147
3.65886
3.65951
3.65353
3.6512
3.65447
3.65799
3.65076
3.65346
3.6497
3.65011
3.66594
3.65863
3.65986
3.65973
3.66354
3.66011
3.66279
3.66634
3.66244
3.66678
3.6614
3.65909
3.66223
3.66059
3.66272
3.66302
3.66211
3.66582
3.66387
3.65575
3.65611
3.6552
3.65177
3.65667
3.65595
3.6571
3.65523
3.66176
3.66018
3.65915
3.65609
3.66043
3.65838
3.66362
3.66318
3.66223
3.65902
3.65864
3.65941
3.66647
3.6643
3.65422
3.65437
3.6554
3.65955
3.65376
3.65256
3.64974
3.6542
3.65113
3.65758
3.65947
3.66023
3.65859
3.64843
3.64802
3.64061
3.65369
3.64901
3.65256
3.65562
3.65668
3.65251
3.65261
3.65543
3.66034
3.65725
3.65991
3.65779
3.64248
3.6496
3.64521
3.64833
3.64406
3.64649
3.6398
3.64463
3.64411
3.65027
3.64821
3.64013
3.64275
3.64095
3.65308
3.64601
3.65085
3.65154
3.64982
3.64917
3.64881
3.64987
3.64344
3.64609
3.63251
3.63787
3.63035
3.63953
3.63515
3.64616
3.64802
3.6455
3.64745
3.6481
3.64844
3.6501
3.64113
3.65004
3.64493
3.63932
3.64767
3.64485
3.65085
3.6513
3.6439
3.64846
3.64334
3.63994
3.64253
3.6464
3.64494
3.64567
3.6385
3.63179
3.63569
3.63923
3.63613
3.63725
3.63303
3.63937
3.63621
3.63756
3.63654
3.6383
3.64749
3.64586
3.63274
3.62416
3.63585
3.62852
3.63304
3.63515
3.64795
3.64557
3.64526
3.64687
3.64468
3.64324
3.64192
3.64863
3.6384
3.63335
3.64344
3.63357
3.63549
3.64293
3.63396
3.63258
3.64348
3.63964
3.64003
3.64047
3.64002
3.63961
3.64218
3.64251
3.63225
3.64563
3.64427
3.64159
3.64856
3.64473
3.64258
3.6438
3.645
3.64063
3.64397
3.64637
3.64498
3.64338
3.64675
3.64357
3.64035
3.63682
3.64968
3.6385
3.64398
3.64714
3.6424
3.64846
3.64968
3.65501
3.64873
3.64821
3.64828
3.64905
3.64838
3.65268
3.64578
3.64523
3.6558
3.66112
3.64661
3.64855
3.66815
3.67053
3.66535
3.65571
3.65459
3.6579
3.65864
3.65761
3.67023
3.66326
3.6675
3.66609
3.66561
3.66287
3.66189
3.66826
3.67147
3.66502
3.66858
3.6736