/*--------------------------------*- C++ -*----------------------------------*\
| =========                 |                                                 |
| \\      /  F ield         | OpenFOAM: The Open Source CFD Toolbox           |
|  \\    /   O peration     | Version:  v1612+                                |
|   \\  /    A nd           | Web:      www.OpenFOAM.com                      |
|    \\/     M anipulation  |                                                 |
\*---------------------------------------------------------------------------*/
FoamFile
{
    version     2.0;
    format      ascii;
    class       surfaceScalarField;
    location    "206";
    object      phi;
}
// * * * * * * * * * * * * * * * * * * * * * * * * * * * * * * * * * * * * * //

dimensions      [0 3 -1 0 0 0 0];

internalField   nonuniform List<scalar> 
41947
(
4.84429e-09
-3.82686e-09
6.33428e-09
-7.3517e-09
-2.48941e-09
-6.75534e-09
-4.63097e-10
9.70784e-09
1.14332e-08
-6.71731e-09
6.15051e-09
-1.08664e-08
1.76814e-09
6.62076e-09
-2.89855e-09
-5.49035e-09
-1.60911e-09
6.31005e-09
-2.93278e-09
-8.32377e-10
2.35932e-09
1.00192e-09
-2.52887e-09
5.88799e-11
-2.5004e-09
8.77086e-10
-2.96738e-09
-1.2154e-09
3.30569e-09
1.51982e-09
2.61935e-09
-3.94259e-09
-1.96583e-10
-8.10863e-09
-1.39259e-09
2.63289e-09
6.86835e-09
-6.10788e-10
1.88042e-09
-4.72009e-09
1.26661e-09
3.65087e-09
-6.89555e-10
-1.30236e-09
-7.06096e-10
2.69807e-09
-7.58365e-10
-1.18942e-09
1.25826e-09
-1.60188e-09
-4.58835e-10
2.43652e-09
4.32864e-10
2.41209e-09
-1.00814e-09
5.23248e-09
-1.67094e-10
-2.76376e-09
9.25328e-09
3.31388e-09
-9.80341e-09
1.98511e-09
-4.41289e-09
-3.35972e-10
-8.17049e-10
2.68438e-09
7.38595e-09
2.8849e-09
-1.31407e-08
9.43874e-09
1.92347e-09
-9.5391e-09
1.05005e-08
-1.44489e-09
-5.67299e-09
9.04136e-09
-4.37339e-09
5.61288e-09
-2.09445e-09
-2.93834e-10
-1.17062e-08
-1.01685e-09
-4.17677e-10
6.74055e-09
8.87409e-10
-1.01756e-08
2.54767e-09
-4.78905e-09
5.85661e-09
-1.22379e-08
3.58617e-09
-4.18049e-09
2.57587e-09
-1.01016e-08
1.05335e-09
-1.16546e-08
6.42079e-09
1.99661e-09
-8.25769e-09
-3.91455e-09
-2.42635e-09
-3.6609e-10
-2.56248e-09
-7.09954e-09
-3.29994e-09
-7.52023e-09
3.99954e-09
-6.24613e-09
-5.21248e-10
-2.73347e-10
4.42621e-09
-1.13738e-09
-2.59185e-09
-5.32266e-09
3.47708e-09
4.43745e-09
-2.1179e-09
-7.47271e-10
8.38614e-11
5.88593e-09
-1.54358e-09
1.40334e-09
5.00863e-09
4.96429e-09
1.28754e-08
4.21639e-09
-6.48164e-09
-1.06101e-08
-2.08628e-09
-1.67007e-08
1.71657e-08
1.62133e-09
-8.29195e-10
1.20336e-09
1.07318e-08
-1.1106e-08
9.00538e-10
1.11456e-08
-7.20309e-09
-1.34401e-10
8.54086e-09
6.97708e-09
-7.1606e-09
6.43499e-10
-4.59974e-10
9.93534e-09
-2.15e-09
-8.52154e-09
7.36189e-10
9.74716e-09
2.1542e-09
-1.96602e-09
-7.09326e-09
-1.76695e-09
1.65714e-09
-7.93752e-09
1.4155e-10
7.02719e-10
-1.57858e-09
6.97823e-09
-7.54963e-09
2.94684e-10
-9.81078e-09
1.08803e-08
-1.26719e-08
9.72984e-10
8.1404e-09
-9.32468e-09
9.28549e-09
9.39732e-10
6.61209e-09
5.07695e-10
6.23303e-09
-6.17932e-09
6.49023e-10
7.85913e-09
3.10479e-11
9.98976e-11
3.22578e-10
6.35527e-09
3.56719e-10
9.8208e-10
2.34269e-09
2.24502e-09
-5.56982e-09
3.61133e-09
3.83095e-09
-6.46022e-09
1.51936e-09
4.84148e-09
-4.01815e-09
8.05092e-09
-2.92023e-09
-3.19522e-11
4.91406e-09
-1.05117e-09
4.56484e-09
-1.98441e-09
5.47049e-09
-3.76766e-09
-3.31287e-10
8.6638e-09
-2.29167e-10
1.30299e-09
3.08344e-09
3.17258e-09
-4.011e-09
3.66079e-09
-6.09304e-10
3.00849e-09
-7.88363e-11
-2.13159e-09
2.0387e-09
3.75369e-09
8.1182e-10
4.7159e-09
2.81847e-09
7.55967e-10
4.60179e-10
-4.03452e-09
-3.6784e-09
1.48753e-09
5.00934e-09
-3.56068e-09
6.75028e-09
-6.86801e-09
3.3247e-09
-2.25373e-09
4.81498e-09
2.11667e-09
-2.78579e-09
3.99382e-09
-4.5392e-09
-1.97799e-09
8.00473e-09
4.94164e-10
-4.27739e-09
8.53221e-09
-2.5547e-09
-3.86083e-09
7.47541e-10
4.22398e-09
-4.9507e-09
1.34135e-08
-1.04408e-08
-9.96905e-09
5.76588e-09
7.28482e-09
-3.57486e-09
7.23644e-09
2.53587e-09
8.70038e-10
3.87892e-09
-6.6081e-09
-9.10871e-09
5.74777e-09
-6.14212e-09
-3.02068e-09
6.92703e-09
1.51049e-08
-1.9904e-09
1.73883e-08
2.07655e-09
5.16757e-09
-4.74532e-09
1.6966e-08
-7.85926e-09
1.92156e-09
1.11053e-08
5.74048e-09
-6.94577e-09
1.63102e-08
-8.53279e-09
1.2839e-08
-1.49586e-08
1.06524e-08
2.05234e-09
5.97552e-09
7.86382e-09
6.46464e-09
-6.24021e-09
1.72105e-08
-7.07421e-09
-3.89606e-09
9.14776e-09
1.39034e-09
-1.31494e-08
1.55048e-08
-8.59566e-09
-6.88393e-09
9.47326e-10
1.11595e-08
-4.18523e-09
-7.92157e-09
1.44529e-08
-9.80802e-09
-3.69753e-09
-5.93538e-09
1.5106e-08
1.98889e-09
-1.35431e-08
1.16514e-08
-4.04362e-09
-3.60802e-09
-1.41203e-08
4.42746e-09
-1.07835e-08
-7.76559e-09
1.41216e-08
-4.17869e-09
-5.58235e-09
1.41885e-08
-4.03316e-09
8.35572e-09
7.39376e-09
3.02598e-09
3.69252e-10
3.51652e-09
-6.62879e-09
2.81936e-09
-7.11845e-09
8.92987e-09
9.6375e-09
-1.67981e-08
3.55261e-09
-1.34298e-08
9.22928e-09
-1.22795e-11
4.21277e-09
1.61702e-08
-1.99624e-08
1.87706e-08
3.79311e-09
-1.09238e-08
-3.19068e-09
-6.97161e-09
7.03351e-09
3.1288e-09
8.07563e-10
-1.42988e-08
1.03006e-08
-1.32764e-08
1.03036e-08
3.78037e-09
2.26e-09
-4.51813e-09
-1.17374e-08
1.39956e-08
-3.26999e-09
-9.94884e-09
1.54788e-08
2.36837e-09
1.04568e-08
-4.63073e-09
-8.1944e-09
1.7328e-09
-1.15379e-08
-4.49374e-09
-9.13527e-09
-2.40833e-09
3.63212e-09
7.27869e-09
-7.67372e-09
-3.23709e-09
-5.89534e-09
-7.94285e-09
1.05682e-08
-3.2614e-09
-1.0392e-08
-4.83601e-09
-3.1438e-09
1.00822e-09
-1.12387e-08
-5.13518e-09
-2.89147e-09
-1.50925e-08
1.20887e-08
-1.73916e-08
1.11129e-08
-2.0707e-08
-4.52622e-09
-1.64525e-08
3.90503e-09
8.50383e-09
2.12403e-10
-5.55201e-09
4.57648e-09
-2.44051e-09
-1.00575e-08
1.03557e-08
-2.99996e-09
-7.14337e-09
3.72792e-09
1.05329e-08
8.65956e-09
2.87477e-09
-6.95783e-09
1.43764e-08
2.11956e-08
7.06947e-09
-1.53105e-08
-1.29546e-08
-6.50683e-09
1.5499e-08
1.22035e-08
2.47758e-08
-9.2649e-09
-8.44142e-09
2.47062e-09
7.05354e-09
1.52516e-08
1.37552e-08
-1.43743e-08
1.22688e-08
-1.16496e-08
6.67756e-09
9.5482e-09
1.25513e-08
-5.69114e-09
-2.21706e-08
5.06112e-09
9.83303e-10
5.77198e-09
1.67805e-08
-7.48934e-09
-1.61499e-08
-1.34462e-08
-7.24223e-09
1.19958e-09
1.94889e-08
-2.19279e-09
6.54847e-09
-1.78019e-08
-1.54496e-08
1.4885e-08
-5.18158e-09
2.00074e-09
1.01145e-08
-1.45876e-08
2.28031e-09
1.70861e-08
7.53511e-09
-2.07156e-08
-9.35592e-09
-1.70559e-10
-1.42001e-08
1.23793e-08
1.14251e-08
-1.43223e-08
9.96145e-10
1.901e-09
-7.67701e-09
6.06138e-09
1.30408e-08
1.14427e-08
-1.11904e-08
-1.45746e-08
-3.23584e-10
4.08929e-09
-7.45481e-09
-4.67275e-09
5.04214e-09
7.08541e-09
-9.35437e-10
-6.89286e-09
3.73489e-10
6.49312e-09
-7.37162e-09
1.87465e-09
5.20594e-10
1.20339e-08
-5.76357e-09
6.01982e-09
-6.43356e-09
6.17731e-09
-7.00784e-09
3.08832e-10
-8.47276e-09
3.47643e-09
-8.8998e-09
-6.46583e-09
3.15141e-12
4.77572e-10
-1.16712e-08
1.15826e-08
5.26039e-10
-1.09037e-08
3.00608e-09
8.29395e-09
-8.72686e-09
-6.57493e-09
2.38643e-09
-7.69522e-11
-8.81969e-09
2.63848e-10
-1.069e-08
-8.53996e-09
1.64474e-10
1.97142e-09
-3.26387e-09
1.12801e-09
2.34118e-09
-3.27946e-09
1.10277e-09
-1.66867e-09
1.50246e-09
2.50742e-09
8.78355e-10
-2.62622e-09
-1.53158e-09
-7.69052e-10
-2.12303e-11
2.27098e-09
-3.439e-09
3.13945e-09
-1.03886e-09
4.8123e-09
-2.10218e-09
8.36564e-10
-1.99826e-09
-9.4715e-10
-3.78125e-09
-3.35532e-09
-1.97445e-09
4.29095e-09
8.64392e-10
-2.11076e-09
-2.10893e-09
-9.48365e-10
-1.61667e-10
-1.28271e-09
-1.31972e-09
-1.55599e-09
-1.61417e-10
7.96476e-10
-3.2996e-09
-2.597e-09
-6.55167e-09
4.9488e-09
8.26037e-09
-6.6575e-09
-1.13444e-08
3.43398e-09
1.35872e-09
8.59689e-09
3.14193e-09
-6.79002e-09
-2.39406e-09
2.94453e-09
5.8286e-09
-6.37906e-09
9.42206e-10
6.77281e-09
-1.01091e-08
2.12242e-09
-5.82685e-09
6.64896e-09
-1.01135e-08
-2.7258e-09
1.49617e-08
6.28481e-09
-3.51476e-09
-8.17537e-09
4.34672e-09
3.8381e-09
-1.27788e-08
9.88294e-09
-1.00408e-08
1.11531e-08
6.00099e-09
-5.91598e-09
2.19448e-09
-4.78779e-09
-1.01855e-08
-1.84537e-09
-4.01693e-09
-2.14364e-09
2.63241e-09
3.52809e-09
-3.12332e-09
-9.18481e-10
2.48505e-11
4.47136e-09
-4.14537e-09
-3.44935e-09
8.81199e-10
1.44649e-09
-3.71972e-09
6.57606e-10
5.69451e-09
-3.16603e-09
-3.11566e-09
2.56196e-09
-4.09786e-09
1.33391e-11
8.88665e-09
-7.44969e-10
1.04711e-09
-9.18882e-09
2.48695e-09
4.79777e-09
1.6019e-09
-3.2624e-09
-3.94955e-09
7.86955e-09
-4.7253e-09
2.34408e-09
3.67223e-09
-4.22637e-09
-3.54374e-09
3.54556e-10
2.02012e-10
-5.3659e-09
5.1808e-09
2.67204e-09
3.62921e-10
-6.4738e-09
5.78158e-09
3.17211e-10
-5.05169e-09
5.85406e-09
1.5858e-09
-1.18182e-09
-2.64634e-09
-5.04527e-09
1.39987e-08
-1.79924e-08
6.00729e-09
-2.01366e-09
-1.48811e-09
2.35165e-09
1.31352e-08
1.00605e-08
-1.96202e-08
-8.43266e-09
6.12863e-10
7.95952e-09
-9.52331e-09
9.16977e-10
1.0958e-08
-7.58187e-09
4.06586e-09
-1.8063e-09
-6.61199e-09
1.0568e-09
7.36151e-09
-6.70887e-09
5.51545e-09
-6.06038e-09
-7.26048e-09
1.16749e-09
1.00478e-08
-9.75787e-09
-1.45741e-09
5.26963e-10
5.51957e-09
-5.69042e-09
-3.56099e-10
6.67336e-09
-4.97891e-09
-5.57258e-09
7.54637e-09
1.01725e-09
1.4487e-09
-2.56086e-09
2.02006e-09
6.435e-09
-2.32248e-09
1.87967e-09
1.57169e-09
1.18903e-10
9.82336e-09
-1.1514e-08
6.97122e-09
5.02786e-10
-5.90233e-09
6.0596e-10
-6.46631e-09
-1.62245e-09
-1.00759e-09
8.58476e-09
-2.28374e-09
-6.57321e-09
1.15596e-08
-1.37245e-08
6.70595e-09
-3.34891e-09
9.57683e-09
-1.20979e-08
-2.8122e-10
-3.69443e-09
-2.63309e-09
-8.73171e-09
-3.8685e-09
9.13621e-09
3.464e-09
-4.99517e-09
2.67155e-10
-4.00369e-09
5.11408e-09
-4.11183e-09
-5.99744e-09
1.77632e-09
-5.30736e-10
-4.27939e-09
-5.17322e-10
-4.00427e-09
8.80097e-09
2.26186e-09
-1.2634e-09
-5.27787e-09
2.33166e-09
-5.01334e-09
-2.63127e-09
5.31293e-09
-2.46347e-09
5.06e-09
-2.64862e-10
-4.19014e-09
7.7662e-09
-4.0934e-09
1.16834e-09
4.00533e-09
3.96253e-09
-8.62849e-09
4.48614e-09
5.31069e-09
-2.89383e-09
2.70901e-09
-4.83379e-09
-5.23511e-10
-4.73188e-09
-3.62946e-09
1.45802e-09
1.57999e-09
-7.14985e-09
4.31606e-09
-3.83419e-09
2.70662e-09
-5.9805e-09
2.71906e-09
2.30023e-09
-3.43931e-09
-3.38409e-10
-1.81293e-09
-9.53007e-10
-5.63577e-09
8.40166e-09
-9.24535e-09
1.0139e-08
-3.66611e-09
-1.41147e-10
4.43e-09
-4.75795e-09
4.69091e-10
-7.44967e-09
6.50542e-09
8.03095e-10
3.69226e-09
-5.7546e-11
7.95282e-10
-2.16376e-10
-1.95048e-09
5.85912e-09
2.88875e-09
-3.13079e-09
1.8448e-10
-1.40783e-09
4.0802e-09
1.60864e-09
-5.63115e-09
-3.42717e-09
-2.11365e-09
6.66859e-09
-2.92131e-09
-4.49376e-10
2.39887e-10
5.66663e-09
-2.48586e-09
-1.57213e-09
-3.32349e-10
3.88533e-09
-2.15044e-09
-1.20149e-10
-2.48737e-09
-9.98132e-10
-6.78345e-09
-1.25828e-09
-1.78317e-09
-3.16601e-09
-1.25352e-09
3.0117e-09
-3.53802e-09
-7.73836e-11
2.24845e-09
-1.2522e-09
-2.25454e-09
-1.28888e-09
-6.65387e-13
-2.87622e-09
3.86237e-09
-2.275e-09
-5.12655e-09
-4.57269e-09
2.98683e-09
-3.19617e-09
-6.65848e-09
-1.59082e-08
1.78551e-08
4.71168e-09
-1.66524e-08
1.62755e-08
-6.2815e-09
1.43935e-09
-3.29974e-10
-1.70176e-08
4.86506e-10
-1.56996e-08
-9.05618e-09
9.19797e-09
1.61337e-08
6.58846e-09
2.21044e-09
4.20495e-10
9.41619e-09
-9.35017e-09
7.47318e-09
-7.38265e-09
1.66791e-08
7.09176e-09
-1.43546e-08
2.89935e-09
8.25168e-09
5.52804e-09
-2.23607e-08
1.46373e-08
1.06228e-08
-4.49625e-09
-1.07727e-08
-1.29204e-08
1.11371e-08
8.37178e-09
9.93312e-09
-1.53804e-08
3.17811e-09
1.42716e-08
-1.71147e-08
1.33088e-08
1.84432e-08
-1.16778e-08
2.76241e-08
-1.14057e-09
7.40457e-09
-1.26633e-08
6.39938e-09
-1.73842e-08
9.25934e-09
6.98425e-09
2.44114e-08
-1.58744e-08
5.5987e-10
-9.09684e-09
9.38647e-09
2.51804e-08
-1.01555e-08
-3.55053e-09
1.27089e-08
-1.75379e-09
-1.29339e-08
-6.49106e-09
9.63945e-09
-3.33887e-09
-1.89639e-08
4.13779e-09
-1.18825e-08
-3.79067e-10
2.24745e-08
8.87551e-09
-3.7014e-09
-2.61423e-08
2.09682e-08
2.32914e-08
2.86725e-09
-1.72831e-08
-1.99741e-08
-7.62433e-09
1.65046e-08
1.11103e-08
1.21368e-08
4.42805e-11
1.6114e-08
-9.10897e-09
1.96e-08
-1.18514e-08
9.19414e-09
1.77278e-08
-1.50705e-08
-1.88929e-09
-4.8589e-09
-5.10318e-09
1.69671e-08
-7.31248e-09
8.90078e-09
-1.85554e-08
1.69774e-09
1.29631e-08
2.30623e-09
1.25774e-08
-2.23291e-08
2.43922e-09
1.05369e-08
3.73829e-09
-9.87349e-09
1.01028e-08
1.27338e-08
-2.86198e-09
-3.04515e-09
1.56624e-09
1.0673e-08
1.0566e-09
4.45824e-09
-8.56e-09
-4.53054e-09
-1.5673e-08
3.96504e-09
1.62385e-08
-8.49009e-09
5.01614e-09
-1.36263e-08
1.56341e-08
-1.31638e-08
4.60229e-09
-5.26854e-11
-7.78639e-09
-1.77689e-10
-3.37628e-09
-8.39482e-09
-1.25554e-08
-7.06906e-09
4.1557e-09
5.24756e-10
-1.19898e-08
3.07025e-09
-7.46524e-09
1.45585e-09
-1.05967e-09
8.75648e-09
-4.90972e-10
-5.74134e-09
-2.52417e-09
-6.91796e-09
2.73927e-09
-9.67975e-09
-6.89543e-09
9.14372e-09
-6.89103e-09
6.7833e-09
6.0764e-09
-5.96867e-09
-6.27028e-10
-3.07105e-09
-3.19294e-09
8.83112e-09
-4.52825e-09
-4.92991e-09
-9.44981e-09
1.03215e-08
-3.94277e-09
-1.12469e-09
-3.32832e-09
1.12363e-08
-4.74788e-09
1.24543e-08
-3.81873e-09
1.07212e-08
-1.14307e-08
9.20324e-09
-1.35148e-08
4.92857e-10
-4.27593e-09
4.98452e-09
-4.03693e-09
-3.54388e-09
9.51717e-09
1.13214e-09
4.52718e-09
4.48959e-09
-7.6334e-09
8.80378e-09
-1.78938e-09
6.41342e-09
-1.34278e-08
4.44878e-09
6.54284e-09
-2.18784e-09
5.72187e-09
-9.2355e-09
1.72424e-09
9.83863e-09
3.32025e-10
8.98481e-09
2.40602e-09
-4.97741e-09
8.95155e-09
6.57609e-09
-2.92457e-09
1.12541e-08
-5.92348e-09
1.73821e-08
-1.44287e-08
-5.87797e-09
-7.34788e-09
2.31574e-09
-5.60253e-09
1.06347e-08
-8.66398e-09
6.98243e-10
6.17857e-10
-1.49497e-09
1.08614e-08
2.55554e-09
-1.1922e-08
-3.20318e-10
-8.97524e-09
5.05831e-09
1.5171e-08
2.07421e-10
8.19949e-09
-7.77471e-09
1.51488e-08
1.87508e-09
5.46634e-09
-5.57784e-09
-1.08948e-08
8.0187e-09
8.45394e-09
-1.74486e-08
5.74861e-09
6.12214e-09
-5.26618e-09
-2.39942e-09
6.87215e-09
7.93441e-10
-1.77024e-10
-1.01913e-08
5.1021e-09
-1.21335e-08
7.5098e-11
1.16359e-09
-1.27242e-08
-1.68579e-08
8.48445e-09
1.38011e-09
-1.84587e-09
-1.30004e-08
5.15858e-09
7.66483e-09
-4.95493e-09
-1.41039e-09
3.96589e-09
-7.88461e-10
-9.85463e-09
4.51824e-10
-5.5523e-09
-1.91095e-10
4.67507e-09
-1.78445e-10
-5.90702e-09
-1.0822e-10
-7.85757e-09
-1.88884e-09
6.09885e-09
-1.57522e-09
-6.45616e-09
1.93254e-09
-2.00879e-11
5.87031e-09
2.48616e-10
-1.70916e-09
-1.13995e-08
5.10431e-10
-1.09629e-08
8.87721e-09
-1.39229e-08
-6.29628e-09
-1.95093e-09
6.50673e-10
-1.26492e-08
-7.0114e-09
8.44727e-09
-1.19867e-08
-6.95873e-09
-2.94772e-09
-5.6413e-09
1.28672e-10
-1.05522e-08
-1.68012e-09
9.2846e-09
-4.20486e-09
-2.50994e-09
3.19627e-10
-6.4953e-09
3.39498e-10
-3.44862e-09
-5.18524e-09
-7.2734e-10
-1.4708e-08
-6.47288e-09
-1.67836e-09
-2.38384e-09
-9.17595e-09
1.54517e-09
-8.76781e-09
-7.31154e-09
7.82732e-09
1.067e-08
-1.21627e-08
-6.33465e-09
1.61349e-08
-7.13574e-09
-1.17184e-09
-9.38644e-09
1.43531e-08
1.11682e-08
8.87704e-10
3.95885e-10
-8.33785e-09
7.30051e-09
-5.70874e-09
6.74609e-09
3.22963e-10
-4.33415e-09
-4.32667e-09
6.39087e-09
-1.22395e-08
-6.31407e-09
-4.95613e-09
4.21125e-09
9.86895e-09
-4.43861e-09
-5.10738e-09
5.29085e-09
-3.78576e-09
8.36386e-09
6.22653e-10
-4.47167e-09
-2.48563e-09
1.14195e-08
2.93725e-09
-2.30053e-09
-4.97087e-09
-2.14884e-09
-2.26414e-09
-1.4447e-08
1.5574e-08
-4.70217e-09
-1.53105e-08
6.83212e-09
-9.26684e-09
-1.8913e-08
7.35148e-09
1.72e-08
-5.63847e-09
-8.08353e-09
-2.09607e-08
1.01312e-08
1.14879e-08
5.5988e-09
-1.00859e-08
-7.00073e-09
1.05826e-08
7.60107e-10
1.45106e-10
1.04882e-08
-5.90309e-09
1.01952e-09
-5.60467e-09
5.30495e-09
9.30057e-09
-4.11731e-09
2.29431e-09
-7.82917e-09
1.28863e-08
-5.63408e-09
8.54254e-09
7.67418e-09
8.52748e-10
-8.88037e-10
8.96286e-10
9.81429e-09
-9.95048e-09
-4.46328e-09
-4.01616e-09
1.07737e-08
-5.81883e-09
-1.15762e-09
-1.25617e-08
-1.34071e-09
9.63842e-09
-5.55919e-09
-1.34226e-08
4.67713e-09
4.93137e-09
3.81413e-09
-1.15467e-08
-6.69629e-09
4.82036e-09
-7.98114e-09
6.34864e-09
6.30964e-09
1.41858e-09
1.1201e-08
-3.8701e-09
-8.74946e-09
1.122e-08
-3.15868e-09
-6.64275e-09
9.68905e-09
-9.8134e-09
-2.30275e-09
5.3343e-09
-1.04413e-08
1.90953e-09
6.22906e-09
7.71313e-09
-6.95348e-09
-6.90207e-09
-5.96528e-10
-4.82544e-10
-7.0899e-09
-1.13589e-08
-2.05308e-09
1.15436e-08
-8.51258e-09
3.9719e-09
6.45021e-09
-1.13393e-09
3.34478e-10
-6.97622e-09
5.35807e-09
5.59005e-09
-2.55742e-10
-6.8289e-09
1.08425e-10
-6.04453e-09
9.34952e-09
-2.92857e-11
-6.27098e-09
-8.21406e-10
-9.42717e-09
7.01989e-09
-1.17114e-08
-8.13661e-09
1.73781e-10
-7.45015e-09
6.33343e-09
-1.2724e-08
7.78727e-09
-1.0263e-09
5.96309e-09
-1.09164e-09
-4.52614e-09
-7.10627e-09
-1.59266e-09
6.46243e-09
2.9175e-09
-7.01848e-09
5.02136e-09
4.04452e-10
-1.56529e-08
9.20773e-09
5.41886e-09
-6.09781e-09
-1.06467e-08
1.20695e-08
-1.08387e-08
-8.37443e-09
7.14363e-09
-5.02784e-09
1.143e-08
5.66738e-09
7.08099e-09
-6.51637e-09
-1.14034e-08
1.79503e-09
2.58113e-10
5.84948e-09
-4.12489e-09
-6.25073e-09
6.26035e-10
-1.19469e-09
-4.01469e-09
1.16718e-08
-3.82863e-09
7.6553e-09
-5.46635e-09
1.06594e-08
1.20352e-08
-4.4338e-09
3.49568e-09
-1.41369e-08
1.04679e-08
-1.30701e-08
4.56086e-09
4.40723e-10
4.82546e-09
-3.23157e-09
-7.49698e-09
1.02043e-09
1.18454e-08
-8.04035e-09
-3.14224e-09
-5.35128e-09
9.51396e-09
-4.60328e-09
-3.961e-09
5.42204e-09
-1.51174e-09
-5.6907e-09
1.85116e-09
-6.34644e-09
2.31408e-10
-5.97444e-09
6.46264e-09
-4.44922e-09
7.52978e-09
3.01545e-09
-3.86751e-09
-6.67774e-09
1.45647e-09
9.88602e-11
5.89435e-09
-6.18614e-09
-1.187e-08
1.21618e-08
-8.88431e-10
-1.67957e-09
8.46235e-09
-5.07737e-09
1.43564e-08
-6.26359e-09
-5.18968e-09
2.9971e-10
-5.40729e-09
-1.17185e-09
4.64592e-09
4.55572e-10
-8.96901e-09
-5.95105e-09
-1.08079e-08
1.01304e-08
3.4615e-09
-1.25406e-08
-1.05133e-09
-2.34927e-09
3.99887e-09
8.48085e-09
7.80821e-09
1.52425e-09
-1.44676e-08
8.07563e-09
-4.76115e-09
-1.74443e-08
2.00159e-09
1.30934e-08
-7.12035e-09
-1.40032e-09
-8.92358e-09
-1.10325e-08
1.81412e-09
1.32172e-08
2.21747e-09
-9.78844e-09
-7.70026e-09
-1.19607e-08
-1.14867e-08
5.31071e-09
1.63311e-08
-9.65575e-09
3.12363e-09
1.5209e-08
-7.90847e-10
9.6385e-09
1.26334e-08
3.64807e-09
1.34359e-09
8.52152e-09
-1.35132e-08
-7.99469e-09
-6.95642e-09
1.12902e-08
3.66096e-09
-5.93555e-09
3.21194e-09
-3.97418e-09
6.69778e-09
-2.25812e-09
-1.06711e-08
4.93456e-09
4.61905e-09
1.20326e-08
-5.90108e-09
-1.07505e-08
6.22551e-10
7.64456e-09
1.45404e-08
-8.27513e-09
-7.79142e-09
1.52617e-09
4.48125e-09
1.14027e-08
-9.90188e-09
1.70821e-09
-5.07588e-09
1.01797e-08
1.5391e-09
-1.39791e-09
-8.41633e-09
1.05923e-08
-1.02566e-08
-5.41156e-09
-8.27628e-09
-2.45369e-09
1.2338e-08
-1.608e-09
1.47837e-08
-1.95926e-08
-1.01561e-09
5.8245e-09
1.04801e-08
1.28074e-08
-3.01301e-09
-2.21316e-08
1.73048e-08
-5.01862e-09
-1.52862e-08
7.76778e-09
6.24435e-09
3.29271e-09
2.15783e-09
2.09866e-08
-1.26643e-08
7.92134e-09
1.03793e-08
2.45516e-09
1.50144e-08
-2.04825e-08
1.34252e-08
-1.59886e-08
1.10603e-08
8.6092e-09
2.60091e-09
6.55746e-10
1.17577e-08
9.53336e-09
4.12788e-09
1.96125e-08
1.45937e-08
-5.26749e-09
-2.53906e-09
-6.78717e-09
9.71768e-10
3.79547e-09
9.82649e-09
-1.02129e-08
1.45839e-08
-6.98032e-09
5.42253e-09
9.78311e-09
-8.22534e-09
-9.24055e-09
3.23202e-09
-9.08527e-09
-2.16907e-09
1.66769e-08
-1.12802e-08
6.52467e-09
-4.32976e-09
-1.70995e-08
5.71077e-10
7.2879e-09
-1.02472e-08
-9.39136e-09
-1.09388e-08
7.74202e-09
-1.40711e-08
1.72679e-08
-1.68197e-08
6.45199e-09
-1.10075e-08
1.65804e-08
-7.3083e-09
-3.81946e-09
-2.9433e-09
-1.2458e-08
-1.167e-08
-2.60187e-09
-9.52855e-09
1.12296e-09
-1.24861e-09
-3.04441e-09
-5.73808e-10
2.22435e-09
8.00187e-09
1.55387e-09
6.82158e-09
1.39747e-09
5.1336e-09
-1.39923e-09
4.76586e-09
-4.60318e-11
2.51773e-09
1.57202e-09
1.04388e-09
4.05745e-09
3.22615e-09
-5.55852e-09
1.41996e-09
6.36293e-09
1.11966e-09
-3.80942e-09
-1.57875e-09
6.80817e-09
-3.54629e-09
3.79434e-09
5.47557e-09
-1.56406e-09
1.09715e-09
5.4507e-09
-1.20372e-10
7.93556e-09
-5.58633e-09
1.24579e-08
-1.48071e-08
1.36903e-08
-3.13165e-09
-2.6231e-09
-4.88041e-09
-1.03309e-08
1.2737e-08
2.47433e-09
-1.2985e-08
1.09647e-08
-2.8601e-09
1.94469e-09
-1.09632e-08
3.43218e-09
8.9854e-09
5.05152e-09
-1.57906e-09
9.87353e-09
1.28022e-08
2.40954e-09
-6.03158e-09
-6.70887e-09
-5.52396e-09
4.8435e-09
-6.02985e-09
-4.40196e-09
5.58831e-09
-1.72544e-09
-2.67525e-09
9.2442e-09
-6.66717e-10
5.6016e-09
6.29024e-09
5.78004e-09
1.98211e-08
-2.62282e-09
-1.28158e-08
-4.38247e-09
5.06669e-09
-9.15357e-09
8.86581e-09
1.2603e-08
-1.64766e-09
1.27427e-08
7.87735e-09
-1.17542e-08
3.73098e-09
1.7406e-09
-4.45634e-09
6.46187e-09
-4.13406e-09
7.74905e-09
1.19518e-08
-9.50797e-09
-3.853e-09
1.21394e-08
7.6387e-10
7.98611e-09
8.58166e-09
5.25163e-09
-5.08022e-09
1.46588e-09
-1.63732e-09
-5.80864e-09
4.80085e-09
6.25942e-09
-4.24814e-09
1.02243e-09
-2.58291e-09
-2.38589e-09
-6.94247e-09
-6.71928e-09
1.02472e-08
5.13582e-09
3.61612e-09
-4.86492e-09
-5.75212e-10
4.18546e-09
-2.14439e-09
-6.3607e-09
3.89596e-09
7.40605e-09
-2.7675e-09
-1.09035e-09
-2.55788e-09
-4.62806e-09
-1.96465e-09
3.01324e-09
-2.13898e-09
4.85484e-09
8.40017e-10
4.55237e-09
9.703e-09
-3.07204e-09
-4.21851e-09
5.32589e-09
-5.54979e-09
3.31776e-09
1.18245e-09
-2.01636e-09
-3.41836e-10
-2.69423e-09
7.15451e-09
-6.31138e-10
-2.21051e-10
-6.30232e-09
1.82203e-10
5.89833e-09
1.07398e-09
5.23936e-09
-6.38135e-10
-5.23235e-09
4.19982e-09
1.47356e-09
-4.34023e-10
-6.57553e-09
5.26271e-09
1.49501e-09
-1.19515e-09
-5.60143e-09
5.55138e-09
4.54677e-09
1.10991e-10
2.91541e-09
-3.66453e-09
-8.08763e-10
-1.85104e-10
6.92978e-09
-5.93592e-09
-4.26346e-09
3.1793e-09
2.08226e-09
3.16768e-09
-2.33454e-09
3.80673e-09
-2.50907e-10
-6.06532e-09
6.23093e-09
-9.74372e-10
-1.81212e-09
-1.08552e-09
-7.651e-10
5.84271e-09
4.34418e-09
4.42105e-10
-5.2888e-09
5.96783e-09
-5.85634e-09
5.17731e-09
7.41231e-09
-1.22775e-08
-4.23635e-10
3.81596e-10
-9.64361e-10
6.55059e-09
7.77739e-09
-1.51553e-09
1.15046e-09
-1.02873e-09
9.1877e-09
3.66288e-09
-1.95203e-09
2.83233e-09
-4.54321e-09
4.19085e-09
-1.50467e-09
2.19252e-09
-4.87873e-09
5.38978e-09
-6.22592e-09
-6.79388e-10
-8.46294e-10
5.20725e-09
-4.42489e-09
2.97735e-09
5.11034e-09
-4.40621e-10
-8.43323e-10
-3.14095e-09
1.976e-10
1.93337e-09
-2.92382e-09
2.15704e-09
1.03033e-09
1.2085e-09
-6.05586e-09
-5.04307e-09
-1.17861e-09
-4.11793e-09
4.20406e-09
-6.142e-09
-3.54575e-09
1.65225e-09
2.40159e-09
1.8708e-10
-5.13013e-09
2.54144e-09
3.08322e-09
-1.61665e-09
9.35018e-10
-4.13487e-09
4.80878e-09
-5.71698e-09
-8.06573e-09
-1.85777e-09
-3.49291e-10
1.35254e-09
4.52259e-09
-1.72147e-08
1.13395e-08
3.37179e-09
8.00081e-09
-1.00201e-08
5.25659e-09
-2.94946e-09
-6.15164e-09
3.84452e-09
-8.61173e-09
4.32423e-09
-5.58749e-10
4.84625e-09
1.9292e-09
-5.28435e-09
-7.63836e-09
4.96497e-09
6.99762e-09
-2.1503e-09
-3.55885e-09
7.31861e-09
-4.75021e-09
-4.7187e-09
5.6086e-09
-6.29806e-10
2.33982e-09
-4.267e-10
-4.05257e-09
7.85105e-09
9.66384e-09
-5.56795e-09
-3.63695e-09
-5.36285e-09
-8.21486e-09
3.91845e-09
1.17444e-09
-8.04234e-09
7.21203e-09
-5.29578e-09
2.00221e-09
-8.07631e-09
1.16514e-08
5.38066e-09
-1.006e-08
4.12059e-09
6.521e-09
-1.02431e-08
6.66729e-09
-9.28124e-09
1.05828e-08
6.74012e-09
-8.04167e-09
9.71541e-11
5.20766e-10
-9.89916e-09
4.0304e-09
-9.74445e-09
5.43622e-09
2.77816e-10
-9.20919e-09
4.85476e-09
8.38483e-09
3.45624e-09
6.76429e-09
-8.0276e-09
-2.19293e-09
-5.08099e-09
8.18755e-09
3.49659e-10
7.90938e-09
4.54795e-11
-7.89604e-11
-7.8759e-09
2.9055e-09
-7.71175e-11
4.82042e-10
9.50981e-10
9.14976e-09
-1.07706e-08
7.24881e-11
1.07436e-08
7.75381e-09
-1.78744e-10
-7.47791e-09
6.86391e-09
1.37193e-09
1.21466e-09
-9.46637e-10
-1.00125e-08
2.31544e-10
-8.22607e-09
1.81757e-09
6.77495e-09
-3.15632e-09
-1.24261e-09
7.59653e-09
4.10369e-10
7.89592e-09
-7.87502e-09
5.33084e-09
6.31778e-09
5.65125e-09
-1.72999e-08
1.05564e-08
7.44104e-09
-1.26666e-08
2.53299e-09
1.74551e-08
-1.04399e-08
1.94753e-08
-6.38592e-09
-3.82035e-09
1.86812e-08
-7.41978e-09
1.40408e-08
-1.15434e-08
-8.73167e-09
-7.54456e-09
1.58242e-08
4.5204e-10
1.35086e-08
7.24641e-09
5.94096e-09
-1.04245e-08
-2.7629e-09
-3.40425e-09
1.96166e-08
-2.70368e-09
4.001e-09
1.4934e-09
-2.23182e-08
1.68238e-08
2.54904e-09
-1.42111e-08
1.56631e-08
-1.80772e-08
-6.32463e-09
1.98364e-09
2.24182e-08
-1.48566e-08
3.93757e-09
-7.15809e-09
9.4874e-09
1.10676e-08
-1.07966e-09
1.20859e-08
1.04629e-08
1.58722e-08
-4.73561e-09
1.0848e-08
-3.78928e-09
-7.78593e-10
1.55641e-08
-4.48576e-09
9.2287e-09
2.24213e-08
-7.57517e-09
4.77043e-09
9.21101e-09
2.17546e-09
-9.62204e-09
5.52433e-09
6.28474e-09
-2.18702e-09
-1.00087e-08
7.52558e-09
-7.13887e-09
2.13749e-10
-7.45983e-09
-7.9231e-09
1.51692e-08
-5.87482e-09
1.75522e-08
-6.15308e-09
1.54663e-08
-6.65426e-09
-8.59826e-09
-1.19326e-08
2.12689e-09
-1.01989e-09
1.08256e-08
1.36151e-08
-1.00814e-08
8.41668e-09
-9.21326e-09
1.44117e-08
1.71465e-08
1.16706e-08
-1.32118e-08
-1.56054e-08
-2.87001e-10
1.56388e-08
1.79474e-09
1.30502e-08
8.6915e-10
-1.42064e-08
-3.162e-09
1.09025e-08
7.89829e-09
5.39897e-09
3.10962e-09
1.78289e-08
-8.59756e-09
3.81889e-09
4.02851e-09
1.77846e-08
-3.98426e-09
-4.98631e-09
2.03747e-08
-2.11574e-09
-1.32727e-08
-1.5055e-08
-3.19435e-09
1.3263e-08
1.93471e-08
-6.79162e-09
7.81917e-09
1.03873e-09
1.38923e-08
9.13682e-09
2.78155e-09
-6.51939e-09
-1.14637e-08
-4.41005e-09
1.3758e-08
-4.3725e-09
1.16981e-08
3.13737e-09
-1.0463e-08
1.56304e-08
-2.46763e-09
1.26432e-08
-4.04272e-09
1.32732e-08
1.31188e-08
-1.53116e-09
-6.8886e-09
1.06151e-10
-1.24706e-09
8.0295e-09
1.47358e-08
-6.706e-09
-7.31882e-09
-7.1092e-10
7.49119e-09
-5.75203e-09
-8.62776e-09
-2.78025e-09
-2.58329e-09
1.28547e-08
-5.68959e-09
-5.95355e-09
5.00889e-09
6.63424e-09
-4.15541e-09
-1.42802e-09
7.8431e-09
8.23374e-10
-1.44185e-08
1.01594e-08
-5.09654e-09
-6.24e-09
-5.63315e-09
5.96003e-09
5.91313e-09
-1.6887e-09
-4.50541e-09
-4.58873e-11
7.48389e-09
-5.09994e-09
-6.53936e-09
-1.58364e-10
9.42699e-11
1.17863e-09
8.8865e-09
1.71116e-09
-7.25004e-09
-1.19036e-08
7.62704e-09
1.18905e-08
-8.00407e-10
-5.30929e-09
-5.78079e-09
-2.60794e-09
3.86836e-09
1.06301e-08
1.55775e-08
-7.62533e-09
-8.75259e-09
1.0025e-08
2.9446e-09
4.81635e-09
-4.61723e-09
-5.50842e-09
-7.47922e-10
5.11763e-09
4.46641e-10
-1.04778e-10
6.44067e-09
-7.79506e-09
1.45917e-09
-3.33136e-09
2.71766e-09
5.08919e-10
4.30267e-09
-2.46026e-09
3.85122e-09
-5.69363e-09
2.23388e-10
-7.76717e-10
-1.13504e-08
4.95478e-09
7.17233e-09
3.53492e-09
2.12903e-09
-5.7257e-09
3.36811e-09
7.09039e-09
-4.7328e-09
7.27137e-09
1.71462e-09
-2.14416e-09
4.68443e-09
-1.01656e-08
-9.22165e-09
8.00497e-10
-4.74433e-09
-5.86548e-09
-3.37805e-10
-1.85298e-09
1.10332e-08
-8.12983e-09
-2.64776e-10
-2.63857e-09
1.52737e-10
-4.45745e-10
1.13262e-08
-9.00871e-10
-1.02867e-08
3.05773e-09
8.36116e-09
-1.188e-08
2.61796e-09
-3.17536e-11
9.97343e-09
-9.78895e-09
-5.68449e-10
8.48389e-09
1.14472e-08
-6.04355e-09
-3.80868e-09
-1.59494e-09
-2.87476e-09
2.27823e-09
-1.12835e-08
-6.71857e-09
3.37819e-10
6.34901e-09
2.99737e-09
-1.79732e-09
-1.21312e-08
1.09311e-08
6.08073e-10
-6.5833e-09
8.9726e-09
7.20727e-09
-8.33183e-10
-5.766e-09
-4.27277e-09
4.76146e-09
6.46119e-09
-1.19639e-09
-6.09798e-09
2.0132e-09
1.75224e-10
7.59351e-09
-7.90741e-09
-8.82489e-10
4.86558e-09
-1.46818e-10
-6.40986e-09
6.17923e-09
-6.36821e-10
4.6891e-10
5.52049e-09
7.497e-09
-5.38309e-09
-7.63439e-09
1.24324e-08
-3.8418e-09
-3.07013e-09
5.08457e-09
3.83008e-09
-4.5665e-09
-4.34815e-09
6.11163e-09
-1.61776e-09
5.907e-10
-4.69573e-09
8.2352e-09
3.95754e-09
9.57484e-09
-1.83813e-09
5.14812e-09
3.0143e-09
-4.33234e-09
-4.42495e-10
5.31848e-09
2.72134e-10
3.08856e-09
8.17387e-10
-9.28903e-09
4.56284e-09
-5.31607e-09
5.35513e-09
3.14007e-10
6.74702e-09
-1.04961e-08
-7.67712e-10
5.89696e-09
-1.89031e-09
1.81942e-09
9.64575e-09
1.67277e-10
6.17762e-09
7.53691e-09
-1.115e-09
-3.4076e-09
7.31338e-09
5.54202e-09
7.8965e-09
-4.44866e-09
4.11113e-09
1.53218e-09
-5.47604e-09
6.3434e-09
-1.14332e-09
1.55049e-10
2.12648e-10
9.50327e-09
9.18756e-09
-1.66153e-09
-4.00426e-09
8.91929e-09
-9.44783e-09
4.53277e-09
-1.1672e-08
-3.41935e-10
8.00966e-09
4.91173e-09
-1.16221e-09
5.16977e-09
-7.52686e-11
1.24776e-08
-7.49059e-09
3.67762e-09
-1.20257e-09
-1.4147e-08
1.32699e-09
-7.09721e-09
6.21996e-09
-2.09826e-09
-6.43752e-09
2.31584e-09
5.06487e-09
-6.86814e-09
8.02322e-09
-7.35703e-09
8.414e-10
4.41737e-09
-4.35245e-09
9.34206e-09
-7.4206e-09
1.90592e-09
1.02952e-09
-9.58912e-09
5.63042e-10
-1.62685e-09
7.19506e-09
-6.13125e-09
7.77552e-09
-5.88549e-09
4.90614e-09
-7.47294e-09
-3.87073e-09
-2.35523e-09
3.93228e-10
-8.07027e-09
-4.58817e-09
4.94309e-09
2.51667e-10
4.86849e-09
-1.7137e-08
4.8557e-09
7.41279e-09
-1.41992e-08
6.96572e-09
1.2102e-08
-7.07764e-09
-3.39391e-09
-6.66543e-09
1.84235e-08
-1.18409e-08
-1.36602e-08
-4.78939e-09
9.01364e-09
1.27999e-09
-9.37955e-09
1.47862e-08
-6.68661e-09
-7.24266e-09
-3.31827e-09
-4.36532e-09
-7.77091e-09
2.75668e-09
1.82943e-10
-1.17909e-08
7.41435e-09
-1.09166e-08
7.70346e-09
-4.20117e-09
1.00494e-08
-2.63074e-09
-4.27196e-12
-3.95447e-09
-9.45157e-09
-5.75674e-09
-7.99873e-10
-1.98733e-10
5.8592e-10
-4.65371e-09
1.10335e-08
-5.11347e-09
-3.77928e-09
9.47867e-09
-8.88552e-09
-7.81839e-09
1.10038e-08
-6.5793e-09
7.42369e-09
2.57312e-09
-1.15899e-08
4.63396e-09
7.28616e-10
2.34089e-09
8.12951e-09
6.55382e-09
7.77382e-09
-3.42359e-09
2.68736e-09
-8.01171e-09
4.74172e-09
5.82637e-10
5.45734e-09
2.8469e-09
1.40167e-09
-1.01745e-08
1.55456e-08
-7.12757e-09
1.43578e-08
-5.85345e-09
1.00971e-08
-1.52471e-09
-2.71897e-09
1.0292e-08
-4.08262e-09
-1.20629e-08
-8.59122e-09
1.01595e-08
8.52886e-09
6.56081e-09
-4.85999e-09
-5.48531e-09
1.87166e-09
-5.09518e-09
-3.12581e-09
3.55624e-09
-1.2734e-08
7.96332e-09
-9.19017e-09
7.2611e-09
-8.35932e-09
-5.2576e-10
4.06927e-09
4.81581e-09
-5.67001e-09
-2.47978e-09
-2.09535e-10
-7.7269e-09
1.21063e-08
-7.94253e-09
3.5631e-09
-1.727e-09
7.31182e-09
-1.33117e-08
3.56348e-09
3.74493e-09
-9.03542e-09
2.06045e-09
-3.97717e-09
5.4802e-09
-6.34338e-09
2.34341e-09
3.4742e-09
-8.52891e-09
-3.48448e-09
-7.50559e-09
4.44937e-09
7.1255e-09
-8.03839e-09
-1.94699e-09
5.29577e-10
9.2424e-09
2.33438e-09