/*--------------------------------*- C++ -*----------------------------------*\
| =========                 |                                                 |
| \\      /  F ield         | OpenFOAM: The Open Source CFD Toolbox           |
|  \\    /   O peration     | Version:  v1612+                                |
|   \\  /    A nd           | Web:      www.OpenFOAM.com                      |
|    \\/     M anipulation  |                                                 |
\*---------------------------------------------------------------------------*/
FoamFile
{
    version     2.0;
    format      ascii;
    class       volScalarField;
    location    "100";
    object      p;
}
// * * * * * * * * * * * * * * * * * * * * * * * * * * * * * * * * * * * * * //

dimensions      [0 2 -2 0 0 0 0];

internalField   nonuniform List<scalar> 
21122
(
1.72116
1.77027
1.76963
1.74137
1.75589
1.72781
1.71447
1.74397
1.73996
1.79011
1.72975
1.64242
1.64663
1.76006
1.70467
1.73245
1.77373
1.69204
1.67551
1.66389
1.75536
1.69584
1.79754
1.71687
1.67746
1.64996
1.79547
1.7841
1.74079
1.6715
1.74382
1.72085
1.72497
1.69089
1.77832
1.73757
1.74085
1.74953
1.70255
1.6284
1.78326
1.71707
1.76046
1.72589
1.74691
1.7232
1.72317
1.72559
1.77684
1.70842
1.69131
1.72881
1.76463
1.76144
1.75299
1.74003
1.7255
1.72444
1.64264
1.70183
1.71768
1.78411
1.73826
1.74465
1.75987
1.80018
1.74453
1.76607
1.79151
1.75709
1.67997
1.76902
1.76453
1.74174
1.75663
1.76933
1.7545
1.7179
1.73843
1.63556
1.74881
1.68652
1.75696
1.72985
1.76846
1.77288
1.76125
1.76567
1.76439
1.68521
1.72759
1.72312
1.67908
1.7446
1.77735
1.76378
1.73285
1.7234
1.7493
1.74349
1.74492
1.71451
1.69688
1.70507
1.70307
1.71606
1.70095
1.71424
1.7655
1.73916
1.7424
1.74544
1.75581
1.66243
1.68384
1.75349
1.74808
1.7522
1.68846
1.68428
1.68325
1.69632
1.62006
1.73613
1.62337
1.63201
1.63129
1.61244
1.62078
1.64257
1.62735
1.65094
1.71131
1.73013
1.71565
1.72322
1.72383
1.72709
1.77049
1.76746
1.76625
1.76428
1.76076
1.75876
1.79696
1.70843
1.76785
1.7831
1.74504
1.68582
1.79792
1.66769
1.69878
1.75014
1.76513
1.76841
1.77346
1.75334
1.75195
1.75807
1.67254
1.76608
1.76683
1.72033
1.68963
1.75329
1.70472
1.7068
1.74197
1.73618
1.73942
1.73122
1.73254
1.72165
1.72801
1.70109
1.71132
1.73304
1.65308
1.64289
1.79186
1.79065
1.71494
1.75499
1.74962
1.7456
1.74363
1.74038
1.74168
1.74496
1.69682
1.68938
1.69926
1.7081
1.6924
1.69281
1.69468
1.753
1.75214
1.74441
1.73833
1.63974
1.63621
1.64721
1.77727
1.75599
1.75502
1.73342
1.7348
1.71713
1.78577
1.74227
1.69619
1.70634
1.68615
1.70011
1.75602
1.76125
1.75595
1.78371
1.79782
1.79255
1.74103
1.73817
1.75271
1.75908
1.76065
1.69189
1.67696
1.7284
1.73057
1.6777
1.67381
1.76522
1.76144
1.74893
1.74768
1.75922
1.75411
1.67671
1.68264
1.65744
1.68923
1.77762
1.77535
1.70647
1.72497
1.71555
1.72325
1.73917
1.73143
1.70472
1.697
1.71563
1.76038
1.75587
1.76856
1.76424
1.75831
1.76434
1.79963
1.79213
1.79464
1.77528
1.74839
1.752
1.74744
1.6603
1.66261
1.70908
1.73927
1.64134
1.75726
1.75476
1.76591
1.77575
1.63864
1.62084
1.77474
1.7898
1.74702
1.74231
1.75284
1.66377
1.78151
1.74237
1.74542
1.68165
1.70649
1.71136
1.78947
1.70223
1.68518
1.70376
1.76382
1.79726
1.76494
1.67627
1.73533
1.74815
1.76749
1.75673
1.68281
1.6802
1.74397
1.756
1.6508
1.7482
1.806
1.65134
1.65149
1.64844
1.74752
1.74402
1.67334
1.68599
1.68973
1.69316
1.69819
1.70817
1.70577
1.80713
1.79273
1.78503
1.64783
1.66465
1.72346
1.73217
1.71622
1.77815
1.77443
1.74598
1.68527
1.7069
1.72362
1.69671
1.73447
1.76901
1.77074
1.76428
1.75673
1.70122
1.68047
1.69099
1.69596
1.75991
1.76026
1.74975
1.76012
1.75932
1.78941
1.76688
1.72138
1.6236
1.623
1.6523
1.66502
1.61211
1.72245
1.74273
1.73763
1.74135
1.78547
1.63123
1.63369
1.62781
1.74581
1.73984
1.7387
1.68439
1.78675
1.7781
1.78129
1.78361
1.77573
1.71012
1.71593
1.71872
1.68757
1.72758
1.73841
1.74082
1.75978
1.70696
1.70771
1.70772
1.68724
1.7629
1.7788
1.75855
1.77919
1.79171
1.75199
1.71383
1.71036
1.69079
1.62866
1.72324
1.71936
1.78651
1.75985
1.76263
1.75819
1.77197
1.75558
1.73707
1.71776
1.7331
1.73489
1.76724
1.70207
1.76785
1.77624
1.70408
1.71326
1.7447
1.69169
1.75464
1.72727
1.70718
1.73989
1.76711
1.76244
1.76032
1.71185
1.76307
1.75873
1.66736
1.6997
1.69668
1.75822
1.75475
1.75927
1.75369
1.71309
1.70663
1.72314
1.74457
1.75062
1.74654
1.73873
1.74826
1.76016
1.72596
1.72677
1.77741
1.76745
1.77085
1.78241
1.75741
1.7359
1.80339
1.74678
1.75245
1.66558
1.75057
1.74402
1.74923
1.71559
1.72809
1.72422
1.78151
1.78662
1.77559
1.77463
1.78803
1.70689
1.70323
1.75401
1.75403
1.64823
1.64207
1.61231
1.62351
1.61308
1.657
1.76123
1.69868
1.69794
1.71212
1.7117
1.71302
1.70481
1.65152
1.67078
1.68344
1.69685
1.75369
1.74714
1.75185
1.65145
1.62975
1.73209
1.7274
1.74225
1.73264
1.73644
1.68038
1.76206
1.76967
1.6599
1.75042
1.74588
1.76889
1.78233
1.74537
1.67466
1.72763
1.66438
1.66326
1.65919
1.69337
1.75211
1.68648
1.7057
1.73391
1.71683
1.75142
1.75444
1.75852
1.75017
1.67405
1.75655
1.66506
1.66317
1.67462
1.67506
1.73054
1.72747
1.76064
1.75474
1.75466
1.66957
1.73637
1.744
1.75718
1.74182
1.66061
1.73167
1.69124
1.74344
1.68877
1.73834
1.72267
1.73273
1.72347
1.79133
1.65171
1.64451
1.64041
1.65732
1.75934
1.76004
1.64268
1.76071
1.77089
1.70465
1.72333
1.61718
1.61935
1.73204
1.76425
1.76073
1.75957
1.75618
1.74294
1.73095
1.75378
1.75191
1.76436
1.64395
1.76015
1.75015
1.74032
1.77096
1.77399
1.7601
1.7264
1.72303
1.7419
1.73742
1.69459
1.68731
1.6878
1.68143
1.68787
1.76716
1.76074
1.77362
1.76234
1.72799
1.68369
1.69445
1.68779
1.69022
1.73823
1.75499
1.7559
1.70664
1.77683
1.7738
1.77764
1.62216
1.77609
1.76771
1.76953
1.7726
1.75223
1.71068
1.77261
1.70028
1.67506
1.73549
1.7322
1.75578
1.70668
1.77372
1.72275
1.63839
1.73777
1.75189
1.75788
1.74804
1.75439
1.74542
1.70175
1.72339
1.72679
1.74
1.65208
1.7373
1.77453
1.68464
1.70198
1.69215
1.79897
1.80192
1.71244
1.63868
1.63369
1.69989
1.70441
1.73344
1.73591
1.76764
1.76852
1.78824
1.79231
1.78258
1.7754
1.80413
1.78619
1.78999
1.71747
1.6277
1.69785
1.78204
1.79606
1.64795
1.73511
1.75654
1.69293
1.68307
1.75385
1.73927
1.78979
1.75523
1.7588
1.73608
1.6457
1.70943
1.73197
1.68758
1.74725
1.71087
1.75077
1.72514
1.75033
1.72254
1.73494
1.74607
1.78302
1.7702
1.78194
1.79748
1.77622
1.77289
1.75707
1.74592
1.74443
1.69897
1.70686
1.69994
1.68894
1.69714
1.71163
1.77292
1.76593
1.75973
1.78121
1.75932
1.64141
1.71044
1.67503
1.6829
1.70536
1.69336
1.62637
1.68985
1.71083
1.69688
1.63477
1.66418
1.64938
1.73123
1.7139
1.65675
1.6976
1.68871
1.67611
1.7362
1.74722
1.72026
1.75508
1.72353
1.73523
1.73634
1.75608
1.75416
1.75544
1.74919
1.71982
1.71073
1.74364
1.74082
1.70673
1.7124
1.7572
1.77255
1.7486
1.76406
1.7606
1.7607
1.76305
1.7649
1.77365
1.77415
1.76596
1.78115
1.77532
1.74105
1.7581
1.72531
1.70787
1.72927
1.73655
1.71251
1.70563
1.72403
1.74116
1.74087
1.73931
1.73612
1.73278
1.69687
1.73076
1.71846
1.70693
1.71988
1.72565
1.68088
1.68442
1.70231
1.72608
1.75131
1.78096
1.7723
1.76187
1.73398
1.73796
1.7669
1.75109
1.77026
1.76805
1.74672
1.6229
1.62166
1.63166
1.61901
1.6274
1.67798
1.67172
1.69396
1.64815
1.6612
1.64475
1.64571
1.72551
1.70899
1.71571
1.74638
1.73522
1.71096
1.73992
1.73848
1.71867
1.73513
1.74573
1.71502
1.66887
1.66607
1.69482
1.63228
1.68516
1.75122
1.73084
1.72766
1.71683
1.67626
1.71583
1.6942
1.6979
1.71089
1.6928
1.74042
1.70839
1.72827
1.69634
1.72442
1.71762
1.78811
1.76894
1.7752
1.78564
1.7613
1.75118
1.76733
1.76676
1.75194
1.77302
1.76657
1.72704
1.74594
1.75567
1.74742
1.75091
1.74424
1.75104
1.7446
1.72305
1.71298
1.71734
1.75059
1.75452
1.69281
1.68126
1.68464
1.68159
1.69422
1.68966
1.67809
1.65036
1.66109
1.66364
1.66768
1.6608
1.68543
1.66795
1.68441
1.66979
1.6752
1.67768
1.74683
1.75593
1.7581
1.75651
1.74505
1.74749
1.75606
1.75859
1.7534
1.75586
1.75175
1.74519
1.75613
1.74565
1.75708
1.75208
1.76058
1.78873
1.75992
1.74654
1.73697
1.72013
1.72288
1.7404
1.74864
1.73537
1.72978
1.72329
1.74213
1.74469
1.7512
1.74841
1.74138
1.74615
1.73406
1.74463
1.75295
1.74709
1.64638
1.63893
1.6576
1.64715
1.64609
1.64301
1.64761
1.73507
1.72192
1.74727
1.71199
1.74173
1.71725
1.75366
1.74422
1.65586
1.68458
1.65855
1.69515
1.67325
1.67526
1.67096
1.70279
1.67912
1.74216
1.74026
1.75192
1.7495
1.74323
1.74023
1.74457
1.78673
1.78255
1.7766
1.77261
1.7744
1.75241
1.72762
1.75324
1.75543
1.70583
1.71934
1.71446
1.69159
1.70862
1.70363
1.70642
1.70537
1.76081
1.74219
1.75214
1.75858
1.75384
1.74942
1.74476
1.73539
1.73113
1.72877
1.74222
1.74036
1.73179
1.7388
1.75216
1.74571
1.74198
1.74759
1.75528
1.73871
1.7364
1.72302
1.71386
1.72736
1.72094
1.72077
1.72921
1.75323
1.74777
1.72817
1.73607
1.74551
1.74639
1.735
1.73224
1.74526
1.72398
1.73391
1.72812
1.73152
1.73078
1.79543
1.79056
1.78965
1.79932
1.79349
1.8023
1.78229
1.77096
1.7704
1.75436
1.76978
1.76187
1.76328
1.76675
1.77805
1.78622
1.78375
1.78605
1.80019
1.78477
1.78831
1.78396
1.78875
1.78419
1.78262
1.79369
1.78906
1.7873
1.79037
1.77475
1.77435
1.78366
1.77834
1.78013
1.78493
1.74257
1.75003
1.74918
1.7544
1.74201
1.74432
1.75221
1.74349
1.75126
1.75281
1.76978
1.76025
1.74444
1.75947
1.75565
1.75753
1.75472
1.75774
1.67179
1.69602
1.68389
1.68733
1.68309
1.68605
1.6851
1.6854
1.719
1.70452
1.72679
1.71957
1.72293
1.71983
1.72298
1.69902
1.72239
1.70865
1.70838
1.71013
1.69846
1.68041
1.70194
1.69359
1.68537
1.68522
1.70133
1.68044
1.68815
1.68786
1.69032
1.71037
1.721
1.70529
1.70646
1.71434
1.71791
1.70348
1.76882
1.7818
1.78942
1.74547
1.76479
1.75123
1.75587
1.75236
1.7563
1.75267
1.76922
1.76001
1.76605
1.77187
1.77362
1.78184
1.77688
1.77018
1.7696
1.75522
1.75316
1.76816
1.76681
1.75566
1.75597
1.76602
1.63502
1.66021
1.64472
1.63787
1.65279
1.62653
1.65027
1.62892
1.7072
1.7087
1.72536
1.70938
1.71742
1.71401
1.71591
1.67203
1.69044
1.66761
1.68067
1.6784
1.6843
1.68076
1.69819
1.69458
1.69339
1.70604
1.7138
1.69129
1.70428
1.7022
1.70595
1.69956
1.69116
1.68677
1.68443
1.69343
1.70716
1.65968
1.66327
1.65335
1.64175
1.67791
1.67004
1.6586
1.6729
1.67475
1.66121
1.678
1.70586
1.70802
1.71237
1.71227
1.72542
1.71084
1.72099
1.71946
1.71533
1.70174
1.69171
1.69503
1.69359
1.69848
1.69122
1.69959
1.6957
1.70555
1.70911
1.70887
1.70815
1.68829
1.70605
1.70162
1.7112
1.70011
1.70499
1.69934
1.71028
1.70515
1.70311
1.66873
1.68044
1.67477
1.67327
1.66686
1.67797
1.66953
1.67497
1.69337
1.76774
1.76503
1.76203
1.72034
1.72726
1.71193
1.69022
1.69857
1.6628
1.6864
1.67745
1.68037
1.68243
1.71504
1.69933
1.69429
1.70269
1.69581
1.69751
1.71645
1.70989
1.70577
1.67047
1.65951
1.68545
1.68864
1.72366
1.73454
1.72381
1.73718
1.73713
1.73278
1.73989
1.73988
1.70861
1.71987
1.69315
1.70857
1.7015
1.70444
1.70493
1.73348
1.75237
1.7346
1.73902
1.745
1.74366
1.73425
1.71251
1.73324
1.72866
1.72823
1.74466
1.73282
1.73485
1.72207
1.73045
1.71834
1.73535
1.715
1.71976
1.72728
1.75361
1.75594
1.75792
1.76092
1.752
1.75045
1.75849
1.76515
1.75539
1.75843
1.75905
1.76285
1.75812
1.75508
1.7543
1.74739
1.74289
1.74088
1.73237
1.7118
1.7312
1.6915
1.68916
1.68435
1.69234
1.70253
1.70829
1.68862
1.73223
1.72843
1.75496
1.74939
1.73598
1.73413
1.76254
1.71603
1.73394
1.74984
1.73566
1.73549
1.73862
1.73699
1.73407
1.70536
1.74637
1.72509
1.724
1.72466
1.73073
1.73771
1.71776
1.70487
1.72206
1.71876
1.71619
1.72471
1.73184
1.75719
1.75094
1.74006
1.74449
1.74922
1.73477
1.80233
1.80257
1.77721
1.76117
1.76312
1.75866
1.76336
1.74949
1.74376
1.75408
1.74959
1.74956
1.75653
1.75574
1.76425
1.7601
1.76781
1.75453
1.75861
1.76586
1.77346
1.76573
1.76966
1.77074
1.7729
1.76244
1.76239
1.76218
1.75266
1.76016
1.77114
1.76726
1.75876
1.75886
1.76726
1.76066
1.75674
1.77065
1.76137
1.76883
1.76162
1.75683
1.78036
1.75692
1.7731
1.75447
1.76109
1.75605
1.76
1.75761
1.7792
1.78123
1.77355
1.76434
1.75845
1.77618
1.76889
1.77212
1.76027
1.77494
1.77005
1.77189
1.75762
1.77648
1.76458
1.76598
1.77017
1.77227
1.75691
1.74347
1.74079
1.74837
1.74683
1.74227
1.75118
1.74862
1.74607
1.75671
1.74792
1.76227
1.75705
1.74686
1.75568
1.76717
1.75812
1.75346
1.75434
1.7569
1.71538
1.71901
1.73464
1.72695
1.72179
1.72286
1.72661
1.71539
1.73143
1.72322
1.72558
1.71136
1.71832
1.71705
1.71586
1.73974
1.7389
1.74272
1.7339
1.73593
1.73163
1.72901
1.7382
1.73632
1.72565
1.74297
1.74031
1.7495
1.71892
1.73635
1.72553
1.74856
1.74875
1.73961
1.73044
1.73538
1.72071
1.73343
1.72739
1.72064
1.72757
1.73374
1.73134
1.73521
1.72998
1.7141
1.72736
1.72677
1.72713
1.72532
1.72808
1.71053
1.71775
1.71085
1.71598
1.71851
1.72931
1.73903
1.73372
1.72083
1.71575
1.72348
1.72834
1.72394
1.7239
1.73137
1.74428
1.73814
1.74595
1.74007
1.72715
1.74146
1.73917
1.73387
1.73468
1.73582
1.72956
1.73172
1.72581
1.73462
1.7253
1.72379
1.74611
1.73836
1.73361
1.74512
1.74013
1.73171
1.73906
1.73632
1.72657
1.72441
1.73779
1.7329
1.73052
1.73044
1.73278
1.73586
1.74326
1.73842
1.70755
1.70291
1.68282
1.69654
1.69931
1.70054
1.69604
1.70707
1.69735
1.71361
1.72226
1.73795
1.72886
1.7247
1.72493
1.72815
1.73322
1.72051
1.72449
1.73367
1.72308
1.70834
1.69757
1.71015
1.70834
1.70034
1.69952
1.71299
1.70272
1.71416
1.71075
1.70944
1.72184
1.73149
1.71364
1.71664
1.72439
1.72718
1.71501
1.69174
1.6778
1.67479
1.66699
1.66841
1.66936
1.69398
1.6499
1.68643
1.67114
1.67607
1.6815
1.65545
1.67344
1.68107
1.68409
1.70909
1.73419
1.74181
1.74012
1.69504
1.70855
1.68509
1.69007
1.69654
1.70059
1.68866
1.72912
1.71706
1.7203
1.69591
1.72744
1.71452
1.71088
1.69048
1.69613
1.70503
1.69502
1.69905
1.70736
1.68021
1.68116
1.67917
1.67281
1.67746
1.68868
1.69361
1.68177
1.68039
1.69488
1.69743
1.68928
1.77571
1.7867
1.78558
1.76833
1.75982
1.74465
1.75464
1.75798
1.75853
1.75487
1.76829
1.76922
1.75472
1.76869
1.75845
1.76601
1.7657
1.78762
1.77335
1.77511
1.7857
1.78432
1.77333
1.76884
1.78552
1.77817
1.77981
1.77597
1.76165
1.75433
1.77034
1.76711
1.76071
1.75709
1.76986
1.74163
1.7395
1.73388
1.7263
1.73962
1.73637
1.72984
1.72782
1.7402
1.73572
1.73625
1.73941
1.73596
1.73233
1.73464
1.72432
1.73729
1.73202
1.72703
1.72853
1.73971
1.74126
1.73407
1.73524
1.73907
1.72837
1.74509
1.75991
1.75288
1.77803
1.77905
1.78201
1.76904
1.76931
1.78152
1.74859
1.75836
1.74298
1.7451
1.75415
1.7555
1.7432
1.7447
1.75785
1.75651
1.75485
1.76426
1.75317
1.75444
1.76202
1.75977
1.74972
1.76706
1.76768
1.767
1.75873
1.745
1.74262
1.7489
1.74729
1.7477
1.749
1.60884
1.62265
1.63478
1.62748
1.61499
1.63428
1.63823
1.61585
1.62722
1.63192
1.60513
1.61637
1.62193
1.60052
1.61595
1.66613
1.65763
1.65484
1.66931
1.67761
1.66808
1.66556
1.67672
1.68049
1.66391
1.69647
1.66609
1.67696
1.66091
1.68729
1.66629
1.66791
1.70189
1.67922
1.66271
1.65473
1.66746
1.66687
1.65076
1.65924
1.63952
1.66524
1.65329
1.65043
1.64642
1.6462
1.65434
1.63287
1.63838
1.62697
1.64235
1.64378
1.63207
1.77179
1.72383
1.71632
1.73646
1.73446
1.72222
1.72198
1.73539
1.71556
1.72671
1.72124
1.72888
1.72941
1.73169
1.74854
1.75642
1.73956
1.74361
1.74891
1.75149
1.73998
1.77308
1.74038
1.75686
1.75424
1.75132
1.75871
1.74168
1.74162
1.70479
1.70462
1.69276
1.70744
1.69223
1.69458
1.70407
1.74039
1.74835
1.74608
1.75122
1.74138
1.7424
1.75689
1.72453
1.74155
1.73794
1.72898
1.73556
1.739
1.72718
1.74477
1.73032
1.72022
1.7251
1.74832
1.7296
1.72879
1.70912
1.72837
1.71987
1.72626
1.71198
1.71771
1.72203
1.71764
1.74535
1.73309
1.73083
1.72848
1.73442
1.72602
1.74012
1.72583
1.70994
1.72176
1.72435
1.72391
1.72328
1.66007
1.67993
1.66927
1.65762
1.67202
1.67534
1.65463
1.64324
1.6282
1.65297
1.65323
1.63241
1.67732
1.64326
1.63577
1.65091
1.65193
1.64873
1.65545
1.69165
1.6452
1.672
1.6698
1.65976
1.65622
1.66537
1.65616
1.69611
1.70403
1.66585
1.67758
1.68196
1.74383
1.73704
1.7391
1.74989
1.73779
1.70465
1.71572
1.73065
1.72542
1.74102
1.74012
1.70908
1.72499
1.73832
1.73574
1.72946
1.73107
1.7637
1.73691
1.74117
1.73913
1.74034
1.70713
1.72072
1.7118
1.72222
1.70875
1.6873
1.67372
1.68701
1.68942
1.68789
1.68949
1.69198
1.68123
1.69713
1.67949
1.67661
1.69711
1.71785
1.72732
1.71559
1.71445
1.73196
1.72861
1.71205
1.67976
1.72381
1.70494
1.71487
1.70627
1.71011
1.6891
1.68332
1.71725
1.70586
1.69468
1.69095
1.70626
1.74624
1.74062
1.72782
1.70992
1.7213
1.72075
1.67562
1.70052
1.67486
1.67139
1.68138
1.66334
1.72225
1.73324
1.72829
1.7321
1.67373
1.70207
1.68816
1.6954
1.6796
1.68725
1.68901
1.72389
1.73636
1.72367
1.71926
1.73323
1.73941
1.71743
1.7042
1.6938
1.67271
1.69932
1.68035
1.68179
1.69934
1.72958
1.74039
1.70493
1.71439
1.72808
1.73154
1.71071
1.70755
1.7189
1.68168
1.70624
1.69569
1.70017
1.70069
1.78312
1.78863
1.79263
1.80802
1.7926
1.76873
1.76675
1.75539
1.76926
1.76015
1.76023
1.76648
1.78119
1.78256
1.77685
1.78298
1.7769
1.78252
1.79128
1.78615
1.77915
1.77254
1.77225
1.77824
1.78149
1.78011
1.77415
1.77717
1.78331
1.73825
1.74579
1.74158
1.74288
1.75869
1.76239
1.75449
1.75788
1.74317
1.75583
1.75119
1.75629
1.74379
1.74784
1.75368
1.75804
1.76338
1.76767
1.76905
1.74765
1.74007
1.75051
1.75507
1.76283
1.75137
1.76127
1.75514
1.76075
1.75446
1.76021
1.74636
1.76301
1.75585
1.76421
1.75491
1.77649
1.76974
1.76005
1.74401
1.75307
1.75773
1.75697
1.75354
1.76172
1.74785
1.76089
1.77635
1.77103
1.76699
1.75678
1.76035
1.75857
1.71906
1.7093
1.76346
1.72797
1.7401
1.7314
1.73052
1.73476
1.73204
1.73165
1.79083
1.79316
1.79412
1.79095
1.70209
1.70084
1.70822
1.70745
1.70797
1.70802
1.7113
1.7751
1.7678
1.77004
1.69813
1.6974
1.68522
1.6918
1.68519
1.69222
1.6871
1.65602
1.6978
1.68839
1.69513
1.68568
1.69461
1.68893
1.68968
1.75352
1.74908
1.75587
1.75904
1.76389
1.75302
1.73523
1.73065
1.74337
1.73871
1.74251
1.73685
1.73844
1.7365
1.79065
1.80458
1.75048
1.7509
1.725
1.73131
1.72921
1.76773
1.76117
1.76425
1.76006
1.76409
1.76599
1.76139
1.64976
1.65619
1.6356
1.64904
1.65069
1.65283
1.64616
1.6595
1.74151
1.73432
1.72575
1.73081
1.68431
1.70283
1.75142
1.75955
1.74632
1.74807
1.74766
1.75026
1.75086
1.69964
1.70977
1.70749
1.70996
1.70241
1.70694
1.70518
1.74929
1.75009
1.74301
1.75099
1.7515
1.74812
1.74806
1.72326
1.72563
1.71541
1.72262
1.72129
1.72517
1.71843
1.74711
1.74108
1.74784
1.75056
1.74649
1.74481
1.74847
1.7177
1.72877
1.72211
1.7261
1.72135
1.72517
1.7203
1.7264
1.73235
1.72413
1.7325
1.72776
1.73095
1.72856
1.73507
1.73927
1.74642
1.74269
1.73803
1.73875
1.7416
1.7841
1.78427
1.77681
1.78364
1.7842
1.78482
1.78096
1.77452
1.77953
1.78228
1.78169
1.78251
1.78174
1.76196
1.76982
1.76941
1.77054
1.76546
1.76872
1.76843
1.77748
1.78656
1.77812
1.78236
1.77661
1.78233
1.77754
1.7926
1.79134
1.80453
1.79525
1.78726
1.79193
1.7932
1.77484
1.78388
1.77556
1.78066
1.777
1.778
1.77464
1.77273
1.77264
1.77552
1.74605
1.75705
1.75731
1.76489
1.75985
1.7598
1.75708
1.76171
1.74425
1.75147
1.74546
1.74544
1.74605
1.75017
1.74487
1.75167
1.75233
1.74443
1.74878
1.75072
1.75072
1.74921
1.69278
1.68935
1.70142
1.69811
1.69628
1.69593
1.699
1.69875
1.70336
1.69923
1.71845
1.71671
1.70997
1.71282
1.71595
1.71548
1.71296
1.7067
1.69649
1.70605
1.70605
1.70804
1.6994
1.69709
1.69669
1.69245
1.69848
1.692
1.69525
1.69039
1.69639
1.69622
1.69542
1.69239
1.69693
1.68604
1.70435
1.70345
1.71048
1.70868
1.70384
1.70098
1.70918
1.78241
1.78115
1.77489
1.77639
1.77955
1.77988
1.77569
1.78279
1.75916
1.75731
1.76702
1.76465
1.76101
1.7612
1.76454
1.75388
1.77168
1.77457
1.77072
1.77517
1.7727
1.77531
1.77555
1.77564
1.76846
1.76714
1.7592
1.76468
1.76839
1.76401
1.76623
1.65412
1.65293
1.61216
1.61325
1.61532
1.71922
1.71072
1.71498
1.71109
1.71874
1.71242
1.71127
1.68873
1.68234
1.68186
1.6865
1.70841
1.70922
1.69444
1.70857
1.70015
1.7033
1.69999
1.70422
1.70277
1.70582
1.70023
1.69404
1.69679
1.69565
1.6996
1.69951
1.68987
1.69251
1.70049
1.66042
1.64619
1.64875
1.64884
1.66048
1.65714
1.64091
1.63274
1.62874
1.66132
1.65192
1.65984
1.66384
1.67922
1.6876
1.685
1.69856
1.69886
1.71731
1.7093
1.70926
1.71062
1.71479
1.71206
1.71149
1.68839
1.70853
1.70194
1.71087
1.7127
1.70726
1.70856
1.71081
1.70464
1.71111
1.703
1.70812
1.69599
1.63504
1.66951
1.65581
1.67438
1.67626
1.68774
1.67486
1.68919
1.66135
1.65356
1.66471
1.7587
1.77009
1.75498
1.72549
1.72812
1.70382
1.69947
1.71544
1.70459
1.70317
1.70853
1.64473
1.64969
1.6399
1.67956
1.69272
1.69722
1.69415
1.68685
1.69038
1.69114
1.69272
1.69313
1.69142
1.6983
1.68885
1.68915
1.69365
1.68485
1.69236
1.68588
1.68953
1.75322
1.74794
1.74913
1.75771
1.75994
1.75262
1.70653
1.7142
1.72032
1.7168
1.71131
1.71302
1.71499
1.73962
1.73825
1.74843
1.74515
1.74061
1.74566
1.74316
1.71883
1.72691
1.72014
1.72291
1.72034
1.72177
1.7229
1.72917
1.7323
1.72419
1.73252
1.73066
1.73887
1.72892
1.73114
1.73376
1.73921
1.73772
1.73319
1.73321
1.7417
1.7488
1.75806
1.76001
1.75871
1.75034
1.74646
1.74268
1.75969
1.74423
1.74329
1.75237
1.74576
1.75139
1.75934
1.76298
1.76443
1.76349
1.75743
1.71659
1.70618
1.71395
1.71861
1.72479
1.70714
1.71684
1.70308
1.71065
1.70868
1.7129
1.70962
1.71416
1.7554
1.75721
1.76196
1.75062
1.75915
1.75245
1.75045
1.74985
1.73866
1.75479
1.7464
1.74845
1.74273
1.74415
1.71956
1.7225
1.70764
1.71439
1.71831
1.71837
1.71092
1.70631
1.72207
1.70733
1.71228
1.71105
1.71517
1.70817
1.74701
1.74413
1.75151
1.749
1.74334
1.74317
1.74586
1.79948
1.79928
1.79957
1.80077
1.80115
1.77747
1.76177
1.76916
1.75935
1.76463
1.76234
1.74562
1.75517
1.74718
1.75197
1.74834
1.75116
1.74605
1.7666
1.76327
1.76031
1.76075
1.7542
1.76481
1.7636
1.7597
1.76046
1.76492
1.76755
1.75647
1.76008
1.76095
1.75871
1.75558
1.773
1.76894
1.77413
1.76666
1.76746
1.77371
1.76202
1.76232
1.76542
1.76344
1.76047
1.75937
1.76927
1.76426
1.76623
1.77352
1.76972
1.7647
1.76452
1.76967
1.77685
1.76806
1.76358
1.77193
1.76929
1.76526
1.76807
1.77072
1.77028
1.77684
1.77906
1.77545
1.78904
1.77291
1.7821
1.77484
1.77008
1.77237
1.74173
1.74918
1.73934
1.74031
1.74328
1.747
1.73937
1.75781
1.75744
1.76212
1.75993
1.75564
1.75041
1.75091
1.75113
1.74445
1.76847
1.75973
1.76654
1.76299
1.76288
1.76012
1.76277
1.73505
1.72995
1.7363
1.72663
1.73019
1.72991
1.73075
1.73173
1.73041
1.70966
1.71095
1.70752
1.70191
1.70943
1.71883
1.71788
1.74674
1.7387
1.74473
1.72612
1.72911
1.72325
1.72479
1.7195
1.7272
1.72251
1.74315
1.7452
1.73766
1.74114
1.74488
1.72399
1.72826
1.7295
1.73344
1.7366
1.73733
1.73648
1.73875
1.73741
1.73745
1.71996
1.72149
1.71401
1.72056
1.72183
1.72102
1.72155
1.72379
1.73084
1.72772
1.72679
1.72483
1.72562
1.71844
1.71533
1.72276
1.7233
1.72313
1.71975
1.71993
1.7247
1.71105
1.72119
1.72174
1.7162
1.72708
1.74027
1.74073
1.74149
1.73774
1.74096
1.73884
1.73713
1.74654
1.74365
1.74602
1.73982
1.7335
1.74034
1.73664
1.73681
1.73509
1.7403
1.73257
1.73243
1.7392
1.73527
1.73184
1.73596
1.73752
1.73059
1.73446
1.73387
1.73677
1.73626
1.72966
1.73117
1.73734
1.73863
1.73305
1.73963
1.73721
1.7372
1.73607
1.73746
1.68593
1.69241
1.69553
1.6925
1.69427
1.69216
1.73907
1.73185
1.74013
1.73467
1.73705
1.73423
1.7381
1.72717
1.71807
1.72152
1.71875
1.72197
1.71713
1.72507
1.71253
1.71324
1.71353
1.70913
1.71322
1.71011
1.7081
1.71035
1.71568
1.71619
1.71334
1.70993
1.71031
1.71312
1.71651
1.71587
1.72061
1.72218
1.71782
1.72052
1.72014
1.68264
1.67915
1.68999
1.68368
1.68472
1.68263
1.68698
1.68274
1.66428
1.68328
1.67788
1.6833
1.68346
1.67802
1.69273
1.65584
1.66947
1.66202
1.69023
1.68825
1.69836
1.69926
1.69327
1.69498
1.69602
1.70535
1.71
1.71984
1.71388
1.70957
1.72092
1.71262
1.71712
1.71611
1.71577
1.72077
1.70009
1.69916
1.6894
1.69685
1.68621
1.67805
1.68426
1.78059
1.74444
1.75212
1.74395
1.74982
1.74702
1.74959
1.74694
1.76171
1.76947
1.76474
1.76575
1.77344
1.77265
1.77306
1.77649
1.77391
1.77792
1.77578
1.77992
1.77375
1.77347
1.77144
1.77656
1.77452
1.77788
1.76937
1.76434
1.76846
1.78563
1.77543
1.73156
1.72009
1.73973
1.7391
1.73996
1.73565
1.7398
1.73772
1.73657
1.73717
1.73622
1.73421
1.72527
1.73117
1.71921
1.72926
1.72191
1.72347
1.72084
1.71377
1.72637
1.71767
1.71915
1.72639
1.72761
1.72026
1.74475
1.73608
1.74046
1.75398
1.7574
1.75918
1.77024
1.76883
1.74407
1.7435
1.74484
1.74842
1.74496
1.74851
1.74718
1.76265
1.76187
1.76935
1.76587
1.76033
1.76161
1.76426
1.76794
1.76123
1.76923
1.77303
1.76655
1.76544
1.77305
1.73764
1.76225
1.74084
1.76121
1.76856
1.75629
1.64309
1.62876
1.63728
1.63259
1.62993
1.62282
1.6265
1.62241
1.61163
1.61569
1.61252
1.60847
1.67518
1.66639
1.66233
1.66171
1.66969
1.66451
1.6592
1.66599
1.66583
1.67806
1.68926
1.68867
1.68508
1.68211
1.69209
1.69575
1.69416
1.68995
1.68902
1.6572
1.65185
1.64524
1.64023
1.64561
1.63034
1.64434
1.6443
1.62813
1.65741
1.66408
1.65097
1.65843
1.66246
1.6133
1.63787
1.62365
1.63572
1.63035
1.62716
1.77884
1.73598
1.73523
1.73281
1.72896
1.73563
1.72926
1.73449
1.73589
1.71967
1.7093
1.71376
1.7173
1.71425
1.71995
1.73642
1.74157
1.73191
1.74023
1.73902
1.73927
1.74466
1.7403
1.73709
1.74467
1.76248
1.70486
1.71233
1.71761
1.71271
1.70857
1.71008
1.71284
1.74373
1.74616
1.74821
1.74756
1.73672
1.72828
1.73521
1.7339
1.73553
1.73238
1.73579
1.71469
1.72034
1.7086
1.71897
1.71351
1.71864
1.71239
1.73091
1.73046
1.74216
1.73685
1.73498
1.73165
1.73816
1.73948
1.73397
1.74639
1.74203
1.7383
1.73741
1.74321
1.70797
1.7194
1.70677
1.71235
1.70921
1.7133
1.70864
1.66469
1.65458
1.65896
1.6605
1.65971
1.65862
1.66229
1.69153
1.67549
1.69636
1.68897
1.68826
1.68393
1.69266
1.63516
1.67285
1.6703
1.69035
1.68422
1.67789
1.67401
1.68574
1.69692
1.70463
1.75891
1.7469
1.75816
1.74998
1.74246
1.76145
1.73102
1.72287
1.72465
1.72614
1.73555
1.71935
1.72403
1.70517
1.74132
1.71239
1.73317
1.71987
1.72482
1.72076
1.72882
1.72424
1.74588
1.73771
1.74567
1.73574
1.69815
1.69653
1.69924
1.66951
1.68384
1.66537
1.67455
1.67192
1.67648
1.66913
1.69697
1.70155
1.71096
1.70394
1.70174
1.70367
1.70198
1.7086
1.70781
1.70252
1.70948
1.70773
1.70949
1.71007
1.7146
1.70648
1.70135
1.70073
1.70813
1.71145
1.70136
1.71557
1.70581
1.7112
1.70509
1.71247
1.70678
1.71455
1.70802
1.70823
1.71267
1.72594
1.73056
1.73263
1.66779
1.6743
1.68629
1.68515
1.67411
1.67701
1.68633
1.75626
1.75382
1.74059
1.74389
1.74463
1.75128
1.7451
1.70117
1.69974
1.71489
1.70924
1.70558
1.70191
1.71087
1.72207
1.71608
1.71929
1.72781
1.72248
1.72255
1.72266
1.68507
1.70236
1.69803
1.7002
1.69463
1.69761
1.69472
1.70656
1.71184
1.70742
1.71541
1.70711
1.71224
1.71084
1.69802
1.71068
1.71451
1.71394
1.70463
1.70829
1.71218
1.78899
1.79904
1.78907
1.789
1.7923
1.76346
1.7702
1.76938
1.76998
1.768
1.77067
1.77129
1.78916
1.78675
1.77908
1.79155
1.77577
1.78087
1.7712
1.77929
1.77608
1.78325
1.78462
1.78166
1.78811
1.78431
1.7889
1.79119
1.78933
1.78655
1.78757
1.79982
1.79884
1.79633
1.79218
1.74891
1.73761
1.7344
1.76515
1.76149
1.76079
1.76075
1.76945
1.76456
1.76507
1.76162
1.76372
1.75874
1.76419
1.74623
1.7553
1.75005
1.75385
1.75084
1.74997
1.7488
1.75659
1.75864
1.75471
1.76182
1.75177
1.75962
1.75362
1.75149
1.76019
1.77482
1.73765
1.73759
1.75956
1.74436
1.75388
1.74261
1.74917
1.74517
1.7503
1.74688
1.76559
1.75901
1.77115
1.76914
1.76134
1.77788
1.76874
1.76138
1.7574
1.76472
1.76348
1.74226
1.74725
1.74255
1.74548
1.74676
1.74556
1.74622
1.73993
1.74477
1.74955
1.74482
1.74412
1.74871
1.76229
1.75394
1.74947
1.74063
1.73614
1.73939
1.73954
1.74218
1.73988
1.74477
1.74881
1.74961
1.74639
1.74551
1.75237
1.74325
1.75044
1.7408
1.74917
1.7446
1.74562
1.74292
1.74565
1.74856
1.74599
1.74539
1.742
1.74209
1.77537
1.79045
1.78387
1.7856
1.78494
1.79427
1.78482
1.78587
1.78944
1.78448
1.78287
1.78917
1.78161
1.78862
1.78909
1.78732
1.7451
1.74262
1.74312
1.75
1.74392
1.74508
1.74293
1.74749
1.74549
1.74556
1.74627
1.74618
1.75253
1.74525
1.75166
1.74874
1.75109
1.74941
1.72845
1.72677
1.73237
1.71909
1.72155
1.7287
1.72748
1.72383
1.72354
1.70599
1.70973
1.71762
1.71576
1.7
1.71148
1.71465
1.72053
1.72185
1.71465
1.70752
1.72134
1.70459
1.74806
1.74608
1.75159
1.763
1.7602
1.76465
1.74434
1.75068
1.75365
1.66925
1.69601
1.68819
1.69349
1.69554
1.70104
1.69496
1.6958
1.69487
1.69886
1.68731
1.68783
1.68358
1.68554
1.68617
1.6802
1.67702
1.6771
1.68358
1.67895
1.67959
1.67851
1.69098
1.6842
1.68303
1.6896
1.6829
1.68346
1.6833
1.69237
1.69064
1.69349
1.68542
1.68602
1.68757
1.68584
1.68899
1.68939
1.68111
1.69014
1.6889
1.6897
1.68164
1.68661
1.68597
1.68817
1.68661
1.68739
1.6418
1.64398
1.64624
1.66101
1.65286
1.66392
1.66492
1.66102
1.66903
1.66698
1.66255
1.66676
1.66626
1.66927
1.66131
1.64698
1.65827
1.65782
1.64929
1.66285
1.65432
1.6514
1.67485
1.65161
1.65019
1.66656
1.65683
1.66345
1.66424
1.66737
1.6518
1.65685
1.65986
1.66373
1.65509
1.69487
1.67876
1.69548
1.686
1.69067
1.68251
1.69254
1.68221
1.67907
1.67569
1.66978
1.6797
1.675
1.67294
1.67937
1.69319
1.68599
1.68723
1.68285
1.687
1.68257
1.6744
1.66702
1.66152
1.66723
1.67137
1.67018
1.66675
1.68131
1.69063
1.67432
1.68065
1.68137
1.68395
1.67756
1.67285
1.67952
1.66427
1.675
1.67466
1.67738
1.67182
1.742
1.74672
1.73398
1.74152
1.73813
1.74352
1.73609
1.75073
1.74672
1.75038
1.75052
1.7463
1.74362
1.74835
1.75949
1.75783
1.76222
1.7634
1.76201
1.76299
1.75181
1.75453
1.76459
1.75415
1.75355
1.75464
1.75309
1.75088
1.74116
1.74678
1.74755
1.75301
1.7465
1.74852
1.75125
1.7561
1.74222
1.7531
1.75182
1.75095
1.74806
1.7505
1.76017
1.75276
1.75859
1.75657
1.75407
1.75327
1.73461
1.74211
1.73923
1.74881
1.73294
1.74081
1.74408
1.74111
1.75101
1.72286
1.73335
1.74607
1.74162
1.74422
1.74078
1.74484
1.73581
1.75695
1.75038
1.75763
1.75812
1.75636
1.75619
1.75974
1.74405
1.75407
1.74517
1.75089
1.7486
1.75424
1.75071
1.756
1.76304
1.75876
1.74472
1.74373
1.74899
1.75002
1.74294
1.7453
1.74903
1.75661
1.75814
1.76367
1.74891
1.75617
1.75031
1.75421
1.75707
1.74363
1.75191
1.74677
1.74863
1.75058
1.75183
1.74582
1.7485
1.75435
1.74976
1.75214
1.75514
1.75443
1.79435
1.79638
1.79432
1.78801
1.79291
1.75859
1.74541
1.74939
1.74584
1.75445
1.75663
1.75271
1.77269
1.76603
1.77286
1.76248
1.7508
1.75789
1.75034
1.75951
1.75771
1.75363
1.76513
1.76267
1.74667
1.75322
1.77288
1.78484
1.78096
1.7777
1.78222
1.78338
1.78249
1.78071
1.77287
1.77129
1.78199
1.77684
1.77881
1.77952
1.77966
1.74932
1.7456
1.7581
1.76495
1.74917
1.75485
1.7469
1.75426
1.74803
1.75547
1.75683
1.73954
1.73748
1.7446
1.74326
1.74908
1.71274
1.70758
1.71271
1.72136
1.71859
1.72238
1.72305