/*--------------------------------*- C++ -*----------------------------------*\
| =========                 |                                                 |
| \\      /  F ield         | OpenFOAM: The Open Source CFD Toolbox           |
|  \\    /   O peration     | Version:  v1612+                                |
|   \\  /    A nd           | Web:      www.OpenFOAM.com                      |
|    \\/     M anipulation  |                                                 |
\*---------------------------------------------------------------------------*/
FoamFile
{
    version     2.0;
    format      ascii;
    class       surfaceScalarField;
    location    "100";
    object      phi;
}
// * * * * * * * * * * * * * * * * * * * * * * * * * * * * * * * * * * * * * //

dimensions      [0 3 -1 0 0 0 0];

internalField   nonuniform List<scalar> 
45577
(
1.0676e-09
3.80033e-10
-3.77859e-09
2.33096e-09
1.8965e-09
-4.64143e-09
2.85596e-09
-1.11023e-10
4.2501e-09
4.17699e-09
-2.70945e-09
-1.83594e-09
-1.33487e-09
3.11593e-09
5.48668e-11
-3.17985e-09
-8.36552e-10
3.89834e-09
1.18049e-10
1.01706e-09
5.31408e-09
-3.87293e-09
-2.45821e-09
-3.05124e-09
5.60196e-09
-2.57313e-09
2.2408e-11
-1.16832e-09
4.856e-09
2.13724e-10
-3.90142e-09
1.28417e-08
-2.32291e-09
-2.79141e-09
-7.72735e-09
-3.72069e-09
-7.39618e-11
-4.18969e-09
7.98435e-09
-3.60503e-09
3.54557e-09
-1.24867e-09
1.30813e-09
3.40346e-09
2.75407e-09
-1.36253e-08
7.46775e-09
4.29241e-09
-7.12665e-09
3.04655e-09
-2.12288e-10
-4.05496e-09
1.80843e-09
2.17934e-09
6.7167e-11
-4.85495e-09
1.0792e-09
-2.76836e-09
6.54414e-09
-3.0991e-09
6.26462e-09
-1.64857e-09
-1.51693e-09
8.75493e-09
6.35802e-09
-5.37457e-09
1.7245e-09
-4.02662e-09
1.19609e-09
1.10605e-09
3.10159e-09
-3.56363e-09
6.76379e-10
-2.14367e-10
5.98533e-10
2.99823e-09
-2.43759e-09
-1.15916e-09
-3.21335e-09
3.6454e-10
2.80665e-09
4.21853e-11
-1.75444e-09
-4.71019e-09
6.51646e-09
-5.18621e-11
6.62807e-09
-9.95807e-10
3.5547e-09
2.31701e-09
-1.82698e-09
-5.14067e-10
2.40529e-11
-3.22201e-09
-8.8494e-09
1.13025e-08
7.6888e-10
8.8238e-09
1.63645e-09
-7.0568e-09
6.67576e-09
-6.72931e-09
-1.35182e-10
1.88723e-10
-8.02021e-10
6.76144e-09
-2.50275e-09
-3.45666e-09
-6.96403e-09
-4.90308e-10
3.91164e-09
3.54273e-09
7.98858e-09
-8.91682e-09
9.56375e-09
-8.63549e-09
-1.42909e-09
2.38472e-09
-2.85907e-09
1.90342e-09
-1.51094e-09
-4.68232e-09
6.80404e-09
-6.10746e-10
6.53208e-09
-5.23657e-09
4.44792e-09
-5.74342e-09
-3.53598e-09
2.1989e-10
3.9741e-09
-6.57997e-10
-2.14882e-09
-6.68861e-10
2.66569e-09
1.51987e-10
-2.36724e-09
5.1376e-09
-8.29088e-09
5.52053e-09
1.12956e-08
-3.72575e-09
-2.55614e-09
-5.01376e-09
-3.75011e-09
2.84322e-09
1.22025e-08
-3.44056e-09
2.59689e-09
-8.39353e-10
1.68304e-09
-1.13474e-10
1.93426e-09
-1.74897e-09
-7.17954e-11
3.19028e-09
1.00045e-09
-3.87827e-09
-3.12458e-10
3.16301e-09
3.40969e-09
1.7316e-10
-6.74586e-09
-8.99773e-10
4.07338e-09
-3.49582e-09
3.22204e-10
5.73593e-09
-5.81176e-09
2.75326e-09
-2.67742e-09
-4.2062e-10
1.19622e-09
5.36294e-09
-6.13854e-09
8.64435e-09
5.07923e-09
-4.10209e-09
-9.62148e-09
-6.30724e-09
3.82221e-09
1.72245e-09
7.62574e-10
-2.89035e-09
4.05576e-09
6.15659e-10
-1.78107e-09
-5.80998e-09
1.53317e-09
2.52245e-09
1.75437e-09
-1.34748e-09
-2.95995e-09
5.26023e-09
-9.52804e-10
4.51541e-09
-3.37378e-09
4.24469e-10
-1.56608e-09
-4.59701e-09
-1.56669e-10
-7.4957e-10
5.50325e-09
-3.95669e-09
9.01034e-10
-3.52678e-09
6.58244e-09
7.14838e-09
-5.33915e-09
-1.24181e-10
-1.68504e-09
-4.64215e-09
-2.573e-10
5.42771e-09
-5.28255e-10
3.5843e-09
1.50637e-09
1.12565e-09
-6.21631e-09
3.38251e-09
8.07997e-10
6.51683e-11
-4.25567e-09
-2.07536e-09
-6.83549e-10
2.74429e-09
1.46339e-11
-2.33417e-09
2.1514e-09
-3.93025e-09
4.11312e-09
-3.39092e-09
-1.94814e-10
4.068e-09
-4.82239e-10
-1.25927e-09
4.41392e-09
7.10082e-10
-3.86473e-09
-6.06544e-10
6.895e-09
-4.85347e-09
-1.43498e-09
4.2295e-09
-3.89766e-10
4.73865e-09
-8.57837e-09
6.92143e-09
-4.72827e-09
-7.42605e-09
5.2329e-09
-1.70517e-09
4.33377e-09
-4.53466e-09
1.90606e-09
-3.67893e-09
-1.87916e-09
2.13621e-09
3.42188e-09
-2.41929e-10
3.86081e-10
-2.37699e-09
2.23284e-09
-5.35962e-09
8.97846e-10
-8.08936e-10
5.27071e-09
2.24321e-09
-1.3353e-09
6.6912e-09
1.44335e-09
2.43697e-09
-3.84706e-09
-3.32407e-11
-1.93553e-09
-4.6095e-10
2.6378e-09
-2.41305e-10
-4.39424e-09
3.27943e-09
1.07734e-09
3.74718e-11
-5.27701e-09
4.58199e-09
5.35034e-10
1.59955e-10
7.78578e-09
-4.11031e-09
4.60037e-09
-8.27584e-09
8.12888e-09
-4.43832e-09
-8.73474e-09
5.04417e-09
-2.57034e-09
5.51901e-09
-2.81837e-09
-1.30305e-10
2.04505e-09
-2.54148e-09
6.00949e-10
-1.04535e-10
2.82088e-09
-1.70942e-09
-4.38491e-11
-6.91988e-09
3.44496e-09
1.60561e-10
3.31437e-09
-8.2096e-09
5.92709e-09
2.83612e-09
-5.53607e-10
6.30681e-09
-1.27917e-09
-1.65207e-09
-3.37558e-09
1.00266e-09
2.65672e-09
-3.47049e-09
-1.88914e-10
4.19839e-09
-4.76927e-09
5.98844e-10
-2.79637e-11
6.1108e-09
1.74142e-09
-2.4581e-09
-5.39412e-09
5.20204e-09
-3.99148e-09
-1.45736e-09
2.46803e-10
4.00358e-09
-6.1602e-09
4.10275e-09
-1.94613e-09
-6.42422e-10
3.06251e-09
-2.95176e-09
5.3169e-10
7.60495e-09
-5.44743e-09
1.54217e-09
-3.69968e-09
5.98188e-09
-1.45932e-10
1.76901e-09
5.4944e-09
2.62611e-09
-9.86145e-09
1.74098e-09
6.98899e-09
-5.80884e-09
-5.10506e-09
3.92491e-09
1.90377e-09
3.05368e-09
-8.93497e-09
3.97754e-09
2.7091e-09
3.72866e-09
-4.80355e-10
-5.95737e-09
-6.67868e-10
3.97017e-09
-5.3524e-09
2.0501e-09
-1.29156e-09
3.01539e-09
-1.52847e-09
-1.95352e-10
5.46438e-09
-5.46707e-09
4.2528e-09
1.01009e-09
6.13268e-09
-1.35498e-09
-5.78778e-09
3.38159e-09
-5.29454e-10
-2.84356e-09
-8.55929e-12
8.2893e-10
-1.9712e-09
4.18775e-09
-3.04547e-09
1.06138e-09
-6.02676e-10
-3.46407e-09
3.00537e-09
2.68377e-09
-2.77378e-09
4.49309e-09
-4.40308e-09
6.35986e-09
-1.15119e-09
-5.84647e-09
6.37825e-10
-3.32192e-09
7.06384e-10
2.7675e-09
-1.51954e-10
-4.5217e-09
-7.54776e-09
7.63139e-09
4.43808e-09
-3.74421e-09
5.24996e-09
3.08198e-09
-4.58773e-09
3.76784e-09
-5.52288e-09
-4.55577e-09
4.92367e-09
-7.87182e-09
1.49499e-09
1.45315e-09
-1.58825e-09
-3.41916e-10
1.8598e-09
7.03876e-11
3.10923e-09
4.53903e-09
-7.61968e-09
-2.85937e-11
5.47215e-09
-4.05128e-11
-4.79039e-09
-6.41244e-10
1.66366e-09
-2.20397e-09
5.71337e-10
-3.10125e-11
2.62352e-09
-2.2102e-09
-5.99458e-10
1.86145e-10
2.38644e-09
-8.79081e-09
4.69919e-09
-2.01026e-09
1.78313e-09
-6.40001e-09
6.62713e-09
-3.27832e-09
4.58197e-09
-4.72255e-09
-1.91965e-09
2.57625e-09
-7.82915e-10
1.26304e-10
-4.09879e-09
-1.6859e-09
3.86504e-09
4.44649e-09
-4.74008e-09
3.71061e-10
-7.74621e-11
4.25883e-10
-2.00175e-09
1.72804e-09
-1.52106e-10
3.54698e-09
3.68799e-09
-4.34361e-09
-2.89135e-09
2.32377e-09
-1.92154e-09
2.24682e-09
-2.64901e-09
-6.15044e-09
1.46062e-09
4.58678e-09
1.03066e-10
8.91386e-09
-1.93006e-09
-6.91474e-09
-6.90622e-11
-5.34724e-09
-9.69754e-10
8.21751e-10
5.49526e-09
-8.33068e-09
4.71027e-09
-6.55009e-09
9.25511e-10
-4.22825e-09
-3.0666e-09
-4.61745e-09
-1.09819e-08
3.17374e-09
3.63214e-10
9.31522e-09
-7.64556e-10
-1.44089e-08
7.1336e-10
5.36483e-09
-3.06815e-09
9.51998e-09
-1.10693e-08
-4.221e-09
-1.08997e-09
-9.12951e-10
-4.58377e-09
5.3918e-09
1.04937e-10
5.03898e-09
-2.14764e-09
-4.7711e-09
1.87978e-09
-4.8292e-09
4.71658e-09
-5.77382e-09
8.05655e-09
9.85236e-10
-6.66184e-09
-2.37995e-09
-2.96425e-09
9.53793e-10
4.0681e-09
-2.05764e-09
8.18329e-09
1.01195e-09
-2.2868e-09
-6.90846e-09
3.03183e-09
4.66304e-09
-1.01732e-09
-6.67755e-09
-2.36124e-09
-1.36234e-09
-5.75562e-10
4.29914e-09
1.3821e-10
-3.99698e-09
9.42869e-10
2.9159e-09
3.85411e-09
1.49682e-09
-5.21272e-09
4.78529e-10
3.43369e-09
-5.81059e-11
-4.19475e-09
2.74786e-10
4.3985e-09
-9.65337e-10
-4.68283e-09
5.6277e-09
2.04625e-11
6.01343e-09
7.06104e-10
-6.86242e-09
1.42886e-10
4.28371e-09
-2.7778e-09
-4.67506e-09
3.16913e-09
4.07691e-09
-1.12329e-09
-1.2378e-09
5.53246e-09
2.67115e-09
-6.96581e-09
7.11107e-09
-2.28556e-09
-5.02064e-09
1.95117e-10
-1.69836e-09
2.90469e-09
-1.24929e-09
4.29769e-11
6.63839e-09
1.19186e-09
1.24426e-10
5.02217e-09
-8.77294e-10
-3.15574e-09
-9.89147e-10
-6.27086e-09
-3.41257e-10
7.39656e-11
6.53816e-09
2.60317e-09
-2.1757e-09
-5.88957e-10
1.61496e-10
-1.27601e-08
7.9681e-09
1.0942e-08
-6.14998e-09
-2.03679e-09
-3.11027e-09
-5.4894e-10
5.69599e-09
-3.88894e-09
-4.19161e-09
6.04376e-09
6.76969e-10
1.94032e-09
-3.9008e-09
1.28345e-09
-3.79288e-09
4.89779e-10
-3.95281e-09
1.03292e-09
4.75777e-09
-1.8379e-09
-3.49905e-09
-3.77615e-09
2.62144e-09
4.65376e-09
1.70561e-09
2.10136e-09
2.89689e-09
-6.70385e-09
3.38556e-10
-7.92528e-10
-3.71826e-09
4.17223e-09
-4.47191e-09
4.54863e-09
5.61711e-09
-5.69381e-09
-4.7892e-09
4.45959e-09
5.82403e-09
5.91845e-09
-3.49381e-09
-3.39947e-09
9.74855e-10
1.05039e-09
4.97088e-09
-5.33462e-09
-6.86649e-10
1.22851e-09
3.12293e-09
-4.12306e-09
-2.28385e-10
-5.23526e-09
9.9161e-09
1.85106e-09
-6.53186e-09
-7.76221e-10
-4.26507e-09
5.20826e-09
-1.66967e-10
4.85214e-09
9.84321e-10
-4.31265e-10
-5.4052e-09
-1.92877e-09
1.31408e-10
5.04946e-10
-2.56168e-09
1.94154e-09
1.15224e-10
-3.81332e-09
7.14918e-09
-1.67566e-09
-1.6602e-09
8.78467e-10
-3.44501e-09
2.70359e-09
-1.37045e-10
-6.43136e-09
2.35189e-09
2.78525e-10
3.80096e-09
-3.94508e-09
7.51266e-10
3.20621e-09
-1.2379e-11
-4.88775e-09
7.77393e-10
4.5787e-09
-4.68329e-10
-2.89083e-09
1.06076e-09
-3.86321e-10
2.14867e-09
9.54304e-10
5.82122e-10
-3.68508e-09
-4.24964e-09
5.0353e-09
3.9045e-09
-4.69017e-09
-9.1148e-09
4.07158e-09
7.93576e-10
-4.2258e-09
-9.35252e-11
3.15653e-10
4.00368e-09
1.56572e-09
2.08687e-09
3.01545e-09
1.18536e-09
-5.28296e-09
5.15899e-09
-4.29614e-09
4.02803e-09
4.58272e-09
-4.31461e-09
-6.99785e-10
-3.32813e-09
-2.6822e-10
2.20678e-09
-2.34454e-09
4.08069e-10
-2.70291e-10
7.71793e-10
-4.2374e-09
5.6724e-09
1.29605e-10
3.28387e-09
-3.15582e-09
-2.57649e-10
-1.53499e-09
2.43132e-12
1.7962e-09
-2.63615e-10
2.869e-09
3.15451e-09
-4.64148e-09
-1.38203e-09
4.30698e-09
-4.28624e-09
2.38266e-09
-2.40339e-09
-2.65021e-09
4.28395e-09
-1.53616e-09
-9.75804e-11
-4.59965e-09
-3.52028e-10
1.62495e-10
-5.92265e-09
8.23305e-09
-1.73817e-10
-2.13657e-09
2.98593e-09
-4.60158e-09
4.71221e-09
3.62205e-10
-4.47506e-09
-5.99364e-10
4.3058e-09
9.26337e-10
-5.19937e-10
1.14549e-09
3.43674e-09
-3.12466e-09
-1.45756e-09
3.96732e-09
1.88028e-09
-2.41831e-09
-3.4293e-09
-2.23618e-09
-7.42563e-10
6.23034e-09
-3.25152e-09
-3.4226e-09
4.94821e-09
5.43038e-09
-6.956e-09
-4.10574e-09
6.37681e-09
1.52317e-09
-3.79422e-09
3.94329e-09
-2.41752e-09
-1.82611e-09
3.00328e-10
1.86751e-09
6.59286e-10
2.06315e-09
-4.58989e-09
-1.57189e-09
-8.85752e-10
5.59634e-09
-3.1387e-09
3.92377e-09
1.04671e-09
-5.11113e-09
1.40686e-10
-4.59956e-09
3.18758e-09
5.33575e-09
4.00584e-09
-1.25084e-09
-6.8934e-09
4.13841e-09
-2.34146e-09
7.76433e-09
-6.02942e-09
2.43627e-09
-5.96715e-10
-1.92967e-09
9.01156e-11
-4.29317e-09
7.12394e-09
-3.0171e-09
1.86335e-10
-4.28808e-09
5.67903e-09
-2.73843e-09
3.99077e-09
2.43848e-09
-6.39014e-09
-3.9109e-11
2.88722e-09
6.20774e-09
-6.58655e-09
-2.50839e-09
-2.6495e-09
-1.06496e-09
-3.40502e-10
6.15132e-09
-6.31246e-09
-5.18295e-09
5.34407e-09
7.17557e-10
7.24427e-09
-2.04337e-09
1.30589e-09
5.15703e-09
2.64246e-09
-6.71348e-10
-7.68384e-09
8.16177e-09
1.93409e-10
-3.57833e-10
6.38965e-09
-6.70317e-09
7.35521e-09
-5.77277e-09
-1.66375e-09
8.13241e-11
3.06363e-09
-6.97013e-09
2.31595e-09
1.59055e-09
-5.4128e-09
-2.95649e-09
8.07181e-09
2.97477e-10
1.94194e-09
-7.29092e-09
-6.3811e-11
-5.99696e-09
2.96704e-09
7.34319e-11
-2.8879e-09
2.37117e-09
4.15148e-10
1.01601e-10
1.01758e-08
5.80099e-10
-2.76734e-09
8.1566e-10
5.20305e-09
-1.00943e-08
4.07561e-09
-2.39364e-09
7.68093e-09
2.20532e-09
-7.4926e-09
4.819e-09
1.55888e-09
-6.1342e-09
-2.43687e-10
2.7983e-10
-5.9357e-09
2.15686e-09
-3.87261e-09
3.25104e-09
-1.36341e-09
1.98498e-09
-2.13997e-09
1.68699e-09
5.65623e-10
-1.12612e-10
-2.91888e-09
-3.91642e-10
7.75702e-09
-8.54116e-09
3.91275e-09
-2.29288e-10
4.85771e-09
3.61067e-09
-2.49663e-09
-3.25401e-09
-1.32732e-09
1.85232e-09
4.72676e-09
-5.25177e-09
-1.8037e-09
3.56654e-09
-3.44221e-09
1.67937e-09
-7.01434e-09
4.66629e-09
5.44362e-10
-2.28466e-09
3.15934e-09
-9.2769e-10
5.30038e-11
4.59128e-09
3.7706e-09
-5.58108e-09
-2.78079e-09
5.29278e-09
-3.38473e-09
-5.43049e-09
3.52244e-09
-2.21964e-10
-3.6576e-09
-2.18435e-09
6.0639e-09
6.09617e-09
-2.86016e-09
4.07313e-10
-3.64333e-09
-4.81591e-09
9.95922e-10
-2.08715e-09
5.90715e-09
5.11123e-09
1.83926e-09
-6.8237e-09
-1.26777e-10
3.07494e-09
7.88373e-09
-4.87357e-09
-6.08511e-09
4.52817e-09
1.25044e-09
-8.62059e-09
-1.80303e-09
-1.80596e-09
-1.95257e-09
6.9936e-09
-2.03942e-09
-4.8439e-09
-1.10275e-10
3.08956e-09
-2.36353e-10
-2.84905e-09
-4.13743e-12
5.43656e-09
-1.20508e-09
-1.493e-09
-2.73848e-09
1.2124e-09
3.68299e-11
-1.47392e-09
8.57816e-09
-6.07135e-09
-3.91149e-09
2.74228e-10
3.37488e-09
2.62369e-10
4.03839e-09
-3.24282e-09
-4.70707e-09
-1.57953e-09
-4.01568e-09
5.55749e-09
3.77315e-11
-5.87818e-09
-9.20033e-09
5.98603e-09
9.09248e-09
-3.73766e-09
6.81477e-09
7.74028e-09
-1.08174e-08
-2.92681e-09
3.05887e-09
-2.22983e-10
9.09291e-11
-8.17047e-10
4.18313e-09
1.38825e-09
-4.75433e-09
-2.89509e-09
1.98324e-09
9.99854e-10
-8.80218e-11
2.72317e-09
-3.10097e-09
-5.53363e-09
5.91144e-09
1.01019e-09
-4.56566e-09
3.45684e-09
9.8665e-11
1.88638e-09
4.65888e-09
-8.77497e-09
2.2297e-09
2.42667e-09
6.39558e-09
-6.38236e-09
-2.43987e-09
-3.26683e-09
1.82622e-10
5.5109e-09
-4.53732e-10
-6.69209e-09
7.11604e-09
2.97915e-11
-1.16462e-10
4.65064e-09
-5.00861e-09
4.7444e-10
-1.96818e-09
2.85395e-09
-2.93731e-09
2.05156e-09
2.44348e-09
-7.83494e-09
7.49314e-10
-6.61331e-09
4.15194e-09
3.4341e-09
-9.72745e-10
6.79243e-09
-5.26266e-09
1.57945e-09
-1.43361e-09
-2.8535e-09
-1.08656e-09
5.37368e-09
4.36985e-09
-5.41537e-09
1.85401e-09
-8.0848e-10
1.7361e-09
-5.74624e-09
-2.18106e-10
-1.41619e-09
1.17231e-09
-3.75309e-09
2.20747e-09
-3.21555e-09
1.33043e-09
3.47171e-09
-3.64931e-09
-1.15281e-09
-2.81452e-09
1.57676e-09
4.06179e-09
-2.82401e-09
-8.51977e-10
2.84025e-09
-2.00724e-09
1.89732e-11
-4.67775e-09
-2.44394e-10
-8.08095e-10
5.73023e-09
-3.30601e-09
2.70545e-09
5.90842e-10
9.71724e-12
-5.0265e-09
6.6531e-09
-4.77284e-09
3.14626e-09
2.69498e-09
-1.25722e-09
5.60499e-12
1.68959e-09
-1.40186e-09
-2.66758e-10
-2.09657e-11
6.26753e-09
3.69511e-09
3.22179e-10
-1.37452e-10
2.99015e-10
-3.7957e-09
3.44787e-09
4.88112e-11
3.49384e-10
-4.61749e-09
-1.81215e-11
6.02415e-09
-4.77956e-09
-1.22543e-09
-1.91566e-11
-1.81858e-09
-4.93055e-09
1.89419e-09
4.72781e-09
-3.76677e-09
-1.81239e-09
8.51366e-10
5.28212e-09
2.18112e-10
-5.06945e-09
-4.30774e-10
3.07136e-09
1.03034e-09
-4.14935e-09
4.76543e-11
2.17537e-09
-1.55312e-09
9.65404e-09
-1.02763e-08
3.94623e-09
-2.74229e-09
-1.10036e-09
-1.03567e-10
-6.04265e-09
1.16653e-08
-6.95256e-10
-4.9274e-09
3.75497e-09
-3.21989e-10
-3.98387e-09
5.50871e-10
-6.27478e-09
-3.26656e-09
2.1865e-09
7.35489e-09
-7.98082e-10
6.67452e-09
-7.03806e-09
1.16162e-09
2.73902e-09
-3.44515e-09
-9.195e-11
-6.16695e-10
-3.76354e-09
6.02029e-09
-1.64002e-09
3.29616e-09
-8.35689e-09
1.15981e-08
-6.5374e-09
3.40835e-09
5.18445e-09
-3.94809e-09
-4.6447e-09
-2.10513e-09
-2.44764e-10
5.36155e-12
1.24174e-09
3.12972e-09
3.128e-09
1.88446e-10
-9.41603e-10
-2.44315e-09
3.19632e-09
6.65965e-09
-8.54496e-10
6.23912e-10
-6.42903e-09
1.87038e-09
5.64743e-09
-6.74329e-09
-7.7452e-10
-3.00593e-09
6.24125e-10
2.58517e-09
-2.03366e-10
1.92539e-09
3.95239e-09
-5.8799e-09
2.14385e-12
-3.70367e-09
2.73983e-10
3.82756e-09
-3.97856e-10
4.90728e-09
-2.6939e-10
-4.66054e-11
-5.74093e-10
-3.0513e-09
3.61973e-09
5.68378e-12
2.86192e-09
-2.56402e-09
3.91856e-09
-4.21645e-09
3.03935e-09
-4.9545e-10
-2.49241e-09
-5.14774e-11
-1.5364e-09
-6.30059e-09
5.54966e-09
2.28732e-09
4.66233e-09
-4.52837e-09
-2.89601e-09
2.76206e-09
-7.08836e-10
3.79517e-09
1.5742e-10
-3.35267e-09
-1.87417e-10
7.91398e-09
-4.3739e-09
-4.6247e-09
-1.49625e-09
7.11776e-09
-9.96798e-10
1.84898e-09
1.32618e-09
5.62047e-09
-8.79564e-09
-5.41189e-09
3.13044e-09
1.36979e-09
9.11665e-10
-1.04583e-09
7.81179e-09
-6.86323e-09
9.7285e-11
-5.69282e-09
6.01954e-09
-9.6363e-10
6.36914e-10
-9.1904e-09
2.43829e-09
5.27833e-09
1.4738e-09
2.66425e-09
-4.75594e-10
-2.42042e-09
2.31772e-10
-5.40272e-09
4.41929e-09
9.59635e-10
2.37949e-11
-7.51444e-10
-3.69918e-09
-1.6349e-09
6.08553e-09
2.71309e-09
-6.55782e-09
-4.30974e-10
4.2757e-09
5.17971e-09
1.61292e-09
-1.43156e-09
-5.36107e-09
-2.10943e-09
5.73723e-09
-3.67324e-09
4.54276e-11
-2.9662e-10
-7.86448e-09
5.76339e-09
2.39771e-09
4.4577e-09
-1.31144e-09
-3.20612e-09
5.98637e-11
-6.6083e-09
8.14511e-09
-8.30913e-09
6.77231e-09
-3.48843e-09
3.14763e-10
3.07583e-09
9.78267e-11
7.51382e-09
-3.03328e-09
-5.25186e-10
-3.95536e-09
-8.58234e-09
1.9822e-09
-8.90112e-10
-1.03645e-09
-3.04529e-09
4.13767e-09
-5.59181e-11
7.15536e-09
-3.30762e-09
1.43027e-10
-4.49949e-09
9.90149e-09
-1.6314e-09
5.19172e-09
3.8938e-09
-1.58414e-09
-7.50138e-09
4.95067e-10
3.81753e-09
8.01944e-09
-3.23957e-09
1.32758e-09
-6.10745e-09
1.55785e-09
-5.18843e-09
-2.2627e-09
5.89329e-09
-8.56023e-10
-1.5827e-09
2.33009e-09
1.08628e-10
-2.03822e-09
5.02931e-09
1.08427e-10
-3.09953e-09
3.84408e-09
-2.8921e-09
-1.03517e-09
8.31827e-11
1.80639e-10
-5.19771e-09
4.87691e-09
1.4016e-10
-4.99798e-09
-9.50462e-10
5.96201e-09
-1.35642e-11
-8.74873e-10
1.2327e-09
-6.4336e-09
6.07576e-09
-5.87471e-09
4.48366e-09
5.16181e-10
-3.7223e-09
1.5711e-09
2.37597e-09
-2.24789e-10
1.14555e-09
1.03196e-09
-1.98222e-09
-1.95259e-10
-3.96129e-09
4.96976e-09
-8.30337e-10
-1.78165e-10
-5.53351e-09
-6.27588e-10
3.55365e-09
2.60743e-09
-2.32949e-09
-8.76793e-10
3.19247e-09
1.38059e-11
-3.88135e-09
-1.27528e-09
5.07404e-09
8.25847e-11
3.54141e-09
-2.43078e-09
5.45157e-09
-6.5622e-09
-2.10278e-09
-1.17365e-09
6.44054e-09
-3.16412e-09
1.04756e-08
-4.62035e-09
-5.73291e-09
-1.22319e-10
3.68713e-09
-1.03766e-08
6.40758e-10
-4.93542e-09
7.36729e-11
5.11825e-09
-3.6363e-09
-3.31789e-09
5.48701e-12
-3.14114e-09
8.68842e-10
2.26681e-09
2.92639e-09
8.26752e-10
-1.68832e-10
4.17468e-09
2.8258e-10
4.50031e-10
-2.71571e-09
3.20364e-09
-6.11139e-10
1.23203e-10
-5.44414e-09
7.05011e-09
1.96445e-09
-3.57043e-09
4.10136e-10
-5.86465e-09
1.03778e-11
-5.93653e-09
-2.69795e-09
6.81462e-09
1.81985e-09
-3.27744e-09
7.49543e-09
-4.31107e-09
9.30687e-11
-5.12383e-09
2.73297e-10
1.05551e-09
3.79501e-09
3.22303e-10
-9.56829e-12
-3.89564e-10
1.24086e-09
-4.86638e-09
4.01508e-09
2.71356e-09
3.20335e-09
-3.7344e-09
-2.18248e-09
-4.28474e-09
1.24257e-09
3.20064e-09
-1.58476e-10
-4.2864e-09
5.75041e-09
-1.4822e-09
1.82023e-11
3.31127e-09
-2.97412e-09
-2.07545e-10
1.85311e-09
-3.75321e-09
4.29749e-09
-2.39739e-09
2.26142e-09
-2.27821e-09
3.83496e-11
-2.15499e-11
-3.88417e-10
4.82733e-10
-4.37058e-09
4.27626e-09
-4.66663e-10
1.37122e-09
-3.3397e-09
2.43517e-09
-3.66395e-09
5.91732e-10
-3.52914e-09
6.60136e-09
5.63655e-09
-6.55801e-09
-4.38766e-11
-3.40411e-09
-1.478e-10
2.58018e-09
9.7169e-10
4.77259e-09
-1.38531e-09
-2.40653e-09
-9.80754e-10
8.46382e-09
-9.84477e-09
-2.56477e-09
-8.22913e-10
3.27153e-09
1.16179e-10
6.76333e-09
2.10361e-09
-5.31747e-09
-3.54943e-09
3.12266e-09
1.94892e-10
6.40554e-11
-5.3957e-09
5.20068e-09
-1.10843e-09
1.30345e-09
-3.2601e-09
1.31846e-10
3.35857e-09
-2.30304e-10
4.02053e-09
1.95681e-09
-5.86638e-09
-1.10987e-10
-7.74519e-09
7.09316e-09
-6.26737e-09
6.91939e-09
3.05148e-09
-8.38133e-09
4.43467e-09
8.95184e-10
-2.5061e-09
-7.1332e-10
3.24315e-10
-2.51638e-09
-1.61009e-09
1.0494e-09
3.07706e-09
5.74158e-09
-5.12132e-09
-3.4547e-10
-4.26692e-09
1.852e-09
-2.26816e-09
6.11253e-09
-3.84729e-09
2.9073e-12
-1.75001e-09
5.1418e-09
-3.4655e-09
7.37149e-11
3.71212e-09
1.20416e-09
-6.24365e-09
1.32738e-09
2.05633e-09
4.36764e-09
-4.74405e-09
-1.67991e-09
5.39695e-09
-3.94024e-09
-1.41897e-09
-3.77476e-11
5.03892e-09
-1.32096e-09
-3.78353e-09
6.55564e-11
-2.29807e-11
-6.66865e-09
8.33342e-11
-2.0707e-09
-1.25283e-09
3.46793e-09
-1.444e-10
-7.48242e-09
4.52527e-09
-2.71849e-12
2.95987e-09
-2.73004e-09
-4.94089e-09
3.11293e-09
4.55799e-09
-1.04052e-08
4.45919e-09
4.32556e-09
1.62048e-09
7.56419e-10
2.80607e-09
-3.50978e-09
-5.26971e-11
1.46294e-09
-6.4015e-09
-8.79237e-11
-4.19539e-09
4.40575e-09
-3.7642e-10
1.66071e-10
-3.28775e-09
-5.80153e-09
3.415e-09
5.67429e-09
2.35465e-09
1.92075e-09
1.89126e-09
-6.16665e-09
2.70166e-09
-1.09753e-10
-5.55185e-09
5.96406e-09
-4.45462e-09
-4.64952e-11
3.39884e-09
-9.59833e-11
-2.9643e-09
4.53983e-09
-4.35572e-09
3.10948e-10
-5.33057e-09
-2.66138e-09
1.93813e-09
8.95892e-10
-1.72632e-10
-1.35704e-09
-5.33562e-09
5.14292e-09
1.54975e-09
3.50014e-09
-1.09879e-09
1.48611e-10
-2.54996e-09
5.12301e-09
3.61252e-10
-4.56575e-09
-9.18489e-10
7.20531e-09
9.4214e-10
5.12375e-09
3.32368e-09
-5.3426e-09
-3.10483e-09
-2.77333e-09
4.15327e-09
4.69478e-09
-6.07473e-09
-5.87012e-09
-2.00059e-09
6.84631e-09
1.02439e-09
5.98569e-10
-3.47554e-09
1.03619e-10
2.50395e-10
6.52524e-10
3.25035e-09
2.88143e-09
-3.30268e-09
-3.72448e-09
4.14573e-09
-5.97479e-11
-3.67743e-09
3.71671e-09
2.04663e-11
-5.22623e-09
3.66271e-09
-4.61801e-09
6.18154e-09
-4.76582e-09
-2.31474e-09
8.89537e-09
-1.8148e-09
-6.05314e-09
4.08114e-09
4.01705e-09
7.61472e-10
-1.65867e-09
4.62971e-09
-3.73249e-09
7.06167e-11
-7.24791e-09
7.25066e-09
-7.33637e-11
-3.30458e-09
-3.73683e-09
5.00523e-09
2.03621e-09
-4.07094e-09
-7.25978e-09
9.40383e-09
1.92691e-09
-8.99503e-10
6.32454e-09
-4.53414e-09
-8.90894e-10
-1.75044e-09
-7.45063e-09
5.39877e-09
3.80231e-09
-2.03356e-09
-2.82194e-09
4.68006e-09
1.75445e-10
-5.21722e-09
-3.60627e-09
5.88727e-09
2.93621e-09
-2.98112e-09
4.60644e-09
-1.7137e-09
8.83835e-11
-4.9498e-09
-2.81957e-09
6.33576e-09
2.47647e-09
1.03093e-09
-3.40123e-09
-1.06183e-10
2.05422e-09
5.4353e-10
-2.51648e-09
-8.12536e-11
-2.75559e-09
7.66416e-10
1.96449e-09
2.46814e-11
3.91516e-09
1.14835e-09
-4.99243e-09
-7.10776e-11
-4.40105e-09
3.31704e-09
-1.84906e-09
2.93306e-09
-4.13902e-09
3.82552e-09
-4.36424e-09
3.42541e-09
-3.15183e-09
-4.57643e-10
1.84084e-10
-3.27261e-09
-4.87741e-09
4.08029e-09
4.06974e-09
1.24884e-08
-3.23137e-09
-8.98796e-09
-2.69109e-10
-2.33673e-09
4.41989e-09
-3.28822e-09
-3.65615e-09
3.36689e-09
-3.56062e-09
3.84989e-09
-2.61307e-09
-2.58369e-09
-1.36768e-09
6.56444e-09
1.59718e-09
-6.07453e-09
2.51574e-09
1.9616e-09
-4.25851e-09
1.16897e-09
3.15882e-09
-6.92789e-11
1.92725e-09
4.25633e-09
-3.78467e-09
-2.39891e-09
1.35065e-09
-3.85321e-09
1.39372e-09
1.10885e-09
4.5011e-09
-4.26898e-09
6.68903e-11
6.97722e-10
4.86601e-09
-3.52461e-09
-2.03911e-09
-5.14349e-09
-2.51442e-09
4.17376e-10
7.24054e-09
-4.63115e-09
-2.78752e-09
1.12725e-08
-3.85387e-09
6.52172e-09
1.99765e-09
-4.08805e-09
-4.43132e-09
3.54031e-09
-7.24122e-11
-5.95282e-11
-9.48087e-10
-2.55355e-09
7.90243e-11
-4.55725e-09
1.02734e-09
4.59377e-09
-1.06385e-09
2.51262e-09
8.55767e-09
-5.05871e-09
-6.01158e-09
-2.02641e-09
-1.82075e-11
-2.24317e-09
-5.16941e-10
-1.30714e-10
3.38868e-09
-5.3932e-09
-1.06673e-09
3.07125e-09
-8.67573e-10
-2.54931e-09
3.4989e-09
-8.20279e-11
-2.48018e-09
3.50476e-09
-9.51227e-10
-7.33475e-11
1.16226e-09
-5.89497e-09
2.11025e-10
5.94074e-09
-5.13672e-09
3.58253e-10
3.3915e-10
-4.00146e-09
-9.07815e-10
4.57014e-09
1.92442e-09
2.49816e-09
-4.7607e-09
3.38116e-10
-1.07385e-09
-1.02772e-08
1.04382e-08
3.2607e-09
-5.50234e-10
2.85625e-11
-1.36362e-10
-4.44608e-09
3.19846e-09
1.38401e-09
8.64918e-09
-4.29317e-09
7.6774e-10
-6.32656e-10
-2.4725e-09
2.96858e-09
1.36578e-10
6.15253e-09
-3.32945e-09
2.13812e-09
-4.96123e-09
3.83241e-10
-2.00085e-10
-4.70584e-09
-4.67911e-09
9.38819e-09
-3.25965e-12
-1.90206e-09
7.61867e-09
-2.55177e-09
-3.16476e-09
2.93035e-09
-2.63697e-09
-3.37798e-10
4.44416e-11
2.48196e-10
4.91106e-09
-4.09936e-09
-5.66559e-09
4.85389e-09
1.8602e-09
2.64369e-10
2.08293e-09
-4.20748e-09
-1.69327e-09
-3.65142e-10
1.91239e-09
1.46034e-10
-3.57408e-09
5.06484e-09
-2.12892e-09
6.38169e-10
-4.8741e-09
-1.99285e-09
1.22305e-09
5.64389e-09
2.47933e-09
-9.02087e-09
-9.58318e-10
7.49984e-09
5.22078e-09
-3.69757e-09
-1.76615e-09
2.42957e-10
-3.25712e-09
-6.5717e-10
3.8045e-09
1.09803e-10
-3.63536e-09
-7.90086e-10
-5.53861e-09
-6.13532e-10
2.71449e-09
-3.32231e-09
5.04807e-10
1.03019e-10
5.85118e-10
6.64605e-09
-3.31601e-09
2.0541e-09
-1.87732e-09
-9.03338e-11
-8.64374e-11
1.21028e-10
2.25195e-09
-2.33591e-09
-3.70522e-11
4.03222e-09
-3.73179e-09
-4.41257e-10
1.40838e-10
1.62921e-10
-1.91143e-09
1.84672e-09
-9.81848e-11
-4.69132e-09
2.27203e-10
4.62705e-09
-3.59101e-09
3.63824e-09
1.49738e-10
-1.96964e-10
3.11981e-09
-1.26966e-09
9.03861e-10
-2.75395e-09
5.46561e-09
-5.35153e-09
2.65409e-09
-2.76814e-09
-1.81039e-09
-2.54122e-09
2.25098e-09
2.10064e-09
4.28008e-09
3.36793e-09
-5.38592e-09
-2.2621e-09
-6.18655e-09
1.63937e-09
3.21383e-10
4.07942e-09
2.58879e-09
-4.06504e-09
7.94312e-10
-1.94558e-11
1.88502e-09
-2.41798e-09
4.5637e-10
7.65924e-11
-8.12276e-10
-6.34893e-10
2.2761e-09
2.27785e-09
-5.97798e-10
6.57242e-09
-8.25247e-09
-5.46935e-09
4.7059e-09
-3.13736e-09
1.4911e-09
-2.70941e-09
4.31116e-09
-3.09287e-09
-2.45786e-09
8.18463e-09
-5.0598e-10
-4.18769e-10
3.18669e-09
-2.7621e-09
-5.81684e-12
-2.87891e-09
2.56607e-09
-1.05923e-10
2.93253e-10
3.14927e-09
-3.08089e-10
-3.13442e-09
1.80516e-09
-1.5312e-09
1.93019e-11
2.97774e-09
-2.1778e-09
-9.62567e-10
1.62627e-10
-6.59523e-10
2.3365e-09
1.76141e-10
-1.23777e-09
4.96686e-09
-6.23637e-09
2.50729e-09
-2.48531e-09
-4.80586e-10
2.98738e-09
-2.1509e-11
7.48516e-10
1.26125e-10
-2.39149e-09
1.51686e-09
1.0508e-08
-1.4395e-09
-1.18565e-08
2.78797e-09
4.80956e-09
-1.17358e-09
-3.76481e-09
1.28814e-10
-3.55424e-09
3.11587e-09
1.18689e-09
-1.84602e-09
1.55663e-09
4.28682e-10
-1.39272e-10
-9.8469e-10
4.68801e-09
-3.69018e-09
-1.3129e-11
6.17367e-10
4.84795e-09
3.10704e-13
2.52131e-09
2.61815e-10
-3.02504e-09
3.0099e-09
-3.21405e-09
1.23929e-10
8.02408e-11
-1.85636e-09
6.24285e-09
-8.67283e-09
4.32754e-09
-4.58709e-09
-2.96896e-09
3.22851e-09
6.7568e-09
-5.34587e-09
-2.76003e-09
1.34911e-09
-2.41946e-09
-4.3339e-10
-3.75053e-11
-9.10992e-09
1.56471e-09
2.39104e-09
5.15416e-09
-5.02948e-09
-4.74949e-10
7.25982e-10
4.77846e-09
-3.9947e-09
-5.75592e-10
7.67681e-09
-3.47114e-09
3.1947e-09
-2.55534e-09
-7.22269e-10
8.29158e-11
3.0979e-09
4.277e-09
-6.14683e-09
-1.22807e-09
-5.39963e-09
3.65595e-09
3.12385e-09
-1.38017e-09
-7.64131e-10
3.66456e-09
-2.87034e-09
-3.011e-11
2.38212e-09
-3.40979e-09
1.27906e-10
2.37491e-09
-2.01124e-09
-4.50053e-10
8.63895e-11
-4.01884e-09
3.96737e-09
-8.26871e-12
-2.40531e-09
-1.5756e-09
-4.364e-09
-8.60121e-10
-8.61109e-11
3.75836e-09
-6.0039e-09
-2.11847e-09
-3.79527e-09
1.15383e-09
-6.26095e-10
3.26754e-09
-1.08272e-09
3.94501e-09
2.0905e-10
-2.07752e-09
1.88756e-09
1.44135e-10
4.58346e-11
-3.11826e-09
-3.92766e-09
4.9684e-09
4.82469e-10
-5.12524e-09
2.06933e-09
2.57344e-09
-5.94204e-09
4.95484e-09
3.51954e-09
-2.53233e-09
4.36771e-09
-2.55723e-09
3.58647e-09
-1.57837e-09
-4.6545e-10
7.26283e-11
-5.21943e-09
1.84867e-09
-2.23016e-09
5.60093e-09
-4.01119e-09
-5.36145e-09
5.64602e-09
3.72662e-09
1.2251e-09
1.11597e-09
-1.92411e-10
1.85259e-09
-4.44046e-09
4.7672e-10
2.11117e-09
2.83075e-09
-2.54642e-09
-2.30828e-10
-5.3508e-11
1.23999e-10
-1.66599e-10
1.93376e-09
-2.06588e-09
9.9794e-11
3.23038e-11
-3.79505e-09
8.49912e-10
2.85759e-09
8.75392e-11
1.99601e-09
3.48816e-10
3.00951e-11
-2.08663e-10
-5.22747e-09
4.96396e-09
4.72198e-10
4.76875e-09
-6.37166e-09
1.98294e-09
2.58538e-09
-5.97765e-09
-4.74587e-09
8.13813e-09
6.29992e-09
-5.29634e-09
4.58479e-09
-5.58837e-09
2.59299e-09
6.56238e-09
-3.99786e-09
-5.15751e-09
-4.1427e-10
3.17148e-09
-3.33129e-09
-2.53315e-09
-1.02276e-09
6.41783e-09
-3.09151e-09
8.90935e-10
2.93659e-09
-7.36026e-10
-6.48852e-10
1.55047e-09
-3.53853e-09
2.63691e-09
-2.97849e-09
2.42635e-09
5.33912e-10
1.82335e-11
9.14155e-10
3.9521e-09
-7.73167e-09
2.86542e-09
1.32423e-09
-1.51453e-09
-6.13312e-09
6.32341e-09
-3.44075e-09
-1.69669e-09
5.22083e-09
-8.34003e-11
-2.61742e-09
-1.16851e-09
3.70206e-09
8.38668e-11
-8.26086e-09
1.01263e-08
2.95355e-09
2.35104e-10
-1.78786e-09
-1.45576e-10
4.81734e-09
-2.63917e-09
7.26516e-10
3.24585e-09
1.73998e-09
-1.68497e-10
8.90822e-09
-8.61243e-09
-1.71776e-10
9.35966e-09
1.43163e-09
-8.50881e-09
-2.28248e-09
-4.78359e-09
7.41951e-09
-2.74708e-09
1.11163e-10
6.00301e-09
-7.90087e-10
-1.07812e-09
-4.1348e-09
-3.83249e-10
4.37891e-10
3.16423e-09
-3.21888e-09
4.08724e-09
3.04016e-10
-4.49049e-09
9.92338e-11
-2.40347e-09
-5.75147e-10
1.2511e-10
7.45076e-10
-4.41569e-09
-2.9069e-10
3.27982e-09
-8.29222e-10
2.63889e-10
6.30079e-09
-6.12128e-10
-3.95879e-10
-4.11187e-09
-8.90099e-10
4.91403e-09
8.79419e-11
6.35337e-09
-4.1841e-09
-4.31809e-09
9.96019e-09
-4.43013e-09
-3.95469e-09
-1.57537e-09
4.577e-09
1.69049e-09
-5.10317e-09
-1.16431e-09
1.30993e-09
-7.76268e-09
6.38561e-09
6.71385e-11
2.27094e-09
6.82008e-10
-2.69463e-09
-2.58297e-10
3.88565e-09
-2.5831e-09
1.94468e-09
-3.24723e-09
-3.84286e-09
1.40933e-09
2.51942e-09
-8.58817e-11
-6.19797e-09
5.45353e-09
3.9662e-09
-3.06454e-09
-1.06709e-09
1.65428e-10
-4.46234e-09
2.42679e-09
-2.74071e-09
4.77626e-09
-1.25798e-09
-6.18526e-10
5.15632e-09
6.85245e-09
-2.80083e-09
-8.86752e-09
3.15749e-09
3.38405e-09
-2.17169e-09
2.21983e-09
-5.73715e-09
7.7974e-09
-9.12338e-10
3.97735e-09
-3.20515e-09
1.40121e-10
4.17885e-09
-2.01524e-09
1.98833e-09
5.98171e-09
-5.22701e-09
-3.92499e-10
-1.32494e-09
-1.01621e-08
2.05233e-09
9.43471e-09
5.48112e-09
-4.3564e-09
-1.23361e-09
1.089e-10
3.70165e-09
-1.50969e-09
-1.14867e-09
-1.04329e-09
2.51106e-09
-3.64423e-09
1.49645e-09
-3.63271e-10
5.3474e-09
-1.61754e-09
-4.1359e-10
-3.31626e-09
2.98068e-09
-4.18052e-09
-4.46848e-09
5.66831e-09
4.31022e-10
2.86439e-09
-3.19277e-09
-1.02654e-10
2.34385e-09
-2.69068e-09
3.54981e-10
-8.13261e-12
7.88177e-10
-6.35874e-09
-2.98788e-09
8.55844e-09
-5.2023e-09
-3.8702e-09
5.49842e-09
-6.31215e-09
-3.42099e-09
4.06618e-09
5.66697e-09
8.9426e-09
-5.321e-09
1.53181e-09
-5.15339e-09
1.83775e-09
-4.78497e-09
2.88456e-09
6.26748e-11
1.88917e-09
-5.24603e-11
6.69178e-11
-2.8184e-09
2.89092e-09
-1.39429e-10
-3.88595e-09
-1.93876e-09
1.47584e-09