/*--------------------------------*- C++ -*----------------------------------*\
| =========                 |                                                 |
| \\      /  F ield         | OpenFOAM: The Open Source CFD Toolbox           |
|  \\    /   O peration     | Version:  v1612+                                |
|   \\  /    A nd           | Web:      www.OpenFOAM.com                      |
|    \\/     M anipulation  |                                                 |
\*---------------------------------------------------------------------------*/
FoamFile
{
    version     2.0;
    format      ascii;
    class       volScalarField;
    location    "166";
    object      p;
}
// * * * * * * * * * * * * * * * * * * * * * * * * * * * * * * * * * * * * * //

dimensions      [0 2 -2 0 0 0 0];

internalField   nonuniform List<scalar> 
17208
(
2.11111
2.08843
2.09229
2.09159
2.09374
2.09379
2.09471
2.09595
2.09877
2.09559
2.09203
2.09419
2.09355
2.09592
2.09744
2.09572
2.09031
2.09453
2.09282
2.09543
2.09846
2.09846
2.12303
2.12085
2.11967
2.12363
2.11692
2.12375
2.1256
2.11905
2.11756
2.11911
2.1194
2.12563
2.12322
2.12285
2.12466
2.10724
2.10914
2.10097
2.10209
2.11028
2.10924
2.10529
2.10402
2.10701
2.10289
2.10547
2.10139
2.10497
2.10027
2.10303
2.1069
2.10836
2.10825
2.11377
2.10176
2.10173
2.10387
2.10057
2.10772
2.10464
2.10258
2.10406
2.10397
2.10427
2.10445
2.10724
2.08964
2.09557
2.09413
2.09339
2.09423
2.08974
2.09426
2.09204
2.08993
2.0895
2.0484
2.04867
2.0507
2.05242
2.05692
2.05116
2.05366
2.04551
2.05039
2.05494
2.05127
2.05557
2.05534
2.05603
2.05511
2.07222
2.07319
2.07776
2.07505
2.07566
2.07381
2.07794
2.07676
2.07812
2.07946
2.07994
2.07831
2.07794
2.07409
2.07681
2.07761
2.10007
2.10198
2.11218
2.10888
2.10444
2.10396
2.1056
2.11187
2.11035
2.10629
2.11446
2.11116
2.11018
2.10646
2.11084
2.10688
2.11075
2.10837
2.11369
2.12995
2.12966
2.13359
2.12595
2.13041
2.12893
2.12434
2.12564
2.13254
2.13045
2.1292
2.13024
2.13125
2.13083
2.09592
2.09278
2.09773
2.10207
2.10681
2.10107
2.09649
2.10511
2.09996
2.09465
2.09988
2.09099
2.10343
2.10038
2.09517
2.09719
2.09462
2.13296
2.1323
2.1338
2.13267
2.13677
2.13069
2.13331
2.13051
2.13207
2.13762
2.13995
2.1391
2.13613
2.13266
2.13424
2.14196
2.14514
2.13458
2.13702
2.1357
2.129
2.13553
2.12953
2.13262
2.13112
2.13294
2.13228
2.13086
2.1339
2.1353
2.13595
2.13045
2.12955
2.13135
2.0933
2.08831
2.09552
2.10192
2.08835
2.09247
2.09079
2.10153
2.0966
2.09421
2.09273
2.0917
2.09648
2.09686
2.09479
2.07776
2.07914
2.0697
2.07133
2.07231
2.12826
2.12372
2.13093
2.13071
2.13083
2.12062
2.12703
2.12654
2.11987
2.12472
2.11875
2.13228
2.12208
2.12848
2.12173
2.1285
2.03726
2.03288
2.02616
2.02652
2.03019
2.02674
2.02053
2.01954
2.01729
2.01707
2.02813
2.02558
2.01792
2.01872
2.02563
2.02231
2.02266
2.00706
2.01391
2.02155
2.01161
2.00573
2.01479
2.01294
2.00919
2.00922
2.00926
2.00214
2.0036
2.0046
2.00886
2.01113
2.10191
2.10363
2.1069
2.10557
2.1009
2.10047
2.10756
2.10743
2.10992
2.1041
2.10766
2.11168
2.0988
2.10908
2.10594
2.10064
2.10282
2.10169
2.06947
2.07372
2.06678
2.0654
2.07216
2.07377
2.07365
2.07298
2.06472
2.0735
2.06908
2.06878
2.06512
2.07134
2.0691
2.06325
2.12154
2.12288
2.12832
2.11823
2.12146
2.11361
2.11512
2.11769
2.11584
2.11364
2.11159
2.12039
2.11505
2.12086
2.12027
2.11781
2.12087
2.11409
2.11599
2.11582
2.11281
2.113
2.11367
2.11223
2.1142
2.1113
2.11045
2.10917
2.10894
2.10669
2.09547
2.09087
2.09979
2.09601
2.09009
2.09954
2.09203
2.09456
2.09557
2.0905
2.09564
2.0985
2.10923
2.11103
2.10978
2.11312
2.11307
2.11131
2.11097
2.11219
2.11251
2.11334
2.11411
2.1113
2.11259
2.11297
2.09681
2.09463
2.09308
2.09025
2.08714
2.08847
2.08338
2.09169
2.08681
2.09155
2.09027
2.08957
2.08849
2.08353
2.09122
2.08874
2.09281
2.08724
2.08462
2.0877
2.09123
2.08802
2.08118
2.08331
2.07755
2.08241
2.07851
2.07264
2.07538
2.08327
2.08633
2.08002
2.07918
2.08499
2.01953
2.01668
2.00856
2.01782
2.01203
2.01474
2.01864
2.02024
2.01482
2.01218
1.99816
2.0021
2.00863
2.00478
2.01636
2.00375
2.0007
2.00495
2.01613
2.02063
2.00835
2.00666
1.9881
1.988
1.99483
1.99134
1.98713
1.98326
1.98816
1.98447
1.9935
1.99538
1.99384
2.00134
1.99786
2.12562
2.12954
2.12385
2.12551
2.12224
2.12717
2.12685
2.12792
2.12624
2.12463
2.12232
2.11926
2.11354
2.12671
2.12714
2.11741
2.1165
2.11409
2.11635
2.11916
2.11856
2.11741
2.11384
2.1179
2.11375
2.11479
2.11873
2.11806
2.12604
2.12194
2.12233
2.11576
2.11481
2.11454
2.12266
2.12635
2.11276
2.11091
2.12155
2.12017
2.117
2.11319
2.12209
2.12101
2.07794
2.07921
2.07476
2.07726
2.07592
2.07009
2.06444
2.06505
2.07211
2.0681
2.07103
2.07465
2.06633
2.06293
2.06495
2.07476
2.06722
2.13404
2.12721
2.12785
2.12431
2.12679
2.13098
2.13237
2.1311
2.12646
2.13276
2.12599
2.13021
2.1345
2.13352
2.13551
2.1313
2.13052
2.1248
2.12191
2.13211
2.13393
2.12937
2.09089
2.09628
2.09077
2.09282
2.10007
2.09089
2.09574
2.09337
2.09865
2.09954
2.09849
2.10038
2.10187
2.10335
2.09104
2.08716
2.10012
2.09478
2.08738
2.08945
2.09213
2.09568
2.10104
2.08792
2.08766
2.09881
2.09478
2.0984
2.09947
2.09026
2.08791
2.10028
2.09763
2.08629
2.09291
2.08926
2.09853
2.09689
2.12922
2.12786
2.12709
2.12952
2.12863
2.12257
2.12938
2.1196
2.11975
2.12091
2.04526
2.04092
2.05097
2.05138
2.03787
2.03778
2.0432
2.04163
2.05325
2.04715
2.05515
2.05118
2.13581
2.13832
2.13622
2.13427
2.13455
2.13262
2.13422
2.131
2.13792
2.13729
2.11448
2.11579
2.11786
2.12158
2.11744
2.11861
2.11731
2.11789
2.11663
2.11876
2.1187
2.11536
2.11796
2.12336
2.11803
2.12192
2.12201
2.11956
2.12638
2.13475
2.1269
2.12933
2.1221
2.12795
2.12379
2.12034
2.12191
2.12255
2.12248
2.12418
2.12016
2.12038
2.08952
2.09495
2.08585
2.0929
2.08535
2.09176
2.08626
2.09114
2.09791
2.09325
2.09498
2.09217
2.09563
2.10036
2.09522
2.10003
2.09519
2.09708
2.09337
2.10169
2.10326
2.1043
2.09898
2.09848
2.09562
2.10053
2.09741
2.12883
2.1266
2.12837
2.12813
2.12738
2.12479
2.12982
2.12599
2.12426
2.12182
2.11716
2.11591
2.12667
2.12348
2.12196
2.11962
2.11536
2.11638
2.11772
2.11832
2.11594
2.11227
2.11478
2.06905
2.0707
2.07594
2.07573
2.07687
2.07752
2.07599
2.07532
2.07444
2.07189
2.07847
2.08159
2.0708
2.0782
2.07421
2.07533
2.07873
1.97387
1.97518
1.96982
1.96882
1.96097
1.9679
1.96547
1.97597
1.97307
1.97511
1.97558
1.97006
1.96809
1.97246
2.08005
2.08048
2.08062
2.08245
2.07856
2.08162
2.08847
2.08873
2.0872
2.08033
2.08325
2.07232
2.07993
2.0761
2.07868
2.07894
2.05756
2.05358
2.05085
2.05387
2.05781
2.05577
2.04945
2.04847
2.05895
2.04799
2.05415
2.05417
2.04859
2.00977
2.00613
1.98715
1.98963
2.00568
2.00477
2.00445
2.12203
2.12451
2.12505
2.12884
2.12175
2.12865
2.11918
2.11404
2.124
2.12373
2.12256
2.11844
2.1187
2.1213
2.1159
2.12082
2.1145
2.01514
2.01608
2.01882
2.01295
2.01836
2.02038
2.01565
2.01823
2.01008
2.00754
2.01459
2.01793
2.01027
2.02802
2.021
2.01896
2.01646
2.12317
2.12813
2.12921
2.12736
2.12955
2.12633
2.12392
2.12667
2.1279
2.12929
2.12836
2.12689
2.12339
2.12283
2.12417
2.11934
2.12083
2.12152
2.13449
2.13503
2.1355
2.13318
2.13592
2.13788
2.13812
2.13956
2.13851
2.14214
1.98614
1.98515
1.9809
1.97777
1.98385
1.97955
1.98419
1.98051
1.97346
1.97287
1.97928
1.97639
1.98032
1.98414
2.09654
2.09622
2.10184
2.09569
2.0875
2.0841
2.08444
2.09303
2.09285
2.09904
2.08457
2.08348
2.09629
2.09265
2.08858
2.09344
2.09425
2.10109
2.10214
2.10213
2.09906
2.10738
2.10696
2.1047
2.10205
2.0987
2.0993
2.10051
2.10468
2.10985
2.09928
2.0971
2.09448
2.09901
2.10453
2.10026
2.10432
2.09992
2.10404
2.1046
2.10557
2.10414
2.10452
2.10578
2.10386
2.10163
2.10329
2.09438
2.09499
2.092
2.09083
2.09507
2.10272
2.11046
2.10684
2.09731
2.09196
2.09722
2.0987
2.09964
2.09746
2.10333
2.09833
2.0978
2.09434
2.1114
2.11015
2.10176
2.10805
2.1094
2.10418
2.10794
2.10893
2.11198
2.10021
2.0922
2.10115
2.1035
2.10711
2.10541
2.10396
2.10419
2.09829
2.1317
2.13416
2.13259
2.13276
2.13549
2.13824
2.13709
2.13825
2.13771
2.14371
2.13849
2.13917
2.13582
2.13299
2.14305
2.13299
2.1316
2.13053
2.1308
2.12962
2.13128
2.13434
2.04414
2.04306
2.04496
2.03677
2.04698
2.04558
2.03849
2.0352
2.03711
2.0352
2.04451
2.04469
2.03748
2.05024
2.0506
2.04648
2.04024
2.04753
2.04483
2.04254
2.07265
2.06585
2.06974
2.0641
2.07103
2.06587
2.07035
2.06985
2.06782
2.06442
2.06646
2.0509
2.04818
2.13784
2.14486
2.14332
2.12154
2.11983
2.12897
2.10872
2.11209
2.11532
2.09751
2.10053
2.10066
2.08641
2.08067
2.08191
2.08066
2.07683
2.08229
2.08761
2.08962
2.11357
2.1073
2.1075
2.09607
2.10071
2.12795
2.12684
2.08247
2.08311
2.08306
2.0757
2.02636
2.01939
2.02291
2.09437
2.08972
2.09873
2.09246
2.06896
2.07195
2.06731
2.05981
2.13217
2.13299
2.11679
2.11121
2.11642
2.03983
2.04592
2.04004
1.992
1.98815
2.10287
2.10428
2.12379
2.11804
2.11885
2.05243
2.05464
2.13001
2.12578
2.08357
2.08051
2.0775
2.07627
2.12969
2.13358
2.13314
2.11636
2.11626
2.12398
2.12685
2.1271
2.10533
2.11119
2.06933
2.07045
2.06854
2.07425
2.09866
2.10596
2.10294
2.05713
2.05021
2.05819
2.10841
2.10633
2.10047
2.08531
2.08292
2.08196
2.08925
2.06973
2.06961
2.09273
2.09122
2.09395
2.01756
2.01905
2.07164
2.06971
2.06756
2.10431
2.1075
2.09491
2.09214
2.03597
2.03333
2.03677
2.09763
2.10248
2.09868
2.0511
2.05048
2.04202
2.02418
2.02689
2.08425
2.08984
2.0864
2.09755
2.0942
2.0975
2.10248
2.11668
2.11152
2.12832
2.12975
2.11962
2.11435
2.09656
2.10003
2.08599
2.08256
2.08852
2.11189
2.1133
2.1176
2.09253
2.08795
2.09739
2.09642
2.102
2.10356
2.09032
2.09367
2.09143
2.09429
2.10567
2.11412
2.11323
2.11792
2.11715
2.11007
2.11714
2.12144
2.11815
2.11184
2.1132
2.11815
2.1166
2.10194
2.10886
2.10148
2.1089
2.11349
2.11067
2.11857
2.1126
2.10929
2.112
2.11472
2.1118
2.10463
2.11032
2.1117
2.112
2.11191
2.11066
2.10369
2.12167
2.12664
2.0935
2.09626
2.09632
2.09368
2.09506
2.10061
2.10043
2.0994
2.09807
2.09508
2.09542
2.09505
2.08345
2.08295
2.08538
2.08491
2.08362
2.08805
2.08809
2.08708
2.08459
2.09225
2.08867
2.08683
2.08924
2.08976
2.09114
2.09205
2.09757
2.10245
2.09857
2.10098
2.09671
2.09512
2.09835
2.09345
2.09628
2.09398
2.10748
2.10452
2.08969
2.09588
2.09603
2.09194
2.08383
2.07871
2.07239
2.07516
2.07879
2.08488
2.08453
2.08308
2.10151
2.0972
2.10576
2.10699
2.1211
2.11893
2.11396
2.1171
2.11751
2.11958
2.11384
2.11667
2.11602
2.11579
2.11767
2.12152
2.11974
2.11765
2.10629
2.10948
2.11242
2.11015
2.11222
2.10391
2.0952
2.093
2.09509
2.09127
2.09096
2.08884
2.09015
2.07726
2.06788
2.08196
2.08448
2.07198
2.08179
2.07887
2.10149
2.09812
2.09966
2.08769
2.09247
2.09635
2.09177
2.08712
2.09019
2.08772
2.07158
2.07148
2.062
2.07632
2.07713
2.08606
2.08486
2.07831
2.08943
2.08971
2.08837
2.07837
2.11373
2.10897
2.10011
2.1007
2.0932
2.09793
2.09506
2.0951
2.09185
2.09576
2.10482
2.10428
2.09331
2.09589
2.09107
2.09855
2.09462
2.09642
2.10147
2.10684
2.10323
2.10242
2.09996
2.10189
2.1175
2.11487
2.11887
2.11541
2.11035
2.11257
2.11758
2.11043
2.11755
2.11383
2.10791
2.12179
2.11304
2.11427
2.11721
2.11605
2.13001
2.13063
2.12295
2.11437
2.11661
2.11629
2.11659
2.11476
2.11315
2.11654
2.10499
2.1132
2.10529
2.112
2.10875
2.1224
2.12594
2.12651
2.1216
2.12247
2.12527
2.13077
2.13022
2.1223
2.12364
2.12258
2.12394
2.13001
2.12904
2.13674
2.13996
2.13736
2.12321
2.12661
2.1129
2.11957
2.11635
2.11335
2.1149
2.10324
2.11659
2.11188
2.1229
2.12685
2.12952
2.1242
2.11562
2.1169
2.12337
2.12143
2.09817
2.09246
2.09613
2.10118
2.10014
2.10066
2.10584
2.10363
2.10391
2.10294
2.09714
2.09946
2.10283
2.09816
2.10394
2.09059
2.09426
2.0948
2.09308
2.09505
2.09612
2.09779
2.09747
2.09708
2.09709
2.09605
2.10054
2.09863
2.09611
2.09542
2.08781
2.09062
2.08256
2.07321
2.08392
2.07421
2.07308
2.08212
2.08453
2.02722
2.0319
2.03326
2.02805
1.99656
1.99424
1.99929
1.99326
2.04055
2.04558
2.04272
2.04063
2.03704
2.03184
2.03536
2.03504
2.03221
2.03924
2.03295
2.03554
2.03168
2.03366
2.01983
2.02732
2.02449
2.02386
2.02604
2.02161
2.02396
2.01198
2.01121
2.01542
2.01873
2.00169
2.00415
2.01355
2.01367
2.01405
2.01656
2.02025
2.06544
2.06361
2.06818
2.06442
2.06347
2.05575
2.05278
2.06151
2.06219
2.05135
2.0527
2.04651
2.03615
2.04449
2.05135
2.04924
2.0474
2.04846
2.04523
2.08761
2.08346
2.08131
2.09079
2.10669
2.10498
2.09928
2.09686
2.09013
2.0889
2.08501
2.09572
2.09913
2.10408
2.09552
2.09753
2.10027
2.10668
2.09947
2.08802
2.0947
2.10029
2.09277
2.09804
2.09514
2.10393
2.10018
2.09756
2.09926
2.09785
2.10632
2.09572
2.09935
2.10119
2.10113
2.10304
2.09997
1.99855
1.99359
2.00489
2.03273
2.03253
2.02491
2.02568
2.01608
2.01513
2.00592
2.02441
2.0236
2.02738
2.01931
2.0185
2.02853
2.05658
2.0395
2.04505
2.03237
2.03772
2.05394
2.03841
2.03308
2.02381
2.0303
2.09945
2.0945
2.10273
2.10006
2.09741
2.09563
2.0871
2.09061
2.08265
2.10829
2.10375
2.09587
2.10178
2.10321
2.09904
2.09677
2.09709
2.09636
2.07274
2.07571
2.08841
2.08816
2.08905
2.0881
2.08893
2.09001
2.09818
2.09321
2.09502
2.09221
2.08688
2.08541
2.0858
2.09305
2.09983
2.10489
2.10232
2.11018
2.11524
2.11002
2.10608
2.11647
2.10792
2.11181
2.11212
2.10647
2.10574
2.10363
2.10628
2.10628
2.11412
2.11097
2.10687
2.10879
2.10443
2.10561
2.10753
2.10094
2.09941
2.10453
2.10943
2.1074
2.09566
2.10113
2.11254
2.1042
2.10772
2.10828
2.0694
2.06972
2.06203
2.07191
2.06856
2.06774
2.06174
2.06669
2.06993
2.07078
2.07843
2.0729
2.07467
2.05997
2.06272
2.06366
2.06352
2.06236
2.06415
2.05947
2.06239
2.05785
2.06182
2.05671
2.06271
2.06049
2.05709
2.06015
2.05896
2.0617
2.07052
2.06174
2.06043
2.06693
2.06773
2.06408
2.07087
2.06862
2.0673
2.06914
2.01814
2.03005
2.0219
2.01046
2.00998
2.015
2.01343
2.02885
2.02952
2.02303
2.02243
2.02363
2.00769
2.00078
2.00946
2.0305
2.02306
2.0391
2.02503
2.02638
2.02375
2.02961
2.02671
2.02373
2.01973
2.01511
2.02229
2.01671
2.02172
2.10294
2.09713
2.09474
2.09777
2.0958
2.08054
2.08517
2.07389
2.07676
2.07541
2.08219
2.07884
2.09642
2.09728
2.09645
2.09433
2.09351
2.09524
2.07263
2.07338
2.07745
2.07906
2.08031
2.07037
2.0711
2.07942
2.07739
2.07747
2.07835
2.0624
2.06144
2.06063
2.06972
2.06911
2.06802
2.06017
2.06905
2.07133
2.0689
2.06961
2.08757
2.09393
2.08429
2.08215
2.08515
2.07417
2.08122
2.0868
2.07734
2.08133
2.09061
2.09602
2.09282
2.0912
2.09131
2.09824
2.09234
2.08636
2.09319
2.09348
2.08158
2.08038
2.08592
2.08245
2.07514
2.0802
2.08155
2.07699
2.08328
2.07918
2.07924
2.07998
2.08494
2.08094
2.08821
2.08977
2.08455
2.07837
2.08992
2.08997
2.04048
2.04116
2.03406
2.04253
2.03501
2.06023
2.05399
2.05713
2.05478
2.0548
2.04948
2.04948
2.03957
2.042
2.03372
2.04924
2.04827
2.05776
2.0505
2.05162
2.05053
2.04954
2.04756
2.0672
2.056
2.06237
2.0703
2.06141
2.10968
2.10188
2.11049
2.10494
2.11019
2.10214
2.11736
2.11006
2.10291
2.10411
2.06057
2.06522
2.05804
2.07186
2.06583
2.06592
2.06823
2.07347
2.06946
2.06912
2.06994
2.06798
2.07138
2.0798
2.0745
2.07205
2.07745
2.07287
2.07707
2.07741
2.07181
2.09912
2.10835
2.10318
2.10136
2.10476
2.10704
2.10566
2.10487
2.10474
2.10737
2.11273
2.11576
2.11308
2.11281
2.10914
2.11534
2.11575
2.1349
2.13181
2.1247
2.12696
2.12164
2.12251
2.12794
2.12666
2.13305
2.12961
2.1234
2.11999
2.11725
2.12073
2.11801
2.1272
2.12987
2.12613
2.13139
2.1307
2.12815
2.12663
2.12928
2.12949
2.12322
2.11969
2.12016
2.12081
2.12066
2.11999
2.12135
2.12122
2.12363
2.1214
2.13123
2.1215
2.1245
2.12414
2.11984
2.12049
2.12576
2.11786
2.11837
2.11697
2.12307
2.11539
2.11849
2.12772
2.12115
2.12035
2.11986
2.11732
2.11877
2.11776
2.12127
2.12088
2.11159
2.10921
2.11749
2.11266
2.11374
2.11095
2.11288
2.13522
2.12951
2.13269
2.13466
2.13152
2.13369
2.1293
2.12358
2.12518
2.12761
2.12578
2.12481
2.08516
2.08154
2.07862
2.07978
2.07663
2.09097
2.0871
2.08566
2.0871
2.08594
2.09096
2.07782
2.07947
2.07878
2.12261
2.13371
2.12673
2.13524
2.13243
2.13506
2.13149
2.12653
2.13101
2.13889
2.13732
2.13749
2.1267
2.13827
2.13336
2.13449
2.13384
2.06422
2.06283
2.04831
2.05173
2.04713
2.06782
2.06269
2.05972
2.0628
2.06497
2.06177
2.06071
2.04677
2.05038
2.05753
2.05661
2.06225
2.05939
2.0482
2.05107
2.04601
2.04809
2.05346
2.05054
2.12325
2.11793
2.12349
2.12411
2.10082
2.09503
2.10186
2.10355
2.10118
2.09799
2.09378
2.09983
2.0998
2.09919
2.10179
2.09672
2.1027
1.96285
1.96413
1.99708
2.00416
1.99876
2.00258
1.9749
1.98172
1.98162
1.99889
1.99553
2.00376
1.99313
1.98794
1.98401
1.98551
1.99083
1.98341
1.98208
1.98084
1.98539
1.97554
1.97706
1.98228
2.0473
2.04382
2.04418
2.0506
2.05414
2.04656
2.04347
2.03545
2.02933
2.03294
2.03751
2.04068
2.04791
2.05362
2.04624
2.041
2.03594
2.04309
2.04655
2.04453
2.04335
2.12289
2.11488
2.11943
2.11572
2.11086
2.10941
2.10776
2.11926
2.10762
2.11098
2.11682
2.11411
2.11735
2.1062
2.11256
2.10831
2.10825
2.10443
2.1112
2.06079
2.05988
2.05557
2.05126
2.05313
2.08225
2.07583
2.13545
2.13085
2.13988
2.12325
2.12143
2.12724
2.13188
2.13586
2.13052
2.13276
2.12963
2.13263
2.13055
2.12501
2.12234
2.12727
2.12563
2.13188
2.12402
2.12976
2.12921
2.12553
2.06771
2.07256
2.07128
2.06952
2.07051
2.06718
2.06014
2.05282
2.06301
2.07034
2.06717
2.07455
2.07381
2.07838
2.08
2.07659
2.06957
2.06866
2.06937
2.0679
2.07596
2.07287
2.05851
2.06164
2.06301
2.06605
2.06427
2.054
2.05547
2.06413
2.06419
2.09074
2.09341
2.0908
2.08847
2.09831
2.09569
2.09392
2.08844
2.09415
2.09819
2.09185
2.09765
2.09791
2.00905
2.01598
2.01275
2.01835
2.02262
2.05499
2.0391
2.0484
2.03951
2.03577
2.02877
2.02767
2.01084
2.01992
2.01671
2.01895
2.03082
2.02823
2.02792
2.03176
2.03562
2.02739
2.02446
2.02576
2.02268
2.02037
2.09619
2.09482
2.10149
2.09308
2.08777
2.08839
2.08786
2.07842
2.08442
2.07923
2.11841
2.12026
2.12327
2.11181
2.12105
2.1301
2.12435
2.11739
2.11837
2.12284
2.11687
2.12709
2.12712
2.10665
2.10248
2.09907
2.10731
2.09537
2.10475
2.08846
2.09278
2.10008
2.09446
2.09672
2.10123
2.10411
2.09923
2.10043
2.09941
2.09407
2.09499
2.09737
2.09309
2.09346
2.08954
2.10257
2.11038
2.10679
2.10788
2.10673
2.10328
2.10979
2.11188
2.11009
2.11289
2.10622
2.1087
2.1047
2.10833
2.10877
2.10677
2.10393
2.10331
2.10214
2.10518
2.10516
2.09883
2.10675
2.10622
2.10454
2.10082
2.10178
2.09601
2.092
2.08173
2.0857
2.07682
2.07948
2.0874
2.08491
2.0789
2.08506
2.08723
2.08844
2.08611
2.08342
2.07844
2.06728
2.07505
2.0751
2.07323
2.06956
2.06816
2.07178
2.06653
2.06983
2.07411
2.08591
2.08646
2.08151
2.07535
2.07833
2.08273
2.08178
2.07837
2.08464
2.07798
2.07651
2.07618
2.07781
2.06467
2.06872
2.07821
2.0775
2.0782
2.07706
2.07926
2.08031
2.06952
2.06668
2.09644
2.08964
2.09169
2.09473
2.08837
2.09082
2.08612
2.08613
2.09187
2.08805
2.08706
2.07516
2.07208
2.07499
2.07901
2.07143
2.078
2.11028
2.10615
2.10227
2.09625
2.10125
2.09386
2.09396
2.10737
2.1089
2.09873
2.10203
2.11742
2.11022
2.12485
2.12041
2.11493
2.10718
2.10957
2.11012
2.10246
2.10547
2.10285
2.09861
2.10396
2.10915
2.11101
2.11297
2.10755
2.11617
2.11663
2.11719
2.1157
2.10756
2.11148
2.10869
2.10529
2.12314
2.11693
2.11604
2.11885
2.11469
2.11522
2.12773
2.13296
2.1218
2.1245
2.11926
2.1202
2.11336
2.11718
2.11072
2.11843
2.11638
2.11974
2.11792
2.12405
2.11805
2.12105
2.12101
2.11962
2.14018
2.14363
2.13674
2.13431
2.13398
2.00029
1.99385
2.00218
2.05902
2.05695
2.05666
2.04533
2.05038
2.04907
2.05002
2.0534
2.05181
2.1303
2.13192
2.1369
2.13272
2.13214
2.13338
2.11964
2.12185
2.12473
2.12193
2.11958
2.11825
2.1183
2.11832
2.13034
2.13193
2.12882
2.12669
2.12991
2.11791
2.11947
2.11612
2.11459
2.10885
2.1055
2.11699
2.11499
2.11487
2.10991
2.10682
2.11519
2.10847
2.12457
2.11933
2.12654
2.12053
2.1232
2.12129
2.12214
2.11543
2.08752
2.09381
2.09647
2.09085
2.08944
2.10012
2.09857
2.09365
2.09083
2.06528
2.07157
2.065
2.05168
2.05963
2.06465
2.0728
2.05696
2.05281
2.11499
2.11896
2.11212
2.11216
2.10762
2.10718
2.10833
2.11032
2.1186
2.11
2.10793
2.11248
2.11077
2.11398
2.11135
2.10841
2.10959
2.10937
2.10537
2.10391
2.09093
2.09227
2.09005
2.08992
2.0858
2.0946
2.0919
2.0863
2.08241
2.0888
2.09083
2.08969
2.08938
2.08557
2.08284
2.09123
2.09697
2.09194
2.08762
2.08774
2.02598
2.0921
2.08349
2.08913
2.09301
2.09474
2.09725
2.10441
2.10296
2.09913
2.09729
2.09308
2.09542
2.09011
2.10051
2.09704
2.09245
2.08926
2.03325
2.02334
2.0202
2.02774
2.02017
2.01982
2.02871
2.02987
2.03679
2.03116
2.0185
2.01238
2.00026
2.00752
2.00992
2.01211
2.01274
1.99705
2.00178
2.01019
2.00223
1.99523
2.00469
2.00402
2.10236
2.09316
2.10057
2.10197
2.09598
2.09299
2.09517
2.09644
2.09983
2.09641
2.09724
2.08903
2.08574
2.08552
2.0873
2.09074
2.08576
2.09043
2.08764
2.08345
2.08086
2.1017
2.09728
2.09848
2.08989
2.09012
2.09444
2.09806
2.09366
2.09247
2.09572
2.07299
2.07438
2.07698
2.07471
2.07331
2.08146
2.07871
2.08073
2.07778
2.07148
2.07362
2.07205
2.08102
2.08891
2.08819
2.07566
2.07106
2.08278
2.07246
2.07233
2.0787
2.0784
2.06648
2.07276
2.07344
2.07038
2.07215
2.07642
2.07005
2.06915
2.06823
2.06604
2.13772
2.13695
2.13392
2.13975
2.13778
2.13872
2.131
2.13841
2.13671
2.09501
2.10312
2.09661
2.09873
2.09584
2.09933
2.10925
2.10678
2.11054
2.1078
2.10627
2.10437
2.10389
2.1029
2.03157
2.02639
2.0213
2.02513
2.03
2.03672
2.03257
2.03612
1.98883
1.99387
1.99335
1.98474
1.97672
1.97376
1.97179
1.97867
1.98357
2.09271
2.09858
2.09945
2.10094
2.09497
2.10533
2.10039
2.10034
2.09839
2.09558
2.09688
2.09796
2.09745
2.0955
2.09713
2.05667
2.05356
2.04418
2.04923
2.08138
2.08254
2.07432
2.07249
2.06658
2.06742
2.06655
2.07216
2.06546
2.06315
2.0765
2.07305
2.0695
2.07576
2.0719
2.07031
2.06817
2.0709
2.0721
2.07023
2.0676
2.06433
2.06088
2.06018
2.05733
2.05375
2.06462
2.06399
2.06552
2.06565
2.05975
2.06105
2.05344
2.13395
2.12996
2.12642
2.12585
2.13261
2.13483
2.13296
2.12934
2.12465
2.12499
2.12134
2.12551
2.12396
2.12741
2.12141
2.12219
2.12206
2.11983
2.12039
2.1353
2.1315
2.13969
2.13045
2.13399
2.12886
2.13235
2.1304
2.12669
2.13313
2.13247
2.12561
2.12439
2.12844
2.12665
2.12757
2.12359
2.12557
2.12894
2.12462
2.12259
2.12507
2.13013
2.13161
2.13396
2.12664
2.1319
2.1304
2.13287
2.13371
2.12745
2.12597
2.13161
2.13275
2.12635
2.12965
2.12704
2.11455
2.11698
2.11537
2.11712
2.11747
2.1168
2.11768
2.1176
2.12144
2.12127
2.11274
2.11827
2.12206
2.12046
2.12131
2.12264
2.11993
2.1208
2.12229
2.12244
2.12291
2.12399
2.12592
2.12594
2.1244
2.12467
2.12471
2.12381
2.12425
2.12787
2.12289
2.12534
2.12754
2.12969
2.12612
2.05611
2.05654
2.05748
2.05657
2.0676
2.06321
2.07303
2.06037
2.06294
2.06199
2.0593
2.07742
2.07089
2.07237
2.08197
2.07585
2.07167
2.06421
2.07954
2.05368
2.03806
2.03538
2.05171
2.04723
2.04847
2.03847
2.04456
2.06261
2.05427
2.05513
2.05834
2.05227
2.05346
2.05642
2.046
2.04827
2.05361
2.04667
2.0498
2.04837
2.05411
2.03681
2.03706
2.02798
2.03459
2.03488
2.03025
2.04158
2.03437
2.03831
2.03442
2.09416
2.09433
2.08993
2.0977
2.09659
2.09567
2.09081
2.09943
2.0912
2.09235
2.08584
2.08874
2.09896
2.09666
2.06838
2.06709
2.07343
2.07096
2.07224
2.07648
2.06817
2.0732
2.06579
2.06736
2.07023
2.07753
2.08053
2.08148
2.08078
2.07051
2.0737
2.07305
2.08047
2.07915
2.07922
2.08087
2.07657
2.07606
2.07266
2.07259
2.09509
2.09457
2.10197
2.10898
2.10597
2.10038
2.09257
2.09532
2.10528
2.0997
2.09234
2.08697
2.07758
2.0859
2.07973
2.08093
2.07637
2.08691
2.07542
2.09343
2.08528
2.08767
2.09337
2.09654
2.09716
2.09708
2.08702
2.04497
2.04009
2.03929
2.03018
2.02868
2.02339
2.03605
2.02567
2.0275
2.03897
2.04203
2.03647
2.03574
2.04292
2.04645
2.04569
2.03653
2.04621
2.04365
2.04246
2.03939
2.00362
2.00761
2.00053
1.99693
2.00255
1.99502
1.9979
1.99947
1.99554
2.0281
2.02802
2.02455
2.03122
2.02995
2.02897
2.02469
2.0445
2.04324
2.04041
2.05304
2.0471
2.05259
2.05221
2.04023
2.04416
2.05255
2.05248
2.053
2.05255
2.0616
2.06028
2.05947
2.05862
2.05387
2.05109
2.04664
2.04842
2.05088
2.05656
2.05818
2.07696
2.07312
2.07759
2.0713
2.07361
2.07336
2.07377
2.0745
2.07562
2.10177
2.1009
2.10773
2.11527
2.10875
2.05921
2.06605
2.06895
2.05907
2.05635
2.0487
2.07555
2.07384
2.07031
2.06503
2.06502
2.05861
2.04107
2.04952
2.04625
2.04243
2.03555
2.03482
2.03714
2.04422
2.03654
2.04711
2.04244
1.9934
1.99199
1.98125
1.98338
1.97744
1.97523
1.9899
1.9951
1.98415
1.97767
1.98758
1.99039
2.08817
2.09626
2.09115
2.09221
2.10081
2.10159
2.10477
2.10603
2.09702
2.09877
2.09759
2.1082
2.10207
2.09788
2.10192
2.10124
2.10511
2.10398
2.0617
2.05933
2.05237
2.05337
2.05073
2.0538
2.05465
2.04692
2.04879
2.05234
2.05236
2.05367
2.05735
2.05686
2.05845
2.05492
2.06078
2.061
1.98677
1.99207
1.98849
1.98155
1.99408
2.01916
2.0243
2.02448
2.0266
2.02004
2.01567
2.03639
2.03451
2.09862
2.10056
2.09473
2.1062
2.10161
2.09909
2.10352
2.10214
2.10367
2.11686
2.11705
2.11103
2.10489
2.10242
2.10249
2.09947
2.10181
2.09831
2.10815
2.09959
2.10452
2.1025
2.10532
2.10422
2.10834
2.1052
2.10572
2.10736
2.10201
2.10028
2.12782
2.13506
2.12714
2.13502
2.12557
2.12777
2.12527
2.12471
2.11736
2.11796
2.12373
2.11891
2.1207
2.12291
2.12389
2.11371
2.11722
2.11339
2.11684
2.12083
2.12024
2.1181
2.11912
2.13067
2.13058
2.08093
2.09341
2.08894
2.08204
2.0859
2.08933
2.09345
2.06512
2.06402
2.07032
2.06876
2.07835
2.07058
2.08098
2.07834
2.07458
2.07675
2.07989
2.08678
2.09728
2.09391
2.08637
2.08608
2.09136
2.09579
2.08584
2.09875
2.08499
2.09857
2.08511
2.08376
2.09147
2.09267
2.0874
2.12577
2.12837
2.12758
2.12494
2.12219
2.12615
2.12338
2.10655
2.11083
2.10772
2.10115
2.1015
2.10333
2.1031
2.10817
2.10463
2.10314
2.10532
2.1077
2.1077
2.08559
2.08427
2.08871
2.08446
2.08637
2.07791
2.08335
2.08633
2.0861
2.0911
2.09291
2.08932
2.09333
2.09428
2.09377
2.093
2.08705
2.08825
2.09119
2.09107
2.12153
2.1207
2.1177
2.12327
2.11514
2.11659
2.11713
2.11555
2.11712
2.11386
2.11943
2.11851
2.10935
2.11675
2.11443
2.10776
2.10836
2.11053
2.11055
2.11196
2.11264
2.11077
2.10909
2.1028
2.10334
2.09772
2.09697
2.09922
2.1003
2.10211
2.10247
2.09983
2.10263
2.0399
2.05479
2.06346
2.06599
2.06274
2.06677
2.06391
2.06166
2.05304
2.06275
2.05003
2.05189
2.0648
2.06672
2.09873
2.0937
2.08828
2.0991
2.09757
2.09318
2.09204
2.09654
2.08826
2.08638
2.09398
2.08617
2.09597
2.09805
2.09651
2.09053
2.09679
2.09569
2.09724
2.10282
2.09873
2.09884
2.09594
2.10302
2.10231
2.12323
2.12263
2.12117
2.12153
2.11942
2.12003
2.12376
2.11755
2.11694
2.11968
2.11986
2.13796
2.13309
2.13593
2.14106
2.14486
2.14198
2.13687
2.13896
2.0765
2.07754
2.08655
2.09125
2.08457
2.08477
2.07751
2.08242
2.07847
2.08641
2.08727
2.0819
2.08367
2.08845
2.086
2.10414
2.10401
2.10681
2.10338
2.09754
2.10363
2.09899
2.09766
2.09988
2.09519
2.10003
2.10147
2.09863
2.10143
2.10449
2.09954
2.11417
2.12062
2.11813
2.11245
2.11888
2.11524
2.11687
2.11223
2.11427
2.11771
2.11697
2.10866
2.13887
2.13637
2.14059
2.13473
2.13556
2.1362
2.05933
2.05652
2.06002
2.06084
2.05586
2.05644
2.05492
2.05386
2.06388
2.06743
2.06784
2.12365
2.10636
2.11306
2.13097
2.12241
2.12599
2.13272
2.13072
2.0871
2.08756
2.08908
2.09306
2.09211
2.08814
2.08847
2.08658
2.09354
2.09127
2.08911
2.09085
2.08533
2.11031
2.11149
2.11371
2.11143
2.11423
2.10827
2.10827
2.09285
2.09165
2.0819
2.08743
2.07714
2.07707
2.08268
2.08552
2.09039
2.08699
2.08881
2.0879
2.0894
2.08992
2.08418
2.08162
2.08351
2.11924
2.11826
2.11586
2.10726
2.11512
2.10374
2.11075
2.11408
2.11051
2.10626
2.11184
2.11064
2.11058
2.10803
2.09028
2.09026
2.09096
2.09212
2.09148
2.09858
2.102
2.09701
2.09663
2.10027
2.08525
2.09135
2.09098
2.08773
2.09015
2.08569
2.09433
2.08461
2.08236
2.0833
2.09006
2.09255
2.09215
2.09557
2.11311
2.11003
2.11705
2.09291
2.09417
2.08957
2.10586
2.10011
2.09724
2.10133
2.1033
2.09868
2.09803
2.11299
2.10919
2.11261
2.11228
2.11184
2.10751
2.11983
2.13803
2.11782
2.10251
2.10219
2.10362
2.10294
2.10099
2.09575
2.09624
2.1016
2.10137
2.0985
2.09627
2.08556
2.08226
2.07477
2.07427
2.0837
2.08216
2.07833
2.08249
2.08344
2.08638
2.0848
2.02006
2.02754
2.03102
2.01186
2.01709
2.02941
2.03314
2.01891
2.01281
2.05222
2.05116
2.05413
2.09035
2.08464
2.09526
2.09428
2.104
2.09433
2.09412
2.10194
2.09392
2.09405
2.09588
2.0939
2.09687
2.09239
2.10362
2.09687
2.09561
2.09711
2.09402
2.09767
2.09967
2.09964
2.09659
2.10102
2.09847
2.08754
2.09209
2.09123
2.08689
2.08595
2.09771
2.09573
2.09057
2.09336
2.09265
2.09274
2.06419
2.06438
2.03968
2.03747
2.03646
2.03633
2.02915
2.02881
2.03405
2.04207
2.03324
2.03117
2.03031
2.00176
2.00546
2.01371
2.01213
2.01297
2.01246
2.00387
2.00392
2.00207
2.01399
2.01359
2.00879
2.01116
2.0691
2.06532
2.0741
2.07347
2.07213
2.07062
2.06311
2.06326
2.06479
2.06051
2.06443
2.06879
2.07248
2.04818
2.04327
2.10716
2.11286
2.10461
2.11317
2.1136
2.11308
2.11334
2.10996
2.11005
2.10436
2.11655
2.10645
2.12269
2.12073
2.11629
2.11311
2.11421
2.11185
2.11739
2.1218
2.12054
2.11454
2.11986
2.11671
2.13555
2.1374
2.12619
2.1292
2.13446
2.13597
2.13462
2.13851
2.13258
2.13478
2.13548
2.05588
2.07093
2.06689
2.07161
2.06981
2.07096
2.06757
2.06121
2.06599
2.06757
2.06452
2.05624
2.05278
2.05872
2.00483
1.98813
1.98711
1.99614
1.997
1.99303
1.9992
2.00191
1.99089
1.9912
1.99925
2.00179
2.10931
2.11182
2.10521
2.10889
2.118
2.10645
2.11107
2.11664
2.11214
2.11567
2.11944
2.11473
2.11032
2.11633
2.11223
2.11171
2.11333
2.12713
2.12647
2.11803
2.11718
2.12623
2.12223
2.05985
2.05838
2.06196
2.06138
2.06518
2.06154
2.06114
2.05936
2.06624
2.06582
2.06614
2.06651
2.05333
2.04326
2.03828
2.04802
2.04882
2.0541
2.05443
2.04481
2.03918
2.09476
2.09329
2.08294
2.09702
2.10669
2.11372
2.10831
2.10789
2.11052
2.10725
2.11215
2.10794
2.10544
2.08336
2.08326
2.08257
2.083
2.08713
2.08827
2.08973
2.08449
2.08774
2.08838
2.06737
2.08178
2.07744
2.0743
2.06687
2.07127
2.06956
2.06841
2.07757
2.07714
2.08093
2.12723
2.11688
2.11959
2.1175
2.11637
2.10271
2.11324
2.11148
2.11596
2.1069
2.10885
2.10653
2.10609
2.1206
2.12473
2.13008
2.1318
2.12273
2.12186
2.11851
2.11709
2.12049
2.1195
2.13221
2.12907
2.13137
2.1317
2.12936
2.13463
2.13664
2.13947
2.13665
2.13346
2.08487
2.08954
2.08935
2.05946
2.04929
2.04095
2.04127
2.05471
2.04481
2.04364
2.03613
2.04194
2.04631
2.08351
2.08978
2.08519
2.08494
2.08754
2.09021
2.09024
2.09032
2.08878
2.0894
2.08921
2.02404
2.01799
2.02632
2.02588
2.02575
2.027
2.02427
2.02801
2.03246
2.03202
2.02918
2.02735
2.02017
2.09544
2.09771
2.10364
2.10206
2.1003
2.09541
2.08867
2.07609
2.07888
2.08162
2.08745
2.08331
2.07846
2.08761
2.09041
2.08394
2.08824
2.08244
2.08891
2.08594
2.0692
2.06699
2.07103
2.08115
2.07548
2.07952