/*--------------------------------*- C++ -*----------------------------------*\
| =========                 |                                                 |
| \\      /  F ield         | OpenFOAM: The Open Source CFD Toolbox           |
|  \\    /   O peration     | Version:  v1612+                                |
|   \\  /    A nd           | Web:      www.OpenFOAM.com                      |
|    \\/     M anipulation  |                                                 |
\*---------------------------------------------------------------------------*/
FoamFile
{
    version     2.0;
    format      ascii;
    class       surfaceScalarField;
    location    "166";
    object      phi;
}
// * * * * * * * * * * * * * * * * * * * * * * * * * * * * * * * * * * * * * //

dimensions      [0 3 -1 0 0 0 0];

internalField   nonuniform List<scalar> 
37865
(
1.86093e-09
-2.31e-09
9.53691e-09
-9.08785e-09
-2.98439e-09
-2.9448e-09
1.73503e-09
4.1942e-09
-6.55719e-09
-6.39103e-10
4.2119e-09
-2.99294e-09
-8.04029e-10
-8.27447e-09
1.20715e-08
-1.37504e-08
-4.62053e-09
1.5378e-08
-1.06266e-08
-2.80576e-10
-2.84327e-09
3.96941e-09
-5.31776e-09
-1.59641e-09
-5.41637e-09
2.82859e-09
-5.35626e-09
-2.02136e-09
2.0599e-09
-3.99191e-09
2.40319e-09
-3.76753e-09
-2.65765e-09
3.58868e-09
-4.20053e-09
-2.37554e-09
1.9555e-09
-7.91576e-09
-6.91131e-09
-3.98513e-09
1.98881e-09
-2.49907e-11
-5.96743e-09
-2.0096e-09
-8.46496e-10
-2.16668e-09
-7.86245e-09
3.67411e-09
1.53073e-09
-6.03039e-09
3.01575e-09
-3.57593e-09
-2.29768e-09
-4.9101e-09
-3.10023e-09
9.45712e-11
-3.82875e-09
-3.04812e-09
-2.50801e-09
-6.23083e-09
6.38311e-09
-2.52334e-09
-3.47845e-09
-3.81362e-10
5.83981e-09
7.67188e-09
-7.1286e-09
-8.72912e-09
2.22171e-09
5.51795e-09
9.89426e-10
-5.37574e-09
-5.87673e-09
1.11767e-09
6.94383e-09
-1.73659e-09
-8.81778e-09
5.17862e-09
-2.99074e-09
5.09378e-10
-7.25724e-10
3.20706e-09
-4.61112e-09
-1.69984e-09
7.42861e-09
-2.09432e-09
-5.83478e-09
3.31793e-09
6.14953e-09
-1.10266e-08
2.78267e-09
8.39168e-09
-3.942e-09
2.4615e-09
-7.18884e-09
-4.64373e-09
-6.81667e-10
-5.64724e-09
1.45995e-09
-6.83928e-09
-7.82948e-09
-3.22777e-09
6.60516e-10
7.03399e-09
-4.46668e-09
-4.78041e-10
9.52565e-09
-1.22754e-08
-7.81836e-09
-5.68469e-09
2.34609e-09
1.1157e-08
-4.09542e-09
-1.87819e-09
-1.84474e-09
2.56475e-09
7.2336e-09
-1.02764e-08
5.34183e-09
-2.11657e-09
-2.89072e-09
6.79831e-09
3.12642e-09
8.0365e-09
-1.40155e-09
5.16167e-09
-1.06704e-08
1.27423e-08
1.51671e-08
-1.96887e-09
-7.74568e-09
-5.46975e-09
7.53076e-09
-7.30897e-09
-4.53213e-09
8.73791e-09
-3.81777e-09
-3.16505e-09
1.42491e-08
1.87208e-08
-6.71871e-09
6.02745e-09
-7.99459e-09
2.30404e-09
-1.7463e-09
7.35662e-11
6.12772e-09
-4.64278e-10
-5.73698e-09
3.4918e-09
-3.37578e-09
-4.24408e-11
3.56813e-09
-6.86962e-09
-6.301e-09
9.60249e-09
-1.36186e-09
-3.87351e-09
8.8035e-09
4.31436e-09
-2.46849e-10
2.06022e-09
-3.69738e-09
6.64989e-09
4.57046e-09
-1.10315e-08
-4.08593e-10
-3.23191e-09
3.92886e-09
-1.76579e-10
-2.90061e-11
3.20578e-09
3.62297e-09
-4.49352e-09
-2.33523e-09
-2.02712e-10
-9.55373e-09
3.00589e-09
-3.66035e-09
-3.74817e-09
-9.48018e-09
-3.73389e-09
7.4973e-09
-1.20977e-08
-7.60882e-09
9.4925e-09
-5.4596e-09
-1.6146e-09
-4.9039e-09
4.22087e-09
1.61159e-09
-3.25116e-09
1.31025e-09
7.41044e-10
-4.39678e-10
1.75013e-09
4.46237e-09
-4.68176e-09
5.34076e-10
-7.05507e-11
3.09947e-10
7.47294e-09
-1.81769e-09
3.87778e-09
2.66372e-11
-2.88203e-09
-4.71713e-09
2.64183e-09
4.95732e-09
-2.07007e-09
-7.28807e-10
-8.31593e-11
-5.57945e-09
-1.29055e-09
2.15287e-09
-4.1945e-09
-3.45504e-09
1.01378e-08
-3.29098e-09
-1.12816e-08
4.43481e-09
6.23648e-09
2.61077e-09
3.56178e-09
7.17113e-10
-2.98365e-09
-1.29526e-09
-2.85539e-09
1.43302e-09
4.98415e-09
-2.04622e-09
-9.20644e-11
3.43015e-09
8.52596e-09
-5.71964e-09
7.505e-09
5.822e-10
-8.06768e-09
-2.58825e-09
-1.8679e-10
-2.18259e-09
-4.33239e-11
-7.57739e-10
-4.18864e-09
2.77498e-09
-6.37062e-10
3.99747e-09
-6.13537e-09
1.93963e-09
7.46528e-09
-6.62992e-09
4.16544e-10
2.05118e-09
-8.52679e-09
6.05907e-09
2.01798e-09
-6.53555e-09
3.88053e-09
4.14555e-09
-7.86929e-09
5.74176e-09
-8.78082e-09
1.84913e-10
1.27415e-08
8.64269e-09
-7.8762e-09
-8.63578e-09
-3.91614e-09
3.77802e-09
-7.16817e-09
1.86824e-09
1.38379e-09
-2.21722e-09
1.13291e-09
-6.08386e-09
6.84559e-09
-8.64626e-09
4.94331e-09
-8.72986e-10
2.77527e-09
1.96033e-09
-6.4447e-09
-4.2968e-09
6.42135e-09
-4.78296e-09
2.51474e-09
-1.05801e-08
-1.42799e-08
6.5598e-10
2.4204e-08
-1.37751e-08
-5.72295e-09
8.91792e-09
3.07e-09
9.02097e-09
3.46019e-09
-1.55512e-08
1.10261e-08
-1.50433e-08
7.08721e-09
-1.68368e-08
-5.3666e-09
7.92352e-09
-1.56989e-08
-1.4913e-08
-5.91862e-09
-6.66237e-09
1.32369e-08
-6.96695e-09
1.31203e-08
4.87273e-09
5.38942e-09
-3.33541e-09
6.67516e-09
1.0785e-09
-6.93464e-09
1.71115e-08
-9.32916e-09
-8.47695e-10
1.18617e-08
-1.53362e-08
5.9722e-09
-1.43227e-08
2.62755e-09
-4.90684e-09
4.96042e-09
-7.70699e-09
7.71978e-09
-7.99837e-09
1.07871e-08
6.62515e-09
-2.76184e-09
-1.18871e-08
-7.26787e-10
1.27523e-10
-9.03372e-09
-6.25613e-09
1.32087e-08
2.08112e-09
-6.4013e-09
-1.46336e-08
1.20012e-08
3.22423e-09
-4.9425e-09
-4.53786e-09
-4.30644e-09
1.29029e-08
4.61227e-09
1.50529e-08
-8.2246e-09
-3.60405e-09
1.22318e-09
9.52327e-09
1.517e-08
-1.58097e-08
-7.53195e-09
8.17176e-09
-5.42822e-09
1.89729e-08
1.62533e-09
-5.0207e-09
1.81187e-08
-1.85263e-08
7.91481e-09
-1.17123e-08
1.01884e-08
-1.69348e-08
2.82462e-09
3.92182e-09
-8.45702e-09
-2.96563e-09
-6.10223e-09
1.75249e-08
-1.38923e-08
-1.12605e-08
1.66958e-08
-8.58702e-09
-1.40607e-08
2.3681e-09
2.09853e-08
-9.29271e-09
2.74142e-09
-9.61986e-09
-7.18229e-09
-1.06129e-08
-7.00162e-09
2.0356e-08
-1.26534e-08
-8.59236e-09
1.64705e-08
4.77529e-09
-1.10097e-08
-1.22566e-08
6.40316e-09
1.06039e-09
1.47181e-08
-2.21816e-08
1.70339e-08
4.15985e-09
-1.47906e-08
5.58415e-09
-1.55335e-08
2.74126e-09
-5.74949e-09
5.89056e-09
-7.92358e-10
1.40232e-08
8.90127e-09
-1.13415e-08
-6.10445e-09
1.98141e-08
5.88523e-09
6.03655e-09
4.54869e-09
1.46131e-08
-7.71199e-09
-3.82055e-09
6.50217e-09
-9.77828e-09
9.55904e-09
1.01424e-09
-6.92271e-09
-1.09093e-08
1.33995e-08
4.43247e-09
-1.10373e-08
7.6226e-09
-3.50802e-09
2.6219e-09
-3.16874e-09
-1.03625e-08
-1.03275e-09
-7.38265e-09
6.00905e-09
5.42104e-09
-6.4965e-09
-4.9336e-09
-2.59721e-10
2.41379e-09
3.85498e-09
2.35278e-09
5.0101e-09
3.3394e-09
1.24129e-08
-6.13368e-09
2.36875e-09
6.17872e-09
-8.80372e-10
1.67728e-10
8.76707e-10
8.28989e-09
1.61453e-09
-1.07811e-08
1.93824e-09
5.71117e-09
-6.7727e-09
-5.59101e-09
-5.49876e-09
6.46642e-09
-6.44523e-09
5.47756e-09
-6.41014e-09
3.10062e-11
9.07519e-10
8.13897e-09
-7.5661e-10
2.08545e-10
-4.56768e-10
9.29194e-09
1.08457e-08
-1.23999e-08
4.3718e-11
1.65002e-09
-8.85338e-09
1.1736e-08
2.03601e-09
-5.88894e-10
3.96012e-09
-3.95368e-09
5.82436e-10
5.85269e-09
1.94875e-11
2.42246e-09
-3.02258e-09
6.45281e-09
-1.10522e-09
7.48781e-09
-1.74483e-09
2.20772e-09
-5.35113e-10
1.80343e-09
7.75041e-10
-1.27284e-10
-7.86274e-10
3.38703e-09
1.18694e-09
1.54087e-09
-9.73191e-11
2.04458e-09
8.07341e-10
-2.3258e-09
3.26516e-09
-9.88794e-12
7.26336e-09
-9.21666e-09
2.78877e-09
-8.3547e-10
-4.81895e-10
8.52921e-09
-7.83956e-10
5.77665e-09
2.57384e-09
-1.63419e-09
-6.71629e-09
3.7138e-09
2.13108e-09
-6.82223e-11
-4.1046e-09
-8.71531e-09
5.8396e-09
6.9803e-09
-3.60932e-09
2.09483e-09
-2.5901e-09
-1.66333e-09
-1.06613e-08
1.20416e-09
-5.81285e-09
-1.53012e-09
6.13881e-09
4.90948e-09
8.49157e-12
-9.32321e-10
6.17086e-09
-5.72044e-09
-1.12248e-09
-5.99935e-09
7.62248e-09
-6.17112e-09
2.06621e-09
7.68735e-09
-9.11037e-09
4.58297e-09
-6.05813e-10
8.94359e-09
-5.11782e-09
-9.94441e-09
-6.97852e-10
5.69196e-10
7.5593e-09
2.8579e-09
-1.5535e-08
-7.43938e-10
-7.55995e-09
5.61726e-09
-4.66518e-09
1.27657e-09
-2.22864e-09
-4.50036e-09
5.35784e-09
4.75978e-09
3.53069e-09
4.91254e-09
-3.81788e-09
7.49102e-10
3.57903e-09
-7.97446e-10
2.91606e-09
-2.95889e-09
-4.62235e-09
-8.352e-10
6.50185e-10
-6.66355e-10
4.9287e-09
4.25203e-09
-2.28116e-11
-8.77741e-09
-7.12491e-10
1.28014e-08
-3.31154e-09
-8.38129e-09
1.23551e-09
-1.63162e-09
-1.76004e-09
6.40539e-09
2.12588e-09
3.35015e-09
-8.58153e-10
-7.84036e-09
-3.68348e-09
9.6548e-09
1.86905e-09
-5.54945e-09
-1.55526e-09
5.79795e-09
-1.39701e-08
-8.97843e-09
1.71505e-08
9.84494e-09
-7.14316e-09
-1.55285e-08
1.28268e-08
-3.33692e-09
1.0629e-08
-1.49409e-09
-6.51282e-09
3.97669e-09
-1.63952e-08
-3.48589e-09
3.93975e-09
-6.96667e-09
8.64888e-09
-8.34658e-09
-3.63922e-09
1.16086e-08
1.17495e-08
-1.47092e-08
7.47629e-09
3.19346e-09
9.38915e-10
-1.15613e-08
1.00789e-08
8.95869e-09
2.51969e-09
-2.33148e-09
4.05452e-09
3.0886e-09
1.07209e-08
2.31746e-09
-5.72131e-09
3.29801e-09
8.52908e-10
1.21477e-08
1.4287e-10
-1.10647e-08
-1.22596e-09
7.08393e-09
-5.68557e-10
5.63231e-09
-1.09177e-08
-8.9666e-09
5.31362e-10
-1.25042e-08
8.67028e-09
-8.95233e-09
4.91622e-09
3.46753e-09
-7.16774e-10
-8.09271e-09
-1.38207e-08
-7.4117e-10
5.59518e-09
-1.55139e-08
-1.08109e-08
-3.39678e-09
5.04223e-09
5.63015e-09
-6.66407e-10
-5.68052e-09
2.58027e-09
-3.46926e-10
3.4549e-09
7.79456e-09
-6.80764e-09
-4.44183e-09
6.10858e-09
-7.34124e-11
-3.89779e-09
3.73875e-09
3.15559e-09
-7.88446e-09
4.10403e-10
-2.08553e-08
7.07878e-09
-5.84365e-11
1.3835e-08
-1.38845e-08
2.52488e-09
-9.49574e-09
1.60345e-08
-9.3346e-09
-2.05843e-08
2.61506e-08
-9.6456e-09
-4.70535e-10
8.77171e-09
2.44577e-08
-2.12903e-08
6.7426e-09
1.44892e-08
-7.14913e-09
-1.16163e-08
1.32363e-08
4.007e-10
-2.43887e-08
1.07517e-08
1.2714e-08
-1.00363e-08
1.05586e-08
2.95586e-10
2.27078e-08
-1.42317e-08
1.11708e-09
-1.24246e-08
-2.44555e-09
1.37531e-08
1.52179e-08
-1.3868e-09
5.70591e-09
-1.0935e-08
1.19717e-08
-2.13585e-08
8.62913e-09
4.54583e-09
2.04293e-09
-9.85777e-09
1.58593e-08
5.6465e-09
-6.54796e-10
-1.59267e-08
4.41785e-09
3.82397e-10
8.62533e-09
-3.87707e-09
-5.13065e-09
1.38041e-08
-8.05523e-09
-5.36644e-09
1.30485e-08
2.60794e-10
-9.46725e-09
-3.84205e-09
3.48192e-09
6.66993e-09
2.89667e-09
8.66013e-09
-2.34377e-09
7.4877e-09
9.5858e-09
7.69967e-09
3.42472e-09
-9.58499e-09
-1.89493e-09
8.57045e-09
3.98286e-09
-7.23417e-09
-5.31913e-09
-1.1788e-08
7.98586e-09
7.2841e-09
-8.10253e-09
7.56198e-09
5.33565e-09
-6.2277e-09
-2.23377e-09
7.52741e-09
4.29215e-09
-9.57701e-09
-2.98587e-09
1.20164e-08
5.46475e-10
-7.91073e-09
6.31957e-09
2.11432e-09
4.22237e-09
6.69043e-09
6.08554e-09
1.24607e-08
-7.59862e-10
-1.77864e-08
1.57608e-08
4.38016e-09
-1.40554e-08
-4.80734e-09
1.54018e-08
1.86626e-09
1.52017e-08
-4.24826e-09
-1.75134e-09
1.39132e-08
-7.78167e-09
5.86807e-09
7.82683e-09
3.1399e-09
-1.68348e-08
-2.42766e-08
-9.60324e-09
2.63829e-08
7.49686e-09
-3.79167e-09
-7.27575e-09
-2.4034e-09
1.34708e-08
-1.26665e-08
-2.79643e-09
2.03864e-08
-2.38836e-09
-8.48974e-09
1.1423e-08
2.93482e-09
-3.31529e-09
8.81225e-09
-7.24832e-09
7.8707e-09
-1.19459e-08
5.84457e-09
1.38334e-08
-1.08658e-08
9.59828e-09
-2.51918e-09
-1.23458e-09
1.4942e-08
-1.92424e-09
1.71962e-09
2.52687e-09
-4.80473e-09
5.58303e-10
1.67857e-09
7.23446e-09
-7.19342e-09
-4.18771e-09
-9.24146e-10
6.79042e-09
-2.3599e-09
3.09561e-09
3.61787e-09
-4.35357e-09
8.33856e-10
-3.04864e-09
-1.45081e-10
1.85692e-09
3.54465e-09
-2.87468e-09
6.24951e-10
1.63279e-09
4.97674e-09
2.59407e-09
9.67233e-11
2.89996e-09
1.26966e-09
5.34687e-10
1.46806e-09
-3.11933e-09
1.11664e-09
2.62004e-09
1.01025e-09
-3.4769e-10
4.67759e-10
2.77991e-09
2.38039e-09
-1.34001e-10
5.37324e-09
-7.1647e-09
1.48813e-08
-1.30899e-08
-2.28412e-09
1.74376e-08
-9.78021e-09
7.54797e-09
2.08844e-09
2.00388e-09
-1.16403e-08
4.61801e-09
-2.60284e-09
5.53279e-09
-8.11691e-09
-6.36705e-09
1.21998e-08
2.83087e-09
-1.17152e-08
1.09727e-08
-3.88875e-09
3.89829e-10
-9.83894e-09
1.22563e-08
-6.30614e-09
2.15504e-09
-9.99011e-09
-1.39999e-09
7.28926e-09
-1.39854e-08
5.42069e-09
-8.99949e-09
-1.63254e-09
-4.0544e-10
2.04863e-09
-1.06633e-11
-1.74721e-09
-1.56426e-09
2.03813e-09
1.27333e-09
-8.9661e-10
-8.27634e-10
-2.29732e-11
-2.42646e-09
-1.02688e-10
4.85761e-09
-4.57038e-09
-2.63618e-09
2.34892e-09
-3.33581e-09
1.66568e-10
1.60495e-09
-2.96263e-09
-1.20083e-09
-2.61199e-09
7.02961e-09
1.48791e-09
-5.90554e-09
2.41218e-09
1.3051e-09
-1.57781e-10
-3.57378e-09
2.69667e-10
-2.02363e-09
3.05906e-09
1.57474e-09
-1.52578e-09
-4.61935e-09
-2.29639e-09
4.14079e-09
-4.64618e-09
2.67991e-08
-2.40686e-08
8.8327e-10
-3.61379e-09
4.86443e-09
6.61836e-09
1.53163e-08
1.8037e-08
1.26072e-08
-2.41508e-08
-6.49351e-09
7.01893e-09
1.58825e-08
7.27579e-09
1.80974e-08
-1.87548e-08
-1.42675e-10
-1.16449e-08
1.88065e-08
-1.18638e-08
1.89969e-08
1.17248e-09
-1.43648e-08
1.91273e-08
-5.93499e-09
-1.36517e-08
1.95491e-08
-4.72494e-09
6.16603e-10
-1.76781e-08
2.69673e-09
-1.63129e-08
3.27771e-09
9.65232e-09
-1.50894e-08
-6.42675e-09
8.22625e-09
-1.02189e-08
-1.00039e-08
1.44636e-08
3.35339e-09
5.77001e-09
6.72921e-09
-7.43666e-09
6.09811e-09
-5.39066e-09
-1.07408e-09
6.35905e-09
1.44422e-09
8.371e-09
3.63803e-10
-1.03227e-08
1.5879e-09
6.17134e-09
1.12558e-09
1.70568e-09
-8.77854e-09
-4.24281e-09
6.03004e-09
4.57182e-09
1.83473e-09
2.05615e-11
-1.19904e-09
1.48073e-09
-5.38181e-09
5.10013e-09
5.06923e-10
4.32408e-09
-1.92881e-10
-1.1813e-09
-4.49188e-09
5.86608e-09
5.89181e-09
-4.60395e-09
6.00564e-09
4.94002e-09
-4.77433e-09
-1.11525e-08
7.32199e-09
8.44003e-09
-4.60953e-09
2.80866e-10
-8.77719e-09
-2.65614e-09
7.40079e-09
-5.41424e-09
-3.73493e-09
1.87857e-10
5.33127e-09
2.26497e-09
5.6516e-10
-3.3018e-09
6.96766e-09
2.14526e-08
-6.86138e-09
-5.18244e-09
-9.4088e-09
2.6308e-09
9.40616e-09
9.41566e-09
-7.00658e-09
1.34448e-08
-6.78462e-09
3.46418e-10
-7.93806e-09
-5.92991e-09
8.15318e-09
7.9224e-09
-1.26994e-08
7.23502e-09
1.48705e-08
-1.54969e-08
-7.63731e-10
3.56121e-09
-1.15423e-08
-9.13705e-09
7.03337e-09
-2.80781e-09
-1.21636e-08
4.86644e-09
-4.61769e-09
-6.4227e-09
2.40156e-09
1.21743e-08
-1.16471e-08
-3.3883e-09
8.61266e-09
-6.50792e-10
-6.12985e-09
-5.64387e-09
1.52804e-08
8.41451e-09
2.32839e-09
-1.15067e-08
-9.09581e-09
6.78761e-10
5.02874e-09
-4.67568e-09
-5.07093e-09
-4.38826e-09
7.15889e-09
4.88092e-09
-1.24996e-08
4.81089e-09
5.63023e-09
-2.07656e-09
1.32723e-09
9.01503e-09
-8.06049e-09
5.30554e-09
-2.16817e-09
-5.90656e-09
1.89367e-09
6.18103e-09
-8.92129e-09
1.83109e-10
6.57001e-09
2.36896e-09
-8.04225e-09
-3.24799e-09
-3.4222e-09
-1.15395e-10
9.41907e-10
-2.7247e-09
1.15761e-08
-9.7933e-09
-6.60797e-09
9.44355e-09
7.45347e-09
-1.51307e-09
-7.18165e-09
1.24123e-09
7.12556e-09
-6.28007e-09
-1.09859e-08
8.44429e-09
5.2001e-11
-3.74358e-09
-4.35066e-09
2.76688e-09
-5.66046e-09
-5.28632e-10
-5.86227e-09
-5.07158e-09
-1.0601e-08
7.60154e-09
-2.86284e-09
-3.63487e-09
-9.36862e-09
6.36843e-09
6.63504e-09
-6.79241e-09
1.99404e-09
1.16349e-09
6.17795e-09
8.06931e-10
-5.44242e-10
4.25388e-09
2.12701e-09
-2.02953e-10
-1.26603e-08
1.84535e-09
8.28307e-09
2.53187e-09
-2.47701e-10
-6.72779e-10
-1.17398e-08
9.51745e-09
-9.68738e-09
8.29177e-09
3.24095e-09
1.10335e-08
-6.56723e-09
-1.12587e-08
-3.46338e-10
2.01119e-09
5.36766e-09
8.80255e-10
-1.36579e-08
5.85134e-09
2.15686e-08
-1.37621e-08
-1.01252e-09
-4.36228e-09
-5.96457e-10
-9.89544e-09
9.8191e-09
-4.38849e-09
6.54197e-09
-2.647e-11
-2.99877e-09
1.52185e-08
9.00239e-09
-6.6335e-09
2.92451e-09
6.55232e-09
-4.74458e-10
3.5511e-09
7.89426e-09
3.77317e-09
-1.60058e-09
3.13483e-09
-8.62634e-09
7.09208e-09
-1.58071e-09
-5.63126e-09
7.10222e-09
1.09735e-10
6.48051e-09
-1.52791e-08
1.33989e-09
7.45872e-09
-6.44395e-09
5.00987e-09
-1.4663e-10
1.10616e-08
-6.96823e-09
2.38712e-09
2.00898e-09
7.45205e-09
-4.97716e-09
-1.17725e-09
9.28925e-09
5.51583e-09
4.24803e-09
-5.12768e-09
-4.63619e-09
-1.04369e-09
1.15569e-10
6.37212e-09
-4.64778e-09
4.88498e-09
-6.60932e-09
5.43511e-09
-1.06679e-10
-5.51984e-09
-2.50756e-09
1.22754e-08
-5.08701e-09
5.11971e-09
-7.96078e-09
8.79249e-09
8.86558e-12
-9.78433e-09
-4.84572e-09
5.19383e-09
9.98861e-09
-1.4554e-08
-2.40285e-09
-9.03117e-09
1.1059e-08
-1.61287e-08
5.61539e-09
5.66763e-09
-4.07646e-09
-7.16727e-09
-8.40657e-09
-1.16673e-08
-1.36801e-08
1.02644e-08
-7.41368e-09
-1.03429e-08
-1.58114e-08
1.12315e-08
1.05447e-08
-5.0589e-09
-1.67173e-08
1.43866e-08
-4.04286e-09
8.87708e-10
-1.04577e-08
1.48934e-08
9.95093e-09
5.56364e-09
-5.47655e-09
4.98016e-09
-1.99021e-08
9.86297e-09
-6.91243e-09
1.49118e-08
-2.43573e-09
3.98398e-09
-1.55885e-08
1.14392e-08
1.65269e-10
-1.42244e-08
1.28472e-08
5.36117e-09
1.28379e-08
-1.47701e-08
8.96262e-09
-1.17133e-08
-5.92976e-09
6.67952e-10
-1.72622e-09
4.05238e-09
1.25672e-08
3.70095e-09
9.48463e-09
3.98498e-09
1.11552e-08
-4.8654e-10
1.73187e-08
1.07723e-08
-3.26264e-09
-1.34394e-08
1.43381e-08
2.20615e-08
-3.10447e-09
-1.45086e-08
-4.44844e-09
9.1991e-09
6.46107e-09
-6.06495e-09
2.78631e-09
1.24777e-08
-1.83471e-08
1.03152e-09
1.12505e-08
-2.45519e-08
-2.09684e-08
2.71733e-08
-2.0409e-08
-7.24745e-09
1.18906e-08
4.56717e-09
-1.43588e-09
1.03976e-08
-1.09863e-08
7.04973e-09
-8.67704e-10
1.40516e-08
2.69425e-09
-3.87596e-09
-1.33269e-08
1.79674e-08
-2.17867e-08
-1.65898e-08
-4.67313e-09
1.67213e-09
1.5719e-08
-1.13419e-09
-3.36957e-09
1.74076e-08
-2.49979e-09
1.42273e-08
5.72314e-09
1.20115e-08
-3.50735e-09
1.62389e-08
-1.30743e-08
2.55855e-09
-4.56546e-09
-1.60902e-08
1.97879e-08
1.27049e-08
6.5754e-09
-1.84272e-09
-3.3982e-10
2.49668e-09
2.04725e-09
6.08263e-09
-2.10118e-08
1.28819e-08
5.15273e-09
-1.78599e-08
1.47544e-08
2.14785e-09
-1.38189e-08
1.77537e-08
-1.11787e-08
1.84793e-08
3.73004e-09
-2.39459e-08
5.06963e-09
1.51463e-08
-8.36326e-09
3.57653e-09
-1.62251e-08
1.92033e-08
-2.21458e-08
1.58326e-08
6.38634e-09
-8.98451e-09
-7.44281e-09
2.23467e-08
-5.91942e-09
-1.26786e-08
-2.02518e-08
-9.47355e-09
-1.98214e-08
7.96814e-10
-2.47856e-08
1.45152e-08
-2.13776e-08
-1.25315e-08
-8.85378e-09
1.09955e-08
1.03898e-08
-9.70441e-09
5.80577e-10
-3.40771e-09
-5.86263e-10
-8.45845e-09
1.90935e-10
-9.76283e-09
-5.27835e-10
-9.61994e-09
5.32602e-09
1.52894e-08
-6.60443e-09
-2.43493e-09
-2.08458e-09
-2.39558e-09
-5.28268e-09
-1.60616e-08
2.70236e-09
4.90074e-09
-6.55054e-09
-1.15956e-08
-1.18228e-08
-1.24934e-08
4.91237e-09
1.94038e-08
-1.4995e-08
5.87461e-09
-1.15298e-08
3.66257e-09
1.2628e-09
-6.40776e-09
-7.51765e-09
1.66905e-08
-9.21919e-09
-1.18506e-08
4.37924e-09
1.55585e-08
4.79457e-09
7.61283e-09
-1.68357e-08
-5.77216e-09
-9.60552e-09
-1.42439e-09
-1.42026e-08
7.13084e-09
1.6183e-08
-7.75534e-09
1.73692e-08
-6.12025e-09
-1.7266e-08
-2.27475e-08
-3.17084e-09
-1.16053e-08
-1.89586e-08
7.81638e-09
-1.915e-08
6.28839e-09
3.94311e-10
8.01051e-09
-5.07568e-09
6.31499e-09
1.304e-08
2.86629e-09
1.52959e-08
8.4889e-09
1.09242e-08
5.86197e-09
6.6864e-09
7.56073e-09
1.60947e-08
1.9255e-09
1.28784e-08
6.60103e-09
8.56836e-09
-3.41934e-09
1.81497e-08
-7.38595e-09
6.94169e-09
-1.77055e-08
4.45977e-09
9.19431e-09
4.49562e-09
5.05401e-09
9.84723e-10
-1.34247e-08
1.17319e-08
3.82831e-09
-1.05062e-08
-1.12389e-08
5.90505e-09
1.72447e-09
-6.0217e-09
-5.48781e-09
-5.15095e-09
8.74541e-09
-1.23376e-10
-9.6778e-09
-4.94914e-09
-7.9772e-09
-1.67728e-09
-5.46337e-09
-5.6417e-09
-1.66212e-08
-2.39872e-09
1.16373e-08
1.63463e-08
1.53016e-09
3.10399e-09
1.22199e-08
2.87183e-09
1.25456e-09
-3.41544e-10
-6.29675e-10
1.31911e-08
-1.38532e-09
-1.55775e-08
-1.43252e-08
3.85289e-09
1.33441e-08
1.35633e-08
1.75741e-08
-1.43442e-08
-4.36416e-09
5.36895e-09
-1.30232e-08
-8.87401e-09
6.56099e-09
-1.75016e-09
-1.10831e-08
-1.89857e-10
9.9978e-09
-1.10411e-08
-7.06861e-10
-6.77759e-09
8.08347e-09
8.69192e-09
2.1554e-09
-4.54991e-09
-8.68862e-09
-1.08768e-08
1.11677e-08
-1.25417e-09
9.63249e-10
4.87679e-09
-4.63797e-09
-1.11156e-08
1.78916e-08
-1.08594e-08
7.01096e-10
8.31644e-09
6.49213e-09
-7.18501e-09
-1.03482e-08
-3.3506e-10
4.96036e-11
1.60023e-08
-1.35779e-09
-1.24155e-09
-1.04934e-08
6.30171e-09
-1.21812e-08
6.32983e-09
5.53896e-09
-9.36751e-09
7.33526e-09
7.78073e-10
-9.67953e-09
6.61373e-09
8.47588e-09
-7.34276e-09
6.20215e-09
7.0179e-09
1.28256e-08
-2.56368e-09
2.72888e-09
1.19589e-08
-7.66986e-09
8.73662e-09
-2.32639e-08
-6.55184e-09
2.10792e-08
2.24438e-08
-1.09783e-08
3.54862e-09
1.23857e-08
-3.10881e-09
1.40334e-08
1.47411e-09
2.85128e-09
8.86777e-09
1.07248e-08
-9.07118e-09
-4.89014e-10
2.71161e-09
6.84856e-09
-1.31387e-08
-1.1572e-08
1.56395e-08
9.11911e-09
7.76555e-09
-7.53982e-09
-2.58466e-09
1.85808e-08
-8.45634e-09
6.51372e-09
-7.82214e-09
-6.23141e-09
7.64845e-09
1.41829e-08
-4.9676e-09
4.20437e-09
1.55776e-10
6.07456e-10
-9.30537e-09
2.89448e-09
1.4433e-09
-7.16027e-10
4.02885e-09
8.91554e-10
2.50298e-09
7.34469e-09
-5.09676e-09
-4.75091e-09
6.63321e-09
2.88888e-10
-7.63812e-09
-2.60198e-09
9.1338e-09
-6.0095e-09
1.00407e-08
-1.49044e-09
2.72655e-10
-4.79171e-09
1.08158e-08
7.47704e-09
-3.72612e-09
-1.45667e-08
1.18858e-08
-2.81324e-10
-7.88753e-10
1.16733e-08
7.04467e-09
-6.83216e-09
-1.05511e-08
1.31496e-08
9.07487e-09
5.99776e-10
-3.67389e-09
7.93652e-09
-4.09703e-09
7.80847e-09
-1.1648e-08
8.93312e-09
-1.27792e-09
5.76926e-09
-1.35924e-08
1.50061e-09
1.1004e-08
6.44925e-10
1.13932e-09
7.40595e-09
-5.41526e-09
-2.23556e-09
8.25059e-09
1.89502e-09
8.60987e-09
-1.57176e-09
-6.61688e-09
7.90092e-09
6.10979e-10
2.42212e-09
-1.23052e-09
4.399e-09
-4.045e-09
-5.82338e-10
-4.17353e-10
8.90061e-09
9.16684e-09
6.99823e-09
-1.77111e-10
7.59947e-09
-1.0186e-09
-3.21493e-09
7.62421e-11
3.05179e-09
-2.0096e-09
8.09476e-09
-3.76065e-09
1.62905e-08
-1.14404e-08
9.25993e-09
1.83416e-09
-3.2485e-09
-5.14015e-09
-9.39213e-09
1.50184e-08
-1.83487e-08
2.13909e-08
-5.15539e-10
-2.52672e-09
6.80962e-09
7.51586e-09
7.04246e-09
2.28191e-09
-1.68402e-08
5.2425e-09
5.60672e-09
-3.33337e-09
-1.8617e-08
1.60699e-08
7.78956e-09
8.99401e-09
-2.05685e-08
2.78768e-09
-5.47537e-09
4.96958e-09
8.05692e-09
3.37461e-10
-4.33084e-09
-3.92816e-09
1.7253e-08
-7.46951e-09
-1.41214e-09
-3.13911e-09
1.20207e-08
-3.19672e-09
-5.68497e-09
1.41215e-09
4.41155e-09
9.71519e-09
1.94318e-09
8.08709e-09
-8.50116e-09
1.12323e-08
-4.55736e-09
-5.53038e-09
6.80281e-09
-3.15843e-09
-2.78353e-09
2.12681e-09
-4.74614e-09
5.40285e-09
-8.15138e-09
6.59501e-11
5.30191e-09
-1.71526e-09
-2.68502e-09
6.52709e-09
-5.48739e-09
-3.05688e-09
6.82901e-09
-3.59985e-10
3.15962e-09
-8.28703e-09
5.23358e-09
-8.31409e-09
2.72052e-09
3.36384e-09
-6.78288e-09
-4.73234e-09
-1.52309e-09
1.40796e-10
-5.2003e-09
7.74886e-09
-8.12498e-09
5.13406e-09
6.00549e-09
1.97987e-10
1.90811e-09
-8.11159e-09
3.2803e-09
-5.5889e-09
1.32243e-09
-1.33367e-09
-6.77164e-09
-2.1864e-09
2.66391e-10
-6.1853e-09
-6.17253e-10
3.73612e-09
-4.8718e-09
2.6631e-11
-2.74293e-09
-5.92984e-09
4.76145e-09
3.91133e-09
-3.85361e-09
2.83076e-09
-1.72007e-09
-7.15512e-10
-9.06794e-09
9.40816e-10
-2.4472e-09
6.26784e-09
-2.82451e-09
3.93723e-09
-1.71904e-10
1.28504e-09
-6.29814e-09
1.73911e-09
-3.87965e-09
9.56327e-10
-1.1759e-09
-2.29147e-09
3.54007e-09
-1.5399e-09
2.83698e-09
-4.83715e-09
6.30214e-09
-3.93797e-09
2.84435e-09
-5.09976e-09
-3.24353e-09
5.66602e-09
-2.05219e-10
-2.01332e-10
-1.85386e-10
2.32407e-08
-2.56488e-09
-4.97241e-09
-1.57034e-08
6.5772e-09
9.24894e-09
7.41453e-09
1.57623e-08
-4.9178e-09
-1.34094e-08
1.05273e-08
1.18122e-08
-1.54952e-08
1.00258e-08
1.47184e-08
-5.20586e-09
-1.52618e-08
-1.95615e-09
-1.04193e-09
1.35254e-08
-1.2669e-08
-4.33377e-09
1.50466e-08
6.0464e-10
1.13793e-08
-1.69017e-08
1.01471e-08
-1.47483e-08
7.60509e-09
-8.89475e-09
-2.91836e-09
-4.04042e-09
1.20731e-08
-5.11434e-09
-8.80283e-09
1.3094e-08
-7.20957e-09
-6.8143e-09
1.27997e-08
3.11973e-09
2.13096e-10
1.92199e-09
-3.88364e-09
5.10563e-09
3.56061e-09
-4.78261e-09
-4.95177e-09
-2.27132e-10
-1.95865e-09
6.40053e-09
4.08406e-09
3.78856e-09
2.29531e-09
-8.04254e-09
-5.38098e-09
-5.67275e-10
-1.03885e-09
6.98709e-09
-2.80095e-09
1.20852e-09
7.4997e-10
4.62708e-10
3.77146e-09
1.88198e-09
6.37298e-09
5.9898e-09
-7.11779e-09
6.38561e-10
4.89415e-10
7.71523e-09
-5.12137e-09
-1.29401e-09
5.37652e-09
-1.93252e-09
4.27433e-09
1.20013e-08
6.71836e-09
-2.1011e-08
2.2913e-09
1.1131e-08
-5.62325e-09
-1.25514e-08
-1.04723e-08
7.41313e-10
-7.61173e-09
-3.08639e-09
-2.03456e-08
-1.14497e-08
-7.04493e-09
-1.37337e-08
-1.07988e-08
9.97371e-09
-6.93905e-09
8.19341e-09
-1.12281e-08
-1.70129e-09
1.02804e-08
1.39464e-09
4.98023e-09
8.19936e-10
4.53681e-09
-1.0337e-08
4.25942e-10
5.61355e-09
-1.05926e-09
6.39873e-09
-1.25178e-08
4.96984e-09
-2.72397e-10
1.88911e-09
9.375e-09
-3.0707e-09
1.29856e-08
-8.16123e-10
7.8254e-09
8.67019e-09
-1.19588e-08
-1.53299e-09
8.42119e-10
1.35246e-10
5.48954e-09
3.22426e-10
7.72684e-09
2.76973e-09
-1.12157e-09
8.69403e-09
1.20184e-08
-5.43761e-09
-3.45994e-09
-1.25788e-08
1.1676e-08
-8.59001e-09
7.90309e-09
-3.16207e-09
3.849e-09
-1.0962e-08
6.59434e-09
-4.22237e-09
-8.07821e-10
2.82265e-09
5.88826e-09
-1.09826e-08
3.52207e-09
6.65273e-09
4.43953e-09
-4.73073e-09
-1.06708e-08
1.51773e-09
-2.40261e-10
3.79027e-09
-8.17856e-09
-7.85292e-09
4.1795e-09
-8.58496e-09
1.22584e-08
-8.71797e-09
-2.34078e-09
3.20584e-09
1.12338e-09
-3.74071e-09
5.43997e-09
8.82494e-09
3.11701e-09
-3.35239e-09
-8.4826e-09
-2.15807e-09
-6.49181e-11
-4.70843e-09
-7.5951e-10
4.50218e-10
-9.37165e-09
4.19069e-09
3.951e-09
-6.85317e-09
-5.47841e-10
-7.26415e-09
1.27324e-08
1.88559e-10
-5.65682e-09
-7.22678e-09
-3.6169e-09
3.57951e-09
6.59666e-09
-5.5523e-09
4.66358e-09
-5.70794e-09
1.80177e-09
4.20091e-09
5.93986e-10
2.54297e-09
-8.62714e-09
5.31868e-10
1.47901e-09
-6.86609e-09
3.25349e-09
1.64943e-09
-3.82533e-09
4.79409e-09
3.23215e-09
8.88565e-10
-5.03203e-11
3.61524e-09
2.12382e-09
-3.1961e-09
4.4475e-09
5.62985e-11
4.24561e-09
-1.9814e-09
-1.40383e-10
1.74291e-10
4.26374e-09
-1.92406e-10
4.64205e-09
-2.02586e-11
-6.75309e-10
5.18439e-09
-5.19072e-09
-4.81788e-10
4.07023e-09
1.91518e-10
3.96875e-09
4.25988e-09
1.34899e-09
-6.48835e-09
1.01495e-08
-6.42837e-09
5.38433e-09
-5.80937e-09
6.85341e-09
-1.19557e-09
-5.33931e-09
1.06498e-10
1.05883e-08
6.09302e-09
-4.12551e-09
-7.55853e-09
-3.61518e-11
-5.19183e-11
1.05475e-09
-7.49118e-09
6.74982e-09
-6.468e-09
-5.62113e-09
8.88531e-10
-1.29922e-08
-8.54438e-10
5.06161e-09
-5.42722e-09
1.22006e-09
3.9242e-09
1.74267e-10
-4.9529e-09
3.32135e-09
4.62017e-10
-7.95592e-09
1.84982e-09
-6.16197e-09
-2.78576e-09
4.71092e-09
3.13646e-09
1.33094e-09
-1.92508e-10
4.216e-09
-5.20052e-09
1.1588e-09
2.83745e-09
5.38525e-09
-4.00671e-09
4.17875e-09
-1.03631e-11
-4.8479e-09
2.43847e-09
-1.27189e-09
1.80924e-09
-2.28985e-09
9.68016e-10
-8.40188e-09
1.57534e-09
9.31412e-09
-3.81936e-09
-7.0701e-09
-2.10529e-09
-4.65424e-09
8.33487e-09
9.30123e-09
-1.4619e-09
1.47479e-09
-1.25585e-08
-5.02567e-09
1.1458e-08
6.12624e-09
1.59472e-09
-6.48962e-09
-7.66366e-09
-2.3661e-08
6.1698e-09
1.24655e-08
-1.07942e-08
-1.12721e-08
-3.02683e-09
-5.56808e-09
-2.32597e-09
7.38176e-09
-9.46944e-09
4.41364e-09
2.51321e-09
4.46205e-09
1.93946e-08
-9.4211e-09
-2.07676e-08
1.9154e-08
-1.15429e-09
1.3949e-09
-3.05921e-09
1.14793e-08
-1.22395e-08
-1.55071e-08
8.02343e-09
1.73003e-08
1.01142e-08
2.10828e-10
-6.1816e-09
1.44129e-08
-2.0788e-10
6.44581e-09
-9.59217e-09
1.06039e-08
-7.83961e-09
6.8279e-09
-6.59198e-09
2.6085e-10
-3.26104e-09
-7.59994e-10
1.57777e-09
9.78611e-09
7.77772e-09
5.96378e-09
-6.89578e-09
-6.84572e-09
1.91538e-09
5.84959e-09
1.27625e-11
6.10521e-09
-7.16761e-09
-5.52958e-09
1.80981e-10
-1.10742e-08
1.47673e-09
8.83748e-09
-7.24873e-09
-3.56463e-09
-4.23054e-10
8.58661e-09
-6.58578e-09
-7.44798e-10
2.1288e-10
6.49569e-09
-6.51647e-10
-1.34117e-08
7.22459e-09
7.69177e-09
-1.5568e-08
-6.19677e-10
6.65487e-09
1.1894e-09
-1.76639e-10
-6.83305e-09
7.88672e-09
-9.22968e-10
-4.88315e-09
6.66894e-09
4.52711e-10
-2.23848e-09
4.05146e-09
-1.44908e-09
1.62258e-09
-4.22495e-09
-2.22944e-09
-1.38142e-09
7.66233e-09
-2.44694e-09
-2.57028e-09
2.78778e-09
-3.71942e-09
-1.76596e-10
3.77532e-09
-6.69165e-09
-1.9668e-09
-3.59563e-09
8.88315e-09
-2.41676e-09
-2.52299e-10
9.87961e-11
-3.99498e-09
-2.14119e-09
-7.26013e-11
1.35502e-08
5.94941e-11
-2.27833e-09
-1.13314e-08
4.22212e-10
1.2205e-08
-4.03807e-09
-1.85636e-08
2.26612e-08
1.4023e-08
-2.2592e-09
-1.58019e-08
7.75606e-09
-5.15993e-09
1.14269e-08
-2.47301e-09
8.58037e-09
1.70914e-08
-2.31988e-08
4.0913e-09
1.11975e-08
-1.77618e-08
7.51113e-09
-1.09543e-09
-8.69404e-09
6.9526e-09
9.80747e-10
-1.56114e-08
8.63249e-09
9.04482e-09
-2.06588e-09
-9.38725e-10
-7.93358e-09
-6.73912e-09
1.44041e-08
-6.61965e-09
-2.83952e-11
3.62463e-09
1.93598e-08
2.09066e-09
2.03894e-09
-1.07493e-08
6.7279e-09
3.99525e-09
-1.02231e-08
6.86842e-09
-8.38953e-09
1.44034e-08
6.16416e-09
1.01322e-08
-2.57509e-09
1.29276e-08
1.00306e-08
-6.44151e-09
-6.75866e-09
6.02837e-09
7.96092e-09
-7.23061e-09
4.76016e-09
8.57923e-10
-1.23767e-08
-7.66315e-09
1.11325e-08
2.55897e-09
-5.54643e-09
2.64346e-09
3.87599e-09
-5.66997e-09
2.6519e-09
5.49903e-09
7.03843e-09
-3.86713e-09
-8.67033e-09
6.821e-09
-1.39472e-09
7.27636e-11
4.01695e-10
1.095e-08
-3.39078e-09
5.38892e-09
-1.11124e-09
3.10784e-09
-5.49156e-11
3.76808e-09
4.00436e-09
6.14191e-09
-7.34911e-09
3.79267e-09
3.50153e-09
-3.92105e-09
-2.28579e-09
-1.14227e-09
-8.8413e-10
-4.43162e-09
-2.58977e-09
5.6929e-09
1.79844e-09
5.10797e-09
4.22613e-09
7.15836e-09
5.59007e-09
7.7421e-09
1.37024e-09
2.84805e-09
1.65098e-08
-1.25039e-08
2.11814e-08
-1.35959e-08
-4.73745e-09
1.12429e-08
2.94388e-10
4.97246e-09
9.68604e-09
2.27383e-08
-9.27072e-09
8.38725e-09
-1.27125e-08
-1.69419e-09
8.82865e-09
-7.06742e-09
7.26743e-09
5.90876e-09
3.05169e-09
-1.31824e-10
-1.03596e-08
6.57373e-09
1.01349e-08
-1.2799e-08
1.27083e-08
5.99944e-09
-6.34496e-11
-5.46814e-09
1.49051e-08
-6.58127e-09
5.46667e-09
-1.39029e-11
9.45229e-09
9.27969e-09
3.45726e-10
7.30601e-09
3.12329e-09
-4.53862e-09
7.17695e-09
4.66768e-09
5.0219e-09
-2.8084e-10
4.4114e-09
-4.69648e-09
5.30697e-09
-9.31948e-10
1.25203e-08
1.42207e-08
7.99793e-09
-2.3047e-09
-6.28995e-09
6.27824e-09
2.31639e-09
3.49638e-09
-5.54388e-09
-2.57211e-10
2.28776e-09
8.33863e-09
-7.60969e-09
-3.01672e-09
5.81282e-09
-2.86903e-11
-3.34424e-09
-1.76171e-11
-2.92808e-09
-2.89411e-09
-5.99401e-09
3.09258e-09
9.05117e-10
4.34093e-09
2.96223e-09
5.94317e-09
-5.86644e-09
-7.74196e-10
9.60285e-09
-2.59135e-10