/*--------------------------------*- C++ -*----------------------------------*\
| =========                 |                                                 |
| \\      /  F ield         | OpenFOAM: The Open Source CFD Toolbox           |
|  \\    /   O peration     | Version:  v1612+                                |
|   \\  /    A nd           | Web:      www.OpenFOAM.com                      |
|    \\/     M anipulation  |                                                 |
\*---------------------------------------------------------------------------*/
FoamFile
{
    version     2.0;
    format      ascii;
    class       volVectorField;
    location    "166";
    object      U;
}
// * * * * * * * * * * * * * * * * * * * * * * * * * * * * * * * * * * * * * //

dimensions      [0 1 -1 0 0 0 0];

internalField   nonuniform List<vector> 
17208
(
(0.0355852 0.963049 -0.378903)
(-0.0017325 0.475035 -0.178468)
(-0.00114626 0.483947 -0.186083)
(-0.00203169 0.64223 -0.20979)
(-0.00923522 0.648394 -0.222463)
(-0.0108955 0.670727 -0.22429)
(0.00913091 0.461867 -0.164385)
(0.00292289 0.456002 -0.16875)
(-2.0748e-05 0.473865 -0.16077)
(0.00874022 0.441682 -0.1608)
(0.00165174 0.540009 -0.186543)
(-0.0112874 0.572985 -0.20931)
(-0.0141318 0.615264 -0.212651)
(-0.00112463 0.500933 -0.181143)
(0.00219979 0.507897 -0.17481)
(0.00284545 0.453841 -0.175784)
(0.00502444 0.577256 -0.189124)
(-0.00536713 0.538286 -0.199736)
(0.0058676 0.569826 -0.184845)
(-0.00834387 0.605221 -0.196969)
(-0.00847571 0.540977 -0.194712)
(-0.0114868 0.571588 -0.201819)
(0.000862481 0.468913 -0.177013)
(-0.000260183 0.469218 -0.170027)
(-0.00994104 0.539002 -0.205037)
(-0.00849536 0.531726 -0.200019)
(-0.00505063 0.501172 -0.186565)
(-0.0110244 0.545509 -0.202488)
(-0.00672076 0.513902 -0.180598)
(-0.0127584 0.569293 -0.197296)
(-0.0150356 0.565843 -0.188461)
(-0.0180179 0.616717 -0.208636)
(-0.0178262 0.604818 -0.205616)
(-0.014233 0.524484 -0.18856)
(-0.00708683 0.53832 -0.178063)
(-0.0214567 0.608891 -0.203768)
(-0.0133202 0.55524 -0.186774)
(-0.0214723 0.613555 -0.228519)
(-0.026984 0.64457 -0.243298)
(-0.0107522 0.562175 -0.219591)
(-0.013857 0.559054 -0.210521)
(-0.020929 0.602906 -0.237539)
(-0.0177797 0.593408 -0.226996)
(-0.0277978 0.624032 -0.234344)
(-0.0339896 0.652235 -0.239247)
(-0.0155621 0.640084 -0.261204)
(-0.0349069 0.670582 -0.253942)
(-0.00922247 0.560551 -0.233068)
(-0.00879626 0.532967 -0.212289)
(-0.0269903 0.631177 -0.231374)
(-0.0280233 0.615454 -0.232773)
(-0.0271234 0.653671 -0.259786)
(-0.00742709 0.567203 -0.222878)
(-0.00921052 0.589346 -0.239829)
(0.101875 0.824773 -0.26524)
(0.0989599 0.797376 -0.258763)
(0.0867879 0.894107 -0.280316)
(0.0836399 0.819595 -0.256672)
(0.0953269 0.876317 -0.280034)
(0.10108 0.810884 -0.259297)
(0.0831372 0.820865 -0.250459)
(0.0807908 0.736626 -0.225173)
(0.0949391 0.696134 -0.230331)
(0.0969164 0.741258 -0.222538)
(0.0890394 0.67348 -0.203943)
(0.0841688 0.932784 -0.301721)
(0.0911253 0.823676 -0.254516)
(0.0808715 0.920975 -0.295214)
(0.00737456 0.652117 -0.207401)
(0.00618541 0.633492 -0.199981)
(0.0103744 0.537943 -0.172676)
(1.58385e-05 0.463346 -0.163659)
(0.00248446 0.430894 -0.152452)
(0.0116847 0.543509 -0.177556)
(0.00838006 0.422083 -0.156529)
(0.00619831 0.508265 -0.175874)
(0.00981258 0.465109 -0.165252)
(0.00666084 0.379361 -0.145313)
(0.022654 0.604574 -0.231107)
(0.0147406 0.524864 -0.201658)
(0.0279063 0.667412 -0.245896)
(0.0258197 0.604815 -0.221024)
(0.0367386 0.741006 -0.262881)
(0.0327036 0.7322 -0.266342)
(0.0151232 0.568781 -0.228387)
(0.0107574 0.543304 -0.22481)
(0.00841119 0.518358 -0.20633)
(0.0333972 0.740366 -0.266405)
(0.0230883 0.640422 -0.244315)
(0.0218623 0.64758 -0.235618)
(0.0136231 0.530217 -0.200691)
(0.0239603 0.600565 -0.221795)
(0.019355 0.571318 -0.213644)
(-0.00916144 0.557508 -0.241526)
(0.0010469 0.538679 -0.23715)
(-0.00985855 0.566755 -0.240047)
(-0.0150098 0.579595 -0.250145)
(-0.00526799 0.608581 -0.275717)
(-0.00159007 0.587142 -0.265704)
(-0.00173198 0.616066 -0.277344)
(0.00104507 0.58871 -0.275694)
(0.00664414 0.53648 -0.255134)
(0.00765461 0.548489 -0.257494)
(0.00365696 0.53304 -0.239458)
(0.00823043 0.5096 -0.235173)
(-0.0176952 0.585188 -0.250168)
(0.000899027 0.542532 -0.251331)
(-0.00623919 0.568682 -0.254485)
(0.00769172 0.512584 -0.243201)
(-0.00771465 0.810708 -0.326838)
(-0.00712779 0.840673 -0.331969)
(0.0100506 0.813466 -0.32879)
(-0.0175961 0.761827 -0.311384)
(-0.0265281 0.786515 -0.319965)
(-0.0280277 0.79462 -0.314109)
(0.0386629 0.835309 -0.34611)
(0.0044574 0.774037 -0.320364)
(0.0262022 0.743699 -0.31804)
(0.00453526 0.759109 -0.322239)
(0.0207712 0.934969 -0.353574)
(0.0245254 0.854862 -0.332803)
(0.029615 0.924188 -0.355647)
(0.039679 0.87637 -0.347605)
(0.0195987 0.782538 -0.330716)
(0.0250786 0.89409 -0.345908)
(0.0482544 0.869776 -0.349111)
(0.0458507 0.801745 -0.334183)
(0.0339191 0.81767 -0.338609)
(-0.00742902 0.998657 -0.322619)
(-0.022424 0.981796 -0.3179)
(-0.00127813 1.00963 -0.32116)
(-0.0114545 0.999793 -0.32184)
(0.00232574 1.03422 -0.326329)
(0.00279906 1.03669 -0.326979)
(-0.038143 0.943459 -0.321187)
(-0.0284209 0.955705 -0.321392)
(-0.010139 1.04681 -0.339634)
(-0.00285658 1.05633 -0.341426)
(-0.0338266 0.948234 -0.314797)
(-0.0123063 1.03832 -0.341979)
(-0.00653876 1.05492 -0.343259)
(-0.0283803 0.966519 -0.318105)
(0.00547232 0.916556 -0.356455)
(-0.018697 0.896447 -0.350358)
(0.0273288 0.957501 -0.353205)
(0.0492638 0.928248 -0.359999)
(0.0527317 0.955831 -0.357341)
(0.000935241 0.89737 -0.351809)
(-0.0178937 0.814576 -0.329151)
(0.0359509 0.941393 -0.357866)
(0.0535332 0.900595 -0.362097)
(-0.00588303 0.908623 -0.362283)
(-0.0163465 0.852478 -0.341997)
(0.00398255 0.867503 -0.353583)
(0.0558598 0.945226 -0.365257)
(0.0259388 0.872403 -0.355542)
(-0.00606219 0.857177 -0.344943)
(0.0407849 0.901074 -0.371826)
(0.0201887 0.844992 -0.352196)
(0.0364019 1.03785 -0.318548)
(0.0324097 1.03311 -0.313912)
(0.0353356 1.03191 -0.318717)
(0.0410372 1.01871 -0.310765)
(0.053191 0.928732 -0.271006)
(0.0542263 0.939351 -0.280013)
(0.0426447 1.01396 -0.307473)
(0.0385336 1.03851 -0.316992)
(0.0574667 0.910756 -0.268273)
(0.0572069 0.889665 -0.260751)
(0.0721418 0.94514 -0.277538)
(0.0589384 0.92207 -0.26883)
(0.0589437 0.958623 -0.280206)
(0.0731228 0.934079 -0.275073)
(0.0597562 0.876757 -0.257313)
(0.0743684 0.917032 -0.271299)
(0.0698223 0.923124 -0.275611)
(0.0616025 0.967 -0.289016)
(0.0510738 1.00891 -0.305846)
(0.0802266 0.944434 -0.284773)
(0.0542031 1.00947 -0.310358)
(0.0553987 1.00441 -0.304807)
(0.0133009 0.457378 -0.192123)
(0.0117494 0.539651 -0.221875)
(0.010414 0.517835 -0.215974)
(0.0104323 0.479669 -0.196368)
(0.0154051 0.431645 -0.186175)
(0.00382991 0.502376 -0.204156)
(0.00982965 0.386764 -0.159916)
(0.00834662 0.419995 -0.168763)
(0.00814769 0.386066 -0.154534)
(0.00191079 0.440642 -0.177105)
(0.00596175 0.407221 -0.162803)
(0.0116382 0.360832 -0.144674)
(0.0941001 0.751894 -0.34865)
(0.0933824 0.727393 -0.333758)
(0.09661 0.641626 -0.278567)
(0.0951658 0.604249 -0.274128)
(0.0857991 0.81722 -0.360545)
(0.0871058 0.81364 -0.358901)
(0.0999498 0.803012 -0.345731)
(0.0927186 0.678886 -0.293468)
(0.0906536 0.592661 -0.259291)
(0.0951369 0.649762 -0.302682)
(0.0889876 0.760951 -0.352457)
(0.0930093 0.645566 -0.294123)
(0.0920314 0.633803 -0.292355)
(0.0834437 0.711006 -0.315847)
(0.0946984 0.62601 -0.273981)
(0.0504003 0.976522 -0.436009)
(0.0638363 1.02538 -0.467979)
(0.0469979 0.998752 -0.443932)
(0.0553893 0.983551 -0.457923)
(0.0365309 0.976813 -0.456965)
(0.075154 0.763136 -0.211476)
(0.0742637 0.68915 -0.191073)
(0.049807 0.64486 -0.171669)
(0.0432947 0.600129 -0.161496)
(0.069518 0.689206 -0.187059)
(0.0511732 0.569808 -0.158117)
(0.049142 0.609397 -0.160904)
(0.0466166 0.57557 -0.157975)
(0.0481952 0.787684 -0.219536)
(0.0457321 0.813072 -0.2293)
(0.0613474 0.675875 -0.184695)
(0.0458725 0.713251 -0.189985)
(0.0404539 0.599119 -0.163847)
(0.0360844 0.754236 -0.20503)
(0.0463481 0.793905 -0.21895)
(0.0334825 0.770628 -0.208569)
(-0.0145836 0.71169 -0.339168)
(-0.0191666 0.730641 -0.342096)
(0.00119954 0.679976 -0.33653)
(-0.00783714 0.688807 -0.35098)
(0.00954862 0.677777 -0.351542)
(-0.00871413 0.722515 -0.350115)
(-0.00620022 0.757705 -0.349677)
(0.000386261 0.761644 -0.354825)
(-0.00329231 0.761691 -0.363371)
(0.002578 0.747031 -0.355087)
(0.000391712 0.675052 -0.341003)
(-0.0184679 0.770055 -0.365477)
(0.00226764 0.72135 -0.358225)
(-0.00392771 0.685702 -0.352246)
(-0.00807897 0.734683 -0.360972)
(0.0528294 0.967271 -0.4807)
(0.0580129 0.935247 -0.478237)
(0.0585677 0.975968 -0.489174)
(0.05862 0.971224 -0.48526)
(0.0592066 0.849024 -0.457941)
(0.0596495 0.816592 -0.430162)
(0.0547833 0.982841 -0.498484)
(0.0506779 0.987831 -0.488022)
(0.0715675 0.753914 -0.427521)
(0.0624591 0.772714 -0.407524)
(0.0659893 0.719969 -0.392892)
(0.0753398 0.824487 -0.434231)
(0.0706542 0.707011 -0.39462)
(0.0731657 0.788348 -0.423727)
(0.081977 0.875489 -0.463663)
(0.0726304 0.823468 -0.45071)
(0.0734805 0.84937 -0.437449)
(-0.0451086 0.879576 -0.329668)
(-0.0503691 0.850761 -0.322352)
(-0.040715 0.891101 -0.328005)
(-0.0412158 0.907058 -0.330173)
(-0.0405728 0.883976 -0.322476)
(-0.0371142 0.949964 -0.361202)
(-0.0277836 0.956523 -0.363522)
(-0.0341942 0.988625 -0.35658)
(-0.0268368 1.00227 -0.358098)
(-0.0345862 0.949013 -0.346093)
(-0.0300297 0.983178 -0.346106)
(-0.0196219 1.01519 -0.357788)
(-0.0244506 0.983991 -0.371754)
(-0.0379853 0.955227 -0.342284)
(-0.0243333 1.01493 -0.35957)
(-0.02475 1.00595 -0.36545)
(-0.0168011 1.01053 -0.371309)
(-0.0195532 1.02082 -0.368387)
(-0.0157967 0.606104 -0.239313)
(-0.015639 0.701941 -0.261628)
(0.00908566 0.715031 -0.248334)
(0.0137336 0.715046 -0.248327)
(-0.0220743 0.697254 -0.269493)
(-0.0202354 0.660482 -0.256935)
(-0.017504 0.721661 -0.265397)
(-0.00234044 0.639079 -0.237196)
(-0.00679984 0.772616 -0.275764)
(-0.00652743 0.80621 -0.284627)
(0.00942949 0.684561 -0.243907)
(-0.0142452 0.649498 -0.255883)
(-0.00109245 0.77571 -0.282041)
(-0.0014206 0.793299 -0.288292)
(-0.00652452 0.652547 -0.248711)
(0.00172486 0.662002 -0.243946)
(0.00325815 0.924946 -0.320312)
(0.0120431 0.958598 -0.336397)
(0.0157153 0.948029 -0.343401)
(0.000884522 0.956649 -0.340772)
(0.0542169 0.981604 -0.346235)
(0.0579102 1.00403 -0.35342)
(-0.00236397 0.923645 -0.327812)
(-5.75594e-05 0.910945 -0.291563)
(-0.0110003 0.919127 -0.323394)
(0.00318055 0.958705 -0.347893)
(0.0687347 0.984925 -0.328085)
(0.053516 0.992844 -0.326219)
(0.031912 0.945438 -0.310242)
(0.071785 0.952084 -0.312617)
(0.0643262 0.936661 -0.300999)
(0.0694315 0.944285 -0.304599)
(0.0337275 0.94341 -0.301273)
(0.00183247 0.456054 -0.152214)
(-0.00715979 0.531333 -0.177264)
(-0.00877675 0.52869 -0.187432)
(0.00305398 0.420729 -0.157524)
(0.00331162 0.368548 -0.136384)
(0.0022808 0.432816 -0.145158)
(0.000597384 0.535962 -0.179267)
(-0.00231271 0.387334 -0.140295)
(0.00200613 0.473881 -0.160901)
(-0.00118291 0.515963 -0.18112)
(0.00215954 0.462456 -0.171102)
(0.00199922 0.44073 -0.151876)
(-0.00408276 0.383047 -0.137765)
(0.0121151 1.03868 -0.406475)
(0.0231993 1.03361 -0.411765)
(0.034911 1.04387 -0.407209)
(0.0397934 1.01775 -0.404981)
(0.0383143 1.03276 -0.409383)
(0.0185003 1.03933 -0.407785)
(0.0502571 0.999256 -0.394631)
(0.042461 1.03996 -0.402166)
(0.0290074 1.023 -0.404383)
(0.0311683 1.03888 -0.407203)
(0.00609992 1.01709 -0.400626)
(0.00576526 1.02003 -0.3965)
(0.00406836 0.370824 -0.152459)
(0.0107061 0.394504 -0.168682)
(0.00300752 0.362983 -0.150212)
(0.00270761 0.367565 -0.15449)
(0.0012407 0.515014 -0.220227)
(0.00726426 0.425848 -0.181949)
(0.00267837 0.405688 -0.171734)
(0.000659671 0.50707 -0.210349)
(0.00374576 0.494692 -0.210272)
(0.00659096 0.399013 -0.164848)
(0.00298341 0.449898 -0.179323)
(0.0037004 0.477275 -0.198261)
(-0.00123125 0.49579 -0.194147)
(0.00200448 0.436637 -0.185696)
(-0.0530549 0.800758 -0.307517)
(-0.0600863 0.78494 -0.312116)
(-0.0535008 0.758103 -0.288904)
(-0.0512411 0.745932 -0.291274)
(-0.0505219 0.829347 -0.317738)
(-0.0442475 0.814491 -0.306337)
(-0.0300494 0.850351 -0.308559)
(-0.0222586 0.876996 -0.317766)
(-0.0180344 0.853252 -0.289718)
(-0.0274809 0.865602 -0.318787)
(-0.0326495 0.830489 -0.295755)
(-0.0125969 0.868523 -0.308462)
(-0.0254461 0.834464 -0.295455)
(-0.0226602 0.847754 -0.303536)
(-0.0071389 0.90398 -0.329385)
(0.0395191 0.799488 -0.340067)
(0.0484168 0.852216 -0.363346)
(0.0475954 0.976879 -0.410747)
(0.0535989 0.949325 -0.405451)
(0.038789 0.877955 -0.375938)
(0.0375517 0.809051 -0.348277)
(0.0305657 0.735757 -0.321971)
(0.0359613 0.780335 -0.354748)
(0.0383601 0.836376 -0.37641)
(0.0503901 0.938169 -0.41554)
(0.0398492 0.838416 -0.390915)
(0.0523407 0.992802 -0.426445)
(0.0427663 0.983847 -0.422739)
(0.0439531 0.969755 -0.416794)
(0.0361556 0.86312 -0.380832)
(0.0261138 0.736437 -0.335033)
(0.0533555 0.952613 -0.413202)
(0.0474796 0.971918 -0.429984)
(0.0327733 0.810672 -0.363893)
(0.0328391 0.937556 -0.398211)
(0.0399308 0.94006 -0.401818)
(0.0562114 0.888075 -0.381061)
(0.0597441 0.943004 -0.398881)
(0.0453436 0.939091 -0.41115)
(0.0305614 0.914751 -0.386373)
(0.0215938 0.874644 -0.368198)
(0.0259899 0.894873 -0.37156)
(0.0479569 0.910505 -0.378764)
(0.0514848 0.890516 -0.378187)
(0.0488374 0.843488 -0.37201)
(0.0456099 0.754961 -0.329512)
(0.0521039 0.785745 -0.345291)
(0.0400735 0.867897 -0.377272)
(0.0379398 0.87347 -0.357906)
(0.0343899 0.684272 -0.29703)
(0.0381018 0.683086 -0.297398)
(0.0398053 0.838729 -0.349938)
(0.0471201 0.864028 -0.354612)
(0.05381 0.855498 -0.358904)
(0.0346432 0.758017 -0.328316)
(0.0330927 0.748288 -0.330818)
(0.078818 0.767678 -0.399385)
(0.0796554 0.80823 -0.407051)
(0.0736379 0.801346 -0.409093)
(0.077025 0.739322 -0.385682)
(0.071664 0.877799 -0.431231)
(0.0773972 0.794003 -0.398835)
(0.0786464 0.809321 -0.398932)
(0.0777212 0.779056 -0.38475)
(0.0767692 0.895448 -0.449787)
(0.0755909 0.821233 -0.413353)
(0.0849851 0.787746 -0.386296)
(0.0691052 0.926596 -0.455086)
(0.0771906 0.869513 -0.421728)
(0.0446102 0.959599 -0.374137)
(0.0392503 0.953694 -0.3703)
(0.0524726 0.918333 -0.361797)
(0.0604649 0.882512 -0.342812)
(0.0481128 1.02682 -0.394647)
(0.0454524 1.01617 -0.394074)
(0.0659643 0.971646 -0.373951)
(0.0696796 1.00129 -0.39434)
(0.0399225 0.96396 -0.373761)
(0.0374241 0.969496 -0.371778)
(0.0561511 0.88479 -0.352324)
(0.0308159 1.03717 -0.395812)
(0.0448565 1.02595 -0.384135)
(0.0362626 1.04378 -0.39749)
(0.0458824 0.991089 -0.392209)
(0.0720439 0.822728 -0.324798)
(0.0492195 0.967665 -0.375568)
(0.0608684 0.921057 -0.362825)
(0.0648248 0.886065 -0.345581)
(0.0479726 0.987786 -0.387087)
(0.0370249 0.998538 -0.3181)
(0.0312342 0.88974 -0.283971)
(0.0268895 0.993899 -0.325415)
(0.0394194 0.86227 -0.271714)
(0.0212086 1.02004 -0.330679)
(0.0248881 1.02783 -0.340148)
(0.0441306 0.9792 -0.313223)
(0.0342716 0.931512 -0.291231)
(0.0432381 0.903622 -0.284147)
(0.0569415 0.922205 -0.282646)
(0.0526346 0.854078 -0.250566)
(0.028523 0.989302 -0.3167)
(0.0435234 0.891283 -0.283646)
(0.0409467 1.02466 -0.34019)
(0.0439198 0.99245 -0.306658)
(0.0549738 0.907882 -0.284513)
(0.0174635 1.05736 -0.342324)
(0.0305201 1.05333 -0.338741)
(0.0554462 0.961329 -0.306076)
(0.0465294 0.958343 -0.30336)
(0.0234526 1.04319 -0.335762)
(0.0499692 1.03244 -0.334488)
(0.037106 1.06947 -0.342988)
(0.0328837 1.03657 -0.326726)
(-0.0190564 0.808774 -0.35073)
(0.0179119 0.810391 -0.365668)
(-0.0156664 0.820484 -0.359712)
(-0.0319524 0.838028 -0.366737)
(-0.0193695 0.746177 -0.333118)
(-0.0343753 0.799546 -0.343924)
(-0.0253454 0.716393 -0.31403)
(-0.0161183 0.7361 -0.337314)
(-0.0250618 0.737425 -0.324863)
(-0.0209933 0.720189 -0.310495)
(-0.00802689 0.726943 -0.333177)
(-0.0135558 0.811508 -0.365969)
(-0.0284766 0.805182 -0.360377)
(-0.0247675 0.722934 -0.320418)
(-0.0225335 0.726601 -0.328381)
(0.00250564 0.761106 -0.349826)
(-0.00363769 0.761063 -0.356334)
(-0.0175028 0.967998 -0.314946)
(-0.024061 0.9703 -0.306806)
(-0.0152007 0.953368 -0.317389)
(-0.038266 0.854128 -0.308091)
(-0.0412685 0.869668 -0.306091)
(-0.0390419 0.856284 -0.298233)
(0.0146673 1.00289 -0.326644)
(0.00433547 0.993883 -0.320854)
(0.00158037 0.984333 -0.319013)
(-0.0171413 0.979923 -0.308043)
(-0.0450131 0.869372 -0.300103)
(-0.0351939 0.897744 -0.324502)
(0.00399513 0.986834 -0.321051)
(0.00408648 0.946512 -0.329155)
(0.010242 0.980549 -0.324621)
(0.026601 0.969139 -0.328529)
(0.0129817 0.957578 -0.328419)
(0.0176876 0.979204 -0.329714)
(0.00273092 0.951225 -0.328205)
(0.0139566 1.00533 -0.322468)
(-0.00103062 0.929667 -0.326441)
(0.0266015 0.998328 -0.327671)
(-0.0143125 0.948874 -0.372596)
(-0.0255993 0.976393 -0.381707)
(-0.0356085 0.893509 -0.34451)
(-0.0422323 0.884852 -0.351421)
(-0.0654484 0.805923 -0.308735)
(-0.0137137 0.955633 -0.364896)
(-0.0030838 0.992254 -0.386022)
(-0.0277854 0.958655 -0.369568)
(-0.055979 0.834839 -0.317804)
(-0.0306553 0.882355 -0.331111)
(-0.0547303 0.832025 -0.311812)
(-0.0322284 0.938963 -0.357685)
(-0.0237059 0.915798 -0.350631)
(-0.0564883 0.844369 -0.325291)
(0.0434214 0.794202 -0.231601)
(0.0256138 0.685587 -0.203196)
(0.0398673 0.854447 -0.264415)
(0.0337322 0.776089 -0.227273)
(0.0225102 0.743718 -0.225156)
(-0.00733786 0.702489 -0.232811)
(0.0156744 0.723258 -0.21865)
(0.0408453 0.845719 -0.25318)
(0.0470045 0.841421 -0.253933)
(-0.00143695 0.875868 -0.279314)
(0.0302868 0.906334 -0.282321)
(0.00165821 0.758784 -0.234106)
(-0.000686815 0.731244 -0.224003)
(-0.0210037 0.727485 -0.245876)
(-0.0142441 0.720552 -0.230615)
(0.0206797 0.902255 -0.290589)
(-0.0107479 0.861149 -0.28829)
(-0.0040937 0.770169 -0.239637)
(-0.0212447 0.769907 -0.258628)
(0.00680568 0.778942 -0.24693)
(0.00947938 0.860691 -0.268218)
(-0.0256868 0.832729 -0.282623)
(-0.0157578 0.844519 -0.281624)
(-0.00492895 0.822026 -0.264056)
(0.0561335 0.909083 -0.27297)
(-0.00657514 0.849971 -0.265532)
(-0.020548 0.84103 -0.2725)
(0.0448571 0.891612 -0.26438)
(0.065676 0.948245 -0.294481)
(-0.0282627 0.873754 -0.291656)
(0.0196014 0.880542 -0.265107)
(0.0597099 0.964566 -0.307735)
(0.034993 0.954963 -0.307821)
(-0.000211168 0.94218 -0.329803)
(0.0119811 0.626066 -0.342618)
(0.00611613 0.617377 -0.351533)
(0.0144764 0.610391 -0.346358)
(0.0254694 0.671264 -0.377723)
(0.0143513 0.599148 -0.337715)
(0.0159159 0.53045 -0.315607)
(0.0294823 0.478298 -0.309869)
(0.0173501 0.647148 -0.367823)
(0.0397234 0.649891 -0.370215)
(0.047975 0.475933 -0.319067)
(0.0466334 0.600655 -0.369521)
(0.0316755 0.550034 -0.34071)
(0.0251377 1.03711 -0.314827)
(0.000217135 1.02633 -0.316613)
(0.00314856 1.03392 -0.321809)
(0.00480458 1.0371 -0.322021)
(0.0225822 1.03305 -0.313719)
(-0.0110598 0.982417 -0.3177)
(-0.0199425 0.975172 -0.313086)
(0.00967507 1.01462 -0.320004)
(0.0324911 1.02516 -0.313451)
(0.0332509 1.03932 -0.318768)
(0.0382494 0.886642 -0.347267)
(0.0441694 0.894988 -0.33583)
(0.0702322 0.92507 -0.345205)
(0.0832399 0.907477 -0.338025)
(0.033273 0.86723 -0.334382)
(0.0649835 0.750241 -0.31399)
(0.0526546 0.790889 -0.326876)
(0.0287725 0.836152 -0.33146)
(0.0288386 0.824331 -0.329632)
(0.0775712 0.908449 -0.334097)
(0.0804501 0.830459 -0.309376)
(0.0675425 0.873381 -0.332551)
(0.0710623 0.866814 -0.328518)
(0.0697689 0.819842 -0.323483)
(0.0507733 0.784811 -0.327299)
(0.0750016 0.714188 -0.281449)
(0.0787061 0.722827 -0.285063)
(0.083965 0.723472 -0.288572)
(-0.0189536 0.944138 -0.351687)
(0.00985725 1.01299 -0.383591)
(-0.033848 0.940283 -0.348871)
(-0.0138112 0.992612 -0.367113)
(-0.0024474 0.963292 -0.35648)
(0.0147356 0.992145 -0.37418)
(-0.00901576 1.00088 -0.373744)
(-0.0374639 0.874007 -0.325973)
(-0.0419912 0.860802 -0.315742)
(0.0141273 1.01258 -0.384504)
(-0.0274956 0.935955 -0.348767)
(-0.0377985 0.881916 -0.322619)
(-0.00324058 0.942775 -0.3473)
(0.00231124 0.976445 -0.364778)
(0.091118 0.774271 -0.33453)
(0.097127 0.784242 -0.332748)
(0.0931816 0.817778 -0.358438)
(0.0998033 0.669773 -0.294272)
(0.0898341 0.850017 -0.387515)
(0.0956644 0.773058 -0.354262)
(0.0929143 0.800542 -0.364447)
(0.0965716 0.758645 -0.350103)
(0.0601332 0.89809 -0.377465)
(0.0659025 0.883887 -0.375943)
(0.0519753 0.899275 -0.37479)
(0.0557494 0.883135 -0.373116)
(0.0619033 0.841267 -0.365859)
(0.0869522 0.824468 -0.332648)
(0.080778 0.840596 -0.342908)
(0.0871158 0.859532 -0.349827)
(0.0749256 0.890012 -0.383296)
(0.059134 0.896542 -0.380638)
(0.0787986 0.789718 -0.351199)
(0.0912877 0.842152 -0.340879)
(0.0913416 0.785319 -0.322153)
(0.0873053 0.787495 -0.330873)
(0.0915061 0.821437 -0.352611)
(0.0867257 0.815925 -0.335328)
(0.0807038 0.841666 -0.351991)
(0.0998743 0.772391 -0.332172)
(0.0926498 0.794044 -0.342192)
(0.0347645 0.940576 -0.359625)
(0.0333296 0.960524 -0.365196)
(0.0191852 1.05273 -0.397862)
(0.00508839 1.02562 -0.385177)
(0.0248712 0.984204 -0.375936)
(0.0264161 0.976324 -0.370458)
(0.00392209 1.04101 -0.381144)
(-0.000247021 1.01218 -0.380413)
(-0.0129823 1.00949 -0.377183)
(-0.010995 0.713529 -0.215881)
(0.000172054 0.71157 -0.198077)
(-0.0168851 0.778048 -0.238713)
(-0.0172995 0.823067 -0.263983)
(-0.0179561 0.658066 -0.209489)
(-0.00587242 0.690744 -0.207874)
(-0.0398305 0.734888 -0.24624)
(-0.0157328 0.68351 -0.219965)
(-0.0104622 0.654575 -0.199935)
(-0.0152559 0.788173 -0.255932)
(-0.0288277 0.644699 -0.216646)
(-0.0199461 0.671758 -0.220727)
(-0.0121632 0.711536 -0.22065)
(-0.00435281 0.682195 -0.197011)
(0.0316845 0.848494 -0.363726)
(0.029951 0.908812 -0.379023)
(0.0241103 0.92044 -0.386564)
(0.0203794 1.00911 -0.414394)
(0.0114274 1.01035 -0.407048)
(0.017847 0.939179 -0.387122)
(0.031107 0.887928 -0.37653)
(0.0299442 0.811789 -0.346933)
(0.0219697 0.864639 -0.366655)
(0.0204707 1.00074 -0.414727)
(0.0178635 0.915724 -0.379263)
(0.0177884 0.894585 -0.370075)
(0.0239495 0.896899 -0.369616)
(0.0258733 0.80576 -0.342267)
(0.0196697 1.01305 -0.41163)
(0.0259514 0.844424 -0.352531)
(0.0334663 0.802535 -0.338899)
(0.066188 0.782823 -0.379508)
(0.0671641 0.792174 -0.39313)
(0.0723998 0.755246 -0.358838)
(0.0679897 0.741854 -0.370086)
(0.055527 0.648262 -0.329677)
(0.063881 0.806919 -0.410258)
(0.0570482 0.751393 -0.381858)
(0.0630398 0.81266 -0.401078)
(0.0566226 0.698624 -0.33986)
(0.051962 0.731129 -0.355923)
(0.0628929 0.725941 -0.361843)
(0.0520898 0.694449 -0.345432)
(0.0507441 0.633833 -0.321531)
(0.0537406 0.672773 -0.336894)
(0.0225653 1.0182 -0.396002)
(0.0158493 1.00867 -0.392863)
(-0.010417 1.00241 -0.399851)
(0.00165821 0.999834 -0.396759)
(0.0377582 1.04195 -0.407072)
(0.0591287 1.04124 -0.409241)
(0.00457265 1.00798 -0.400422)
(0.0175593 1.0444 -0.421117)
(0.0290887 1.04143 -0.421467)
(0.0405312 1.02731 -0.407545)
(0.02443 1.05073 -0.419335)
(0.0250511 1.03158 -0.422889)
(0.0281059 1.04111 -0.426609)
(0.0436257 1.02961 -0.402036)
(0.0529773 0.992508 -0.403292)
(0.033156 1.01874 -0.41458)
(0.0134088 0.563848 -0.224815)
(0.0125056 0.510229 -0.213536)
(0.026644 0.758522 -0.271875)
(0.0191506 0.746393 -0.268364)
(0.012039 0.717275 -0.267064)
(0.00835042 0.70652 -0.25713)
(0.00992689 0.54931 -0.222009)
(0.0271734 0.629482 -0.242424)
(0.0170124 0.66454 -0.246464)
(0.0204942 0.717863 -0.269881)
(0.0122814 0.66434 -0.248648)
(0.0063681 0.678009 -0.252696)
(0.00892351 0.568432 -0.227933)
(0.0237885 0.959597 -0.449341)
(0.0328484 0.994461 -0.470838)
(0.037412 0.968006 -0.47411)
(0.0469011 0.947542 -0.462514)
(0.0120166 1.01279 -0.485157)
(0.043893 1.00772 -0.498699)
(0.0345164 0.969773 -0.466769)
(0.0199154 0.983903 -0.306821)
(0.024114 0.995126 -0.319915)
(0.028175 0.984123 -0.304604)
(0.0408616 0.938897 -0.291609)
(0.023202 0.952331 -0.304666)
(0.0258232 0.948009 -0.306685)
(0.0158119 1.00403 -0.32257)
(0.0226567 0.959333 -0.312891)
(0.0369989 1.00433 -0.306859)
(0.0459284 0.938696 -0.287235)
(0.0317579 0.882426 -0.270356)
(0.0220445 0.865433 -0.272078)
(0.0161608 1.01795 -0.320176)
(0.0177839 1.01291 -0.332618)
(0.0125085 1.03086 -0.3313)
(0.0296924 1.05703 -0.332205)
(0.0228611 0.972142 -0.308664)
(0.070195 0.786571 -0.346321)
(0.0782791 0.84135 -0.362046)
(0.0714549 0.863307 -0.375685)
(0.0633138 0.864635 -0.374108)
(0.0664216 0.820968 -0.361936)
(0.0686223 0.759074 -0.342764)
(0.0605791 0.887616 -0.386252)
(0.0705033 0.847502 -0.369162)
(0.0648322 0.684156 -0.2869)
(0.071368 0.744105 -0.332265)
(0.0675018 0.839353 -0.374239)
(0.0634668 0.803804 -0.329261)
(0.0563462 0.648164 -0.287079)
(0.0536437 0.929259 -0.389591)
(0.0806132 0.823124 -0.361806)
(0.0561442 0.731867 -0.307886)
(0.0496633 0.686475 -0.285406)
(-0.0139822 0.579186 -0.189626)
(-0.00479063 0.58248 -0.178376)
(-0.00170145 0.448206 -0.156829)
(-0.00242871 0.45167 -0.157712)
(-0.00474526 0.468149 -0.15955)
(-0.0105246 0.521606 -0.184781)
(-0.0118242 0.584083 -0.186491)
(-0.00227096 0.43509 -0.150534)
(0.00295643 0.41245 -0.143812)
(-0.000908809 0.427916 -0.145714)
(0.000393907 0.410449 -0.144535)
(-0.000163663 0.459738 -0.148123)
(-0.000485612 0.443053 -0.147471)
(-0.000236952 0.402134 -0.143401)
(0.000302562 0.536914 -0.170845)
(-0.00293649 0.447554 -0.150174)
(0.000160974 0.425383 -0.149774)
(-0.00169678 0.454003 -0.159038)
(0.0332856 1.03558 -0.313716)
(0.0415345 0.957226 -0.281909)
(0.0446413 0.877874 -0.255205)
(0.0475994 0.979364 -0.285244)
(0.0526642 0.945535 -0.273808)
(0.0487246 0.874331 -0.249183)
(0.0291042 1.03969 -0.317604)
(0.0442942 0.969647 -0.286109)
(0.0351142 1.00608 -0.307237)
(0.046552 1.00577 -0.299527)
(0.00630909 0.631804 -0.318068)
(0.00780596 0.61155 -0.307438)
(0.0115254 0.707506 -0.357468)
(0.0229422 0.73239 -0.359643)
(-0.0017185 0.600118 -0.315332)
(-0.00344007 0.560387 -0.300693)
(0.0224892 0.663477 -0.322807)
(0.0160474 0.635634 -0.316912)
(-0.00399611 0.547347 -0.292781)
(0.0220485 0.64215 -0.326134)
(0.0278818 0.700927 -0.344689)
(0.0135846 0.664967 -0.344758)
(-0.0031159 0.627694 -0.327012)
(0.0330594 0.783434 -0.372558)
(0.0705978 0.89336 -0.32371)
(0.0597595 0.909917 -0.337414)
(0.0752188 0.858496 -0.314854)
(0.0485111 1.01119 -0.381377)
(0.0492039 1.00015 -0.368891)
(0.0379037 1.01271 -0.391154)
(0.0310485 1.02631 -0.384933)
(0.0573552 0.987918 -0.360932)
(0.0702492 0.888705 -0.334268)
(0.0729944 0.874303 -0.324869)
(0.0498164 1.02513 -0.391737)
(0.0554413 0.996558 -0.390819)
(0.0634626 0.965107 -0.356234)
(0.0653544 1.0096 -0.381748)
(0.0518935 1.02531 -0.396899)
(0.0674623 0.971003 -0.37391)
(0.0654141 0.967922 -0.376277)
(0.0732807 0.945388 -0.362754)
(0.0467534 0.866342 -0.308186)
(0.0442266 0.91912 -0.327826)
(0.052065 0.893494 -0.311325)
(0.0595636 0.853856 -0.298237)
(0.0506082 0.805067 -0.286561)
(0.0500772 0.882788 -0.309955)
(0.0478486 0.793503 -0.279026)
(0.055639 0.981725 -0.352872)
(0.0548151 1.0028 -0.362718)
(0.0526644 0.870457 -0.315688)
(0.0700968 0.877184 -0.307253)
(0.059811 0.904712 -0.319778)
(0.0587581 0.98947 -0.350645)
(0.0543107 0.986929 -0.34803)
(0.0584757 0.985138 -0.348604)
(0.0580944 0.965973 -0.350846)
(0.0621759 0.977609 -0.358266)
(0.0427249 0.603235 -0.267603)
(0.0511124 0.514118 -0.244884)
(0.0479718 0.521733 -0.246484)
(0.0391427 0.472361 -0.217958)
(0.039433 0.446667 -0.206326)
(0.0333759 0.60774 -0.273011)
(0.0392773 0.605432 -0.271837)
(0.0398586 0.499586 -0.23193)
(0.0424653 0.482693 -0.22102)
(0.0311353 0.579868 -0.266138)
(0.0668206 0.971347 -0.354973)
(0.0719528 0.959779 -0.353933)
(0.0580178 0.981298 -0.37272)
(0.0621122 0.961152 -0.370643)
(0.0496687 0.96089 -0.376827)
(0.0579898 0.992441 -0.380977)
(0.0480444 0.988294 -0.376111)
(0.0795379 0.946895 -0.346259)
(0.0826311 0.978863 -0.367904)
(0.0874844 0.846784 -0.31532)
(0.087582 0.823362 -0.308688)
(0.0783564 0.923307 -0.366423)
(0.0623705 0.958204 -0.379171)
(0.0951362 0.930576 -0.359744)
(0.10173 0.856727 -0.342835)
(0.086315 0.93985 -0.362606)
(0.0795303 0.878069 -0.314088)
(0.067184 0.980569 -0.370935)
(0.0828974 0.920432 -0.364893)
(0.0791828 0.92812 -0.350629)
(0.0160302 0.773769 -0.232011)
(0.027661 0.727945 -0.199699)
(0.0260213 0.764556 -0.223948)
(0.0376756 0.770505 -0.21616)
(0.0174074 0.660468 -0.188169)
(0.0446488 0.64131 -0.184207)
(0.0425081 0.599176 -0.178511)
(0.0047729 0.752276 -0.227295)
(0.0140867 0.693708 -0.204843)
(0.0260546 0.618011 -0.182546)
(0.0276682 0.623902 -0.180325)
(0.0160778 0.594406 -0.171689)
(0.019169 0.572599 -0.168929)
(0.025786 0.565227 -0.162589)
(0.00957095 0.646565 -0.194358)
(0.0226949 0.785745 -0.231297)
(0.0137138 0.785672 -0.234109)
(0.0318157 0.706565 -0.207256)
(-0.0106612 1.03411 -0.362688)
(-0.0195078 1.01619 -0.351591)
(-0.00361159 1.04444 -0.367941)
(-0.0122648 1.03081 -0.362203)
(-0.00954001 1.04652 -0.359861)
(-0.00469805 1.0442 -0.357849)
(0.00991147 1.00284 -0.332088)
(0.0107383 0.934739 -0.302823)
(0.00476385 0.983836 -0.342131)
(0.00325003 1.04264 -0.360435)
(0.00823965 0.991267 -0.323143)
(0.0047849 1.0202 -0.330939)
(-0.0057912 1.06104 -0.350155)
(-0.00192486 1.05006 -0.345631)
(0.0135853 0.985718 -0.335443)
(0.00197505 1.00871 -0.357687)
(0.00591165 0.987713 -0.345318)
(0.0141102 0.933834 -0.31947)
(0.00942216 0.99376 -0.338475)
(0.00694289 0.990681 -0.337828)
(-0.00415675 1.03911 -0.355958)
(0.00424641 1.01987 -0.330875)
(0.0660053 0.760135 -0.297999)
(0.0630374 0.721299 -0.280724)
(0.071826 0.810577 -0.329432)
(0.0577119 0.701607 -0.282407)
(0.0676596 0.7787 -0.302718)
(0.0742959 0.761435 -0.294503)
(0.0767197 0.865276 -0.349519)
(0.0713679 0.771742 -0.315154)
(0.0684263 0.804765 -0.326805)
(0.0657801 0.777071 -0.298328)
(0.0761806 0.822441 -0.322812)
(0.0632949 0.921732 -0.353397)
(0.0630594 0.884451 -0.346351)
(0.0681529 0.928286 -0.358781)
(0.0706451 0.918366 -0.3558)
(0.0724545 0.85022 -0.341039)
(0.0704075 0.933899 -0.374077)
(0.0663778 0.945143 -0.375686)
(0.0649603 0.923411 -0.355482)
(0.0622611 0.948804 -0.374555)
(0.0264146 0.877998 -0.375186)
(0.02791 0.786578 -0.342008)
(0.0261419 0.95203 -0.406334)
(0.0279741 0.858715 -0.373351)
(0.0195585 1.0217 -0.423819)
(0.014763 1.02805 -0.419952)
(0.0332917 0.819331 -0.352257)
(0.030959 0.945143 -0.405549)
(0.0229475 1.01246 -0.423867)
(0.0186632 1.01687 -0.422678)
(0.0259055 0.926921 -0.392945)
(0.00236719 0.453368 -0.214599)
(0.00127656 0.466282 -0.219059)
(0.0511356 0.867842 -0.250884)
(0.061088 0.919999 -0.262797)
(0.0537513 0.926568 -0.271043)