/*--------------------------------*- C++ -*----------------------------------*\
| =========                 |                                                 |
| \\      /  F ield         | OpenFOAM: The Open Source CFD Toolbox           |
|  \\    /   O peration     | Version:  v1612+                                |
|   \\  /    A nd           | Web:      www.OpenFOAM.com                      |
|    \\/     M anipulation  |                                                 |
\*---------------------------------------------------------------------------*/
FoamFile
{
    version     2.0;
    format      ascii;
    class       surfaceScalarField;
    location    "150";
    object      phi;
}
// * * * * * * * * * * * * * * * * * * * * * * * * * * * * * * * * * * * * * //

dimensions      [0 3 -1 0 0 0 0];

internalField   nonuniform List<scalar> 
41936
(
8.87348e-09
8.29839e-11
5.97269e-10
-9.5537e-09
-8.57821e-09
9.15189e-09
-1.02305e-09
4.4938e-10
8.81963e-09
-5.34887e-09
-1.65055e-09
-1.82017e-09
4.43099e-09
-1.14928e-09
-5.79427e-09
2.51266e-09
4.18808e-09
9.90314e-10
-7.47412e-10
1.60495e-09
2.61392e-09
4.91723e-09
-9.13607e-09
-7.12105e-09
3.14938e-09
5.57665e-09
-1.39384e-09
-4.80866e-09
-9.18534e-10
-3.43434e-09
2.22068e-09
3.82755e-09
7.13199e-10
4.04668e-11
-4.75829e-10
-1.02157e-09
4.64684e-09
-9.98817e-10
2.74365e-09
-7.84009e-10
4.98427e-10
2.97546e-09
-9.37242e-10
-3.43196e-09
-7.13638e-10
2.66762e-09
1.24578e-10
1.13959e-09
-2.20122e-09
1.06797e-09
-2.09239e-09
1.76878e-09
4.38818e-10
2.71151e-10
-3.43858e-09
9.14074e-10
1.11272e-08
-8.60248e-09
3.36771e-09
-8.39452e-09
-2.3703e-09
7.39729e-09
-1.71693e-09
4.53136e-09
5.5338e-10
-2.21752e-09
-7.64445e-09
6.42355e-09
-1.69775e-09
8.60086e-09
-5.98909e-09
-1.08488e-08
2.36784e-10
-6.64921e-09
7.21681e-09
-2.26543e-09
4.90954e-09
-6.82553e-09
1.98978e-10
-7.86743e-09
7.13699e-09
7.05781e-09
-6.32742e-09
7.09297e-09
-1.61782e-08
1.21783e-09
-3.63852e-09
1.00269e-08
7.48576e-10
7.34242e-09
-3.88797e-09
9.84483e-10
5.64596e-09
4.27307e-10
1.09984e-08
2.40923e-09
-1.24232e-08
-4.89357e-09
1.16559e-08
4.23602e-09
1.64571e-08
-1.67362e-08
-4.61442e-09
2.58018e-09
-5.72179e-09
1.95986e-08
-3.75104e-09
1.79871e-08
7.10796e-09
8.56487e-09
2.42398e-09
-7.44513e-09
-1.17151e-08
4.80211e-10
2.87664e-09
-1.04292e-08
5.18757e-09
-6.62762e-10
1.35434e-08
5.9826e-10
-1.2613e-08
-1.52851e-09
-4.1382e-11
8.71666e-09
4.86836e-09
-9.83279e-09
5.5476e-09
4.2439e-09
-2.06453e-09
-7.17003e-09
5.96868e-09
8.33045e-09
-5.58228e-09
-1.04627e-08
1.01381e-08
3.87445e-09
-3.54976e-09
2.39967e-09
-1.26602e-08
-2.02051e-10
2.80104e-09
-4.41719e-09
7.16388e-09
-3.16023e-09
1.193e-08
9.22681e-09
8.69525e-09
-7.78385e-09
-7.09463e-09
9.76422e-09
1.20488e-09
-6.75951e-09
-2.32534e-09
8.39198e-09
3.02171e-09
2.53679e-09
-3.94132e-09
-5.01982e-10
1.90652e-09
-2.50686e-12
-1.73688e-09
-3.08656e-09
4.82596e-09
2.67856e-09
-5.56889e-10
4.15117e-10
-8.23519e-12
4.92455e-09
-2.23777e-09
1.17081e-09
2.36127e-09
-1.93162e-09
-1.60048e-09
-1.55656e-09
2.71911e-09
4.22336e-09
-1.30263e-09
-2.92318e-09
1.49109e-09
1.14952e-09
1.58279e-09
-7.98317e-10
-4.87988e-09
-1.93492e-09
-1.78538e-10
-2.20125e-09
3.688e-09
1.23226e-09
3.07194e-10
-1.47242e-10
1.5703e-09
-1.92571e-09
-9.47175e-10
1.65466e-09
-2.97427e-09
5.21286e-10
1.54935e-10
-4.35222e-10
-1.60532e-09
-1.71391e-10
-2.06067e-09
1.95131e-09
-2.46864e-10
-2.43519e-10
-1.73085e-09
-8.48844e-11
2.03157e-09
-2.15836e-10
-1.60568e-09
-2.46489e-10
-2.25877e-08
7.10171e-10
3.83042e-10
2.14945e-08
-6.08345e-09
-5.36445e-09
-1.11399e-08
-1.19596e-08
1.32604e-09
1.13438e-08
-1.2183e-08
2.48537e-09
-2.26182e-09
-5.92109e-10
1.99441e-08
-1.8969e-08
-9.69707e-09
-8.56938e-09
-9.20486e-09
-5.17478e-09
-4.45358e-09
1.88332e-08
-8.79636e-09
-1.69482e-08
1.65397e-08
-1.14229e-08
1.37662e-09
1.13723e-08
-8.08519e-09
-8.523e-10
-7.74035e-10
1.56033e-08
-1.54214e-08
-1.55224e-08
1.6125e-08
-6.44831e-09
-7.05798e-09
8.33148e-09
3.0852e-09
-1.83298e-08
-6.63764e-09
-5.55694e-09
-3.3278e-09
8.55716e-09
-1.5169e-08
-6.16566e-09
-4.02254e-09
7.04388e-10
-5.83951e-09
1.81175e-09
-1.65189e-09
-3.73325e-09
2.05242e-10
-2.98658e-09
2.27011e-09
2.75214e-09
-6.67413e-09
-2.70393e-09
5.17929e-09
-7.13447e-09
-2.7656e-09
-1.07744e-08
-1.94226e-08
8.23836e-09
-1.23405e-08
2.35248e-08
-1.9519e-08
-1.61687e-09
1.7133e-09
1.33165e-08
-1.76025e-08
-7.16048e-10
5.00207e-09
-1.17539e-09
2.27302e-08
6.08321e-09
-2.54504e-08
-1.51794e-10
2.38109e-08
-2.53018e-08
7.57411e-09
7.64645e-10
1.07057e-08
-1.96741e-08
4.54783e-10
-1.18777e-08
-7.17667e-09
1.7879e-08
-1.52477e-08
2.65392e-09
-2.20871e-08
-8.36401e-09
2.32744e-08
-1.68602e-08
-3.39241e-09
-1.83445e-09
2.20076e-08
4.22478e-09
-1.18319e-08
-1.44004e-08
-5.23478e-09
7.56827e-09
7.32943e-09
-9.00908e-09
-2.36222e-08
-1.38962e-08
1.84223e-08
-2.5102e-08
-5.1522e-09
1.25816e-08
6.05879e-10
1.72373e-08
-1.49471e-08
-1.91504e-08
9.63794e-09
-1.47208e-08
-3.91936e-09
4.56479e-09
-6.25549e-09
-7.31831e-09
3.33041e-09
-1.37127e-08
4.35121e-09
-6.49046e-09
-5.80676e-09
1.13347e-09
-2.32201e-09
6.9953e-09
-9.63896e-09
-1.19931e-08
1.58253e-08
2.7295e-09
-8.61054e-09
9.43369e-09
-3.55264e-09
-4.82373e-09
7.79901e-09
-2.45766e-10
1.11634e-08
-3.84971e-09
-1.69527e-08
2.04354e-08
-8.61087e-09
-6.12132e-09
-5.7032e-09
4.20158e-09
9.19649e-10
1.53142e-08
-1.15207e-09
3.7046e-09
7.07004e-09
-3.1418e-09
-1.25388e-08
4.61083e-09
-2.36452e-09
8.83578e-09
2.15149e-09
-1.55355e-09
9.06399e-09
7.57079e-09
-1.39179e-08
3.05394e-09
1.50656e-08
-1.09821e-08
-7.84275e-10
8.04756e-09
-1.50391e-08
-9.05585e-09
2.93719e-09
1.22664e-08
-1.4284e-08
7.61342e-09
-1.86914e-09
-2.93333e-10
1.24112e-08
1.02573e-08
2.09803e-09
-5.53398e-09
3.89291e-09
-4.56804e-10
-5.07348e-09
8.39437e-09
-1.22283e-09
-5.04492e-09
-8.85328e-09
8.36426e-09
9.10665e-10
-6.67785e-09
7.22307e-10
-6.32749e-09
-1.4028e-09
2.65684e-09
-1.18281e-08
-5.71169e-09
7.16389e-09
1.03759e-08
-8.07533e-09
-1.2798e-08
9.04526e-09
-6.94808e-09
1.53125e-09
-2.21484e-09
3.12721e-10
-6.95111e-09
-1.20956e-09
-7.6831e-09
-8.15097e-09
1.03651e-09
5.73129e-10
-8.73074e-09
-1.98224e-09
-5.78035e-09
-9.56007e-09
5.15075e-09
-1.10448e-08
-1.67735e-09
7.5714e-09
-6.32251e-09
6.12045e-09
5.35281e-09
-9.46621e-09
-1.23623e-08
1.10867e-08
1.07419e-08
-1.74797e-08
1.69103e-09
-1.44344e-09
-4.06372e-10
-1.05125e-08
-1.77846e-09
-1.71447e-08
-1.98279e-09
7.6844e-09
-1.03894e-08
4.68788e-09
4.40948e-09
1.95533e-09
-8.34759e-09
6.17363e-09
-7.62716e-09
-9.59124e-09
1.69896e-09
2.79733e-09
1.80918e-09
1.5398e-08
-1.37504e-09
5.82623e-09
-4.17009e-11
1.03045e-08
-3.99512e-09
-9.01962e-09
-1.77621e-09
-1.21434e-08
1.20901e-08
-8.96648e-09
-9.35139e-09
-5.41914e-11
-1.61085e-09
-2.71735e-10
3.58157e-09
-5.0881e-09
1.07029e-08
-7.22565e-09
-2.42388e-09
8.92094e-09
-6.17744e-09
3.66379e-09
1.77789e-09
7.35746e-10
-5.39295e-09
-1.72565e-09
1.02653e-08
-3.14678e-09
-2.69102e-09
4.46213e-09
-7.16411e-09
-4.58988e-09
6.61005e-09
-3.74588e-09
5.80452e-10
-7.86139e-09
2.37757e-09
-3.84577e-09
3.57873e-09
-2.1106e-09
-2.12116e-09
4.15242e-09
3.46243e-10
4.41911e-09
-1.83725e-09
8.48374e-10
-3.43032e-09
2.20485e-09
9.29961e-11
4.47182e-09
-3.65184e-09
9.44529e-09
-7.49998e-09
2.10031e-09
9.87142e-09
2.47216e-09
-9.14814e-09
-8.24071e-10
-5.10258e-09
6.26779e-10
2.33135e-09
1.72959e-09
2.47576e-09
1.10053e-09
4.78147e-09
-5.201e-09
5.29638e-09
2.10941e-09
-1.13967e-09
-3.21298e-09
7.06217e-09
7.06334e-10
1.0263e-08
-5.82569e-09
-5.99205e-09
-9.93784e-09
-2.2927e-09
1.82228e-08
-8.65412e-09
1.72941e-08
-1.46319e-08
-5.89004e-09
3.09778e-09
-7.14553e-09
-8.18141e-09
1.37733e-08
-7.88457e-09
4.74119e-09
3.51594e-09
-1.6911e-08
-1.29573e-08
-1.1141e-09
-2.84612e-08
5.1041e-09
1.54935e-08
7.86359e-09
-1.27476e-08
-4.48181e-09
-1.12318e-08
7.38678e-09
-1.58639e-08
1.35812e-08
1.0589e-09
-1.51305e-08
2.14584e-08
-1.3612e-08
2.19571e-08
-7.28619e-09
-1.20075e-08
4.51336e-09
8.59987e-09
-1.1057e-09
-1.24139e-08
-7.98896e-09
8.39535e-09
-3.95133e-09
6.30424e-09
5.69246e-09
-8.04536e-09
4.57581e-09
-9.96804e-09
1.44091e-09
1.98027e-08
-1.95152e-08
-1.25658e-08
1.22784e-08
7.33325e-09
1.84998e-08
-6.03035e-09
-1.23857e-08
-8.36514e-09
1.23568e-09
1.79664e-09
3.89437e-09
-1.80767e-08
1.19098e-08
5.19671e-09
-1.53099e-08
1.30364e-08
-9.49175e-09
9.93684e-10
1.98379e-08
-7.7952e-09
9.90349e-09
-6.34296e-09
-2.56685e-09
-4.877e-09
8.31549e-09
6.46504e-09
1.06513e-08
4.30961e-09
4.46978e-09
4.6194e-09
1.15033e-09
9.6237e-09
4.86741e-09
-1.3387e-08
-7.71774e-09
2.61711e-09
-3.29425e-09
2.14799e-09
-4.13713e-09
1.36029e-08
1.38475e-08
-5.40677e-09
5.33256e-09
-1.97622e-10
2.71736e-10
-4.44464e-09
4.07809e-09
-5.04024e-09
2.97353e-09
2.511e-10
-7.66925e-09
-3.83058e-09
3.68442e-09
5.47867e-09
1.12779e-09
-8.80257e-10
-8.49496e-09
-5.3286e-09
6.65353e-09
-2.36762e-09
-5.26269e-09
-8.64602e-10
-7.077e-09
1.55076e-09
-6.47109e-09
-3.40551e-09
1.70696e-09
8.35211e-09
1.04457e-10
1.8073e-09
-5.31722e-09
-5.1395e-09
2.91575e-09
2.47486e-09
-5.8381e-09
9.01489e-10
-2.02922e-10
1.87613e-09
-4.43322e-09
2.66153e-09
-1.52176e-09
6.17744e-09
-4.72518e-09
6.93606e-11
-6.90526e-09
4.17262e-09
-2.5299e-09
7.31806e-09
-3.73501e-09
4.70013e-09
-6.56592e-10
-1.65355e-09
-4.35522e-09
1.57552e-09
2.98151e-09
6.50425e-11
-4.20881e-09
2.32845e-09
1.15118e-08
4.38529e-09
-2.09711e-08
5.074e-09
-9.47537e-09
1.85706e-08
2.41653e-09
-2.2024e-08
1.11094e-08
1.52998e-08
-1.3464e-08
-1.02588e-08
1.42474e-08
-3.4833e-09
1.72242e-09
-1.92103e-08
-1.596e-08
-9.87357e-10
2.20443e-08
9.73667e-09
-4.32119e-08
1.14309e-08
1.23328e-08
-6.24852e-09
-1.20117e-08
-2.11456e-08
2.37234e-08
9.4339e-09
-1.38489e-09
-2.69185e-08
1.62917e-08
-2.47172e-08
1.30736e-08
-1.92991e-08
6.91465e-09
1.77751e-08
-2.73376e-08
-1.21146e-08
-3.23992e-09
-5.79108e-09
-2.12581e-08
-7.6054e-09
-1.76585e-08
-2.26515e-10
-1.69073e-09
-2.00129e-09
3.91832e-09
-2.04833e-09
-3.10094e-09
4.92258e-09
-4.58179e-09
8.42695e-10
4.80371e-09
-5.27227e-09
3.3064e-09
4.43279e-09
-2.93551e-09
-2.35332e-09
1.07793e-09
7.2688e-09
-6.69093e-09
-5.30519e-09
4.72723e-09
-4.77847e-09
1.00459e-08
6.48844e-09
-2.87495e-09
-2.02643e-09
3.73639e-09
-4.3981e-09
5.72997e-09
-1.8322e-09
2.49642e-09
-5.12028e-10
-1.62812e-09
-1.7664e-09
3.9064e-09
-1.19674e-09
-1.46359e-09
2.14818e-09
6.08385e-10
1.76264e-09
-7.86239e-09
5.49127e-09
-5.30222e-09
4.28244e-09
1.00067e-09
-2.20416e-09
6.4867e-12
-2.68016e-09
1.91428e-09
-3.47269e-09
3.77172e-09
-1.2504e-10
-4.94676e-09
-2.3044e-10
-3.57123e-09
-7.22792e-10
2.86109e-09
1.43286e-09
2.58514e-09
-1.34798e-09
1.61045e-09
2.51873e-10
5.58852e-11
-4.59521e-09
1.15552e-11
-3.27877e-09
-2.24771e-09
-7.29429e-09
-4.41421e-09
-1.50169e-09
2.44315e-09
-2.19425e-09
-2.20842e-09
-9.66518e-10
3.72763e-10
2.64906e-09
-1.69252e-09
-3.15087e-09
1.80824e-10
-5.7693e-09
1.20905e-08
-1.19013e-08
5.58006e-09
-1.20708e-09
4.30751e-09
-8.86973e-09
1.35013e-08
-1.65594e-09
2.45258e-10
-4.23838e-09
3.78609e-09
1.39536e-08
4.14681e-10
6.74851e-09
-1.14015e-08
3.61462e-09
-7.82673e-09
3.16118e-09
1.05087e-09
-1.70966e-09
-4.36092e-09
-2.50764e-09
5.69105e-09
2.71418e-09
4.39529e-09
-8.3165e-09
7.1096e-09
-5.23596e-09
8.40563e-10
-1.18076e-09
-2.33846e-09
-4.03064e-09
-5.56958e-09
5.23932e-09
-6.50589e-09
2.88993e-09
-5.488e-09
5.6097e-09
-1.30245e-09
5.14454e-09
-6.23725e-09
4.91408e-09
-4.31035e-09
-3.04481e-10
-3.51002e-10
-5.40542e-09
4.63484e-09
6.38027e-09
-5.65342e-10
1.52419e-09
-6.4462e-09
-4.9335e-09
-2.32436e-09
-1.39141e-09
-6.61884e-10
-5.71871e-09
-5.76838e-10
-4.84026e-09
1.75772e-10
-3.71939e-09
-8.44557e-09
3.4623e-10
1.48614e-09
-5.55171e-09
4.28335e-09
1.2999e-09
-5.23701e-09
-5.15532e-09
3.62463e-10
-1.85073e-09
2.88035e-09
-1.03173e-09
-2.03561e-09
-4.75998e-09
4.65924e-09
-1.1377e-08
1.14778e-08
1.41452e-09
-1.11821e-08
5.00764e-09
2.12565e-09
-5.81232e-09
5.10119e-09
-5.91284e-09
1.26977e-08
1.59967e-10
-7.08545e-09
-4.25663e-09
-7.27114e-09
-3.94594e-09
6.54158e-09
-5.57426e-10
1.04424e-10
-6.08861e-09
7.42516e-10
5.02167e-09
7.77304e-10
8.80946e-09
-3.72946e-10
-8.99396e-09
1.1184e-08
-9.64572e-09
9.12712e-09
2.7994e-09
3.28507e-09
-9.05331e-09
-1.31718e-09
-9.47272e-09
8.95578e-09
3.80202e-09
-8.57152e-10
2.19183e-10
-8.83475e-09
-1.02834e-08
-5.64316e-09
8.85743e-09
-4.52918e-09
7.67262e-09
6.45594e-09
-6.13236e-09
-1.36513e-09
7.43613e-10
5.61615e-10
-3.11695e-09
-2.11075e-09
6.15025e-09
-9.22463e-10
3.33767e-09
-2.52302e-09
-3.93153e-09
6.66708e-09
-9.55726e-10
-2.3736e-09
5.61372e-10
5.83844e-09
2.67334e-10
7.42053e-12
1.86636e-09
-4.39676e-09
2.54413e-09
2.09194e-09
-4.62857e-09
3.37865e-09
-2.94524e-09
-2.73077e-09
-1.58038e-09
3.35546e-09
5.88809e-10
6.12283e-09
9.34491e-10
-1.7989e-09
-1.37084e-09
2.97958e-09
1.76999e-09
1.12052e-09
-3.9933e-10
-2.01048e-09
-2.15697e-10
2.38425e-09
-1.57992e-10
-2.2663e-09
6.40571e-10
-3.84692e-10
-2.11266e-10
3.35273e-09
7.77953e-09
4.43221e-09
-5.73745e-09
-6.47426e-09
7.38747e-09
-3.73552e-09
4.12757e-09
-5.64335e-09
-9.58988e-09
6.61742e-09
8.61578e-09
-2.06847e-09
-1.47663e-09
-2.09829e-09
-1.01e-08
-1.31218e-09
1.8223e-09
-4.99816e-09
-7.17034e-09
1.28682e-08
-1.13579e-09
-7.30026e-09
8.97852e-09
-5.29182e-09
9.18147e-09
1.76641e-09
1.45995e-08
5.15936e-09
-2.09632e-09
-8.8005e-09
-5.27944e-11
-5.45066e-09
1.38345e-08
-9.7453e-09
7.87008e-09
5.6301e-10
-3.29887e-09
-1.14446e-08
1.63632e-08
-8.6927e-09
-8.80632e-09
3.30978e-09
7.76162e-09
1.47814e-08
-6.52038e-09
-3.90974e-10
1.26406e-08
-5.57795e-09
-9.63516e-09
-1.09731e-08
-1.32746e-08
-5.77401e-09
8.59946e-09
-9.23402e-09
-6.79021e-09
-4.736e-10
-1.08869e-08
4.87962e-09
8.15711e-09
-7.62405e-09
-5.4127e-09
5.35092e-09
-3.19362e-10
-1.51966e-10
8.20483e-09
5.69811e-10
-6.17573e-10
8.22591e-09
5.32983e-09
8.89882e-10
5.41906e-10
-9.05589e-09
-6.96682e-09
8.97293e-09
-1.43633e-09
2.03864e-09
-8.11561e-09
4.8662e-09
9.81942e-10
-5.30625e-09
4.56632e-09
-1.94929e-11
4.53367e-10
5.94273e-09
2.57681e-09
4.75975e-09
3.9195e-09
3.47909e-09
-6.17259e-09
7.45328e-09
-6.70545e-09
-3.23397e-09
1.34185e-08
2.55709e-09
-1.09272e-08
1.04087e-08
5.64305e-11
-8.61045e-09
1.11111e-08
-4.89221e-09
-7.68697e-09
5.87372e-09
1.73188e-09
-6.85557e-09
2.3147e-10
9.82412e-09
-7.11543e-09
1.25603e-10
7.90232e-09
-6.86395e-09
6.97806e-09
-5.93132e-09
1.35728e-09
-2.06621e-09
1.63118e-08
-1.52848e-08
-8.94101e-09
7.91394e-09
6.83885e-09
3.79704e-11
9.43502e-09
-1.08458e-11
9.6072e-10
-1.96071e-08
1.86573e-08
1.16435e-08
-3.41113e-10
5.18154e-10
-1.18205e-08
8.35312e-09
-6.48883e-10
3.93921e-09
-1.56367e-08
8.35516e-09
3.98209e-10
-1.17946e-08
3.04127e-09
-7.19558e-09
-1.69222e-09
-9.80404e-11
-1.38618e-08
1.49206e-08
-1.20732e-08
-9.00767e-09
1.19913e-08
-5.3595e-09
1.7213e-09
-9.02839e-09
-8.30161e-09
3.36115e-09
-6.73173e-09
1.67197e-09
-6.73486e-09
-9.27113e-09
-2.8201e-09
-8.851e-09
-3.10922e-09
3.84275e-09
3.15561e-09
-3.88919e-09
9.85958e-10
3.21953e-09
-7.31478e-09
-4.4258e-09
9.0331e-09
-5.42739e-09
8.1998e-10
-4.76498e-09
3.05371e-09
-2.71463e-09
-9.81731e-09
6.03824e-09
4.45825e-09
3.5001e-09
-4.73886e-09
1.0583e-09
4.12228e-09
-7.22387e-10
1.17513e-09
2.98304e-09
-3.15467e-10
4.77437e-09
-5.60476e-10
4.89859e-09
-6.6977e-10
6.85051e-09
1.25101e-08
-1.03275e-08
9.97215e-10
-1.09947e-09
6.95273e-09
-6.0027e-09
6.86828e-09
3.25668e-09
-2.81024e-09
3.07604e-10
4.08048e-09
3.67691e-09
-1.07021e-09
6.96602e-09
2.14595e-09
3.62285e-09
5.15621e-09
-9.66076e-09
1.16291e-09
-1.87046e-08
2.72025e-08
5.58826e-09
1.03895e-08
-2.56385e-08
-3.41841e-09
-8.06016e-09
-9.23017e-09
2.07088e-08
-1.30585e-08
2.03723e-08
-1.07322e-08
-9.35071e-09
-1.68463e-08
2.73599e-08
1.69388e-08
-2.07012e-08
-1.443e-08
-3.83221e-09
1.02019e-08
-1.36673e-08
4.28215e-09
-5.0448e-09
1.48148e-08
2.6876e-08
-1.62057e-08
-2.54851e-08
-1.5112e-08
2.06966e-08
2.42236e-08
1.65442e-08
-3.03783e-08
2.1575e-08
-1.10188e-08
-9.59471e-09
3.89229e-09
2.72773e-08
-2.2254e-08
-6.18985e-09
1.88491e-08
-1.79887e-09
5.57425e-09
-1.88874e-08
-1.82303e-08
3.37296e-09
-3.45437e-09
-2.25545e-09
-4.74595e-09
-9.24448e-09
2.10093e-08
-1.26907e-08
9.25818e-10
3.12535e-08
-1.26775e-08
-2.78206e-08
-2.23105e-08
1.34797e-08
2.98401e-08
-4.90762e-10
9.43377e-09
-2.73186e-08
8.37711e-09
1.84508e-08
-2.31709e-08
-2.6937e-08
2.27893e-08
5.36672e-09
8.81861e-09
-1.15888e-08
-7.29995e-09
-6.13694e-09
3.31366e-08
-3.56212e-08
8.6216e-09
-9.86807e-10
-9.22033e-09
-6.94978e-09
1.7157e-08
3.19229e-08
-7.65309e-09
-1.07901e-08
-1.52891e-08
4.0852e-10
2.06974e-08
-5.81678e-09
1.28878e-08
-5.2718e-09
-2.29051e-08
-1.55557e-08
2.02002e-08
1.35956e-08
-1.05747e-08
-1.85767e-08
1.18068e-08
4.69054e-09
-2.90168e-09
3.36666e-09
-2.61708e-09
1.10572e-08
6.0336e-10
1.51717e-08
4.92228e-09
1.90947e-08
2.36591e-09
-8.57283e-09
1.39565e-08
5.74151e-09
-5.68745e-09
-1.2288e-08
5.16069e-09
1.28148e-08
9.41101e-09
-1.48429e-08
-2.55528e-10
-1.41361e-08
1.52596e-08
2.2431e-09
-3.45037e-11
7.82235e-09
-2.36689e-08
2.81693e-09
1.47662e-08
4.3291e-09
1.36595e-08
-4.80992e-09
-5.11222e-09
-1.18305e-08
1.67675e-08
1.51806e-09
-3.95567e-09
-3.66497e-09
3.89282e-09
3.72775e-09
-3.71278e-09
1.32952e-11
-2.56258e-10
3.67688e-09
-3.72077e-09
-3.66896e-09
1.85623e-10
-1.73765e-10
3.49862e-10
-3.11028e-09
8.59786e-09
-5.83752e-09
-3.50575e-09
7.74832e-09
-3.60413e-09
-4.09768e-09
4.19601e-09
4.70743e-10
-6.19646e-09
2.12144e-09
5.66858e-09
1.01146e-08
-5.47957e-09
-1.03038e-08
8.46816e-09
1.88779e-10
-2.98845e-09
7.79012e-09
8.33303e-10
1.49122e-09
7.66032e-09
8.59792e-09
-4.67732e-10
-9.45276e-09
4.44086e-09
5.02076e-09
3.85428e-09
-5.65472e-09
-4.39614e-09
-5.7772e-11
2.60729e-09
-6.79585e-09
-2.8587e-09
2.91534e-09
-4.54627e-09
-6.54476e-09
8.17573e-09
-3.11632e-09
8.86104e-09
-2.82938e-09
-3.87998e-09
8.24556e-09
-7.48196e-09
3.13843e-09
7.53043e-09
-1.45489e-08
5.80177e-09
-7.20957e-09
6.16153e-09
-2.01187e-09
4.7113e-09
2.32028e-09
9.10821e-10
2.57488e-09
-5.80615e-09
4.67897e-09
5.61494e-09
-7.97372e-09
1.82746e-09
-5.25252e-09
1.09555e-08
9.75634e-09
-3.24482e-09
-3.50276e-10
1.11097e-08
3.3256e-09
9.43153e-09
-4.43076e-09
4.33351e-10
-1.05084e-09
1.0049e-08
9.42089e-09
-1.7917e-09
6.11702e-09
4.2147e-09
1.48452e-08
1.37611e-08
-1.32921e-08
1.46834e-08
2.494e-09
-2.33211e-09
8.99277e-09
-2.58451e-09
7.35285e-09
7.09472e-09
1.65814e-08
-1.70569e-08
1.23436e-08
1.34441e-08
-8.7308e-09
1.58158e-10
-2.36027e-08
6.3876e-09
1.36984e-08
1.13928e-09
2.34854e-08
-2.69235e-09
5.08056e-09
-1.82145e-08
1.85502e-08
-5.65498e-10
-1.34249e-08
-4.55981e-09
2.16915e-08
-1.85455e-08
1.54041e-08
-1.67867e-08
6.69617e-09
7.50607e-09
-1.22717e-08
-5.01036e-09
-1.14797e-08
1.13006e-08
5.18948e-09
-1.32646e-08
8.94e-09
-6.85701e-10
-3.97393e-09
-2.7431e-09
-4.76268e-09
-6.32099e-09
-1.09176e-08
-9.90508e-09
-6.36295e-09
5.42467e-09
1.08434e-08
-1.46991e-09
5.04826e-10
1.37039e-08
-6.85631e-09
6.47044e-09
-1.33181e-08
1.24539e-08
-2.19885e-10
2.06765e-10
4.73089e-09
4.81859e-10
-1.36592e-08
-1.35469e-08
1.08849e-08
1.51159e-08
-1.93747e-09
-5.13894e-09
-4.47987e-09
-2.96914e-10
1.02015e-08
3.38212e-09
3.02286e-09
-7.40859e-09
-6.50957e-09
1.36212e-08
-1.11204e-08
7.09391e-09
-9.28697e-09
1.17314e-08
7.60201e-09
-1.64071e-08
-7.45823e-09
-5.77676e-09
6.72539e-09
-1.4558e-08
-4.02067e-09
6.16144e-09
-8.89344e-09
-1.00063e-08
1.94271e-09
-7.71153e-10
-5.668e-11
-9.68968e-09
-5.37073e-10
-1.0067e-08
3.99802e-12
-5.01188e-09
8.22174e-10
1.41051e-10
-2.99604e-10
-9.90847e-09
1.2042e-08
5.53327e-10
-1.24542e-08
-2.89758e-09
5.24984e-09
-6.43014e-09
8.6584e-10
5.52429e-10
1.22549e-10
-6.85227e-09
1.20046e-08
1.66403e-10
-1.16177e-08
6.26665e-10
8.48028e-09
-5.95605e-09
7.33254e-10
8.37401e-09
-8.08506e-09
-6.07573e-09
8.49368e-09
1.4126e-08
-1.24479e-08
5.74474e-09
-7.42287e-09
-1.9836e-09
1.96809e-08
-6.69677e-09
-1.10005e-08
-1.10537e-08
1.98484e-09
-8.01369e-09
-4.48854e-09
7.56081e-09
-6.19346e-09
-8.23806e-09
1.1639e-08
2.78116e-09
-6.01897e-09
-8.40124e-09
6.59653e-09
3.40763e-09
1.63481e-09
-1.08583e-08
6.3403e-09
2.9477e-11
-1.21485e-08
1.02275e-08
8.51749e-09
-3.49991e-09
-5.86743e-09
-4.61117e-09
-1.24406e-08
-1.18602e-09
-1.08396e-08
6.00656e-09
5.18137e-09
-6.4647e-09
-2.21666e-09
-7.30513e-09
3.24265e-09
9.24383e-09
-8.00735e-09
1.40592e-08
-4.06698e-09
-1.86622e-09
1.99176e-10
6.1674e-09
-1.19646e-08
8.73408e-09
-9.03138e-09
-4.37283e-10
4.72123e-09
-2.44563e-10
8.16212e-10
-5.29289e-09
-8.6822e-10
5.77548e-10
5.0119e-09
5.47681e-09
5.91688e-09
-4.90249e-09
-6.49123e-09
-5.79098e-09
-3.01403e-09
4.64255e-09
4.16244e-09
5.76686e-09
-5.86026e-10
-2.51308e-09
-2.66774e-09
-3.66402e-09
2.53716e-09
6.89369e-09
-6.73728e-10
2.45142e-09
-2.65279e-09
8.75143e-10
6.31696e-10
2.24914e-09
-2.78133e-09
-9.93986e-11
-3.06269e-09
-8.9208e-10
-3.98097e-09
-5.02047e-10
3.62797e-09
-5.90608e-11
-3.06685e-09
1.59952e-10
-1.76502e-09
4.08394e-09
-6.97972e-11
2.24229e-09
-3.37329e-09
2.28052e-09
1.55107e-09
1.35169e-09
2.42072e-11
3.17901e-09
-6.86714e-09
3.22208e-09
-4.78115e-09
1.58332e-09
9.03987e-10
4.56038e-09
7.00557e-09
-3.56442e-09
-1.22059e-09
1.08195e-09
-2.67708e-11
-2.6885e-09
-3.82664e-10
3.09807e-09
-4.29038e-09
-1.01274e-09
5.27634e-09
-4.49582e-09
-2.48305e-09
7.32918e-10
-4.87815e-10
2.21629e-09
-2.46139e-09
3.38214e-09
-3.03186e-09
5.07908e-10
-4.81037e-10
-2.60197e-09
2.57506e-09
-9.93604e-10
-2.99431e-09
2.19629e-09
-1.85585e-10
-2.49176e-09
1.12944e-09
1.36738e-09
-3.00579e-10
9.20357e-10
2.97704e-09
-2.4883e-09
-1.40917e-09
2.25364e-09
-2.03839e-10
-2.69063e-10
2.03485e-09
4.97147e-10
2.21079e-09
4.85969e-09
-7.28902e-10
-5.1244e-09
4.34402e-09
-3.40279e-09
8.58147e-09
3.15458e-09
-3.34763e-09
-8.38849e-09
-7.02762e-09
5.74124e-09
9.8678e-09
-7.06377e-10
-3.16667e-09
-1.06696e-09
7.09723e-09
-9.37793e-09
3.39361e-09
5.87276e-09
-1.03334e-08
4.82608e-09
4.45287e-09
-5.88537e-09
2.26129e-09
5.58948e-09
-1.97804e-09
6.97214e-09
1.15209e-10
-3.14159e-09
4.10618e-09
-4.14466e-09
3.18005e-09
4.11148e-09
-2.80932e-10
4.13649e-09
-4.34576e-09
4.32071e-09
-8.1324e-10
3.6973e-09
4.71486e-10
2.92838e-09
8.62527e-09
-5.99258e-10
1.91631e-09
2.35139e-09
1.45211e-09
-5.04097e-09
1.23759e-09
-2.2257e-09
1.52951e-09
3.04757e-09
-1.25248e-09
-6.09812e-10
2.65968e-09
-7.97457e-10
-9.55939e-10
-2.70234e-09
2.40573e-09
-6.04255e-10
2.10693e-09
2.95744e-10
-1.79843e-09
1.00081e-09
-1.50013e-09
-1.0494e-10
-1.68637e-09
1.2974e-09
-5.87987e-10
9.76929e-10
3.03636e-10
-1.86971e-09
-1.20331e-10
1.36157e-09
-5.70842e-11
-1.58744e-09
6.78898e-10
2.20603e-09
-1.3544e-09
1.12852e-09
-8.45321e-10
-1.05085e-09
-3.29545e-10
3.28232e-09
-1.07387e-09
1.62812e-09
1.10393e-09
4.54863e-10
2.97674e-10
-1.77479e-09
3.41434e-10
-2.01639e-09
-4.35159e-09
-4.23348e-09
4.74611e-09
3.83898e-09
-3.46422e-09
-2.07829e-10
-6.79511e-10
-1.77983e-09
-3.63752e-09
1.18389e-09
-9.09445e-10
-4.3346e-09
-4.71498e-09
1.75414e-09
-1.19777e-09
4.15867e-09
-4.25012e-09
-6.7266e-10
-5.31268e-09
6.43743e-09
5.38557e-09
-6.51034e-09
-4.29412e-10
-4.24283e-09
-6.40425e-10
5.6247e-10
5.93777e-09
4.55399e-09
1.20121e-09
-6.66461e-09
5.91782e-09
-5.61394e-09
8.43192e-10
3.87685e-09
6.9863e-09
-6.21451e-09
1.49075e-09
6.33873e-09
8.49066e-09
-1.53392e-08
1.55011e-10
1.32513e-08
1.93288e-09
2.5034e-09
-6.20688e-09
-1.16357e-08
1.17285e-08
-2.19305e-09
-7.03205e-09
1.07948e-08
1.0887e-09
-5.71743e-09
1.53763e-08
3.59235e-09
-5.23499e-09
6.10918e-09
9.92061e-09
-7.01906e-09
-4.33657e-09
9.07724e-09
2.2784e-09
-6.37763e-09
-1.34587e-09
7.04436e-10
3.34496e-10
-1.26123e-08
1.16819e-08
5.95934e-10
-6.51265e-09
4.69479e-10
9.72781e-09
-3.15429e-09
-1.27804e-08
-1.73584e-09
5.74621e-09
9.98717e-09
4.28577e-09
-1.74272e-08
8.62158e-09
-1.12467e-08
-7.05148e-09
4.70583e-10
-2.09529e-09
9.44061e-09
3.55398e-09
-5.78088e-09
4.79044e-09
-5.69055e-09
-1.95667e-09
6.2381e-09
8.53502e-09
-1.28164e-08
3.85299e-09
-8.62977e-09
9.12366e-10
-3.2954e-09
-6.46793e-09
8.22331e-09
-1.74217e-09
-5.56873e-09
-3.52954e-09
-1.88085e-09
-1.68128e-09
7.09167e-09
-1.10843e-08
1.57781e-08
-4.90863e-09
-2.3294e-09
-6.6238e-09
1.86532e-08
-1.23453e-08
-1.12166e-08
-5.45176e-09
1.33618e-08
7.26107e-09
-9.36328e-10
-8.2056e-09
5.38374e-09
-6.40968e-09
1.96792e-08
-1.0912e-08
1.39438e-08
-8.48362e-09
1.73284e-09
-4.08421e-09
-2.77565e-10
6.58395e-09
-2.22222e-09
-1.40749e-09
7.33031e-09
-1.0007e-08
3.48497e-09
4.2532e-09
-9.14569e-09
5.1878e-09
-1.98036e-09
1.79307e-09
-8.46306e-09
-5.67577e-09
1.23458e-08
9.61687e-09
-2.63602e-09
3.2354e-10
7.01599e-09
-7.55593e-10
8.70142e-09
-1.04756e-09
9.52083e-09
-1.37307e-08
4.40544e-09
-2.60687e-09
7.81828e-09
-1.35661e-08
-1.5424e-08
4.84611e-09
2.4144e-08
-1.33789e-08
2.82065e-09
-3.00789e-09
4.62099e-09
5.14623e-09
-2.7512e-09
9.64294e-09
-6.16528e-10
-2.74418e-09
1.20748e-08
1.90196e-10
1.01613e-08
-4.20409e-09
-1.71053e-08
-3.98537e-09
5.66665e-09
-1.84094e-08
-4.07217e-09
1.84534e-08
-9.53517e-09
7.19772e-09
-4.80024e-09
2.74869e-09
1.27685e-08
1.37571e-09
1.18076e-08
1.28027e-09
7.84341e-09
9.76261e-10
8.27568e-09
1.70778e-09
-1.09597e-08
1.72491e-08
9.69122e-09
-1.51327e-08
1.48045e-08
3.42084e-09
6.01902e-09
8.88225e-09
3.36548e-09
4.30665e-09
-1.65309e-09
3.90633e-09
1.88164e-09
-5.73941e-09
-4.8521e-11
1.13389e-11
-2.18196e-09
-5.31399e-09
7.48463e-09
-1.91055e-09
-4.12039e-09
6.04228e-09
1.21226e-08
1.04571e-08
1.40678e-08
1.42033e-09
7.4736e-09
4.7084e-09
1.51703e-08
-3.9717e-09
-1.50739e-09
9.15077e-09
2.0824e-08
-5.79924e-10
7.54873e-09
4.98313e-09
6.09527e-09
9.30266e-11
3.51321e-09
-9.58503e-09
7.5784e-10
5.48809e-09
5.78809e-09
6.97298e-10
1.02709e-08
4.11315e-10
6.50699e-09
-1.18998e-09
-5.72829e-09
6.62582e-09
-8.4049e-10
-5.37396e-09
-4.43464e-09
-3.01516e-09
5.70441e-09
1.74547e-09
-3.45848e-09
1.42366e-09
-2.39977e-09
9.57619e-10
2.72211e-09
2.94616e-09
4.44946e-09
-8.21332e-10
-3.82707e-09
-1.18432e-10
4.32961e-09
-5.05159e-09
2.98175e-09
-3.92151e-09
-3.2922e-09
5.05627e-09
-3.40362e-10
-9.68361e-11
4.50693e-09
-8.04129e-11
-4.07276e-10
4.54669e-09
2.68241e-09
-3.06613e-09
5.90086e-09
3.38543e-09
-6.22018e-09
2.25191e-09
-5.74377e-09
4.255e-10
1.30181e-08
-9.42448e-10
-1.16422e-08
-1.39217e-08
8.2766e-09
1.21439e-09
3.68861e-09
7.9557e-10
4.28659e-09
-8.77068e-09
5.04922e-09
1.16574e-08
5.5272e-09
-4.21557e-09
-1.66199e-09
3.383e-09
1.96618e-09
1.77781e-10
2.15992e-09
4.53643e-09
5.25385e-09
3.8107e-10
9.82124e-09
3.25451e-09
1.34957e-09
6.06416e-09
1.00211e-09
1.11434e-08
-7.09649e-09
5.36082e-09
3.77045e-09
6.89883e-10
7.71247e-09
1.18037e-08
-4.34952e-09
7.90363e-10
-8.24451e-09
-1.58121e-09
3.33155e-10
1.30518e-08
3.82728e-09
4.82958e-09
-6.24932e-11
-8.59434e-09
6.59418e-10
-6.37345e-09
9.54132e-09
-1.11463e-09
6.56666e-09
-7.03323e-09
7.60078e-09
-8.09182e-09
-3.85846e-09
-6.8997e-10
8.62394e-09
-2.30117e-09
-2.12138e-10
5.71329e-09
-3.19997e-09
-2.43102e-09
4.91478e-09
-4.78489e-09
-3.47439e-09
3.30893e-09
-5.80243e-09
6.50997e-09
-2.5416e-09
9.07618e-10
-2.58492e-11
-5.71225e-09
4.83051e-09
-6.94331e-09
6.73631e-09
-2.10326e-09
5.65466e-09
2.16193e-09
2.83884e-09
-2.72797e-11
4.93886e-09
3.12356e-09
-3.55689e-09
2.50174e-10
5.74595e-09
7.51699e-09
4.72412e-09
1.62024e-08
9.14222e-09
2.67876e-08
-1.66069e-08
-1.90354e-08
8.85462e-09
5.27346e-09
1.89685e-08
2.54566e-09
1.20534e-08
3.67175e-08
-1.02241e-08
-3.85469e-08
5.76547e-09
1.57103e-08
2.03703e-09
-2.32583e-08
4.55631e-09
2.64139e-08
-1.89168e-08
-2.10823e-08
1.73026e-08
-1.43915e-08
1.5209e-09
1.8636e-08
7.89174e-09
1.97367e-08
5.41171e-10
-3.73753e-10
4.16133e-09
-4.32871e-09
-4.62022e-10
1.02125e-09
6.67886e-09
-7.238e-09
5.33568e-09
-5.25653e-09
6.60533e-12
8.44641e-09
-7.43175e-09
6.13968e-09
-6.5068e-09
6.9497e-09
2.15017e-10
-9.47636e-09
2.31176e-09
7.61005e-10
-3.7071e-09
9.89587e-09
-5.92859e-09
-1.32344e-09
8.01309e-09
-5.83697e-09
1.23473e-10
6.54899e-10
-3.52132e-10
-2.59891e-09
3.20646e-09
4.7373e-11
1.63101e-09
-6.85887e-11
-2.00876e-10
5.07424e-09
4.62339e-10
7.55934e-09
-1.08132e-09
-4.60426e-10
-3.45304e-09
2.06423e-10
-1.49037e-09
-1.36408e-09
3.24712e-09
2.08153e-09
6.13982e-09
-3.14711e-09
3.6732e-09
3.93348e-11
-1.14843e-09
3.45755e-09
1.09478e-09
3.89661e-09
5.20109e-09
-1.1929e-08
1.42412e-09
9.18135e-09
1.32347e-09
-1.59446e-09
-4.68339e-09
-5.65122e-09
6.64258e-09
-3.28608e-09
-4.95099e-09
2.79629e-09
5.27036e-09
2.77193e-09
-1.59739e-09
-4.46069e-09
3.5145e-09
3.90826e-10
-1.13342e-09
-7.09517e-09
-3.32779e-09
9.89514e-09
5.27693e-10
-4.16229e-09
-7.61632e-09
2.0159e-09
4.29487e-09
6.74746e-10
-6.43451e-09
-3.31509e-09
4.00475e-09
3.97688e-10
-1.08749e-09
-4.4115e-09
-2.23149e-09
-7.08514e-10
6.4495e-09
-1.73628e-09
-2.48357e-09
3.79093e-09
2.06045e-09
-5.79724e-09
3.26784e-09
-8.16611e-10
4.34267e-09
5.90776e-09
-1.39202e-08
3.66974e-09
-3.11402e-09
4.08499e-09
-5.7337e-10
-3.14428e-11
-5.31401e-09
-3.03271e-10
1.11593e-08
-1.03855e-09
-4.41107e-09
-5.70969e-09
-3.36972e-11
6.93711e-09
4.25587e-09
-7.24426e-09
2.99164e-09
1.28174e-08
-1.05716e-08
3.2936e-09
4.45848e-09
9.66871e-09
-7.19011e-09
-7.48615e-09
-2.33686e-09
-5.43573e-09
-7.71995e-09
1.21171e-08
1.19914e-08
-4.54131e-09
-4.32962e-09
-7.56765e-09
-8.55985e-09
9.81842e-10
8.00524e-09
-8.57351e-09
-9.10548e-09
9.11911e-09
2.28883e-09
-1.29459e-08
-1.17204e-08
6.97978e-09
-8.29119e-09
1.81601e-09
-5.0469e-10
8.14349e-09
-5.81241e-09
4.64858e-09
2.55954e-09
1.02931e-08
-4.7092e-09
6.98482e-09
-9.47434e-09
-5.80175e-09
-2.11661e-09
4.45813e-10
-3.72529e-09
5.39591e-09
2.6516e-10
9.07111e-10
-8.07851e-09
5.55611e-09
-1.05288e-08
1.30511e-08
-1.19439e-08
4.13056e-09
-3.57915e-09
-8.01182e-09
-9.34929e-09
1.97898e-09
4.49435e-09
2.87585e-09
-2.72378e-09
-6.17973e-09
1.06297e-08
-8.81585e-09
4.90829e-09
-6.72216e-09
8.08647e-09
4.52213e-09
-5.66762e-09
1.37832e-08
-4.36765e-10
-5.10171e-09
-4.99036e-09
-6.0931e-09
-6.28757e-09
-1.07437e-09
-2.35827e-09
1.10331e-08
-4.1044e-09
-2.02039e-09
1.34519e-08
6.39795e-09
-9.83058e-09
-2.80812e-09
-7.08187e-09
-5.20189e-10
-7.67707e-11
7.67883e-09
3.64831e-09
-8.63986e-09
-2.0903e-09
6.27999e-09
-1.69738e-09
-3.28955e-09
-1.29305e-09
-7.8198e-10
6.5418e-09
2.60185e-09
-4.07117e-09
-2.28044e-10
4.64998e-09
-4.27985e-09
2.23168e-09
2.98406e-09
-5.14882e-09
1.84929e-09
-1.37095e-09