/*--------------------------------*- C++ -*----------------------------------*\
| =========                 |                                                 |
| \\      /  F ield         | OpenFOAM: The Open Source CFD Toolbox           |
|  \\    /   O peration     | Version:  v1612+                                |
|   \\  /    A nd           | Web:      www.OpenFOAM.com                      |
|    \\/     M anipulation  |                                                 |
\*---------------------------------------------------------------------------*/
FoamFile
{
    version     2.0;
    format      ascii;
    class       surfaceScalarField;
    location    "100";
    object      phi;
}
// * * * * * * * * * * * * * * * * * * * * * * * * * * * * * * * * * * * * * //

dimensions      [0 3 -1 0 0 0 0];

internalField   nonuniform List<scalar> 
41250
(
-6.1e-09
1.46143e-08
-8.98552e-09
4.71279e-10
3.95766e-09
-8.20304e-09
-8.30348e-09
1.25487e-08
-2.43107e-09
-6.22262e-09
3.5833e-09
5.07027e-09
-5.11078e-09
3.2373e-09
-5.72102e-10
2.44562e-09
7.21045e-09
-2.77854e-09
-9.54275e-09
2.50378e-09
2.85346e-09
1.4698e-11
-5.37195e-09
7.76962e-09
-8.67202e-09
1.05173e-08
6.37191e-09
-3.34218e-10
-7.0218e-09
9.83908e-10
1.03567e-08
-1.5582e-09
-2.42666e-09
-2.51294e-09
1.25248e-08
3.44839e-10
1.50878e-08
-5.3606e-10
-1.2983e-08
-1.56871e-09
8.17551e-09
1.02879e-09
-9.53863e-09
-1.28368e-09
6.94627e-09
-2.32673e-09
7.89855e-09
9.51585e-09
6.81435e-09
8.21769e-09
-1.73589e-08
-8.64445e-09
8.02796e-09
7.4308e-09
2.34042e-10
3.64631e-09
1.29258e-09
-6.33991e-09
6.07611e-09
-4.24895e-09
-3.71343e-09
2.16961e-09
5.79291e-09
-3.86117e-10
-7.47476e-09
3.61205e-09
7.56125e-09
-6.80475e-09
3.35906e-09
4.88721e-10
5.97525e-09
5.28229e-09
1.56122e-09
-8.7847e-09
3.72257e-09
3.5009e-09
-6.98762e-09
4.46716e-09
4.08167e-09
3.92193e-09
-3.12001e-09
-9.58661e-09
-3.47335e-09
4.07771e-10
2.17897e-09
-6.55753e-09
6.46662e-09
-2.08797e-09
4.42218e-09
-2.472e-09
2.28919e-10
-4.10889e-09
2.01851e-09
-4.49526e-09
4.32574e-09
4.59187e-09
1.97451e-10
1.77392e-09
6.67695e-09
2.31259e-09
-8.79195e-09
-2.06328e-09
1.52409e-10
8.5879e-09
9.84066e-09
2.65923e-09
-5.96001e-09
-6.53985e-09
-2.29471e-09
1.00721e-08
-1.47706e-09
5.95527e-09
-1.16325e-08
-5.89179e-11
9.39679e-09
-4.32819e-09
-4.64513e-09
1.72548e-09
6.54416e-09
-8.32852e-09
2.10031e-09
-4.90552e-10
-6.58187e-09
5.97627e-09
-4.44839e-09
4.6968e-09
-1.32718e-09
-1.02083e-09
-6.20925e-09
4.7852e-09
-2.01696e-09
3.441e-09
1.43454e-09
-3.9478e-09
-3.69601e-09
-6.21988e-09
-3.80067e-09
1.14552e-08
5.05418e-09
1.40195e-09
-1.67066e-09
2.37016e-09
-1.70948e-09
-4.60855e-09
5.45982e-10
-1.92866e-10
-6.71302e-09
2.13501e-09
7.34916e-09
-2.77059e-09
2.73174e-09
1.44143e-09
-3.93944e-09
-2.33463e-10
2.10922e-09
-1.40848e-09
-1.54667e-10
2.72361e-09
-6.10503e-09
1.6719e-09
-4.60478e-09
-9.84316e-11
-2.00953e-09
-8.101e-09
-3.0572e-09
4.76413e-09
4.28274e-10
-1.0231e-09
-2.13248e-09
-1.15326e-08
9.72468e-11
4.73981e-09
6.69586e-09
-8.48034e-09
1.40599e-08
1.08743e-09
-6.66674e-09
-1.03091e-08
5.72199e-09
-7.05279e-10
5.29249e-09
-2.15456e-09
-9.33801e-09
1.18342e-09
-5.0231e-09
-5.94806e-09
-5.613e-10
-7.32845e-09
-6.17494e-09
-2.9537e-09
-3.83168e-09
-4.79551e-10
7.26516e-09
-7.55315e-09
4.6968e-09
-2.11484e-09
4.01663e-09
-5.73331e-09
3.22107e-09
1.139e-08
-5.39144e-09
-6.47811e-09
-6.03061e-09
6.0443e-09
-5.96168e-09
-1.40643e-08
-9.43508e-10
-5.652e-10
-1.36657e-09
-6.0188e-09
-6.8682e-09
1.42535e-08
-7.14436e-09
-2.83234e-09
-1.27641e-09
1.1253e-08
-1.53073e-09
-7.09952e-09
1.48569e-09
1.46952e-08
-6.958e-09
-9.10393e-09
3.58933e-09
8.08616e-09
3.0196e-09
-6.10587e-09
3.11491e-09
7.98746e-09
-4.99658e-09
7.51843e-09
-5.88428e-09
-7.65313e-09
1.17925e-09
2.33304e-10
-7.97493e-09
8.73178e-09
-5.06695e-09
6.9054e-09
-6.45185e-09
-1.45897e-10
4.76458e-10
-1.11139e-08
3.53775e-09
-1.15724e-08
4.07383e-09
4.74494e-10
3.64583e-09
-1.00047e-08
4.00898e-09
-1.04926e-08
-9.37006e-10
-3.45467e-09
-6.72228e-09
-8.50043e-09
5.63616e-09
-5.44504e-09
3.63505e-10
-2.93119e-09
-2.38182e-09
8.55037e-09
8.78408e-09
-7.2296e-09
-4.48573e-09
6.96059e-09
2.22721e-09
-1.9773e-09
7.94909e-09
4.91622e-13
-3.82212e-09
-4.12742e-09
1.88854e-09
-1.70301e-09
8.59861e-09
8.21301e-10
-4.66342e-09
5.20808e-09
-1.36656e-09
-1.89006e-09
2.85117e-09
2.21497e-09
-3.17709e-09
-3.64001e-09
1.33385e-09
4.18494e-10
-1.32459e-09
-2.97551e-09
6.56512e-10
1.18476e-09
-1.02006e-09
-3.60643e-09
3.44662e-09
4.6511e-09
-6.10491e-10
-1.37889e-09
4.05267e-10
-3.20985e-11
1.02153e-09
-2.41257e-10
-6.72498e-10
-4.60375e-10
-2.02967e-09
1.3914e-09
1.97487e-09
3.26488e-09
-1.47336e-09
-2.03071e-09
2.65076e-09
-1.57338e-09
7.6653e-10
7.82745e-10
3.51716e-10
-1.04136e-09
-8.80662e-10
-6.46217e-11
-2.51661e-10
1.52024e-09
1.74382e-10
-3.01398e-09
-1.55032e-09
3.81571e-10
-2.72718e-10
-2.19221e-09
1.10402e-09
1.52111e-10
-4.92574e-09
8.13639e-09
-3.36291e-09
-5.33258e-09
9.02983e-09
-3.54528e-09
-2.58189e-09
4.4103e-09
-6.7542e-09
5.36494e-09
-1.32794e-08
1.03008e-08
-1.05722e-08
1.69847e-09
-1.42725e-09
-8.7785e-09
6.00126e-09
1.30783e-08
4.8046e-09
6.77149e-09
-2.54635e-09
-5.51376e-09
1.53999e-09
-8.80362e-09
-7.28233e-09
2.29994e-09
-5.73868e-09
7.52701e-09
-8.16804e-10
-1.94134e-09
6.1236e-09
2.58907e-09
5.95213e-09
2.4285e-10
7.13265e-09
-6.3039e-09
8.69651e-10
-2.68833e-09
1.58222e-08
-5.43672e-09
8.87187e-09
-1.14572e-09
1.66106e-09
7.74395e-11
-9.71583e-09
1.03626e-08
-1.85486e-09
1.208e-09
-3.47381e-09
2.16659e-09
-8.40857e-09
2.12127e-09
5.08241e-09
3.15892e-09
7.0579e-09
-1.35749e-09
-9.17419e-09
5.64118e-09
-4.38138e-10
-1.02316e-08
6.86233e-09
5.49062e-09
-1.30549e-09
-6.75957e-09
-6.80103e-09
5.44842e-09
6.43507e-09
-7.01127e-10
-4.5874e-10
-1.49366e-10
9.41743e-09
3.25036e-09
-1.25185e-08
4.63245e-09
-6.13929e-09
-4.83968e-10
1.08282e-08
-4.89573e-09
1.29936e-09
1.19242e-08
-3.80607e-09
6.70955e-09
-7.77748e-10
1.52322e-08
2.48683e-09
-5.79493e-09
2.10467e-09
8.42923e-09
4.69833e-09
1.09332e-08
-8.98826e-09
-1.55459e-08
5.97317e-09
1.16773e-08
-2.12595e-09
1.23515e-08
4.44759e-09
-9.4654e-09
-6.30745e-09
1.13253e-08
-1.05211e-09
5.30746e-09
1.92275e-10
3.33817e-10
-8.86201e-10
-8.91298e-09
-7.25996e-09
3.57334e-09
5.14602e-09
-1.45937e-09
-6.63197e-10
-6.26291e-09
4.454e-09
-3.57733e-10
-4.98244e-09
3.26561e-09
1.36274e-10
2.58443e-09
-5.26942e-09
6.2007e-09
-3.51566e-09
-1.49216e-09
-3.83544e-09
7.91207e-09
-3.27286e-09
5.35408e-09
-3.84523e-09
7.00569e-09
2.24709e-09
-5.40749e-09
-3.51917e-09
-9.89192e-10
-4.80043e-09
5.62134e-11
4.38652e-09
-2.30627e-09
3.0249e-10
-1.94224e-09
4.49479e-09
-6.38795e-09
1.79064e-09
-3.41251e-10
-1.54996e-09
1.15976e-08
-9.70653e-09
-7.84094e-09
-1.16087e-09
8.66047e-09
-5.57535e-09
-4.32551e-09
2.06003e-09
-6.81464e-09
-1.06689e-09
6.33152e-09
5.03689e-09
-5.5848e-09
-5.35479e-09
5.90269e-09
-1.65742e-09
-1.20336e-10
-5.55713e-09
-4.47195e-09
4.45372e-09
1.62919e-09
1.05119e-09
-8.23759e-09
-1.21234e-08
9.21718e-09
-1.5656e-09
4.04551e-09
-1.45398e-08
-4.08601e-10
-7.93093e-09
7.17867e-09
-8.04611e-09
6.5706e-09
-5.73644e-09
-7.6071e-09
5.29743e-09
-7.00084e-09
-3.93027e-10
2.56227e-09
-7.09592e-09
8.70261e-10
-5.30881e-09
-2.1401e-09
-4.59674e-09
-4.45751e-09
5.74376e-09
-2.55205e-09
1.89662e-09
-7.44969e-09
-4.21457e-10
5.97455e-09
-8.58092e-09
-2.98536e-10
1.07761e-08
-5.56178e-09
-5.45357e-09
5.34209e-09
5.67333e-09
-5.41971e-09
3.33538e-10
-4.75579e-10
5.15491e-09
-3.82926e-09
-6.74534e-09
-8.51664e-10
5.5302e-10
-5.38238e-09
6.07315e-09
-8.14042e-09
-1.04791e-08
-3.48425e-09
1.38492e-09
3.53574e-09
-6.55175e-09
7.63815e-09
5.85131e-09
-4.82554e-09
-6.92211e-10
4.68732e-09
-1.12344e-08
2.71783e-09
-1.59232e-09
-1.07281e-10
-8.77942e-09
-6.75247e-09
6.05203e-09
6.69342e-09
-6.83163e-09
-1.65135e-09
-1.05361e-09
-3.84815e-09
4.13554e-09
7.65984e-10
-1.23657e-09
-2.00101e-09
2.79213e-09
4.45033e-10
-1.61115e-11
-3.99724e-09
2.98186e-09
1.03091e-09
-4.45712e-09
3.38732e-09
-1.82325e-09
-4.12626e-09
2.10109e-09
-3.32221e-09
2.62082e-10
-3.58597e-09
-2.58328e-10
5.69866e-10
3.27416e-09
-8.71327e-10
-3.65118e-09
9.3611e-10
-3.13898e-09
2.66413e-10
-5.00806e-09
7.15723e-10
1.66009e-10
1.09225e-10
-4.36487e-09
5.36704e-10
-4.69586e-09
5.0769e-10
6.17201e-10
-3.21961e-09
-8.13045e-10
-4.49834e-09
3.02958e-10
-3.51819e-09
-5.10577e-09
1.36425e-09
1.80045e-09
-1.6647e-09
-4.63436e-09
-2.04168e-09
3.2384e-10
-3.77966e-09
-1.02318e-09
7.08912e-09
-3.27745e-09
6.27983e-09
-1.00915e-08
-1.0971e-09
8.0792e-09
1.07014e-10
4.40266e-09
1.11846e-09
-8.79858e-09
4.01732e-09
-7.11765e-10
3.71907e-09
4.38909e-09
-4.37716e-09
-3.73101e-09
4.44174e-10
3.23444e-09
4.04448e-11
-3.15937e-09
-3.42272e-09
1.09711e-08
8.21012e-10
3.43493e-09
2.02387e-09
4.66734e-09
4.2329e-09
4.35465e-09
1.06852e-10
-1.28723e-08
4.29413e-09
1.07594e-08
-2.18127e-09
-6.65589e-09
4.4626e-10
-6.66269e-09
3.94436e-09
-7.20308e-09
-5.87092e-09
2.16038e-09
3.0264e-09
-1.95236e-09
3.00309e-09
6.01889e-09
-7.12219e-09
7.91002e-10
1.06253e-08
-3.24103e-09
5.95447e-09
-5.63823e-10
5.60392e-09
-5.57607e-09
5.35578e-10
3.05453e-09
-1.80315e-09
4.27791e-10
-1.67975e-09
2.7216e-09
-2.32957e-10
-1.09767e-09
1.68671e-09
5.01479e-09
-5.56803e-09
1.04827e-09
3.42123e-09
-2.31334e-09
2.65748e-09
-5.91217e-09
-3.94597e-09
3.21682e-09
-1.77079e-09
2.50006e-09
2.26437e-09
-3.64557e-09
-2.56451e-09
6.35265e-12
2.59573e-09
1.19212e-10
1.67186e-09
-2.00085e-09
3.35216e-10
2.30915e-09
1.00367e-09
5.09967e-10
5.01593e-09
1.97604e-09
-3.43639e-09
-2.18513e-09
-8.22286e-11
2.87606e-10
9.4171e-10
3.34093e-09
-1.34538e-09
2.79715e-09
2.44418e-10
-1.16738e-09
-2.94552e-09
6.62852e-09
-3.89583e-09
6.34334e-09
-4.21403e-09
1.76676e-09
-2.50602e-09
7.11411e-09
3.11423e-09
-5.37177e-09
-4.80888e-09
-5.5945e-09
1.57751e-08
8.11648e-09
8.04951e-09
-2.29147e-08
6.74853e-09
1.28846e-08
-1.01401e-08
1.86921e-08
1.3721e-08
-2.43634e-08
6.15649e-09
1.40817e-08
-1.54606e-09
-1.18287e-08
1.81729e-09
2.10216e-08
-1.10102e-08
-1.38319e-08
9.93452e-09
-7.93125e-09
-6.45135e-09
1.13038e-08
1.30419e-09
-5.85006e-10
7.0183e-09
-1.77849e-08
1.84197e-08
1.34471e-08
3.31494e-09
-7.37876e-09
5.19456e-09
-4.92025e-09
-1.41061e-08
-1.10674e-08
1.03761e-08
1.9111e-08
-2.55783e-09
2.34972e-08
-1.66367e-08
1.93124e-08
-6.85958e-09
4.18375e-09
-8.95602e-09
-1.86508e-08
1.09699e-08
-1.24824e-08
4.12346e-09
8.87932e-09
-5.20441e-10
-6.06679e-09
-5.35904e-09
-1.05673e-09
1.3389e-08
1.08967e-08
-1.03771e-08
-1.39087e-08
1.6692e-08
8.20389e-10
2.28661e-08
-1.6208e-09
-1.03487e-08
1.42167e-08
-4.32989e-09
1.2979e-08
1.24283e-08
7.96864e-09
-1.08458e-09
-1.0033e-08
9.48761e-09
-6.31429e-09
4.00065e-09
-2.29899e-08
-1.24433e-08
1.0684e-08
8.9099e-09
-1.07147e-08
-1.9735e-08
1.15879e-08
3.78411e-09
4.36267e-09
-1.18682e-08
7.83173e-09
1.79726e-08
-1.09864e-08
3.93865e-09
1.06802e-09
5.97875e-09
5.12259e-10
-9.43234e-09
-2.06645e-09
1.05148e-08
-8.80605e-09
-1.19698e-09
1.80209e-09
1.26512e-08
7.10338e-09
5.25869e-09
1.60564e-09
7.29382e-09
-8.31329e-09
1.17209e-08
6.78007e-09
5.03898e-09
-3.16127e-09
3.82907e-09
-1.14029e-08
-9.65212e-09
1.60855e-09
-2.48235e-09
-1.01618e-08
-8.07211e-09
-1.48562e-08
-2.29566e-10
-7.23676e-09
9.90464e-10
-1.15449e-08
-1.91374e-09
-7.34916e-09
-7.10024e-09
-4.3047e-10
-1.17616e-08
4.07435e-09
8.11761e-09
-8.68714e-09
6.1907e-09
2.06579e-09
4.67425e-11
-4.02827e-09
-4.70569e-09
-6.09515e-09
-5.61972e-09
5.70244e-09
1.40596e-09
3.96466e-09
-1.1073e-08
6.65993e-09
-4.98582e-09
-4.87031e-10
5.49358e-09
1.18398e-09
4.75757e-09
-9.44692e-09
5.95417e-09
-2.41318e-09
3.11891e-09
-1.12089e-10
5.57917e-09
-7.53052e-09
3.89e-09
1.22736e-09
2.63844e-09
-6.20427e-09
-2.54136e-10
-1.02851e-08
1.08049e-08
-2.65764e-10
-8.01419e-09
7.64794e-09
9.75704e-09
-1.77233e-09
-5.34635e-09
5.63282e-09
-7.29985e-09
-1.541e-08
2.33206e-08
4.20016e-09
-1.21112e-08
-9.56751e-09
-4.15655e-10
-5.4274e-09
-1.3381e-08
1.68793e-08
-1.448e-08
1.09813e-08
-5.87792e-09
-2.73679e-09
-4.76663e-09
-8.04331e-09
1.61691e-08
8.75334e-09
7.36874e-09
-1.20147e-08
1.236e-08
-7.71436e-09
3.38486e-09
1.89869e-09
2.08421e-09
3.11176e-09
-1.82068e-09
-1.0859e-08
-1.07181e-08
-1.11055e-08
1.24885e-08
9.33472e-09
-1.67163e-08
1.20141e-10
3.20615e-10
-5.25226e-09
4.13336e-09
-7.08352e-09
-1.37669e-08
-3.58733e-09
-1.68971e-08
1.09657e-08
-1.1527e-09
1.1347e-08
1.74076e-08
-1.16011e-08
-1.71534e-08
1.79719e-08
-5.32085e-09
7.67368e-09
1.34394e-08
-3.14102e-09
1.80322e-08
7.04944e-09
8.36771e-09
-2.05539e-08
1.32414e-08
-1.97837e-09
6.76937e-09
1.7519e-08
2.56729e-09
-1.17186e-08
7.94451e-09
-2.39554e-09
7.89042e-09
2.93876e-09
1.82473e-08
1.03985e-08
1.07032e-08
6.76225e-09
2.4658e-08
1.08585e-08
4.68228e-09
1.41245e-08
-6.99692e-09
-4.56032e-09
-1.27872e-08
2.24884e-08
1.2196e-08
8.04895e-09
-3.67255e-09
-5.93351e-09
1.5569e-09
-1.7886e-09
1.54098e-09
8.29681e-09
4.64753e-09
-1.39691e-08
-2.80812e-09
1.21305e-08
-1.59505e-08
8.96163e-10
1.97019e-08
4.73713e-09
-7.08983e-09
-1.31797e-09
-7.77848e-11
3.02586e-09
-4.32385e-10
-6.76153e-09
-6.77564e-09
-7.96868e-09
-8.41469e-09
-7.62234e-09
1.0059e-08
-9.97194e-09
-3.58433e-09
-1.94782e-09
-5.22194e-09
4.36159e-09
-5.47269e-09
3.44688e-09
5.06508e-09
3.08367e-09
1.35317e-09
-9.50454e-09
3.99892e-09
-6.90331e-09
-7.05884e-09
-4.92594e-09
-4.49471e-09
-1.47887e-09
4.06676e-09
-5.47759e-09
-7.46211e-10
-1.92011e-09
-2.8059e-09
-3.76882e-09
-7.6265e-09
-1.40273e-08
1.14568e-08
-9.29788e-09
9.67013e-10
-2.13088e-08
-2.02465e-08
7.91013e-09
1.66987e-08
-4.87308e-09
-3.91651e-09
-1.34678e-08
1.40486e-08
7.38787e-09
-2.27754e-09
-7.00672e-09
-1.20542e-08
1.6263e-08
-9.08111e-09
7.38429e-09
-1.84715e-08
-5.2526e-09
2.07435e-08
7.72184e-10
1.07147e-08
-1.10372e-08
-4.9303e-09
1.04306e-08
9.40738e-09
9.05238e-10
1.01206e-08
1.10247e-08
2.3169e-09
1.85117e-08
-5.93031e-09
4.56893e-09
1.27484e-08
1.70065e-08
1.90524e-09
-7.89593e-09
1.93277e-08
-1.33368e-08
-9.96727e-09
-1.37011e-08
2.55736e-08
4.39432e-09
6.74484e-09
-1.90355e-08
1.04592e-08
-1.50527e-08
8.98775e-09
6.87622e-09
-5.85542e-11
1.25096e-08
-1.12871e-08
1.73346e-08
-1.54677e-08
9.42006e-09
9.06363e-09
-1.5067e-09
1.41882e-08
-2.1745e-08
8.97131e-09
-8.47934e-09
1.00733e-08
-1.46156e-08
-7.69246e-09
1.80828e-08
3.71395e-09
-1.41042e-08
1.47011e-08
2.24814e-09
-1.1615e-08
9.96617e-09
1.07127e-08
8.25532e-09
-2.88003e-09
-1.69901e-08
4.84144e-09
1.09863e-08
1.59646e-08
3.57775e-09
1.91582e-08
-1.93124e-09
2.14319e-08
-2.70634e-09
-2.58417e-09
8.01026e-09
6.3999e-09
-4.45309e-09
1.68828e-09
2.86152e-09
1.05682e-10
9.92104e-09
-1.6717e-09
-6.22056e-09
-2.02693e-09
9.60272e-09
7.24036e-09
-6.92212e-09
-1.21363e-09
-3.83155e-09
3.3799e-09
1.64254e-09
2.88564e-10
-3.83868e-09
4.07685e-09
7.89395e-09
-2.83956e-09
-2.84128e-09
1.95491e-09
7.66504e-09
-4.10681e-09
8.60697e-09
7.06731e-09
-1.49433e-09
1.20542e-08
1.50028e-09
8.51453e-09
-4.09435e-10
1.17565e-08
-1.17512e-08
1.21742e-08
-6.29195e-09
8.23124e-09
-1.41137e-08
-2.80716e-09
1.157e-08
3.41126e-09
7.66365e-09
1.13057e-09
-1.50863e-08
5.43889e-09
-5.82483e-10
5.17732e-09
3.48143e-09
2.91099e-09
1.33314e-08
3.42965e-09
-8.52996e-09
9.24071e-09
9.26773e-09
-3.45101e-09
3.80891e-09
8.88274e-09
4.51501e-09
-1.25047e-08
4.53857e-09
3.90111e-09
-6.61588e-09
-3.6304e-09
1.13403e-08
4.8633e-09
5.59548e-10
1.57977e-11
4.71702e-09
3.62761e-09
-4.64317e-09
-4.43199e-09
7.51637e-09
7.14648e-09
-1.35323e-08
5.27829e-09
4.65584e-09
-2.4179e-09
-4.04894e-09
5.13551e-09
5.63157e-09
2.06134e-10
9.20813e-09
-6.70491e-09
1.04179e-08
3.44599e-09
5.29255e-10
3.27268e-09
2.11189e-09
1.30167e-08
4.01584e-09
-4.17426e-09
-1.28581e-08
-7.59732e-09
1.44723e-08
6.14196e-09
-6.4213e-09
1.22781e-08
-3.61581e-09
-2.2409e-09
-8.42664e-09
7.78065e-09
-5.77515e-09
-1.7526e-08
2.76779e-09
6.33149e-09
1.66644e-08
-3.70392e-10
4.0302e-09
-1.01437e-09
-1.06135e-08
-4.22633e-09
9.32191e-09
9.37689e-09
7.09367e-09
5.34425e-09
1.37942e-08
-2.64528e-10
-9.49988e-09
-9.24327e-09
1.41178e-09
-8.41406e-09
6.26462e-09
-2.48341e-09
-1.63085e-08
1.00459e-08
8.74592e-09
-1.51663e-08
4.26904e-09
-2.15557e-08
1.73711e-08
-1.21238e-08
4.18166e-09
-7.65446e-09
9.09624e-09
-5.44217e-09
-3.20392e-09
7.55245e-09
2.0656e-09
-4.79968e-09
-4.81837e-09
-2.89056e-09
-5.11944e-10
-5.07966e-10
-2.25581e-09
9.80246e-09
-4.4075e-09
4.5988e-09
-9.99372e-09
7.3541e-09
-4.42254e-10
-1.52941e-09
-7.67777e-09
-7.86015e-09
5.92489e-09
-7.01625e-09
1.27369e-08
-5.65908e-10
-7.57226e-09
-4.06786e-09
-4.30029e-09
4.49177e-10
-2.88847e-09
2.41758e-09
-8.0149e-09
-4.5965e-09
-3.05859e-09
-4.57197e-09
-5.96711e-09
-6.75089e-09
1.77062e-08
-1.60894e-09
7.22397e-09
1.2935e-08
-2.15102e-09
6.92258e-09
-4.59834e-09
7.73868e-10
-7.3824e-09
1.12076e-08
-1.45666e-08
9.63878e-09
3.31921e-09
1.53312e-08
3.55777e-09
-1.16642e-08
1.43655e-08
1.39008e-08
-1.37129e-09
-9.7087e-09
1.05366e-08
5.44122e-10
-1.38482e-08
1.13219e-08
1.15559e-09
-2.69665e-09
9.22473e-09
-1.62362e-08
-1.01914e-08
-9.87133e-11
2.34434e-09
-9.63894e-09
1.11883e-08
-9.02956e-10
-8.96652e-09
-1.31852e-09
-2.95977e-09
1.37775e-08
-8.90941e-09
-3.77148e-09
9.72139e-09
-8.27466e-09
-1.53754e-09
-8.06239e-09
-4.8156e-10
4.77313e-09
-9.52092e-09
-6.81593e-09
1.80832e-09
-6.82298e-09
7.46281e-09
-2.44738e-09
-4.90731e-09
9.9268e-10
5.72329e-09
-1.03515e-08
-1.37844e-09
-8.46862e-09
-4.1135e-09
2.80722e-09
-1.13941e-09
-3.78134e-09
-7.42842e-09
1.23492e-08
1.17264e-09
-6.47368e-09
-3.78341e-09
9.08432e-09
-7.15072e-09
1.18553e-08
-3.53186e-09
1.12568e-08
-4.39027e-09
-8.006e-09
7.09547e-09
-3.67573e-09
-7.20106e-09
5.34571e-09
1.67227e-09
7.75311e-11
-6.11302e-10
7.10711e-09
4.76123e-09
6.68723e-09
4.21685e-09
-1.15153e-08
6.04965e-09
-6.59337e-09
7.23102e-09
-4.28103e-09
-6.54598e-10
1.09854e-08
-2.72206e-10
3.07627e-09
-9.27777e-09
7.45387e-09
-1.14018e-08
7.09146e-09
-6.78827e-09
3.89316e-09
6.80756e-09
1.15455e-09
-5.66737e-09
5.27951e-09
1.3872e-09
3.69417e-11
-5.29548e-09
1.1748e-08
1.39546e-10
6.27572e-09
-7.58966e-09
1.36384e-08
-4.15085e-09
-3.21185e-09
1.3757e-08
-5.41418e-09
1.83778e-09
4.07102e-09
-1.16948e-08
5.78607e-09
5.08133e-09
-9.40003e-09
6.15652e-09
-4.73387e-09
-2.61536e-09
1.39526e-08
-6.6032e-09
1.43465e-08
-1.3999e-08
7.52882e-09
-9.29771e-09
4.03431e-09
1.96101e-08
-1.11485e-09
5.76979e-09
1.0007e-08
3.49638e-09
4.96781e-09
3.92441e-09
2.73584e-09
-8.26306e-09
1.04951e-08
-7.77768e-09
1.45479e-08
-6.22409e-10
3.78023e-09
-1.09355e-08
2.40514e-09
-1.12906e-08
4.50808e-09
-1.73339e-09
-9.5029e-09
6.7282e-09
2.6107e-09
2.9987e-09
-7.0785e-09
1.46906e-09
6.14178e-10
3.52838e-09
3.65495e-10
1.81312e-09
-1.14798e-08
1.02808e-08
-4.92152e-09
2.25596e-09
7.69423e-09
-5.02866e-09
-1.56377e-09
1.70647e-10
4.74173e-09
-3.90126e-09
-7.02388e-09
6.18345e-09
3.23299e-09
-5.49895e-11
3.82553e-09
6.09423e-09
-6.68679e-09
-4.51666e-09
1.05982e-08
2.25441e-09
-4.16037e-09
-1.0672e-08
5.03738e-09
1.45789e-08
-3.1065e-09
5.31369e-09
-9.44176e-09
1.00339e-08
1.39867e-08
1.5569e-09
5.65176e-10
1.28907e-08
1.56618e-09
-2.61736e-09
-2.93382e-09
1.5585e-08
9.92473e-09
9.9202e-10
-3.92564e-09
1.4199e-08
-1.78886e-09
1.41063e-08
2.99742e-09
1.24526e-08
9.98835e-09
6.0085e-09
7.73873e-09
-3.56046e-09
-1.01867e-08
-3.02159e-09
8.95625e-09
-1.971e-08
1.37754e-08
5.41514e-09
1.50888e-09
-9.61096e-09
2.68693e-09
-1.06192e-08
-7.02412e-09
1.21998e-08
5.44354e-09
-9.82303e-09
1.79405e-10
-9.75462e-10
5.88653e-09
-1.83192e-08
9.41109e-09
-1.00365e-08
-1.83221e-08
1.85994e-09
1.00948e-08
6.36766e-09
-6.96324e-09
-1.2567e-08
1.20825e-09
1.06586e-09
-9.90859e-09
-8.50101e-09
1.73438e-08
-6.93749e-09
-5.84146e-09
1.38449e-08
-6.44689e-09
-5.73822e-09
5.2476e-09
1.8825e-10
-9.33765e-09
2.70251e-09
3.86338e-09
-1.35836e-08
8.5741e-09
-2.51169e-09
-1.30255e-08
1.04028e-08
2.9673e-09
-4.79592e-09
7.12985e-09
5.13302e-09
1.81429e-08
-1.6549e-08
-3.32706e-09
4.61549e-09
-9.76528e-09
7.00048e-10
-1.84446e-09
-1.42104e-09
-6.07211e-09
5.58551e-09
2.44611e-09
-1.05433e-08
8.50162e-09
5.12287e-11
-1.35231e-08
5.95512e-09
1.00142e-08
-3.10812e-09
-7.0505e-09
6.49776e-09
2.09066e-09
-1.53746e-09
-2.31138e-09
4.83501e-09
3.36179e-09
-5.88521e-09
-7.85208e-09
5.06425e-09
4.76543e-10
1.3572e-08
-2.42207e-09
-1.00017e-08
-1.14792e-09
8.06946e-10
8.52431e-09
4.24099e-09
-5.4288e-09
-8.84707e-09
5.12483e-09
9.15126e-09
1.4945e-09
-6.25296e-09
-6.70278e-10
1.18167e-08
-4.60357e-09
-9.6351e-09
3.77664e-09
-5.91857e-09
-4.3899e-10
-3.50394e-10
-8.67657e-09
4.30208e-10
8.59682e-09
-6.15082e-09
-1.18141e-10
1.17518e-08
-1.02778e-08
4.74631e-09
2.38619e-09
-2.06799e-09
-2.93632e-09
-7.92019e-09
5.92045e-10
2.83683e-09
-1.21053e-08
-8.49506e-09
-5.61504e-09
2.11621e-09
6.33563e-09
-1.4551e-08
2.96316e-09
-4.09935e-09
1.56872e-08
1.527e-09
7.99362e-10
7.36894e-09
-9.69531e-09
8.19766e-09
1.99626e-09
-8.66691e-09
-6.3431e-09
-8.48778e-10
-1.84998e-09
9.04198e-09
-1.26964e-08
-1.15727e-08
1.36771e-08
4.99462e-09
-7.09896e-09
-7.40689e-09
-1.20268e-09
3.50349e-09
-1.27204e-08
1.54104e-09
7.67595e-09
-1.25102e-08
-7.35949e-09
1.89216e-08
9.48179e-10
1.73206e-09
9.75227e-09
-1.0685e-08
1.13106e-08
-7.58238e-09
-2.36003e-09
8.88026e-09
2.66813e-09
3.86735e-10
7.61294e-09
-1.06676e-08
3.08947e-09
1.32559e-08
8.22222e-09
-4.31853e-09
-9.07668e-09
1.27972e-08
-6.30996e-10
2.64909e-09
-1.54783e-08
1.0898e-08
3.0565e-09
-1.35676e-08
-3.76098e-09
7.83954e-09
-7.18234e-09
3.10364e-09
1.89444e-09
-5.45627e-09
-1.99158e-10
-5.18859e-09
3.07001e-09
4.29295e-09
-2.17435e-09
-2.39462e-09
-3.43798e-09
6.43996e-10
6.04161e-09
-3.3947e-09
4.2295e-10
-2.85495e-09
4.81345e-09
-6.4129e-11
6.36629e-10
3.80347e-09
3.39932e-09
2.62829e-09
-4.81807e-09
2.43024e-09
-2.40653e-10
4.06955e-09
-4.36142e-09
-5.16438e-09
-1.6467e-11
-3.0964e-09
-5.51221e-09
2.62681e-10
-1.03161e-08
6.19883e-09
4.75377e-09
-5.83422e-09
-6.19053e-09
6.51262e-09
3.29999e-10
6.17106e-09
-6.24304e-09
-2.58222e-10
-1.01638e-08
9.86698e-09
6.26672e-10
-4.16152e-09
9.46464e-10
-1.11421e-08
8.65574e-09
-1.39523e-08
6.14137e-09
-7.64955e-09
-4.70198e-09
9.724e-09
4.84492e-09
2.22325e-09
-7.84003e-10
-2.88203e-09
-1.4098e-09
-4.65176e-09
8.94359e-09
-4.79485e-09
-2.19177e-09
4.10457e-09
1.58118e-09
4.86442e-10
6.53394e-09
-8.60169e-09
9.25207e-09
1.75902e-10
-7.84678e-09
-1.26554e-09
7.65811e-09
-7.97792e-09
1.58536e-09
-6.13613e-09
7.57337e-11
-1.39322e-09
-5.77076e-09
5.75413e-09
-7.36315e-09
3.77815e-09
-5.36279e-09
8.36916e-09
9.83096e-09
3.64096e-10
-9.43006e-10
-2.31248e-09
1.0865e-08
-8.37663e-09
7.45429e-09
-9.28037e-09
-2.63837e-09
6.69858e-09
2.86374e-09
-7.249e-09
7.99869e-09
-3.85644e-10
5.99031e-09
-6.70542e-09
5.02162e-09
-5.54525e-09
-8.99701e-10
-2.14834e-10
-5.27349e-09
5.90902e-09
-1.82883e-10
3.79099e-09
1.16481e-09
-1.09456e-08
5.98986e-09
-1.39679e-08
1.35802e-08
4.1787e-09
-3.85852e-09
-6.79196e-09
6.42163e-09
4.22892e-09
7.04644e-10
-6.40821e-09
1.8452e-09
-6.7376e-09
8.71588e-10
6.57071e-09
-5.90616e-09
3.8657e-09
3.20525e-09
9.69404e-09
-1.13321e-08
-9.3075e-09
-5.08108e-09
8.07422e-10
-3.7779e-09
-2.54759e-09
-4.6642e-10
-5.35894e-09
-4.82716e-09
2.81186e-09
-6.26226e-09
9.02949e-10
-7.56278e-09
4.46849e-09
-7.32977e-09
-4.48888e-09
-2.28096e-09
-8.39392e-10
-3.14189e-09
-6.56242e-09
-3.28129e-09
2.89034e-09
-1.11645e-08
9.44391e-10
-3.30799e-09
1.3688e-08
5.96123e-09
-1.08216e-08
-8.82768e-09
8.55069e-09
5.35048e-09
-2.13225e-10
-7.91328e-09
6.1636e-09
1.03003e-08
-1.74432e-09
-2.078e-10
-6.37737e-09
4.62343e-09
-6.20661e-09
7.96049e-09
-8.00209e-09
-1.19627e-10
5.04593e-09
3.86424e-09
-2.14808e-09
-6.76218e-09
-3.16275e-09
2.06436e-10
1.29367e-09
-8.25102e-09
1.44086e-08
-3.62158e-09
4.16698e-09
-1.88683e-08
1.25531e-08
-4.92963e-09
-1.02828e-08
1.6506e-08
-1.10751e-09
7.82508e-09
-1.29243e-08
1.61394e-08
-1.69021e-08
8.4529e-09
6.57891e-09
1.12986e-08
-5.38288e-09
-3.99981e-09
-1.91616e-09
-1.34075e-08
1.56697e-08
9.03653e-09
-1.1187e-08
1.37743e-09
4.42625e-09
-6.63132e-09
-1.36631e-08
9.10713e-09
1.10788e-08
-1.35358e-08
-1.54291e-09
-1.4193e-08
1.18641e-08
-1.51217e-08
-9.82695e-09
1.85865e-08
6.36182e-09
-1.13344e-08
-1.29109e-08
9.12322e-09
2.97823e-09
-1.94428e-08
5.12998e-09
-1.33202e-08
6.4715e-09
1.38693e-08
-9.39415e-09
-1.80112e-08
6.85681e-10
-1.00935e-09
-8.65749e-09
-6.99038e-09
-1.41814e-08
1.54657e-09
-1.48526e-08
-1.87718e-08
1.07231e-09
-1.70979e-08
-2.24379e-08
-5.35555e-09
1.00032e-08
-1.58996e-09
-3.05787e-09
-1.3708e-09
-9.67875e-09
5.69393e-09
-1.403e-08
4.25333e-09
5.86029e-09
3.9164e-09
-3.3389e-09
-2.68588e-10
-1.04224e-08
1.00853e-08
9.60197e-09
-9.68409e-09
6.83654e-09
1.73406e-09
-9.9413e-09
7.08658e-09
-1.84014e-09
-2.72221e-09
-8.08393e-09
7.46731e-09
6.79978e-09
-7.78796e-09
4.54448e-09
2.41826e-09
-1.629e-10
6.46159e-09
-1.63069e-09
-2.86406e-10
1.44505e-08
-1.0263e-08
-4.45594e-09
1.16843e-08
7.01954e-09
-9.51098e-10
5.84e-09
5.19643e-09
7.78593e-09
1.71902e-09
4.03024e-09
-3.24357e-09
5.67476e-09
8.28535e-09
-5.47801e-09
1.22287e-09
3.59123e-09
1.88079e-08
-8.0756e-09
3.00719e-10
-1.10327e-08
1.20276e-08
4.18571e-09
2.59444e-09
-1.15898e-08
9.56033e-09
1.40567e-08
-2.50244e-09
-1.53156e-08
9.74261e-09
1.83198e-08
-6.84079e-09
-1.11783e-08
4.38937e-09
2.34063e-09
1.33045e-08
-3.72792e-09
-1.64169e-08
-9.79295e-10
1.48409e-08
-5.56968e-10
-5.99688e-09
3.31032e-09
1.45368e-08
-1.18504e-08
-1.80943e-08
-1.48834e-09
1.35856e-08
-1.34194e-09
-8.69691e-09
-8.05527e-09
9.01633e-09
-1.52464e-08
9.63418e-09
-1.59741e-09
1.4077e-08
5.15319e-09
-3.80924e-09
1.66797e-08
1.59425e-08
-7.65032e-09
2.23445e-09
1.22195e-08
1.25019e-08
-8.9218e-09
-7.11548e-09
7.30346e-09
8.73371e-09
-7.42597e-09
2.04161e-09
-3.53752e-09
8.86667e-09
-3.90935e-09
-1.23833e-08
1.53959e-09
2.11525e-10
4.4178e-09
-8.18363e-09
-4.54828e-09
8.31406e-09
-1.20366e-09
1.29248e-08
-3.20675e-09
-2.93535e-09
-7.01312e-09
7.54745e-09
1.0052e-09
-6.35982e-09
3.14932e-10
-9.68287e-10
-1.17958e-08
1.52667e-09
-4.47694e-09
1.08207e-08
8.84564e-09
-4.0214e-10
-8.12855e-09
6.29075e-10
-9.61595e-09
4.43855e-09
4.99776e-09
-7.23414e-09
-5.58858e-09
-1.37693e-09
-5.77825e-09
6.4262e-09
7.29726e-10
-9.18073e-09
8.60418e-09
-7.99883e-10
-4.12877e-09
-1.25306e-09
-1.76226e-12
5.38383e-09
-1.36378e-09
-5.546e-09
2.78136e-09
4.46922e-09
-2.88235e-10
-5.15193e-10
-3.66534e-09
5.56228e-09
-2.875e-09
1.78219e-09
2.62997e-09
1.56885e-09
2.62674e-09
-2.69943e-09
2.70316e-09
-3.75317e-09
1.07374e-09
-1.94402e-10
-3.09428e-09
-9.46887e-10
6.00725e-09
-1.81875e-09
-9.96655e-09
5.3222e-09
-8.49536e-09
-5.33582e-09
7.68908e-09
6.25116e-09
-8.43313e-09
-3.41153e-10
7.52159e-09
-2.02771e-10
-1.804e-09
-9.82875e-10
3.6079e-09
-4.78583e-09
-9.62604e-10
-7.90824e-10
-1.26088e-10
-3.6839e-09
-1.61692e-09
2.09246e-09
-7.59485e-09
6.2364e-10
-6.37014e-10
1.2573e-09
6.09073e-09
3.64687e-09
-2.51925e-09
-5.03608e-10
-2.89646e-09
3.17103e-09
-4.02688e-11
2.96038e-09
9.0373e-09
-7.83577e-09
-4.1619e-09
-1.04779e-08
1.5548e-08
-2.10956e-09
1.04259e-08
-1.55432e-09
-8.1474e-09
-7.24089e-10
1.04692e-08
6.21969e-10
-6.65157e-10
-1.94147e-09
-3.31252e-09
1.12448e-08
-5.99072e-09
6.64402e-09
1.12703e-11
2.38207e-09
-7.55273e-09
1.22552e-08
-7.80087e-09
1.94722e-09
5.86498e-09
-7.68273e-09
-6.99885e-09
6.88072e-09
-1.72864e-09
-1.11578e-08
2.40856e-09
1.89555e-10
-9.75395e-09
3.1475e-09
2.61588e-09
6.26687e-09
-1.20302e-08
1.11427e-08
-6.85437e-09
-4.91494e-09
8.45682e-09
-7.07684e-09
5.92853e-10
-3.70393e-10
8.17016e-09
6.42842e-09
-1.93919e-09
-6.04354e-09
-2.64432e-11
-9.43236e-09
8.24527e-09
-7.3912e-10
-1.40303e-09
-6.10311e-09
-1.07738e-08
8.48695e-09
1.05321e-08
-8.92393e-09
7.42677e-09
2.96229e-09
-1.01462e-08
8.76708e-09
3.20768e-10
-8.70586e-09
-6.36026e-10
-3.51605e-09
1.28579e-08
-7.48107e-10
8.09347e-10
8.71738e-09
-7.15814e-09
-8.13105e-09
-3.73675e-09
1.12318e-08
-1.61779e-10
-7.23777e-10
6.07961e-09
4.0264e-09
1.0788e-08
-3.31993e-09
8.66584e-09
-1.61337e-08
3.04948e-09
1.95002e-09
5.78877e-09
4.17517e-09
5.97246e-09
-7.09809e-09
3.60842e-09
-1.21669e-08
5.23861e-09
1.41306e-08
6.10013e-10
-6.07462e-09
5.09109e-09
1.09897e-08
5.09891e-09
5.58613e-09
-7.07663e-09
8.83192e-09
-3.123e-09
-5.02255e-09
1.31882e-10
9.06589e-09
-1.47294e-09
-3.83616e-09
2.86554e-10
-3.73984e-09
5.98845e-09
6.58336e-09
3.73346e-10
1.12114e-08
-2.99163e-10
-3.52278e-09
-7.05759e-09
1.08797e-08
-4.73456e-09
9.35512e-09
-1.59966e-09
-3.02067e-09
-1.06552e-09
-7.05018e-09
7.04285e-10
7.41158e-09
-5.62701e-09
4.69143e-09
-1.29835e-10
1.64103e-08
-5.44526e-09
-1.12643e-08
-5.24301e-09
1.44506e-08
7.20279e-09
-4.71267e-09
-5.90294e-09
-1.46083e-09
2.12063e-09
-4.00219e-09
-7.34596e-09
5.04074e-09
-9.43116e-09
2.9296e-09
-6.91821e-09
7.59504e-09
4.36396e-09
-4.4427e-09
-7.61575e-10
-4.22693e-10
-2.18722e-09
-6.96816e-09
7.20565e-09
-5.35146e-09
-1.12854e-08
-4.7413e-10
-1.15409e-08
-5.22986e-10
3.01631e-10
9.6399e-13
2.32142e-10
-5.27247e-10
4.89844e-11
-4.01367e-11
-1.57424e-10
9.5174e-10
-9.32771e-10
1.42318e-10
-6.57604e-10
-2.51954e-11
2.78696e-10
4.63553e-10
-4.32945e-10
9.18281e-11
8.62978e-10
8.36143e-10
-9.94883e-10
-7.71633e-10
1.99086e-10
-1.97236e-11
6.2544e-10
-3.88796e-10
-3.36989e-11
2.28543e-09
1.8291e-09
-2.23669e-09
-1.87046e-09
2.36099e-10
-4.02525e-10
2.46097e-09
2.15529e-09
-4.06998e-10
2.40495e-09
4.81239e-10
-2.47638e-09
1.06228e-09
-1.9749e-09
5.08658e-10
-1.36857e-09
1.24862e-09
9.44777e-10
-8.7717e-10
1.113e-09
-6.37113e-10
-2.4601e-10
2.88689e-09
2.58395e-09
7.60735e-09
5.58737e-09
1.31217e-08
7.4611e-09
1.37996e-10
-9.02634e-09
8.69506e-09
6.80406e-10
-1.9143e-09
4.94755e-09
6.33144e-09
-1.04419e-08
3.1606e-09
1.28687e-08
-1.07095e-08
-1.89985e-10
4.57593e-10
-1.34096e-09
-8.49885e-09
1.56598e-09
6.95504e-09
-8.38306e-09
-6.98552e-09
9.26025e-09
-1.59434e-09
-6.63006e-09
-6.85226e-10
1.04759e-08
-6.84277e-09
2.27047e-11
6.56937e-09
-6.34437e-09
6.36459e-09
-6.39509e-09
8.9781e-09
-6.80235e-09
7.08446e-09
1.32404e-08
1.33889e-10
-4.0731e-10
-3.03884e-10
3.6489e-09
8.51256e-09
1.07887e-09
8.00309e-09
3.59051e-09
-7.94472e-09
-9.25007e-10
9.42733e-09
-4.99263e-10
9.23136e-09
-1.64382e-09
-6.2846e-10
-7.24244e-09
1.14614e-08
-4.74955e-09
-7.8967e-09
1.20178e-08
-1.40705e-08
1.03997e-08
9.84686e-09
8.79038e-09
-6.94781e-09
-1.16894e-08