/*--------------------------------*- C++ -*----------------------------------*\
| =========                 |                                                 |
| \\      /  F ield         | OpenFOAM: The Open Source CFD Toolbox           |
|  \\    /   O peration     | Version:  v1612+                                |
|   \\  /    A nd           | Web:      www.OpenFOAM.com                      |
|    \\/     M anipulation  |                                                 |
\*---------------------------------------------------------------------------*/
FoamFile
{
    version     2.0;
    format      ascii;
    class       volVectorField;
    location    "50";
    object      U;
}
// * * * * * * * * * * * * * * * * * * * * * * * * * * * * * * * * * * * * * //

dimensions      [0 1 -1 0 0 0 0];

internalField   nonuniform List<vector> 
16902
(
(0.000343531 0.075269 -0.487767)
(0.0676645 0.0402043 -0.390512)
(0.189781 0.336774 -1.01764)
(0.308843 0.0692615 -0.656887)
(0.299136 0.240366 -0.885219)
(0.0741093 0.262296 -0.901507)
(0.0831885 0.247889 -0.913087)
(0.00200134 0.21149 -0.755388)
(0.0805963 0.246709 -0.869937)
(0.0742568 0.265522 -0.913546)
(-0.0582839 0.19948 -0.66066)
(0.0122885 0.231409 -0.770067)
(-0.00360199 0.205201 -0.747633)
(0.01297 0.253836 -0.557063)
(0.0811726 0.257206 -0.819986)
(0.0626907 0.269195 -0.839247)
(0.0260455 0.255518 -0.812318)
(-0.0439751 0.198988 -0.654419)
(-0.0176863 0.216983 -0.630143)
(0.0597332 0.252928 -0.716443)
(-0.0553235 0.194832 -0.519242)
(0.00205376 0.213641 -0.640489)
(0.0433725 0.260631 -0.662894)
(-0.0409573 0.246942 -0.530166)
(-0.0361759 0.219601 -0.566116)
(0.0539755 0.252866 -0.852302)
(0.0792537 0.258755 -0.728031)
(0.243877 0.0551188 -0.75996)
(0.233094 0.0637879 -0.766361)
(0.211511 0.135932 -0.837366)
(0.25438 0.0239113 -0.726394)
(0.285353 0.0556329 -0.732161)
(0.284831 0.0270169 -0.696265)
(0.205975 0.175438 -0.871223)
(0.23471 0.183067 -0.873339)
(0.249923 0.0708319 -0.766814)
(0.32471 0.114346 -0.79242)
(0.336618 0.0797111 -0.753269)
(0.327578 0.112429 -0.791127)
(0.324144 0.12938 -0.811219)
(0.295289 0.115226 -0.792398)
(0.316104 0.0653948 -0.731574)
(0.31062 0.0205164 -0.678165)
(0.180574 0.324705 -1.03687)
(0.256146 0.281411 -0.967388)
(0.236579 0.302298 -0.973853)
(0.250165 0.26371 -0.962893)
(0.211186 0.313517 -1.02597)
(0.350503 0.207381 -0.86654)
(0.307942 0.246797 -0.919915)
(0.353748 0.227202 -0.874854)
(0.361189 0.27421 -0.899357)
(0.300383 0.310748 -0.895763)
(0.367462 0.252117 -0.859524)
(0.312515 0.277879 -0.892635)
(0.327467 0.273802 -0.906899)
(0.376656 0.223801 -0.820974)
(0.017254 0.130276 -0.161004)
(0.0144099 0.12997 -0.153768)
(0.0123621 0.12844 -0.125892)
(0.0230881 0.125739 -0.236894)
(0.0271903 0.129144 -0.253816)
(0.0196485 0.131437 -0.203877)
(0.0244875 0.128593 -0.24962)
(0.0253177 0.135326 -0.263185)
(0.0165254 0.132072 -0.235368)
(0.0116683 0.135206 -0.181613)
(0.0131491 0.13246 -0.191359)
(0.0225717 0.142441 -0.151212)
(0.0198868 0.145633 -0.170365)
(0.016409 0.136847 -0.130859)
(0.00700113 0.129703 -0.13202)
(0.0406769 0.0601386 -0.292104)
(0.0277301 0.0721825 -0.271732)
(0.0460605 0.0651241 -0.270205)
(0.0273935 0.0723983 -0.382947)
(0.0281562 0.0781776 -0.433239)
(0.0280631 0.0727959 -0.249117)
(0.0396212 0.0753449 -0.455486)
(0.0475065 0.0632879 -0.326514)
(0.0580553 0.0538365 -0.310158)
(0.0257436 0.0801805 -0.341776)
(0.0451314 0.0794641 -0.42738)
(0.0298774 0.0730082 -0.273049)
(0.0388786 0.0836102 -0.355561)
(0.125665 0.248247 -0.678533)
(0.134585 0.242582 -0.647729)
(0.173699 0.2822 -0.805373)
(0.180493 0.280965 -0.795024)
(-0.0435135 0.119878 -0.640297)
(-0.0290383 0.0895419 -0.584829)
(-0.0395655 0.154232 -0.753903)
(-0.0306285 0.117569 -0.687818)
(-0.0668979 0.222686 -0.864994)
(-0.0311542 0.167793 -0.835245)
(-0.0090607 0.0522386 -0.576981)
(-0.020485 0.139724 -0.783615)
(0.00817913 0.0828247 -0.696791)
(0.0155006 0.0363975 -0.576759)
(0.161471 0.228943 -0.330038)
(0.170005 0.236757 -0.305666)
(0.195231 0.255986 -0.351663)
(0.18346 0.261614 -0.387377)
(0.124772 0.212228 -0.259313)
(0.14695 0.224726 -0.267941)
(0.125196 0.213233 -0.294527)
(0.163078 0.261325 -0.367092)
(0.112573 0.247611 -0.455816)
(0.109951 0.256902 -0.417977)
(0.139864 0.244315 -0.307771)
(0.0559591 0.21069 -0.390863)
(0.0648868 0.220666 -0.384657)
(0.096455 0.210409 -0.269484)
(0.095358 0.209346 -0.298227)
(0.100268 0.22748 -0.312893)
(-0.00373963 0.307652 -0.689635)
(0.0281345 0.298944 -0.642286)
(0.00936525 0.266925 -0.563074)
(0.0276456 0.298591 -0.618378)
(0.0308082 0.264726 -0.535966)
(-0.0679795 0.348545 -0.793378)
(-0.0852564 0.348369 -0.793614)
(-0.0871147 0.33333 -0.769283)
(-0.0263254 0.253598 -0.576144)
(-0.00127297 0.263134 -0.526066)
(-0.0260039 0.262677 -0.555786)
(0.022954 0.254799 -0.519068)
(0.0116616 0.29604 -0.590392)
(-0.0016847 0.309503 -0.670966)
(0.148739 0.275485 -0.973003)
(0.0775479 0.31492 -1.00322)
(0.0609493 0.336915 -1.04393)
(0.0620295 0.365673 -1.07768)
(0.234238 0.237711 -0.937103)
(0.204245 0.226824 -0.919653)
(0.169519 0.276653 -0.953975)
(0.0629717 0.308595 -0.987621)
(0.0626481 0.346783 -1.06455)
(0.147539 0.322007 -1.01258)
(0.137869 0.316873 -1.00618)
(0.140003 0.318339 -1.02833)
(0.187536 0.292351 -1.00847)
(0.179068 0.264388 -0.966743)
(0.209423 0.293873 -1.01278)
(0.233935 0.26079 -0.967531)
(0.0444581 0.221643 -0.484522)
(-0.0169056 0.237901 -0.62238)
(-0.0114108 0.235983 -0.589684)
(-0.0183784 0.168282 -0.444475)
(-0.0171576 0.210659 -0.514159)
(0.0555833 0.243319 -0.519231)
(-0.0213282 0.232822 -0.600363)
(-0.0111979 0.241795 -0.616469)
(0.0338188 0.231171 -0.531951)
(0.0505525 0.230755 -0.517527)
(0.0138025 0.237515 -0.501969)
(-0.00166272 0.176033 -0.395087)
(0.0172079 0.189735 -0.430877)
(-0.000223905 0.186877 -0.452841)
(0.0144399 0.343342 -0.974468)
(0.0182411 0.338039 -1.04175)
(0.0284777 0.325338 -1.08604)
(0.0369741 0.285957 -0.998868)
(-0.0328019 0.31566 -0.944151)
(-0.0365119 0.324556 -0.929237)
(-0.0244171 0.327268 -0.910252)
(0.0597647 0.293331 -1.05392)
(0.0434976 0.337149 -1.06969)
(0.0265112 0.296587 -0.938671)
(0.0623857 0.277057 -1.0102)
(0.0255945 0.308156 -0.996644)
(0.0735214 0.298237 -1.01673)
(0.0777341 0.299943 -1.05921)
(0.101453 0.331166 -1.12857)
(0.105046 0.330077 -1.16297)
(-0.0115811 0.341969 -1.05439)
(0.0163768 0.33032 -1.00012)
(0.0157999 0.349648 -1.1093)
(0.0563983 0.366645 -1.18278)
(0.0888315 0.319066 -1.08582)
(0.0908004 0.312374 -1.1373)
(0.077411 0.340399 -1.16208)
(-0.119273 0.400512 -1.04522)
(-0.162448 0.447093 -1.14114)
(-0.149647 0.43404 -1.0874)
(-0.187554 0.491398 -1.22602)
(-0.159572 0.413169 -1.04999)
(-0.146566 0.39646 -1.01227)
(-0.199239 0.473546 -1.13272)
(-0.172059 0.432132 -1.04187)
(-0.151551 0.415617 -1.01329)
(-0.180964 0.448429 -1.14844)
(-0.118843 0.404809 -1.06464)
(-0.172131 0.447545 -1.11563)
(-0.182254 0.43647 -1.0647)
(-0.221204 0.481705 -1.17941)
(-0.162139 0.411599 -1.00333)
(-0.191058 0.478055 -1.15117)
(-0.026193 0.184474 -0.940822)
(0.00340186 0.161375 -0.930288)
(-0.0732254 0.306424 -1.07563)
(-0.072587 0.294768 -1.05132)
(-0.109231 0.305332 -1.0568)
(-0.110365 0.334244 -1.09307)
(-0.0767178 0.260103 -1.00185)
(0.000904027 0.19463 -0.974085)
(0.00405705 0.174343 -0.958805)
(-0.0396688 0.204446 -0.935749)
(-0.011937 0.189264 -0.913737)
(-0.0658501 0.280237 -1.05173)
(-0.0585913 0.287889 -1.06459)
(-0.0658073 0.274282 -1.03881)
(-0.0708944 0.317783 -1.11402)
(-0.0487453 0.179784 -0.445612)
(-0.0516436 0.192542 -0.446664)
(-0.0504368 0.200599 -0.400326)
(-0.0447321 0.14722 -0.342632)
(-0.0298258 0.142444 -0.431938)
(-0.0338246 0.133791 -0.325928)
(-0.0583357 0.180112 -0.51688)
(-0.0500108 0.215772 -0.536554)
(-0.0453789 0.179877 -0.463642)
(-0.0344143 0.12918 -0.390161)
(-0.0181137 0.164559 -0.553003)
(-0.0256653 0.173135 -0.584716)
(0.0207569 0.29227 -0.604936)
(0.0448567 0.257827 -0.5202)
(0.126902 0.382133 -1.20995)
(0.119564 0.369308 -1.1872)
(0.0887971 0.388804 -1.1637)
(0.182158 0.401561 -1.16936)
(0.214555 0.379979 -1.12273)
(0.17641 0.370464 -1.12401)
(0.0889036 0.378249 -1.18734)
(0.0298238 0.398766 -1.16322)
(0.155842 0.389262 -1.21749)
(0.185422 0.396408 -1.19236)
(0.15796 0.374614 -1.15779)
(0.20208 0.380864 -1.14569)
(0.240552 0.382754 -1.11299)
(0.203648 0.381054 -1.14595)
(0.210159 0.398921 -1.14175)
(0.0609085 0.38154 -1.20839)
(0.143612 0.397945 -1.21952)
(0.197125 0.414853 -1.23103)
(0.130302 0.38854 -1.16862)
(0.229742 0.380425 -1.13626)
(0.120038 0.381465 -1.16179)
(0.15984 0.383406 -1.17975)
(0.222831 0.293056 -0.652631)
(0.165682 0.282291 -0.56475)
(0.340935 0.25873 -0.689315)
(0.381304 0.235093 -0.649735)
(0.206889 0.282928 -0.570624)
(0.15183 0.272828 -0.547094)
(0.206994 0.297967 -0.608654)
(0.359574 0.293181 -0.521709)
(0.364985 0.296783 -0.53213)
(0.42079 0.279402 -0.497704)
(0.277825 0.27358 -0.650143)
(0.348005 0.253026 -0.631065)
(0.341879 0.292489 -0.502011)
(0.270631 0.305635 -0.515967)
(0.332553 0.28501 -0.4805)
(0.397007 0.276918 -0.450609)
(0.355046 0.286885 -0.55113)
(0.126945 0.30332 -0.552524)
(0.111437 0.308457 -0.453722)
(0.107981 0.298476 -0.6487)
(0.175908 0.339448 -0.519801)
(0.0977771 0.321151 -0.538006)
(-0.00879674 0.225153 -0.403143)
(0.00831107 0.269213 -0.376925)
(0.0599501 0.319967 -0.440511)
(0.0833203 0.315251 -0.463487)
(-0.0155448 0.193506 -0.474014)
(-0.0168631 0.224529 -0.37422)
(0.0235402 0.228405 -0.574618)
(0.297547 0.422151 -1.11735)
(0.29548 0.430551 -1.12035)
(0.201084 0.391348 -1.23003)
(0.16327 0.403134 -1.2245)
(0.215884 0.401022 -1.24209)
(0.217171 0.391677 -1.24381)
(0.168285 0.390749 -1.17762)
(0.193174 0.395363 -1.22207)
(0.25128 0.422907 -1.19266)
(0.236476 0.423502 -1.19962)
(0.170463 0.425016 -1.21728)
(0.201885 0.412859 -1.23337)
(0.240261 0.424634 -1.16947)
(0.27088 0.432245 -1.15107)
(0.246956 0.434664 -1.18167)
(0.275425 0.413935 -1.14368)
(0.219648 0.413276 -1.24908)
(0.22394 0.400336 -1.20395)
(0.203097 0.422101 -1.23063)
(0.235087 0.347492 -0.273959)
(0.226281 0.362978 -0.268941)
(0.23598 0.337134 -0.234549)
(0.160235 0.323126 -0.193539)
(0.191985 0.308144 -0.168088)
(0.21741 0.317192 -0.219186)
(0.212664 0.311581 -0.192473)
(0.20471 0.351083 -0.383597)
(0.212408 0.364429 -0.375377)
(0.216877 0.358621 -0.365948)
(0.208936 0.32511 -0.20173)
(0.171444 0.339461 -0.221636)
(0.170552 0.325525 -0.215303)
(0.198636 0.352494 -0.310034)
(0.169476 0.346602 -0.306278)
(0.198726 0.218843 -0.645938)
(0.243291 0.200003 -0.580875)
(0.171776 0.231289 -0.665181)
(0.219652 0.212449 -0.560357)
(0.214943 0.220164 -0.646818)
(0.23613 0.205448 -0.670273)
(0.29826 0.170258 -0.458561)
(0.295284 0.188258 -0.485518)
(0.296716 0.167944 -0.553907)
(0.277527 0.191374 -0.564222)
(0.274641 0.174071 -0.49689)
(0.305777 0.140845 -0.432233)
(0.313546 0.145752 -0.519085)
(0.318567 0.126482 -0.45453)
(0.203903 0.20925 -0.647271)
(0.208295 0.209812 -0.652788)
(0.252203 0.195172 -0.626856)
(0.312704 0.18264 -0.496893)
(0.330878 0.139441 -0.570753)
(0.327303 0.1357 -0.520395)
(0.234212 0.201081 -0.665323)
(0.331353 0.144172 -0.533863)
(0.355099 0.223754 -0.886587)
(0.363421 0.211156 -0.869828)
(0.301443 0.27651 -0.975308)
(0.377709 0.152217 -0.80987)
(0.381401 0.183997 -0.852489)
(0.284073 0.255347 -0.966428)
(0.376947 0.21935 -0.88413)
(0.372663 0.251701 -0.893268)
(0.36061 0.249623 -0.91708)
(0.392926 0.209338 -0.856117)
(0.377042 0.204904 -0.877416)
(0.154799 0.406768 -0.785134)
(0.156141 0.431628 -0.82939)
(0.130703 0.401565 -0.723922)
(0.143747 0.413883 -0.778761)
(0.198981 0.400153 -0.88951)
(0.206603 0.399932 -0.917196)
(0.18675 0.373605 -0.852902)
(0.163714 0.375055 -0.78856)
(0.184971 0.431091 -0.898751)
(0.162994 0.436291 -0.841824)
(0.127004 0.422438 -0.774743)
(0.142995 0.402098 -0.748444)
(0.187841 0.453702 -0.932017)
(0.204479 0.421783 -0.939578)
(0.207992 0.431738 -0.978363)
(0.172054 0.395409 -0.826493)
(0.200171 0.440086 -0.967153)
(0.193392 0.431053 -0.925255)
(0.181623 0.368447 -0.835396)
(0.156143 0.382169 -0.772177)
(0.199184 0.42514 -0.966721)
(0.198574 0.404438 -0.914012)
(0.174165 0.38615 -0.808642)
(0.169323 0.39268 -0.802057)
(0.158254 0.369176 -0.349178)
(0.152201 0.367067 -0.307637)
(0.152165 0.360955 -0.213842)
(0.145008 0.3546 -0.225693)
(0.181838 0.327207 -0.153498)
(0.138042 0.326537 -0.175946)
(0.071201 0.341873 -0.302352)
(0.0972454 0.363845 -0.320234)
(0.14078 0.36084 -0.297133)
(0.0880511 0.330904 -0.269079)
(0.0718736 0.329531 -0.263322)
(0.13778 0.357857 -0.179589)
(0.117616 0.321951 -0.153049)
(0.152946 0.356117 -0.19825)
(0.128822 0.333339 -0.177616)
(0.127833 0.326738 -0.162739)
(0.0930459 0.357466 -0.207229)
(0.0720567 0.329845 -0.186625)
(0.0974987 0.326764 -0.180965)
(0.071791 0.323669 -0.196502)
(0.249444 0.244054 -0.561081)
(0.240132 0.232796 -0.474136)
(0.0885401 0.257863 -0.625582)
(0.0747296 0.25344 -0.647771)
(0.172878 0.243883 -0.512193)
(0.1272 0.254891 -0.653359)
(0.0905033 0.250852 -0.58146)
(0.0918781 0.246808 -0.603752)
(0.166903 0.247572 -0.655511)
(0.140753 0.248268 -0.653971)
(0.174601 0.244235 -0.613463)
(0.240015 0.240906 -0.561438)
(0.224887 0.233237 -0.495065)
(0.188934 0.233235 -0.497422)
(0.218967 0.240337 -0.587631)
(0.144709 0.25212 -0.580322)
(0.436376 0.190186 -0.508755)
(0.428595 0.178026 -0.540161)
(0.413231 0.181505 -0.501803)
(0.419436 0.170074 -0.5808)
(0.405436 0.17323 -0.523685)
(0.439381 0.195237 -0.559987)
(0.447688 0.194328 -0.529248)
(0.42493 0.199419 -0.501303)
(0.416485 0.180742 -0.607581)
(0.428563 0.203913 -0.678503)
(0.42187 0.214347 -0.701497)
(0.425881 0.21288 -0.671684)
(0.456579 0.215326 -0.537735)
(0.420947 0.219433 -0.579197)
(0.425033 0.204864 -0.615267)
(0.411538 0.235455 -0.655995)
(0.424924 0.259565 -0.66602)
(0.434312 0.243836 -0.591183)
(0.426509 0.241935 -0.646497)
(0.418587 0.238793 -0.643681)
(0.148023 0.317796 -1.02441)
(0.160877 0.3032 -1.02666)
(0.123953 0.329111 -1.02823)
(0.193551 0.301308 -0.926892)
(0.219516 0.323154 -1.0482)
(0.0468128 0.302569 -0.894361)
(0.0768784 0.285962 -0.930716)
(0.146621 0.287928 -0.9521)
(0.175714 0.288859 -0.878596)
(0.140914 0.284391 -0.828687)
(0.200213 0.301136 -0.957499)
(-0.0258736 0.30699 -0.898846)
(-0.036251 0.347794 -0.994657)
(-0.0628939 0.346577 -0.978473)
(-0.0624783 0.297601 -0.866051)
(-0.0473526 0.350616 -1.08141)
(-0.0401778 0.345499 -1.05115)
(-0.0444587 0.305769 -0.867623)
(-0.0469296 0.352262 -1.01854)
(-0.0615357 0.314033 -0.879969)
(-0.0400633 0.36202 -1.06394)
(-0.0418035 0.31761 -0.92701)
(-0.0508738 0.289156 -0.84653)
(-0.04884 0.329558 -0.948041)
(-0.0441984 0.294459 -0.854756)
(-0.0568352 0.279707 -0.78717)
(-0.0431125 0.319447 -0.871155)
(0.0277152 0.282692 -0.707996)
(0.0203855 0.285327 -0.736122)
(0.00337495 0.295979 -0.799656)
(-0.0079641 0.297493 -0.771508)
(0.0708945 0.260447 -0.681866)
(0.0987215 0.267174 -0.645381)
(0.0522265 0.264765 -0.656384)
(0.014603 0.292367 -0.841278)
(0.0455848 0.269032 -0.826199)
(-0.0100777 0.292257 -0.857026)
(0.0579066 0.267131 -0.783764)
(0.0938576 0.257133 -0.647457)
(0.0319291 0.260329 -0.654215)
(0.0872393 0.255841 -0.72345)
(0.00435375 0.296543 -0.828944)
(0.0628777 0.270769 -0.793574)
(0.013307 0.297561 -0.75328)
(0.109253 0.263355 -0.656307)
(0.00936451 0.309627 -0.772492)
(0.0651766 0.271413 -0.711224)
(0.269202 0.315286 -0.70537)
(0.160202 0.280587 -0.776701)
(0.211536 0.305909 -0.699652)
(0.373039 0.282284 -0.828832)
(0.359976 0.284516 -0.862755)
(0.216151 0.277338 -0.930742)
(0.309642 0.271923 -0.949863)
(0.32452 0.292007 -0.770275)
(0.175918 0.287503 -0.826792)
(0.318284 0.287771 -0.884322)
(0.336605 0.289826 -0.853773)
(0.301579 0.30202 -0.989872)
(0.316586 0.280001 -0.959343)
(0.349543 0.265429 -0.874847)
(0.253384 0.295748 -0.778342)
(0.309861 0.309869 -0.747462)
(0.351549 0.253499 -0.867347)
(0.232395 0.312427 -0.942158)
(0.373435 0.312637 -0.753463)
(0.361074 0.283935 -0.853945)
(0.304586 0.236679 -0.554201)
(0.281762 0.245769 -0.577349)
(0.147219 0.257433 -0.73384)
(0.207091 0.24516 -0.738548)
(0.167123 0.264143 -0.641673)
(0.286392 0.224096 -0.585723)
(0.284139 0.221894 -0.676287)
(0.122726 0.263632 -0.766672)
(0.220648 0.22936 -0.743426)
(0.310027 0.206834 -0.668959)
(0.168226 0.250492 -0.719568)
(0.262153 0.227398 -0.666439)
(0.189199 0.312899 -0.987283)
(0.142039 0.296906 -0.995916)
(0.130585 0.273065 -0.941392)
(0.159658 0.290979 -0.954674)
(0.196723 0.351831 -1.06256)
(0.152275 0.302541 -1.01252)
(0.201824 0.359155 -1.12451)
(0.173342 0.340592 -1.1152)
(0.20153 0.378598 -1.11997)
(0.172542 0.350338 -1.13577)
(0.159499 0.325568 -1.06689)
(0.139923 0.329849 -1.06626)
(0.192133 0.349468 -1.02901)
(0.203622 0.332183 -1.00094)
(0.151018 0.311482 -0.99969)
(0.183793 0.326957 -1.00314)
(0.225699 0.409186 -1.12621)
(0.203656 0.385478 -1.14424)
(0.194903 0.375631 -1.12094)
(0.22559 0.41727 -1.18524)
(0.224076 0.400935 -1.11032)
(0.188281 0.402574 -0.881265)
(0.199749 0.39431 -0.848259)
(0.238062 0.384424 -0.976789)
(0.224029 0.408951 -0.977753)
(0.206161 0.401853 -0.934127)
(0.237249 0.374638 -0.913513)
(0.215428 0.371864 -0.884016)
(0.244245 0.358437 -0.934704)
(0.213841 0.357927 -0.859583)
(0.248092 0.40673 -1.0524)
(0.248036 0.390523 -1.01195)
(0.254822 0.397996 -1.01203)
(0.264081 0.380863 -1.00161)
(0.266151 0.367781 -1.01272)
(0.248895 0.371898 -0.935058)
(0.253078 0.348281 -0.927308)
(0.0173161 0.141027 -0.531154)
(0.0188491 0.130731 -0.508869)
(-0.020816 0.132417 -0.270597)
(0.0190091 0.118131 -0.28034)
(-0.0180836 0.132432 -0.384302)
(-0.0122136 0.126998 -0.438007)
(-0.0146499 0.132018 -0.239698)
(0.0500448 0.1369 -0.435369)
(0.0458341 0.136242 -0.483241)
(0.0408427 0.122494 -0.437518)
(-0.00785392 0.133617 -0.340244)
(0.0309923 0.138336 -0.392231)
(0.0346998 0.126574 -0.317268)
(-0.0469056 0.240456 -0.21555)
(-0.0417411 0.266499 -0.18737)
(-0.0142184 0.233259 -0.357803)
(-0.0414528 0.191929 -0.311617)
(-0.0441033 0.24328 -0.201879)
(-0.0432853 0.255244 -0.179125)
(-0.151715 0.357822 -1.04477)
(-0.149462 0.369219 -1.06969)
(-0.126601 0.317887 -0.990825)
(-0.200925 0.445503 -1.14166)
(-0.200527 0.426431 -1.13835)
(-0.156189 0.358104 -0.97089)
(-0.167516 0.416967 -1.09409)
(-0.188857 0.426031 -1.12952)
(-0.18952 0.418032 -1.08884)
(-0.0265635 0.223117 -0.591656)
(-0.00994238 0.211954 -0.52858)
(-0.0210786 0.188003 -0.508032)
(-0.0166071 0.176129 -0.485192)
(-0.0192234 0.147443 -0.462351)
(-0.0266076 0.260639 -0.658342)
(-0.0455443 0.276271 -0.712015)
(-0.0516478 0.286855 -0.718697)
(-0.0179331 0.157012 -0.48302)
(-0.0519469 0.246139 -0.647245)
(-0.0796945 0.303315 -0.787168)
(-0.0319935 0.197298 -0.549808)
(-0.0367316 0.1767 -0.575721)
(-0.0349931 0.192102 -0.579399)
(-0.0681727 0.26151 -0.699578)
(-0.0679738 0.276766 -0.752247)
(-0.0421033 0.196366 -0.58735)
(-0.0631366 0.237414 -0.689717)
(-0.0761282 0.206927 -0.801885)
(-0.081938 0.227387 -0.823399)
(-0.0480497 0.0989545 -0.630892)
(-0.0770011 0.197302 -0.801945)
(-0.0578718 0.0963968 -0.587169)
(-0.025074 0.0711762 -0.592603)
(-0.0248875 0.0632329 -0.544402)
(-0.0887201 0.221572 -0.753183)
(-0.085185 0.227771 -0.789476)
(-0.0633814 0.128645 -0.594279)
(-0.0155945 0.0838216 -0.521806)
(-0.0506111 0.193715 -0.804681)
(-0.0510302 0.115689 -0.561131)
(-0.0725383 0.164333 -0.640066)
(0.414701 0.198643 -0.528133)
(0.412149 0.197795 -0.47646)
(0.42758 0.23487 -0.446436)
(0.419062 0.222957 -0.400629)
(0.431481 0.264501 -0.634929)
(0.441296 0.260347 -0.646851)
(0.399748 0.202791 -0.416187)
(0.422311 0.229164 -0.557785)
(0.428511 0.257027 -0.50067)
(0.41916 0.221609 -0.453843)
(0.409953 0.0475794 -0.798423)
(0.437565 0.0421496 -0.701591)
(0.440566 0.0525034 -0.743683)
(0.427252 0.0850884 -0.688856)
(0.416391 0.0387907 -0.762061)
(0.367817 0.0412748 -0.821955)
(0.419648 0.0788352 -0.697371)
(0.429105 0.0731382 -0.694684)
(0.312371 0.121706 -0.877474)
(0.326749 0.106443 -0.89852)
(0.340417 0.0920207 -0.938576)
(0.286932 0.142444 -1.00219)
(0.378305 0.0511983 -0.839425)
(0.383615 0.153816 -0.762354)
(0.228282 0.19602 -0.926203)
(0.283628 0.196714 -0.802276)
(0.350685 0.127617 -0.860566)
(0.309505 0.160763 -0.949607)
(0.274008 0.206203 -0.948379)
(0.334908 0.165806 -0.821829)
(0.312846 0.156586 -0.865088)
(0.238259 0.178527 -0.962929)
(0.248273 0.192757 -0.880592)
(0.307249 0.360877 -0.759524)
(0.29977 0.374683 -0.799162)
(0.312907 0.34458 -0.708966)
(0.31774 0.32622 -0.671557)
(0.280944 0.37337 -0.883244)
(0.279886 0.385417 -0.877495)
(0.296787 0.334025 -0.720364)
(0.318557 0.349952 -0.737841)
(0.317076 0.317888 -0.714229)
(0.276563 0.365016 -0.879884)
(0.298799 0.347032 -0.904307)
(0.300351 0.354632 -0.914739)
(0.299998 0.349618 -0.901654)
(0.293473 0.352341 -0.864364)
(0.0111349 0.0691944 -0.71952)
(0.0113081 0.0424646 -0.639925)
(0.0319111 0.0622208 -0.73636)
(0.0459732 0.0412115 -0.692644)
(0.0279506 0.0163392 -0.607037)
(-0.00738889 0.0996588 -0.717273)
(0.00196735 0.0337021 -0.598325)
(-0.0352561 0.160266 -0.793878)
(-0.0453014 0.156067 -0.785999)
(0.0300146 0.100398 -0.784074)
(0.0347279 0.0565029 -0.736601)
(-0.0606067 0.205776 -0.844814)
(-0.0492307 0.167962 -0.797405)
(0.0213716 0.0213078 -0.653398)
(-0.0309394 0.121561 -0.755294)
(0.0226787 0.010601 -0.580853)
(-0.00539954 0.0352828 -0.593191)
(-0.0356678 0.166395 -0.841179)
(-0.0246525 0.159783 -0.86494)
(0.0108889 0.0360739 -0.672293)
(-0.0265943 0.0749044 -0.716959)
(-0.0341544 0.114525 -0.691212)
(0.229608 0.187823 -0.854711)
(0.282724 0.123393 -0.82393)
(0.2395 0.120315 -0.915399)
(0.280942 0.0965988 -0.857577)
(0.142797 0.210377 -0.885258)
(0.172844 0.206499 -0.873312)
(0.291705 0.143628 -0.807189)
(0.2668 0.135892 -0.882584)
(0.165851 0.19591 -0.893378)
(0.159993 0.194188 -0.879274)
(0.244881 0.161035 -0.867904)
(-0.00968421 0.315471 -1.16184)
(0.0124681 0.320403 -1.18803)
(0.00426364 0.330967 -1.30491)
(0.00916297 0.32231 -1.21773)
(0.00683111 0.210712 -1.11839)
(0.0497073 0.199253 -1.13328)
(-0.0382649 0.328658 -1.21807)
(0.0360119 0.2384 -1.17364)
(0.0378136 0.257849 -1.16564)
(0.042755 0.240014 -1.17942)
(0.00421618 0.229274 -1.12323)
(0.0227855 0.268486 -1.14275)
(-0.0502358 0.304086 -1.22706)
(-0.0026298 0.248885 -1.15751)
(0.199579 0.243219 -0.948311)
(0.178421 0.228294 -0.920597)
(0.166743 0.225974 -0.92244)
(0.300266 0.200324 -0.855057)
(0.292442 0.160625 -0.833024)
(0.324506 0.180287 -0.851045)
(0.352082 0.153752 -0.80683)
(0.306901 0.122921 -0.795682)
(0.34671 0.107708 -0.770009)
(0.319761 0.204229 -0.882431)
(0.342041 0.183292 -0.8484)
(0.321404 0.188257 -0.86171)
(0.0990267 0.155459 -0.183169)
(0.101636 0.157169 -0.163535)
(0.115058 0.172376 -0.189277)
(0.109406 0.179115 -0.216504)
(0.118923 0.20495 -0.283233)
(0.0844164 0.195381 -0.297979)
(0.0719148 0.146629 -0.158768)
(0.0882661 0.145025 -0.144729)
(0.0774694 0.149327 -0.175226)
(0.119904 0.187346 -0.204189)
(0.0721771 0.178137 -0.227904)
(0.0545184 0.165236 -0.235933)
(0.0994212 0.168413 -0.168318)
(0.0796509 0.162088 -0.166357)
(0.00150966 0.241056 -0.241022)
(0.0273249 0.284924 -0.283607)
(0.0667857 0.30093 -0.176248)
(0.0237226 0.276848 -0.289285)
(-0.012322 0.203914 -0.245502)
(-0.0103217 0.230951 -0.278113)
(0.0393214 0.281967 -0.174006)
(0.0775281 0.295207 -0.174696)
(0.0667207 0.269521 -0.150929)
(0.0365469 0.249985 -0.151113)
(0.0559358 0.250117 -0.140736)
(0.0609698 0.309188 -0.283555)
(0.00233672 0.209955 -0.214573)
(0.0210688 0.22957 -0.253372)
(0.0332544 0.237752 -0.158401)
(0.0512518 0.252758 -0.159736)
(0.0538934 0.288323 -0.227738)
(0.0550979 0.287699 -0.192381)
(0.181745 0.153211 -0.631552)
(0.225472 0.170584 -0.685916)
(0.186117 0.159241 -0.739523)
(0.149212 0.161484 -0.704236)
(0.155873 0.140656 -0.634845)
(0.177373 0.158569 -0.646543)
(0.195262 0.168236 -0.646513)
(0.162478 0.164178 -0.751693)
(0.202458 0.18868 -0.841791)
(0.22189 0.198437 -0.811918)
(0.210456 0.223515 -0.798634)
(0.188052 0.176109 -0.827272)
(0.214613 0.224935 -0.861789)
(0.166111 0.192365 -0.832779)
(0.231336 0.211595 -0.798184)
(0.244204 0.235615 -0.867203)
(0.023757 0.113889 -0.231007)
(0.0226252 0.119811 -0.220788)
(0.069031 0.114659 -0.391049)
(0.0612665 0.10727 -0.320455)
(0.0331029 0.1043 -0.237327)
(0.0361462 0.10881 -0.216993)
(0.0641251 0.111474 -0.34548)
(0.0554959 0.113211 -0.25296)
(0.0211356 0.129072 -0.247247)
(0.0480347 0.104239 -0.30882)
(0.0538031 0.100933 -0.388695)
(0.0434818 0.107026 -0.525757)
(0.0776223 0.110805 -0.543486)
(0.0432398 0.11123 -0.52172)
(0.0391067 0.112758 -0.488106)
(0.0663663 0.125597 -0.466696)
(0.0413016 0.125982 -0.458515)
(0.0272796 0.130904 -0.299428)
(0.0262053 0.122211 -0.310057)
(0.0510259 0.116166 -0.335134)
(0.0357566 0.102401 -0.273377)
(0.0304434 0.11108 -0.367603)
(0.027955 0.107799 -0.355643)
(0.0835627 0.111478 -0.510931)
(0.262514 0.0945899 -1.01411)
(0.261818 0.116903 -1.05465)
(0.240027 0.162079 -1.10152)
(0.235966 0.180524 -1.12412)
(0.271542 0.107728 -1.0156)
(0.269688 0.102808 -0.991298)
(0.25257 0.119108 -1.04483)
(0.230953 0.237419 -1.17615)
(0.224634 0.187007 -1.1011)
(0.220233 0.208794 -1.13189)
(0.209119 0.177999 -1.04948)
(0.25176 0.158528 -1.0745)
(0.250649 0.116547 -1.04034)
(0.244317 0.171051 -1.05664)
(0.259576 0.140661 -0.994598)
(0.260122 0.120386 -1.02249)
(0.163384 0.325278 -0.555622)
(0.189846 0.339562 -0.547212)
(0.196933 0.358901 -0.465824)
(0.181395 0.370724 -0.421487)
(0.182044 0.391689 -0.279985)
(0.207497 0.39832 -0.300511)
(0.180777 0.412619 -0.304229)
(0.169097 0.412835 -0.29791)
(0.156695 0.321845 -0.590155)
(0.101859 0.298674 -0.585907)
(0.22028 0.398445 -0.401119)
(0.148901 0.387631 -0.273569)
(0.209116 0.387413 -0.207009)
(0.129117 0.384733 -0.377496)
(0.096599 0.381895 -0.369538)
(0.193472 0.3557 -0.498306)
(0.0865287 0.357352 -0.390336)
(0.109342 0.401985 -0.250863)
(0.0642662 0.356667 -0.335714)
(0.130251 0.373985 -0.368535)
(0.128311 0.404523 -0.21064)
(0.0481172 0.378361 -0.225206)
(0.045404 0.363898 -0.268235)
(0.0797144 0.376165 -0.264067)
(0.074398 0.379222 -0.204078)
(0.079547 0.38381 -0.159731)
(0.109829 0.392785 -0.184727)
(0.243742 0.36056 -0.892346)
(0.24335 0.328675 -0.846952)
(0.217671 0.313738 -0.866821)
(0.21688 0.310204 -0.829507)
(0.320094 0.297085 -0.775124)
(0.326427 0.304077 -0.765136)
(0.2921 0.258319 -0.59178)
(0.302384 0.277267 -0.652962)
(0.29965 0.247152 -0.606573)
(0.287924 0.246343 -0.565055)
(0.349805 0.299493 -0.680122)
(0.322706 0.308138 -0.702382)
(0.325781 0.260384 -0.640752)
(0.333421 0.245924 -0.567758)
(0.307224 0.239372 -0.527989)
(0.350517 0.279253 -0.706915)
(0.351099 0.282825 -0.594941)
(0.324178 0.259059 -0.564517)
(0.362716 0.304562 -0.681264)
(0.0854645 0.255153 -0.728401)
(0.0599721 0.252567 -0.779487)
(0.202425 0.164203 -0.539136)
(0.083612 0.235991 -0.680742)
(0.177337 0.16115 -0.622689)
(0.154092 0.207856 -0.587762)
(0.260577 0.389191 -0.455006)
(0.279013 0.380069 -0.462874)
(0.266144 0.361147 -0.270758)
(0.275001 0.391827 -0.349494)
(0.26955 0.37433 -0.319824)
(0.262853 0.359653 -0.279309)
(0.304067 0.382998 -0.521138)
(0.297279 0.370549 -0.535021)
(0.287322 0.361653 -0.521385)
(0.264253 0.383341 -0.34218)
(0.262657 0.389072 -0.40605)
(0.287393 0.376718 -0.365864)
(0.317654 0.345807 -0.427982)
(0.311065 0.347926 -0.457397)
(0.287071 0.361019 -0.336497)
(0.293666 0.349996 -0.332362)
(0.300489 0.362276 -0.425844)
(0.318021 0.352028 -0.362685)
(0.303073 0.346859 -0.354807)
(0.0153661 0.355296 -0.916148)
(0.03838 0.360053 -0.940447)
(-0.0301319 0.393487 -0.999441)
(-0.0542871 0.407485 -1.10473)
(0.0627326 0.319365 -0.823144)
(0.0635909 0.351064 -0.896822)
(0.0915713 0.303207 -0.76061)
(0.118741 0.314442 -0.761819)
(0.0994801 0.321059 -0.823034)
(0.043401 0.372749 -1.03392)
(0.116241 0.369465 -0.893168)
(0.0230251 0.381726 -1.00225)
(0.0119709 0.370507 -0.992018)
(-0.00520092 0.374667 -1.0202)
(0.0916672 0.321437 -0.803219)
(0.139437 0.285879 -0.726057)
(0.154056 0.30782 -0.79107)
(0.17053 0.291946 -0.744926)
(0.0194397 0.371557 -1.02232)
(0.0245903 0.382242 -1.02658)
(0.108911 0.355578 -0.903373)
(0.220102 0.420885 -0.800545)
(0.196144 0.405639 -0.733003)
(0.189292 0.410494 -0.751226)
(0.196575 0.431352 -0.899067)
(0.173365 0.426913 -0.884139)
(0.182506 0.444947 -0.887082)
(0.200153 0.395952 -0.252964)
(0.166605 0.27533 -0.585109)
(0.166033 0.27694 -0.615057)
(0.202374 0.300075 -0.667382)
(0.000651161 0.199777 -0.237991)
(-0.00106053 0.192755 -0.198048)
(-0.00274423 0.207802 -0.197903)
(-0.00247752 0.210845 -0.228479)
(0.23115 0.293032 -0.628828)
(0.193507 0.285979 -0.631237)
(0.229388 0.27874 -0.633423)
(0.18331 0.316364 -0.745907)
(0.182243 0.329585 -0.779705)
(0.194497 0.320152 -0.781493)
(0.211516 0.333877 -0.823325)
(-0.00568971 0.242151 -0.141457)
(0.000761719 0.263979 -0.153758)
(0.249106 0.359773 -0.240508)
(0.234421 0.373372 -0.214911)
(0.256726 0.437743 -1.01915)
(0.24857 0.444044 -0.967195)
(0.241268 0.430454 -0.988565)
(0.163314 0.222872 -0.572292)
(0.141435 0.204252 -0.532412)
(0.347524 0.226889 -0.601829)
(0.315421 0.216911 -0.628435)
(0.228513 0.293286 -0.903095)
(0.236255 0.272937 -0.889732)
(0.0351791 0.136977 -0.255673)
(0.0417906 0.147997 -0.284107)
(0.0471 0.138931 -0.352754)
(0.25874 0.234597 -0.686315)
(0.264047 0.221145 -0.707296)
(0.225638 0.212769 -0.635289)
(0.166988 0.332751 -0.19897)
(0.117397 0.295349 -0.160683)
(0.102729 0.291829 -0.142098)
(0.250407 0.341906 -1.06891)
(0.256882 0.356656 -1.10184)
(0.249788 0.383499 -1.08526)
(0.357706 0.167964 -0.694789)
(0.377807 0.151138 -0.638991)
(0.378156 0.162869 -0.700022)
(0.0216863 0.145616 -0.118506)
(0.0166758 0.114047 -0.0998507)
(0.0202286 0.129298 -0.101546)
(0.15836 0.114422 -0.519945)
(0.133728 0.120197 -0.463154)
(0.138989 0.0991901 -0.50098)
(0.310428 0.130327 -0.901409)
(0.29235 0.155297 -0.909364)
(0.282531 0.176043 -0.68096)
(0.289309 0.184963 -0.70807)
(0.249658 0.286022 -0.232932)
(0.23389 0.270268 -0.204676)
(0.20753 0.268558 -0.188295)
(0.414469 0.0963656 -0.720797)
(0.428167 0.0992484 -0.661958)
(0.343739 0.411971 -1.03542)
(0.328252 0.432869 -1.09475)
(0.337837 0.421808 -1.04106)
(0.317076 0.431689 -1.07831)
(0.119545 0.0488689 -0.481979)
(0.0874738 0.068205 -0.354799)
(0.10996 0.0680321 -0.406339)
(0.279722 0.109698 -0.997746)
(0.303304 0.0794027 -0.956624)
(0.0626719 0.152158 -0.12318)
(0.0892903 0.182727 -0.151886)
(0.0781747 0.168805 -0.132865)
(0.42361 0.182797 -0.396309)