/*--------------------------------*- C++ -*----------------------------------*\
| =========                 |                                                 |
| \\      /  F ield         | OpenFOAM: The Open Source CFD Toolbox           |
|  \\    /   O peration     | Version:  v1612+                                |
|   \\  /    A nd           | Web:      www.OpenFOAM.com                      |
|    \\/     M anipulation  |                                                 |
\*---------------------------------------------------------------------------*/
FoamFile
{
    version     2.0;
    format      ascii;
    class       volVectorField;
    location    "239";
    object      wallShearStress;
}
// * * * * * * * * * * * * * * * * * * * * * * * * * * * * * * * * * * * * * //

dimensions      [0 2 -2 0 0 0 0];

internalField   uniform (0 0 0);

boundaryField
{
    WALL
    {
        type            calculated;
        value           nonuniform List<vector> 
1533
(
(0.0137547 -0.0205624 -0.0240991)
(0.0135802 -0.0212687 -0.0238576)
(0.000575473 -0.00331317 -0.00548027)
(0.0066846 -0.0301759 -0.024442)
(0.00738795 -0.0276539 -0.0259365)
(0.000305739 -0.00232837 -0.00295885)
(0.00252221 -0.00277847 -0.00283851)
(0.00478305 -0.00416287 -0.00486776)
(0.0110695 -0.0190238 -0.0212297)
(0.00978106 -0.0181252 -0.0199483)
(0.0335324 -0.0282565 -0.034047)
(0.00998137 -0.00304444 -0.00743186)
(0.016745 -0.00340037 -0.0167984)
(0.00205401 -0.00391322 -0.00472277)
(0.00228218 -0.00428789 -0.00509588)
(0.0154803 -0.00470587 -0.0158297)
(0.00808714 -0.00417648 -0.00790197)
(-0.00142021 0.00316922 0.00155337)
(0.0147396 -0.019945 -0.018955)
(0.0188902 -0.022172 -0.0235303)
(0.00770771 -0.0271743 -0.028218)
(0.00676005 -0.0239913 -0.0305881)
(0.00695311 -0.0252924 -0.0296484)
(0.00896679 -0.0248881 -0.0301896)
(0.00676579 -0.0252117 -0.027667)
(0.00891446 -0.0246339 -0.0319049)
(0.0133705 -0.0134839 -0.0206566)
(0.0131338 -0.0126692 -0.0236673)
(0.0116995 -0.0109572 -0.0224534)
(0.0123456 -0.0125575 -0.0217205)
(0.0141469 -0.0136982 -0.0229821)
(0.0132687 -0.0184838 -0.0175671)
(0.0119085 -0.0195618 -0.0170094)
(0.0122567 -0.0172998 -0.0171624)
(0.0132631 -0.0194533 -0.0180558)
(0.0133701 -0.0180325 -0.0188958)
(0.0121232 -0.0198424 -0.0179557)
(0.0219641 -0.0170237 -0.0418579)
(0.021809 -0.0109262 -0.0377836)
(0.0197218 -0.0177563 -0.037796)
(0.0223368 -0.0129924 -0.0397902)
(0.0187761 -0.0144249 -0.0350393)
(0.0186014 -0.0110649 -0.0334202)
(-0.00196403 0.00148495 0.00107438)
(-0.00116757 0.000218933 0.000529992)
(-0.00106406 0.000661478 0.000597199)
(-0.00263193 0.00140736 0.0010848)
(-0.00197346 0.000577532 0.00077186)
(-0.0023029 0.000983437 0.00094489)
(0.01871 -0.0104612 -0.0443416)
(0.0214559 -0.0087348 -0.0493929)
(0.0165586 -0.0144051 -0.0454635)
(0.0166319 -0.0164677 -0.0450886)
(0.0186196 -0.014792 -0.0469648)
(0.0198442 -0.011625 -0.0494886)
(0.0172174 -0.014834 -0.0268535)
(0.0150325 -0.0138777 -0.0283566)
(0.0149671 -0.0145584 -0.0293934)
(0.0146388 -0.0128585 -0.0269368)
(0.0150205 -0.0115049 -0.0271339)
(0.0188996 -0.0158819 -0.0290132)
(0.0179649 -0.015322 -0.02765)
(-0.000906997 0.00263084 0.00171202)
(-0.00269129 0.00356453 0.00146931)
(-0.00216299 0.00366299 0.00148611)
(-0.00141093 0.00321074 0.0018522)
(-0.00236174 0.00315271 0.00139039)
(-0.000361957 0.000262562 -0.000248196)
(-0.00017104 0.000516186 0.000105481)
(-0.00156572 0.000613494 -0.000134871)
(-0.000992089 0.000331239 -0.000325554)
(-0.000772794 0.00101145 0.000343951)
(-0.00138261 0.000939764 9.435e-05)
(0.00403376 -0.00684777 -0.0132)
(0.00328802 -0.00627647 -0.0124062)
(0.00253398 -0.00582515 -0.0110947)
(0.00221275 -0.00528641 -0.00999791)
(0.00400565 -0.00713823 -0.0146105)
(0.00178204 -0.00492689 -0.00928236)
(0.00849758 -0.021898 -0.0222825)
(0.00876622 -0.0223283 -0.0209728)
(0.00830337 -0.0216449 -0.0193487)
(0.00997426 -0.0214773 -0.0217806)
(0.0084708 -0.0204813 -0.0202198)
(0.0128327 -0.0200231 -0.0231208)
(0.012725 -0.0199466 -0.0230853)
(0.013002 -0.0197385 -0.0220767)
(0.0107236 -0.0174073 -0.019645)
(0.012965 -0.0197864 -0.0227527)
(0.015639 -0.0221104 -0.0236131)
(0.0158618 -0.0215851 -0.0238697)
(0.0126892 -0.019351 -0.0210031)
(0.0153765 -0.0222436 -0.0244228)
(0.0131916 -0.0195947 -0.0230201)
(0.0120054 -0.0191984 -0.0218058)
(0.0125048 -0.0192406 -0.0204224)
(0.0132625 -0.0192078 -0.0208563)
(0.00973559 -0.0176123 -0.0209398)
(0.00953749 -0.0179662 -0.0208879)
(0.0119967 -0.0202434 -0.0222195)
(0.0070981 -0.00616483 -0.0081052)
(0.00997586 -0.00803151 -0.0122921)
(0.0077506 -0.00687441 -0.00883788)
(0.00818495 -0.00665497 -0.00932975)
(0.00923074 -0.00800973 -0.0110875)
(0.00941449 -0.00732897 -0.0112727)
(0.00730093 -0.0091322 -0.00971345)
(0.00582764 -0.00784576 -0.00780409)
(0.00689757 -0.00746134 -0.00839453)
(0.00581742 -0.00709165 -0.00746976)
(0.00846591 -0.00858713 -0.0106148)
(0.00835651 -0.00941578 -0.0107046)
(0.0130985 -0.00467643 -0.0129641)
(0.0129585 -0.00563884 -0.0138062)
(0.0110337 -0.00603431 -0.011977)
(0.0183149 -0.00714317 -0.0222392)
(0.0162739 -0.00750867 -0.0198569)
(0.0163465 -0.00588821 -0.0192077)
(0.00794905 -0.00516995 -0.00827543)
(0.00846389 -0.00589782 -0.00941415)
(0.0110915 -0.00749136 -0.0129202)
(0.010457 -0.00587418 -0.0112524)
(0.0121242 -0.00684436 -0.0142023)
(0.0301113 -0.0242412 -0.0516276)
(0.0208398 -0.0188332 -0.0461785)
(0.0206668 -0.0196667 -0.0464613)
(0.0274879 -0.0212992 -0.0417082)
(0.0262973 -0.0230407 -0.0479644)
(0.0229274 -0.0190849 -0.0424262)
(0.0298856 -0.0246654 -0.0463444)
(0.0278965 -0.0228121 -0.0495673)
(0.032945 -0.0268508 -0.0445758)
(0.0321268 -0.0287248 -0.0482791)
(0.0288035 -0.0252844 -0.052255)
(0.0330065 -0.0270646 -0.0427631)
(-0.00280583 0.00132484 0.000606425)
(-0.00270198 0.000732626 0.000467577)
(-0.00293782 0.00132906 0.000812346)
(-0.00241796 0.00078495 0.000248813)
(-0.00245974 0.00110035 0.000320934)
(-0.00274866 0.00100863 0.000793243)
(-0.00207152 0.000344714 -0.000115446)
(-0.00173988 7.82007e-05 -0.000417682)
(-0.00212806 0.000128176 4.22393e-05)
(-0.00189925 6.88053e-05 -0.000207269)
(-0.0024133 0.000360693 0.000188111)
(-0.00331135 0.00216142 0.0012127)
(-0.00311527 0.00267802 0.00105593)
(-0.00305259 0.00230382 0.00135281)
(-0.00324348 0.0027216 0.00125228)
(-0.00357018 0.00278744 0.00112676)
(-0.00311201 0.00214228 0.00100874)
(-0.000834232 0.00201778 0.0012281)
(-0.00114986 0.00178879 0.000824616)
(-0.00174995 0.00160363 0.00056391)
(-0.00174058 0.00258027 0.00112451)
(-0.00220048 0.00256686 0.00100191)
(-0.00235892 0.00192101 0.000670764)
(0.000456231 0.000478924 0.000943256)
(0.000134719 0.000830214 0.000888751)
(0.00106986 -0.00137336 -0.000336416)
(0.00268296 -0.00416276 -0.00176865)
(0.00122114 -0.00107843 8.15742e-05)
(0.00234849 -0.00397428 -0.00124846)
(0.0204136 -0.0180659 -0.0332545)
(0.0217482 -0.01748 -0.0329936)
(0.0215596 -0.0159068 -0.0322)
(0.0182338 -0.0133564 -0.0304802)
(0.0210494 -0.0162804 -0.0322)
(0.0180184 -0.0164248 -0.0324697)
(0.0182656 -0.0187249 -0.0429561)
(0.0122333 -0.0110013 -0.0356388)
(0.0145818 -0.0149264 -0.0389334)
(0.0164122 -0.014414 -0.0359297)
(0.0215252 -0.0171006 -0.0370836)
(0.0238521 -0.0201992 -0.0476794)
(0.00236514 -0.00487902 -0.0059624)
(0.00281335 -0.0049631 -0.00494882)
(0.00343143 -0.00675125 -0.00851951)
(0.00180014 -0.00341091 -0.00377486)
(0.00350593 -0.00672329 -0.00899826)
(0.004023 -0.00765311 -0.0114109)
(0.00146926 -0.00246458 -0.002718)
(0.00134188 -0.00204259 -0.00214441)
(0.000929533 -0.00143452 -0.00152833)
(0.000704446 -0.00103338 -0.001099)
(0.00116016 -0.00176547 -0.00179824)
(0.00103578 -0.00103674 -0.000914456)
(0.000724807 -0.000815516 -0.000929223)
(0.0077025 -0.031871 -0.0233277)
(0.00682072 -0.0312035 -0.0229511)
(0.00799607 -0.0329699 -0.0222982)
(0.00648663 -0.0319652 -0.0214766)
(0.00667491 -0.0335089 -0.0209711)
(0.00750467 -0.0330858 -0.0205724)
(0.0160314 -0.0364015 -0.0104882)
(0.0178803 -0.0348096 -0.0133365)
(0.0162334 -0.0353449 -0.0135504)
(0.0169937 -0.0359581 -0.0120214)
(0.0138265 -0.0351204 -0.0107417)
(0.0131608 -0.0352653 -0.0118665)
(0.0164802 -0.0286812 -0.0234129)
(0.0170721 -0.026956 -0.0218354)
(0.0178707 -0.0267485 -0.0225892)
(0.0141564 -0.0273088 -0.0218888)
(0.0139031 -0.0273927 -0.0216341)
(0.0161771 -0.0265467 -0.0220003)
(0.0175287 -0.0291991 -0.0221356)
(0.0147089 -0.0273703 -0.0207085)
(0.0178699 -0.0311575 -0.0227263)
(0.0158286 -0.02764 -0.0214369)
(0.017573 -0.0273303 -0.0214105)
(0.0179165 -0.0286173 -0.0218975)
(0.0145651 -0.0209609 -0.0241933)
(0.0147643 -0.0198514 -0.0262139)
(0.0156275 -0.0219053 -0.0269414)
(0.014575 -0.0199786 -0.0239407)
(0.0144836 -0.0197181 -0.025637)
(0.0155273 -0.021211 -0.026402)
(0.0109367 -0.0191194 -0.0216805)
(0.00961575 -0.0199131 -0.0217455)
(0.00946204 -0.0204137 -0.0225523)
(0.00994723 -0.0192681 -0.0219522)
(0.0110332 -0.0196977 -0.0217383)
(0.00928102 -0.0197335 -0.0217226)
(0.0110409 -0.035096 -0.0210045)
(0.012077 -0.036021 -0.0198191)
(0.0095454 -0.0343924 -0.0200163)
(0.0100076 -0.0346799 -0.0191063)
(0.0100403 -0.0346011 -0.0221084)
(0.00913375 -0.0341259 -0.0213284)
(0.0177208 -0.0294374 -0.0202087)
(0.0174949 -0.0317275 -0.0217739)
(0.0188753 -0.0302203 -0.0214303)
(0.0166509 -0.0318377 -0.0228954)
(0.0157035 -0.0302727 -0.0211779)
(0.0177794 -0.0298746 -0.021778)
(0.0175745 -0.0342943 -0.0212695)
(0.018 -0.0369 -0.0214654)
(0.0138854 -0.032416 -0.0204376)
(0.0188859 -0.0308377 -0.0202833)
(0.0176605 -0.0345019 -0.0226033)
(0.0165039 -0.0361621 -0.0209783)
(0.0182734 -0.0373091 -0.0209682)
(0.0144342 -0.036742 -0.0196509)
(0.0148726 -0.0354265 -0.0201177)
(0.0154154 -0.0360126 -0.0183122)
(0.0170719 -0.0376882 -0.0200385)
(0.00904549 -0.0305673 -0.0251385)
(0.00964636 -0.0312607 -0.0241172)
(0.00911254 -0.0314526 -0.024425)
(0.00977928 -0.0328419 -0.0238747)
(0.00932876 -0.0328199 -0.0237222)
(0.00987684 -0.0299859 -0.024179)
(0.0109625 -0.0217909 -0.0233344)
(0.00927818 -0.0219863 -0.0232032)
(0.00991208 -0.0210505 -0.0225673)
(0.00983805 -0.0198103 -0.022684)
(0.00963073 -0.0200155 -0.0228938)
(0.00940584 -0.0228058 -0.0243002)
(0.0107093 -0.0241353 -0.0249354)
(0.0100291 -0.0227477 -0.0250868)
(0.0104286 -0.0259239 -0.0251176)
(0.0104686 -0.0245053 -0.0228587)
(0.00991865 -0.0223206 -0.0248119)
(0.00993261 -0.022892 -0.0232368)
(0.00970073 -0.0258069 -0.0267216)
(0.00908445 -0.0280273 -0.0266584)
(0.0086527 -0.0263126 -0.0274296)
(0.00920216 -0.0270756 -0.0265146)
(0.0100085 -0.0286581 -0.0268131)
(0.00976118 -0.0248836 -0.0252795)
(0.00119605 -0.00173829 -0.00181067)
(0.000836491 -0.0014429 -0.00153505)
(0.00137629 -0.00261993 -0.00321627)
(0.00134714 -0.00286597 -0.00389224)
(0.00130644 -0.00234491 -0.00287755)
(0.000964421 -0.00200683 -0.00243937)
(0.0220421 -0.00273102 -0.0204092)
(0.00713198 -0.00355655 -0.00463613)
(0.0133313 -0.003636 -0.011459)
(0.0166099 -0.0037266 -0.0124026)
(0.0101581 -0.00425868 -0.00705163)
(0.00829038 -0.00330911 -0.00549212)
(0.0278681 -0.00323068 -0.0280158)
(0.0238628 -0.00204754 -0.020813)
(0.0261384 -0.000387463 -0.0337889)
(0.0329515 -0.00295996 -0.0387596)
(0.0256404 -0.00140607 -0.0287426)
(0.0290961 -0.000965077 -0.0276442)
(-0.000531094 0.000568437 0.000410654)
(-0.00164642 0.00162494 0.000965249)
(0.00075272 -0.000430592 -0.000404222)
(-0.000636056 0.000960806 0.000297897)
(-0.00165895 0.00175496 0.000901069)
(0.00112734 -0.0007628 -0.000383167)
(0.014111 -0.0175153 -0.0251406)
(0.0132737 -0.01603 -0.0211493)
(0.0141971 -0.0175304 -0.0235507)
(0.0138758 -0.0171295 -0.0229394)
(0.0142212 -0.0182953 -0.023455)
(0.0138348 -0.0177797 -0.0244896)
(0.0115969 -0.00972159 -0.0151431)
(0.0129129 -0.0118206 -0.0181128)
(0.0120399 -0.0122646 -0.0168683)
(0.0104136 -0.0110659 -0.0138752)
(0.010721 -0.0102494 -0.0139427)
(0.0120029 -0.0110141 -0.0167266)
(0.00809229 -0.011802 -0.0109157)
(0.00935544 -0.0111078 -0.0124843)
(0.0101487 -0.0131054 -0.0142109)
(0.00859789 -0.0111715 -0.0116987)
(0.00988492 -0.0122279 -0.0138872)
(0.00975388 -0.0137898 -0.0134196)
(0.0143019 -0.0154581 -0.0241609)
(0.0161892 -0.0195265 -0.0255568)
(0.0152501 -0.018149 -0.0287527)
(0.0145764 -0.0181868 -0.0261792)
(0.0162299 -0.0174675 -0.0278175)
(0.0137104 -0.0158542 -0.0258347)
(0.0123908 -0.00848927 -0.0160403)
(0.0121121 -0.0091025 -0.0160604)
(0.0149025 -0.0103384 -0.0213243)
(0.0139513 -0.0108164 -0.0195681)
(0.0137558 -0.00848404 -0.017921)
(0.0142772 -0.00977355 -0.0203848)
(0.0123482 -0.0166488 -0.0185433)
(0.0112999 -0.0155757 -0.0160944)
(0.0139032 -0.0172301 -0.0224298)
(0.0132557 -0.0189656 -0.0194856)
(0.014072 -0.0189197 -0.0212012)
(0.0150087 -0.0194912 -0.0227408)
(0.0153972 -0.0208696 -0.0239529)
(0.0130347 -0.0187395 -0.0218721)
(0.0160911 -0.0221054 -0.0280333)
(0.0160909 -0.0221365 -0.0276626)
(0.0164902 -0.0231755 -0.0278716)
(0.0163702 -0.0219338 -0.0284912)
(0.0166175 -0.0217223 -0.0297097)
(0.016128 -0.0213594 -0.0301001)
(0.0241878 -0.0143398 -0.0466812)
(0.0202824 -0.0102277 -0.0411168)
(0.0195405 -0.0158504 -0.0435997)
(0.0189025 -0.0134937 -0.0408269)
(0.0239035 -0.0100752 -0.0453455)
(0.0188837 -0.0181684 -0.0408631)
(0.0040121 -0.00516565 -0.00511025)
(0.00499231 -0.00545068 -0.00585541)
(0.0020572 -0.00308117 -0.00287061)
(0.00242455 -0.00377286 -0.00336373)
(0.00443052 -0.00468525 -0.00510993)
(0.00287991 -0.00355362 -0.00348896)
(0.0138743 -0.0199464 -0.0218139)
(0.0154513 -0.0218397 -0.0263231)
(0.0140199 -0.020306 -0.0235257)
(0.0150049 -0.0208529 -0.0236096)
(0.0145994 -0.0196937 -0.0227445)
(0.0148893 -0.0206801 -0.0233744)
(0.0123311 -0.0225066 -0.019119)
(0.0119179 -0.0215661 -0.0184987)
(0.0121193 -0.0211443 -0.0179773)
(0.0105948 -0.0241125 -0.0195216)
(0.00985845 -0.0218798 -0.0177639)
(0.0126824 -0.0240038 -0.0195089)
(0.00742225 -0.0189063 -0.0188446)
(0.0071666 -0.0172629 -0.0173496)
(0.00695778 -0.0181525 -0.0177447)
(0.00753666 -0.0208221 -0.019421)
(0.00750202 -0.0212822 -0.0196068)
(0.00685148 -0.0197329 -0.0186328)
(0.010547 -0.0232249 -0.0189038)
(0.00852313 -0.0225486 -0.0170716)
(0.0103274 -0.0225692 -0.0176098)
(0.0106168 -0.0226662 -0.0179962)
(0.0143216 -0.0156054 -0.0204254)
(0.0148156 -0.0173047 -0.0197827)
(0.0135979 -0.0154397 -0.0186256)
(0.0124673 -0.0129488 -0.0176374)
(0.0156596 -0.0155427 -0.0215219)
(0.0157516 -0.0168509 -0.0213462)
(0.0135177 -0.0139679 -0.0188967)
(0.0146587 -0.0126425 -0.0258452)
(0.0154035 -0.0132973 -0.0246169)
(0.0145585 -0.0130419 -0.0236277)
(0.0133529 -0.0121438 -0.0236158)
(0.0131619 -0.0116367 -0.0244592)
(0.0160384 -0.0144159 -0.0243348)
(0.00530778 -0.0070925 -0.0163557)
(0.00723986 -0.00927676 -0.0168615)
(0.00769817 -0.00960998 -0.018299)
(0.00975872 -0.0103876 -0.0199977)
(0.00880317 -0.00939238 -0.0175204)
(0.00570981 -0.00778329 -0.0175739)
(0.0146564 -0.0234608 -0.0200608)
(0.0131331 -0.0243826 -0.0202056)
(0.0151367 -0.0253708 -0.0213126)
(0.0158144 -0.0241358 -0.0208375)
(0.0136281 -0.0241334 -0.0204783)
(0.0159716 -0.0271077 -0.0220476)
(0.0152207 -0.0233829 -0.0210495)
(0.0115942 -0.025144 -0.0202166)
(0.0144009 -0.0254398 -0.021988)
(0.0120071 -0.0248614 -0.0203794)
(0.0148746 -0.0252292 -0.0214549)
(0.0134073 -0.0229056 -0.0198287)
(0.0102011 -0.0123246 -0.015504)
(0.0117403 -0.0158473 -0.0160978)
(0.0109621 -0.0122434 -0.0166231)
(0.0132282 -0.0155586 -0.0185329)
(0.0121485 -0.0139148 -0.0175956)
(0.0107602 -0.0145826 -0.0155627)
(0.00460137 -0.006161 -0.0142375)
(0.00687165 -0.0075929 -0.0158813)
(0.0067406 -0.00863388 -0.0158505)
(0.00776281 -0.0085104 -0.0180941)
(0.00995037 -0.0107157 -0.0169463)
(0.010877 -0.0108006 -0.01793)
(0.010328 -0.010721 -0.0195623)
(0.00988569 -0.010537 -0.0177453)
(0.0118505 -0.0120778 -0.018939)
(0.0124741 -0.0125669 -0.020302)
(0.0116737 -0.0124847 -0.0186794)
(0.00114173 -0.00257092 -0.00337597)
(0.00131871 -0.00328411 -0.00480049)
(0.0014568 -0.00370397 -0.00541982)
(0.000963885 -0.00209805 -0.00264937)
(0.000863094 -0.00218524 -0.00292725)
(0.00103044 -0.00265963 -0.0038507)
(0.000854323 -0.00346196 -0.00590289)
(0.000777475 -0.00274428 -0.00399658)
(0.00141025 -0.00398299 -0.00659538)
(0.00103198 -0.0031774 -0.00497699)
(0.000791454 -0.00265489 -0.00376882)
(0.000873774 -0.00306373 -0.00451965)
(0.00100512 -0.00383054 -0.00678375)
(0.0122672 -0.020964 -0.0386316)
(0.0111097 -0.0207864 -0.0345432)
(0.0120576 -0.0162438 -0.0411501)
(0.00939242 -0.0212974 -0.0333174)
(0.00970535 -0.0212963 -0.0369499)
(0.0121014 -0.0182654 -0.0395657)
(0.00927056 -0.0256892 -0.0296011)
(0.00913588 -0.0235861 -0.0302712)
(0.0101393 -0.0237361 -0.0276137)
(0.00988277 -0.022962 -0.0306391)
(0.00933594 -0.0248414 -0.026962)
(0.00944874 -0.0225791 -0.0319407)
(0.0157349 -0.0155006 -0.0480962)
(0.0160597 -0.0149903 -0.0463788)
(0.0183082 -0.0129574 -0.0492024)
(0.0166588 -0.0096459 -0.0465021)
(0.012842 -0.0149665 -0.0466255)
(0.0107225 -0.0188743 -0.0420367)
(0.00894303 -0.0205871 -0.035542)
(0.00839328 -0.0231319 -0.0327802)
(0.0106549 -0.0216678 -0.0391298)
(0.00832822 -0.0225584 -0.0346151)
(0.0093918 -0.0180381 -0.0382774)
(0.00156271 -0.00371993 -0.0030486)
(0.00260576 -0.00549541 -0.00452623)
(0.00336653 -0.00615193 -0.00524634)
(0.00168006 -0.00431576 -0.00339881)
(0.00327951 -0.00539913 -0.00487502)
(0.00217852 -0.00432962 -0.00361203)
(0.00134314 -0.00484934 -0.00349796)
(0.00232631 -0.00612846 -0.00461118)
(0.00513458 -0.00988042 -0.00779404)
(0.00464878 -0.00797764 -0.00691738)
(0.00612086 -0.0100449 -0.00869566)
(0.00402407 -0.00857752 -0.00662922)
(0.00607956 -0.00960503 -0.00880562)
(0.00397157 -0.00771547 -0.0062191)
(0.00775344 -0.0119185 -0.026638)
(0.00878072 -0.0127267 -0.0319308)
(0.00644573 -0.0114347 -0.0206946)
(0.00828636 -0.0122946 -0.0266219)
(0.00536177 -0.0108851 -0.0211319)
(0.00460915 -0.00947408 -0.0153991)
(0.00416601 -0.00926996 -0.0102357)
(0.00231658 -0.0042474 -0.00385786)
(0.00334787 -0.00625895 -0.00582992)
(0.00279251 -0.00485152 -0.00475799)
(0.00465351 -0.00949187 -0.0120378)
(0.00364368 -0.00702552 -0.00863945)
(0.00617818 -0.0135992 -0.02599)
(0.0110359 -0.0153702 -0.0403354)
(0.00579071 -0.0131982 -0.0209118)
(0.012281 -0.0190206 -0.0387479)
(0.00721449 -0.0159483 -0.0289966)
(0.011112 -0.0175066 -0.0337293)
(0.00329382 -0.00721765 -0.00632004)
(0.00307671 -0.00550253 -0.00356123)
(0.00456108 -0.0134116 -0.0166589)
(0.0032113 -0.00783045 -0.00666056)
(0.00475251 -0.0110252 -0.0126288)
(0.00355421 -0.0104487 -0.011314)
(0.00476765 -0.0111731 -0.0146347)
(0.00605502 -0.0119893 -0.0192279)
(0.00313481 -0.00215864 -0.00285437)
(0.0029747 -0.0061925 -0.00483028)
(0.0165297 -0.0184037 -0.0223499)
(0.0156422 -0.0181513 -0.0203458)
(0.0150577 -0.0180622 -0.0198081)
(0.0292336 -0.00984988 -0.0532585)
(0.0222101 -0.0140658 -0.0493)
(0.0239474 -0.0132814 -0.0525136)
(0.00716342 -0.0296369 -0.0256933)
(0.012529 -0.0192836 -0.0398729)
(0.0125676 -0.0220193 -0.0356211)
(0.0116876 -0.0224882 -0.0332957)
(0.000359011 -0.00234337 -0.00320201)
(0.000231495 -0.00200151 -0.00242185)
(0.000435385 -0.00240986 -0.00336155)
(0.000374783 -0.00271578 -0.00415825)
(0.000637057 -0.00225523 -0.00313022)
(0.000146478 -0.00204709 -0.00236377)
(0.000165186 -0.00217832 -0.00249309)
(0.00116458 -0.00415599 -0.00309282)
(0.000644065 -0.00340422 -0.00250299)
(0.000318216 -0.00333464 -0.00241289)
(0.000263554 -0.00291887 -0.00207957)
(0.000161307 -0.00154385 -0.00174792)
(0.000322665 -0.00184871 -0.00209856)
(6.62761e-05 -0.00193238 -0.00213861)
(0.000135586 -0.00168179 -0.00188593)
(-0.000126675 -0.00166908 -0.00172954)
(-0.000284146 -0.00162644 -0.00151201)
(-0.000302771 -0.00172666 -0.00141064)
(-8.09441e-05 -0.00202772 -0.00147901)
(-3.89088e-05 -0.00230806 -0.00168093)
(-0.000328693 -0.00188309 -0.00152332)
(0.00666763 -0.00891673 -0.0178624)
(0.0160434 -0.0201144 -0.0210968)
(0.0148281 -0.0190508 -0.0189926)
(0.0143135 -0.020754 -0.0187426)
(0.014539 -0.0228868 -0.0201082)
(0.0186642 -0.0257885 -0.0233308)
(0.0173387 -0.027397 -0.0233932)
(0.0182265 -0.0177119 -0.0234644)
(0.0147754 -0.0167813 -0.0200611)
(0.0157016 -0.0167676 -0.0202634)
(0.0173438 -0.0161973 -0.0230659)
(0.0180288 -0.0175612 -0.0235519)
(0.020756 -0.0224115 -0.0243601)
(0.0190936 -0.0187051 -0.0236297)
(0.0191632 -0.0186025 -0.0232521)
(0.0203069 -0.0209958 -0.0238488)
(0.00899365 -0.0109688 -0.0186224)
(0.0161467 -0.015731 -0.0218793)
(0.0173599 -0.0155827 -0.0239104)
(0.0170481 -0.0156197 -0.0242281)
(0.00716487 -0.00832648 -0.0187634)
(0.0121319 -0.0132439 -0.0181096)
(0.00801445 -0.0235978 -0.0189333)
(0.0082986 -0.0226963 -0.0181499)
(0.00747703 -0.0229843 -0.0194871)
(0.00686712 -0.0215451 -0.0189032)
(0.00788111 -0.0166618 -0.0183257)
(0.00715911 -0.017281 -0.0183721)
(0.00695301 -0.016962 -0.0184151)
(0.00610057 -0.0201076 -0.0186383)
(0.00664034 -0.0211944 -0.0192449)
(0.0130218 -0.0224776 -0.0197386)
(0.00929281 -0.0238554 -0.019604)
(0.010304 -0.0242202 -0.0196464)
(0.0147345 -0.0231483 -0.020734)
(0.0148197 -0.0241268 -0.0213396)
(0.0123911 -0.0210046 -0.0188017)
(0.012156 -0.0241492 -0.0201578)
(0.0103798 -0.0231115 -0.0192259)
(0.0127421 -0.0239283 -0.0203899)
(0.00976136 -0.0224937 -0.018788)
(0.00890789 -0.0211781 -0.018935)
(0.0115052 -0.0236016 -0.0201112)
(0.0110578 -0.0244083 -0.0208952)
(0.0122387 -0.0251108 -0.0215968)
(0.0111001 -0.0229652 -0.0197833)
(0.0116678 -0.0231994 -0.0213846)
(0.0101007 -0.0227716 -0.0199915)
(0.00990517 -0.0223316 -0.020664)
(0.00304043 -0.0032902 -0.00347026)
(0.00228774 -0.00284444 -0.00271154)
(0.00355128 -0.00319907 -0.00358158)
(0.00286077 -0.00243085 -0.00275051)
(0.00390878 -0.00263808 -0.00364497)
(0.0197609 -0.004315 -0.0252177)
(0.0187576 -0.00450795 -0.0230281)
(0.0207596 -0.00373539 -0.0274167)
(0.0113215 -0.0174821 -0.0194617)
(0.0109116 -0.0186354 -0.0211529)
(0.0158217 -0.0228337 -0.027038)
(0.0157128 -0.0223517 -0.0278402)
(0.0140032 -0.0209236 -0.0257827)
(0.0144738 -0.0218793 -0.0266547)
(0.0116949 -0.0195334 -0.0222968)
(0.0105806 -0.0177912 -0.0192826)
(0.0141628 -0.021163 -0.0227417)
(0.0138601 -0.0205054 -0.0225588)
(0.014469 -0.0201959 -0.0232916)
(0.0138811 -0.0205361 -0.0231903)
(0.0134036 -0.0197895 -0.0225084)
(0.0145015 -0.0206709 -0.0235797)
(0.0129288 -0.0168236 -0.0193857)
(0.0183741 -0.010956 -0.0301054)
(0.0206241 -0.0144518 -0.0334429)
(0.017194 -0.0161485 -0.0309807)
(0.018746 -0.0152598 -0.0339023)
(0.0203146 -0.00936156 -0.0293244)
(0.0162959 -0.00906934 -0.0244364)
(0.0164235 -0.00918617 -0.0221918)
(0.0169641 -0.0209307 -0.030539)
(0.0165269 -0.0196658 -0.0298643)
(0.016226 -0.0209879 -0.0298852)
(0.0161696 -0.022829 -0.0296157)
(0.0162011 -0.0212189 -0.0308591)
(0.0180661 -0.0240384 -0.0316379)
(0.0194944 -0.0240864 -0.0359777)
(0.0176735 -0.0181502 -0.0344426)
(0.0151473 -0.0173991 -0.0291143)
(0.0152104 -0.0194256 -0.0296032)
(0.0189713 -0.0206595 -0.0359885)
(0.0114376 -0.0149664 -0.0164471)
(0.00779039 -0.0118504 -0.0110272)
(0.0156412 -0.0153215 -0.0243981)
(0.0155839 -0.0132541 -0.0240185)
(0.0144762 -0.0131434 -0.0223616)
(0.0127926 -0.0117136 -0.0183173)
(0.0107506 -0.0123343 -0.0153028)
(0.0155213 -0.0206979 -0.0252617)
(0.0167832 -0.0212028 -0.0267914)
(0.0148627 -0.0189558 -0.0237604)
(0.013349 -0.016436 -0.0218381)
(0.0158662 -0.0178091 -0.0268567)
(0.0154549 -0.0170946 -0.0241452)
(0.0243086 -0.0335948 -0.01531)
(0.0226831 -0.0347017 -0.0130314)
(0.0227347 -0.0348135 -0.0222395)
(0.00373921 -0.00291056 -0.00243022)
(3.05588e-05 0.000161127 0.000138949)
(0.00117582 -0.00107483 -0.000732428)
(0.00234045 -0.0016711 -0.00129264)
(0.00231585 -0.00152728 -0.00113623)
(0.00401489 -0.00274135 -0.00228052)
(-0.00247133 0.00237012 0.0010316)
(0.00173502 -0.00165711 -0.00137504)
(-0.00154504 0.000290008 0.000632596)
(-0.000878164 -0.000231701 0.000323297)
(-0.00235382 0.000508575 0.000771921)
(-0.00200203 0.000354687 0.0007936)
(-0.00167381 0.000197691 0.000680372)
(-0.00246975 0.000434034 0.000592977)
(0.00222099 -0.0014252 -0.00153625)
(-0.00030998 -0.000510204 -1.90144e-05)
(-0.000893713 -0.000177422 0.000316007)
(0.00107305 -0.00130201 -0.000932672)
(0.000843215 -0.00141951 -0.00069676)
(-0.000270262 -0.000438889 4.24328e-05)
(-4.01761e-05 -0.00063603 -0.000137494)
(0.0011858 -0.00127369 -0.000870866)
(0.00244082 -0.00195277 -0.00179845)
(0.00220995 -0.00191883 -0.00145385)
(-0.000474273 -0.000364944 0.000166871)
(0.000604126 -0.000742945 -0.000503108)
(0.00150141 -0.00108061 -0.00123584)
(0.00139558 -0.0014234 -0.00138628)
(0.000821454 -0.000947456 -0.00085469)
(0.00149166 -0.00150805 -0.00152561)
(0.000705179 -0.00101313 -0.000841722)
(-0.000971914 -0.00072353 -0.000307214)
(-0.00107614 -0.000596859 -0.000374408)
(-0.00124825 -0.000480955 -0.000348747)
(-0.00094679 -0.000823641 -0.000691562)
(-0.000280572 -0.00150486 -0.00147765)
(-9.24124e-05 -0.0014322 -0.00154739)
(0.000663751 -0.00306024 -0.00218857)
(0.00183054 -0.0036104 -0.00294506)
(-0.000752775 -0.00088699 -0.000400414)
(0.000892915 -0.00225205 -0.00177976)
(0.000987569 -0.00253857 -0.00196277)
(0.00062798 -0.00264335 -0.00196106)
(9.66461e-05 -0.00206426 -0.00149163)
(0.000465455 -0.00206542 -0.00149002)
(0.000130917 -0.000941263 -0.000604696)
(0.000931523 -0.00140739 -0.0012445)
(-0.000268668 -0.00096893 -0.000486538)
(0.00125071 -0.00194333 -0.00167424)
(0.000560189 -0.00185349 -0.00132543)
(0.00116251 -0.00206122 -0.00163003)
(-2.11197e-05 -0.0011353 -0.000630129)
(0.00070499 -0.00163962 -0.00122943)
(0.0236477 -0.00628781 -0.0367342)
(0.0221158 -0.00675464 -0.0388065)
(0.0155242 -0.0185778 -0.0369524)
(0.0272946 -0.00637477 -0.0450313)
(0.0166854 -0.017492 -0.0409681)
(0.0118438 -0.0192876 -0.0378853)
(0.0156481 -0.0187204 -0.0405507)
(0.0247895 -0.00844377 -0.0517935)
(0.0254204 -0.000163073 -0.0416767)
(0.0305053 -0.00522023 -0.0485809)
(0.0301233 -0.0023073 -0.04478)
(0.0305466 -0.00418206 -0.046694)
(0.0276635 -0.00665535 -0.0483654)
(0.0318753 -0.0073495 -0.052897)
(0.0347049 -0.00262955 -0.0450349)
(0.00584675 -0.00306957 -0.00343372)
(0.0240353 -0.00367651 -0.0296299)
(0.0258496 -0.00275706 -0.034443)
(0.026604 -0.00428875 -0.0383496)
(0.0251039 -0.00437356 -0.0375417)
(0.0253843 -0.00155213 -0.033533)
(0.0292942 -0.00433959 -0.0335166)
(0.027635 -0.00062697 -0.0313405)
(0.0170518 -0.00287598 -0.0177268)
(0.020715 0.000234288 -0.0222031)
(0.0187195 -0.00287486 -0.0193533)
(0.0144952 -0.0033108 -0.0138982)
(0.00446043 -0.00234525 -0.00320775)
(0.0116243 -0.00289426 -0.00993574)
(0.00879727 -0.00336752 -0.00738592)
(0.00569087 -0.00285575 -0.0044117)
(0.00421517 -0.00227703 -0.00312458)
(0.00587112 -0.00331944 -0.0032525)
(0.00420992 -0.00263722 -0.00219188)
(0.00934113 -0.0047617 -0.00517343)
(0.0142432 -0.00476156 -0.00844923)
(0.0228699 -0.00244736 -0.0174511)
(0.019116 -0.0251605 -0.0229349)
(0.0201543 -0.023444 -0.0234125)
(0.0200616 -0.0247767 -0.0225136)
(0.0179925 -0.0240102 -0.0209547)
(0.0205586 -0.0287696 -0.0239317)
(0.0203717 -0.0307746 -0.0215273)
(0.0220431 -0.0330531 -0.0215652)
(0.0207063 -0.0288896 -0.0241075)
(0.0189597 -0.0280572 -0.0219466)
(0.0199739 -0.0296325 -0.0215895)
(0.0210686 -0.0299217 -0.0235684)
(0.0216452 -0.0292191 -0.0240969)
(0.0209061 -0.0299181 -0.0229861)
(0.0237936 -0.0365445 -0.0216492)
(0.023554 -0.036182 -0.0206663)
(0.0207852 -0.0352371 -0.0181011)
(0.0227949 -0.0344318 -0.0215375)
(0.0255589 -0.0347089 -0.0227121)
(0.025382 -0.0342848 -0.0241508)
(0.025524 -0.0354458 -0.0245228)
(0.0115972 -0.0114994 -0.0238162)
(0.00943814 -0.00923938 -0.0217268)
(0.011063 -0.0103342 -0.0252928)
(0.0100825 -0.0101067 -0.0225272)
(0.00937438 -0.0104357 -0.0218873)
(0.0209381 -0.0211174 -0.025082)
(0.0201531 -0.0182982 -0.0245087)
(0.0200299 -0.0187959 -0.0252117)
(0.0240113 -0.0214326 -0.0312971)
(0.0223561 -0.018036 -0.0303824)
(0.0198365 -0.0168811 -0.0253169)
(0.0213834 -0.0190317 -0.0266596)
(0.0231943 -0.0217438 -0.0284538)
(0.0229813 -0.0222293 -0.027565)
(0.000257016 -0.00138485 -0.00164454)
(-0.000252967 -0.00125137 -0.00134795)
(-1.95032e-05 -0.0013083 -0.00148301)
(0.00036904 -0.00128083 -0.00155674)
(-0.000507797 -0.00106133 -0.00118638)
(-0.000191585 -0.00115847 -0.0013404)
(9.31706e-05 -0.00113842 -0.00140415)
(0.000325093 -0.00110625 -0.00135625)
(0.000533293 -0.00140192 -0.00165614)
(0.000682848 -0.00176925 -0.00218385)
(-0.000755596 -0.000828666 -0.000868935)
(-2.75105e-05 -0.000993462 -0.00126443)
(-0.000428394 -0.000946432 -0.00108497)
(2.96364e-05 -0.000904804 -0.00123789)
(-0.00108431 -0.000536652 -0.000607762)
(-0.000316626 -0.000812245 -0.0011248)
(-0.000728452 -0.000692219 -0.000857613)
(-0.000242567 -0.000702096 -0.00105438)
(0.00641571 -0.00809666 -0.0182463)
(0.00779491 -0.00897073 -0.0212963)
(0.00657792 -0.00788193 -0.0173759)
(0.00776782 -0.00944421 -0.0198454)
(0.00797183 -0.00908953 -0.0193997)
(0.00527556 -0.00775169 -0.016301)
(0.00474559 -0.00750765 -0.0142616)
(0.00618909 -0.0089874 -0.016917)
(0.000618623 -0.00129315 -0.00152588)
(0.000740524 -0.00146691 -0.00173656)
(0.0008406 -0.00182916 -0.00229315)
(0.000449466 -0.00109313 -0.00139472)
(0.000804965 -0.00127894 -0.00143625)
(0.00152326 -0.00323769 -0.00435354)
(0.0018182 -0.00397299 -0.00624605)
(0.00185005 -0.00455993 -0.00793361)
(0.00373631 -0.00651357 -0.0111408)
(0.0029679 -0.00543792 -0.00908469)
(0.00193322 -0.00384904 -0.00556829)
(0.00239783 -0.00486352 -0.00722202)
(0.00263588 -0.00474206 -0.00664523)
(0.00359887 -0.00627776 -0.0101616)
(0.00171996 -0.00302698 -0.00349791)
(0.0022209 -0.0041394 -0.0052955)
(0.00926119 -0.022753 -0.0279893)
(0.0108405 -0.0251685 -0.0274495)
(0.00868826 -0.0267646 -0.0280219)
(0.00931713 -0.0286088 -0.0280229)
(0.0118148 -0.0229387 -0.0283505)
(0.0161947 -0.0214866 -0.0387046)
(0.0124847 -0.021182 -0.0352208)
(0.0142552 -0.0233592 -0.0338244)
(0.0133654 -0.0191794 -0.0358923)
(0.0151356 -0.0225703 -0.0376251)
(0.00927512 -0.0222343 -0.0264107)
(0.0109049 -0.0227135 -0.0267117)
(0.0101604 -0.0235299 -0.0250192)
(0.0109385 -0.0220741 -0.0250531)
(0.0119077 -0.0218049 -0.0257627)
(0.0133324 -0.0228432 -0.0257145)
(0.0151151 -0.0248356 -0.0317101)
(0.0125036 -0.0227152 -0.0289022)
(0.0120085 -0.0221493 -0.0294821)
(0.0141823 -0.0239197 -0.0296592)
(0.00916369 -0.0263949 -0.0258765)
(0.0101867 -0.0288369 -0.0263159)
(0.00952998 -0.0268629 -0.0247001)