/*--------------------------------*- C++ -*----------------------------------*\
| =========                 |                                                 |
| \\      /  F ield         | OpenFOAM: The Open Source CFD Toolbox           |
|  \\    /   O peration     | Version:  v1612+                                |
|   \\  /    A nd           | Web:      www.OpenFOAM.com                      |
|    \\/     M anipulation  |                                                 |
\*---------------------------------------------------------------------------*/
FoamFile
{
    version     2.0;
    format      ascii;
    class       volVectorField;
    location    "100";
    object      wallShearStress;
}
// * * * * * * * * * * * * * * * * * * * * * * * * * * * * * * * * * * * * * //

dimensions      [0 2 -2 0 0 0 0];

internalField   uniform (0 0 0);

boundaryField
{
    WALL
    {
        type            calculated;
        value           nonuniform List<vector> 
1678
(
(0.00479892 -0.0100817 0.00445924)
(0.00509163 -0.0104335 0.00442575)
(0.0050255 -0.0102581 0.00417008)
(0.00542886 -0.0104013 0.00412464)
(0.00492552 -0.0099583 0.00420876)
(0.00540604 -0.0104544 0.00428437)
(0.00535639 -0.0107918 0.00439363)
(0.00567818 -0.010868 0.0042748)
(0.00509835 -0.0110452 0.00454759)
(0.00537268 -0.0101751 0.00475526)
(0.00502473 -0.0101363 0.00433216)
(0.00527576 -0.0106868 0.00436621)
(0.00527801 -0.0106291 0.00435891)
(0.00490812 -0.010134 0.00450272)
(0.00519053 -0.0110679 0.0047024)
(0.00529746 -0.010351 0.00444694)
(0.00574262 -0.0104799 0.00416259)
(0.00534149 -0.0108911 0.00440715)
(0.00570441 -0.0114183 0.00460206)
(0.00541013 -0.0103507 0.0041163)
(0.00484958 -0.0102108 0.00457079)
(0.00521011 -0.0103402 0.00427844)
(0.00518719 -0.0104333 0.0042814)
(0.00489125 -0.00993905 0.00423954)
(0.00494801 -0.0100485 0.00422325)
(0.00534327 -0.0109774 0.00459359)
(0.00527743 -0.0105447 0.00442639)
(0.00500247 -0.0101327 0.00407957)
(0.00515914 -0.0104501 0.0038234)
(0.00543966 -0.0106301 0.00444449)
(0.00510225 -0.0106553 0.00453638)
(0.0054325 -0.0107874 0.00454253)
(0.00553394 -0.0104286 0.00423826)
(0.00548705 -0.010481 0.00424634)
(0.00487707 -0.0101052 0.00430796)
(0.00534711 -0.01081 0.00450908)
(0.00517867 -0.0109058 0.00466238)
(0.00543092 -0.0103639 0.00421783)
(0.00540142 -0.0111262 0.00467311)
(0.00510522 -0.0105166 0.00459422)
(0.00518246 -0.0104302 0.00469938)
(0.0053844 -0.0100421 0.00444566)
(0.00561194 -0.0105189 0.00455494)
(0.00520359 -0.0102574 0.00440953)
(0.00581089 -0.0109962 0.00477186)
(0.00513288 -0.0106574 0.00466228)
(0.00488557 -0.00964045 0.00410009)
(0.00527451 -0.0107011 0.00437372)
(0.00532856 -0.0112191 0.00410639)
(0.00527548 -0.0104761 0.00440409)
(0.00509516 -0.0102562 0.00424501)
(0.00547262 -0.0112096 0.00445045)
(0.00525518 -0.0106714 0.00463575)
(0.00518831 -0.0104472 0.00459279)
(0.00524061 -0.0105866 0.00449392)
(0.00501655 -0.0105185 0.00474471)
(0.00521243 -0.0104446 0.00468112)
(0.00554816 -0.0110268 0.00484125)
(0.0056363 -0.0108326 0.00440296)
(0.00527403 -0.0109547 0.00445329)
(0.00490753 -0.00946541 0.00417648)
(0.00521534 -0.0106901 0.00416886)
(0.00529614 -0.0107407 0.00464088)
(0.00563766 -0.0104812 0.00469795)
(0.00487319 -0.0107602 0.00405193)
(0.00531291 -0.0105812 0.00423809)
(0.0051834 -0.0118705 0.00442072)
(0.00539891 -0.0114193 0.00479232)
(0.00582983 -0.0113327 0.00484652)
(0.00463247 -0.0108086 0.00402127)
(0.0050385 -0.00999502 0.00449433)
(0.0048731 -0.0101003 0.00419065)
(0.00484518 -0.0100907 0.00428722)
(0.00497427 -0.0104586 0.00458047)
(0.00547735 -0.0110427 0.00418798)
(0.00538587 -0.0104886 0.00428688)
(0.00529793 -0.0104615 0.00396459)
(0.0054556 -0.0112016 0.00460315)
(0.0049195 -0.00997035 0.00389995)
(0.00502724 -0.0100907 0.00389828)
(0.00513348 -0.0104652 0.00427305)
(0.00497129 -0.0101957 0.004261)
(0.00489332 -0.0104216 0.00443378)
(0.00477694 -0.00999155 0.00430808)
(0.00550151 -0.0112064 0.00429735)
(0.00491152 -0.0100547 0.00436868)
(0.00479885 -0.00978676 0.00407835)
(0.0048187 -0.0102314 0.00420518)
(0.00529659 -0.0104999 0.00446224)
(0.00464144 -0.0100095 0.00428542)
(0.0049995 -0.0100561 0.00402104)
(0.00524886 -0.0103145 0.00430768)
(0.00513761 -0.0103313 0.00434166)
(0.00492798 -0.0102031 0.00437671)
(0.00565036 -0.0108056 0.00447716)
(0.00523893 -0.0108723 0.00450313)
(0.00528195 -0.0111346 0.00433895)
(0.00504299 -0.0108574 0.00440158)
(0.00487203 -0.0105672 0.00429024)
(0.00494962 -0.0098597 0.00404627)
(0.0055101 -0.0104999 0.00411813)
(0.00507185 -0.00950302 0.00398909)
(0.00486542 -0.00989627 0.00401304)
(0.00527976 -0.0102269 0.00429613)
(0.00500016 -0.0095191 0.00387298)
(0.00487244 -0.0101355 0.00445554)
(0.00478447 -0.0102999 0.00450885)
(0.00488101 -0.010247 0.00442626)
(0.0048533 -0.0103008 0.0043959)
(0.00518364 -0.0106065 0.00455421)
(0.00487213 -0.0102609 0.00451161)
(0.00529014 -0.0106604 0.00450862)
(0.00466321 -0.00991017 0.00429179)
(0.00522112 -0.0106352 0.00450598)
(0.00589395 -0.0112083 0.0047312)
(0.00530715 -0.0107019 0.00444566)
(0.00536636 -0.0103754 0.00434876)
(0.00524448 -0.0108753 0.00473363)
(0.0050632 -0.0106407 0.00450657)
(0.00527246 -0.0106036 0.00439935)
(0.00522465 -0.0105288 0.00438221)
(0.00526609 -0.0105982 0.00442231)
(0.00531502 -0.0110046 0.00461326)
(0.00503349 -0.0103581 0.00442136)
(0.00514807 -0.0104246 0.00435493)
(0.00508325 -0.0103568 0.00445927)
(0.00508711 -0.0104046 0.00439423)
(0.00516775 -0.0104473 0.0043811)
(0.00506068 -0.0103038 0.00422671)
(0.00482385 -0.0104562 0.00453233)
(0.00508639 -0.0106866 0.0045564)
(0.00500645 -0.0101531 0.00431412)
(0.00505391 -0.0103399 0.00433684)
(0.00475006 -0.0104162 0.00463019)
(0.0048615 -0.010624 0.00453197)
(0.00492415 -0.0101285 0.00443542)
(0.00511411 -0.0103358 0.00451823)
(0.004938 -0.0101975 0.00433345)
(0.00515973 -0.0104324 0.0045848)
(0.00485963 -0.00991392 0.00420346)
(0.00512942 -0.0103824 0.00437047)
(0.00494152 -0.0104839 0.00432245)
(0.00488351 -0.0103731 0.00446281)
(0.00519714 -0.0108311 0.00454398)
(0.00501887 -0.0103261 0.00439084)
(0.00483662 -0.00979936 0.00399717)
(0.00474888 -0.0102984 0.00417077)
(0.00421273 -0.0109826 0.00450816)
(0.00523777 -0.0108325 0.00442146)
(0.00532537 -0.0110315 0.00476991)
(0.00483604 -0.0105156 0.00452632)
(0.0044757 -0.0107702 0.0039281)
(0.0049136 -0.0101411 0.00409468)
(0.00470488 -0.00974984 0.004361)
(0.0047282 -0.0100077 0.00447844)
(0.00500352 -0.0102934 0.00448456)
(0.00504263 -0.0102281 0.00429199)
(0.00463803 -0.00976919 0.00443303)
(0.00507475 -0.0102702 0.00420625)
(0.00499263 -0.00979069 0.0043295)
(0.00474952 -0.00944522 0.00423994)
(0.0049944 -0.00949834 0.00425922)
(0.0052857 -0.0109569 0.00455436)
(0.00507379 -0.0105298 0.00446529)
(0.00512942 -0.0102604 0.00447831)
(0.00510632 -0.0102713 0.00450514)
(0.00532969 -0.0108206 0.0046283)
(0.00525117 -0.0106323 0.00459347)
(0.00520781 -0.0104841 0.00457503)
(0.00532298 -0.0106979 0.00425783)
(0.00521171 -0.0103597 0.00434365)
(0.00526974 -0.0107043 0.00429462)
(0.00517599 -0.0105179 0.00436837)
(0.00474075 -0.00961371 0.00428327)
(0.00519399 -0.0104054 0.00409193)
(0.00542314 -0.0105544 0.00443623)
(0.00540184 -0.0103053 0.00437933)
(0.00518981 -0.0106966 0.00442442)
(0.0050148 -0.0098269 0.00396375)
(0.00503612 -0.0107828 0.00448724)
(0.00514179 -0.0106104 0.00460077)
(0.00491778 -0.010147 0.00414879)
(0.00535107 -0.0113308 0.00463708)
(0.00495148 -0.00994905 0.00443432)
(0.00491666 -0.0102609 0.00431016)
(0.00496895 -0.0102267 0.00416721)
(0.00498771 -0.00989035 0.00418025)
(0.00500397 -0.00982739 0.00409634)
(0.00485536 -0.0097114 0.00414114)
(0.00500901 -0.00996429 0.00433895)
(0.00511821 -0.00975765 0.00425025)
(0.00482137 -0.00951596 0.00408237)
(0.00485461 -0.00950274 0.00419609)
(0.00491474 -0.00971069 0.00414932)
(0.00505995 -0.00975645 0.00440431)
(0.00511837 -0.0103646 0.00444727)
(0.00515775 -0.0100709 0.00448144)
(0.00512837 -0.0099515 0.00452557)
(0.00491054 -0.0100362 0.00422301)
(0.00478277 -0.0108168 0.00441681)
(0.00504227 -0.00972652 0.00435163)
(0.00517739 -0.00995637 0.00428695)
(0.00498225 -0.00991021 0.0046307)
(0.00490755 -0.0103108 0.00408648)
(0.00569383 -0.010328 0.00473718)
(0.00470537 -0.0103124 0.00404629)
(0.00513553 -0.0107316 0.0040094)
(0.00508102 -0.0104143 0.00437481)
(0.00485148 -0.00940969 0.00396108)
(0.00571316 -0.00999313 0.00454032)
(0.00547626 -0.0101312 0.00464558)
(0.0048828 -0.00994802 0.00410265)
(0.00504199 -0.00983382 0.0042417)
(0.00574515 -0.0102906 0.00455969)
(0.00517666 -0.0100154 0.00406961)
(0.00509487 -0.00974446 0.00412931)
(0.00501701 -0.00979275 0.00417903)
(0.00530232 -0.0102738 0.00418673)
(0.00538108 -0.0102166 0.00418204)
(0.00565902 -0.0104197 0.00427222)
(0.00540565 -0.0102571 0.00419805)
(0.00517402 -0.00992645 0.0040819)
(0.00526341 -0.0100901 0.00419252)
(0.0055153 -0.0103103 0.00423223)
(0.0053715 -0.0106112 0.00435777)
(0.00549393 -0.0103922 0.00435164)
(0.00541747 -0.0107276 0.00453874)
(0.00544979 -0.0103209 0.00431522)
(0.00558167 -0.0105182 0.00428652)
(0.00528527 -0.0105465 0.0045689)
(0.00519981 -0.00996707 0.00420892)
(0.00524981 -0.0104135 0.0044253)
(0.00524136 -0.0105058 0.0043921)
(0.00551204 -0.0110423 0.00478724)
(0.00537601 -0.0105705 0.00455321)
(0.00520966 -0.00970986 0.00433652)
(0.00513256 -0.0106976 0.00443517)
(0.00536569 -0.0110125 0.00428565)
(0.00559098 -0.0108 0.00467187)
(0.00572319 -0.0108908 0.00487662)
(0.00582149 -0.0104561 0.00489334)
(0.00488797 -0.0102961 0.00423018)
(0.00526837 -0.0101773 0.00419305)
(0.00497181 -0.0100042 0.00422684)
(0.00586606 -0.0101281 0.00455909)
(0.00516124 -0.0099984 0.00437219)
(0.00495164 -0.00987549 0.00394551)
(0.00582389 -0.0113222 0.00476003)
(0.00523997 -0.0106981 0.00458831)
(0.00557152 -0.0105361 0.00457051)
(0.00552692 -0.0112532 0.00496179)
(0.00488783 -0.00980496 0.00416774)
(0.005579 -0.0106324 0.00456599)
(0.00582655 -0.0105788 0.00469337)
(0.00504962 -0.0101723 0.00406082)
(0.00513283 -0.0106311 0.0043394)
(0.00526119 -0.0108548 0.00423216)
(0.00533153 -0.0103841 0.00446897)
(0.00500999 -0.0104265 0.0042067)
(0.00553261 -0.0111025 0.00467884)
(0.00581592 -0.0107041 0.00493085)
(0.00537786 -0.0111464 0.00468897)
(0.00564429 -0.0111801 0.00486671)
(0.00579157 -0.0108479 0.00489532)
(0.00541975 -0.0107041 0.00471563)
(0.00568194 -0.0114225 0.00490883)
(0.00557451 -0.0115508 0.00496005)
(0.00586966 -0.011223 0.00462079)
(0.00570989 -0.0108007 0.00466107)
(0.00576593 -0.0104034 0.0043479)
(0.00561563 -0.0109681 0.00456511)
(0.00533661 -0.0101738 0.00452836)
(0.00519789 -0.00995783 0.00446397)
(0.00538305 -0.010557 0.00468094)
(0.00516075 -0.0101667 0.00424599)
(0.00492732 -0.0101243 0.0040171)
(0.00475578 -0.00976335 0.00385253)
(0.00490162 -0.0113047 0.00405922)
(0.00478768 -0.0102211 0.00373006)
(0.00534618 -0.0105233 0.00442075)
(0.00522631 -0.00999328 0.00432231)
(0.00534111 -0.0104934 0.00457393)
(0.00560308 -0.0109866 0.00480872)
(0.0050239 -0.0110063 0.0048188)
(0.00550632 -0.0104688 0.00451166)
(0.00525414 -0.0111558 0.00478797)
(0.00499301 -0.0108868 0.00498681)
(0.00497508 -0.0100499 0.00409619)
(0.00448803 -0.0103704 0.00447409)
(0.0049254 -0.0104398 0.0043272)
(0.00533671 -0.0110607 0.00445905)
(0.00496341 -0.0100877 0.00405589)
(0.00538224 -0.0103472 0.00414564)
(0.00525263 -0.0106857 0.00446892)
(0.0054121 -0.0100774 0.00409727)
(0.00518466 -0.0102808 0.00417477)
(0.00524566 -0.00996362 0.00417005)
(0.00530567 -0.0105415 0.00430626)
(0.00512831 -0.0102726 0.00413416)
(0.0053572 -0.0101559 0.00399744)
(0.00542055 -0.0113088 0.00473565)
(0.00508626 -0.0102914 0.00397909)
(0.00493187 -0.0105285 0.00402886)
(0.00493659 -0.0100491 0.00395558)
(0.00505173 -0.0103108 0.00449099)
(0.00481022 -0.0101731 0.00412501)
(0.00517232 -0.0102527 0.00435373)
(0.00510394 -0.0100656 0.00431164)
(0.00550164 -0.0101414 0.00458177)
(0.00522325 -0.0102801 0.00439235)
(0.00488937 -0.0102688 0.00385091)
(0.00517755 -0.0104412 0.00436865)
(0.00526462 -0.0106037 0.0043956)
(0.00524689 -0.0105055 0.00429509)
(0.00529563 -0.0107783 0.00447537)
(0.00546211 -0.0106199 0.0046967)
(0.00528401 -0.0104266 0.00427299)
(0.00527143 -0.0105819 0.00443281)
(0.00556648 -0.0105668 0.00440276)
(0.00520089 -0.0108034 0.00437164)
(0.00520441 -0.0104034 0.00433142)
(0.00517355 -0.010717 0.00430948)
(0.00520719 -0.0102177 0.00427456)
(0.00603909 -0.0107017 0.00492838)
(0.00526858 -0.010509 0.00427228)
(0.00511502 -0.0103949 0.00432009)
(0.00526305 -0.0106314 0.00438019)
(0.00547899 -0.0108481 0.00464322)
(0.00546906 -0.0107008 0.00435018)
(0.00543647 -0.0104667 0.0042968)
(0.0048456 -0.00994171 0.00427578)
(0.00498475 -0.0102955 0.00433946)
(0.00506644 -0.00999585 0.00403385)
(0.00487271 -0.0101824 0.00432716)
(0.00475933 -0.0099041 0.00424378)
(0.00481995 -0.00960465 0.00400947)
(0.00534391 -0.0109208 0.00466989)
(0.00510215 -0.0106715 0.00461231)
(0.00522044 -0.0104851 0.00440921)
(0.00521116 -0.0104762 0.00440414)
(0.00501794 -0.0104297 0.0043063)
(0.00494446 -0.0100303 0.00403324)
(0.00510048 -0.0105242 0.00436037)
(0.00485588 -0.00975013 0.00429524)
(0.00492123 -0.00991959 0.00405182)
(0.00490531 -0.00997637 0.00403684)
(0.00499222 -0.00993343 0.00425189)
(0.00531831 -0.0104046 0.0041593)
(0.00500331 -0.0101047 0.00424511)
(0.00502159 -0.010244 0.00466368)
(0.00531198 -0.0107535 0.00444032)
(0.00521409 -0.0106121 0.00440541)
(0.00514157 -0.0101697 0.00434988)
(0.00484772 -0.00969145 0.00401134)
(0.00508778 -0.0101426 0.00427584)
(0.0048798 -0.0100986 0.00430866)
(0.00521091 -0.0104723 0.00459425)
(0.00509789 -0.0102677 0.00441204)
(0.00502997 -0.0100302 0.00430722)
(0.00538449 -0.0107563 0.00439941)
(0.00511402 -0.0102278 0.0041947)
(0.00516969 -0.0104379 0.00424646)
(0.00500023 -0.0102125 0.00426846)
(0.00554904 -0.0106029 0.00420416)
(0.00514727 -0.0103003 0.00435951)
(0.00518187 -0.010393 0.0043597)
(0.00510027 -0.0102219 0.00422377)
(0.00521246 -0.0102956 0.00442838)
(0.00538035 -0.0103869 0.00412889)
(0.00477786 -0.0103996 0.00445876)
(0.00514374 -0.0104079 0.00415449)
(0.00560577 -0.0108562 0.00447569)
(0.00505981 -0.0100729 0.00442102)
(0.00504868 -0.0115039 0.00512223)
(0.00524189 -0.0105495 0.00467251)
(0.00479245 -0.0102479 0.0043007)
(0.00537378 -0.0112728 0.00485331)
(0.00529426 -0.01043 0.00440826)
(0.0051945 -0.0106392 0.00458243)
(0.0052293 -0.010874 0.0046723)
(0.00552521 -0.0108542 0.0044554)
(0.00511708 -0.0106023 0.0046229)
(0.00510057 -0.0100327 0.00396049)
(0.00523953 -0.0103696 0.00391606)
(0.00504844 -0.0100255 0.00422899)
(0.00522989 -0.0107206 0.00418028)
(0.00531173 -0.0101685 0.003913)
(0.00503535 -0.0100656 0.00432858)
(0.00520489 -0.0102549 0.00386556)
(0.00498981 -0.00995632 0.00419178)
(0.00504789 -0.0101705 0.00431376)
(0.00494784 -0.00999857 0.00414523)
(0.00525557 -0.0107267 0.00443811)
(0.0046504 -0.00959907 0.00408164)
(0.00539362 -0.0106909 0.00445251)
(0.00513065 -0.0101281 0.00416224)
(0.0051263 -0.0104944 0.00370402)
(0.00508805 -0.0108531 0.0041936)
(0.00550448 -0.0108166 0.00438296)
(0.00522984 -0.0112204 0.00427861)
(0.00517048 -0.0108092 0.00397797)
(0.00514461 -0.0108324 0.00392302)
(0.00526788 -0.0101013 0.004445)
(0.00510655 -0.0099051 0.00438258)
(0.00503601 -0.0097552 0.00407797)
(0.00522681 -0.0098595 0.00417632)
(0.00496558 -0.0100804 0.0040754)
(0.00499128 -0.00998336 0.00418916)
(0.00555171 -0.0106366 0.00427061)
(0.00610421 -0.0111077 0.00457509)
(0.00540175 -0.0103983 0.00436138)
(0.00551964 -0.0104737 0.00439879)
(0.00520888 -0.0106496 0.0045826)
(0.00516542 -0.0105003 0.00432616)
(0.00505874 -0.0107198 0.00431752)
(0.00562857 -0.0102357 0.00435488)
(0.00500105 -0.0102034 0.004266)
(0.0052872 -0.010799 0.00459822)
(0.00501527 -0.0101376 0.00418982)
(0.00547526 -0.0107956 0.00438127)
(0.00528796 -0.00994696 0.00425834)
(0.0049648 -0.0099406 0.00414226)
(0.00501789 -0.0106518 0.00438091)
(0.00486595 -0.010392 0.00438396)
(0.00516226 -0.0101489 0.00432626)
(0.00473988 -0.0100132 0.00423602)
(0.00495279 -0.0100496 0.00420371)
(0.00518662 -0.00992918 0.00402218)
(0.00575627 -0.0108463 0.0046015)
(0.00536091 -0.0103234 0.0041759)
(0.00518608 -0.0106183 0.00427416)
(0.00552863 -0.0107695 0.00430731)
(0.00514996 -0.0104571 0.00438512)
(0.00564976 -0.011215 0.00457477)
(0.00521474 -0.0112284 0.00455603)
(0.00538375 -0.0100195 0.00431448)
(0.0056918 -0.0114705 0.00449323)
(0.00500745 -0.0104964 0.00431287)
(0.00504439 -0.0113467 0.00456175)
(0.00496193 -0.0109658 0.004277)
(0.0053844 -0.0106619 0.00455732)
(0.00517834 -0.0107994 0.00458992)
(0.005097 -0.0106535 0.00442645)
(0.00488752 -0.0104928 0.00433864)
(0.005011 -0.0106438 0.00461697)
(0.00598607 -0.010382 0.00458121)
(0.00495938 -0.0096786 0.00410879)
(0.00495621 -0.00999772 0.00414729)
(0.00553757 -0.00978745 0.00433964)
(0.00543249 -0.00973861 0.00431781)
(0.00518074 -0.0103169 0.0043908)
(0.00482731 -0.00968599 0.00411135)
(0.00524522 -0.0101623 0.00432404)
(0.00549575 -0.0106288 0.00447859)
(0.00552483 -0.01012 0.00422586)
(0.00507043 -0.0101987 0.00445666)
(0.00498726 -0.00967536 0.00417729)
(0.00488096 -0.00993398 0.00422366)
(0.00506001 -0.0102558 0.004235)
(0.0052916 -0.0103649 0.0042826)
(0.00490979 -0.0101841 0.00431401)
(0.00538861 -0.0104347 0.00427704)
(0.00530965 -0.0102762 0.0041969)
(0.00525241 -0.0101843 0.00415451)
(0.00486571 -0.0105961 0.00452509)
(0.00494772 -0.0100602 0.00418206)
(0.00535478 -0.0106019 0.00439271)
(0.0046878 -0.00985498 0.00412832)
(0.00498241 -0.00979843 0.00395827)
(0.00485429 -0.00977183 0.00411807)
(0.00500422 -0.00986667 0.00414674)
(0.00556302 -0.0106207 0.00419338)
(0.00545868 -0.0107752 0.00428041)
(0.00537335 -0.0104964 0.00409487)
(0.00528789 -0.0104625 0.00448771)
(0.00548448 -0.0107828 0.00449538)
(0.00512032 -0.0105205 0.00449302)
(0.00518074 -0.0103623 0.00438483)
(0.00536401 -0.0105465 0.00415691)
(0.00512194 -0.0104054 0.00456154)
(0.00494862 -0.00996481 0.00406967)
(0.00519906 -0.0101276 0.0039586)
(0.0050949 -0.0100586 0.00436206)
(0.00510898 -0.0101456 0.00437156)
(0.00579176 -0.0113321 0.0043738)
(0.00486737 -0.00986863 0.00443041)
(0.00516893 -0.010189 0.00431531)
(0.00497857 -0.0102376 0.00442929)
(0.00540309 -0.0107556 0.00460266)
(0.00502566 -0.0101535 0.00433793)
(0.00572351 -0.0107805 0.00516336)
(0.0052346 -0.0105014 0.00463827)
(0.00544613 -0.0107576 0.00453646)
(0.00578363 -0.0112011 0.00511313)
(0.00560267 -0.011035 0.00444713)
(0.0056743 -0.0110328 0.00485199)
(0.00528183 -0.0111585 0.00427583)
(0.00520067 -0.0106968 0.00455031)
(0.0051942 -0.0110204 0.00423551)
(0.00455203 -0.0103915 0.00398637)
(0.00536279 -0.0106974 0.00462048)
(0.00458884 -0.0115207 0.00408897)
(0.00477412 -0.0105347 0.00403669)
(0.00499849 -0.0116973 0.00482952)
(0.00553676 -0.0110265 0.00463366)
(0.00550429 -0.012084 0.0046623)
(0.00539125 -0.0107552 0.00461541)
(0.00523777 -0.0108636 0.00468241)
(0.00598149 -0.0116049 0.00498867)
(0.00565458 -0.0112443 0.00447652)
(0.00574758 -0.01112 0.0048)
(0.00534822 -0.0103713 0.00426843)
(0.00523829 -0.0102906 0.00424187)
(0.00546795 -0.0111825 0.00488718)
(0.00588049 -0.0112333 0.004391)
(0.00533207 -0.0105807 0.00475463)
(0.00541074 -0.0106153 0.00439063)
(0.00532268 -0.0106152 0.00458439)
(0.00506171 -0.0102756 0.00464396)
(0.00525014 -0.0104919 0.00472872)
(0.00558016 -0.0108393 0.00465682)
(0.00581716 -0.0114588 0.00465925)
(0.00561215 -0.0113218 0.00433669)
(0.0050682 -0.0106919 0.00474957)
(0.00553201 -0.0114596 0.00496692)
(0.00578715 -0.0110663 0.00434776)
(0.00531784 -0.0104838 0.00500362)
(0.00498738 -0.0100858 0.00425166)
(0.00509523 -0.0105966 0.00438757)
(0.00552881 -0.0106908 0.00517746)
(0.00518561 -0.0100547 0.00488691)
(0.00536225 -0.0107924 0.00425801)
(0.00491107 -0.00978507 0.00427648)
(0.00523032 -0.0104483 0.00434119)
(0.00543165 -0.0107843 0.0050354)
(0.00541641 -0.0105314 0.00497373)
(0.00508718 -0.0104217 0.00458909)
(0.00506292 -0.0100292 0.0046929)
(0.00542968 -0.0105687 0.0049569)
(0.00535766 -0.0103848 0.00463191)
(0.00535736 -0.0108766 0.0051898)
(0.00526367 -0.0100919 0.00433463)
(0.00497172 -0.00967524 0.00454347)
(0.00537405 -0.0108584 0.00458283)
(0.00522753 -0.0101846 0.0041906)
(0.00513686 -0.00985005 0.00429592)
(0.00547834 -0.0104636 0.00437317)
(0.00479804 -0.00953107 0.00402356)
(0.00523069 -0.0102061 0.0041914)
(0.00518547 -0.0105977 0.00429305)
(0.00488873 -0.0094718 0.00458023)
(0.00483271 -0.0093148 0.00432488)
(0.00472018 -0.00981016 0.00424142)
(0.00497545 -0.00963698 0.00444078)
(0.00510099 -0.0098596 0.00447612)
(0.0049999 -0.00954492 0.00472807)
(0.00499281 -0.0100792 0.00456277)
(0.00499744 -0.00999806 0.00452675)
(0.00503395 -0.0100339 0.00465799)
(0.00492156 -0.00985077 0.00450597)
(0.00497269 -0.00993095 0.00434933)
(0.00486391 -0.00963138 0.00442496)
(0.00503994 -0.0108097 0.00483645)
(0.00487189 -0.0104057 0.00465864)
(0.00503156 -0.0104578 0.004467)
(0.00489296 -0.0102957 0.00455589)
(0.00472071 -0.00996212 0.00436507)
(0.00480692 -0.0100376 0.00438837)
(0.00592494 -0.0113117 0.00489687)
(0.00548827 -0.011013 0.00503136)
(0.00548066 -0.0113085 0.00478074)
(0.0057471 -0.0114392 0.00472146)
(0.00534606 -0.010592 0.00444351)
(0.00521554 -0.0106914 0.00471296)
(0.00562135 -0.0113962 0.00471313)
(0.00524605 -0.0106034 0.00462324)
(0.00575784 -0.0112681 0.00468053)
(0.00534129 -0.0106165 0.0048467)
(0.00560015 -0.0111604 0.00491801)
(0.00561085 -0.0113254 0.00453393)
(0.00521975 -0.0105039 0.00447844)
(0.00528115 -0.0105879 0.00469837)
(0.00542507 -0.010952 0.00478368)
(0.00534392 -0.0107902 0.00470186)
(0.00545283 -0.010908 0.00463639)
(0.00544552 -0.0110395 0.00453192)
(0.00571297 -0.0113539 0.00471697)
(0.00549345 -0.0107435 0.0048936)
(0.00519064 -0.0105475 0.00415627)
(0.00567753 -0.0105269 0.00494665)
(0.00534837 -0.0106597 0.00436763)
(0.00550434 -0.0104328 0.00476108)
(0.00488542 -0.0109741 0.00401572)
(0.00516878 -0.0105363 0.00431109)
(0.00555898 -0.0109741 0.00466707)
(0.00477559 -0.0104057 0.00390673)
(0.00480762 -0.0105627 0.00379298)
(0.00500918 -0.0100335 0.00435705)
(0.00500283 -0.0102726 0.00372944)
(0.00466512 -0.00987916 0.0035373)
(0.00541671 -0.0106068 0.00447832)
(0.0051837 -0.0108623 0.00430928)
(0.00528452 -0.0100023 0.00429149)
(0.00521392 -0.0110115 0.00393043)
(0.00498104 -0.0100047 0.00428969)
(0.00539295 -0.0108154 0.00422798)
(0.00548193 -0.0111255 0.00441893)
(0.00508637 -0.0103688 0.00441796)
(0.00542805 -0.0107864 0.00445493)
(0.00536306 -0.0106274 0.00471326)
(0.00533062 -0.0107525 0.00452468)
(0.00510518 -0.0103103 0.00450111)
(0.00524746 -0.0104052 0.00430233)
(0.00513494 -0.0104241 0.00434943)
(0.00511983 -0.0101575 0.00427443)
(0.00541546 -0.0103005 0.00435444)
(0.00483374 -0.0106303 0.00415567)
(0.00473288 -0.010567 0.00406929)
(0.00547808 -0.0104006 0.00432623)
(0.00462147 -0.0107031 0.00410994)
(0.00551425 -0.010863 0.0046448)
(0.00517457 -0.0106881 0.00430009)
(0.00531834 -0.0111591 0.00458953)
(0.00463016 -0.0107186 0.00425783)
(0.00510666 -0.010824 0.00439022)
(0.00535811 -0.0110048 0.00435291)
(0.00446152 -0.00997857 0.00391296)
(0.00484053 -0.0108567 0.00437444)
(0.00526041 -0.0103868 0.00425832)
(0.00540334 -0.0107483 0.00442457)
(0.00501042 -0.0101996 0.00459315)
(0.00547081 -0.010707 0.00451031)
(0.00509168 -0.0102084 0.00432154)
(0.00516506 -0.0103105 0.00416465)
(0.0049942 -0.0101859 0.00427327)
(0.00512377 -0.0104364 0.00436305)
(0.00532573 -0.00976942 0.00458271)
(0.00498546 -0.00983897 0.00429487)
(0.0050989 -0.0102672 0.00449068)
(0.00514468 -0.00983979 0.00463158)
(0.00483488 -0.00990608 0.00394929)
(0.00507902 -0.0100209 0.00447657)
(0.00519907 -0.0101014 0.00425941)
(0.00523604 -0.0105926 0.00466497)
(0.00537582 -0.0104623 0.00449054)
(0.00516268 -0.0100867 0.00408963)
(0.00526887 -0.0102955 0.00470937)
(0.00534336 -0.0102544 0.00430691)
(0.00509087 -0.0100789 0.00428003)
(0.00492909 -0.0101614 0.00435243)
(0.00576608 -0.0112565 0.00484828)
(0.00514106 -0.0099455 0.00406607)
(0.00523252 -0.0103463 0.00408154)
(0.00521539 -0.0106616 0.00428027)
(0.00499647 -0.0100329 0.00423668)
(0.00473736 -0.0104396 0.00419193)
(0.0048311 -0.0106746 0.00393703)
(0.00504221 -0.0104526 0.0045445)
(0.00514111 -0.0110811 0.00453225)
(0.00517306 -0.0103623 0.00406898)
(0.00497327 -0.0101557 0.00424479)
(0.00525284 -0.0104428 0.00420355)
(0.00517064 -0.0101499 0.00394146)
(0.00501532 -0.00988301 0.00391826)
(0.0049126 -0.0098534 0.00405805)
(0.00536104 -0.0102688 0.00432963)
(0.00565965 -0.0109319 0.00457011)
(0.00490465 -0.0109555 0.00441284)
(0.00525368 -0.0106102 0.00439809)
(0.00503231 -0.0100169 0.00422419)
(0.00585767 -0.0112635 0.0043931)
(0.00499616 -0.00980414 0.00391228)
(0.00480336 -0.00948969 0.00412756)
(0.00566963 -0.0109921 0.00450133)
(0.00498115 -0.00977406 0.00382901)
(0.00588206 -0.0112447 0.00449957)
(0.00526331 -0.010652 0.00453882)
(0.00527342 -0.0104938 0.00449163)
(0.0051881 -0.0105069 0.00442444)
(0.00548389 -0.0108092 0.00462513)
(0.00511412 -0.0105732 0.00444648)
(0.00517686 -0.0104839 0.00471786)
(0.00531879 -0.0105848 0.00507198)
(0.0054344 -0.0106713 0.0048365)
(0.00505969 -0.00970052 0.00425747)
(0.00480446 -0.00983757 0.00411167)
(0.00492286 -0.00932061 0.00462093)
(0.00504639 -0.0102081 0.00411751)
(0.00491797 -0.00984474 0.00424999)
(0.005275 -0.0100264 0.00450342)
(0.00489802 -0.0100115 0.00419825)
(0.00573754 -0.0110776 0.00466671)
(0.00519845 -0.0109858 0.00460677)
(0.00551407 -0.0109142 0.00435266)
(0.00498263 -0.00985018 0.004386)
(0.00515112 -0.0102487 0.00451825)
(0.00506124 -0.00974002 0.00448517)
(0.00468623 -0.00962425 0.00424063)
(0.00439593 -0.00941292 0.00371405)
(0.00505637 -0.0102991 0.00423894)
(0.00526391 -0.0107417 0.00442435)
(0.00510587 -0.01099 0.00484921)
(0.00516109 -0.0104977 0.00439441)
(0.00508814 -0.0102061 0.0041819)
(0.005787 -0.0116475 0.00504824)
(0.00535382 -0.010969 0.00457585)
(0.00560087 -0.0111465 0.00474595)
(0.00537759 -0.0106395 0.00444661)
(0.00512408 -0.010386 0.00421941)
(0.00516175 -0.0106185 0.00435702)
(0.00522499 -0.0106012 0.00426953)
(0.00515707 -0.01059 0.0043364)
(0.00521627 -0.0105964 0.00456581)
(0.00506888 -0.0102491 0.00467805)
(0.00524948 -0.0106216 0.00420643)
(0.00501903 -0.0104404 0.00429333)
(0.00504607 -0.0102526 0.00393694)
(0.00557534 -0.0111561 0.00436173)
(0.00494168 -0.010005 0.00405573)
(0.0049726 -0.0101431 0.00418503)
(0.00532463 -0.0103004 0.00412554)
(0.0053687 -0.0104887 0.00435413)
(0.00536081 -0.0103321 0.00394027)
(0.00542005 -0.0103083 0.00413267)
(0.00538229 -0.0104622 0.00433496)
(0.00536869 -0.0105125 0.004098)
(0.00535919 -0.0106763 0.00443811)
(0.00526199 -0.0106663 0.00451114)
(0.00556108 -0.011144 0.00456344)
(0.00558028 -0.0113796 0.00429361)
(0.0058822 -0.0112616 0.00449229)
(0.00513148 -0.010069 0.0042664)
(0.00550396 -0.0110602 0.00458245)
(0.00518466 -0.0104007 0.0046497)
(0.00524158 -0.0106284 0.00466784)
(0.00503454 -0.0104402 0.00451479)
(0.00566673 -0.0113301 0.00450927)
(0.00529327 -0.0106536 0.00472801)
(0.00547638 -0.0107262 0.00421961)
(0.00535089 -0.0107759 0.0044965)
(0.00548632 -0.0105724 0.00407573)
(0.00553392 -0.0106862 0.00413735)
(0.00518629 -0.0103653 0.00416171)
(0.00515892 -0.0106188 0.00441074)
(0.00546127 -0.0104219 0.0042535)
(0.00530995 -0.0108847 0.00467453)
(0.00532261 -0.0105866 0.00421109)
(0.00548037 -0.0113035 0.00449918)
(0.00519497 -0.0105783 0.00415699)
(0.00511363 -0.00996396 0.00422897)
(0.00570654 -0.0107902 0.00457733)
(0.00565789 -0.0109041 0.00453809)
(0.005373 -0.00987561 0.00445624)
(0.00565241 -0.0114271 0.00477173)
(0.00481612 -0.0113327 0.00463723)
(0.00498993 -0.0107071 0.00440255)
(0.00465297 -0.0114018 0.00443299)
(0.00542352 -0.0111387 0.00458745)
(0.00511834 -0.0109982 0.0042182)
(0.00453115 -0.0113453 0.00427766)
(0.00518764 -0.0109054 0.00407643)
(0.00513196 -0.0112586 0.00407204)
(0.00509774 -0.0103046 0.00404559)
(0.00549969 -0.0103908 0.00453506)
(0.00558648 -0.0104035 0.00460507)
(0.0048222 -0.0105764 0.00409599)
(0.00516753 -0.0109302 0.0041224)
(0.00518356 -0.0107958 0.00450013)
(0.00519576 -0.0104321 0.00425426)
(0.00506689 -0.0106204 0.00445182)
(0.00595443 -0.0112173 0.00503106)
(0.00565607 -0.0108468 0.00467213)
(0.00515739 -0.010416 0.00412746)
(0.00555806 -0.0105687 0.00486164)
(0.0053843 -0.00962117 0.00451901)
(0.00593724 -0.0107445 0.00504941)
(0.00520206 -0.0109561 0.00433909)
(0.00587652 -0.0113325 0.00459905)
(0.00536487 -0.0107178 0.00444104)
(0.00478961 -0.0100429 0.00398555)
(0.00503847 -0.0105801 0.00417321)
(0.00498085 -0.00978918 0.00407607)
(0.00486084 -0.00977736 0.00399157)
(0.00503834 -0.0100824 0.00411878)
(0.00516875 -0.0104075 0.00399036)
(0.00505993 -0.0100934 0.00412862)
(0.00486004 -0.00991949 0.00419445)
(0.00487451 -0.00979951 0.00385251)
(0.00509054 -0.0102385 0.00447678)
(0.00502751 -0.0100792 0.00435753)
(0.0050773 -0.00999149 0.00388733)
(0.00504216 -0.00997445 0.00386564)
(0.00558627 -0.0109213 0.00441235)
(0.00569071 -0.0113914 0.00498787)
(0.00506846 -0.0100145 0.00414482)
(0.00485524 -0.00997575 0.00423945)
(0.00493253 -0.010046 0.00420615)
(0.00564953 -0.0106267 0.00474792)
(0.00520141 -0.00967311 0.00453423)
(0.00547315 -0.0105547 0.00472472)
(0.00547255 -0.0100323 0.00457677)
(0.00490215 -0.00957062 0.00405701)
(0.00506595 -0.0102488 0.00414495)
(0.00489521 -0.00983673 0.00421236)
(0.00519589 -0.00999623 0.00433291)
(0.00535356 -0.0100917 0.00436492)
(0.00541283 -0.010203 0.00458494)
(0.00533845 -0.0101538 0.00467068)
(0.00524752 -0.0104168 0.00445511)
(0.00512723 -0.00990944 0.00428196)
(0.00559957 -0.010519 0.0045786)
(0.00513627 -0.0104783 0.00420232)
(0.00554203 -0.0112783 0.00474201)
(0.00539694 -0.0112087 0.00460602)
(0.0056007 -0.0108317 0.00453969)
(0.005558 -0.0108841 0.00456311)
(0.00541796 -0.0105213 0.0044453)
(0.00515465 -0.0103848 0.00429513)
(0.00534082 -0.0106461 0.00450776)
(0.005254 -0.0107932 0.00442811)
(0.00526202 -0.0106237 0.00442876)
(0.00546815 -0.0103699 0.00422218)
(0.00549419 -0.0107141 0.00445873)
(0.00518345 -0.0109077 0.00442743)
(0.00527842 -0.0118425 0.00476646)
(0.00531901 -0.0110286 0.00463031)
(0.00516969 -0.0110162 0.00465972)
(0.0054576 -0.010742 0.00431676)
(0.0053625 -0.0095225 0.00417845)
(0.0052716 -0.0106716 0.00449025)
(0.00494086 -0.0102932 0.00407913)
(0.00513219 -0.0100811 0.00448998)