/*--------------------------------*- C++ -*----------------------------------*\
| =========                 |                                                 |
| \\      /  F ield         | OpenFOAM: The Open Source CFD Toolbox           |
|  \\    /   O peration     | Version:  v1612+                                |
|   \\  /    A nd           | Web:      www.OpenFOAM.com                      |
|    \\/     M anipulation  |                                                 |
\*---------------------------------------------------------------------------*/
FoamFile
{
    version     2.0;
    format      ascii;
    class       volVectorField;
    location    "239";
    object      U;
}
// * * * * * * * * * * * * * * * * * * * * * * * * * * * * * * * * * * * * * //

dimensions      [0 1 -1 0 0 0 0];

internalField   nonuniform List<vector> 
16844
(
(-0.231329 0.291358 -0.511989)
(-0.302849 0.358722 -0.677641)
(-0.289707 0.353904 -0.657747)
(-0.280365 0.340175 -0.639243)
(-0.303592 0.370514 -0.686351)
(-0.298334 0.362802 -0.671306)
(-0.254336 0.314761 -0.579927)
(-0.24056 0.287834 -0.541554)
(-0.292328 0.35862 -0.663115)
(-0.252872 0.310758 -0.579759)
(-0.250236 0.304704 -0.57426)
(-0.238093 0.290741 -0.543979)
(-0.273647 0.331091 -0.611142)
(-0.235807 0.28643 -0.535976)
(-0.215383 0.262193 -0.497519)
(-0.2475 0.305593 -0.57442)
(-0.242548 0.294116 -0.55438)
(-0.240761 0.295165 -0.542839)
(-0.214007 0.261311 -0.491371)
(-0.221443 0.271232 -0.514629)
(-0.335451 0.397115 -0.734247)
(-0.330868 0.394368 -0.723807)
(-0.35136 0.414787 -0.757395)
(-0.349768 0.416923 -0.773344)
(-0.345396 0.411705 -0.760197)
(-0.294964 0.359121 -0.655757)
(-0.306625 0.374987 -0.685964)
(-0.313542 0.379213 -0.697166)
(-0.314062 0.373491 -0.693413)
(-0.333319 0.397094 -0.734424)
(-0.343501 0.413967 -0.759188)
(-0.346181 0.421242 -0.766099)
(-0.287469 0.342518 -0.627584)
(-0.324898 0.385531 -0.709646)
(-0.323286 0.390985 -0.70473)
(-0.313297 0.371524 -0.686655)
(-0.325785 0.401391 -0.739817)
(-0.340636 0.423433 -0.776645)
(-0.340688 0.421266 -0.774032)
(-0.313468 0.386386 -0.716388)
(-0.333463 0.407429 -0.743216)
(-0.345507 0.425057 -0.770654)
(-0.312484 0.388012 -0.704226)
(-0.31449 0.390655 -0.716533)
(-0.335268 0.413302 -0.755844)
(-0.349423 0.430912 -0.788378)
(-0.351828 0.43422 -0.802436)
(-0.299374 0.369199 -0.679376)
(-0.344601 0.423024 -0.775697)
(-0.355299 0.444247 -0.814246)
(-0.351248 0.43525 -0.799292)
(-0.339846 0.417472 -0.76685)
(-0.24189 0.294352 -0.542801)
(-0.261422 0.309011 -0.573626)
(-0.296286 0.367141 -0.685435)
(-0.296361 0.365273 -0.682826)
(-0.286085 0.347603 -0.661154)
(-0.300219 0.369497 -0.695665)
(-0.24646 0.284532 -0.534762)
(-0.229656 0.265353 -0.499651)
(-0.26031 0.311469 -0.580506)
(-0.282357 0.338237 -0.641754)
(-0.285397 0.338451 -0.640564)
(-0.245691 0.294189 -0.548925)
(-0.224453 0.276579 -0.498659)
(-0.268093 0.319052 -0.608135)
(-0.329141 0.407559 -0.74677)
(-0.297164 0.365523 -0.659144)
(-0.312607 0.383674 -0.705319)
(-0.291428 0.353477 -0.644889)
(-0.294671 0.367047 -0.670914)
(-0.338865 0.41727 -0.753098)
(-0.327275 0.400462 -0.730138)
(-0.305042 0.383238 -0.676949)
(-0.307658 0.355398 -0.664147)
(-0.360415 0.4328 -0.800537)
(-0.346173 0.427191 -0.774868)
(-0.328879 0.392481 -0.718572)
(-0.337298 0.418 -0.7498)
(-0.360156 0.434445 -0.801871)
(-0.342156 0.419428 -0.760438)
(-0.363526 0.435154 -0.802613)
(-0.33035 0.412439 -0.74329)
(-0.340798 0.423436 -0.754792)
(-0.263616 0.318951 -0.589141)
(-0.23744 0.284363 -0.532795)
(-0.316305 0.390865 -0.721007)
(-0.297005 0.36539 -0.675299)
(-0.307249 0.375951 -0.707719)
(-0.313354 0.378665 -0.695492)
(-0.266941 0.321809 -0.593706)
(-0.232205 0.273896 -0.529006)
(-0.21941 0.257841 -0.492558)
(-0.302087 0.363063 -0.674693)
(-0.301387 0.358258 -0.665733)
(-0.250005 0.301467 -0.566224)
(-0.30259 0.369345 -0.694234)
(-0.247282 0.296574 -0.554255)
(-0.21748 0.271009 -0.501787)
(-0.269476 0.314885 -0.597619)
(-0.255008 0.302858 -0.571551)
(-0.231572 0.280393 -0.528995)
(-0.245788 0.298138 -0.56396)
(-0.293759 0.353871 -0.653136)
(-0.298359 0.359587 -0.662148)
(-0.268511 0.315518 -0.583848)
(-0.264704 0.322418 -0.579093)
(-0.258167 0.325866 -0.596955)
(-0.246731 0.295614 -0.54437)
(-0.256884 0.30097 -0.554655)
(-0.23698 0.288026 -0.522217)
(-0.235155 0.289503 -0.529281)
(-0.250721 0.310808 -0.564286)
(-0.304357 0.360998 -0.665259)
(-0.262841 0.310532 -0.573511)
(-0.252511 0.293641 -0.544951)
(-0.242743 0.282251 -0.531911)
(-0.228281 0.274923 -0.499103)
(-0.322406 0.391749 -0.720732)
(-0.308662 0.374509 -0.692794)
(-0.272715 0.319696 -0.598812)
(-0.244428 0.305021 -0.560097)
(-0.228561 0.272412 -0.49147)
(-0.303785 0.369564 -0.673418)
(-0.277781 0.331182 -0.619276)
(-0.39383 0.481308 -0.883054)
(-0.383129 0.468079 -0.866871)
(-0.381531 0.468379 -0.862805)
(-0.39073 0.479567 -0.878714)
(-0.386237 0.474489 -0.873692)
(-0.379851 0.461943 -0.854361)
(-0.374988 0.45665 -0.847628)
(-0.382206 0.463897 -0.855887)
(-0.394135 0.482821 -0.88774)
(-0.387067 0.475621 -0.86804)
(-0.395297 0.484052 -0.886638)
(-0.390137 0.47948 -0.880309)
(-0.366337 0.452827 -0.831267)
(-0.36824 0.45558 -0.829043)
(-0.391193 0.479503 -0.884864)
(-0.385481 0.47369 -0.870327)
(-0.389092 0.473859 -0.866173)
(-0.377395 0.463886 -0.845221)
(-0.277621 0.331523 -0.619334)
(-0.280139 0.338144 -0.629674)
(-0.253614 0.304775 -0.571363)
(-0.269479 0.319503 -0.599859)
(-0.298122 0.368721 -0.692905)
(-0.2892 0.361492 -0.670764)
(-0.296528 0.3591 -0.678999)
(-0.263809 0.320006 -0.597622)
(-0.306865 0.379767 -0.703851)
(-0.250138 0.305311 -0.569373)
(-0.223387 0.275985 -0.51133)
(-0.253844 0.295917 -0.559683)
(-0.232044 0.273694 -0.522596)
(-0.384041 0.467669 -0.859454)
(-0.38488 0.46272 -0.848728)
(-0.384743 0.464549 -0.851426)
(-0.386316 0.466165 -0.854553)
(-0.384048 0.467011 -0.854805)
(-0.381668 0.464908 -0.855817)
(-0.381647 0.463073 -0.855985)
(-0.386428 0.468566 -0.858222)
(-0.382783 0.462795 -0.853018)
(-0.384336 0.465539 -0.854678)
(-0.383516 0.46707 -0.855786)
(-0.3831 0.462735 -0.847582)
(-0.384657 0.46593 -0.850267)
(-0.384101 0.46617 -0.858383)
(-0.385495 0.464747 -0.855571)
(-0.381128 0.458376 -0.845027)
(-0.381882 0.463234 -0.850118)
(-0.324559 0.389171 -0.727547)
(-0.30717 0.372101 -0.700721)
(-0.308006 0.364217 -0.685033)
(-0.303694 0.372828 -0.700595)
(-0.306417 0.364737 -0.685867)
(-0.34911 0.422655 -0.787182)
(-0.356006 0.430789 -0.806254)
(-0.354936 0.427246 -0.80112)
(-0.311867 0.369889 -0.702386)
(-0.332977 0.403443 -0.753154)
(-0.345364 0.417534 -0.782753)
(-0.349843 0.420656 -0.794994)
(-0.326025 0.389748 -0.724728)
(-0.3294 0.402239 -0.745481)
(-0.392642 0.477985 -0.872941)
(-0.392658 0.476004 -0.87589)
(-0.392016 0.476002 -0.874333)
(-0.390504 0.471476 -0.867345)
(-0.395255 0.478388 -0.882169)
(-0.390972 0.472258 -0.870069)
(-0.386806 0.467561 -0.858513)
(-0.388304 0.46899 -0.863929)
(-0.385508 0.464966 -0.853827)
(-0.388201 0.467264 -0.85859)
(-0.384742 0.463895 -0.849761)
(-0.387764 0.466384 -0.859859)
(-0.383775 0.460571 -0.845605)
(-0.387368 0.465741 -0.861738)
(-0.381225 0.45608 -0.838085)
(-0.38368 0.460962 -0.850072)
(-0.270983 0.324246 -0.601316)
(-0.286723 0.341064 -0.634989)
(-0.27631 0.337671 -0.627447)
(-0.284753 0.340185 -0.634971)
(-0.282844 0.337052 -0.636957)
(-0.347547 0.409285 -0.762452)
(-0.341008 0.408919 -0.767455)
(-0.316088 0.380918 -0.708559)
(-0.317752 0.385966 -0.708875)
(-0.338204 0.409144 -0.759346)
(-0.311019 0.378406 -0.699229)
(-0.282151 0.329486 -0.622426)
(-0.314668 0.380608 -0.706045)
(-0.328439 0.385201 -0.724207)
(-0.340342 0.399845 -0.753871)
(-0.336969 0.405787 -0.750149)
(-0.351501 0.417922 -0.782346)
(-0.354709 0.42689 -0.799937)
(-0.341366 0.407492 -0.767516)
(-0.326386 0.389977 -0.723788)
(-0.334381 0.398149 -0.749409)
(-0.348614 0.425769 -0.790789)
(-0.314249 0.377955 -0.688271)
(-0.305644 0.367978 -0.678039)
(-0.274631 0.342626 -0.623113)
(-0.261148 0.320232 -0.577453)
(-0.330056 0.401743 -0.727895)
(-0.25882 0.311485 -0.56472)
(-0.256278 0.317334 -0.576148)
(-0.230562 0.28778 -0.515581)
(-0.263201 0.328488 -0.59097)
(-0.252985 0.309246 -0.564637)
(-0.273239 0.337757 -0.612358)
(-0.2587 0.320389 -0.57696)
(-0.245109 0.293171 -0.532091)
(-0.308157 0.376806 -0.684776)
(-0.247886 0.305245 -0.548046)
(-0.276418 0.339221 -0.613111)
(-0.308879 0.381652 -0.688361)
(-0.260186 0.317815 -0.57726)
(-0.272208 0.338808 -0.61084)
(-0.316098 0.386529 -0.6992)
(-0.244239 0.297032 -0.532673)
(-0.257576 0.309382 -0.574841)
(-0.263521 0.321236 -0.581823)
(-0.237207 0.288121 -0.511965)
(-0.249257 0.300937 -0.55204)
(-0.243619 0.28452 -0.520767)
(-0.302931 0.360083 -0.663891)
(-0.31235 0.369461 -0.6826)
(-0.223564 0.276101 -0.490274)
(-0.245824 0.298798 -0.546394)
(-0.276609 0.32814 -0.60452)
(-0.260286 0.320004 -0.581851)
(-0.235629 0.275531 -0.51191)
(-0.259009 0.309342 -0.56617)
(-0.239332 0.29382 -0.530373)
(-0.268769 0.330721 -0.59493)
(-0.24961 0.299618 -0.552187)
(-0.307023 0.368629 -0.678985)
(-0.308881 0.374498 -0.6835)
(-0.321831 0.382149 -0.697526)
(-0.315539 0.378637 -0.696436)
(-0.339636 0.412866 -0.751318)
(-0.355841 0.430551 -0.785054)
(-0.313508 0.38458 -0.696809)
(-0.322393 0.388213 -0.716543)
(-0.318369 0.38252 -0.698564)
(-0.364409 0.440398 -0.798657)
(-0.361914 0.438175 -0.797189)
(-0.359674 0.433947 -0.790355)
(-0.322423 0.394093 -0.721604)
(-0.320186 0.382362 -0.70673)
(-0.324832 0.396344 -0.720893)
(-0.349164 0.422661 -0.778543)
(-0.349836 0.423513 -0.770307)
(-0.36589 0.438 -0.80228)
(-0.339183 0.411669 -0.746773)
(-0.337625 0.408239 -0.761033)
(-0.331049 0.393452 -0.737888)
(-0.246244 0.303352 -0.562286)
(-0.278683 0.337738 -0.621418)
(-0.298927 0.36609 -0.676185)
(-0.273347 0.337717 -0.612294)
(-0.252408 0.315492 -0.574066)
(-0.270264 0.328683 -0.615901)
(-0.313607 0.383911 -0.704259)
(-0.316799 0.3851 -0.719043)
(-0.258615 0.324276 -0.597854)
(-0.233389 0.290626 -0.532507)
(-0.277536 0.343337 -0.620527)
(-0.252838 0.313279 -0.570816)
(-0.225222 0.273897 -0.519665)
(-0.242023 0.295189 -0.552141)
(-0.241776 0.305777 -0.560309)
(-0.25881 0.315984 -0.588707)
(-0.260709 0.320204 -0.592754)
(-0.2681 0.3467 -0.621254)
(-0.273707 0.346978 -0.627646)
(-0.281729 0.33877 -0.624914)
(-0.254495 0.305556 -0.570811)
(-0.309735 0.375165 -0.689956)
(-0.296785 0.367587 -0.670062)
(-0.25165 0.302354 -0.560406)
(-0.266138 0.324602 -0.592889)
(-0.260141 0.324006 -0.590614)
(-0.258185 0.321421 -0.586852)
(-0.269377 0.336498 -0.598152)
(-0.226413 0.257749 -0.507618)
(-0.293393 0.352432 -0.652729)
(-0.285821 0.354675 -0.629778)
(-0.25351 0.311797 -0.576586)
(-0.238154 0.286094 -0.536721)
(-0.251531 0.308191 -0.562737)
(-0.220535 0.263406 -0.507491)
(-0.250456 0.300741 -0.558475)
(-0.217779 0.270876 -0.508722)
(-0.235179 0.289889 -0.546)
(-0.277112 0.333612 -0.620085)
(-0.291169 0.345008 -0.630383)
(-0.308842 0.371505 -0.704453)
(-0.308003 0.369611 -0.689292)
(-0.259445 0.311732 -0.562986)
(-0.254796 0.321275 -0.576496)
(-0.251865 0.300854 -0.555632)
(-0.224598 0.272038 -0.497653)
(-0.28428 0.33764 -0.612924)
(-0.306592 0.366606 -0.678549)
(-0.29698 0.357457 -0.656881)
(-0.251686 0.305914 -0.552847)
(-0.243357 0.29672 -0.531821)
(-0.273163 0.32511 -0.587819)
(-0.244286 0.293324 -0.536446)
(-0.234361 0.283568 -0.520629)
(-0.26802 0.324015 -0.592617)
(-0.303799 0.3639 -0.668498)
(-0.301534 0.366582 -0.673795)
(-0.243787 0.305084 -0.544188)
(-0.248983 0.298557 -0.556375)
(-0.25849 0.312269 -0.567667)
(-0.302568 0.361091 -0.662233)
(-0.296138 0.36098 -0.667011)
(-0.262115 0.325589 -0.596329)
(-0.244997 0.293085 -0.538786)
(-0.252507 0.315481 -0.580289)
(-0.267053 0.323461 -0.594581)
(-0.281269 0.336721 -0.628919)
(-0.30093 0.365676 -0.687913)
(-0.327572 0.394752 -0.734147)
(-0.309507 0.372008 -0.698383)
(-0.253402 0.310443 -0.57677)
(-0.256388 0.31474 -0.593876)
(-0.247314 0.301309 -0.55975)
(-0.279294 0.340434 -0.626685)
(-0.258765 0.326736 -0.595153)
(-0.305153 0.372363 -0.694503)
(-0.309207 0.381217 -0.702794)
(-0.291879 0.356346 -0.646354)
(-0.304501 0.353044 -0.64637)
(-0.291095 0.356166 -0.659612)
(-0.310156 0.360489 -0.67575)
(-0.240894 0.29308 -0.537657)
(-0.27289 0.323787 -0.60005)
(-0.271857 0.327576 -0.593781)
(-0.243801 0.301944 -0.547459)
(-0.224071 0.274048 -0.493477)
(-0.255204 0.309347 -0.570388)
(-0.277507 0.336873 -0.624173)
(-0.240004 0.289535 -0.530195)
(-0.254714 0.315689 -0.591275)
(-0.246349 0.301173 -0.563506)
(-0.257531 0.315119 -0.591573)
(-0.23227 0.285843 -0.534112)
(-0.264832 0.321732 -0.609371)
(-0.258815 0.313202 -0.587164)
(-0.275269 0.334114 -0.621864)
(-0.245848 0.302031 -0.555712)
(-0.267736 0.333865 -0.613732)
(-0.256256 0.309386 -0.56731)
(-0.325637 0.393128 -0.73225)
(-0.257179 0.315898 -0.579356)
(-0.240407 0.293639 -0.530332)
(-0.31956 0.398167 -0.731642)
(-0.273053 0.330638 -0.608599)
(-0.327456 0.394759 -0.728477)
(-0.322903 0.395288 -0.729274)
(-0.375708 0.454435 -0.826669)
(-0.373754 0.446791 -0.821675)
(-0.384031 0.466666 -0.85552)
(-0.390062 0.472611 -0.86462)
(-0.358877 0.435928 -0.800951)
(-0.366315 0.441749 -0.808087)
(-0.385526 0.462402 -0.847967)
(-0.3787 0.455445 -0.833518)
(-0.383492 0.466532 -0.856907)
(-0.395493 0.476312 -0.875062)
(-0.260643 0.309683 -0.579776)
(-0.251744 0.303533 -0.566342)
(-0.239971 0.291872 -0.541896)
(-0.224273 0.270641 -0.511399)
(-0.241345 0.290789 -0.54617)
(-0.215774 0.264871 -0.491328)
(-0.250612 0.307877 -0.567007)
(-0.265337 0.31284 -0.588492)
(-0.240741 0.295277 -0.548589)
(-0.214511 0.25975 -0.485269)
(-0.256896 0.306462 -0.575226)
(-0.240561 0.288891 -0.540457)
(-0.303914 0.366583 -0.674284)
(-0.305664 0.366901 -0.673709)
(-0.242017 0.289941 -0.539751)
(-0.300487 0.362469 -0.675059)
(-0.259765 0.310824 -0.582098)
(-0.268923 0.337169 -0.61259)
(-0.256065 0.320681 -0.598438)
(-0.231989 0.293639 -0.542996)
(-0.252932 0.312227 -0.587722)
(-0.298031 0.373429 -0.683206)
(-0.296817 0.365004 -0.676968)
(-0.269194 0.334541 -0.621852)
(-0.244232 0.308073 -0.560827)
(-0.26378 0.32153 -0.603117)
(-0.300605 0.369211 -0.689122)
(-0.294372 0.374363 -0.686549)
(-0.249349 0.30415 -0.570992)
(-0.271607 0.331597 -0.619771)
(-0.302763 0.373067 -0.698459)
(-0.307394 0.380513 -0.693258)
(-0.308992 0.380795 -0.690319)
(-0.319195 0.393995 -0.718962)
(-0.315914 0.383927 -0.702601)
(-0.268432 0.32998 -0.605501)
(-0.253625 0.316004 -0.574358)
(-0.273239 0.337501 -0.613128)
(-0.320512 0.392853 -0.707943)
(-0.309415 0.381217 -0.689357)
(-0.321539 0.382624 -0.703752)
(-0.249144 0.30471 -0.552661)
(-0.258187 0.318 -0.574034)
(-0.235375 0.286287 -0.52351)
(-0.259348 0.314561 -0.575145)
(-0.2265 0.28387 -0.509338)
(-0.262663 0.331447 -0.60146)
(-0.271932 0.332521 -0.610741)
(-0.236231 0.299699 -0.534798)
(-0.371809 0.452632 -0.839842)
(-0.355515 0.431 -0.805111)
(-0.357387 0.443116 -0.822678)
(-0.36778 0.4488 -0.836264)
(-0.352709 0.425861 -0.797072)
(-0.352481 0.421643 -0.787528)
(-0.368994 0.446043 -0.827848)
(-0.362622 0.438284 -0.814403)
(-0.37135 0.452007 -0.841009)
(-0.371045 0.449891 -0.835812)
(-0.357694 0.435733 -0.807832)
(-0.349418 0.425273 -0.791524)
(-0.362805 0.435872 -0.814705)
(-0.361164 0.437208 -0.813695)
(-0.35358 0.429409 -0.800044)
(-0.329894 0.38787 -0.722227)
(-0.345229 0.417627 -0.757473)
(-0.342458 0.411574 -0.759189)
(-0.326623 0.39151 -0.729657)
(-0.314207 0.364869 -0.684706)
(-0.31285 0.378053 -0.693654)
(-0.324326 0.394133 -0.728244)
(-0.319491 0.388766 -0.69711)
(-0.342956 0.414393 -0.759698)
(-0.294267 0.353079 -0.65063)
(-0.391518 0.475258 -0.87741)
(-0.383603 0.467963 -0.865694)
(-0.389466 0.476267 -0.87733)
(-0.390566 0.478146 -0.873531)
(-0.388221 0.478851 -0.879447)
(-0.388533 0.476219 -0.87204)
(-0.382679 0.471184 -0.866761)
(-0.39068 0.478017 -0.877043)
(-0.390607 0.475635 -0.873106)
(-0.388185 0.474429 -0.874441)
(-0.392484 0.478112 -0.880097)
(-0.388567 0.477907 -0.876126)
(-0.383917 0.465678 -0.863116)
(-0.388215 0.472466 -0.87061)
(-0.384166 0.473386 -0.868969)
(-0.384025 0.474627 -0.870227)
(-0.387066 0.471712 -0.871547)
(-0.389299 0.473687 -0.873218)
(-0.385516 0.471561 -0.868692)
(-0.384445 0.472724 -0.867824)
(-0.389166 0.473963 -0.868163)
(-0.390185 0.476199 -0.874705)
(-0.390031 0.477182 -0.873262)
(-0.387901 0.476498 -0.86812)
(-0.388312 0.474026 -0.871566)
(-0.388186 0.472096 -0.868607)
(-0.391793 0.474625 -0.871896)
(-0.352792 0.431423 -0.791478)
(-0.334443 0.412085 -0.741293)
(-0.35137 0.425071 -0.775863)
(-0.356822 0.434075 -0.789972)
(-0.339355 0.418643 -0.76009)
(-0.366399 0.447218 -0.814067)
(-0.376162 0.461829 -0.843467)
(-0.311214 0.371561 -0.694996)
(-0.333693 0.404533 -0.747036)
(-0.32656 0.39657 -0.726213)
(-0.332017 0.402962 -0.729541)
(-0.333428 0.410077 -0.737599)
(-0.399324 0.480592 -0.884714)
(-0.398476 0.481627 -0.890008)
(-0.396856 0.480185 -0.882006)
(-0.399135 0.484243 -0.891971)
(-0.398918 0.486947 -0.892947)
(-0.36048 0.435716 -0.801026)
(-0.369327 0.441086 -0.810898)
(-0.363795 0.437234 -0.800681)
(-0.368746 0.443787 -0.812846)
(-0.359333 0.425149 -0.783922)
(-0.35841 0.429622 -0.790608)
(-0.358833 0.431316 -0.795046)
(-0.369244 0.440982 -0.810693)
(-0.373744 0.450386 -0.82939)
(-0.363234 0.433596 -0.799129)
(-0.367859 0.443538 -0.814831)
(-0.379437 0.459081 -0.841675)
(-0.376928 0.457059 -0.839664)
(-0.377885 0.453122 -0.838717)
(-0.379673 0.457745 -0.842765)
(-0.378877 0.457143 -0.842676)
(-0.375332 0.451035 -0.83028)
(-0.390866 0.473089 -0.865917)
(-0.385798 0.464862 -0.856369)
(-0.377985 0.452 -0.835934)
(-0.3851 0.467358 -0.859501)
(-0.390832 0.475436 -0.870848)
(-0.377513 0.452178 -0.833998)
(-0.381337 0.460594 -0.847891)
(-0.387901 0.472862 -0.861099)
(-0.383709 0.46674 -0.845661)
(-0.384384 0.461043 -0.847705)
(-0.385392 0.466613 -0.861538)
(-0.39401 0.472813 -0.871889)
(-0.385417 0.462141 -0.846577)
(-0.389846 0.474745 -0.868288)
(-0.383567 0.46553 -0.850857)
(-0.340395 0.416003 -0.758755)
(-0.338989 0.408163 -0.751458)
(-0.369162 0.44606 -0.821227)
(-0.376054 0.455561 -0.829363)
(-0.366076 0.438203 -0.801993)
(-0.381668 0.462108 -0.847323)
(-0.346181 0.413497 -0.770263)
(-0.341795 0.412863 -0.764842)
(-0.332904 0.401204 -0.752459)
(-0.339568 0.410547 -0.760477)
(-0.350649 0.422972 -0.785511)
(-0.366261 0.441231 -0.822432)
(-0.359612 0.427791 -0.804369)
(-0.371186 0.445255 -0.821643)
(-0.370681 0.44491 -0.826437)
(-0.36501 0.438926 -0.816001)
(-0.374561 0.441436 -0.820712)
(-0.356101 0.426838 -0.794798)
(-0.358832 0.428431 -0.798428)
(-0.366859 0.44055 -0.816622)
(-0.368412 0.444332 -0.823549)
(-0.362016 0.430284 -0.804838)
(-0.35102 0.419635 -0.778312)
(-0.368682 0.444684 -0.823947)
(-0.37152 0.443769 -0.826027)
(-0.362376 0.433215 -0.804165)
(-0.368277 0.442133 -0.819352)
(-0.276013 0.335591 -0.604353)
(-0.281096 0.344088 -0.616949)
(-0.321015 0.393445 -0.727163)
(-0.284321 0.336055 -0.620544)
(-0.269881 0.326698 -0.607314)
(-0.317776 0.386439 -0.724178)
(-0.323798 0.398819 -0.739401)
(-0.33949 0.404226 -0.758317)
(-0.335692 0.404169 -0.749276)
(-0.337243 0.395798 -0.751153)
(-0.300774 0.365672 -0.668838)
(-0.245829 0.308213 -0.590636)
(-0.287159 0.332278 -0.637781)
(-0.345533 0.412479 -0.766928)
(-0.34919 0.408044 -0.77173)
(-0.304303 0.366202 -0.678555)
(-0.275018 0.33539 -0.615973)
(-0.260711 0.312631 -0.576383)
(-0.272496 0.33642 -0.614834)
(-0.278125 0.344473 -0.629339)
(-0.280628 0.344462 -0.634348)
(-0.295982 0.359946 -0.662177)
(-0.286344 0.350054 -0.640941)
(-0.276055 0.34436 -0.624388)
(-0.274121 0.341049 -0.61773)
(-0.318394 0.403453 -0.72289)
(-0.311301 0.390771 -0.7046)
(-0.355268 0.434794 -0.788245)
(-0.348709 0.432564 -0.784662)
(-0.337545 0.415111 -0.758851)
(-0.3357 0.42096 -0.762792)
(-0.311357 0.386656 -0.696636)
(-0.339022 0.417192 -0.762045)
(-0.31319 0.388346 -0.709143)
(-0.347725 0.430202 -0.788454)
(-0.350534 0.435938 -0.790815)
(-0.342694 0.430617 -0.780706)
(-0.326422 0.405165 -0.736074)
(-0.331188 0.415751 -0.750367)
(-0.353564 0.436076 -0.797893)
(-0.352269 0.437167 -0.80659)
(-0.334636 0.425471 -0.765872)
(-0.321746 0.411718 -0.750632)
(-0.305052 0.383215 -0.706256)
(-0.36083 0.450017 -0.825026)
(-0.352088 0.43087 -0.799206)
(-0.32466 0.404069 -0.747721)
(-0.323706 0.400685 -0.738337)
(-0.310233 0.38435 -0.709727)
(-0.244498 0.308252 -0.561341)
(-0.231565 0.284526 -0.521465)
(-0.307141 0.381668 -0.686267)
(-0.301285 0.368497 -0.672436)
(-0.263998 0.317257 -0.574541)
(-0.245087 0.290984 -0.544887)
(-0.256376 0.322044 -0.572214)
(-0.266539 0.317784 -0.584103)
(-0.266119 0.321552 -0.583943)
(-0.308079 0.378914 -0.686635)
(-0.219172 0.261599 -0.499103)
(-0.279237 0.333379 -0.603681)
(-0.245144 0.294424 -0.548872)
(-0.366045 0.442876 -0.820342)
(-0.362576 0.434572 -0.809699)
(-0.356752 0.431789 -0.804493)
(-0.33001 0.394257 -0.733932)
(-0.32504 0.384595 -0.714784)
(-0.311636 0.372009 -0.695296)
(-0.366709 0.437804 -0.810083)
(-0.363326 0.438171 -0.811384)
(-0.364025 0.435877 -0.808619)
(-0.348587 0.420222 -0.779466)
(-0.338336 0.401155 -0.746537)
(-0.310672 0.365341 -0.686138)
(-0.318336 0.375209 -0.70384)
(-0.314139 0.374857 -0.702266)
(-0.332204 0.389942 -0.730446)
(-0.331423 0.397359 -0.734496)
(-0.354784 0.42301 -0.789353)
(-0.317913 0.377021 -0.711507)
(-0.324786 0.386624 -0.719667)
(-0.329496 0.396575 -0.735751)
(-0.30907 0.379078 -0.703389)
(-0.316816 0.39506 -0.72036)
(-0.35218 0.424228 -0.786793)
(-0.343611 0.42057 -0.779049)
(-0.313436 0.38704 -0.71557)
(-0.327631 0.3985 -0.742094)
(-0.351501 0.426112 -0.793046)
(-0.356461 0.433565 -0.800275)
(-0.312793 0.380568 -0.699325)
(-0.349823 0.425817 -0.792597)
(-0.330709 0.407322 -0.745591)
(-0.30862 0.376529 -0.703427)
(-0.318125 0.377289 -0.712202)
(-0.307969 0.369248 -0.682617)
(-0.263906 0.323749 -0.596799)
(-0.256104 0.315479 -0.58594)
(-0.269936 0.338638 -0.612421)
(-0.348381 0.420213 -0.775943)
(-0.32196 0.391229 -0.722332)
(-0.259797 0.32021 -0.585931)
(-0.234825 0.290625 -0.531099)
(-0.31611 0.384887 -0.712368)
(-0.310125 0.382542 -0.708406)
(-0.255189 0.311633 -0.572682)
(-0.276749 0.333368 -0.621981)
(-0.316176 0.387957 -0.718199)
(-0.325615 0.395346 -0.736061)
(-0.30162 0.374936 -0.686163)
(-0.234972 0.287885 -0.53695)
(-0.2551 0.311399 -0.576172)
(-0.228182 0.275386 -0.521144)
(-0.250665 0.303142 -0.55966)
(-0.281689 0.344112 -0.6343)
(-0.303102 0.366155 -0.690409)
(-0.273342 0.333523 -0.616884)
(-0.309563 0.368207 -0.688036)
(-0.321935 0.384461 -0.721363)
(-0.341614 0.41259 -0.776603)
(-0.314333 0.374317 -0.697517)
(-0.332188 0.400061 -0.74262)
(-0.313541 0.372404 -0.700669)
(-0.309504 0.377235 -0.69384)
(-0.275448 0.332536 -0.609599)
(-0.357837 0.425304 -0.79445)
(-0.323356 0.388648 -0.729627)
(-0.304891 0.357463 -0.666802)
(-0.331896 0.387853 -0.72454)
(-0.302517 0.365528 -0.678292)
(-0.260526 0.307875 -0.579706)
(-0.33996 0.402108 -0.748522)
(-0.333752 0.40596 -0.755428)
(-0.360063 0.435285 -0.802865)
(-0.318368 0.380536 -0.714277)
(-0.334424 0.405136 -0.759862)
(-0.326603 0.395031 -0.741376)
(-0.362185 0.433383 -0.80835)
(-0.366771 0.442647 -0.825905)
(-0.351602 0.421848 -0.785015)
(-0.333994 0.403452 -0.753004)
(-0.353127 0.425934 -0.795626)
(-0.365677 0.443331 -0.824822)
(-0.368396 0.449643 -0.83167)
(-0.355678 0.4329 -0.801962)
(-0.364131 0.441811 -0.81845)
(-0.306791 0.375941 -0.696447)
(-0.301481 0.369085 -0.691696)
(-0.302829 0.369596 -0.684856)
(-0.326971 0.395706 -0.741158)
(-0.310553 0.381116 -0.710191)
(-0.251839 0.30457 -0.562511)
(-0.254305 0.304935 -0.573878)
(-0.271294 0.329013 -0.60876)
(-0.263186 0.325765 -0.604565)
(-0.299068 0.370135 -0.694994)
(-0.319473 0.386404 -0.728353)
(-0.312828 0.379049 -0.712756)
(-0.296151 0.353956 -0.675325)
(-0.310929 0.369817 -0.703609)
(-0.298183 0.363042 -0.684295)
(-0.274448 0.333244 -0.62388)
(-0.274519 0.32786 -0.618444)
(-0.31554 0.383534 -0.711239)
(-0.319637 0.386089 -0.719824)
(-0.294938 0.355875 -0.657716)
(-0.304167 0.364585 -0.676605)
(-0.316009 0.37816 -0.705709)
(-0.310445 0.379672 -0.709267)
(-0.313425 0.379094 -0.718284)
(-0.307851 0.378092 -0.701422)
(-0.318084 0.378595 -0.712611)
(-0.31577 0.384007 -0.710867)
(-0.342525 0.422983 -0.778345)
(-0.348361 0.421344 -0.783017)
(-0.347363 0.424506 -0.789416)
(-0.296499 0.362755 -0.674868)
(-0.317778 0.377342 -0.697781)
(-0.339957 0.417331 -0.761615)
(-0.321879 0.395645 -0.73201)
(-0.292668 0.351219 -0.654071)
(-0.267739 0.333601 -0.61597)
(-0.323514 0.388991 -0.713524)
(-0.305266 0.360289 -0.67283)
(-0.229524 0.279236 -0.509548)
(-0.254708 0.313179 -0.566171)
(-0.27643 0.334548 -0.608198)
(-0.302069 0.367033 -0.666637)
(-0.323175 0.385379 -0.709774)
(-0.259636 0.313241 -0.572641)
(-0.234941 0.277457 -0.518521)
(-0.2678 0.323644 -0.599503)
(-0.244112 0.295737 -0.527863)
(-0.2695 0.328709 -0.600468)
(-0.246494 0.293978 -0.543361)
(-0.267732 0.313239 -0.580727)
(-0.252944 0.30586 -0.559166)
(-0.388299 0.477388 -0.870337)
(-0.388357 0.468758 -0.861818)
(-0.393087 0.477164 -0.875313)
(-0.393513 0.477083 -0.873995)
(-0.391488 0.475561 -0.869712)
(-0.390326 0.472192 -0.869201)
(-0.39413 0.47943 -0.879144)
(-0.390469 0.474064 -0.868205)
(-0.393307 0.477504 -0.874596)
(-0.395593 0.479333 -0.878602)
(-0.39374 0.476792 -0.875949)
(-0.391312 0.478527 -0.8737)
(-0.397428 0.478757 -0.880722)
(-0.393463 0.482402 -0.882139)
(-0.392782 0.481423 -0.880625)
(-0.395757 0.480271 -0.885812)
(-0.396481 0.483876 -0.887149)
(-0.387194 0.470652 -0.866831)
(-0.391796 0.478648 -0.872172)
(-0.389007 0.470667 -0.861769)
(-0.352492 0.431115 -0.796743)
(-0.35149 0.429279 -0.78648)
(-0.314033 0.388693 -0.727085)
(-0.317598 0.396438 -0.730934)
(-0.353607 0.435895 -0.798203)
(-0.350721 0.434759 -0.797353)
(-0.317273 0.395667 -0.727248)
(-0.288267 0.35216 -0.647835)
(-0.287234 0.348337 -0.648626)
(-0.260934 0.318457 -0.585474)
(-0.269939 0.328086 -0.611924)
(-0.318265 0.399807 -0.738247)
(-0.375862 0.45582 -0.835749)
(-0.297507 0.371812 -0.669749)
(-0.318324 0.396631 -0.719828)
(-0.26125 0.318098 -0.58864)
(-0.244135 0.294232 -0.553448)
(-0.317211 0.392883 -0.723761)
(-0.255082 0.314204 -0.580489)
(-0.26735 0.331754 -0.619976)
(-0.334884 0.408351 -0.763458)
(-0.25422 0.303905 -0.569976)
(-0.274496 0.330964 -0.620623)
(-0.276448 0.345592 -0.62382)
(-0.261499 0.325721 -0.59858)
(-0.268638 0.325984 -0.612236)
(-0.319847 0.3958 -0.733831)
(-0.329792 0.397811 -0.727648)
(-0.332303 0.408147 -0.737861)
(-0.329259 0.397576 -0.731841)
(-0.253721 0.311307 -0.566272)
(-0.224316 0.272881 -0.506001)
(-0.322424 0.392776 -0.710983)
(-0.322459 0.388482 -0.709)
(-0.267185 0.329893 -0.603266)
(-0.255266 0.313521 -0.572025)
(-0.232467 0.278818 -0.516599)
(-0.229472 0.290363 -0.535294)
(-0.270773 0.331644 -0.59669)
(-0.318574 0.385645 -0.711198)
(-0.318924 0.379255 -0.695511)
(-0.320788 0.390719 -0.712092)
(-0.331248 0.394092 -0.726418)
(-0.275102 0.337102 -0.607086)
(-0.269754 0.330896 -0.60494)
(-0.253363 0.310913 -0.57128)
(-0.237246 0.292544 -0.531496)
(-0.325559 0.398182 -0.726362)
(-0.309193 0.391221 -0.708822)
(-0.313865 0.378251 -0.696404)
(-0.315021 0.38671 -0.698094)
(-0.231949 0.282448 -0.520956)
(-0.257119 0.313985 -0.573283)
(-0.268982 0.329202 -0.605116)
(-0.319731 0.392709 -0.711397)
(-0.323711 0.40516 -0.728671)
(-0.250633 0.311103 -0.561855)
(-0.276568 0.341452 -0.625316)
(-0.275135 0.332619 -0.616186)
(-0.239232 0.286428 -0.539702)
(-0.24789 0.300928 -0.567061)
(-0.2562 0.290082 -0.562087)
(-0.244538 0.283023 -0.540073)
(-0.255241 0.311921 -0.580491)
(-0.289923 0.35935 -0.655454)
(-0.234246 0.288874 -0.541907)
(-0.222512 0.266042 -0.503545)
(-0.257786 0.306233 -0.572306)
(-0.220548 0.252942 -0.476087)
(-0.255036 0.30258 -0.570159)
(-0.257998 0.315081 -0.586325)
(-0.322702 0.389349 -0.713226)
(-0.297839 0.364952 -0.664524)
(-0.253428 0.309811 -0.568001)
(-0.270857 0.317173 -0.590935)
(-0.251289 0.299032 -0.563294)
(-0.256915 0.316045 -0.581981)
(-0.322849 0.405226 -0.730509)
(-0.330586 0.420797 -0.758624)
(-0.305796 0.370544 -0.674278)
(-0.293351 0.351997 -0.649394)
(-0.278419 0.346034 -0.638245)
(-0.332919 0.398505 -0.728681)
(-0.320464 0.40291 -0.721841)
(-0.325617 0.405454 -0.729371)
(-0.318911 0.394201 -0.706419)
(-0.33871 0.414937 -0.749525)
(-0.321756 0.398307 -0.718971)
(-0.314879 0.395468 -0.708734)
(-0.294935 0.360626 -0.666782)
(-0.283302 0.344795 -0.637023)
(-0.327017 0.391176 -0.730897)
(-0.330132 0.397137 -0.733077)
(-0.320457 0.379938 -0.717056)
(-0.333047 0.399179 -0.734204)
(-0.369198 0.4408 -0.813175)
(-0.351146 0.420684 -0.781309)
(-0.35491 0.42283 -0.782498)
(-0.303758 0.358918 -0.680067)
(-0.31451 0.381794 -0.712607)
(-0.253307 0.303259 -0.56329)
(-0.270756 0.330652 -0.613779)
(-0.258802 0.311642 -0.575912)
(-0.303343 0.363702 -0.683425)
(-0.308888 0.366045 -0.692342)
(-0.306744 0.366964 -0.693727)
(-0.249619 0.2989 -0.557783)
(-0.223094 0.268097 -0.509491)
(-0.263719 0.320739 -0.592416)
(-0.239151 0.290068 -0.536427)
(-0.227057 0.270582 -0.512705)
(-0.266874 0.325793 -0.606506)
(-0.250307 0.301538 -0.566296)
(-0.236798 0.278482 -0.516547)
(-0.300299 0.359938 -0.670513)
(-0.258628 0.30949 -0.583567)
(-0.249849 0.288496 -0.543062)
(-0.262464 0.32027 -0.582315)
(-0.244689 0.306534 -0.55776)
(-0.270084 0.33072 -0.599217)
(-0.26629 0.336248 -0.603572)
(-0.26411 0.327439 -0.59624)
(-0.290612 0.350462 -0.644364)
(-0.332567 0.400169 -0.722899)
(-0.338603 0.415088 -0.744292)
(-0.319712 0.385002 -0.695066)
(-0.305546 0.375624 -0.675222)
(-0.335845 0.410604 -0.747854)
(-0.324156 0.394689 -0.718907)
(-0.379079 0.463308 -0.847515)
(-0.36085 0.447791 -0.815394)
(-0.378388 0.467525 -0.850213)
(-0.375001 0.46415 -0.842887)
(-0.366338 0.452063 -0.827223)
(-0.368903 0.455649 -0.828772)
(-0.374543 0.464904 -0.845274)
(-0.372442 0.457985 -0.834933)
(-0.350594 0.436135 -0.798434)
(-0.350705 0.42486 -0.782906)
(-0.345249 0.430266 -0.784654)
(-0.376335 0.464557 -0.847061)
(-0.365893 0.454902 -0.826922)
(-0.363451 0.452627 -0.825419)
(-0.349242 0.429809 -0.787656)
(-0.350687 0.434291 -0.791227)
(-0.275709 0.330033 -0.626462)
(-0.281292 0.324227 -0.622787)
(-0.273403 0.323428 -0.61239)
(-0.254449 0.316736 -0.584843)
(-0.251527 0.305965 -0.568942)
(-0.267445 0.322843 -0.595494)
(-0.240016 0.297263 -0.545804)
(-0.298943 0.352157 -0.667268)
(-0.278553 0.330009 -0.61065)
(-0.26838 0.319361 -0.595833)
(-0.250564 0.294068 -0.546908)
(-0.213386 0.256911 -0.475656)