/*--------------------------------*- C++ -*----------------------------------*\
| =========                 |                                                 |
| \\      /  F ield         | OpenFOAM: The Open Source CFD Toolbox           |
|  \\    /   O peration     | Version:  v1612+                                |
|   \\  /    A nd           | Web:      www.OpenFOAM.com                      |
|    \\/     M anipulation  |                                                 |
\*---------------------------------------------------------------------------*/
FoamFile
{
    version     2.0;
    format      ascii;
    class       volScalarField;
    location    "166";
    object      p;
}
// * * * * * * * * * * * * * * * * * * * * * * * * * * * * * * * * * * * * * //

dimensions      [0 2 -2 0 0 0 0];

internalField   nonuniform List<scalar> 
17225
(
3.16111
3.1138
3.10895
3.09814
3.21906
3.22651
3.20401
3.20433
3.2144
3.1968
3.206
3.22783
3.2254
3.1919
3.19527
3.21762
3.21097
3.19982
3.20195
3.21843
3.16837
3.16815
3.18054
3.18083
3.17274
3.16518
3.17768
3.17458
3.09009
3.10565
3.09961
3.09096
3.1029
3.10991
3.11176
3.11093
3.12112
3.11308
3.04855
3.05124
3.04574
3.04534
3.04753
3.05209
3.04677
3.04245
3.04575
3.04752
3.04587
3.05805
3.05626
3.04775
3.04504
3.0465
3.04324
3.04338
3.0505
3.16241
3.1614
3.1613
3.1617
3.19419
3.19122
3.17906
3.18282
3.17135
3.19637
3.1992
3.18048
3.19186
3.18646
3.19605
3.2034
3.20166
3.2174
3.23515
3.23162
3.20045
3.20462
3.21953
3.23269
3.24148
3.21709
3.23626
3.12888
3.13217
3.13186
3.14133
3.12957
3.12713
3.14327
3.17593
3.16238
3.13138
3.15697
3.16326
3.14908
3.17654
3.16873
3.15601
3.15421
3.17274
3.19812
3.20923
3.19465
3.20665
3.18336
3.19906
3.18538
3.19466
3.21085
3.19289
3.20462
3.18276
3.17219
3.21163
3.21971
3.20804
3.21465
3.21816
3.20606
3.22251
3.22403
3.23216
3.20685
3.23089
3.23172
3.22378
3.23136
3.08884
3.08918
3.09397
3.08685
3.09288
3.09342
3.09835
3.0963
3.08818
3.09278
3.0904
3.09029
3.08807
3.09229
3.09246
3.09488
3.09224
3.08874
3.11213
3.11439
3.11323
3.11142
3.11114
3.10552
3.11452
3.11033
3.11021
3.1048
3.11694
3.10845
3.10646
3.10743
3.1029
3.10304
3.10398
3.10523
3.10993
3.10498
3.10368
3.10365
3.10855
3.1125
3.11656
3.10863
3.10578
3.11221
3.11051
3.10342
3.10869
3.11004
3.12072
3.11583
3.11191
3.11726
3.10976
3.10903
3.11538
3.114
3.10864
3.11549
3.09414
3.08983
3.09098
3.09149
3.09882
3.09847
3.0993
3.09603
3.09417
3.09344
3.08988
3.10133
3.10072
3.10011
3.09655
3.09804
3.09361
3.09208
3.10137
3.09721
3.09567
3.09749
3.05997
3.0672
3.06013
3.06308
3.06938
3.06346
3.06493
3.06078
3.0615
3.06006
3.06309
3.07002
3.06966
3.06144
3.0684
3.06901
3.06686
3.16347
3.15954
3.17665
3.1696
3.16519
3.16554
3.16847
3.16988
3.17183
3.18019
3.18393
3.18382
3.08395
3.07597
3.07985
3.08119
3.08229
3.07521
3.09045
3.08243
3.08941
3.09368
3.08445
3.07797
3.0729
3.08923
3.11316
3.10755
3.11136
3.10556
3.10835
3.10835
3.10792
3.10486
3.11025
3.10834
3.10933
3.1024
3.10401
3.10074
3.10175
3.10365
3.10167
3.10653
3.10834
3.10882
3.08413
3.08009
3.07735
3.08406
3.07931
3.08136
3.08322
3.08609
3.08264
3.07958
3.07584
3.083
3.07866
3.07836
3.07604
3.07982
3.08288
3.07295
3.07746
3.03237
3.03293
3.03631
3.03546
3.03418
3.03
3.02715
3.03722
3.03194
3.02606
3.08295
3.09149
3.08822
3.09481
3.11239
3.11164
3.10859
3.09581
3.09923
3.10592
3.11147
3.09067
3.08448
3.10963
3.11056
3.10171
3.08889
3.09524
3.09906
3.093
3.09803
3.10567
3.10679
3.10139
3.10682
3.08768
3.09327
3.11274
3.1039
3.10258
3.09267
3.10284
3.09755
3.10033
3.28019
3.28259
3.26667
3.27273
3.276
3.26873
3.2803
3.25277
3.26283
3.27555
3.28758
3.25416
3.2506
3.26026
3.28529
3.27428
3.25249
3.28036
3.26452
3.28444
3.25259
3.25655
3.24937
3.25656
3.17218
3.19183
3.18946
3.17686
3.18613
3.17948
3.18589
3.18634
3.18299
3.16756
3.16427
3.17118
3.17703
3.17007
3.16636
3.10835
3.10921
3.10446
3.11147
3.11292
3.11796
3.11468
3.11701
3.12128
3.11951
3.12061
3.11471
3.11955
3.22265
3.22931
3.23797
3.22953
3.22473
3.23843
3.24281
3.23881
3.23241
3.24027
3.24796
3.22179
3.23349
3.248
3.22255
3.07759
3.0786
3.07574
3.07067
3.07364
3.07902
3.0759
3.08307
3.08704
3.0756
3.07259
3.08461
3.08027
3.08455
3.08568
3.08718
3.08425
3.12371
3.12282
3.11234
3.11468
3.11946
3.11675
3.11594
3.12557
3.12339
3.12259
3.12431
3.11442
3.11382
3.11598
3.12354
3.11655
3.12249
3.12298
3.12052
3.1208
3.11447
3.12212
3.14512
3.13908
3.15813
3.15333
3.13096
3.13832
3.14157
3.144
3.13681
3.12643
3.124
3.13552
3.14184
3.15023
3.14608
3.13816
3.14342
3.13232
3.13121
3.14425
3.13807
3.12853
3.13416
3.13255
3.14612
3.13416
3.14315
3.13601
3.12799
3.13397
3.12978
3.12447
3.12937
3.12529
3.12406
3.13087
3.13375
3.13384
3.132
3.13009
3.12837
3.12932
3.13201
3.12799
3.12522
3.12649
3.12463
3.12148
3.12816
3.13245
3.13244
3.12903
3.12614
3.14179
3.13984
3.14033
3.14323
3.14569
3.14736
3.14395
3.13314
3.13802
3.1422
3.14084
3.14801
3.12902
3.12847
3.15154
3.15346
3.08112
3.09104
3.09056
3.093
3.08226
3.08842
3.08915
3.07205
3.07736
3.21033
3.2154
3.2253
3.2109
3.20353
3.22413
3.21843
3.20826
3.22504
3.2285
3.22011
3.22809
3.22859
3.11432
3.11676
3.11221
3.07315
3.06777
3.0751
3.07901
3.05792
3.05839
3.06194
3.06988
3.06321
3.07301
3.07672
3.05946
3.06199
3.06621
3.0649
3.07017
3.08426
3.08764
3.08146
3.08203
3.0745
3.08113
3.08056
3.08136
3.07824
3.06268
3.05864
3.05981
3.05655
3.06871
3.06685
3.06502
3.07029
3.05321
3.06869
3.06798
3.25937
3.26229
3.24902
3.24999
3.24059
3.23907
3.24937
3.26911
3.22932
3.22589
3.25657
3.24304
3.26021
3.25821
3.25796
3.23716
3.25202
3.26341
3.26373
3.18935
3.19353
3.18978
3.18631
3.16891
3.16839
3.18512
3.18591
3.16858
3.16608
3.15814
3.19219
3.20151
3.18571
3.18297
3.17145
3.17046
3.17811
3.16635
3.17554
3.17994
3.18049
3.16
3.15592
3.17203
3.16574
3.16967
3.18298
3.16352
3.16351
3.17082
3.18018
3.15519
3.15944
3.17189
3.1699
3.17749
3.12296
3.13718
3.14106
3.14121
3.12604
3.1149
3.13313
3.13684
3.14745
3.15546
3.15165
3.12167
3.1232
3.11727
3.15018
3.15585
3.13854
3.14319
3.13632
3.12755
3.1332
3.14044
3.13348
3.13479
3.14221
3.14544
3.14108
3.14674
3.14045
3.14242
3.19252
3.1867
3.21312
3.20478
3.17153
3.17488
3.20671
3.20889
3.22237
3.18663
3.1928
3.19675
3.18975
3.18346
3.2112
3.10784
3.10748
3.1058
3.10555
3.10495
3.11157
3.10842
3.10363
3.10141
3.1113
3.10282
3.27495
3.28307
3.25961
3.28239
3.24599
3.27959
3.28769
3.25526
3.2722
3.27641
3.11091
3.11181
3.1172
3.11661
3.11843
3.11467
3.10446
3.10867
3.11098
3.11352
3.11188
3.12864
3.12763
3.12153
3.10949
3.11079
3.10768
3.12339
3.12122
3.11355
3.20551
3.21337
3.21074
3.21547
3.20424
3.20052
3.22017
3.18643
3.18911
3.18278
3.19203
3.19554
3.18631
3.20706
3.19699
3.21095
3.18606
3.19878
3.19133
3.04712
3.05986
3.06223
3.05456
3.04727
3.04226
3.06058
3.05886
3.05986
3.05909
3.06518
3.04852
3.06636
3.06894
3.09326
3.10659
3.09334
3.10223
3.09906
3.10131
3.10169
3.10473
3.08605
3.08432
3.0878
3.08474
3.09042
3.10752
3.0958
3.09716
3.09907
3.10723
3.08813
3.08887
3.08812
3.08711
3.08496
3.10342
3.09493
3.0957
3.09202
3.08909
3.09017
3.08464
3.08685
3.09345
3.09263
3.08925
3.09022
3.08886
3.09185
3.15232
3.1525
3.14614
3.14881
3.14168
3.13673
3.14194
3.13857
3.128
3.12959
3.12735
3.13271
3.12833
3.13847
3.13337
3.12698
3.1304
3.13701
3.13458
3.13296
3.17524
3.18218
3.21396
3.18643
3.19982
3.18723
3.22313
3.17392
3.18061
3.17919
3.20047
3.1979
3.19606
3.20595
3.11141
3.11201
3.1165
3.11206
3.11604
3.12117
3.11275
3.10837
3.11218
3.11158
3.12
3.1181
3.11816
3.11634
3.11451
3.11454
3.1183
3.12073
3.11645
3.11816
3.11555
3.15209
3.14966
3.15313
3.14631
3.15144
3.15954
3.15574
3.15434
3.15356
3.14646
3.16042
3.15379
3.1637
3.16137
3.16121
3.15618
3.16132
3.16083
3.16126
3.15154
3.19043
3.19238
3.20332
3.22132
3.21248
3.20869
3.19516
3.18922
3.20512
3.20815
3.19066
3.1823
3.19554
3.19232
3.19552
3.18816
3.20373
3.20489
3.18132
3.18517
3.19502
3.19219
3.04532
3.04705
3.04343
3.04782
3.04826
3.04553
3.0449
3.04879
3.05032
3.04686
3.03917
3.04959
3.0479
3.04742
3.11682
3.11248
3.11608
3.1111
3.26623
3.2616
3.25955
3.25086
3.1104
3.10919
3.23022
3.22491
3.22363
3.23333
3.0513
3.05021
3.05159
3.04902
3.04858
3.07134
3.07895
3.06887
3.21129
3.2231
3.21356
3.09522
3.09992
3.09167
3.08385
3.15659
3.15179
3.14096
3.14063
3.10665
3.09773
3.09963
3.09819
3.10036
3.08825
3.08914
3.15041
3.15388
3.15811
3.28534
3.29371
3.29542
3.29624
3.08867
3.08999
3.08706
3.18149
3.17368
3.18206
3.21622
3.22114
3.22689
3.19742
3.20301
3.20065
3.19128
3.19422
3.14979
3.14904
3.13993
3.15701
3.07184
3.07017
3.06112
3.11407
3.10746
3.11436
3.10605
3.11349
3.1158
3.12511
3.10853
3.09789
3.10214
3.15236
3.15183
3.13786
3.17295
3.18154
3.18471
3.20873
3.20732
3.15326
3.14678
3.12979
3.13357
3.26907
3.27
3.26943
3.12796
3.1283
3.06646
3.06744
3.06359
3.06274
3.04369
3.04536
3.13882
3.13483
3.19101
3.18205
3.1835
3.15437
3.16044
3.05548
3.05644
3.06017
3.17012
3.17433
3.16636
3.13096
3.12524
3.12259
3.15487
3.15783
3.1659
3.24001
3.24219
3.18985
3.18541
3.19213
3.11552
3.12921
3.12387
3.11108
3.1106
3.11251
3.06017
3.06161
3.05513
3.05633
3.18458
3.18622
3.24152
3.23571
3.08044
3.07851
3.02817
3.03313
3.03542
3.25186
3.2526
3.091
3.0927
3.0736
3.07758
3.079
3.13654
3.14608
3.15324
3.14967
3.14417
3.1669
3.17504
3.1589
3.1462
3.14501
3.12621
3.12797
3.13794
3.13779
3.11014
3.11877
3.11877
3.12402
3.11963
3.15113
3.13116
3.12082
3.14352
3.13737
3.15546
3.14326
3.1336
3.12699
3.12471
3.12974
3.16126
3.11222
3.12154
3.12603
3.11891
3.11353
3.10554
3.10428
3.10284
3.12447
3.12877
3.0839
3.08818
3.08429
3.08853
3.08845
3.08354
3.08039
3.08614
3.08568
3.075
3.07922
3.07942
3.07957
3.08154
3.07564
3.07756
3.08234
3.08312
3.07295
3.07052
3.06513
3.06797
3.07441
3.07238
3.07583
3.07599
3.07146
3.09845
3.09872
3.10319
3.10375
3.09881
3.09717
3.09991
3.09788
3.09596
3.09758
3.0926
3.08837
3.08918
3.09982
3.09743
3.08914
3.09159
3.08774
3.08646
3.09723
3.27521
3.27815
3.27044
3.1932
3.19342
3.20262
3.26693
3.26768
3.23849
3.23993
3.23174
3.23504
3.24007
3.23542
3.22609
3.23022
3.23435
3.22429
3.23886
3.23847
3.04258
3.03877
3.03335
3.04745
3.04722
3.0403
3.03799
3.03978
3.03965
3.03842
3.039
3.03554
3.03238
3.02973
3.03139
3.09277
3.0815
3.08665
3.07941
3.08051
3.0787
3.08185
3.08006
3.07539
3.07903
3.07763
3.0743
3.07728
3.08787
3.08639
3.08318
3.08309
3.08705
3.0869
3.27569
3.27463
3.27956
3.2022
3.21357
3.21544
3.19894
3.21375
3.23796
3.2331
3.24525
3.23728
3.21652
3.26764
3.27228
3.26391
3.25394
3.24838
3.22828
3.22727
3.2381
3.21745
3.22798
3.20848
3.2082
3.21983
3.20271
3.19339
3.2128
3.21724
3.22698
3.22152
3.19996
3.21329
3.21197
3.21207
3.20578
3.21806
3.21852
3.21185
3.22568
3.22692
3.2222
3.23871
3.25362
3.2469
3.23862
3.22697
3.25497
3.26675
3.2563
3.22752
3.23763
3.26573
3.25825
3.24194
3.23287
3.26679
3.23516
3.24463
3.25875
3.24166
3.25788
3.237
3.24191
3.25018
3.24391
3.18655
3.19419
3.19036
3.19789
3.18383
3.19441
3.20098
3.19185
3.18249
3.17339
3.14705
3.15228
3.15614
3.1978
3.1832
3.19615
3.17672
3.17748
3.17657
3.18119
3.17712
3.16348
3.16495
3.1638
3.23848
3.24462
3.04998
3.04806
3.05121
3.04836
3.05316
3.06078
3.06003
3.05741
3.06182
3.0552
3.05921
3.06159
3.06262
3.06308
3.05813
3.06305
3.1013
3.10531
3.10333
3.12148
3.11985
3.11833
3.11427
3.11934
3.12035
3.11307
3.11139
3.11062
3.11527
3.14644
3.14149
3.14553
3.11369
3.1195
3.12743
3.12266
3.12845
3.12533
3.12127
3.11225
3.10245
3.11199
3.11196
3.1279
3.13306
3.12279
3.12437
3.12734
3.13703
3.13293
3.13848
3.13323
3.14663
3.1335
3.13656
3.15709
3.14123
3.16594
3.1488
3.15315
3.14521
3.13452
3.14153
3.15382
3.13688
3.15942
3.12317
3.12892
3.123
3.21705
3.21596
3.1722
3.18062
3.18294
3.16575
3.19093
3.18944
3.18214
3.20887
3.20683
3.16856
3.16238
3.16499
3.15649
3.15743
3.15365
3.17441
3.17778
3.17548
3.17093
3.1713
3.15978
3.16602
3.17888
3.17599
3.17958
3.17667
3.18069
3.18175
3.23621
3.24678
3.25017
3.25147
3.25207
3.24516
3.25445
3.26054
3.25155
3.24049
3.19933
3.20911
3.20838
3.21508
3.2482
3.23632
3.23696
3.25299
3.24904
3.23919
3.14736
3.1355
3.14217
3.15172
3.20436
3.20882
3.16988
3.15489
3.14955
3.17691
3.19801
3.18903
3.18505
3.18016
3.17105
3.16393
3.16248
3.15579
3.16112
3.13481
3.11951
3.1389
3.13358
3.14103
3.15044
3.12264
3.12315
3.13796
3.12052
3.11591
3.14399
3.14743
3.14259
3.14571
3.15055
3.12717
3.12379
3.12494
3.13459
3.13138
3.13163
3.13424
3.12855
3.12878
3.13912
3.13177
3.13916
3.1338
3.11701
3.12485
3.12016
3.12023
3.1225
3.12376
3.12877
3.12558
3.1263
3.12448
3.13201
3.12727
3.1279
3.12629
3.12679
3.12791
3.12534
3.15622
3.15626
3.16877
3.16962
3.16763
3.15565
3.16727
3.16572
3.16466
3.17144
3.17216
3.16389
3.16965
3.18518
3.19301
3.19454
3.18651
3.17526
3.07736
3.0829
3.07495
3.07317
3.06548
3.07037
3.0615
3.05816
3.06139
3.06886
3.07196
3.05697
3.05896
3.05455
3.05651
3.06258
3.05097
3.05207
3.05641
3.12377
3.12305
3.1253
3.13321
3.16998
3.1681
3.17289
3.14859
3.13968
3.15776
3.13165
3.13948
3.13296
3.13158
3.147
3.15303
3.16965
3.16994
3.16491
3.15214
3.1595
3.15384
3.1431
3.14812
3.19115
3.17276
3.18952
3.18012
3.1933
3.18277
3.17183
3.16672
3.17064
3.1567
3.16177
3.23106
3.2225
3.22571
3.18462
3.19325
3.19717
3.18957
3.20532
3.19605
3.1913
3.20849
3.21359
3.19014
3.19133
3.21503
3.21474
3.20048
3.19528
3.19261
3.2064
3.20093
3.22118
3.21231
3.15738
3.15394
3.14511
3.14535
3.13643
3.139
3.14216
3.13923
3.14007
3.15049
3.1485
3.13775
3.13707
3.13496
3.13382
3.12296
3.03614
3.03856
3.04974
3.05478
3.04208
3.04628
3.03664
3.03899
3.04165
3.07128
3.07059
3.06069
3.0695
3.06879
3.06827
3.05645
3.06252
3.0637
3.06639
3.06181
3.07164
3.07089
3.06789
3.0739
3.07585
3.12913
3.12527
3.12717
3.13468
3.13001
3.14092
3.13786
3.13928
3.13461
3.13017
3.13238
3.13052
3.13016
3.12891
3.12566
3.12464
3.12772
3.12724
3.13056
3.13025
3.13107
3.12563
3.12753
3.12737
3.28352
3.2931
3.28206
3.20209
3.2169
3.20943
3.22702
3.26117
3.25632
3.24433
3.26192
3.26281
3.243
3.30365
3.30243
3.29303
3.26948
3.27689
3.27831
3.26348
3.25396
3.25952
3.14568
3.13463
3.14182
3.13679
3.1432
3.1369
3.16298
3.14754
3.16394
3.16464
3.12921
3.13348
3.12221
3.12666
3.12128
3.12708
3.12979
3.18205
3.18386
3.17057
3.15466
3.15349
3.16001
3.15298
3.15167
3.14022
3.14761
3.14667
3.14722
3.14339
3.13236
3.13158
3.20751
3.20996
3.22248
3.21716
3.17803
3.21724
3.2088
3.21346
3.20376
3.16638
3.18237
3.19445
3.19638
3.19388
3.18182
3.17035
3.21082
3.20232
3.19781
3.20009
3.20076
3.19602
3.19818
3.19197
3.17883
3.18457
3.19753
3.19281
3.19605
3.19115
3.11392
3.12123
3.11546
3.12482
3.13062
3.13259
3.1408
3.13294
3.14333
3.14334
3.15268
3.13932
3.14357
3.1267
3.1702
3.19605
3.16723
3.15864
3.18348
3.18877
3.10639
3.09609
3.09474
3.10117
3.08857
3.10515
3.11278
3.115
3.13558
3.13434
3.12398
3.12051
3.11572
3.11469
3.09557
3.09903
3.08986
3.09918
3.10576
3.08522
3.08951
3.12036
3.13122
3.12125
3.11852
3.11176
3.12081
3.11825
3.12079
3.133
3.09977
3.08943
3.09944
3.1036
3.10204
3.10005
3.10421
3.1052
3.1061
3.10194
3.09836
3.12271
3.12454
3.11058
3.1171
3.10864
3.12173
3.11606
3.12221
3.12658
3.0603
3.05642
3.05497
3.0549
3.06042
3.06163
3.07813
3.07098
3.06174
3.06022
3.06482
3.06346
3.07125
3.06732
3.06432
3.05715
3.08294
3.09204
3.09206
3.05972
3.0692
3.06553
3.06595
3.07636
3.08291
3.06332
3.08212
3.07053
3.17234
3.17135
3.15536
3.15051
3.12524
3.13507
3.1306
3.12962
3.22504
3.23275
3.22233
3.21194
3.21252
3.21003
3.20288
3.18139
3.21229
3.19695
3.18925
3.18617
3.20847
3.21451
3.20778
3.19859
3.19308
3.21249
3.19195
3.19907
3.19923
3.1912
3.17344
3.16532
3.18662
3.19231
3.18859
3.26328
3.26114
3.24674
3.2488
3.23536
3.24481
3.22868
3.21569
3.22264
3.24641
3.23152
3.25388
3.21767
3.20928
3.20096
3.2289
3.21797
3.21234
3.1989
3.19224
3.18751
3.1822
3.20319
3.20772
3.04385
3.0471
3.04837
3.04483
3.04441
3.04551
3.04818
3.04251
3.04328
3.04342
3.04376
3.04163
3.30444
3.3042
3.29841
3.28976
3.283
3.29367
3.29317
3.28563
3.2874
3.29665
3.29535
3.28347
3.28483
3.28432
3.27567
3.28132
3.28915
3.29137
3.27633
3.28535
3.27146
3.13501
3.13733
3.1344
3.13201
3.13706
3.05069
3.15467
3.15075
3.1478
3.14971
3.14015
3.1398
3.14774
3.14704
3.13681
3.13895
3.0969
3.09256
3.09343
3.09574
3.08886
3.08822
3.08045
3.08503
3.08663
3.08229
3.08087
3.07951
3.07811
3.08229
3.0864
3.08675
3.08476
3.08805
3.08589
3.08767
3.18716
3.09593
3.09782
3.09765
3.10185
3.10203
3.09579
3.09197
3.09079
3.09025
3.10371
3.09954
3.10658
3.10855
3.10619
3.10328
3.10415
3.13641
3.12947
3.13024
3.136
3.13849
3.13191
3.13139
3.13754
3.1339
3.14073
3.14306
3.13838
3.13826
3.14194
3.14231
3.14856
3.14585
3.14508
3.14201
3.1518
3.15846
3.15259
3.15317
3.16088
3.1788
3.17312
3.17838
3.17266
3.16583
3.16225
3.16744
3.16736
3.10518
3.10958
3.11575
3.09646
3.08572
3.06953
3.07921
3.07717
3.07179
3.07047
3.08014
3.07828
3.09299
3.09344
3.09527
3.091
3.09656
3.10692
3.10426
3.1143
3.22613
3.22768
3.21679
3.2321
3.22328
3.23457
3.21943
3.21846
3.21479
3.2101
3.21733
3.20088
3.20979
3.20987
3.19487
3.18264
3.17597
3.176
3.20215
3.20306
3.19427
3.17195
3.17668
3.24345
3.22325
3.22505
3.24067
3.24059
3.2325
3.25173
3.06819
3.06407
3.06924
3.0781
3.05838
3.06392
3.05703
3.05386
3.04627
3.04608
3.05129
3.0898
3.10312
3.10295
3.09762
3.08013
3.08338
3.08998
3.08548
3.0536
3.05325
3.05642
3.06046
3.05537
3.2203
3.22209
3.20938
3.20494
3.22492
3.2125
3.23333
3.23874
3.2282
3.21911
3.2257
3.21417
3.22679
3.21887
3.1929
3.20971
3.20014
3.21529
3.22342
3.2177
3.21762
3.20782
3.2068
3.23153
3.22528
3.22826
3.22309
3.11246
3.11382
3.11598
3.11611
3.11631
3.1174
3.11314
3.11521
3.12103
3.11978
3.11645
3.11195
3.1115
3.11287
3.12041
3.113
3.11727
3.11703
3.11414
3.11895
3.11118
3.11187
3.10732
3.10809
3.10628
3.10236
3.10605
3.11012
3.10406
3.10528
3.26614
3.2545
3.27086
3.11858
3.11907
3.12205
3.12143
3.12533
3.10965
3.11172
3.11412
3.11506
3.10649
3.10237
3.10814
3.11562
3.10433
3.09664
3.10473
3.10643
3.11482
3.10719
3.11192
3.2696
3.269
3.25554
3.26188
3.25877
3.24722
3.23622
3.23529
3.24248
3.23906
3.22541
3.22326
3.21676
3.21676
3.21765
3.06365
3.06697
3.06137
3.06189
3.05953
3.05678
3.06323
3.06123
3.05853
3.08459
3.08409
3.08303
3.09466
3.07911
3.07862
3.1017
3.09768
3.12558
3.13616
3.12978
3.1228
3.11592
3.09781
3.11592
3.10487
3.07275
3.07754
3.07543
3.06706
3.07999
3.08072
3.07985
3.07134
3.20769
3.194
3.18678
3.17611
3.18768
3.18846
3.19427
3.17644
3.20041
3.19502
3.2008
3.06975
3.06969
3.06063
3.06589
3.06678
3.06998
3.06979
3.06832
3.11397
3.11857
3.1099
3.0996
3.09666
3.09606
3.11027
3.1035
3.09024
3.09799
3.09677
3.113
3.10977
3.10453
3.12356
3.10912
3.14088
3.12225
3.10898
3.13501
3.13201
3.12721
3.12534
3.11749
3.11033
3.18091
3.20491
3.19132
3.18649
3.18219
3.21814
3.22515
3.20513
3.1451
3.14577
3.15579
3.1517
3.14682
3.15795
3.16656
3.16282
3.14891
3.11003
3.10304
3.10306
3.10568
3.10139
3.10091
3.1005
3.10987
3.09802
3.09607
3.09724
3.11914
3.10033
3.10011
3.10643
3.1073
3.10776
3.11228
3.0985
3.11279
3.10345
3.10877
3.09144
3.08428
3.08666
3.08786
3.08872
3.09349
3.09345
3.0883
3.17703
3.16963
3.17999
3.18687
3.17708
3.16911
3.18111
3.09252
3.09051
3.08949
3.08716
3.08947
3.09095
3.0753
3.07744
3.07647
3.07965
3.08348
3.07951
3.08385
3.08515
3.08452
3.07701
3.07549
3.08078
3.08203
3.0793
3.08226
3.07624
3.07706
3.08378
3.08616
3.089
3.08399
3.08524
3.08646
3.1289
3.13193
3.13453
3.13295
3.13248
3.13145
3.13276
3.13219
3.28656
3.28973
3.26616
3.27762
3.29161
3.2805
3.26462
3.25581
3.26882
3.25876
3.25286
3.27289
3.27053
3.2719
3.27538
3.26167
3.25596
3.27402
3.28339
3.28002
3.27425
3.26737
3.26506
3.2622
3.26151
3.27678
3.27578
3.26752
3.27033
3.2581
3.25097
3.25496
3.30492
3.28464
3.30114
3.28541
3.30535
3.29452
3.28644
3.28918
3.29378
3.15867
3.16043
3.15752
3.20905
3.19451
3.21162
3.21402
3.19656
3.21736
3.22182
3.21379
3.20492
3.20045
3.19509
3.20213
3.20671
3.1696
3.19397
3.20334
3.20713
3.19858
3.17873
3.25612
3.25686
3.2413
3.24781
3.24119
3.23722
3.24531
3.23093
3.23095
3.22465
3.24208
3.23932
3.24709
3.24847
3.27614
3.28055
3.28304
3.26419
3.25465
3.252
3.25692
3.25585
3.25401
3.26432
3.24247
3.25446
3.2755
3.26085
3.2718
3.28297
3.27157
3.28157
3.27074
3.18443
3.19744
3.19783
3.18833
3.18589
3.17987
3.20602
3.21308
3.21218
3.20066
3.20113
3.19389
3.19683
3.21326
3.20514
3.19304
3.22897
3.23833
3.22781
3.23071
3.22272
3.12635
3.10958
3.10132
3.11344
3.12159
3.1212
3.17939
3.17809
3.17404
3.15091
3.15235
3.15257
3.16244
3.15836
3.06783
3.07567
3.08151
3.08168
3.07823
3.07546
3.09012
3.08532
3.06898
3.07111
3.06877
3.07083
3.07237
3.07168
3.06756
3.08115
3.07775
3.0738
3.0878
3.0576
3.05682
3.06029
3.06266
3.0713
3.06374
3.07445
3.04643
3.06705
3.0912
3.10297
3.10415
3.10181
3.09186
3.09057
3.10235
3.11593
3.10972
3.11561
3.1179
3.1141
3.10937
3.10388
3.10115
3.12792
3.11292
3.114
3.13612
3.13133
3.11543
3.11717
3.11335
3.11128
3.1063
3.13965
3.15132
3.14172
3.14223
3.14142
3.1522
3.15773
3.15465
3.14514
3.22337
3.20493
3.21229
3.22026
3.20862
3.22523
3.17127
3.16309
3.1674
3.15396
3.14785
3.14725
3.16012
3.15793
3.16604
3.1709
3.15495
3.16751
3.20835
3.21106
3.20226
3.20063
3.21984
3.21009
3.21692
3.20684
3.20513
3.20944
3.19811
3.21115
3.19903
3.19767
3.20652
3.15061
3.14958
3.15237
3.16056
3.15911
3.16967
3.16468
3.11209
3.10788
3.10325
3.11306
3.10747
3.10982
3.11058
3.10403
3.10907
3.11135
3.11661
3.28123
3.28781
3.27611
3.27178
3.29243
3.2831
3.29235
3.30242
3.29253
3.27846
3.27721
3.27605
3.29971
3.28886
3.28524
3.29483
3.27854
3.28721
3.26527
3.25703
3.27572
3.26991
3.25439
3.25996
3.27122
3.25444
3.25731
3.25631
3.05519
3.05736
3.05839
3.06082
3.05798
3.05385
3.0542
3.13877
3.13955
3.07769
3.07678
3.07349
3.07034
3.08669
3.08587
3.05981
3.05938
3.05808
3.05764
3.06341
3.05455
3.05729
3.05929
3.06112
3.05545
3.05419
3.05846
3.05854
3.06081
3.04616
3.05429
3.05491
3.04548
3.04661
3.041
3.04142
3.04047
3.04397
3.04751
3.04094
3.04211
3.04772
3.0452
3.0463
3.13107
3.14378
3.13132
3.12657
3.13962
3.14459
3.14573
3.14313
3.13853
3.1371
3.06397
3.05986
3.05908
3.05988
3.06114
3.061
3.05922
3.05214
3.05688
3.05333
3.06094
3.06096
3.0585
3.05821
3.05457
3.04773
3.05449
3.05571
3.05314
3.04963
3.05062
3.05068
3.05335
3.05419
3.07089
3.07153
3.07233
3.0604
3.06442
3.06137
3.06972
3.07022
3.06449
3.0622
3.05884
3.09216
3.08182
3.0864
3.091
3.08624
3.08563
3.08286
3.08889
3.08553
3.08332
3.08344
3.071
3.07538
3.06757
3.0698
3.07499
3.0746
3.06833
3.0732
3.17052
3.17519
3.16935
3.18626
3.18415
3.18488
3.17954
3.19103
3.19197
3.19317
3.1887
3.17571
3.18332
3.19712
3.1912
3.18839
3.11982
3.11418
3.1155
3.11583
3.11974
3.11929
3.11458
3.11345
3.10984
3.11547
3.11727
3.11786
3.11194
3.11192
3.11667
3.11944
3.18927
3.20554
3.1944
3.19091
3.19996
3.20738
3.20635
3.20444
3.24376
3.20068
3.21205
3.21443
3.20054
3.19238
3.19901
3.21875
3.21909
3.19932
3.18225
3.19975
3.19742
3.1936
3.17771
3.17655
3.17481
3.1595
3.16119
3.17686
3.1631
3.25285
3.2587
3.24916
3.23915
3.25551
3.24675
3.25009
3.25766
3.26117
3.25909
3.25247
3.24707
3.23626
3.24113
3.23948
3.18524
3.20962
3.1906
3.18498
3.20884
3.20615
3.18895
3.19892
3.19477
3.19411
3.1816
3.185
3.20486
3.2064
3.19763
3.19114
3.21944
3.19714
3.22772
3.23383
3.23455
3.23811
3.23108
3.22083
3.22476
3.23275
3.23225
3.22468
3.21429
3.2075
3.20969
3.10424
3.11817
3.1223
3.132
3.12841
3.12212
3.10935
3.10886
3.12144
3.11918
3.11152
3.13381
3.14166
3.12934
3.12139
3.12693
3.12546
3.1219
3.1286
3.12952
3.12982
3.10918
3.1053
3.10732
3.10695
3.10934
3.1024
3.10498
3.10452
3.11339
3.11249
3.1068
3.10957
3.11085
3.11636
3.1079
3.1065
3.10429
3.10835
3.05597
3.05283
3.05769
3.05183
3.05515
3.05069
3.04924
3.05561
3.05718
3.057
3.05924
3.15348
3.14429
3.15528
3.18006
3.19096
3.17115
3.18075
3.18754
3.17846
3.22104
3.2257
3.23863
3.2341
3.23636
3.23063
3.22375
3.21678
3.20989
3.20147
3.22995
3.24271
3.24239
3.22814
3.25401
3.24658
3.25088
3.25634
3.24979
3.25917
3.25379
3.26677
3.28641
3.27461
3.28859
3.27138
3.29329
3.07357
3.07142
3.07287
3.07913
3.07359
3.07588
3.06904
3.0728
3.06882
3.06995
3.25259
3.23309
3.25093
3.24348
3.22724
3.23501
3.23848
3.22988
3.22634
3.23615
3.26267
3.25252
3.23569
3.25056
3.2345
3.2499
3.25538
3.24859
3.25962
3.25482
3.25042
3.2444
3.26155
3.25953
3.26231
3.25486
3.26775
3.26165
3.25304
3.27807
3.26745
3.26953
3.1555
3.18115
3.17866
3.16611
3.15973
3.18171
3.18171
3.16945
3.1691
3.17241
3.16925
3.15742
3.16056
3.14592
3.07493
3.07435
3.07232
3.0613
3.06683
3.06885
3.06422
3.06244
3.06644
3.06661
3.0729
3.07998
3.06305
3.06353
3.0633
3.06345
3.06792
3.07015
3.06935
3.06434
3.06262
3.06228
3.06418
3.06474
3.06964
3.06663
3.06888
3.06778
3.06649
3.06646
3.0646
3.06973
3.0677
3.06919
3.06279
3.0661
3.09242
3.08729
3.10881
3.10268
3.10313
3.08336
3.08642
3.11131
3.10517
3.10509
3.1005
3.11426
3.10758
3.124
3.12009
3.12726
3.11859
3.11408
3.12115
3.12829
3.13429
3.13464
3.17778
3.17012
3.17062
3.17434
3.16939
3.17354
3.16193
3.17025
3.27494
3.25874
3.26048
3.2504
3.2459
3.26001
3.24996
3.09406
3.08152
3.0691
3.08169
3.07136
3.08589
3.0736
3.0843
3.09302
3.266
3.27214
3.26396
3.27507
3.28056
3.26956
3.27539
3.2674
3.19794
3.20321
3.19587
3.19801
3.20023
3.19131
3.15601
3.13364
3.13079
3.15426
3.1537
3.15664
3.14342
3.13819
3.14881
3.15973
3.17846
3.16402
3.17611
3.16856
3.22759
3.20614
3.22427
3.24075
3.23273
3.22154
3.24835
3.2259
3.24229
3.23408
3.23774
3.24273
3.23178
3.23658
3.22179
3.23262
3.22896
3.22
3.2047
3.24114
3.22825
3.23448
3.22744
3.03932
3.03853
3.03812
3.03068
3.04214
3.19876
3.20501
3.20871
3.1938
3.20668
3.20401
3.20081
3.20555
3.19808
3.18899
3.18506
3.18406
3.21925
3.22156
3.21285
3.23473
3.20446
3.24382
3.23447
3.23272
3.22757
3.22135
3.24053
3.23757
3.22823
3.21183
3.21609
3.2399
3.27549
3.26338
3.27771
3.26674
3.26059
3.25708
3.26689
3.2585
3.25463
3.25942
3.25248
3.26493
3.28279
3.26287
3.26078
3.26957
3.26647
3.27369
3.28259
3.27357
3.27298
3.26334
3.09949
3.10184
3.10262
3.09529
3.09491
3.096
3.10261
3.10136
3.09833
3.09772
3.0802
3.08104
3.08096
3.08233
3.08488
3.08688
3.08885
3.08332
3.08381
3.08611
3.08493
3.14494
3.1359
3.15492
3.1455
3.15027
3.14252
3.15843
3.16486
3.16892
3.17201
3.19248
3.17807
3.17898
3.17476
3.17163
3.1739
3.1825
3.17779
3.19167
3.19541
3.28819
3.29193
3.29507
3.30888
3.29929
3.28878
3.29832
3.31118
3.29972
3.31296
3.29925
3.30052
3.29288
3.29657
3.31262
3.30583
3.30571
3.29542
3.30788
3.30451
3.30012
3.30948
3.29627
3.20715
3.20795
3.21551
3.2049
3.20961
3.21528
3.20829
3.22268
3.2146
3.20221
3.20866
3.29072
3.28112
3.29541
3.29185
3.29163
3.29891
3.3044
3.29104
3.29135
3.28309
3.27859
3.28065
3.27105
3.28021
3.2873
3.29351
3.12233
3.11317
3.08378
3.08918
3.08816
3.08353
3.08089
3.08018
3.0889
3.08794
3.08937
3.09691
3.09507
3.09639
3.09002
3.09186
3.09332
3.09621
3.0949
3.0913
3.09019
3.08699
3.08585
3.08918
3.0886
3.0875
3.08881
3.21472
3.10558
3.10366
3.08657
3.09113
3.10338
3.11176
3.10615
3.10064
3.10146
3.10546
3.09616
3.20342
3.19694
3.20117
3.20124
3.18843
3.18424
3.17534
3.19141
3.18609
3.16692
3.16343
3.17642
3.18722
3.17391
3.1721
3.19916
3.19802
3.18635
3.23788
3.2267
3.25398
3.23817
3.2346
3.23093
3.23833
3.22994
3.22601
3.22306
3.12419
3.12293
3.12224
3.12498
3.12612
3.12073
3.11611
3.11478
3.11769
3.11477
3.11349
3.11308
3.11782
3.1571
3.16655
3.18944
3.1833
3.17249
3.17272
3.16206
3.17452
3.18526
3.18382
3.15954
3.1665
3.18464
3.17093
3.18605
3.18625
3.17367
3.16572
3.12981
3.12643
3.05649
3.05931
3.06107
3.17885
3.18567
3.17754
3.16604
3.17574
3.1872
3.18361
3.19023
3.16622
3.16377
3.18293
3.19403
3.18415
3.13323
3.12626
3.13139
3.12699
3.13001
3.128
3.12514
3.12739
3.12575
3.12223
3.0389
3.03681
3.0477
3.04271
3.04834
3.04946
3.04875
3.04789
3.06807
3.0689
3.12962
3.13071
3.14982
3.15371
3.1663
3.1633
3.13759
3.14903
3.14664
3.13197
3.13255
3.15153
3.14658
3.15595
3.15334
3.13975
3.13659
3.14912
3.1321
3.13439
3.13169
3.12384
3.14426
3.138
3.13653
3.13983
3.13421
3.12956
3.14154
3.1362
3.14007
3.14075
3.14221
3.14606
3.13599
3.13401
3.19701
3.2034
3.18935
3.19536
3.18709
3.2042
3.19581
3.2037
3.20192
3.20617
3.20403
3.21154
3.21238
3.20877
3.20676
3.19504
3.19995
3.16806
3.15966
3.17129
3.17938
3.17255
3.1613
3.15047
3.16844
3.17578
3.18261
3.17526
3.16653
3.16082
3.0644
3.06072
3.05889
3.16149
3.1651
3.14913
3.14883
3.14894
3.15047
3.16719
3.1684
3.13449
3.12917
3.14385
3.20364
3.19843
3.19778
3.18571
3.19104
3.19947
3.21067
3.20941
3.21579
3.21347
3.15602
3.1647
3.17899
3.18564
3.17952
3.17219
3.18339
3.18164
3.1869
3.19222
3.20267
3.20027
3.18767
3.20637
3.19685
3.18942
3.19441
3.04434
3.04454
3.26885
3.13246
3.1333
3.13946
3.13973
3.13803
3.13216
3.13737
3.14381
3.14528
3.14213
3.14926
3.15784
3.14959
3.149
3.1477
3.14622
3.15193
3.14461
3.14872
3.15482
3.0998
3.09968
3.09402
3.09302
3.10001
3.09569
3.09775
3.08837
3.09283
3.14667
3.14335
3.13914
3.14523
3.14448
3.14545
3.14845
3.14517
3.14735
3.14005
3.13778
3.14318
3.13828
3.14194
3.16225
3.16676
3.09014
3.08551
3.07583
3.07701
3.09
3.08473
3.08364
3.08749
3.08378
3.08503
3.07933
3.15603
3.14782
3.17205
3.16928
3.21152
3.2131
3.21758
3.21061
3.22835
3.20432
3.21872
3.21399
3.21054
3.22116
3.22473
3.21482
3.21061
3.21054
3.20547
3.11605
3.11578
3.12769
3.12854
3.13085
3.12716
3.12834
3.12918
3.13007
3.11584
3.1234
3.11972
3.11923
3.11691
3.11563
3.11829
3.11635
3.10768
3.10336
3.10455
3.10292
3.096
3.10094
3.11644
3.12158
3.11774
3.11788
3.118
3.11848
3.12196
3.12294
3.12118
3.09634
3.10448
3.10587
3.10294
3.10555
3.09913
3.10068
3.09939
3.10378
3.1022
3.10374
3.10578
3.10523
3.22385
3.21221
3.17113
3.16819
3.16679
3.16811
3.15941
3.15262
3.17149
3.17353
3.16939
3.15689
3.16732
3.16838
3.12728
3.1298
3.13596
3.1326
3.13911
3.14586
3.14933
3.15156
3.12755
3.13217
3.14272
3.14951
3.15688
3.15109
3.0921
3.09341
3.09386
3.10065
3.09984
3.09501
3.09342
3.09098
3.09383
3.09749
3.101
3.10106
3.09711
3.09774
3.13607
3.13421
3.13793
3.13661
3.13172
3.13602
3.13928
3.13897
3.13407
3.13195
3.13552
3.1348
3.13826
3.1408
3.27749
3.26574
3.28011
3.2774
3.2697
3.27307
3.28964
3.28246
3.28176
3.28537
3.2916
3.28855
3.20828
3.19639
3.19306
3.23658
3.23508
3.22491
3.23314
3.21443
3.22961
3.24125
3.24317
3.24359
3.23414
3.22761
3.23479
3.23096
3.23922
3.24644
3.25203
3.26025
3.17323
3.17462
3.18767
3.18778
3.18677
3.19163
3.18616
3.19143
3.1951
3.12481
3.12119
3.13367
3.14002
3.12899