/*--------------------------------*- C++ -*----------------------------------*\
| =========                 |                                                 |
| \\      /  F ield         | OpenFOAM: The Open Source CFD Toolbox           |
|  \\    /   O peration     | Version:  v1612+                                |
|   \\  /    A nd           | Web:      www.OpenFOAM.com                      |
|    \\/     M anipulation  |                                                 |
\*---------------------------------------------------------------------------*/
FoamFile
{
    version     2.0;
    format      ascii;
    class       surfaceScalarField;
    location    "166";
    object      phi;
}
// * * * * * * * * * * * * * * * * * * * * * * * * * * * * * * * * * * * * * //

dimensions      [0 3 -1 0 0 0 0];

internalField   nonuniform List<scalar> 
37838
(
5.10645e-09
-6.05608e-09
8.75632e-09
-7.80671e-09
-4.58546e-09
-6.79911e-09
5.51183e-09
5.87275e-09
4.26066e-09
-2.92566e-09
5.43811e-10
-1.87881e-09
-1.50173e-09
-4.51126e-09
1.21677e-09
4.79622e-09
3.31842e-09
-9.32085e-10
5.48995e-09
-7.8763e-09
1.03805e-09
1.08903e-08
-8.60991e-09
-2.53191e-09
1.20324e-08
-8.46246e-09
-1.60773e-09
1.20868e-08
-1.30111e-08
5.32143e-09
-7.86125e-09
8.88199e-09
1.055e-08
-7.34518e-09
-1.42739e-09
2.6737e-09
7.63567e-09
-3.70253e-09
6.91856e-09
7.67423e-09
1.75809e-09
2.93321e-11
-1.84647e-09
7.69424e-09
4.70224e-09
3.61289e-09
6.57305e-09
3.69466e-09
1.99375e-10
2.13481e-09
8.39664e-09
-3.45145e-09
6.71171e-09
-1.12543e-09
-4.98076e-09
1.45083e-09
7.84974e-11
4.71978e-10
1.50864e-08
3.76487e-10
-6.97939e-09
-8.48343e-09
2.36188e-09
8.96495e-09
3.75962e-09
-1.24748e-08
5.66611e-09
9.17064e-09
4.70601e-09
3.56265e-09
-4.08156e-09
-4.18706e-09
-7.39236e-09
-4.65531e-09
7.04427e-09
3.27717e-09
1.2589e-09
3.30101e-09
-4.622e-09
6.21347e-11
1.66252e-10
-1.27316e-08
5.00115e-09
-3.35518e-09
-2.92945e-09
-9.93127e-09
5.08468e-12
-1.12109e-08
-4.45017e-09
-7.31859e-09
1.68539e-09
2.36505e-09
2.44598e-09
-1.60219e-08
3.22455e-09
-1.07908e-08
2.937e-09
-7.80962e-09
-4.2288e-09
-4.35767e-10
-3.36708e-09
-7.95453e-09
-5.12828e-09
-3.36532e-09
7.90079e-09
-2.91796e-10
-4.24366e-09
1.03209e-08
-2.3697e-09
-1.13165e-08
9.53385e-09
-7.56073e-09
8.34783e-09
-5.40682e-09
8.21014e-09
6.73054e-09
-2.52681e-09
2.95567e-09
7.38805e-10
-1.16767e-09
3.18988e-09
-8.08639e-09
3.77588e-10
2.11639e-09
5.27655e-09
-2.61267e-09
1.22609e-08
-6.01751e-09
1.96678e-09
5.84741e-09
-4.82866e-09
2.94448e-09
-3.96322e-09
3.95415e-09
1.25989e-09
6.33398e-10
3.0444e-09
-4.68318e-09
3.87398e-09
-9.0773e-11
3.54671e-09
2.10743e-09
-4.07085e-09
4.45208e-09
3.57293e-09
-1.00445e-09
-1.21913e-10
7.71935e-10
-1.38921e-09
4.16399e-09
-3.15479e-09
4.02429e-09
-9.75611e-11
-2.85259e-10
-1.24096e-08
1.796e-09
1.21257e-09
9.40105e-09
-3.94362e-09
1.51779e-09
-9.98381e-09
1.43625e-08
-1.44808e-08
-3.82531e-09
3.75075e-09
1.24078e-08
-2.75142e-09
1.90466e-09
6.74362e-09
-5.89688e-09
5.19565e-09
-7.36348e-09
-5.83585e-10
-1.14244e-08
3.03856e-09
9.59838e-09
-8.00194e-09
9.548e-10
1.10427e-08
-8.24674e-09
-1.28704e-09
6.56246e-09
1.4682e-09
4.0432e-09
-1.346e-10
-5.26736e-09
-2.01421e-09
8.23637e-09
-1.51806e-09
2.93896e-10
7.58681e-09
1.30498e-08
-4.54144e-09
-7.90634e-09
-6.02036e-10
-8.53556e-09
3.03834e-09
1.8547e-08
9.07279e-09
-6.80319e-09
-6.81105e-09
-7.10505e-10
1.24772e-09
-6.03972e-09
6.18716e-09
-9.99023e-09
9.84278e-09
-7.59547e-09
8.45236e-10
1.16971e-09
-7.29624e-09
-1.77982e-09
7.32791e-09
-1.66218e-10
-5.99198e-09
-7.56069e-09
1.67862e-08
9.15656e-09
-9.50873e-09
-7.24331e-09
-1.82617e-09
9.92505e-10
-6.58132e-09
6.34855e-09
-1.87257e-10
-8.22024e-09
-2.60328e-08
1.08434e-08
7.40269e-09
7.78667e-09
-6.62759e-09
-1.13656e-08
-8.0396e-09
-9.29334e-09
9.33226e-09
1.08045e-08
1.41979e-08
1.21548e-08
-1.895e-08
2.16953e-08
-1.30074e-08
-1.53155e-08
2.31385e-09
1.0088e-08
8.31085e-09
1.52192e-08
-1.16564e-08
-7.83997e-09
2.14084e-08
-1.91201e-09
-1.62518e-08
1.55404e-08
-1.09451e-08
9.74589e-09
-1.62582e-08
8.82608e-09
-2.43772e-09
-1.16354e-08
-2.17866e-09
1.56094e-08
-3.57868e-09
-1.44685e-08
2.5384e-08
-5.37005e-09
-1.17031e-08
1.29736e-08
-5.20412e-09
8.70828e-09
3.16271e-09
9.5374e-09
1.39397e-08
1.0309e-08
-1.58543e-08
1.12304e-08
1.04524e-09
7.31616e-09
8.82014e-09
8.11394e-09
3.54299e-09
8.25596e-09
-1.99129e-08
3.86086e-09
8.9305e-09
-4.67743e-09
5.90499e-09
9.69771e-09
-1.20597e-08
1.02342e-08
-4.6831e-10
9.14536e-09
-1.3389e-08
1.24996e-08
1.40654e-08
4.01042e-09
-1.19648e-08
6.25431e-09
1.04803e-08
-4.76977e-09
1.01645e-08
-8.06394e-09
6.77613e-09
-2.01707e-09
5.47509e-09
-1.19473e-08
1.8616e-08
-4.14339e-10
4.99329e-09
6.96929e-09
-8.35105e-09
1.10795e-08
4.16094e-09
-2.9189e-09
5.72724e-09
9.16799e-09
6.464e-09
-5.98385e-10
-1.50336e-08
1.1119e-08
-1.51099e-08
1.31589e-08
-1.16172e-08
9.69361e-10
1.17478e-08
-1.1e-09
-7.22624e-09
3.42631e-09
-7.8173e-09
1.72648e-10
1.09259e-08
-1.01292e-08
-1.38558e-09
-2.76181e-09
1.06114e-08
-6.65456e-09
1.6388e-08
1.29597e-08
-4.19761e-09
-1.65394e-08
7.77732e-09
4.51983e-09
-6.67002e-09
1.61669e-08
-7.18084e-09
-3.53521e-09
1.40045e-09
-5.48155e-09
8.0507e-09
-1.83206e-10
-2.38597e-09
-1.0109e-08
4.29846e-10
2.15701e-09
2.35849e-09
6.09832e-10
-7.41035e-09
1.42417e-10
6.65811e-09
-4.74379e-09
6.01806e-10
4.75183e-09
2.11862e-09
-6.51057e-09
-3.01839e-09
-2.25378e-09
-3.71389e-10
-7.6073e-09
6.10802e-10
7.13891e-09
2.39407e-09
-1.70085e-09
-7.20379e-09
5.89707e-10
-5.80294e-09
3.35181e-10
-8.63192e-09
8.90752e-09
-5.38888e-09
5.72626e-09
-2.20989e-12
-7.97356e-09
-9.44415e-10
3.52909e-09
-4.44484e-09
4.38234e-09
6.64313e-10
2.0075e-09
-5.85641e-09
-3.25227e-09
7.10118e-09
-2.16911e-09
-2.68222e-10
4.01082e-09
7.70778e-11
-5.78873e-09
-4.12065e-10
-2.25275e-09
-5.78946e-09
3.02146e-09
-8.80078e-09
-7.20485e-09
-2.33824e-09
2.21987e-09
1.05129e-08
-1.03945e-08
1.6926e-09
6.53933e-09
-1.05702e-08
-1.62693e-09
1.02327e-08
-6.38585e-09
6.27216e-09
-6.20648e-09
-4.20245e-09
-4.00001e-09
9.33908e-09
-1.13661e-09
1.04736e-08
-8.13668e-09
6.36422e-09
1.48711e-10
7.59238e-09
-1.21107e-09
3.85135e-09
-9.12954e-09
7.4294e-09
1.10392e-08
3.69037e-09
-2.34634e-09
6.76642e-09
7.1902e-09
-9.07458e-10
-2.48112e-09
1.0155e-08
-1.83119e-09
8.35313e-09
4.81871e-09
-7.50804e-09
8.9615e-09
-1.09311e-09
7.34848e-09
-8.73647e-09
-9.04981e-09
6.12551e-09
-5.40719e-10
-4.2292e-09
4.51667e-09
-9.71317e-10
6.83845e-10
4.66319e-09
-1.10886e-10
-8.86032e-09
4.30802e-09
-7.13862e-09
5.06519e-09
6.73663e-09
-6.32999e-09
2.7424e-09
6.7458e-10
2.91302e-09
-1.02866e-09
-2.87528e-09
-3.23468e-09
-4.38578e-09
7.64183e-09
-4.94654e-09
1.69049e-09
9.10768e-09
-1.06908e-08
-2.80263e-09
1.19705e-08
-5.76728e-09
2.90447e-09
6.20911e-09
1.34032e-08
-5.36485e-09
7.16874e-11
1.15022e-08
-3.73051e-09
-3.92827e-09
2.29393e-09
6.22317e-09
-3.62602e-09
6.72624e-10
-3.26979e-09
1.136e-08
-4.68726e-09
7.67209e-09
-7.21402e-09
-7.32365e-09
3.48226e-09
-5.37386e-09
9.4121e-09
-6.27625e-09
2.23801e-09
-1.14594e-08
-4.60527e-09
8.39547e-10
-9.18813e-09
-5.07434e-10
5.62831e-09
-8.43529e-09
-3.24574e-09
2.32372e-09
-1.05374e-08
-9.9368e-10
-8.5283e-09
-5.55645e-09
3.59146e-09
-6.18057e-09
3.07777e-09
-1.58017e-10
-2.81605e-09
-1.03711e-10
-2.64398e-09
8.60475e-10
4.86126e-09
-4.96549e-09
-1.59127e-09
3.91277e-09
-4.69471e-09
-4.28811e-10
6.081e-09
-3.06456e-09
-4.45839e-09
1.44194e-09
4.48112e-09
-1.21616e-09
2.7479e-09
7.65076e-09
-3.64831e-09
-6.75036e-09
-4.13954e-10
-4.39846e-09
1.17688e-10
-3.72398e-09
3.39136e-09
-8.13526e-11
-2.74959e-09
6.35796e-09
-5.48876e-09
1.71422e-09
2.18326e-09
2.64386e-09
5.42423e-10
-7.55418e-09
4.36789e-09
-5.51854e-09
3.17989e-09
6.12962e-10
1.72566e-09
2.91223e-09
-5.78691e-09
-2.20867e-09
5.31947e-10
-2.04726e-09
-2.40792e-09
-4.19921e-09
-3.73258e-09
1.63517e-09
-3.8686e-09
2.83322e-09
-4.93005e-09
-3.03609e-09
2.34737e-09
1.25824e-09
-1.3821e-09
-1.94239e-09
-8.21541e-09
7.52879e-09
-2.42493e-09
3.11156e-09
2.5989e-09
-5.44621e-09
-5.36809e-09
-4.92963e-09
2.66745e-09
-1.71686e-10
2.43387e-09
-2.64429e-09
-1.73273e-09
-5.52606e-10
5.79651e-09
-2.68508e-09
-5.12495e-10
2.24054e-09
1.10848e-08
4.57454e-09
-8.27027e-09
-1.75047e-09
-4.94671e-10
-1.50631e-09
6.4143e-09
-4.18142e-09
2.16892e-09
1.84081e-09
-3.17592e-09
-2.73822e-09
-6.59322e-09
6.47823e-09
-1.85615e-09
1.97115e-09
6.18234e-09
-7.71395e-09
-5.06159e-09
-3.38476e-09
4.04738e-09
9.23251e-10
2.57401e-09
4.01672e-09
-1.10223e-09
-3.92984e-09
-1.07285e-08
-8.40586e-09
9.72561e-09
9.40872e-09
-5.77463e-09
-4.23839e-10
-4.53003e-09
-1.17744e-08
1.0223e-08
-6.85452e-09
-1.68147e-08
-7.34375e-10
9.11654e-09
-4.14834e-09
-5.39204e-09
1.84059e-09
2.53986e-09
5.3451e-09
-7.80064e-09
1.708e-09
7.93321e-09
-7.99061e-10
2.11496e-09
7.58672e-10
-9.95366e-09
1.17348e-08
-8.06926e-09
1.05359e-08
4.87423e-09
-4.60487e-09
7.39749e-10
-9.60808e-09
7.79334e-09
5.94983e-09
-2.42129e-09
-1.13219e-08
6.82945e-09
1.62025e-09
-6.56342e-10
-4.35673e-09
4.59444e-09
6.59174e-09
-1.88607e-09
3.47919e-09
7.34596e-09
-8.21505e-09
1.42337e-08
-1.33646e-08
1.0051e-08
-1.0848e-09
6.91431e-09
-1.75507e-08
-6.18627e-09
6.43218e-09
9.80513e-09
3.83158e-09
4.21584e-09
-6.96439e-09
3.60844e-09
1.02703e-08
2.07248e-09
3.29389e-10
-7.7433e-09
5.34143e-09
-6.17296e-09
-5.32332e-09
1.30476e-08
-1.55131e-09
4.84903e-10
-2.25677e-10
5.09105e-09
-8.34189e-09
6.95396e-09
-4.72341e-09
2.23966e-09
-4.47021e-09
-4.39979e-09
5.29174e-09
6.06201e-09
7.0208e-09
-3.00228e-09
-8.74192e-09
4.41196e-11
2.5769e-09
-4.29751e-09
3.00476e-09
1.33688e-09
-3.58992e-09
2.44673e-09
-3.15432e-09
3.35607e-09
-1.8752e-10
-9.289e-10
2.43527e-09
6.21255e-09
1.11269e-09
-7.70488e-09
-1.81972e-09
2.99562e-09
1.82889e-09
8.36896e-10
-2.0989e-10
-8.62664e-11
1.01167e-09
1.50991e-09
1.55142e-09
1.35797e-09
-1.20796e-09
-2.65296e-09
4.87259e-09
-2.24151e-09
2.58498e-09
-1.04282e-09
-2.87245e-09
1.26231e-09
-3.01716e-09
-2.67153e-10
-2.39631e-09
-6.63665e-10
2.06491e-09
-3.34853e-09
-1.15354e-10
3.17655e-09
5.20592e-09
-9.76611e-09
1.38366e-09
5.60553e-09
-5.93876e-09
3.50979e-09
-4.30668e-10
3.86188e-09
1.77473e-09
3.9872e-09
1.18767e-09
-2.29546e-09
5.34489e-11
-5.63089e-09
7.87293e-09
-3.66778e-10
-5.93787e-09
4.00924e-09
-2.82408e-09
-3.13764e-09
2.29674e-11
-3.93033e-09
-8.65987e-09
3.6857e-09
-2.41508e-09
2.7166e-09
1.59702e-09
1.722e-09
-3.06945e-09
4.71993e-09
5.51235e-10
-2.62721e-09
1.60536e-09
-5.10638e-10
1.40279e-09
6.03527e-09
-3.15758e-09
-4.28046e-09
3.57828e-09
-5.70119e-10
-9.043e-09
-1.22738e-09
4.63952e-09
-2.88204e-09
-5.60973e-09
-2.98179e-09
3.49062e-09
1.8261e-09
-2.43771e-09
-3.46802e-09
-1.75485e-09
-4.69137e-10
-2.13687e-10
3.57251e-09
-7.78483e-10
-4.54886e-09
1.76436e-09
-1.65986e-09
1.50274e-09
-1.73284e-09
-2.3901e-10
1.05862e-09
-3.2091e-09
-2.25972e-09
-1.80285e-10
2.14773e-09
-4.65905e-09
2.95041e-09
-4.01177e-09
1.40448e-09
-9.06667e-09
1.01026e-08
-3.73564e-10
-6.62392e-10
5.1586e-09
-7.51652e-09
-6.70877e-09
-3.77297e-09
8.67182e-09
5.20374e-09
1.37027e-09
1.53565e-11
3.70136e-09
-8.21254e-09
9.38932e-09
-4.87816e-09
-1.66041e-09
5.3995e-09
-3.77305e-11
-1.0925e-09
1.30002e-09
-8.42007e-09
-2.16228e-09
1.17579e-08
8.17522e-10
-1.04132e-08
-4.10986e-10
-9.26783e-09
5.20025e-09
-6.70374e-09
3.81538e-09
-2.75537e-10
-2.20911e-09
1.35935e-08
1.42233e-09
8.57381e-09
-1.32433e-09
-9.20181e-09
7.83851e-09
6.76279e-09
8.91964e-10
-7.04455e-10
1.12762e-08
-9.15863e-09
-4.85359e-09
3.83265e-11
6.23759e-09
3.32052e-10
1.19627e-08
2.05471e-10
2.81487e-09
1.12985e-08
-2.1507e-09
1.06917e-08
1.1055e-08
8.33043e-09
-1.10323e-08
7.73247e-09
3.77541e-10
2.94503e-09
-3.60245e-09
8.84712e-09
2.48782e-09
6.69012e-09
-1.96212e-09
-3.28274e-09
2.05018e-09
8.37147e-09
5.57699e-09
4.77779e-11
3.56363e-09
6.96891e-09
-9.75312e-09
5.71167e-09
1.28886e-08
-2.31965e-09
-7.43344e-10
1.01651e-08
-2.40329e-09
-8.07759e-09
-2.72137e-09
4.42862e-09
6.37034e-09
-1.99707e-09
-6.51857e-09
5.56776e-09
7.63085e-09
1.20589e-09
-1.44045e-08
6.10216e-09
3.86609e-09
-4.40051e-09
-1.02465e-08
3.44084e-09
-3.17261e-09
9.97827e-09
1.12959e-08
-1.56122e-09
-3.63248e-09
4.0661e-09
-3.01674e-09
-9.16531e-09
8.20504e-11
1.25241e-08
-6.6582e-09
1.55895e-09
4.25955e-09
-2.71174e-09
-1.17396e-08
1.01918e-08
1.4438e-08
-1.00964e-08
4.00657e-09
8.49505e-09
-4.87077e-09
8.35363e-09
-4.80994e-10
-1.41555e-08
8.27111e-09
-8.45645e-09
-1.23726e-08
6.67362e-09
-6.1575e-09
-3.86017e-09
-9.03771e-09
5.40053e-09
6.20407e-10
-7.9743e-09
-4.69591e-09
2.07076e-09
-1.01265e-08
-3.68383e-09
1.29109e-08
-1.11427e-08
-2.50475e-09
7.36496e-10
-8.9985e-10
1.14657e-08
1.13552e-09
5.59907e-10
-1.06666e-08
-1.20152e-09
-5.04487e-10
-7.38389e-09
-9.4402e-09
-9.80798e-09
-1.52007e-09
-1.5986e-08
5.14281e-09
-4.16789e-09
-6.52708e-09
5.55215e-09
7.54795e-09
-4.48117e-09
5.69877e-09
-8.76553e-09
-5.99944e-10
7.80916e-09
3.38715e-10
-4.37382e-09
6.05608e-09
5.15734e-09
-6.8396e-09
1.6904e-10
2.36437e-09
-1.10134e-08
1.39049e-08
-1.13245e-09
-7.07368e-09
1.45013e-09
-2.44913e-09
1.49039e-08
-3.36324e-10
9.59561e-09
5.0871e-09
6.92984e-09
-9.65255e-09
8.70652e-09
-1.11258e-09
-2.50685e-09
-1.45918e-08
-2.5336e-10
1.2396e-08
-8.79441e-09
-1.37606e-09
7.09582e-09
7.0771e-09
-7.35915e-09
6.01151e-09
-7.20728e-09
8.5549e-09
2.41643e-09
-6.35581e-09
-3.41977e-09
-5.01541e-09
1.13945e-08
-3.67621e-10
9.59951e-11
-2.69498e-09
-2.25523e-09
-2.65812e-09
-3.40486e-09
-5.20619e-09
-5.38103e-09
-9.5689e-10
-6.08538e-10
6.94644e-09
-4.07205e-09
-3.9671e-09
-2.53732e-09
6.02999e-09
2.622e-09
-6.11469e-09
1.59714e-09
-8.20651e-09
7.40164e-09
-2.32856e-09
1.08075e-09
-2.88848e-09
-1.38832e-09
5.09106e-09
6.973e-10
4.76297e-09
-7.29659e-09
1.8363e-09
5.08608e-09
-7.24511e-09
2.85633e-09
3.51633e-09
5.93642e-09
1.34247e-09
-1.07952e-08
7.50025e-10
-6.5784e-09
9.34471e-09
-1.35356e-09
-3.4618e-09
9.57834e-09
-5.27767e-09
9.01019e-09
-5.43788e-09
3.11563e-09
-4.92286e-09
-3.30857e-10
8.29397e-10
-3.40806e-09
8.98245e-09
-4.82436e-09
5.51284e-09
-7.57843e-09
-2.76237e-09
6.00334e-10
4.9801e-09
-3.70697e-09
-8.56972e-09
-2.44597e-09
5.61124e-09
5.81719e-09
3.0451e-10
7.12954e-09
6.03622e-09
-2.63017e-09
-8.36798e-09
4.9619e-09
7.4951e-09
9.62555e-10
-2.42147e-09
3.45042e-09
3.6329e-09
4.11759e-10
-1.11349e-08
6.70501e-09
1.10184e-08
-6.5885e-09
-4.14511e-09
-6.07289e-09
-9.16898e-10
8.15177e-09
-6.62724e-09
-1.54161e-09
1.70803e-11
1.23652e-08
2.49163e-09
-7.61494e-09
3.59787e-09
1.3869e-09
-2.38382e-09
-5.50371e-09
2.7257e-10
4.09502e-09
-2.85292e-09
-2.7957e-10
5.06434e-09
2.48109e-09
-4.67852e-09
-6.09383e-09
-1.44282e-09
-2.59577e-09
4.54971e-09
-5.11153e-10
-6.97862e-10
-8.39338e-09
5.10175e-09
7.33959e-10
-1.01251e-08
9.97749e-10
-6.80306e-09
6.0007e-09
-7.39242e-10
2.51444e-09
1.00782e-09
1.29094e-09
-4.8132e-09
1.56334e-09
-2.16928e-09
3.12038e-09
-6.09254e-09
-1.90842e-09
2.12322e-09
5.87775e-09
-4.1568e-09
-7.61064e-10
-1.17467e-09
9.26448e-09
-6.18299e-09
-7.23829e-09
9.90367e-09
-3.39925e-09
2.7601e-09
1.70462e-09
6.29064e-09
-2.25656e-09
3.94104e-09
-1.2114e-10
-3.0106e-09
1.76187e-09
6.01036e-10
8.34654e-09
-8.0409e-09
-9.06641e-10
-7.3825e-10
-4.8437e-09
-1.43357e-09
-1.02867e-09
-3.22211e-09
-4.78757e-09
3.92512e-09
4.08457e-09
-3.87109e-09
-1.1208e-10
6.47496e-09
-1.52767e-09
-4.41621e-09
3.07231e-09
-4.90706e-09
-3.34518e-10
3.66317e-09
-2.96636e-09
-1.43505e-09
1.67617e-09
-1.8841e-09
-3.90806e-11
6.01684e-09
3.3497e-09
1.3165e-09
4.23047e-09
8.03449e-10
-6.35051e-09
3.71594e-09
1.67196e-09
-4.07144e-09
3.15275e-09
6.03351e-09
-4.95584e-09
7.0338e-09
-1.65126e-10
1.07818e-09
5.59336e-09
-2.53739e-11
-6.64619e-09
-3.34465e-10
-3.686e-09
4.82389e-09
6.65905e-09
-5.32157e-09
4.13222e-09
6.607e-09
-4.70574e-09
5.33905e-09
-1.28671e-10
-4.96313e-09
2.85332e-09
7.70315e-09
-6.49638e-10
3.89979e-09
-8.21331e-09
-3.56494e-09
-2.90292e-10
6.70853e-09
-8.03479e-10
2.57757e-09
-3.18907e-09
6.58636e-09
3.20969e-09
3.96341e-09
-1.1871e-10
2.90325e-09
7.04986e-09
-3.29408e-09
6.72308e-09
1.43576e-10
-2.59463e-09
2.8324e-09
6.48527e-09
3.80556e-09
4.21957e-09
1.56329e-09
6.76167e-09
-9.27718e-09
1.38697e-08
1.14639e-09
-5.7389e-09
-8.40592e-09
8.55201e-09
-4.50894e-09
4.36284e-09
-6.08273e-10
-1.70748e-08
-5.72407e-09
1.59143e-08
-1.78898e-08
7.69956e-09
-1.3417e-08
2.3379e-10
7.45911e-09
-8.27812e-09
-1.3411e-08
8.27213e-09
9.79648e-09
-1.86829e-08
6.10465e-09
1.40394e-08
-1.03476e-08
7.16091e-10
3.29198e-09
4.54393e-09
7.86444e-09
6.72134e-09
1.03274e-08
-3.07634e-09
7.00777e-09
7.26541e-09
-6.71376e-09
1.44265e-08
1.51679e-10
1.06214e-08
-9.90702e-10
-3.24667e-09
3.27814e-09
9.59235e-10
-3.40233e-09
2.92681e-09
-5.15188e-10
-2.28597e-09
1.62447e-09
-2.58518e-09
5.25361e-10
-6.21366e-09
3.53524e-09
3.50256e-10
-6.07364e-10
1.93588e-10
-3.98351e-10
3.74e-09
2.89083e-09
-1.45625e-09
1.49223e-09
2.60505e-09
1.79032e-09
-3.87002e-09
4.7482e-09
-4.26413e-09
-1.33812e-10
-4.27834e-10
5.36962e-09
1.46236e-10
2.34625e-09
3.36786e-10
-2.64942e-09
2.45889e-09
-4.92074e-09
4.8297e-09
1.40069e-09
-2.51884e-10
-1.00573e-09
-1.63393e-09
3.95491e-09
-3.17032e-09
1.16408e-09
-2.12992e-09
-8.46554e-11
4.42152e-09
-1.84157e-09
-8.19383e-09
5.61385e-09
-3.11285e-10
-7.58499e-09
1.23178e-08
4.60525e-09
-9.3546e-09
2.90777e-09
-9.41945e-09
1.37134e-08
-3.34973e-09
-1.00481e-08
5.20396e-09
-1.00015e-08
-9.3325e-10
-1.73265e-09
-9.34349e-09
1.65667e-09
-1.07589e-08
9.20224e-09
2.1742e-09
-6.17555e-10
-1.11295e-09
-7.1377e-10
-8.93224e-09
7.0079e-09
-8.15632e-09
-5.84256e-10
6.85555e-09
1.0456e-08
-9.33171e-09
-1.11258e-08
8.71493e-09
-9.85404e-09
2.61072e-11
8.41033e-10
-7.0593e-09
-1.81078e-09
-8.86313e-09
-1.72865e-09
7.8499e-09
2.74188e-09
-7.66375e-10
-7.53326e-09
-4.89538e-09
1.24991e-08
-7.49488e-09
-5.77062e-09
-1.02248e-09
-1.01899e-08
-5.52927e-09
-7.62648e-09
2.66886e-10
8.3719e-09
-1.61721e-08
9.20707e-09
-1.64351e-08
5.3237e-09
-6.30656e-09
1.06168e-08
-1.4059e-08
1.62713e-09
-1.17406e-08
-3.46324e-09
7.70073e-09
7.50309e-09
5.70783e-09
-4.74591e-09
-1.27025e-08
2.37808e-09
-1.33494e-10
-6.85914e-09
-1.55128e-09
-3.77117e-09
1.21816e-08
-3.03037e-09
3.87196e-09
7.40178e-09
-4.00499e-09
-1.01873e-09
-9.13055e-09
-4.37036e-09
1.19496e-08
-3.05775e-09
-9.10317e-09
-8.87414e-10
4.51802e-09
-2.84529e-09
4.90093e-09
-6.06062e-09
-1.20098e-08
4.41861e-09
-9.54115e-09
4.28337e-09
-3.22121e-09
-1.41902e-09
-3.68886e-09
-5.45639e-10
5.29233e-09
1.13107e-09
1.88556e-10
-8.82951e-09
-1.19023e-09
1.19418e-08
-1.92204e-09
-2.63443e-09
5.53965e-09
-1.17347e-08
1.00892e-08
3.4032e-09
-1.61268e-08
1.20232e-08
-3.12428e-09
-7.65324e-09
7.05118e-09
9.85434e-09
-9.25227e-09
-2.48336e-09
-2.85416e-09
-7.13264e-09
1.24702e-08
-5.18414e-09
-9.69531e-09
1.23961e-08
-2.14471e-09
1.24475e-08
1.63897e-09
-1.78919e-09
4.97433e-09
4.33834e-09
-5.90945e-09
6.28653e-09
1.0711e-08
-6.34884e-09
6.9952e-09
5.345e-09
-5.99134e-09
7.6816e-09
-1.12162e-08
-4.11864e-09
1.04364e-08
2.59638e-09
-5.35118e-09
-9.732e-09
5.03107e-09
1.06757e-09
4.4854e-09
-1.6802e-08
1.5493e-08
-3.1764e-09
-1.67003e-08
1.89343e-08
2.25135e-09
2.96432e-09
-6.32768e-09
-1.34386e-08
-3.67967e-09
-1.00563e-08
6.12747e-09
1.8266e-09
5.16901e-09
-1.31231e-08
1.22529e-08
-5.52795e-09
4.06755e-09
1.69534e-08
9.18108e-10
1.24883e-08
5.23564e-09
-9.7367e-09
-1.32614e-08
-4.81162e-09
6.01347e-09
1.20596e-08
-4.30156e-09
-2.39412e-10
-8.72045e-09
-1.69285e-08
-3.72504e-09
1.23427e-08
8.31089e-09
-1.56961e-08
-5.53401e-09
1.55038e-08
-1.88346e-09
-8.38473e-09
9.54046e-09
2.23832e-09
6.2877e-09
-9.57709e-09
8.45841e-09
7.6739e-09
-1.15674e-08
-4.11501e-10
1.87677e-08
1.31965e-08
-1.12919e-08
4.79583e-09
3.75354e-09
-8.60119e-09
5.18357e-11
-5.47261e-09
-3.11889e-09
7.62073e-09
9.70779e-10
-1.23698e-09
-8.88936e-09
5.28274e-09
4.84363e-09
-7.03742e-10
-4.43328e-09
9.00021e-09
-3.86317e-09
4.68421e-09
-9.85033e-09
3.92915e-09
-4.93076e-09
8.91121e-09
8.31148e-10
2.3149e-09
-7.57934e-09
-7.31437e-09
1.25704e-09
5.84718e-10
9.74279e-09
-7.8046e-10
-1.39882e-08
5.02588e-09
8.32975e-09
6.27305e-09
-4.86001e-09
-1.00681e-08
-1.9401e-09
6.01828e-11
-6.04556e-09
-3.86495e-09
3.87099e-09
-1.32317e-08
8.5803e-09
4.14036e-09
-7.58374e-09
-7.11256e-09
8.54832e-09
-2.258e-09
8.2224e-10
4.23013e-09
-5.8676e-09
-1.59984e-09
-5.41831e-09
-5.6558e-10
-1.22882e-08
-2.54341e-09
-7.23832e-09
-1.32936e-09
3.40156e-09
5.16611e-09
6.68335e-09
-1.23499e-08
-1.57179e-09
-1.35231e-08
3.31844e-09
8.8753e-09
3.26381e-09
-6.42678e-09
-1.03602e-08
1.37255e-08
-5.35528e-09
2.81356e-09
1.42304e-08
6.52978e-09
-4.66241e-09
4.81599e-09
2.11551e-09
7.81582e-09
-6.94351e-09
1.18726e-08
1.10768e-08
-5.16192e-09
-1.28584e-08
-1.37169e-09
1.2733e-08
-2.84582e-10
5.53723e-09
-7.47266e-09
-4.49136e-09
-6.507e-09
-3.05652e-10
1.51515e-08
-1.04498e-08
-1.12087e-08
5.32714e-09
8.70828e-09
-6.44189e-09
-8.03709e-09
5.77066e-09
1.62047e-09
9.9864e-09
-2.89862e-09
-7.79938e-09
-1.26687e-09
2.62434e-09
-7.05193e-09
-8.95974e-10
-8.92013e-11
-8.21457e-09
2.85139e-09
5.75512e-09
-3.9197e-10
-4.9145e-09
-3.37237e-09
7.2289e-11
-8.3967e-09
4.37374e-09
-8.91555e-10
1.12125e-08
9.0281e-10
-6.87039e-09
-5.24494e-09
9.83837e-10
3.88723e-09
6.34147e-09
-6.40938e-09
-8.44195e-09
-2.18223e-09
-6.41424e-09
1.02169e-08
5.35621e-09
6.76714e-09
-1.11395e-08
-8.60489e-09
5.18013e-09
5.23928e-11
3.7187e-09
8.56682e-09
-6.92931e-09
-5.673e-09
-3.58946e-09
1.01653e-08
7.43629e-09
-7.0898e-09
-5.13063e-09
3.82372e-09
-8.48516e-09
-7.27257e-09
-4.44365e-09
-1.12899e-08
-7.3244e-09
-6.95351e-09
3.07276e-09
-1.39258e-08
-1.13414e-08
2.75961e-09
8.28144e-09
-1.56649e-08
4.62384e-09
9.06988e-09
-1.15014e-08
5.19112e-09
-9.45271e-09
5.32847e-10
-5.54312e-09
1.4463e-08
-3.08421e-09
2.70136e-09
-1.29064e-08
-6.91446e-09
2.03537e-08
-1.16265e-08
7.00148e-09
-5.70028e-10
-3.32571e-09
-1.17692e-08
-3.05913e-09
-9.01232e-09
-1.27279e-08
-6.02698e-09
1.32118e-08
-4.85187e-09
-7.79289e-09
-8.32029e-11
-7.98984e-09
5.37473e-11
-1.88644e-08
-5.29973e-09
1.72496e-08
-1.14398e-08
-4.60594e-09
-2.81867e-09
-1.46784e-08
-8.38789e-09
-1.07356e-08
-1.07568e-09
5.78427e-09
-1.14514e-08
-7.42686e-09
-3.62211e-09
-1.34434e-08
7.06795e-09
-6.33228e-09
-1.1717e-08
-1.5513e-08
-2.49104e-09
1.01924e-08
6.30568e-09
-1.6017e-08
-4.81085e-10
1.36376e-08
-1.69833e-08
1.35382e-08
-6.41444e-09
4.92569e-09
1.51263e-08
3.18322e-09
1.41323e-08
-8.15411e-09
-2.19953e-08
1.45724e-09
-4.30823e-09
-1.13409e-08
1.94107e-08
-3.14403e-09
-7.96414e-09
-1.91958e-09
6.5135e-09
-1.91766e-08
-5.73562e-09
4.28498e-09
-2.29301e-08
4.90097e-09
3.40807e-09
1.46211e-08
-9.68312e-09
-4.75595e-09
-8.49105e-09
-1.53823e-08
1.80351e-08
-8.58101e-09
5.92822e-09
-1.40699e-08
-1.09955e-08
-2.2904e-08
7.97537e-09
1.98295e-08
-1.37965e-08
-1.38635e-08
1.46399e-08
9.69132e-09
-4.27225e-09
-1.9489e-08
4.93442e-09
-3.8241e-09
-7.76912e-09
3.94572e-09
-9.97307e-09
5.20105e-09
-1.72424e-08
7.53696e-09
5.25167e-09
-7.58757e-09
-2.63591e-09
1.41186e-08
2.02079e-08
-1.28346e-08
-9.80298e-10
1.11664e-08
1.8148e-09
-1.49113e-09
6.39195e-09
-6.71565e-09
-4.89371e-09
1.09567e-09
5.61281e-09
2.53866e-09
-4.95217e-09
-5.14066e-09
-6.45057e-10
-6.36197e-09
2.11332e-09
-4.88046e-09
3.54274e-09
6.92653e-10
-1.86561e-09
-2.70945e-09
-1.78692e-09
-2.42409e-09
-4.32199e-09
-1.76028e-09
-6.31123e-10
-3.76197e-09
2.84632e-09
4.2671e-09
-6.14182e-09
-5.49392e-10
-1.25517e-09
-5.24126e-09
-4.24546e-09
8.56655e-09
9.20176e-10
-1.77221e-09
-3.46499e-09
-4.04103e-12
-5.59653e-09
1.61188e-08
1.93775e-09
2.01696e-10
4.6139e-09
-3.41528e-09
1.3722e-08
-7.20912e-09
-5.85893e-09
8.82259e-09
-8.39975e-09
-2.27435e-09
1.11241e-09
4.28156e-09
-7.91119e-09
3.16465e-09
7.6368e-09
-2.01372e-10
1.0354e-09
-8.47083e-09
-3.15898e-09
8.44552e-09
2.35027e-09
-1.02997e-08
1.15831e-08
-7.51512e-09
6.23179e-09
7.28592e-09
-1.06637e-08
-6.9219e-09
-5.43907e-09
8.02431e-09
8.99784e-09
2.05185e-09
-2.05007e-10
-6.79486e-09
-1.63699e-09
1.7543e-09
6.67754e-09
-4.68444e-09
-5.85611e-11
7.19496e-09
6.57839e-10
-8.05418e-09
-6.48456e-10
7.03127e-10
6.1054e-09
-9.80186e-09
1.10912e-09
1.17762e-09
-3.56741e-10
-7.98289e-10
-8.64683e-09
-1.03626e-08
-1.87578e-09
1.16544e-08
9.22229e-09
1.72807e-09
-9.91497e-09
3.04067e-09
6.88475e-09
1.05538e-08
-9.62397e-09
9.40527e-09
2.25761e-09
-6.3194e-09
6.42224e-10
-9.76312e-10
6.65348e-09
-1.32512e-09
-5.3091e-09
3.14825e-10
-3.97501e-09
7.078e-09
-7.14177e-09
4.03878e-09
-5.48813e-09
1.88012e-10
-4.17333e-10
8.13755e-09
-2.16038e-10
6.15027e-09
-6.91055e-09
-6.78125e-09
2.28322e-09
4.98284e-09
-4.84814e-10
4.35173e-09
-1.48845e-08
1.17124e-08
-1.17968e-09
9.05199e-09
-7.67243e-09
2.97217e-09
-1.17622e-08
-1.80203e-09
-1.32022e-09
5.5304e-09
-6.08449e-09
-1.12081e-08
-1.33488e-09
9.96953e-09
-8.98406e-10
1.1276e-08
-2.78414e-10
-2.24485e-09
-4.6185e-09
7.16945e-09
-2.93578e-11
-2.80944e-09
-4.33064e-09
2.43584e-09
-7.16631e-09
-2.05078e-09
7.73013e-09
-2.36271e-09
-2.42044e-09
6.61568e-09
-1.14377e-08
4.97976e-09
-5.26635e-09
-8.73903e-09
-1.96872e-09
-6.86564e-09
-5.69863e-09
-1.44781e-08
2.10041e-09
-5.31076e-09
-1.02764e-08
-4.81647e-09
-1.50837e-09
-2.93722e-09
-4.81201e-10
-3.33204e-09
4.44833e-09
6.94743e-09
-8.06376e-09
5.21858e-09
1.35654e-09
-9.90718e-09
-1.08829e-10
9.77574e-09
7.34738e-09
-1.16895e-08
-9.90033e-10
4.59252e-10
-1.07566e-08
-4.06318e-10
1.23938e-08
-7.41513e-09
3.56888e-10
-3.66173e-09
-6.10074e-09
1.05757e-08
-8.13259e-10
-1.06983e-08
1.25694e-08
-5.53284e-09
-2.22821e-09
2.64092e-09
-6.51349e-09
5.85698e-10
-1.35123e-08
-1.31363e-09
-4.1305e-10
6.78296e-09
-5.05634e-09
1.21061e-08
-1.2834e-08
-1.28217e-08
-3.47966e-10
1.29518e-08
2.17735e-10
1.58326e-08
-1.65482e-08
2.56015e-09
-5.78003e-10
-9.08219e-09
7.10004e-09
-5.78391e-10
-7.05197e-09
1.01905e-08
1.32025e-09
-7.99212e-09
-7.01528e-09
7.75711e-09
6.43225e-09
-5.34529e-10
4.67794e-09
-4.11627e-09
-7.54921e-09
3.45559e-09
8.20984e-09
6.63875e-09
-4.4109e-09
6.12163e-09
3.13336e-10
-8.86855e-09
1.47683e-08
5.38208e-10
6.42584e-09
5.65902e-09
3.32492e-09
-2.34522e-09
9.26385e-09
2.82741e-09
3.64348e-10
-2.00569e-09
2.96684e-09
-7.97648e-09
8.99135e-09
2.10096e-09
-4.651e-09
-1.93321e-09
4.48322e-09
2.2485e-09
5.97242e-09
-5.68643e-09
-2.53453e-09
4.59308e-09
-2.25619e-09
-8.83942e-11
-4.1353e-09
2.26049e-09
6.46786e-09
-2.01201e-09
3.84911e-09
-5.05146e-09
2.96106e-09
9.50306e-09
-7.41271e-09
7.61796e-10
-1.59001e-10
-5.65428e-09
-6.91839e-09
2.9068e-10
2.48348e-09
4.1442e-09
-3.40223e-11
-3.55145e-09
-5.80965e-10
5.54516e-09
-2.70373e-09
-1.41924e-09
3.7993e-09
-5.7765e-09
-3.14509e-09
-2.66544e-09
-5.55493e-09
6.12835e-09
1.10449e-08
-1.16183e-08
-1.64131e-10
2.36243e-09
-7.75324e-09
-1.96112e-09
2.98253e-09
-9.04956e-09
8.02814e-09
-6.65459e-09
6.93654e-09
-2.07617e-09
1.79422e-09
2.12115e-09
-1.07369e-08
9.53368e-09
8.22252e-10
-7.3734e-09
7.1124e-09
2.25714e-09
1.72983e-09
6.78123e-09
-1.39865e-09
1.06691e-08
-9.94109e-09
1.00177e-09
2.24126e-09
-1.93369e-09
-7.7742e-09
7.46663e-09
-4.34604e-09
-1.60336e-09
8.19065e-09
7.50232e-09
7.9197e-10
2.37485e-09
9.9375e-09
-2.59424e-09
7.11923e-09
-1.00868e-08
5.55884e-09
-2.58517e-09
-6.53366e-09
-9.30416e-09
2.32193e-09
-2.15499e-10
-2.93473e-09
6.81873e-09
-7.28275e-09
-2.70093e-09
9.06717e-09
-1.61398e-08
6.09212e-09
9.80504e-10
-1.27717e-08
1.27508e-08
9.08806e-09
1.2702e-08
3.13922e-12
-6.10479e-11
-1.26441e-08
1.41053e-08
-1.88621e-08
-1.1383e-08
3.44064e-09
-2.10708e-09
8.60019e-09
-6.78719e-09
1.09378e-08
-2.79851e-09
-9.18681e-09
1.22986e-08
-3.13256e-10
5.80445e-09
-5.35483e-09
5.6425e-09
1.59968e-08
-1.59215e-09
6.63379e-10
3.70144e-10
-6.38835e-09
3.73038e-09
1.25616e-09
6.73856e-09
-1.17251e-08
3.83815e-10
-6.60903e-09
1.56807e-09
5.70433e-09
7.95664e-09
-2.5606e-09
-5.01223e-09
-8.21405e-09
-7.92241e-10
1.59882e-09
7.40747e-09
-6.81447e-09
1.25746e-09
-2.65704e-09
-3.01249e-09
-2.47774e-09
5.46911e-09
2.11255e-11
-3.94667e-09
2.1116e-09
-1.17741e-09
2.81072e-09
-6.58123e-09
-1.7615e-10
3.78907e-09
-3.45608e-09
5.9976e-09
-7.34296e-09
3.88431e-10
4.81695e-09
-4.83614e-09
2.37877e-10
6.19709e-09
-3.40581e-09
-1.72874e-10
1.05465e-08
-7.99947e-09
-2.2508e-10
-3.53956e-09
2.3953e-09
1.16908e-08
3.39006e-09
-1.02649e-09
-2.51972e-10
-1.01657e-08
7.01458e-09
-1.1784e-08
-6.38123e-09
-5.83765e-09
-7.40804e-09
-3.95584e-09
5.52622e-09
-5.49321e-09
-2.13991e-09
3.51653e-10
-3.67406e-10
3.38573e-09
-4.73753e-09
-4.14142e-09
-2.18458e-10
-8.58587e-09
1.54793e-09
1.17264e-09
5.86532e-09
-6.90302e-10
-3.59621e-09
-4.29936e-09
8.65894e-09
-3.74103e-09
-5.6082e-09
2.87481e-09
7.33206e-09
3.68264e-09
4.4503e-09
-8.88334e-09
7.50408e-10
8.07459e-09
-8.76521e-09
4.3733e-09
-3.62391e-09
2.31683e-09
-2.28913e-09
4.45298e-09
-4.79382e-10
-7.71464e-09
-2.42559e-09
-3.67454e-10
1.08676e-08
4.89952e-09
-3.56841e-09
-9.4094e-10
-4.25584e-09
-7.99877e-09
5.15212e-09
-2.61458e-09
3.46565e-09
-6.00318e-09
2.45013e-09
2.61541e-09
8.65884e-11
-6.71788e-09
-4.86919e-09
1.6854e-09
4.35644e-09
-1.0223e-10
-7.48167e-09
7.0363e-09
3.06079e-09
-4.95695e-09
8.35426e-09
-3.28947e-09
1.33246e-08
-2.34088e-09
1.05699e-08
-7.28635e-09
-2.74242e-10
1.12163e-08
-3.72075e-10
9.17134e-09
-1.04895e-09
3.6564e-09
8.87717e-09
-3.36223e-09
9.77672e-09
5.91404e-10
-7.00304e-09
1.7013e-09
1.6518e-08
9.59837e-10
5.3617e-09
-3.94227e-09
1.45208e-08
-5.13449e-09
1.09689e-08
5.56054e-09
-9.73518e-09
2.87434e-09
-1.09005e-08
2.37997e-08
-1.57735e-08
-1.02326e-08
-6.05874e-09
1.91657e-08
-1.66702e-09
-1.2919e-08
4.35345e-09
1.03895e-08
1.46709e-08
-2.56588e-08
1.05563e-08
-1.10673e-08
-1.14421e-08
1.59947e-08
-1.34356e-08
-2.16247e-10
7.32787e-10
-1.40128e-08
-5.22774e-10
-5.6136e-10
-2.06777e-08
-2.8839e-08
9.81261e-09
1.84651e-08
3.7372e-09
5.34264e-09
-5.43134e-09
-3.64848e-09
1.8865e-09
3.96709e-09
-3.34164e-11
7.26256e-09
-3.80193e-09
-4.14258e-09
4.40051e-09
3.54399e-09
7.83749e-10
-4.31426e-09
-2.71431e-10
-5.38037e-09
2.10557e-09
5.38223e-09
-4.44098e-09
-1.55635e-10
2.09465e-09
-2.04066e-09
-4.36825e-09
1.28182e-10
-2.17612e-09
-2.28892e-09
-3.01423e-09
6.47267e-09
-2.82945e-09
-4.2242e-09
-1.82137e-10
-6.35044e-09
-5.05225e-09
1.96809e-09
-2.138e-09
2.70648e-10
-1.00724e-10
-8.96182e-10
3.07989e-09
-2.15629e-10
2.35887e-09
-2.85867e-09
-3.96385e-10