/*--------------------------------*- C++ -*----------------------------------*\
| =========                 |                                                 |
| \\      /  F ield         | OpenFOAM: The Open Source CFD Toolbox           |
|  \\    /   O peration     | Version:  v1612+                                |
|   \\  /    A nd           | Web:      www.OpenFOAM.com                      |
|    \\/     M anipulation  |                                                 |
\*---------------------------------------------------------------------------*/
FoamFile
{
    version     2.0;
    format      ascii;
    class       volScalarField;
    location    "118";
    object      p;
}
// * * * * * * * * * * * * * * * * * * * * * * * * * * * * * * * * * * * * * //

dimensions      [0 2 -2 0 0 0 0];

internalField   nonuniform List<scalar> 
21533
(
0.329946
0.30938
0.311909
0.315453
0.338453
0.340321
0.296569
0.288112
0.282215
0.309939
0.364157
0.292717
0.2945
0.290231
0.34754
0.340592
0.301084
0.288804
0.311921
0.313669
0.349335
0.273762
0.310496
0.340015
0.306916
0.310262
0.32889
0.317248
0.294844
0.298207
0.298812
0.286382
0.294175
0.291874
0.289447
0.293762
0.300211
0.296767
0.294454
0.28691
0.410041
0.356155
0.303436
0.280496
0.297288
0.403984
0.322837
0.305561
0.27705
0.278321
0.369364
0.363557
0.368102
0.333747
0.290449
0.305274
0.31416
0.310221
0.325544
0.31616
0.336807
0.281076
0.293517
0.297603
0.3131
0.316308
0.297714
0.284221
0.283848
0.303548
0.301614
0.487364
0.328448
0.503204
0.326481
0.359259
0.345942
0.413675
0.40511
0.278596
0.293919
0.357707
0.40185
0.428647
0.390203
0.436201
0.405552
0.292403
0.313358
0.420142
0.38091
0.291346
0.286353
0.295188
0.288399
0.323959
0.310085
0.285039
0.31209
0.297052
0.314784
0.305632
0.31433
0.284397
0.381425
0.401183
0.312337
0.292606
0.313534
0.309184
0.297686
0.320512
0.346197
0.339976
0.390685
0.31969
0.28683
0.423568
0.340621
0.310511
0.305413
0.297736
0.275591
0.300728
0.350518
0.572793
0.321174
0.337535
0.301402
0.374878
0.289599
0.302592
0.50179
0.330573
0.275708
0.27931
0.282668
0.276104
0.31106
0.297425
0.303106
0.390009
0.315653
0.312869
0.313746
0.300265
0.294467
0.292723
0.263275
0.310392
0.466417
0.313568
0.299804
0.555343
0.539476
0.515802
0.272556
0.273383
0.276991
0.281245
0.313716
0.314449
0.282083
0.392785
0.422002
0.426996
0.385433
0.289633
0.321502
0.314983
0.284827
0.28341
0.280732
0.370579
0.277149
0.280375
0.312595
0.309788
0.304147
0.318091
0.306735
0.315252
0.315762
0.302842
0.293701
0.403704
0.328572
0.460035
0.285042
0.338996
0.31015
0.293895
0.283895
0.281216
0.322924
0.283732
0.294019
0.317407
0.280089
0.288978
0.310623
0.313218
0.315825
0.274559
0.27965
0.301537
0.299714
0.301181
0.280613
0.310536
0.307948
0.320727
0.281443
0.280196
0.361459
0.334556
0.315259
0.332587
0.310719
0.275834
0.277397
0.284357
0.284526
0.275433
0.291084
0.284105
0.301892
0.303189
0.301441
0.269988
0.267364
0.276469
0.271311
0.282014
0.31076
0.312913
0.33608
0.318419
0.293868
0.286109
0.29877
0.277939
0.404058
0.358991
0.338849
0.287146
0.385351
0.307859
0.305241
0.315333
0.312237
0.341937
0.355875
0.340492
0.333126
0.366499
0.333906
0.424237
0.404812
0.426454
0.412073
0.410275
0.417875
0.453393
0.444308
0.461553
0.431793
0.467131
0.465873
0.456811
0.456274
0.419094
0.421523
0.439642
0.433624
0.439536
0.332587
0.365698
0.364901
0.301137
0.306246
0.306303
0.305822
0.303645
0.298799
0.304068
0.301233
0.306925
0.309238
0.291114
0.311364
0.398328
0.303653
0.308481
0.315204
0.33118
0.274907
0.361434
0.335297
0.349381
0.323338
0.357587
0.296269
0.38869
0.339991
0.301014
0.272841
0.259976
0.265017
0.267556
0.267414
0.271485
0.278746
0.291818
0.547938
0.362344
0.314012
0.31336
0.293853
0.277008
0.278249
0.311653
0.314006
0.309317
0.302762
0.305142
0.299389
0.301479
0.291706
0.300516
0.323596
0.331927
0.325153
0.296447
0.300073
0.299733
0.313639
0.306121
0.309136
0.308217
0.302543
0.296696
0.297203
0.303011
0.292047
0.298024
0.298203
0.494162
0.471685
0.478611
0.403009
0.371766
0.352889
0.353697
0.322128
0.350175
0.353315
0.385036
0.28964
0.317488
0.286641
0.30977
0.329162
0.324364
0.301649
0.28942
0.291951
0.314345
0.313072
0.301512
0.3019
0.307375
0.305395
0.312263
0.272994
0.287852
0.446181
0.401651
0.305529
0.31162
0.293368
0.296063
0.298739
0.300706
0.302316
0.321584
0.270096
0.266952
0.31478
0.307875
0.287452
0.324412
0.311024
0.293117
0.308675
0.30104
0.304233
0.314412
0.285006
0.31098
0.310232
0.275321
0.499301
0.473067
0.577205
0.564673
0.466311
0.277682
0.273176
0.332483
0.570086
0.272523
0.28294
0.435028
0.352383
0.304445
0.274014
0.309263
0.299701
0.285681
0.2802
0.295525
0.308896
0.506352
0.268024
0.268373
0.30191
0.584151
0.560379
0.35366
0.355835
0.306042
0.288291
0.338183
0.276084
0.427663
0.343382
0.284348
0.312236
0.473644
0.324766
0.452253
0.470293
0.318553
0.318255
0.304625
0.466928
0.320197
0.304218
0.321949
0.298659
0.279482
0.270503
0.287053
0.291528
0.290161
0.29957
0.308314
0.306013
0.346644
0.34725
0.339424
0.331105
0.398943
0.361756
0.383731
0.384015
0.534847
0.278292
0.303616
0.284566
0.279425
0.305626
0.279273
0.3579
0.433719
0.468957
0.281722
0.449519
0.422943
0.303881
0.298494
0.302933
0.42265
0.506045
0.40978
0.417787
0.278233
0.298819
0.334061
0.332778
0.321893
0.268699
0.31005
0.330323
0.27528
0.315611
0.301175
0.31261
0.304018
0.289644
0.292532
0.311176
0.312228
0.306963
0.268672
0.286298
0.273964
0.27262
0.315184
0.459905
0.310312
0.308218
0.282184
0.281651
0.307711
0.315171
0.295617
0.398621
0.309904
0.306029
0.283801
0.49181
0.421807
0.50647
0.515261
0.519105
0.520164
0.528399
0.490073
0.51098
0.52303
0.527097
0.309551
0.51269
0.279298
0.277667
0.304599
0.275014
0.315878
0.273641
0.360875
0.277175
0.319528
0.320641
0.315894
0.311517
0.461667
0.49572
0.311287
0.573464
0.318174
0.288667
0.384777
0.288606
0.293673
0.273651
0.541324
0.301185
0.296479
0.269244
0.287335
0.271458
0.288884
0.295005
0.296389
0.311347
0.483179
0.494995
0.348918
0.285106
0.280803
0.263369
0.308033
0.344304
0.306546
0.382477
0.298118
0.309691
0.301308
0.343112
0.3369
0.303348
0.311
0.294632
0.297039
0.286758
0.294506
0.323195
0.312713
0.309427
0.403453
0.367621
0.289651
0.28561
0.285088
0.287288
0.44429
0.595006
0.588712
0.314974
0.323229
0.308276
0.300243
0.298787
0.307406
0.29234
0.297572
0.293683
0.2924
0.279546
0.284302
0.492906
0.288749
0.281234
0.416711
0.274021
0.265656
0.274213
0.279011
0.319725
0.308431
0.439826
0.375866
0.487061
0.350033
0.334773
0.366969
0.287381
0.288709
0.306743
0.315825
0.308536
0.32149
0.347893
0.292591
0.388493
0.411548
0.317131
0.323248
0.304116
0.467904
0.416438
0.316412
0.277304
0.283416
0.290495
0.267334
0.28372
0.271952
0.26579
0.2797
0.282233
0.280822
0.269618
0.285599
0.280112
0.278313
0.266304
0.292076
0.273394
0.282246
0.280432
0.274748
0.270166
0.289501
0.272752
0.287282
0.274485
0.284096
0.290112
0.401679
0.339793
0.332292
0.323042
0.544724
0.328308
0.333405
0.293098
0.297831
0.317439
0.311663
0.284561
0.469043
0.377806
0.436547
0.435675
0.388366
0.424175
0.449523
0.319944
0.399074
0.365108
0.380542
0.350726
0.51887
0.50289
0.45021
0.537745
0.534967
0.430815
0.354631
0.342675
0.311597
0.368567
0.311871
0.315804
0.355187
0.331417
0.358493
0.285693
0.337069
0.319313
0.322027
0.317243
0.434475
0.341978
0.359061
0.339706
0.378987
0.281917
0.297482
0.295877
0.296596
0.301929
0.287191
0.271912
0.278593
0.277158
0.264929
0.272273
0.275032
0.273069
0.276435
0.286224
0.258072
0.273129
0.263844
0.281073
0.316134
0.284706
0.302679
0.302981
0.313469
0.307261
0.340135
0.287382
0.312056
0.308206
0.322374
0.302138
0.307317
0.323838
0.343375
0.328176
0.303211
0.316527
0.308587
0.331208
0.327968
0.309987
0.316839
0.293754
0.299556
0.30507
0.316858
0.296738
0.388741
0.31739
0.319513
0.365625
0.318093
0.357846
0.327176
0.369901
0.321498
0.30826
0.317796
0.293485
0.305629
0.291351
0.290603
0.29691
0.31317
0.308487
0.292102
0.299447
0.287752
0.314077
0.303119
0.321175
0.305242
0.308265
0.300719
0.400698
0.381968
0.461856
0.417098
0.281333
0.278366
0.281309
0.282888
0.279829
0.268061
0.267233
0.270729
0.255246
0.271297
0.256785
0.270257
0.268185
0.26583
0.261656
0.281906
0.289917
0.290298
0.28826
0.282786
0.28187
0.281474
0.272028
0.268163
0.273039
0.272858
0.270797
0.274558
0.267972
0.276915
0.27841
0.278516
0.270002
0.315605
0.320175
0.317112
0.321503
0.315617
0.3188
0.31995
0.421476
0.466394
0.428424
0.307565
0.300992
0.312477
0.306155
0.303777
0.305234
0.303899
0.38325
0.407669
0.391166
0.417612
0.40895
0.418274
0.405215
0.325521
0.38119
0.342622
0.382103
0.351401
0.361752
0.372085
0.399597
0.41273
0.457543
0.461289
0.406719
0.35413
0.39455
0.37364
0.388451
0.35182
0.350544
0.384786
0.327367
0.339588
0.323984
0.326883
0.336846
0.360555
0.381592
0.388515
0.385894
0.375111
0.383666
0.368168
0.368837
0.286752
0.287745
0.286252
0.290088
0.294379
0.300704
0.292989
0.303806
0.292423
0.289543
0.289637
0.289388
0.302992
0.319169
0.299438
0.308901
0.312103
0.315762
0.316083
0.314867
0.309156
0.3134
0.31381
0.312208
0.309886
0.309741
0.312089
0.303849
0.307544
0.306435
0.316227
0.310959
0.314511
0.310544
0.369638
0.365704
0.358301
0.382363
0.384764
0.35651
0.355516
0.379959
0.354229
0.396268
0.279943
0.293635
0.287273
0.293905
0.286732
0.289783
0.350993
0.358756
0.37205
0.372985
0.369317
0.367823
0.365229
0.42312
0.366803
0.392643
0.378049
0.383199
0.306023
0.304761
0.311487
0.307343
0.367095
0.343097
0.318245
0.332035
0.333589
0.323678
0.314333
0.313407
0.331627
0.30697
0.307641
0.311603
0.310355
0.313614
0.311218
0.312679
0.474319
0.428885
0.455445
0.315885
0.314874
0.367903
0.409151
0.433752
0.3129
0.317246
0.290485
0.290409
0.297685
0.296807
0.306121
0.284934
0.284996
0.271824
0.266482
0.280437
0.289841
0.269447
0.269892
0.27288
0.304024
0.291321
0.290031
0.301117
0.298983
0.290102
0.284131
0.290825
0.29332
0.282643
0.274408
0.284791
0.278523
0.272764
0.274936
0.286192
0.287859
0.29394
0.291336
0.279106
0.280989
0.284434
0.281028
0.283675
0.266348
0.266416
0.264613
0.261449
0.269773
0.260344
0.263562
0.281287
0.274487
0.278451
0.286638
0.276419
0.278944
0.288511
0.270952
0.276522
0.287639
0.282881
0.276033
0.277049
0.282125
0.28107
0.278365
0.289082
0.276101
0.271864
0.271381
0.279786
0.269944
0.271277
0.271992
0.272947
0.273738
0.272778
0.278419
0.28713
0.2828
0.28171
0.288715
0.290267
0.280707
0.272561
0.263945
0.284736
0.285074
0.283458
0.277096
0.265914
0.271322
0.268449
0.275139
0.271897
0.265255
0.282234
0.27523
0.269881
0.273077
0.273715
0.298136
0.296581
0.298042
0.292691
0.302769
0.29969
0.294238
0.273169
0.267056
0.266526
0.262763
0.274829
0.274669
0.265173
0.280187
0.2778
0.282081
0.283883
0.273037
0.27682
0.282625
0.270781
0.274368
0.282008
0.29009
0.274486
0.278274
0.27903
0.292652
0.279216
0.280675
0.282792
0.291223
0.286136
0.281783
0.289456
0.271893
0.277706
0.28683
0.280261
0.278071
0.280162
0.27752
0.285125
0.291911
0.285817
0.287059
0.283311
0.284819
0.280805
0.297233
0.303017
0.274206
0.281781
0.285267
0.287983
0.276535
0.287718
0.275338
0.279919
0.295522
0.302583
0.307155
0.300556
0.305226
0.298182
0.291905
0.292659
0.296753
0.296263
0.288569
0.295191
0.282236
0.284408
0.293201
0.283158
0.281015
0.284045
0.30454
0.282794
0.291346
0.289601
0.301234
0.289794
0.276682
0.28557
0.370237
0.395053
0.393861
0.360734
0.348983
0.325208
0.317416
0.331309
0.320944
0.318087
0.361359
0.33572
0.329839
0.350685
0.342886
0.482544
0.524654
0.520135
0.486677
0.519283
0.488021
0.495345
0.52188
0.57174
0.519082
0.52191
0.301871
0.308074
0.325864
0.316385
0.312404
0.330528
0.364183
0.33011
0.371477
0.339518
0.345567
0.334934
0.349603
0.287779
0.293306
0.283752
0.279895
0.284343
0.28568
0.276558
0.304984
0.306834
0.291511
0.297631
0.303775
0.304157
0.296277
0.309488
0.332685
0.296688
0.30195
0.308528
0.309519
0.297286
0.304581
0.316081
0.332873
0.305094
0.324725
0.326494
0.304602
0.291239
0.288051
0.287198
0.291734
0.285914
0.289845
0.289009
0.383184
0.436082
0.43035
0.435549
0.385235
0.398943
0.428676
0.385283
0.408212
0.37236
0.34931
0.467134
0.388179
0.430599
0.440399
0.425867
0.438176
0.435034
0.424243
0.449108
0.469286
0.435188
0.502648
0.447133
0.379087
0.375812
0.418928
0.380809
0.376425
0.414456
0.350729
0.412519
0.406449
0.396233
0.388286
0.39727
0.378245
0.459181
0.387923
0.470355
0.418283
0.440723
0.429882
0.432705
0.32221
0.326072
0.311984
0.317663
0.318432
0.32181
0.314918
0.365975
0.410688
0.333802
0.370364
0.355078
0.368217
0.358919
0.405333
0.394279
0.33157
0.36564
0.373583
0.379633
0.365496
0.413884
0.409449
0.414228
0.380001
0.43733
0.427883
0.388751
0.331623
0.328464
0.339656
0.353003
0.328928
0.325987
0.352206
0.438283
0.442088
0.467326
0.417585
0.42027
0.456951
0.530438
0.497895
0.542631
0.489217
0.477464
0.533662
0.539487
0.468704
0.54663
0.490094
0.442128
0.480602
0.506095
0.500159
0.489336
0.454114
0.49842
0.504715
0.473964
0.485369
0.490201
0.45758
0.556035
0.518765
0.503866
0.526309
0.497996
0.534196
0.442268
0.443652
0.474052
0.481818
0.467093
0.483177
0.324907
0.365353
0.361179
0.334077
0.362662
0.36384
0.331906
0.306781
0.316739
0.349641
0.355767
0.301405
0.298977
0.314307
0.312936
0.306995
0.300424
0.316394
0.311022
0.359936
0.337725
0.337356
0.327911
0.341816
0.325345
0.362715
0.327668
0.306606
0.312272
0.326469
0.32828
0.318704
0.372541
0.33638
0.32901
0.326752
0.355457
0.351666
0.33045
0.308132
0.337884
0.328248
0.32604
0.314334
0.320721
0.320422
0.307284
0.330626
0.314722
0.362006
0.333377
0.373174
0.345369
0.349996
0.351304
0.354429
0.28985
0.290294
0.275156
0.284382
0.283775
0.28057
0.285426
0.31396
0.341863
0.30306
0.32652
0.31255
0.32307
0.309775
0.32932
0.330554
0.300324
0.315906
0.321044
0.310424
0.336691
0.336132
0.336175
0.328874
0.35069
0.346697
0.324476
0.297861
0.310096
0.306148
0.312765
0.296338
0.294833
0.30573
0.358327
0.388832
0.416389
0.420437
0.40401
0.386068
0.402169
0.40616
0.330734
0.321525
0.332319
0.318011
0.339704
0.339544
0.362767
0.363012
0.344703
0.378791
0.364575
0.373111
0.28801
0.285883
0.270849
0.284374
0.281921
0.280055
0.288057
0.271591
0.282678
0.275598
0.276861
0.276148
0.2772
0.284307
0.275915
0.268792
0.281254
0.276486
0.277041
0.293814
0.290271
0.292878
0.297946
0.291562
0.290986
0.299612
0.294986
0.297929
0.305247
0.27591
0.278708
0.295656
0.277519
0.280391
0.285049
0.278679
0.285923
0.281581
0.295927
0.297857
0.28694
0.29204
0.294647
0.294522
0.291557
0.289779
0.295687
0.301115
0.292675
0.292376
0.290885
0.294892
0.298205
0.289798
0.290404
0.293228
0.29575
0.274664
0.288416
0.285864
0.263218
0.270135
0.266451
0.274833
0.266764
0.264298
0.264599
0.266399
0.274461
0.275187
0.266289
0.270914
0.271799
0.270506
0.279169
0.279823
0.280815
0.274016
0.285916
0.281094
0.27615
0.268419
0.261053
0.263395
0.267055
0.258983
0.258719
0.268562
0.276119
0.275782
0.262426
0.26821
0.272228
0.272481
0.267693
0.271372
0.276715
0.26488
0.273405
0.268004
0.273873
0.265181
0.27052
0.280509
0.268267
0.269669
0.277167
0.275684
0.266319
0.269784
0.265165
0.291861
0.290896
0.295846
0.290934
0.285556
0.288867
0.289152
0.278474
0.269806
0.27056
0.281695
0.274843
0.280691
0.283567
0.279913
0.282976
0.277235
0.279226
0.266342
0.273921
0.265349
0.262634
0.25869
0.277386
0.262842
0.268696
0.266029
0.276713
0.274063
0.273026
0.262327
0.256011
0.252988
0.264054
0.272412
0.281926
0.268479
0.276672
0.27625
0.272308
0.259031
0.265514
0.264971
0.263771
0.266718
0.263461
0.278826
0.262231
0.272542
0.271862
0.266155
0.319244
0.306888
0.289499
0.268493
0.281711
0.284389
0.28076
0.287451
0.300754
0.307135
0.303573
0.31019
0.314282
0.309717
0.315149
0.318796
0.293636
0.297581
0.309601
0.315511
0.30721
0.320991
0.300112
0.287915
0.293089
0.295043
0.299581
0.304067
0.284174
0.298723
0.296788
0.29933
0.292663
0.30326
0.307065
0.307295
0.306726
0.302975
0.292691
0.302291
0.304066
0.304663
0.298478
0.303972
0.303912
0.302692
0.29447
0.307753
0.300319
0.300941
0.303337
0.313541
0.314288
0.311206
0.300547
0.304417
0.309587
0.311243
0.311837
0.310636
0.304789
0.309899
0.399292
0.28487
0.304853
0.293217
0.29424
0.282674
0.295972
0.340325
0.330642
0.365125
0.346082
0.334802
0.33536
0.349245
0.288645
0.291582
0.27761
0.286169
0.28324
0.286749
0.28342
0.320003
0.321624
0.300963
0.307187
0.312298
0.317533
0.306516
0.303918
0.311365
0.290947
0.301407
0.295677
0.306354
0.300079
0.316441
0.332769
0.315443
0.311758
0.328116
0.330407
0.30843
0.299633
0.297097
0.296074
0.297386
0.289275
0.288088
0.298415
0.386463
0.372023
0.340504
0.331612
0.310801
0.30883
0.358991
0.378482
0.348272
0.353811
0.349497
0.34332
0.330782
0.303383
0.319697
0.318779
0.318908
0.318276
0.318685
0.303337
0.308477
0.293676
0.301193
0.317752
0.328597
0.323804
0.324694
0.32441
0.33823
0.334939
0.328536
0.329403
0.310721
0.307092
0.541456
0.566899
0.318673
0.310933
0.31792
0.316986
0.318135
0.316818
0.336292
0.310962
0.320367
0.318239
0.313257
0.316534
0.315166
0.470133
0.504795
0.393343
0.415183
0.433534
0.432394
0.307983
0.306278
0.314897
0.310531
0.310234
0.310108
0.307317
0.338233
0.329327
0.355403
0.335788
0.326531
0.321191
0.346654
0.29561
0.295533
0.286233
0.294613
0.287555
0.285504
0.293749
0.305766
0.303336
0.293159
0.297528
0.292042
0.294843
0.304261
0.300299
0.309339
0.298493
0.304302
0.302895
0.304555
0.305786
0.30066
0.320391
0.319463
0.303036
0.305141
0.310445
0.30247
0.295061
0.294074
0.303679
0.301631
0.293936
0.295809
0.299977
0.361822
0.365827
0.350001
0.329188
0.330233
0.322841
0.320497
0.325948
0.313708
0.381911
0.393861
0.385805
0.379105
0.406449
0.311104
0.322152
0.313359
0.309561
0.313002
0.314251
0.317026
0.353219
0.38112
0.323703
0.339959
0.363633
0.376077
0.330853
0.326466
0.329967
0.312255
0.390682
0.344777
0.342988
0.3275
0.331044
0.327081
0.314755
0.327063
0.313476
0.313583
0.308402
0.399537
0.40641
0.384527
0.395692
0.39741
0.348022
0.412666
0.326753
0.326755
0.358681
0.333767
0.351642
0.336363
0.334961
0.307117
0.298073
0.308011
0.307048
0.306456
0.314351
0.312118
0.307055
0.304076
0.314234
0.304426
0.306106
0.322658
0.306687
0.308767
0.298736
0.323509
0.31082
0.309291
0.303943
0.305186
0.299092
0.302986
0.309068
0.316766
0.305376
0.31216
0.305527
0.300062
0.444007
0.347146
0.343401
0.298776
0.287844
0.29675
0.292352
0.290516
0.300145
0.29247
0.294408
0.280118
0.297037
0.288272
0.292604
0.285124
0.280427
0.302075
0.289555
0.30705
0.298022
0.292085
0.307161
0.309262
0.312266
0.31125
0.302628
0.302647
0.299147
0.299118
0.303685
0.304319
0.306714
0.309069
0.305072
0.30091
0.303936
0.303629
0.31593
0.31273
0.311692
0.314481
0.313775
0.314341
0.313414
0.315864
0.315911
0.320765
0.334471
0.318802
0.315577
0.319017
0.31505
0.32014
0.299811
0.299454
0.309265
0.306707
0.304472
0.297586
0.309939
0.294214
0.300272
0.281153
0.290103
0.294719
0.291186
0.283068
0.291797
0.298288
0.302482
0.297748
0.31043
0.30255
0.307943
0.298987
0.304416
0.309477
0.286269
0.292959
0.293426
0.284649
0.291109
0.295676
0.311302
0.31757
0.322318
0.322609
0.312199
0.314616
0.316434
0.308604
0.308896
0.309984
0.310246
0.304317
0.310594
0.329184
0.337549
0.307558
0.299729
0.297789
0.312291
0.307554
0.303257
0.3061
0.307763
0.307737
0.305649
0.310885
0.310244
0.313452
0.301078
0.306317
0.306472
0.298718
0.310224
0.317963
0.319724
0.320053
0.320531
0.291849
0.300208
0.304916
0.302562
0.305539
0.292183
0.304226
0.301314
0.297463
0.303547
0.307038
0.30579
0.306854
0.306584
0.312421
0.314331
0.312112
0.594866
0.283449
0.27433
0.274427
0.270458
0.277459
0.279322
0.277609
0.265854
0.269677
0.266847
0.272763
0.268095
0.268006
0.269523
0.275534
0.274493
0.281687
0.2824
0.282217
0.280759
0.280617
0.273873
0.275434
0.279296
0.27285
0.281538
0.279508
0.275434
0.27943
0.282316
0.316464
0.316207
0.323424
0.315478
0.319301
0.315172
0.318334
0.314553
0.312427
0.310481
0.31017
0.31144
0.308366
0.312595
0.469423
0.441274
0.43486
0.430195
0.410977
0.392496
0.403012
0.513771
0.473282
0.472909
0.484804
0.498898
0.483289
0.4919
0.360802
0.371815
0.36889
0.364926
0.367662
0.363762
0.36332
0.352398
0.348939
0.34685
0.341732
0.346602
0.340219
0.344142
0.363177
0.356071
0.296181
0.303247
0.298349
0.28354
0.289867
0.283561
0.287242
0.284492
0.287047
0.286119
0.31366
0.316547
0.310595
0.311905
0.31207
0.340182
0.326506
0.324332
0.322625
0.322783
0.336529
0.32805
0.355402
0.367451
0.504448
0.400889
0.357695
0.313951
0.297703
0.297348
0.304697
0.307525
0.407012
0.42198
0.402415
0.394262
0.400283
0.399773
0.392089
0.370451
0.385209
0.390394
0.386515
0.396465
0.313856
0.309995
0.369693
0.354847
0.32961
0.358849
0.349282
0.309921
0.30933
0.307422
0.45049
0.43313
0.578921
0.317502
0.314341
0.295674
0.301735
0.303396
0.308683
0.270904
0.270449
0.26979
0.276558
0.265268
0.271478
0.269778
0.269819
0.275728
0.281514
0.281045
0.278444
0.293049
0.283468
0.296939
0.27905
0.275513
0.279008
0.280082
0.277891
0.277807
0.277329
0.302425
0.282102
0.280754
0.279984
0.281432
0.277899
0.292052
0.27886
0.279435
0.273006
0.280252
0.275155
0.277956
0.265186
0.260754
0.266008
0.270101
0.262377
0.264111
0.260902
0.283629
0.285652
0.284993
0.285843
0.28794
0.284763
0.2865
0.289365
0.27805
0.285515
0.281438
0.286036
0.280265
0.283178
0.284589
0.283425
0.279434
0.270374
0.275192
0.274864
0.273325
0.27042
0.27461
0.270913
0.279051
0.270552
0.271742
0.271704
0.282192
0.280111
0.280634
0.290043
0.285509
0.283957
0.28363
0.281322
0.278904
0.284887
0.280522
0.274019
0.283736
0.273576
0.285356
0.28044
0.277992
0.2764
0.279104
0.280877
0.268527
0.271965
0.267668
0.270147
0.283496
0.271618
0.27469
0.294409
0.291046
0.28387
0.287841
0.290383
0.290045
0.287855
0.270805
0.268292
0.269124
0.274283
0.266853
0.27419
0.273622
0.285562
0.284064
0.286661
0.282792
0.285981
0.281977
0.288327
0.284268
0.282366
0.289186
0.287572
0.289318
0.28603
0.296979
0.275651
0.278695
0.271871
0.275568
0.273896
0.284074
0.275076
0.272047
0.275715
0.270551
0.273995
0.27539
0.275982
0.281019
0.294094
0.286343
0.295513
0.291184
0.291797
0.29619
0.294985
0.286749
0.283735
0.289238
0.292267
0.28877
0.285607
0.281804
0.279717
0.261844
0.265708
0.274009
0.268868
0.281933
0.295098
0.290973
0.294638
0.293169
0.289331
0.284029
0.285271
0.291821
0.273982
0.281379
0.297063
0.287088
0.30273
0.291792
0.300667
0.305392
0.30835
0.300596
0.310505
0.294539
0.296165
0.302342
0.294882
0.300978
0.319611
0.327794
0.326511
0.330548
0.317889
0.330747
0.322819
0.32457
0.337397
0.333586
0.328083
0.321917
0.325084
0.324194
0.332085
0.332334
0.327638
0.319016
0.340685
0.328493
0.324488
0.565066
0.537042
0.536783
0.55784
0.554329
0.545971
0.589093
0.550158
0.547429
0.546568
0.541446
0.350214
0.328897
0.348696
0.330034
0.344647
0.326346
0.341093
0.324133
0.341445
0.319889
0.334473
0.327715
0.337607
0.32927
0.290434
0.286187
0.299134
0.292234
0.28659
0.291061
0.289384
0.288923
0.293073
0.290334
0.292509
0.294353
0.296729
0.295287
0.299549
0.302695
0.306346
0.306271
0.300508
0.300662
0.305506
0.31828
0.304054
0.307492
0.310775
0.308983
0.309347
0.308045
0.286044
0.287271
0.286422
0.294667
0.288781
0.291492
0.29084
0.478134
0.506472
0.468316
0.474454
0.454609
0.48585
0.504241
0.378331
0.375596
0.387727
0.362823
0.372701
0.372659
0.396012
0.42318
0.407363
0.428202
0.403569
0.424248
0.413092
0.43477
0.426638
0.442127
0.436117
0.454819
0.458079
0.383754
0.418222
0.397536
0.394385
0.393613
0.399496
0.394901
0.425147
0.393736
0.419097
0.415761
0.406607
0.430389
0.444492
0.461409
0.412123
0.439065
0.440773
0.458042
0.428281
0.311305
0.314641
0.311363
0.319309
0.314343
0.319061
0.316097
0.357217
0.373878
0.388094
0.39099
0.368976
0.37427
0.386306
0.335612
0.357562
0.338121
0.357269
0.349606
0.352274
0.347252
0.381751
0.373114
0.353432
0.363797
0.367462
0.372774
0.355926
0.358181
0.366432
0.380956
0.359993
0.364449
0.362702
0.364891
0.470703
0.476521
0.440708
0.447313
0.478595
0.478992
0.466908
0.463309
0.484292
0.469254
0.480342
0.474477
0.430229
0.467575
0.418657
0.450517
0.438102
0.456778
0.429482
0.515855
0.519869
0.591589
0.564766
0.536523
0.529093
0.573458
0.529925
0.550848
0.543715
0.432971
0.466012
0.419421
0.435358
0.43509
0.449275
0.425965
0.367798
0.328247
0.362568
0.348859
0.353997
0.352597
0.359449
0.351936
0.346514
0.330557
0.348617
0.346228
0.353542
0.351463
0.315331
0.31789
0.321249
0.312076
0.317379
0.315245
0.31356
0.355588
0.341331
0.377972
0.369141
0.356566
0.350908
0.371834
0.301945
0.314309
0.298281
0.312004
0.300001
0.310394
0.294584
0.318637
0.313403
0.298219
0.313523
0.308451
0.3087
0.309079
0.349065
0.341987
0.377325
0.352667
0.348721
0.343469
0.359415
0.32552
0.326895
0.334729
0.329827
0.360923
0.368283
0.342037
0.354948
0.355633
0.360972
0.353877
0.279088
0.288169
0.288796
0.27996
0.285311
0.285714
0.28009
0.321916
0.32075
0.327912
0.33263
0.334632
0.325799
0.322084
0.303912
0.314314
0.307634
0.316704
0.306515
0.315934
0.308088
0.324574
0.316053
0.311813
0.318676
0.316559
0.320223
0.32006
0.313477
0.320899
0.319722
0.317789
0.323247
0.315695
0.333135
0.339033
0.458512
0.425736
0.419464
0.433098
0.432417
0.386417
0.345445
0.323235
0.344138
0.360933
0.359779
0.377251
0.364928
0.391907
0.324424
0.336463
0.342441
0.347495
0.326004
0.333712
0.371457
0.376053
0.271245
0.277703
0.285696
0.278406
0.279212
0.276439
0.285691
0.277199
0.285792
0.289357
0.287285
0.286555
0.28883
0.280891
0.291723
0.299255
0.304697
0.304424
0.283547
0.281858
0.28692
0.288224
0.290772
0.291715
0.290461
0.291517
0.292653
0.294139
0.291575
0.295334
0.292575
0.290464
0.298335
0.298797
0.297647
0.303297
0.298849
0.302051
0.293813
0.298943
0.288266
0.294367
0.289294
0.29345
0.292431
0.294349
0.277641
0.269693
0.275067
0.2733
0.278518
0.27259
0.273474
0.278014
0.275525
0.285875
0.27907
0.275463
0.276522
0.277237
0.279189
0.271019
0.278015
0.275169
0.278218
0.280257
0.280125
0.265742
0.268829
0.26906
0.265029
0.267209
0.264868
0.267739
0.265958
0.270673
0.269737
0.271632
0.269646
0.270869
0.26796
0.270347
0.267175
0.273504
0.277236
0.268478
0.273746
0.276456
0.272274
0.269422
0.279184
0.273035
0.272804
0.272741
0.276151
0.270747
0.26934
0.270567
0.276564
0.272592
0.273551
0.270635
0.27185
0.279242
0.273936
0.279756
0.280793
0.280856
0.277708
0.279976
0.278974
0.277453
0.270425
0.276363
0.275072
0.271827
0.262553
0.264332
0.26459
0.260289
0.26588
0.266663
0.271041
0.261118
0.276616
0.270114
0.272591
0.270371
0.273029
0.270666
0.27341
0.267411
0.267299
0.268563
0.266982
0.265762
0.266171
0.267129
0.274097
0.281109
0.283553
0.285935
0.285368
0.28527
0.281103
0.323933
0.301745
0.311389
0.321413
0.298843
0.300927
0.304119
0.319815
0.320812
0.31287
0.324872
0.320996
0.332311
0.326347
0.305072
0.297629
0.293182
0.298106
0.297838
0.302729
0.294589
0.299817
0.300313
0.307427
0.301973
0.306958
0.308232
0.308872
0.30908
0.300783
0.299984
0.303199
0.298229
0.302379
0.297575
0.302408
0.303479
0.303963
0.308563
0.31448
0.314012
0.313819
0.312952
0.310465
0.300147
0.3045
0.29607
0.308855
0.294603
0.289674
0.312937
0.30519
0.298248
0.303588
0.296895
0.318592
0.301695
0.300448
0.3052
0.301463
0.34735
0.355082
0.336127
0.343697
0.343722
0.347323
0.34069
0.279154
0.282856
0.283547
0.289268
0.281154
0.283528
0.288087
0.301318
0.30498
0.300354
0.312973
0.304541
0.307079
0.3047
0.29587
0.304072
0.302878
0.312309
0.300795
0.302397
0.301112
0.314377
0.310609
0.31008
0.314309
0.311809
0.311845
0.312408
0.299948
0.307178
0.304559
0.299286
0.294058
0.297628
0.297657
0.300847
0.315623
0.31114
0.319506
0.342766
0.343064
0.335807
0.347298
0.309952
0.31179
0.310572
0.317123
0.313444
0.323734
0.3072
0.310119
0.311895
0.317039
0.313144
0.319694
0.316547
0.306971
0.318164
0.309824
0.483528
0.508421
0.492226
0.579577
0.565878
0.59107
0.528461
0.312631
0.315141
0.312297
0.330669
0.332612
0.317273
0.31447
0.298322
0.325126
0.312958
0.307743
0.315297
0.314342
0.315115
0.323268
0.317338
0.320753
0.316673
0.314116
0.314271
0.310487
0.315732
0.309277
0.309249
0.30835
0.31577
0.319638
0.328916
0.31439
0.329639
0.3274
0.337424
0.321595
0.290782
0.296376
0.292803
0.29564
0.29063
0.29172
0.290487
0.293039
0.297728
0.302885
0.297952
0.30201
0.295776
0.294777
0.297013
0.299616
0.300597
0.303946
0.301819
0.299679
0.303963
0.3149
0.309085
0.309917
0.305392
0.306409
0.307145
0.307186
0.303883
0.298684
0.301232
0.294037
0.302652
0.298142
0.302803
0.371069
0.371359
0.383867
0.37656
0.329684
0.331198
0.327142
0.331222
0.438775
0.452312
0.408273
0.413612
0.422428
0.430829
0.422913
0.312424
0.308513
0.31643
0.315191
0.318901
0.311055
0.317582
0.325061
0.323878
0.350179
0.336838
0.347164
0.347893
0.325715
0.32682
0.329835
0.318169
0.321088
0.324309
0.335233
0.33345
0.333926
0.348272
0.327936
0.34536
0.343638
0.321058
0.33289
0.33508
0.326063
0.330948
0.325372
0.463303
0.397397
0.459371
0.444358
0.357091
0.379007
0.342968
0.377995
0.346621
0.338394
0.324238
0.320497
0.314628
0.33153
0.32823
0.331031
0.299094
0.305145
0.315644
0.308723
0.31481
0.309331
0.307412
0.333509
0.301027
0.297535
0.299634
0.293235
0.302961
0.309047
0.291135
0.289277
0.303895
0.300532
0.298347
0.29454
0.306204
0.317779
0.315086
0.329111
0.314996
0.302964
0.312135
0.318853
0.36994
0.358244
0.361802
0.290834
0.291532
0.29012
0.294674
0.291294
0.290262
0.299487
0.293113
0.291695
0.286937
0.290698
0.279931
0.285619
0.280069
0.290794
0.289416
0.29276
0.312948
0.308953
0.302447
0.300572
0.305089
0.304989
0.298143
0.312548
0.314002
0.31593
0.313051
0.313527
0.313631
0.315813
0.309578
0.314043
0.310896
0.314289
0.311374
0.312604
0.313865
0.284628
0.282015
0.29292
0.281547
0.278071
0.281412
0.292315
0.28909
0.294695
0.289785
0.294747
0.29252
0.294648
0.294213
0.302196
0.307829
0.289811
0.287212
0.289643
0.294948
0.285653
0.287646
0.290812
0.33674
0.361432
0.309279
0.310637
0.314057
0.308394
0.307043
0.314074
0.312276
0.313016
0.313859
0.31527
0.30784
0.313205
0.314106
0.329918
0.369202
0.366569
0.309978
0.304852
0.308656
0.307755
0.304105
0.302409
0.308119
0.315166
0.316514
0.313574
0.299176
0.305757
0.290308
0.300021
0.299062
0.306122
0.289453
0.304382
0.310267
0.301509
0.304856
0.300486
0.297899
0.298715
0.304462
0.306511
0.31019
0.291899
0.309102
0.29761
0.296059
0.297152
0.298725
0.305182
0.432041
0.395729
0.428553
0.402655
0.442451
0.494796
0.398513
0.413435
0.402565
0.424669
0.500262
0.458537
0.438016
0.437818
0.451108
0.383959
0.455438
0.473905
0.428898
0.422373
0.414907
0.379858
0.410779
0.400232