/*--------------------------------*- C++ -*----------------------------------*\
| =========                 |                                                 |
| \\      /  F ield         | OpenFOAM: The Open Source CFD Toolbox           |
|  \\    /   O peration     | Version:  v1612+                                |
|   \\  /    A nd           | Web:      www.OpenFOAM.com                      |
|    \\/     M anipulation  |                                                 |
\*---------------------------------------------------------------------------*/
FoamFile
{
    version     2.0;
    format      ascii;
    class       surfaceScalarField;
    location    "206";
    object      phi;
}
// * * * * * * * * * * * * * * * * * * * * * * * * * * * * * * * * * * * * * //

dimensions      [0 3 -1 0 0 0 0];

internalField   nonuniform List<scalar> 
41233
(
-1.10142e-08
-4.30285e-09
4.35599e-09
4.09251e-09
-4.17638e-09
1.01632e-08
-1.00792e-08
2.04334e-09
3.80046e-09
-1.19917e-09
-4.64463e-09
5.99424e-09
-6.48085e-09
9.86969e-09
-9.38307e-09
5.89889e-09
3.4873e-09
-4.80012e-09
-4.58588e-09
-2.03049e-09
4.53865e-09
3.39074e-09
-9.35354e-10
-2.42829e-09
2.12899e-09
1.23477e-09
-3.66599e-09
7.00486e-10
-3.82838e-09
2.73924e-09
5.6278e-09
5.09115e-11
-3.92125e-10
1.0779e-09
-2.21935e-09
-1.28668e-09
-1.6745e-09
2.5699e-09
1.82691e-10
-2.04227e-09
-6.42387e-09
1.74018e-09
-6.00144e-09
2.81013e-09
-2.74457e-09
-6.49755e-10
3.51076e-09
-2.76555e-10
5.46582e-09
-2.45007e-09
-1.44734e-09
-1.43074e-09
2.60129e-09
-7.04372e-11
7.51784e-10
-1.90899e-09
4.07769e-10
4.56411e-12
6.56321e-10
-5.42911e-09
-2.71531e-10
2.59885e-09
3.10176e-09
-5.39656e-09
2.45837e-09
-2.49095e-09
-6.71554e-09
2.91412e-09
3.52974e-09
-1.09792e-09
-8.55254e-10
-4.76242e-09
-1.38228e-09
-5.1122e-09
-3.55244e-09
2.05413e-09
4.09722e-09
-1.4543e-09
3.60355e-10
4.63963e-09
-4.88466e-09
3.1591e-09
-1.7268e-09
7.08904e-09
-6.21759e-09
4.00044e-09
-1.09603e-10
-5.2731e-09
5.05213e-09
-6.02801e-09
7.18765e-10
2.57061e-10
3.07821e-09
-4.04978e-09
6.02377e-09
2.29223e-09
2.53976e-10
5.29811e-09
-7.1345e-09
-1.96041e-09
7.09268e-09
9.56006e-09
-6.88082e-09
2.01593e-09
-2.74577e-09
2.58409e-10
1.64851e-09
-3.27564e-09
3.92793e-09
-2.30103e-09
5.59369e-09
-1.57277e-09
-2.37245e-09
-1.19196e-09
-4.09922e-09
2.01563e-09
-4.18656e-09
5.71168e-09
-8.36175e-09
6.83667e-09
3.6263e-09
-7.93393e-09
3.11566e-09
-6.50037e-10
-4.54354e-09
-4.09526e-09
9.28886e-09
2.17155e-09
1.78999e-09
-3.3753e-11
5.63696e-09
2.12832e-09
-3.71113e-09
1.5779e-09
-1.96598e-09
-1.75908e-09
-2.60205e-09
5.92521e-09
-1.89368e-09
-8.57504e-09
8.98568e-10
8.40062e-10
-8.34536e-10
2.32091e-09
-3.24537e-09
3.51461e-09
-6.24284e-09
1.95279e-09
3.99928e-09
-2.43749e-09
2.64715e-09
-1.04361e-09
3.493e-10
-9.63077e-10
2.39984e-10
-3.30432e-09
4.37867e-09
1.59352e-09
3.1432e-10
6.10422e-09
3.36947e-09
-1.18697e-08
2.3961e-09
-5.79468e-09
5.19824e-09
6.70069e-09
9.63133e-09
-1.08939e-08
4.63208e-09
2.80654e-09
-5.54501e-09
1.23698e-08
2.14418e-09
-9.21181e-09
-4.80212e-09
-2.42977e-09
-3.90354e-09
5.38744e-10
4.96696e-09
-1.97444e-09
4.1662e-09
-7.15873e-09
5.25975e-09
-6.92094e-09
-9.23285e-09
-1.87805e-09
9.88292e-09
1.46315e-08
-2.89327e-09
-6.47857e-09
6.08545e-10
8.47794e-09
2.56576e-09
-2.85512e-11
-2.90945e-09
-5.8151e-09
1.80351e-09
3.66468e-09
-8.54858e-09
-1.04067e-08
9.15419e-09
-3.36873e-09
4.62119e-09
-7.15604e-09
-6.14388e-09
3.3409e-09
6.4219e-09
5.62936e-09
-9.12069e-09
2.33777e-09
-7.71057e-11
-4.85366e-09
6.31659e-09
4.98955e-11
-8.1724e-09
-2.73914e-09
3.43555e-09
7.47594e-09
-7.48172e-10
-6.66238e-09
-7.61876e-10
-5.72117e-09
5.67403e-09
-7.01053e-10
8.3574e-09
4.28452e-09
1.21927e-09
-1.38612e-08
3.12358e-09
-4.6572e-09
9.891e-09
-7.4858e-09
6.2043e-10
4.12613e-09
-7.15782e-09
-6.99036e-09
-1.92056e-09
6.78793e-09
-5.27388e-09
4.06449e-10
9.87278e-09
6.40959e-10
-3.60991e-09
-6.90384e-09
-1.2428e-09
-6.66211e-09
8.60987e-09
-7.0499e-10
-3.34686e-09
1.93729e-09
1.12823e-08
-8.11409e-09
-9.53932e-10
-6.96197e-09
1.12723e-08
-3.66948e-09
-6.72224e-10
-1.41338e-08
7.84408e-09
8.54557e-09
-8.4795e-09
4.21843e-09
-8.13063e-10
1.24822e-08
6.28703e-09
-1.03238e-08
-1.42381e-08
6.40806e-09
1.05658e-08
-4.17468e-09
4.88116e-09
3.00457e-09
-9.18278e-10
3.67228e-09
4.7235e-09
9.07822e-10
-9.3036e-09
4.21147e-09
-8.01967e-09
7.48057e-09
-7.30719e-09
5.04926e-09
6.94249e-10
1.56383e-09
-2.10258e-09
-4.81075e-10
6.31632e-09
6.85598e-09
-1.22645e-08
-2.94208e-09
-3.65327e-09
-7.09823e-09
1.36938e-08
7.76047e-09
-5.2124e-09
-5.49007e-09
3.39236e-09
1.53017e-08
-1.23779e-08
1.22671e-08
-4.66313e-09
6.80631e-09
-2.05297e-09
-7.13534e-09
8.53129e-09
7.75088e-09
4.9575e-09
2.59336e-09
-7.30591e-09
7.95854e-09
4.62846e-09
-5.27211e-09
-7.20742e-09
5.88037e-09
6.59916e-09
4.01941e-09
-7.77936e-09
-1.51218e-09
-6.99942e-09
-3.47324e-09
-1.62186e-09
-4.1303e-09
1.15018e-09
-1.95158e-09
-2.0751e-09
-3.18063e-09
-3.06646e-09
-6.66449e-09
7.56004e-10
4.18598e-09
-8.00847e-09
3.2009e-09
3.781e-09
-6.22585e-09
-2.75203e-09
-2.06066e-09
5.29865e-09
-4.85974e-10
5.41623e-09
-3.98233e-09
2.10464e-09
-8.18938e-10
-3.61962e-09
2.25072e-09
-2.74531e-09
7.00386e-09
4.04719e-09
-2.92133e-09
-5.00875e-09
1.31303e-09
9.5038e-10
-2.92923e-09
1.96772e-09
-1.20889e-09
2.99201e-09
4.1564e-09
1.10291e-08
-5.88016e-09
-9.30534e-09
1.04208e-08
-1.28822e-09
-4.97626e-09
1.65088e-09
2.3881e-09
6.99012e-09
3.7689e-09
8.30284e-09
-1.65403e-10
2.16894e-09
2.90952e-09
-4.91308e-09
-1.35541e-09
-3.1569e-09
6.24677e-09
-1.73441e-09
2.62076e-09
9.00289e-09
-7.20858e-09
-4.41507e-09
3.03303e-09
-8.36409e-09
5.04046e-09
2.90644e-10
7.56532e-09
-1.56203e-09
-1.18834e-08
-5.73549e-09
1.88261e-09
6.24097e-09
1.66442e-09
7.49305e-09
-4.55321e-09
9.31833e-11
-4.47643e-09
-8.2718e-09
6.16766e-09
6.58056e-09
-2.28996e-09
6.79334e-09
-6.20609e-09
7.68504e-09
-7.37315e-09
-1.88338e-10
3.41189e-09
-9.45035e-09
-5.24946e-09
-1.36726e-10
6.92702e-10
4.30623e-09
-4.86201e-09
3.10192e-09
4.98295e-10
-3.73681e-09
-1.36959e-10
8.41267e-09
-7.58302e-09
-9.49358e-10
8.27839e-09
-7.46589e-09
1.00771e-08
7.24171e-09
-8.90618e-09
-2.51503e-09
5.13487e-09
7.45736e-09
-5.67418e-10
3.48741e-09
1.82013e-10
4.27905e-09
-5.40229e-10
5.00105e-09
-5.45211e-09
1.37376e-09
4.38962e-09
-5.00325e-09
1.98132e-09
8.15678e-09
4.58385e-10
1.78008e-09
1.59551e-09
3.14195e-09
5.28911e-09
2.8981e-09
-3.18607e-09
3.65396e-09
3.00892e-09
1.42526e-09
1.75567e-09
3.06575e-10
-3.96704e-09
1.82285e-09
5.79817e-09
3.56331e-10
5.94798e-09
-2.14384e-09
-2.06025e-08
1.16696e-08
1.67008e-08
-7.76779e-09
-1.78519e-08
-3.88833e-09
1.13789e-09
-3.37377e-09
-1.13926e-08
1.39711e-08
7.95498e-10
-1.39381e-08
1.00885e-08
4.75836e-10
-7.89708e-09
5.60055e-09
-9.0959e-09
1.11756e-08
-7.8314e-09
-1.12411e-08
2.72516e-09
-5.4876e-09
5.33227e-09
8.60203e-09
-1.0932e-09
-1.28411e-08
7.65938e-09
1.40678e-09
-3.73387e-09
-6.13452e-09
9.71811e-09
4.07587e-09
7.55223e-09
-5.08469e-09
5.45621e-09
9.1786e-09
-1.5728e-08
8.87751e-09
-2.01456e-09
1.32312e-08
-1.00684e-08
-3.45227e-09
2.89444e-10
7.65176e-10
1.25522e-09
1.12108e-08
1.02813e-08
-4.31701e-09
1.58799e-09
-3.81536e-09
7.68281e-09
-6.5502e-09
2.6828e-09
7.99357e-09
-1.52761e-09
-4.74722e-09
9.60881e-09
-9.27838e-09
1.78933e-09
8.25429e-09
-1.04692e-08
1.17224e-09
1.2544e-08
-1.2461e-08
-9.39366e-11
-1.28197e-09
9.05876e-09
9.07187e-09
6.49531e-09
-3.32734e-09
7.00269e-09
-2.28949e-09
7.26553e-09
-5.4571e-09
9.22201e-10
6.18402e-09
-9.15909e-09
5.49225e-09
-6.85953e-09
-7.4595e-09
6.22583e-09
1.92796e-09
4.29155e-09
-4.4855e-09
-1.37415e-09
5.55626e-09
2.00184e-09
4.20331e-09
-8.51767e-11
-3.90673e-09
5.61538e-09
4.51716e-09
4.26261e-10
-4.14135e-11
2.77984e-09
6.9426e-09
-3.47473e-09
1.41503e-08
4.43265e-09
1.9692e-10
1.8433e-09
1.76306e-09
8.26392e-10
3.98385e-09
-4.49471e-09
1.10522e-10
8.84828e-09
-4.46388e-09
-6.61579e-10
-8.73772e-09
4.90474e-09
8.49293e-09
-8.25724e-09
4.52546e-09
-4.76097e-09
-1.77377e-09
7.16653e-09
-4.81196e-09
-5.80613e-10
9.4757e-09
-2.75646e-09
-4.18103e-09
-4.14754e-09
8.43923e-09
4.63309e-09
1.30901e-09
-2.88014e-09
-4.38591e-09
4.59609e-09
6.62062e-09
-6.83056e-09
4.906e-10
4.54022e-09
-9.41647e-09
7.66087e-09
-1.54274e-08
4.95913e-09
-2.11013e-09
-1.96044e-09
1.26642e-08
-6.10748e-09
9.74314e-09
-7.16322e-09
1.11972e-08
-5.11575e-11
1.25013e-08
4.52912e-09
-7.28709e-09
-7.70936e-10
6.81598e-09
6.45636e-09
5.82094e-09
6.07238e-09
1.28707e-08
-1.23201e-09
1.07204e-08
-6.40279e-09
1.38452e-09
-6.07659e-10
5.62589e-09
1.93682e-09
1.0482e-09
-9.38791e-09
5.17446e-09
2.31256e-09
-5.55024e-09
7.4071e-09
1.17265e-09
-7.5316e-09
6.18504e-09
2.60654e-09
2.72905e-09
3.16758e-09
-7.22248e-10
5.85833e-09
5.56109e-10
-4.10197e-09
1.42168e-09
-2.73903e-09
-4.44741e-09
5.76469e-09
-3.08453e-09
-1.45068e-09
5.95676e-09
1.77601e-09
1.40299e-09
3.15208e-09
-6.33122e-09
3.9626e-09
-4.92564e-09
-2.968e-09
-5.10268e-09
3.62323e-09
1.66088e-09
-6.19421e-09
1.56519e-09
-4.01418e-09
2.59048e-09
2.19845e-09
-2.5344e-09
-1.75186e-10
6.28621e-09
-4.55748e-09
-4.07049e-09
4.02276e-09
2.73253e-10
1.84129e-09
2.54528e-09
-2.2696e-09
5.10105e-09
-4.89761e-10
-2.34186e-09
3.0254e-09
-3.25994e-09
-2.03525e-09
4.50194e-09
-2.22262e-09
2.82146e-09
3.77477e-09
-3.77558e-09
5.24602e-09
-5.2453e-09
6.72401e-09
1.53949e-09
-5.72188e-09
-2.54233e-09
-4.40284e-09
4.29063e-10
1.06969e-08
-2.97806e-09
1.14377e-10
-3.46075e-09
9.45543e-09
-5.56573e-09
-1.44623e-09
2.48726e-09
5.37077e-09
1.23779e-09
-2.32248e-09
-4.28641e-09
3.42362e-09
-5.18175e-09
7.5724e-10
-9.18623e-10
9.50645e-09
-6.4869e-09
6.63467e-09
-9.65422e-09
3.16173e-10
8.63589e-09
5.54349e-10
4.54872e-09
2.12447e-10
-1.12481e-08
3.9521e-09
9.12821e-10
-5.92335e-09
5.68912e-09
-6.84914e-10
1.39625e-09
-6.92917e-09
4.86338e-09
1.38088e-09
-5.99315e-09
7.73229e-09
-8.66827e-09
-9.64244e-09
3.86177e-09
2.82398e-11
-4.04329e-09
6.75087e-09
-2.73581e-09
-4.9954e-09
8.97577e-09
-8.62641e-09
4.21681e-09
1.2178e-09
-2.11189e-09
-2.20016e-09
-8.40337e-09
2.41209e-09
-2.77073e-09
8.76217e-09
-8.46122e-09
-6.46736e-09
6.52528e-09
3.32325e-09
-1.36433e-08
-6.9407e-10
-8.43166e-09
-7.98839e-09
8.17927e-09
8.24092e-09
-2.23816e-09
-1.61654e-09
-4.57688e-09
-1.20959e-08
1.23466e-09
5.33295e-09
5.52848e-09
-7.49108e-09
-2.02435e-09
-2.58037e-09
-1.47149e-09
-1.21392e-08
5.1496e-09
-3.46477e-09
-6.76167e-09
-4.54847e-09
-4.55912e-09
1.1257e-08
-8.17732e-09
-5.10391e-09
7.42492e-09
5.06689e-09
1.10977e-08
2.41461e-09
-3.98107e-09
5.11921e-09
6.28689e-09
-7.05762e-09
-8.01983e-09
4.42476e-09
-4.93307e-09
-2.90407e-09
7.79581e-10
9.71458e-09
-2.00097e-09
-7.85922e-09
1.45825e-10
8.00582e-10
8.07979e-09
-3.75511e-09
-8.87297e-09
5.68938e-10
-1.11533e-08
-2.45296e-09
1.30366e-08
-4.03508e-09
-1.9853e-08
-1.75354e-08
-4.00199e-09
1.03838e-08
-1.88101e-08
1.74278e-08
-2.653e-09
-1.04114e-08
4.94941e-09
-1.59853e-08
2.14468e-08
-1.16384e-08
-9.85537e-09
3.95811e-09
-6.73169e-09
-1.53183e-08
-1.43623e-08
1.40574e-08
-2.14816e-09
9.62046e-09
1.02627e-09
-6.10713e-09
-4.53968e-09
-1.51134e-08
6.11266e-09
1.86212e-08
-6.53075e-09
-7.32994e-09
-9.53887e-09
7.79234e-09
-8.10893e-09
4.07317e-09
-2.03438e-08
-5.54376e-09
1.05607e-08
-1.25946e-08
-1.10835e-08
4.12295e-09
3.4295e-09
-4.80127e-09
-2.75121e-09
7.628e-09
-5.62258e-09
2.1175e-09
7.19545e-09
-1.35357e-09
-2.41243e-09
5.82908e-09
8.99435e-09
6.21099e-09
4.50388e-09
-1.2e-10
-1.05949e-08
4.78078e-09
6.96965e-09
-5.53951e-09
9.77402e-09
-1.00715e-08
3.24134e-09
9.10027e-10
-2.91137e-09
3.26057e-09
-6.70385e-09
6.35462e-09
1.8562e-09
1.06145e-09
-8.74024e-11
-6.63291e-09
-1.18086e-08
1.85288e-08
-8.2084e-09
1.29017e-08
-2.10139e-09
1.17299e-08
-6.368e-09
-5.82065e-09
5.57542e-09
-4.76379e-09
8.0284e-09
-4.61822e-09
-1.15167e-08
8.48436e-09
1.7266e-09
-3.23446e-10
1.64797e-09
7.02724e-09
-4.36355e-09
-1.97517e-09
5.14886e-09
-3.65966e-09
2.66236e-09
-1.06366e-09
-3.5739e-09
-7.6311e-10
3.99621e-09
1.91575e-09
1.72439e-09
1.74996e-10
2.16391e-09
-4.43642e-09
6.49377e-09
-2.91681e-09
-1.6092e-09
1.73454e-09
5.70968e-09
9.48519e-10
6.0397e-09
2.14284e-09
-2.89571e-09
-3.51095e-09
6.19401e-09
3.56327e-10
-2.45304e-09
1.45258e-09
-3.01068e-09
4.01108e-09
-7.8001e-10
-2.29653e-09
6.23126e-10
1.3952e-09
-3.06166e-09
-1.3391e-09
3.00545e-09
-1.62376e-09
4.4715e-09
-1.4087e-09
1.68282e-09
-3.28487e-09
-2.08461e-09
-3.77959e-09
2.80214e-09
-3.48978e-09
6.2545e-10
4.46058e-10
3.55046e-10
-5.46396e-09
4.66246e-09
7.41046e-10
-3.80049e-09
3.50533e-09
-2.30937e-09
-2.75423e-09
3.43971e-09
-5.08792e-09
1.43928e-09
-4.98147e-09
8.18401e-10
-1.1324e-09
-2.87264e-09
5.15015e-10
-4.32759e-09
-5.84338e-10
5.36056e-10
-5.1626e-09
-4.04875e-11
2.57762e-09
-4.8979e-10
-2.0477e-09
4.75464e-09
-4.25917e-09
2.24429e-09
1.06709e-09
-3.19879e-09
-3.75048e-09
7.38273e-09
2.10473e-09
-9.81621e-10
-8.50573e-09
-4.27708e-09
6.1096e-09
5.55035e-09
1.12943e-09
-3.30177e-09
8.00469e-10
1.77271e-09
-4.70249e-09
2.12946e-09
3.55358e-09
3.35653e-09
7.2799e-10
3.52614e-09
1.98887e-09
-3.35697e-09
3.14077e-09
3.95156e-09
4.604e-09
3.60721e-10
-5.94624e-09
1.59259e-09
-1.6911e-09
-2.74164e-10
-5.02028e-09
-9.01895e-10
-5.37377e-09
3.41286e-09
-3.95386e-09
-2.05547e-09
2.91294e-10
7.08535e-11
1.92083e-08
5.37258e-09
-1.61416e-08
1.80516e-08
-1.02342e-09
2.1802e-09
1.03874e-08
-1.8677e-09
-3.14693e-09
9.63643e-09
1.88026e-08
7.7026e-09
1.22371e-10
9.51318e-09
1.43118e-09
-3.24178e-09
3.66787e-09
9.05916e-09
-3.21377e-09
2.07791e-09
7.07929e-09
-4.52409e-09
5.41736e-09
7.55686e-09
-8.06958e-09
1.02177e-08
-2.72238e-09
5.25778e-09
-3.28365e-09
8.2435e-09
3.41814e-09
-6.4252e-10
2.48217e-09
-2.34909e-09
1.13371e-08
-2.31196e-09
1.56164e-08
-9.13777e-09
-4.39926e-09
1.12251e-08
-8.03472e-09
-1.7613e-09
6.58292e-10
-2.82305e-09
-1.14452e-09
1.28545e-10
-1.00645e-09
2.02214e-09
1.10068e-09
-2.37201e-09
1.26286e-10
-2.74716e-09
-1.99903e-09
4.8747e-09
-3.92218e-09
2.27573e-09
-8.61101e-10
-6.54981e-09
5.41201e-09
1.41053e-09
-6.28484e-09
4.01331e-09
-1.19272e-09
2.63777e-09
2.50646e-09
1.46464e-09
4.83158e-10
3.04182e-09
-6.3893e-09
3.63066e-09
2.84972e-09
-5.88241e-09
-3.75459e-10
-3.32462e-09
-1.39166e-09
4.84278e-10
-2.50859e-09
-1.78904e-09
-1.77078e-09
1.49473e-08
-4.68377e-09
-6.89693e-09
-3.36651e-09
3.33034e-09
9.14469e-09
2.47229e-09
3.1419e-09
-5.87879e-09
2.76426e-09
-2.73945e-11
-5.84233e-09
-2.67374e-09
3.83227e-09
-5.741e-09
5.9986e-09
-2.98005e-09
-2.50656e-09
-9.25925e-11
1.00217e-08
-8.57613e-09
-8.34243e-09
8.82801e-09
1.80593e-09
5.97305e-09
5.90542e-10
-8.36946e-09
5.79264e-09
-4.56729e-09
3.46974e-09
-3.33895e-09
-2.58483e-09
1.75721e-10
-7.90547e-09
-2.6708e-09
-1.0742e-08
5.31497e-09
-2.10715e-09
-1.28151e-09
-3.08686e-09
-3.21558e-09
3.52007e-09
2.78234e-09
2.77e-10
-3.45046e-09
8.66123e-11
-5.79315e-09
-1.18188e-09
7.55335e-09
-5.78357e-10
2.26464e-09
-8.98285e-10
-7.15951e-09
1.78743e-09
2.56698e-09
-7.56997e-09
-9.76911e-09
3.20726e-10
5.84601e-09
3.60234e-09
1.42963e-09
-8.93409e-09
6.85049e-09
-7.15625e-11
-5.34932e-09
8.78179e-09
-2.36574e-09
4.34385e-10
8.74026e-10
-5.30596e-09
3.53365e-09
4.1975e-09
-1.26301e-09
-4.11641e-09
-7.20368e-10
-3.72699e-09
-3.84212e-09
8.28945e-09
-3.69661e-09
6.49629e-09
-2.9054e-09
3.16512e-09
1.72648e-11
-1.32946e-09
-4.76797e-09
2.37038e-09
3.50774e-09
1.25139e-10
-4.96243e-09
3.10609e-09
-7.26695e-09
5.21222e-09
7.36085e-09
-1.23824e-09
-4.01853e-09
5.18523e-09
3.00778e-09
-3.37201e-09
4.7406e-10
-3.7169e-10
9.77689e-09
1.23786e-10
-1.20579e-09
-8.69495e-09
-1.00367e-08
-8.85939e-10
6.48604e-10
1.02741e-08
-1.26431e-09
-7.44853e-09
-1.32394e-09
1.0177e-08
5.99718e-10
-7.92447e-09
5.21283e-09
6.50365e-10
-5.26352e-09
-5.17536e-09
5.02254e-10
5.11804e-09
-4.44959e-10
-4.75916e-09
6.90347e-09
-7.31971e-09
-6.15247e-09
7.05578e-09
-4.01096e-10
5.65273e-09
-4.80775e-09
4.77409e-09
-7.31499e-12
-2.91033e-10
-1.09694e-08
-1.06566e-08
1.94043e-08
2.22162e-09
1.7329e-08
-1.05017e-08
3.32956e-09
-6.6483e-09
-5.37891e-10
2.48148e-09
1.74607e-08
1.14654e-09
1.56445e-08
-1.56195e-08
-3.79528e-10
1.84804e-08
-6.83963e-09
4.44788e-09
1.09736e-08
5.23797e-09
2.21135e-08
2.69924e-08
-7.40858e-09
-5.62501e-09
5.65704e-09
7.3766e-09
-7.16228e-09
2.51569e-09
-2.76189e-09
-8.9057e-10
1.04426e-09
-5.77864e-09
-7.91821e-09
-1.34679e-10
-4.10584e-09
1.25965e-09
8.50329e-09
-1.93977e-09
3.4964e-10
-2.61587e-11
-7.73098e-09
-1.61057e-10
-4.30564e-09
2.01149e-09
3.54452e-10
-1.98547e-09
-2.00442e-09
5.24954e-09
-1.90307e-09
-4.178e-09
4.09564e-09
7.58942e-09
-3.00428e-10
-7.46833e-09
1.79403e-10
4.5983e-09
5.00171e-09
-2.01054e-09
1.31259e-10
-4.46308e-09
-1.04478e-09
-6.44699e-09
5.48733e-09
-7.65298e-09
4.70508e-09
-2.36478e-09
1.9826e-10
4.91822e-09
-5.08742e-09
-3.29156e-10
-1.51952e-09
-5.67786e-09
-2.3043e-09
-3.1244e-09
3.37479e-09
-1.503e-09
-6.67996e-09
4.80823e-09
-4.6088e-09
-1.93287e-09
9.91645e-09
-5.53671e-09
-3.35061e-09
-3.09209e-09
1.19794e-08
-6.50682e-09
-1.02327e-08
1.12028e-08
-4.68944e-09
4.7643e-10
-3.95778e-10
1.093e-09
1.05639e-08
-3.65103e-09
-8.00591e-09
5.62939e-09
-1.09841e-09
-3.43798e-09
7.77357e-09
7.35101e-09
-4.56066e-09
8.69332e-09
4.70963e-09
4.68986e-09
-1.18675e-08
5.67465e-09
-8.57409e-09
1.13311e-08
1.76516e-10
3.81026e-09
6.26411e-09
6.08723e-09
-3.79497e-09
2.66574e-09
2.02635e-09
2.65889e-09
6.66962e-09
-1.18312e-08
-1.16017e-08
1.15654e-08
3.56118e-10
1.02809e-08
-4.54984e-09
-5.67879e-09
-5.79621e-09
3.73317e-09
-1.06838e-08
3.85568e-10
1.8732e-09
8.42497e-09
-1.70317e-09
-5.42675e-09
-3.55381e-09
-6.97761e-09
6.69358e-09
-2.514e-09
2.79802e-09
-4.29419e-09
-4.38658e-09
4.97297e-09
-5.63416e-09
-4.76554e-09
4.96063e-09
2.11851e-09
3.69867e-09
-2.43809e-09
-5.55477e-09
1.65996e-09
-4.75292e-10
7.31811e-09
-4.59947e-09
2.25428e-09
8.26043e-09
9.30878e-10
-3.26178e-09
4.42095e-09
3.30302e-09
-1.98711e-09
-4.60078e-09
2.91512e-09
3.67279e-09
-5.21275e-09
3.15309e-09
7.25773e-11
2.68624e-09
6.16614e-09
-5.54936e-09
-8.66549e-10
-1.01198e-10
1.66657e-09
-2.79711e-10
8.81002e-09
7.95638e-09
-1.67119e-08
-5.44408e-11
6.05758e-09
8.49224e-09
-5.73971e-09
5.55742e-09
1.52243e-09
9.07545e-09
-1.61551e-08
2.49545e-10
1.40557e-08
-8.74767e-09
-5.60969e-09
-9.6122e-09
1.54716e-08
1.32431e-08
-1.73302e-08
-9.92481e-09
1.39989e-08
1.98355e-09
-7.73329e-09
5.76484e-09
-2.02152e-08
1.25787e-08
5.24418e-09
1.0782e-09
4.86427e-09
1.08359e-08
-1.0456e-08
9.04669e-09
-5.32804e-09
9.52455e-09
1.52262e-08
-9.81694e-09
3.63758e-09
1.43067e-08
-4.66826e-09
5.58776e-09
-1.55017e-08
2.16402e-09
-1.9944e-09
1.53321e-08
-5.12855e-09
-8.15149e-09
-1.08703e-08
1.36311e-08
-1.21259e-08
9.36521e-09
-1.25959e-08
-3.40298e-09
-2.36122e-09
1.81564e-08
1.17998e-08
-1.34042e-08
-6.54701e-09
2.02674e-08
-1.94588e-08
1.09912e-08
3.32338e-09
1.49497e-08
-9.63068e-09
3.02262e-11
-2.52536e-09
-8.16236e-09
-1.40641e-08
-4.0283e-09
-1.14444e-08
1.31115e-08
-1.71398e-08
9.00827e-09
-1.13271e-08
-2.16403e-09
-1.61397e-08
1.54348e-08
-9.56106e-09
-1.85305e-09
-5.14449e-09
-1.98686e-09
-9.41086e-09
-5.2946e-09
3.23352e-09
-8.06047e-09
4.84768e-09
-2.07556e-11
1.04308e-08
-1.17259e-08
4.52855e-09
2.90407e-09
-4.93693e-09
1.24636e-08
-5.13705e-09
-6.14389e-10
8.65539e-09
1.03551e-08
-9.38983e-10
-1.74766e-08
8.78824e-09
-1.01591e-08
-9.19523e-10
6.30115e-10
4.46997e-09
-6.18703e-10
-1.04928e-08
3.75706e-09
1.17379e-08
-5.00228e-09
1.20929e-08
-8.8346e-09
-1.44429e-08
1.11846e-08
-3.44746e-10
1.94492e-09
-4.98444e-09
8.12708e-09
7.23272e-09
-1.70063e-08
6.05514e-09
8.32804e-10
1.5117e-10
-4.78345e-09
-1.24807e-08
1.22879e-08
1.76157e-09
-1.79869e-08
1.14419e-08
1.28414e-08
8.6073e-09
-1.1759e-08
-9.6896e-09
6.30224e-09
8.30075e-09
8.13947e-10
-9.8945e-09
-3.40017e-09
-1.32046e-08
-3.96829e-09
-1.91494e-09
-7.88526e-11
9.9699e-09
-1.25492e-09
-1.06299e-08
-8.72258e-09
9.7754e-09
6.00585e-10
-7.15834e-10
3.93349e-09
-3.85808e-09
-1.02725e-09
-1.08106e-08
-3.45216e-11
8.3176e-09
-9.53798e-09
-9.82309e-09
8.7613e-09
-3.69965e-09
-1.67223e-09
-9.5583e-09
-6.02481e-09
1.4378e-09
-2.6785e-09
-5.87256e-10
-8.26252e-09
4.01402e-10
6.06224e-09
-6.70384e-10
-5.79317e-09
-5.44906e-10
7.48286e-09
-6.53648e-09
3.44197e-09
-6.43402e-09
9.05432e-09
6.23923e-09
-1.90631e-09
-8.9096e-10
-3.41037e-11
3.70846e-09
-4.34473e-09
4.06304e-09
-4.64204e-09
-1.71696e-09
6.78614e-09
-8.11378e-09
3.04455e-09
-6.96691e-09
4.27918e-09
9.70736e-10
-8.27628e-09
-2.71633e-09
-1.13406e-09
1.21267e-08
-5.53101e-09
4.04087e-09
2.0079e-09
6.41465e-09
-2.18327e-09
3.50003e-09
-1.69792e-09
1.52421e-09
-5.24495e-09
-4.39305e-09
-1.94267e-09
1.08009e-08
1.75645e-09
-5.07447e-09
4.34207e-09
7.6956e-09
-1.23665e-09
-1.01959e-08
1.18217e-08
-1.26458e-08
-3.08111e-09
5.15301e-09
8.01783e-09
-9.19973e-09
-2.8715e-09
-9.70999e-09
2.0374e-08
-2.35588e-09
-8.3081e-09
2.096e-08
-8.55655e-09
-2.28982e-08
-9.88648e-09
1.07799e-08
2.20048e-08
2.70991e-09
-4.64801e-09
1.44254e-09
8.48831e-09
2.97454e-09
7.51302e-09
1.45071e-08
-1.09976e-08
-7.99602e-10
1.42648e-08
-2.1715e-09
2.41385e-09
2.022e-09
2.30226e-08
9.1335e-09
-2.0595e-09
-7.94135e-09
8.6739e-10
-5.48405e-09
1.66396e-08
-6.23121e-09
-5.86594e-09
9.74139e-09
6.89632e-09
-1.1685e-08
-9.63714e-09
1.27693e-08
-8.61612e-09
-1.13542e-08
-3.42379e-10
5.68304e-09
-8.1923e-09
-1.0191e-08
7.81356e-11
-8.6284e-09
-2.98562e-10
-2.42723e-09
-1.87026e-09
-2.63772e-09
-1.98029e-09
1.6722e-09
-3.75695e-09
4.06434e-09
-3.24623e-09
3.10012e-10
9.54924e-10
-1.14872e-10
-4.18995e-09
1.05845e-09
-2.67666e-09
2.0878e-09
4.73772e-10
5.70654e-09
-8.76703e-11
-5.78119e-09
1.62139e-10
1.46093e-09
5.56457e-11
-1.49495e-09
4.53351e-10
2.71344e-09
-2.03079e-09
1.64456e-09
6.95696e-10
1.70552e-09
-4.00149e-09
1.93804e-10
-2.95819e-09
-7.8589e-10
8.42765e-10
-1.79178e-09
-4.45271e-09
3.25703e-09
2.98743e-09
-3.53407e-09
9.56058e-10
3.681e-10
-4.00855e-09
-8.12425e-10
-3.01465e-09
-1.51323e-10
4.34103e-09
2.98191e-09
9.13161e-11
-7.41425e-09
-4.85543e-09
4.18014e-09
5.01627e-09
-6.09617e-10
-4.87096e-09
6.2499e-10
6.16304e-10
2.0687e-09
-3.64675e-10
-4.25356e-09
-3.18559e-09
-4.75663e-09
-5.6838e-09
1.17859e-09
9.26168e-09
-4.90314e-09
-8.2852e-10
9.74924e-10
1.0686e-08
-7.78935e-09
-7.79984e-09
8.58339e-09
-3.58125e-09
4.01646e-09
-4.66879e-10
-4.10025e-09
5.50435e-10
2.37313e-09
1.45435e-09
1.89119e-10
-6.60522e-10
-8.65494e-09
1.52606e-09
2.68089e-09
4.68594e-09
-5.88378e-09
-1.48314e-09
-5.50008e-09
4.37262e-09
-2.00317e-09
-2.04198e-09
5.2235e-09
-1.37667e-09
2.05423e-09
3.68316e-09
-1.77724e-09
4.67212e-10
-2.08786e-09
-2.63773e-09
2.68355e-09
2.18541e-10
1.47404e-09
-4.9403e-09
6.19723e-09
-3.6413e-09
1.42754e-09
-6.72003e-09
6.43603e-09
-2.89653e-09
-4.47822e-09
6.80584e-09
-3.93675e-09
4.93329e-09
-1.14557e-09
8.68496e-10
-4.65612e-09
2.79265e-09
-1.80887e-09
3.94955e-09
8.77933e-09
-7.43382e-09
4.36421e-09
-4.03924e-09
8.07533e-09
1.13115e-08
-1.53476e-08
5.40885e-09
7.19029e-09
-1.66383e-08
-6.68199e-10
1.79139e-08
-8.92589e-09
-8.31958e-09
-5.88993e-09
-5.05848e-09
1.02803e-08
1.98942e-09
-7.00216e-09
1.30881e-08
-7.9412e-09
-6.08305e-09
1.60137e-08
-7.23239e-09
4.70006e-09
1.48918e-08
2.30169e-09
7.20401e-10
6.28377e-09
1.60593e-09
-9.3119e-09
1.15211e-08
-8.29214e-09
-1.26666e-08
-3.8777e-09
8.01571e-09
-1.19844e-08
-2.1266e-09
6.09545e-09
-5.88309e-09
-5.69336e-09
-2.59583e-09
1.41724e-08
-4.55356e-09
3.35154e-09
-1.14644e-08
-2.41977e-09
5.882e-09
9.95105e-09
-5.27345e-09
-1.07478e-08
6.07026e-09
2.64828e-09
-9.49724e-09
1.68001e-08
8.81828e-09
-1.66714e-08
-4.13584e-09
1.19891e-08
9.91453e-09
-1.62435e-08
-8.38483e-09
1.47139e-08
2.13811e-08
-1.12243e-08
-4.93036e-09
6.65749e-09
-1.66667e-08
1.69047e-10
-2.1733e-09
-1.1254e-08
2.67957e-09
1.61345e-09
1.39805e-08
-4.14991e-09
-1.14441e-08
1.47431e-08
-3.26117e-09
-9.86842e-09
-2.51591e-10
-2.43929e-09
-1.44669e-08
-2.02815e-09
5.67688e-09
-1.21474e-08
1.5893e-09
-1.09374e-08
-1.69832e-08
1.36861e-09
8.42432e-09
-1.39428e-08
-1.283e-08
-1.819e-08
-5.05466e-09
9.8319e-09
-8.99199e-09
4.2149e-09
8.92004e-09
-1.05967e-08
-1.76687e-08
1.93455e-08
-6.84533e-09
7.25919e-10
1.50396e-08
-1.91684e-08
-3.82771e-09
1.88462e-08
4.1502e-09
-1.1446e-08
9.24109e-09
-1.69634e-08
-3.45335e-09
1.14835e-08
-1.2319e-08
4.28907e-09
3.52868e-09
-1.20366e-08
4.21413e-09
-1.22752e-09
-1.08635e-08
7.81344e-09
-7.77506e-10
-1.87809e-08
-1.9551e-08
2.99863e-09
1.43466e-09
1.51178e-08
-2.44548e-09
-7.40421e-09
-9.70126e-09
1.6948e-08
-1.01524e-08
2.15597e-08
1.42346e-08
-2.02608e-08
3.922e-09
1.93375e-08
-1.61815e-08
-1.30058e-09
-1.72098e-09
1.22273e-08
-9.20569e-09
1.14604e-08
-8.83893e-09
1.35434e-08
-1.51581e-09
5.25934e-09
1.77351e-08
1.70818e-08
-1.09272e-08
9.46972e-09
-5.90829e-09
7.36581e-09
7.21076e-10
-5.59984e-09
-6.04846e-09
-3.04058e-09
1.88777e-09
1.06224e-08
2.40414e-09
-1.10256e-08
5.58067e-09
-8.12003e-10
4.16004e-09
4.42254e-09
-7.77063e-09
4.25109e-09
6.95872e-09
-1.20218e-08
1.1158e-08
-6.18595e-09
1.08119e-08
-1.22517e-08
4.33899e-09
5.64691e-10
3.1452e-09
-8.21581e-09
7.47475e-09
-6.53573e-09
1.15687e-08
2.83175e-11
1.04154e-10
6.66939e-09
1.08457e-08
-1.05564e-08
1.20084e-08
-9.16477e-10
-7.7228e-09
-4.64634e-10
-3.26972e-09
6.39261e-09
7.6066e-09
1.13215e-09
5.40986e-09
-6.33263e-09
-2.34086e-09
1.34155e-08
-4.74188e-09
-7.2629e-09
-7.19924e-09
8.1296e-09
5.78701e-10
3.06925e-09
-1.09108e-08
-1.21825e-09
-1.20295e-08
8.31004e-09
-1.68142e-08
7.28583e-09
1.37432e-08
-7.77396e-09
-5.56452e-09
-5.57586e-09
-8.89027e-10
-1.36938e-08
-1.89332e-09
-1.22709e-09
-8.51541e-10
-1.00294e-08
5.01499e-09
-6.13614e-09
-1.79893e-08
1.58173e-08
-6.70094e-09
-1.25573e-08
-1.36886e-08
-8.05486e-10
3.74871e-10
6.40997e-09
-5.9793e-09
-7.37082e-10
6.29527e-09
-6.36359e-09
3.26554e-10
-4.67734e-10
4.87136e-09
-4.73007e-09
6.69544e-09
-5.994e-09
4.35761e-09
6.7959e-09
-4.45806e-09
-2.32339e-09
6.34862e-09
3.32414e-10
5.29542e-09
-6.50018e-09
-3.75176e-09
6.52005e-09
3.52703e-09
3.34816e-10
1.75452e-08
1.00918e-10
-8.81605e-09
-8.83011e-09
1.39846e-09
5.99817e-10
1.55469e-08
9.12556e-09
-4.15331e-09
9.92553e-10
9.53156e-09
-6.00105e-11
-8.40462e-10
7.24918e-09
7.72843e-09
1.31685e-08
-1.6689e-08
1.52372e-09
1.22447e-08
7.20336e-09
-4.38034e-09
1.06449e-08
-1.57542e-08
9.48977e-09
1.0166e-08
5.48591e-09
-2.00322e-08
-2.32916e-08
6.99333e-09
4.79964e-09
1.14988e-08
6.15316e-09
-1.57576e-08
-1.36872e-08
9.70019e-09
1.13064e-08
-1.08406e-08
-2.78191e-08
1.695e-08
1.78625e-08
-1.19657e-08
-5.99242e-09
2.56332e-08
-8.33446e-09
1.42289e-08
-9.57656e-09
6.46403e-09
1.24209e-08
-1.3399e-08
1.94302e-08
-4.24284e-09
-8.72338e-09
1.96907e-08
-2.30273e-08
1.05422e-08
1.39481e-08
7.64669e-09
1.71344e-08
8.52077e-10
2.8592e-08
-5.38153e-09
-8.9817e-09
1.22401e-08
2.62238e-09
1.37294e-08
1.58651e-08
8.73159e-09
1.22839e-08
1.70906e-08
-1.20228e-08
1.21412e-08
1.0424e-08
-1.60526e-08
5.10475e-09
-1.0749e-09
-4.29176e-10
3.80689e-09
-2.27557e-08
1.31883e-08
1.21897e-08
-1.25742e-08
-1.5563e-08
6.78516e-10
2.74704e-08
-1.33288e-08
2.61485e-08
4.9643e-09
-6.70366e-09
6.67889e-09
6.72006e-09
-6.69527e-09
9.14218e-09
-4.77536e-09
5.02904e-09
-9.39581e-09
7.81816e-10
9.94656e-09
-1.5862e-09
-1.01282e-09
5.80358e-09
-1.31953e-08
8.40459e-09
-1.24918e-08
6.61009e-09
1.56989e-10
-8.81373e-11
7.64437e-09
-1.42459e-10
2.8971e-10
7.3934e-09
-3.86848e-11
6.62563e-09
2.74212e-10
-2.91286e-09
2.88532e-09
6.65326e-09
1.63307e-10
4.31727e-09
1.86368e-08
-3.58278e-09
-1.00248e-08
8.68316e-09
2.49014e-09
7.46359e-09
7.35941e-09
1.12703e-08
-3.58191e-09
5.59517e-10
-6.55653e-09
9.579e-09
3.94082e-09
7.12151e-09
-3.79833e-10
1.23567e-09
-7.97723e-09
6.75609e-09
6.63665e-09
-6.27122e-09
1.0201e-08
1.45153e-08
-1.22944e-08
-1.08997e-08
6.83338e-09
3.23575e-09
-9.85274e-09
3.47288e-10
3.60403e-09
5.90128e-09
6.57336e-10
-4.60148e-09
-5.90863e-09
-9.20485e-09
5.54094e-09
4.01117e-09
-1.05003e-08
-5.81084e-09
7.10634e-09
-1.19318e-08
4.77665e-09
1.07591e-08
-6.51703e-09
-4.75748e-09
-4.10072e-09
-1.10011e-08
1.16328e-08
5.18952e-09
-9.8252e-09
-6.99719e-09
-6.0759e-09
7.73694e-09
9.97168e-09
-2.84696e-10
-6.01679e-10
-6.6665e-09
6.02844e-09
-5.7306e-09
6.36871e-09
-7.31992e-09
2.91358e-10
3.62043e-10
-1.17946e-10
1.03348e-08
-4.18847e-09
6.27289e-09
-1.26245e-08
2.25084e-09
1.23956e-08
5.88227e-09
-6.92926e-09
-1.33021e-10
4.57099e-09
-7.41733e-09
-4.55295e-09
7.39916e-09
-2.03452e-09
9.65854e-10
5.63967e-09
-5.12335e-09
3.09775e-09
-3.85113e-09
5.87671e-09
-7.7296e-09
5.7173e-10
-1.83252e-09
5.59656e-09
-6.66345e-10
-5.16057e-09
-3.93133e-09
1.36224e-09
2.33259e-09
-1.02633e-08
6.87704e-09
1.05349e-09
-4.41842e-09
4.91842e-09
-3.79404e-09
-3.31987e-09
-3.03535e-10
-3.10274e-09
-5.85194e-09
-4.96776e-09
-9.21694e-10
2.03828e-09
-6.33576e-09
-2.56338e-09
-2.11557e-09
-6.20857e-09
8.34717e-09
-2.29689e-11
-2.37237e-09
-1.00064e-08
-1.01387e-09
-8.42799e-09
3.23325e-09
-1.04524e-08
3.00704e-09
8.73689e-09
-1.88442e-09
-1.35542e-08
6.70148e-09
4.0094e-09
-8.20409e-09
1.29315e-08
6.74059e-09
-1.60008e-08
7.3756e-09
4.79844e-09
-6.71082e-09
8.65288e-09
-7.10782e-09
2.98166e-09
6.10452e-10
3.51553e-09
-3.46947e-09
-3.87664e-09
2.38244e-10
3.75914e-09
7.24663e-09
-8.02427e-09
-2.26497e-09
1.00334e-08
-3.72261e-09
6.256e-09
7.50135e-09
-1.2059e-08
-8.99669e-09
-2.61963e-09
1.91676e-09
5.70328e-09
-1.16081e-08
-1.00961e-08
-1.54791e-09
5.40256e-10
-6.9457e-09
3.83348e-09
-9.26947e-09
4.42712e-09
-5.62394e-09
-7.92603e-09
4.28047e-09
1.17275e-10
-5.1776e-09
-6.54788e-09
1.03884e-08
-5.20511e-09
-8.65284e-09
1.89475e-09
-5.73896e-09
-6.20281e-09
6.56464e-10
-1.10392e-08
-1.07065e-08
4.02404e-09
3.03186e-09
-1.04979e-08
3.44208e-09
4.58406e-09
-1.38948e-09
8.29402e-10
2.94969e-09
-2.62497e-09
-7.42733e-10
-5.05543e-09
-3.56989e-09
7.57485e-10
8.3337e-09
-5.52146e-09
8.90085e-10
-2.09929e-09
-2.36091e-09
-9.22906e-09
2.34257e-09
2.42068e-09
4.46582e-09
-1.42848e-08
8.08771e-09
-3.92111e-09
6.92279e-09
1.3711e-09
-1.498e-08
2.31649e-09
3.81084e-09
8.85253e-09
1.72376e-08
-1.69081e-08
-1.53096e-08
-8.90831e-09
-1.36735e-08
6.56083e-09
1.60211e-08
5.57592e-09
8.88729e-09
-2.33714e-08
-1.14279e-08
-7.23259e-09
4.98708e-09
-9.7502e-10
1.19903e-08
6.48635e-09
-1.75015e-08
2.59118e-09
-1.49941e-08
-2.14246e-08
7.93719e-09
1.58039e-08
-1.63033e-09