/*--------------------------------*- C++ -*----------------------------------*\
| =========                 |                                                 |
| \\      /  F ield         | OpenFOAM: The Open Source CFD Toolbox           |
|  \\    /   O peration     | Version:  v1612+                                |
|   \\  /    A nd           | Web:      www.OpenFOAM.com                      |
|    \\/     M anipulation  |                                                 |
\*---------------------------------------------------------------------------*/
FoamFile
{
    version     2.0;
    format      ascii;
    class       volVectorField;
    location    "166";
    object      wallShearStress;
}
// * * * * * * * * * * * * * * * * * * * * * * * * * * * * * * * * * * * * * //

dimensions      [0 2 -2 0 0 0 0];

internalField   uniform (0 0 0);

boundaryField
{
    WALL
    {
        type            calculated;
        value           nonuniform List<vector> 
1494
(
(0.014551 0.00427997 0.00685964)
(0.0145027 0.0042353 0.00712852)
(0.0108406 -0.000146289 0.00462443)
(0.01121 -0.000438445 0.00504456)
(0.0119788 0.00138369 0.0089271)
(0.0127847 0.000988155 0.00925973)
(0.0161319 0.00102162 0.00817902)
(0.0168198 0.00157621 0.00925947)
(0.0165459 0.00325986 0.00927575)
(0.0171868 0.00129774 0.00965713)
(0.0168064 0.00130309 0.00968374)
(0.0159364 0.00319246 0.00845021)
(0.0158429 0.00309799 0.00822074)
(0.0135439 0.00503374 0.007197)
(0.0142547 0.00536603 0.00798924)
(0.0132505 0.00221141 0.00859809)
(0.0131373 0.00212717 0.00880715)
(0.0115897 0.000416302 0.00823646)
(0.0120459 0.00131175 0.00826512)
(0.0152353 0.00441681 0.0103163)
(0.0154977 0.00465931 0.0102936)
(0.0166893 0.00541296 0.0108487)
(0.0164864 0.00534063 0.0113246)
(0.00932419 0.00106838 0.00492306)
(0.00903922 0.0010663 0.00468619)
(0.00859454 0.00136809 0.00442579)
(0.00869512 0.00121282 0.00446842)
(0.00961748 0.00140023 0.0057215)
(0.00963303 0.000984374 0.005929)
(0.0136102 0.00391227 0.00757933)
(0.0142808 0.00408059 0.00857836)
(0.0164021 0.00465924 0.0104591)
(0.0167557 0.00443544 0.0100306)
(0.0155348 0.00374104 0.0104516)
(0.0145365 0.00330941 0.0102677)
(0.0138961 0.00234945 0.0102178)
(0.0130466 0.00188316 0.00919291)
(0.0151496 0.0035366 0.0100101)
(0.014865 0.00336532 0.00943168)
(0.017526 0.00266199 0.0101498)
(0.01673 0.00230736 0.00981948)
(0.0139405 0.00458315 0.0081016)
(0.0147716 0.00419674 0.0092401)
(0.0152475 0.00382362 0.0108492)
(0.0145234 0.0033666 0.0108239)
(0.0118503 -0.000157922 0.00831775)
(0.0115587 0.000281104 0.0074934)
(0.0124266 -0.000403709 0.00839332)
(0.0115549 7.26228e-05 0.0081943)
(0.00948933 0.000937643 0.00453485)
(0.00962667 0.000980004 0.00443733)
(0.00963122 0.000886756 0.00432763)
(0.00943017 0.00106011 0.00427509)
(0.00952178 0.00102557 0.00410979)
(0.00978536 0.00109149 0.0043834)
(0.0138081 0.00397736 0.00654417)
(0.0140778 0.00416913 0.00700766)
(0.0139847 0.00364473 0.00828608)
(0.0145496 0.00365419 0.00817761)
(0.0145839 0.00414815 0.00810759)
(0.0146021 0.00396056 0.00802668)
(0.0163288 0.000803675 0.00809369)
(0.0161519 0.00146102 0.00800971)
(0.016983 0.00159679 0.00872915)
(0.0163649 0.00141724 0.00810001)
(0.0162995 0.00141689 0.00783265)
(0.0168219 0.00176787 0.00828333)
(0.0152993 0.00217187 0.00588907)
(0.0146231 0.00233102 0.00601585)
(0.0154313 0.000557155 0.0084109)
(0.0150351 0.000804573 0.00848447)
(0.0144649 8.55927e-05 0.00787975)
(0.0159317 -0.00016266 0.00827421)
(0.0155294 0.00037003 0.00929607)
(0.0164054 0.00127726 0.0093384)
(0.0159812 0.00111269 0.00648998)
(0.0161976 0.00128428 0.00683528)
(0.0167061 0.00172994 0.00707934)
(0.0162532 0.00130965 0.00658917)
(0.0159261 0.00220236 0.00702658)
(0.0160909 0.00153738 0.00719989)
(0.0152222 0.00118291 0.00835955)
(0.0164821 0.000667184 0.00909532)
(0.0171153 0.000582981 0.00839534)
(0.0154779 6.80697e-05 0.00809867)
(0.0148473 0.000201803 0.00703268)
(0.00921489 0.0017564 0.00381057)
(0.00964496 0.00204396 0.00381099)
(0.0107975 0.00228831 0.00441404)
(0.00947261 0.00180778 0.00422387)
(0.0100193 0.00180703 0.00436894)
(0.0101352 0.00199694 0.00432278)
(0.0105675 0.00250082 0.00459375)
(0.0130403 0.00104272 0.00928251)
(0.0121059 0.00139449 0.00802198)
(0.0126521 0.000783486 0.00855997)
(0.0127014 0.00155948 0.00838675)
(0.0118334 0.00102246 0.00833016)
(0.0124037 7.52081e-05 0.00720601)
(0.011371 -1.10667e-05 0.00699242)
(0.0124444 -0.000559477 0.0083652)
(0.0126865 7.67411e-05 0.0080598)
(0.0112559 -0.000200329 0.00723608)
(0.0125336 0.000630577 0.00787842)
(0.0193171 0.00507547 0.0122924)
(0.0166379 0.00355712 0.010417)
(0.0187199 0.00428674 0.0118314)
(0.0184775 0.00452141 0.0120687)
(0.0193107 0.00492564 0.0123674)
(0.0188308 0.00488689 0.0126705)
(0.0167085 0.00438743 0.00944189)
(0.0179125 0.00455447 0.0100529)
(0.0176437 0.00443189 0.00991741)
(0.0170086 0.00437104 0.00927701)
(0.016924 0.00407621 0.00921234)
(0.0178234 0.00474451 0.0104579)
(0.0160681 0.0036443 0.0105166)
(0.0167235 0.00264116 0.0112575)
(0.0167769 0.00408309 0.0112902)
(0.0159607 0.00351941 0.0106639)
(0.0160539 0.00219525 0.0104522)
(0.0179912 0.00366986 0.0116924)
(0.0160892 0.00502395 0.0106721)
(0.0158994 0.00527525 0.0108926)
(0.0154721 0.00569749 0.0099282)
(0.014416 0.00481455 0.00963925)
(0.0153615 0.00640439 0.00975123)
(0.0149596 0.00512131 0.00989563)
(0.013582 0.00426897 0.00623405)
(0.0127342 0.00402451 0.00538458)
(0.0134502 0.00431102 0.00641517)
(0.0123389 0.00376328 0.00542388)
(0.013244 0.0041713 0.0058841)
(0.0130493 0.00415867 0.00636561)
(0.0152947 0.00515678 0.00967925)
(0.0152177 0.00527185 0.0100651)
(0.0142835 0.00436867 0.00975437)
(0.0145985 0.00420787 0.00938072)
(0.0155586 0.0042208 0.010264)
(0.0145933 0.00388252 0.00971498)
(0.0141431 0.00488357 0.00782362)
(0.0150457 0.00558571 0.00870591)
(0.0136068 0.00478515 0.00805438)
(0.0144196 0.00459592 0.00877739)
(0.0137154 0.00459555 0.00772264)
(0.0139078 0.00459047 0.00865063)
(0.0131865 0.00441314 0.00725992)
(0.0142953 0.00466349 0.00899684)
(0.0137436 0.00481 0.00719619)
(0.0143498 0.0049144 0.00799442)
(0.0141717 0.00490156 0.00770161)
(0.0140049 0.00485543 0.00759591)
(0.0143358 0.00471354 0.00803244)
(0.01384 0.00408418 0.0082027)
(0.0151077 0.00374023 0.00949549)
(0.0149325 0.00493007 0.00930483)
(0.0143804 0.00416342 0.00935894)
(0.0138371 0.00338754 0.00893597)
(0.0175329 0.00252385 0.00977433)
(0.0174489 0.00232481 0.00993782)
(0.0183895 0.00316396 0.0105095)
(0.0172811 0.00213827 0.0102864)
(0.0183151 0.00284689 0.0107761)
(0.0190855 0.00327714 0.010341)
(0.0186254 0.00366782 0.0102012)
(0.0181566 0.00329513 0.0100897)
(0.0178158 0.00323677 0.00949617)
(0.0178391 0.00301706 0.00952304)
(0.017795 0.00283887 0.00998644)
(0.015731 0.00434597 0.0104517)
(0.0161294 0.00460626 0.010995)
(0.0158419 0.0038342 0.0107139)
(0.0160261 0.00398168 0.010768)
(0.0166557 0.0042366 0.0110547)
(0.016185 0.00427302 0.0112398)
(0.0152334 0.00346459 0.0101088)
(0.015381 0.00478061 0.00997141)
(0.0164906 0.00334968 0.0112491)
(0.0155912 0.00489385 0.01032)
(0.0148142 0.00353081 0.00977826)
(0.0167642 0.00330382 0.0110848)
(0.0110562 -0.000301107 0.00547176)
(0.010361 -9.86056e-06 0.00492689)
(0.0106084 -0.000138586 0.00523952)
(0.0105071 -0.000138868 0.00552266)
(0.0107897 -0.000611949 0.00536296)
(0.0104882 -0.000493143 0.00474947)
(0.0110109 -0.000152294 0.00432191)
(0.0110409 -0.000180339 0.00492568)
(0.0108303 -0.00016433 0.00447562)
(0.0109576 -0.000370133 0.00468191)
(0.0107222 -0.000257397 0.00464919)
(0.0110075 -0.000146665 0.00463465)
(0.0108101 -6.89734e-05 0.00427914)
(0.0109376 -0.00029172 0.00489393)
(0.0123972 -0.000858037 0.00668387)
(0.0122508 -0.000663497 0.00623479)
(0.0122356 -0.000973726 0.0069652)
(0.011798 -0.00123085 0.00658029)
(0.0116627 -0.000690733 0.00669846)
(0.012363 -0.00066732 0.00668361)
(0.0144402 0.00335824 0.00500123)
(0.0144083 0.00301912 0.00461341)
(0.0142476 0.00298531 0.00389215)
(0.0141934 0.00339278 0.00470137)
(0.0146796 0.00312279 0.00473358)
(0.0136143 0.00248341 0.00399931)
(0.0127498 0.0015432 0.00374167)
(0.0128703 0.00213829 0.003931)
(0.0130634 0.00172058 0.00368643)
(0.0132377 0.0021339 0.00354361)
(0.0126954 0.00186727 0.00378474)
(0.0142572 0.00359127 0.00543417)
(0.0141096 0.00370983 0.00639799)
(0.0137383 0.00334181 0.00541191)
(0.0137362 0.00368606 0.00647366)
(0.0138243 0.00341382 0.00601439)
(0.0140244 0.00366519 0.00586752)
(0.0102945 0.000309712 0.00424203)
(0.0105928 0.000137168 0.00451116)
(0.0101368 3.89386e-05 0.00441348)
(0.0103524 -0.000156923 0.00432515)
(0.0104099 0.000172208 0.00432788)
(0.0103617 0.000293619 0.00417411)
(0.0104283 0.000378814 0.00406396)
(0.01054 0.000260521 0.00370807)
(0.0104061 0.000328365 0.00371176)
(0.011024 0.000166972 0.00412766)
(0.0105529 -6.30715e-05 0.00394081)
(0.0102753 0.000250321 0.00415831)
(0.0105879 0.000599348 0.00406638)
(0.0109455 0.000613274 0.00379645)
(0.0110452 0.000703873 0.003561)
(0.0111271 0.000936786 0.00381769)
(0.0105354 0.000942345 0.00407587)
(0.0107943 0.000583122 0.00421066)
(0.019764 0.00520143 0.0116662)
(0.0198731 0.00533945 0.0114674)
(0.0193363 0.00519898 0.011132)
(0.0192529 0.00502298 0.0102181)
(0.0188533 0.00550877 0.0111501)
(0.0186218 0.00515462 0.0107813)
(0.0198548 0.00545439 0.0113058)
(0.0188987 0.00556062 0.0110503)
(0.0180208 0.00518454 0.0105501)
(0.0180589 0.00318632 0.0104375)
(0.0185553 0.00323048 0.0102724)
(0.0172874 0.00312274 0.0101054)
(0.0178193 0.00308733 0.0103256)
(0.0179897 0.00365688 0.0106597)
(0.0174667 0.00288786 0.00962421)
(0.0167323 0.00311145 0.0110534)
(0.0171339 0.00426723 0.0114329)
(0.0168637 0.00438038 0.0110047)
(0.0183082 0.00370166 0.0114816)
(0.0176172 0.00475588 0.0119136)
(0.01767 0.00449078 0.0116944)
(0.0172131 0.00411306 0.0113564)
(0.0171437 0.00386232 0.0113846)
(0.0159868 0.00468057 0.0105992)
(0.016439 0.00565352 0.0112949)
(0.0197879 0.00423912 0.01132)
(0.0194975 0.00471424 0.0118406)
(0.0195983 0.00515127 0.0119773)
(0.0191574 0.00624289 0.0115032)
(0.0191678 0.00594696 0.0114965)
(0.019057 0.00621993 0.0114627)
(0.0187325 0.00593246 0.0115484)
(0.019221 0.00597958 0.01146)
(0.019399 0.00622282 0.0117713)
(0.0135674 0.00211736 0.00997758)
(0.0125531 0.00200696 0.00923447)
(0.0127729 0.00155011 0.00964747)
(0.0133129 0.00190818 0.0101479)
(0.0137258 0.00230444 0.0101739)
(0.0127435 0.00191063 0.00897828)
(0.0131231 0.00147273 0.00945365)
(0.0130043 0.00241085 0.00916688)
(0.0141811 0.00289294 0.00934346)
(0.0137789 0.00254966 0.00901002)
(0.0131596 0.00236702 0.00866708)
(0.0140925 0.00276907 0.00919684)
(0.0139904 0.00298117 0.00891629)
(0.0137308 0.00270097 0.00881904)
(0.0138928 0.002816 0.00951574)
(0.0134686 0.00238466 0.00988871)
(0.0135082 0.0021024 0.00981492)
(0.0138336 0.00235959 0.00987596)
(0.0144567 0.00318623 0.00980165)
(0.0138917 0.00258772 0.0096597)
(0.01741 0.00490383 0.0104039)
(0.0161782 0.00446723 0.0105367)
(0.0172254 0.0049085 0.0109074)
(0.0169672 0.00493363 0.0108746)
(0.0170085 0.00480688 0.0105416)
(0.0164385 0.00478544 0.0105756)
(0.0147865 0.0035081 0.0104996)
(0.0157256 0.00444601 0.0105469)
(0.014772 0.00393156 0.0103109)
(0.0154902 0.00405987 0.010235)
(0.0155162 0.00429979 0.0102083)
(0.0162283 0.0050946 0.0109916)
(0.0177785 0.00575433 0.0111004)
(0.0172601 0.00558317 0.0106734)
(0.0164257 0.00523031 0.0106747)
(0.0174165 0.00535304 0.0112131)
(0.014136 0.00280064 0.00883097)
(0.0143857 0.00332811 0.00912216)
(0.0160052 0.00276705 0.00999721)
(0.0148244 0.00338955 0.00949397)
(0.0155729 0.00201842 0.0099608)
(0.0155779 0.00214994 0.00980939)
(0.0146817 0.0039477 0.00893999)
(0.0141763 0.00375949 0.00872418)
(0.0150469 0.00426346 0.00940664)
(0.0144643 0.00320129 0.00901317)
(0.0145498 0.00359707 0.00938339)
(0.0150458 0.00366024 0.00929564)
(0.0112053 0.00155289 0.00725057)
(0.0109794 0.00139293 0.00742772)
(0.0097191 0.000700472 0.00586879)
(0.01022 0.000950706 0.00632516)
(0.00975432 0.00175857 0.00607483)
(0.00919081 0.00103339 0.00449236)
(0.00955518 0.00108036 0.00476325)
(0.00932487 0.00105133 0.00438901)
(0.00945948 0.000942789 0.00478259)
(0.00942946 0.00110866 0.00451126)
(0.00962122 0.000815564 0.00543186)
(0.00967601 0.000861262 0.00555587)
(0.0100549 0.00100545 0.00588004)
(0.0103731 0.000990236 0.00626669)
(0.0103689 0.000720362 0.0060494)
(0.0101057 0.000550119 0.00587392)
(0.0151783 0.00426207 0.0103645)
(0.0155554 0.00443928 0.010721)
(0.0159141 0.00462566 0.0109331)
(0.014831 0.0039028 0.0105642)
(0.011401 -7.985e-05 0.00624265)
(0.0111766 -0.000158886 0.0060411)
(0.0107306 -0.000646407 0.00572082)
(0.0109838 -0.000528836 0.00615898)
(0.0111787 -5.60191e-06 0.00586437)
(0.0111412 -0.000323966 0.00621994)
(0.0126438 0.000983478 0.00909468)
(0.0128735 0.000640514 0.00932244)
(0.0123117 0.000764079 0.00837753)
(0.0119945 0.000873119 0.00838181)
(0.0124922 0.00122038 0.00858006)
(0.012995 0.00123542 0.00948218)
(0.0112219 -9.7248e-05 0.00749644)
(0.0124767 0.00055026 0.00847405)
(0.0121171 0.00053209 0.00788887)
(0.0121029 0.00104089 0.0080992)
(0.011945 7.44635e-06 0.00797294)
(0.0124243 0.000653972 0.0088052)
(0.0128519 0.00169228 0.00835332)
(0.0128604 0.00157887 0.00852689)
(0.013067 0.00215021 0.00813504)
(0.0126149 0.00190798 0.0083769)
(0.0123418 0.00118713 0.00839109)
(0.0130136 0.00192159 0.0086867)
(0.0119453 0.00103459 0.00818131)
(0.0123024 0.000821178 0.00809421)
(0.0125705 -0.000205567 0.00858033)
(0.0124433 -0.000330825 0.00823575)
(0.0123198 0.000836246 0.008155)
(0.0118253 0.000186652 0.00832014)
(0.0119506 -0.000962279 0.0070142)
(0.0117633 -0.000499121 0.00745158)
(0.0124002 -0.000686187 0.00726982)
(0.0118604 8.28849e-05 0.00755075)
(0.0125889 -0.000411447 0.00776136)
(0.0122238 -0.000194738 0.00746776)
(0.0126048 -0.000776225 0.00822833)
(0.0123501 0.000232817 0.00812865)
(0.0121806 0.000155846 0.0080156)
(0.0126238 -0.000338607 0.00827796)
(0.0094534 0.00132786 0.00428697)
(0.0095188 0.00149128 0.00390163)
(0.00935145 0.00156188 0.00422101)
(0.00936101 0.00128129 0.00418274)
(0.00966596 0.00164081 0.00424221)
(0.0095431 0.00131741 0.00409507)
(0.0122263 0.00326634 0.00521664)
(0.0117173 0.00316247 0.00496427)
(0.0123892 0.00358623 0.00524637)
(0.012161 0.00349425 0.00526092)
(0.0127012 0.0038565 0.00527991)
(0.0116731 0.00307221 0.00471314)
(0.0114618 0.000390828 0.00667197)
(0.0108888 -0.000394442 0.00608748)
(0.011529 -0.000212445 0.00701066)
(0.0112574 -0.00050011 0.00686656)
(0.0113311 0.000686434 0.00703648)
(0.0103361 0.000368513 0.00616269)
(0.00950915 0.000845312 0.00472935)
(0.0097378 0.000455035 0.00466342)
(0.0101238 0.000346964 0.00505079)
(0.00985478 0.000723691 0.00499789)
(0.00986152 0.000645037 0.00513262)
(0.010299 0.000461656 0.00504607)
(0.0105479 0.000822705 0.0058474)
(0.0100023 0.000831317 0.00535841)
(0.0103636 0.000391023 0.0057436)
(0.00995505 0.000898571 0.00546363)
(0.00977002 0.000713317 0.00528945)
(0.0101315 0.000826479 0.00580338)
(0.0116096 0.00144224 0.0041053)
(0.0108925 0.0011703 0.00386327)
(0.0112596 0.00172825 0.00419424)
(0.0110081 0.00132604 0.00385994)
(0.0116955 0.00175389 0.0038882)
(0.0119235 0.00194202 0.00410574)
(0.0115272 0.00235903 0.00454858)
(0.0119011 0.00238224 0.00459749)
(0.0117264 0.00272887 0.00445234)
(0.011728 0.00275651 0.00451061)
(0.0110992 0.00210544 0.00399596)
(0.0126318 0.00322278 0.00495881)
(0.0126266 0.00315731 0.00490756)
(0.0125013 0.00302197 0.00458909)
(0.0132791 0.00366652 0.00548142)
(0.0128939 0.00354671 0.00515113)
(0.0132827 0.00349788 0.00525584)
(0.0133282 0.00386038 0.00638107)
(0.0132572 0.00392553 0.00602691)
(0.0143368 0.00428053 0.00730299)
(0.0140583 0.00456446 0.0065604)
(0.0134056 0.00423646 0.00621504)
(0.014865 0.00399436 0.00554461)
(0.0146964 0.00384653 0.00611726)
(0.0148801 0.0039297 0.00535508)
(0.014768 0.00399389 0.0057913)
(0.0149789 0.00392709 0.00662754)
(0.0147656 0.0038423 0.00673583)
(0.0149593 0.00312377 0.00842685)
(0.0147873 0.00403261 0.00723949)
(0.0147315 0.0038814 0.00724112)
(0.0140655 0.0035241 0.00733808)
(0.0146586 0.00340147 0.00853281)
(0.0151303 0.00428832 0.00711434)
(0.0147322 0.00578263 0.00969887)
(0.0138425 0.0048985 0.00889083)
(0.013703 0.00483663 0.00858176)
(0.0126183 0.00446828 0.00607037)
(0.0131471 0.00462283 0.00680944)
(0.012594 0.00468092 0.00636265)
(0.012785 0.00443072 0.00618332)
(0.0132901 0.00489612 0.00738777)
(0.0133841 0.00501353 0.00743718)
(0.0156589 0.00131875 0.00973008)
(0.0153207 0.00212708 0.00960915)
(0.0152646 0.000627393 0.00884567)
(0.0156676 0.00183917 0.00953623)
(0.0157804 0.00142033 0.0100567)
(0.0167361 0.00140968 0.0100564)
(0.0167135 0.00293778 0.00817399)
(0.016216 0.00307065 0.00797102)
(0.0168636 0.00253714 0.00811518)
(0.01753 0.00299508 0.00868918)
(0.0172469 0.00330578 0.00862929)
(0.0169113 0.00287506 0.00819794)
(0.0154078 0.00172879 0.00927833)
(0.0162537 0.00192876 0.0097591)
(0.0160631 0.00124626 0.00972255)
(0.015765 0.000866555 0.00914563)
(0.0164668 0.00165223 0.0101604)
(0.0168798 0.00171418 0.00968687)
(0.0176366 0.00234377 0.0103728)
(0.0166391 0.00268716 0.00990618)
(0.0167166 0.00140659 0.00967437)
(0.0170411 0.0028959 0.0106101)
(0.0184819 0.00224258 0.0101832)
(0.0182956 0.00283863 0.00913489)
(0.0173393 0.00253572 0.00861777)
(0.0179143 0.00319721 0.00953812)
(0.0173713 0.00294464 0.00889853)
(0.0176955 0.00277287 0.00870821)
(0.0185785 0.00358079 0.00949259)
(0.0157414 0.00281184 0.00765226)
(0.0152553 0.00299126 0.00773013)
(0.0156813 0.00286208 0.0078513)
(0.0152547 0.00282474 0.00734586)
(0.0153975 0.00301862 0.00740763)
(0.015882 0.00378867 0.0100136)
(0.0156107 0.00373663 0.00982447)
(0.0148758 0.00370633 0.00974492)
(0.0145069 0.00317848 0.00977384)
(0.0162487 0.00409453 0.0103453)
(0.0155399 0.00349412 0.00900535)
(0.0145016 0.0031732 0.00867004)
(0.0146895 0.00312484 0.0084594)
(0.0152593 0.00343127 0.0089267)
(0.0147904 0.00324863 0.00891032)
(0.0150373 0.00334663 0.00918751)
(0.0169139 0.000999248 0.00649627)
(0.0157193 0.000899325 0.00524579)
(0.0156471 0.00017851 0.00520517)
(0.0159364 0.000472175 0.00592204)
(0.0166421 0.000933764 0.00594637)
(0.0140307 0.00278672 0.00777728)
(0.013431 0.00263946 0.00785553)
(0.0130266 0.0023014 0.0078183)
(0.0142415 0.00295367 0.00803208)
(0.013522 0.00237373 0.00823721)
(0.0141475 0.00271771 0.00799131)
(0.0129802 0.00193284 0.00771027)
(0.0120888 0.00168065 0.00729214)
(0.014417 0.000707271 0.00889899)
(0.0141976 0.0015314 0.00857764)
(0.0145416 0.00156217 0.00874215)
(0.0151301 0.0015959 0.00932671)
(0.0147637 0.00213433 0.00928953)
(0.0160217 -3.35592e-06 0.00594363)
(0.0160972 -0.000273102 0.00679741)
(0.0155014 -0.000345792 0.00619058)
(0.0156047 -1.19733e-05 0.00599642)
(0.0160845 -3.29646e-05 0.00645762)
(0.0157085 3.75976e-05 0.00676196)
(0.0143417 0.00276303 0.00847987)
(0.0140955 0.00262345 0.00836915)
(0.0142243 0.00289536 0.00785852)
(0.0162373 0.00344881 0.00877809)
(0.0141307 0.0027942 0.00783711)
(0.0134416 0.00211769 0.00987932)
(0.0135999 0.00308713 0.00938344)
(0.0138784 0.00315944 0.0102798)
(0.0124708 0.00289187 0.00911134)
(0.0133008 0.00216946 0.0101163)
(0.0139255 0.00372025 0.0097504)
(0.0138126 0.00240242 0.0103796)
(0.0126225 0.00170638 0.0093705)
(0.012822 0.00227208 0.00910044)
(0.012166 0.00191276 0.00894876)
(0.0137546 0.00237579 0.00988787)
(0.012662 0.00275297 0.00904102)
(0.0142102 0.00249416 0.0106393)
(0.0140396 0.00198241 0.0102828)
(0.0141928 0.00305124 0.0102733)
(0.0139504 0.00286099 0.00964532)
(0.0140625 0.00330832 0.0099328)
(0.0132145 0.00245981 0.00995952)
(0.0137272 0.00307417 0.00988504)
(0.0114636 0.00188135 0.0081405)
(0.0117326 0.00271126 0.0080152)
(0.0112782 0.00163513 0.00818782)
(0.011767 0.00267829 0.00824486)
(0.0130444 0.00235124 0.00912742)
(0.0116227 0.00154976 0.00803276)
(0.0112704 0.00163182 0.00764562)
(0.0124111 0.00266656 0.00848407)
(0.0128134 0.00254461 0.00927057)
(0.012162 0.00136236 0.00868248)
(0.0117256 0.00174179 0.00825788)
(0.0119018 0.00138451 0.00820349)
(0.0105719 0.0016543 0.00707966)
(0.0106586 0.0016428 0.00696665)
(0.0104231 0.00223962 0.00682517)
(0.0106116 0.00146688 0.00655781)
(0.00977469 0.00130055 0.00646116)
(0.0106396 0.00221799 0.00728526)
(0.0166954 0.00174467 0.0102575)
(0.0147699 0.00193552 0.00865812)
(0.0162023 0.000375238 0.00853213)
(0.0165236 -0.000263728 0.00883045)
(0.0158439 0.000887574 0.00907032)
(0.0166208 0.000217158 0.00916088)
(0.0154283 -0.000994607 0.00741589)
(0.0135206 0.00238739 0.00731136)
(0.0132233 0.00233034 0.00683547)
(0.0137192 0.00247531 0.00705222)
(0.0141009 0.0024637 0.00698986)
(0.014027 0.00247297 0.00671549)
(0.0142551 0.00256439 0.00707097)
(0.0163271 0.000960224 0.00717784)
(0.0166124 0.00177111 0.00741189)
(0.0168029 0.00137207 0.00735477)
(0.0166541 0.00133159 0.00765427)
(0.0158691 0.00155093 0.00701833)
(0.016339 0.00135617 0.00722685)
(0.0160045 6.01579e-05 0.00777777)
(0.015761 0.00118811 0.00820454)
(0.0170416 0.00100978 0.00807189)
(0.0159396 0.000449478 0.00770032)
(0.0161791 0.000991995 0.00854057)
(0.0162145 0.00110664 0.00831002)
(0.00855796 0.00120843 0.00467578)
(0.00863362 0.00131333 0.00430771)
(0.00870126 0.00137102 0.00467746)
(0.00853966 0.0014001 0.00479539)
(0.0123132 0.00118408 0.00397273)
(0.0116716 0.00101477 0.00397221)
(0.0111043 0.000489046 0.00349175)
(0.0119956 0.00111119 0.00373979)
(0.015949 0.000847269 0.00740068)
(0.0172835 0.00125815 0.00818447)
(0.0155947 0.000909366 0.00810612)
(0.0161455 0.00137165 0.00902514)
(0.0159535 0.000265621 0.00839206)
(0.016199 0.00129472 0.00964072)
(0.00838211 0.00150399 0.00491775)
(0.00916596 0.00125295 0.00544913)
(0.0101105 0.0016196 0.00662005)
(0.0110603 0.00202406 0.00722334)
(0.01085 0.00204853 0.00718635)
(0.0117955 0.00200074 0.00836264)
(0.0127799 0.00227789 0.00873274)
(0.0129912 0.00268914 0.00910846)
(0.0122536 0.000843115 0.00874596)
(0.012579 0.00152786 0.00906029)
(0.0138566 0.00350104 0.00991373)
(0.0141531 0.00334032 0.00976856)
(0.0138649 0.00322969 0.00998134)
(0.0127414 0.002452 0.0094998)
(0.012543 0.00190142 0.00929977)
(0.0124056 0.00304338 0.00872489)
(0.0143533 0.00140286 0.00847092)
(0.0144277 0.00166934 0.0091768)
(0.0146162 0.00227227 0.00901081)
(0.0142686 0.00156815 0.00865407)
(0.0145701 0.00101814 0.0089429)
(0.0153873 0.00189799 0.00925054)
(0.0142834 0.00233888 0.00856352)
(0.015244 0.00284519 0.00928707)
(0.0141856 0.00113737 0.00844889)
(0.016981 0.00187901 0.00948862)
(0.0144387 0.00234713 0.00894679)
(0.0155368 0.00135543 0.00971102)
(0.0160476 0.00155268 0.00954612)
(0.0152824 0.00170456 0.00912458)
(0.0147145 0.00129271 0.00906732)
(0.0150109 0.00384053 0.00854425)
(0.0143788 0.0038559 0.00755604)
(0.014912 0.0036459 0.00837423)
(0.0144139 0.00372198 0.00806604)
(0.0139663 0.00367513 0.00601686)
(0.0152429 0.00373643 0.00682442)
(0.0152052 0.00338056 0.00769754)
(0.015571 0.00295432 0.00845198)
(0.0143702 0.00377913 0.00720301)
(0.0142806 0.00387016 0.00688079)
(0.0149309 0.00441971 0.00692002)
(0.0153961 0.000407115 0.00745487)
(0.0148772 0.000650968 0.0087221)
(0.017208 0.00117736 0.00980914)
(0.0161021 0.00049602 0.00964128)
(0.0153904 7.5062e-05 0.00884994)
(0.014679 0.00119923 0.00847196)
(0.0145335 0.00293484 0.00881009)
(0.0152491 0.00211209 0.00944275)
(0.0173945 0.0021982 0.0103744)
(0.0168255 0.000939051 0.00957375)
(0.016353 0.00185044 0.00988388)
(0.0160211 0.00153139 0.0102452)
(0.0161645 -0.000109171 0.00791996)
(0.016033 -0.00020332 0.00701838)
(0.0158772 -0.000902987 0.00741894)
(0.014597 0.00245598 0.00608946)
(0.0148096 0.0025622 0.00665465)
(0.0143397 0.00256457 0.00701889)
(0.0134142 0.00238814 0.0075892)
(0.0129274 0.00213222 0.0072802)
(0.0156532 0.00301298 0.00727733)
(0.0144337 0.00258647 0.00704845)
(0.0150345 0.00254761 0.00719162)
(0.013652 0.00241855 0.00765383)
(0.0137021 0.00247584 0.00755889)
(0.0139346 0.00253326 0.00732985)
(0.0146815 0.00285004 0.00743594)
(0.0145559 0.00277124 0.00779179)
(0.0150551 0.00306525 0.00798478)
(0.0136257 0.00238373 0.00807538)
(0.013123 0.00227173 0.00789106)
(0.0136616 0.00243924 0.00783557)
(0.0132459 0.00227424 0.00824102)
(0.0153967 0.00132735 0.00570037)
(0.0159373 0.00176126 0.00619942)
(0.0160863 0.00179272 0.00610526)
(0.0164704 0.000363254 0.0060085)
(0.0161035 0.00038472 0.00713236)
(0.0154892 0.000314859 0.00726012)
(0.0169658 0.000466459 0.00769611)
(0.0157178 0.000640564 0.00753365)
(0.0154866 3.9404e-05 0.00739064)
(0.0145204 -0.00059608 0.00667561)
(0.0159403 -0.000484765 0.00786535)
(0.0155101 -0.000767225 0.00628437)
(0.0167182 -0.00054197 0.00730894)
(0.0170121 0.000644491 0.00713356)
(0.0160394 0.000620167 0.00625716)
(0.0160382 0.000394712 0.00681688)
(0.0164153 0.000343364 0.00682265)
(0.0157984 0.000232083 0.00597962)
(0.0166274 0.000692927 0.00669947)
(0.0163705 0.00168564 0.00648205)
(0.0164107 0.00133227 0.00643798)
(0.0161312 0.00145824 0.00619675)
(0.0164061 0.00100871 0.00660972)
(0.0157597 0.00128713 0.00635199)
(0.0161296 0.000833332 0.00628271)
(0.0155223 0.00342612 0.00896041)
(0.01461 0.00300307 0.0073446)
(0.015326 0.00293878 0.0073944)
(0.0147572 0.0027599 0.00727299)
(0.016017 0.0031828 0.00795796)
(0.0152363 0.00252045 0.00688853)
(0.0149933 0.00217797 0.00613355)
(0.0152394 0.00185756 0.00589891)
(0.0146039 0.00232399 0.00619726)
(0.0175571 0.00248064 0.00864494)
(0.0166906 0.0022113 0.00823336)
(0.0169303 0.00195254 0.00906494)
(0.0171656 0.00209094 0.00850543)
(0.0174726 0.00218267 0.00889655)
(0.0163165 0.00195486 0.0085372)
(0.017145 0.00219295 0.00918508)
(0.0169354 0.00184091 0.0090079)
(0.0165455 0.00156862 0.00915643)
(0.0175323 0.00196319 0.0095784)
(0.0158802 0.00159733 0.00911898)
(0.0166586 0.00178893 0.00954613)
(0.0162685 0.000584852 0.00871082)
(0.0165838 0.00158115 0.00906036)
(0.0161739 0.00182406 0.00902161)
(0.0151774 0.00243623 0.00669184)
(0.0160512 0.00216923 0.00726131)
(0.0162204 0.00199664 0.00761259)
(0.0168323 0.00228541 0.00783482)
(0.0164188 0.00248593 0.00766344)
(0.0160964 0.00281649 0.00772716)
(0.0165711 0.00258055 0.0078143)
(0.0160861 0.00236765 0.00708896)
(0.0162869 0.00263749 0.00738704)
(0.0168091 0.0022381 0.00758084)
(0.0159874 0.00200496 0.00698731)
(0.0176858 0.00348197 0.0089742)
(0.0169224 0.00253613 0.00838433)
(0.0177326 0.00332676 0.00921241)
(0.0160924 0.00342761 0.00892587)
(0.0165908 0.00322612 0.00790919)
(0.0156451 0.00326336 0.00831281)
(0.016773 0.00229408 0.0077603)
(0.0166774 0.00215264 0.00800941)
(0.0173056 0.00249425 0.00840629)
(0.0152704 0.00251146 0.00720669)
(0.0167642 0.00257352 0.00792213)
(0.0148108 0.00320177 0.00789416)
(0.0159282 0.0027231 0.00785866)
(0.0173433 0.000604179 0.008856)
(0.0157408 0.000188864 0.00846326)
(0.0155003 0.000649646 0.00875932)
(0.0156671 0.00130239 0.00995869)
(0.0155393 0.00227244 0.0097669)
(0.0161452 0.0020639 0.00968318)
(0.0164713 0.000610914 0.00767573)
(0.0166306 0.000181204 0.00734897)
(0.0163534 0.00070593 0.00799293)
(0.0163686 0.000512277 0.00708267)
(0.0163086 0.000947745 0.00675701)
(0.0160529 0.00102834 0.00688085)
(0.0162315 0.000921033 0.00718823)
(0.0158083 0.000543336 0.00677658)
(0.0163427 0.00083221 0.0087555)
(0.0148362 0.00140684 0.00860729)
(0.0162389 0.00120569 0.00910368)
(0.0161548 0.000918393 0.00908514)
(0.0149838 0.00180754 0.0091537)
(0.0151115 5.54905e-05 0.00856084)
(0.0149159 0.00296394 0.00913454)
(0.0141284 0.00354644 0.00838252)
(0.0144728 0.00359604 0.0085553)
(0.0113171 0.00330366 0.00495157)
(0.011893 0.00360318 0.00551974)
(0.0122193 0.00372778 0.00545414)
(0.0123861 0.00392574 0.00592879)
(0.0125159 0.00423322 0.00623693)
(0.0134838 0.00483865 0.00659059)
(0.0136188 0.00487294 0.00693755)
(0.0118623 0.00377177 0.0054027)
(0.0118991 0.00383507 0.00551243)
(0.0127557 0.00424234 0.00613587)
(0.0119995 0.00411884 0.00551267)
(0.0140533 0.00497003 0.00850498)
(0.0138026 0.0050628 0.00868194)
(0.0132878 0.00467648 0.0079141)
(0.0138986 0.00526949 0.00803571)
(0.0148781 0.00396569 0.00705227)
(0.0131454 0.00382153 0.0057217)
(0.0128681 0.00365473 0.0055861)
(0.0125647 0.00345327 0.0050984)
(0.0124462 0.00313625 0.00496188)
(0.0134362 0.00379942 0.00574171)
(0.0137041 0.00386439 0.00633944)
(0.0135152 0.00378472 0.00615136)
(0.0130099 0.00320964 0.00540728)
(0.0128887 0.00337443 0.00544236)
(0.01335 0.00303558 0.00503366)
(0.0104465 0.000553809 0.0054051)
(0.00996086 0.000666649 0.00506756)
(0.0112543 -0.000111814 0.00705414)
(0.0118237 0.000236219 0.0071831)
(0.0103496 0.000438725 0.0054332)
(0.0123569 0.00338213 0.00503302)
(0.01196 0.00314045 0.00455872)
(0.0122719 0.00308028 0.00489388)
(0.0113559 0.00246571 0.00451936)
(0.0109101 0.00216448 0.0041681)
(0.010831 0.00227324 0.00430794)
(0.0107985 0.00175599 0.00405985)
(0.0112098 0.00176898 0.00403669)
(0.0104594 0.00160914 0.00377113)
(0.0120813 0.00297695 0.00482964)
(0.0113165 0.00276221 0.00439817)
(0.0110947 0.00247458 0.00408731)
(0.0115018 0.00348069 0.00504382)
(0.011271 0.00335769 0.00483907)
(0.0100671 0.00170722 0.00409258)
(0.00993936 0.00132911 0.0040107)
(0.0102069 0.00168295 0.0040913)
(0.0101779 0.00200465 0.00413271)
(0.00947715 0.00115097 0.00396281)
(0.0101262 0.000578863 0.00479736)
(0.00982727 0.000432766 0.00446778)
(0.00995839 0.000421527 0.00434631)
(0.0101009 7.84866e-06 0.00473672)
(0.0104935 0.000168051 0.00524617)
(0.00997532 0.000300521 0.00485479)
(0.0119059 0.000980053 0.00776067)
(0.013057 0.00203085 0.00784459)
(0.0123955 0.00169489 0.00754828)
(0.0133188 0.00213786 0.00830517)
(0.0121443 0.00125142 0.00781109)
(0.0119989 0.000299381 0.00791195)
(0.0124253 0.000719338 0.00814272)
(0.0124909 -0.000434481 0.00848663)
(0.0122955 -0.000881563 0.00718056)
(0.0118457 -0.000709981 0.0075797)
(0.0118336 -0.000382119 0.0081556)
(0.0125131 0.000572871 0.00864635)
(0.0118974 0.000697299 0.0079071)
(0.0121203 0.000398006 0.00802238)
(0.0124527 -0.000306153 0.00781197)
(0.0115141 -0.000237735 0.00740499)
(0.012586 0.000499315 0.00822347)
(0.0126394 -0.000484577 0.00843507)
(0.012566 -0.000115775 0.00796181)
(0.0126216 0.00189149 0.00789716)
(0.0126903 0.00142626 0.00821736)
(0.0123368 0.000775204 0.0084249)
(0.012608 0.00101576 0.00821328)
(0.0128316 0.00112253 0.00873717)
(0.0137164 0.00260631 0.00841438)
(0.013515 0.00216171 0.00897312)
(0.0137354 0.00251495 0.00876844)