/*--------------------------------*- C++ -*----------------------------------*\
| =========                 |                                                 |
| \\      /  F ield         | OpenFOAM: The Open Source CFD Toolbox           |
|  \\    /   O peration     | Version:  v1612+                                |
|   \\  /    A nd           | Web:      www.OpenFOAM.com                      |
|    \\/     M anipulation  |                                                 |
\*---------------------------------------------------------------------------*/
FoamFile
{
    version     2.0;
    format      ascii;
    class       surfaceScalarField;
    location    "166";
    object      phi;
}
// * * * * * * * * * * * * * * * * * * * * * * * * * * * * * * * * * * * * * //

dimensions      [0 3 -1 0 0 0 0];

internalField   nonuniform List<scalar> 
37647
(
1.45198e-09
7.42244e-09
-1.61183e-09
-7.2626e-09
-3.13217e-09
-7.69133e-09
2.60944e-09
8.21407e-09
-9.14956e-09
-1.9516e-08
7.19163e-09
1.31121e-09
2.29071e-09
-6.16523e-09
2.56336e-09
-6.70178e-09
2.92826e-08
3.07502e-09
-2.56558e-08
-4.43572e-09
-1.84473e-09
1.44437e-09
4.83607e-09
-3.82054e-09
-6.9489e-10
7.97105e-11
-7.22092e-10
4.79582e-09
-4.81001e-09
7.36271e-10
-4.56497e-09
2.23393e-11
-1.72407e-10
3.1235e-09
-4.82386e-09
-5.26826e-10
6.79505e-09
-4.3122e-09
-4.41844e-09
3.90678e-09
-4.98492e-09
-2.2179e-11
-2.52005e-11
-1.20289e-09
-3.33689e-09
-3.60435e-09
-1.23087e-09
2.26099e-09
3.88917e-09
-6.32258e-09
-6.80684e-09
8.541e-09
5.60448e-09
-5.81117e-09
-4.77824e-09
4.31539e-10
7.54498e-10
7.72819e-09
1.29448e-09
-1.03361e-08
1.31343e-09
7.90248e-09
-9.57376e-10
7.83079e-10
1.52718e-09
-5.71958e-09
-5.9997e-09
1.61273e-08
1.25724e-09
-1.13849e-08
1.39925e-08
-6.01979e-10
-1.93902e-08
1.11684e-08
9.58702e-09
-6.76292e-09
1.46849e-08
1.26108e-08
-3.02744e-09
9.66319e-09
-5.3785e-09
6.02592e-09
-9.65533e-09
6.5526e-09
1.08689e-08
-7.75832e-09
-2.5056e-09
9.40428e-09
-3.46069e-10
1.16686e-08
8.33054e-09
-1.39732e-08
1.05545e-08
-1.39153e-09
-2.11115e-09
1.69976e-09
9.81568e-09
-1.68779e-10
8.92654e-09
2.67979e-09
1.18364e-08
-1.13262e-08
1.00986e-08
1.17822e-08
2.58479e-10
-3.25415e-09
1.36021e-08
-3.75653e-09
1.28761e-09
1.49942e-08
1.3086e-08
-6.81041e-09
-1.26497e-09
-8.11321e-09
-1.05935e-08
-1.01611e-08
-1.02337e-08
-8.51245e-09
-1.2371e-08
-1.13255e-08
-1.43333e-08
-4.62646e-09
-1.46842e-08
-2.063e-08
2.05488e-09
7.24965e-09
-2.42713e-09
-2.78072e-09
-7.53024e-09
-5.58083e-09
-1.12975e-08
-6.4447e-09
-9.49291e-09
-4.73505e-09
-7.80758e-09
9.15353e-10
-1.29409e-08
-5.63373e-09
-7.04667e-09
-9.45343e-09
6.00607e-10
1.40946e-09
5.54425e-09
-7.55432e-09
1.9667e-09
7.4409e-09
-8.807e-09
2.89207e-09
1.97945e-09
6.98023e-10
6.07806e-10
-9.24684e-10
3.20894e-09
-3.53056e-09
4.30924e-09
-1.70871e-10
2.54759e-09
-4.63829e-09
4.22069e-09
1.82707e-09
2.95204e-09
-5.33817e-09
3.08416e-09
-2.22363e-09
2.4539e-09
4.07897e-09
4.07701e-10
-8.37455e-11
4.80875e-09
-3.88149e-10
1.65919e-09
-3.34545e-09
2.10725e-09
-4.03579e-11
7.0556e-09
-1.09063e-08
1.7952e-08
-1.41013e-08
-2.63739e-09
1.07216e-08
-1.0286e-09
-3.61889e-09
-1.98546e-09
-3.83837e-09
9.44272e-09
-2.66331e-09
-2.43093e-09
1.47533e-09
5.19604e-09
-2.21311e-09
-5.64623e-09
-7.32773e-09
1.05383e-08
7.81011e-10
2.58848e-09
-1.42759e-08
6.68548e-09
1.62723e-09
-7.53171e-09
-1.90935e-09
5.95743e-09
1.13745e-08
5.12896e-09
1.44858e-09
1.47683e-08
-2.03947e-09
3.60035e-09
-5.39928e-09
-4.02699e-09
-4.43425e-10
1.05389e-09
-5.77491e-09
7.30948e-09
4.27225e-09
-1.59114e-09
-1.73522e-09
1.98047e-09
-1.09841e-08
-3.22539e-09
7.02968e-09
7.17977e-09
-7.54836e-09
1.41046e-09
-4.84617e-09
-6.13453e-09
7.02013e-09
1.39389e-09
-2.2795e-09
-2.72821e-09
-1.09547e-08
1.9263e-09
1.86845e-09
-6.84349e-09
1.10408e-08
-2.78681e-09
-5.8002e-09
2.82777e-09
-3.87107e-09
4.19654e-09
-1.2725e-08
-1.60738e-08
3.34608e-09
1.97574e-08
4.92777e-09
-9.96081e-09
-6.17505e-09
7.56929e-09
1.43352e-09
3.33553e-09
-5.31405e-09
8.39897e-09
-5.01291e-09
1.54171e-09
-3.18112e-09
1.49262e-08
-4.54652e-09
3.2917e-09
-5.63822e-09
-1.92393e-09
3.01562e-09
-9.08796e-10
6.32444e-10
-1.25486e-08
1.1647e-08
7.13435e-09
-6.23283e-09
-3.05856e-09
-1.16777e-08
7.52602e-09
7.21019e-09
2.17332e-09
-7.49529e-09
2.26337e-09
-5.39478e-09
-2.43873e-09
4.12139e-09
3.71212e-09
-5.34841e-09
2.12695e-09
7.92026e-10
-4.48767e-09
-8.85291e-09
-2.99469e-09
-7.89097e-09
-2.89337e-09
-7.5966e-09
4.98479e-09
-8.02497e-09
-2.30822e-09
1.0303e-08
-1.01654e-08
4.84718e-09
7.92208e-10
7.07205e-09
-3.5702e-09
-1.59553e-08
1.50378e-08
-4.29622e-10
-1.04887e-08
-1.41652e-08
6.95724e-09
-5.66497e-09
3.03626e-09
-4.32853e-09
2.44581e-09
6.48266e-09
-1.97124e-09
7.98477e-10
-4.98339e-09
-5.32469e-09
9.5096e-09
-2.6862e-09
-2.1803e-09
2.60133e-09
2.35263e-09
2.03906e-09
-6.99303e-09
2.5628e-10
-3.41149e-10
2.43872e-09
-3.48931e-09
4.361e-09
-3.31041e-09
2.9227e-09
-3.98123e-10
-8.5862e-11
2.53631e-09
-3.67299e-09
2.68278e-09
1.09806e-10
-2.71975e-09
1.33197e-09
3.83359e-09
3.83544e-10
-6.70385e-11
-7.87119e-09
4.35977e-09
6.43412e-09
-2.86376e-09
-6.46426e-10
6.55033e-09
-9.49465e-09
2.28227e-09
2.38178e-12
-2.67163e-09
-7.9383e-11
4.08298e-09
-5.81403e-12
2.25164e-09
-6.30923e-09
5.03669e-09
-9.79101e-10
6.53203e-09
-2.62267e-09
-1.0961e-08
1.73768e-08
-1.04967e-08
4.08094e-09
3.27017e-08
-2.70184e-08
-1.66443e-08
3.10313e-08
7.37364e-09
-5.70315e-09
1.50061e-08
3.3402e-08
1.45673e-08
-2.5123e-08
-3.54925e-09
1.4105e-08
-1.44094e-08
1.47744e-08
1.42024e-08
-2.53433e-08
1.96463e-08
1.34448e-08
-7.74781e-09
-2.09083e-08
-9.04689e-09
4.61198e-09
8.91694e-09
-1.43936e-08
6.47332e-09
-2.33432e-08
6.37313e-09
6.76136e-09
7.14748e-09
4.1761e-09
-1.80849e-08
-1.31652e-08
3.1072e-09
1.74316e-08
5.50871e-09
-1.90981e-09
3.45781e-09
-2.48912e-08
3.30683e-09
-3.2235e-08
-2.28421e-09
-5.15229e-10
1.6505e-08
-1.37056e-08
-2.41634e-08
9.49356e-09
1.50466e-09
-2.31408e-08
-1.79657e-08
5.18934e-09
1.45831e-08
-1.02789e-08
7.91689e-09
1.06479e-08
6.7174e-09
1.21459e-08
1.34249e-08
-6.75337e-09
1.2554e-08
-1.6027e-08
1.02263e-08
-1.78097e-08
1.03293e-08
7.2698e-10
-1.06906e-08
4.81095e-09
1.02788e-08
-1.68111e-09
-1.02774e-08
-6.01161e-09
2.8843e-08
1.21978e-08
-1.37401e-08
7.99192e-09
-9.4578e-10
8.84665e-09
-1.49975e-08
2.45757e-08
-1.55898e-08
9.22711e-09
2.23673e-08
1.19782e-08
-1.54546e-08
-1.88909e-08
-5.6109e-09
1.46784e-08
1.32998e-08
-1.74411e-08
-7.4229e-09
1.08698e-08
1.39942e-08
-1.17886e-08
-2.15119e-09
-3.50137e-09
2.98995e-08
-2.45628e-08
-1.71252e-08
6.01897e-09
1.64576e-08
6.68872e-09
3.26766e-09
-1.55673e-08
1.97164e-08
-1.44837e-10
-1.22032e-08
-7.36839e-09
1.15193e-08
1.42161e-08
-1.88897e-08
1.53879e-08
1.81802e-08
-7.0563e-09
-1.07035e-08
6.04997e-09
1.55234e-08
-9.36549e-09
-3.48918e-09
-1.15921e-08
-2.51739e-08
9.86945e-09
-2.44788e-08
3.01727e-09
2.93723e-09
-2.43328e-09
8.09691e-09
1.52904e-09
6.96752e-10
9.25922e-09
5.43195e-09
2.84481e-09
5.94885e-09
-7.99544e-09
-5.85368e-09
9.5334e-09
4.31573e-09
-2.33431e-09
-2.10024e-09
-3.56089e-09
-1.72547e-08
4.90361e-09
4.30455e-09
8.04652e-09
2.13016e-10
-5.21063e-09
-1.22571e-08
-3.25662e-09
1.83684e-09
-4.4041e-09
5.82389e-09
2.2451e-09
-1.05208e-08
5.0191e-09
-4.15931e-09
-2.54255e-09
8.5387e-09
-9.57487e-09
7.66065e-09
1.73898e-08
-5.03191e-09
-1.21449e-08
1.27185e-08
7.34882e-09
-5.05088e-09
-4.63225e-09
1.59196e-09
-9.68136e-11
7.10532e-09
-1.97602e-09
-8.93902e-09
5.61045e-09
7.63313e-09
-1.05288e-08
-3.62089e-09
-7.1874e-09
-5.43367e-09
-5.24763e-09
2.57609e-09
3.80212e-09
-1.13057e-09
-7.21158e-09
-3.70871e-09
5.67268e-09
5.64399e-09
-9.97258e-09
-2.24673e-09
-8.6985e-09
-3.56396e-09
-1.08582e-09
7.68344e-09
-7.43407e-09
8.36468e-10
-5.84786e-09
4.84658e-09
-8.45342e-11
4.55452e-09
2.81891e-09
-2.83142e-09
-4.54199e-09
-1.40596e-09
1.12635e-10
4.50506e-09
-4.72046e-09
-5.04515e-09
5.26056e-09
-6.66248e-09
-1.75027e-09
1.29178e-08
-1.3418e-10
3.09717e-09
-1.67245e-10
-3.131e-11
-1.45995e-10
-4.46917e-09
5.71487e-09
-2.6107e-09
-5.93557e-09
4.38258e-09
-7.36591e-11
-9.41933e-09
5.67069e-09
3.61446e-09
-5.59076e-09
-7.465e-09
6.39329e-09
-5.73133e-09
-2.66643e-11
-3.67192e-09
-5.8934e-09
5.34885e-10
-9.84992e-09
6.70435e-09
7.08268e-09
3.60086e-09
-1.01486e-08
-5.25283e-09
7.8537e-09
4.48182e-09
-5.32389e-09
-7.59071e-09
1.15111e-08
-1.08595e-09
2.32463e-10
-6.6115e-09
-8.2296e-10
-3.21132e-09
-1.27415e-08
7.849e-09
8.10382e-09
-1.69661e-08
6.11022e-09
7.64454e-09
2.78277e-09
-1.38739e-08
-2.13297e-09
1.32241e-08
-1.38041e-08
3.2917e-09
1.32952e-08
-1.97113e-08
7.51122e-09
5.7259e-09
6.47421e-09
3.45313e-09
-5.75484e-09
-1.74096e-08
1.09554e-08
-2.02311e-08
-7.69036e-09
5.72509e-09
-2.13714e-08
1.32234e-08
-3.03955e-09
-1.48787e-08
-1.82574e-09
-2.41602e-08
2.26614e-09
-1.86927e-08
2.95595e-09
1.34706e-08
-1.83541e-08
6.81614e-09
-4.77177e-09
-1.66219e-08
-2.52902e-08
6.36143e-09
-1.4673e-09
3.35335e-09
-8.24749e-09
2.65624e-09
3.90282e-09
-1.97612e-10
3.47477e-09
-6.92743e-09
7.23087e-09
-3.77821e-09
6.03443e-09
9.66007e-11
2.50812e-09
-1.09029e-08
-6.95149e-09
6.74734e-09
4.10697e-09
1.57772e-09
-5.17586e-09
2.89336e-09
-1.38938e-09
5.72691e-09
1.36369e-09
7.56411e-09
-4.26694e-09
-1.10235e-08
2.2497e-09
1.30408e-08
-8.75525e-09
-2.14771e-09
6.63603e-09
-9.49001e-09
-1.02888e-08
-3.33518e-09
-4.57712e-09
9.50591e-09
-1.0333e-08
1.03607e-08
5.96881e-09
1.63346e-09
-1.7954e-09
-6.33399e-09
6.49592e-09
-2.71916e-09
9.16356e-09
9.91375e-10
5.43107e-09
7.55915e-09
-5.97196e-09
1.88663e-09
4.42335e-09
7.39802e-09
-5.50256e-09
-9.69016e-09
7.79473e-09
-6.00041e-09
-6.08489e-09
1.94833e-08
-5.78374e-09
-7.47497e-09
7.25833e-09
-1.03804e-08
-9.05867e-10
5.61265e-09
2.53312e-09
-4.70216e-09
-3.44361e-09
-9.12383e-10
-3.16514e-09
-7.46169e-09
-3.85624e-10
8.07112e-09
-4.59295e-09
-1.09398e-08
8.99729e-11
5.06174e-10
1.74041e-08
-7.12093e-09
-1.11955e-08
-1.31575e-08
2.44767e-08
-1.27222e-08
3.42708e-09
9.31308e-10
-1.39989e-08
9.01754e-09
-6.68713e-09
2.674e-09
-5.00442e-09
-3.73382e-09
6.96679e-09
5.78456e-09
3.87765e-09
-9.39392e-10
-9.62538e-09
1.88683e-09
-1.743e-09
-3.55758e-09
7.09884e-09
3.42552e-09
-7.23455e-10
-1.60126e-10
3.3238e-09
1.35517e-09
-5.61838e-09
-2.5074e-10
3.48382e-09
9.07271e-11
3.32575e-09
3.23673e-09
-5.20732e-09
3.24561e-09
-1.70605e-10
-1.43545e-09
-5.4868e-09
8.80908e-09
-2.55161e-09
-6.34435e-09
7.46051e-09
2.96917e-09
-2.08804e-10
4.81431e-09
-4.1292e-09
3.16492e-09
4.895e-09
-8.37676e-10
5.71781e-09
-6.19121e-09
1.31109e-09
-1.28251e-09
6.33512e-09
4.16139e-11
-5.09425e-09
8.97364e-09
-7.74136e-10
-9.48201e-09
8.4153e-09
9.62113e-09
-9.0628e-09
1.08436e-08
3.90683e-09
3.33244e-09
7.18003e-09
3.31131e-10
7.34945e-09
-9.47319e-09
5.45617e-09
4.9227e-10
-1.01032e-09
7.86751e-09
-4.23118e-09
-6.45196e-10
5.36864e-09
-4.19406e-10
5.67338e-10
-6.47691e-10
1.01689e-09
4.37939e-09
-4.74859e-09
5.59428e-09
-7.01611e-09
-2.46116e-09
5.41001e-09
-5.28864e-09
-2.39149e-10
4.51746e-09
-5.70983e-09
1.77575e-12
5.5116e-09
-4.4531e-09
-2.28874e-10
1.13318e-10
4.19541e-09
-4.4896e-11
-4.36869e-10
-2.76364e-09
2.55531e-09
-3.69077e-09
3.01475e-09
-1.60324e-09
-3.88925e-09
2.72885e-09
-6.56122e-09
2.49682e-09
3.41978e-09
-4.4694e-09
-5.23976e-10
5.44972e-11
-1.93395e-11
-4.87448e-09
6.43777e-09
-2.58838e-09
1.02509e-09
3.70174e-09
-3.7442e-09
-4.83201e-09
-2.69945e-09
4.06061e-09
5.07662e-09
1.07049e-09
-6.82065e-11
-2.69539e-09
3.74425e-09
-3.63724e-09
2.04156e-09
-8.48115e-09
-2.2173e-09
3.21928e-09
6.85233e-11
2.11827e-09
8.75983e-09
-1.04879e-08
-3.90149e-10
8.32519e-09
-8.55388e-09
2.34695e-09
3.62511e-09
3.44088e-09
-5.02445e-09
1.52051e-09
-1.12698e-10
1.43287e-09
-1.59342e-11
2.6437e-09
6.70641e-11
4.58509e-09
-3.10096e-09
1.81351e-09
9.61265e-09
5.64293e-09
-4.97448e-09
-5.85004e-10
-2.99442e-09
-1.17182e-08
4.55961e-09
-1.70375e-09
4.32024e-09
1.75987e-09
6.20081e-09
-3.78044e-09
-4.45808e-09
-5.324e-09
1.35625e-08
-5.77255e-09
-7.31236e-09
9.30446e-09
-5.96833e-09
1.06202e-08
-8.60544e-10
-1.78189e-10
-5.49937e-09
1.00406e-08
2.77576e-09
-6.4697e-10
-3.1463e-10
4.96702e-09
-6.9319e-09
7.66535e-10
2.37589e-09
-3.45706e-09
-1.71971e-09
4.33331e-09
-3.52241e-09
2.35542e-09
-3.3086e-09
-1.69461e-10
5.21956e-09
-8.30811e-11
2.20918e-09
-2.75465e-12
-1.31996e-09
3.84155e-09
1.81173e-09
1.08582e-09
-5.03546e-11
-4.38575e-09
-2.50831e-10
7.92828e-09
2.47142e-09
2.54018e-09
4.54782e-09
-3.21307e-09
5.50242e-09
8.19296e-11
2.46436e-09
-5.33281e-09
6.92713e-09
-4.05868e-09
2.13563e-09
3.20034e-09
1.72434e-09
-7.06032e-09
6.69009e-09
-7.24553e-09
6.74469e-10
-1.19032e-10
-1.47661e-09
-3.46796e-09
6.04293e-09
-1.09837e-09
-4.6949e-09
-3.6202e-09
1.07794e-08
-6.69367e-09
4.1344e-09
-2.87295e-09
7.66672e-09
-6.27039e-09
7.48775e-09
-9.56849e-09
6.20564e-09
-5.41156e-09
-8.53222e-09
-2.61969e-09
4.6983e-09
-7.21274e-09
1.10002e-08
-8.4857e-09
1.30043e-08
-5.09716e-09
-3.20883e-09
-9.82275e-09
8.46604e-09
8.71454e-10
4.8526e-10
6.78879e-09
-3.60722e-09
-6.87605e-09
7.05301e-09
8.28907e-09
-3.56282e-09
3.47558e-09
-1.58066e-09
4.4994e-09
-8.01587e-09
3.92829e-09
-1.27217e-08
1.77192e-08
-2.28378e-08
7.4506e-09
2.52081e-09
4.40438e-09
3.03298e-09
-1.26925e-08
3.17584e-09
1.4016e-08
-1.07236e-08
7.54469e-09
1.1368e-08
-8.18903e-09
4.9879e-10
-1.0351e-08
-8.70556e-09
-1.09143e-09
1.87139e-08
3.14942e-09
1.35063e-08
3.09046e-08
1.07002e-08
-6.79478e-09
-3.48099e-08
-1.94664e-08
2.4307e-08
2.60639e-08
1.10412e-08
2.09243e-08
-2.53712e-09
-2.94283e-08
2.71978e-08
6.45475e-09
-2.26114e-08
7.58734e-09
-7.62743e-09
1.07402e-08
8.70545e-09
-3.97961e-09
1.61984e-08
2.91231e-08
6.78023e-09
-2.72768e-08
1.79449e-08
-1.79163e-08
3.19583e-08
-2.0827e-08
1.70721e-08
4.80684e-09
-1.05195e-09
2.29141e-08
-3.06594e-08
1.04354e-09
3.4177e-08
2.13751e-09
-7.19138e-09
2.37592e-08
5.58862e-09
-1.59168e-08
-1.3431e-08
5.20825e-09
8.33093e-10
1.77179e-08
2.87208e-08
-9.30359e-09
-1.38286e-08
1.01548e-08
2.37743e-08
-2.84995e-08
2.17052e-08
-1.7644e-08
-2.67723e-08
-1.71782e-08
6.4992e-09
2.08337e-08
-1.23172e-08
-1.41646e-08
9.02685e-09
6.75948e-09
-3.34304e-08
-1.95134e-08
7.59614e-09
-7.54913e-09
-4.52965e-08
8.77116e-09
-1.43288e-08
-1.65862e-08
2.7062e-08
-3.97669e-09
-2.18865e-10
-2.5004e-08
-9.66187e-09
1.08051e-08
2.38607e-08
-1.41828e-08
-9.51204e-09
-1.30919e-09
1.64766e-08
-2.21159e-08
-8.54353e-09
-3.47406e-09
1.02888e-08
1.32038e-08
-2.56969e-08
2.72655e-08
-1.47724e-08
-1.36411e-08
1.29805e-08
-8.85148e-09
-8.23789e-09
2.75517e-09
-1.66332e-08
9.64382e-09
9.32884e-09
-1.08949e-08
-8.07775e-09
7.19248e-09
-1.6648e-08
-3.17723e-09
1.26327e-08
-3.85859e-09
2.78675e-08
-1.17645e-08
-1.26365e-08
1.25243e-08
1.18767e-08
-2.14561e-09
-1.97333e-08
1.77138e-08
-4.82792e-09
-1.01307e-08
5.71614e-09
8.52355e-09
-8.69794e-09
1.44832e-08
6.28895e-09
-2.01991e-08
1.27183e-08
-1.12573e-08
4.84616e-09
-7.82796e-09
1.72935e-08
2.6173e-09
-1.87296e-08
-1.15917e-08
4.69782e-09
2.56235e-08
-7.32754e-10
5.77745e-09
-3.44394e-08
-1.49419e-09
2.43418e-08
9.69344e-10
-1.76909e-08
1.01597e-08
-1.33732e-08
2.48067e-09
-2.55578e-09
1.74133e-08
4.62989e-09
-9.71837e-09
1.79112e-08
-1.28227e-08
1.44732e-08
-4.17011e-09
-5.67322e-09
6.93053e-09
4.24788e-09
-2.46094e-08
-1.66165e-08
2.15706e-08
-1.07158e-08
-9.88546e-09
6.71627e-09
1.33601e-08
7.94985e-09
-9.40442e-09
8.17084e-09
-9.85653e-09
1.52506e-08
-2.68845e-09
7.22649e-09
8.46739e-09
3.31738e-09
1.08989e-08
-1.08212e-08
8.8889e-10
-9.17319e-09
-1.12012e-09
-5.00252e-10
-8.98999e-09
-5.1001e-09
5.69584e-09
7.99766e-09
-8.59338e-09
8.94401e-10
5.41899e-09
-1.14135e-08
-4.75375e-09
1.85901e-09
-9.8457e-09
1.27405e-08
1.01388e-08
-2.04014e-09
-1.28524e-08
1.05333e-08
-1.98523e-09
1.59078e-09
6.82362e-09
-3.59951e-10
4.06967e-09
4.37693e-09
-7.55141e-09
1.1344e-09
3.57444e-09
-1.18264e-09
-1.49869e-08
7.92418e-09
7.95715e-09
-4.13883e-09
-8.98905e-09
-5.61496e-09
-7.64113e-10
1.20749e-08
-4.8924e-09
6.10107e-09
1.22575e-08
-5.10142e-09
-3.58164e-09
-7.99867e-09
1.51587e-08
1.09736e-08
-8.34509e-09
-6.76729e-09
1.58626e-08
7.12172e-09
-1.20107e-08
3.42462e-09
3.94051e-09
1.12886e-08
1.35932e-08
9.34262e-09
-1.17663e-08
-1.11695e-08
-5.16883e-09
1.32524e-08
5.50963e-09
3.46276e-09
-2.83686e-09
-5.79472e-09
9.72277e-09
5.1975e-10
3.00989e-09
6.69573e-09
-2.72697e-09
-5.05997e-10
5.05617e-09
6.878e-09
-9.20366e-09
-2.7305e-09
8.34107e-09
3.12268e-09
-6.40758e-09
2.62658e-09
1.24463e-09
3.00679e-09
3.83322e-09
7.13444e-09
-4.942e-09
5.22927e-09
9.4355e-09
2.04264e-09
2.35799e-09
-7.42687e-10
-3.69302e-09
9.66499e-09
-5.27526e-09
8.36579e-09
1.94022e-09
4.90266e-09
-8.10112e-09
6.93927e-10
2.50454e-09
-1.68103e-09
-2.72939e-09
-4.79323e-09
-6.65373e-09
4.20533e-09
7.04553e-09
-3.8239e-09
2.43444e-09
1.29993e-08
-6.99221e-11
7.24625e-10
6.92654e-09
-7.95866e-09
1.40314e-08
5.0095e-10
1.11774e-08
-1.78771e-09
9.30569e-09
9.47858e-09
1.48312e-09
9.7847e-09
-4.34129e-09
1.46465e-08
2.97638e-09
3.99856e-09
4.61763e-09
4.5519e-09
1.47935e-08
-1.00397e-08
3.20323e-09
4.03531e-09
-3.23998e-09
9.23824e-09
-1.1199e-08
2.10044e-09
-6.75919e-09
1.58578e-08
-1.10391e-08
-8.05819e-09
7.89823e-09
-9.18295e-09
1.5047e-08
-3.76358e-09
-1.7323e-08
-2.89902e-09
-4.61752e-09
3.81245e-09
-5.95412e-09
-1.27615e-08
8.58127e-11
-1.16177e-08
-1.51806e-08
1.14233e-08
1.53751e-08
-1.40295e-08
8.26105e-09
-5.8493e-09
1.1686e-09
-3.5609e-09
-1.16372e-08
-3.46991e-09
1.50439e-08
-1.04054e-08
-9.27942e-09
2.17439e-10
-6.7528e-09
-2.50302e-09
-3.5057e-09
9.97195e-09
-1.09135e-08
-1.14349e-08
1.23765e-08
-3.74667e-09
-1.02333e-09
1.47419e-08
1.07562e-10
7.04693e-09
-1.07154e-08
6.91035e-09
-1.02727e-08
-3.88344e-09
-8.98529e-09
-6.50617e-09
1.48263e-08
-1.1249e-08
6.47304e-09
-1.00503e-08
9.26682e-09
4.44418e-10
5.11502e-09
-9.46635e-09
1.64902e-08
6.76212e-09
-1.3786e-08
-1.23197e-09
-5.49997e-09
9.69435e-09
5.07244e-09
2.42276e-09
-1.4497e-09
1.11555e-08
5.77911e-09
1.21635e-08
-3.49573e-09
-1.90562e-09
-5.06483e-09
4.09359e-09
1.06656e-08
-2.60567e-09
-3.6398e-11
8.10662e-09
1.52124e-08
5.94801e-09
-1.25595e-08
5.37956e-09
-3.52104e-09
1.57213e-08
7.6551e-11
-8.54909e-09
3.48089e-09
4.99164e-09
-6.4806e-09
3.95148e-09
-9.08167e-09
6.79255e-09
-6.83271e-09
1.69246e-09
-1.51526e-08
1.67438e-08
-3.28369e-09
-1.88779e-08
2.27932e-08
-2.22289e-09
7.54836e-09
-1.7167e-08
-1.79863e-09
1.06934e-08
1.38627e-08
-4.67971e-09
1.51045e-09
1.7036e-09
-2.1796e-09
1.72198e-08
-1.48963e-09
2.59865e-08
-7.44057e-10
1.24271e-08
1.45461e-08
-4.89157e-09
-2.10619e-09
1.86772e-09
1.03202e-08
-1.2932e-08
1.49242e-08
-6.23624e-09
1.91958e-09
-1.32558e-09
4.07377e-09
-1.06118e-08
3.01772e-10
4.03235e-09
5.23287e-09
-5.24706e-09
-4.01817e-09
4.44649e-09
-4.56664e-10
4.25141e-11
-6.73921e-09
6.93798e-09
3.48072e-10
-1.85442e-09
6.60165e-09
-5.28636e-09
2.75846e-09
1.24977e-09
-7.59677e-09
-2.66698e-09
7.56075e-10
5.64719e-10
-6.56788e-09
1.11928e-09
-5.46499e-09
-6.44775e-10
-6.68419e-09
-4.06717e-09
1.30001e-09
-8.14073e-09
4.32871e-09
9.68422e-10
-4.73244e-09
3.8626e-09
9.42605e-12
-6.05435e-10
-4.14233e-09
4.13434e-09
6.13411e-10
3.27812e-09
-2.0961e-11
-4.41487e-10
-4.94271e-09
-3.6154e-09
-1.67259e-09
1.36764e-08
-4.95182e-09
5.96069e-09
-1.46853e-08
8.64147e-09
6.63271e-09
-1.59773e-09
1.24757e-08
-1.98946e-08
2.46708e-09
1.32033e-08
8.96314e-09
-9.69071e-09
1.8048e-08
3.79668e-09
-8.29962e-09
-3.39332e-10
1.52717e-08
5.56448e-09
-7.90342e-09
2.05234e-08
-6.89765e-09
-4.66258e-09
-1.19708e-08
7.98132e-09
-4.11164e-09
-1.23829e-08
3.63231e-10
4.88578e-11
6.33669e-10
4.77786e-09
5.98489e-09
1.51722e-08
-2.42321e-09
1.35449e-08
3.19779e-09
-1.43195e-08
4.69481e-09
-9.39339e-10
-6.17868e-09
1.16113e-08
-1.44633e-08
-8.96164e-09
1.18137e-08
5.23557e-09
7.17189e-09
-7.96162e-10
1.70791e-09
-8.5263e-09
-5.75537e-12
-6.98268e-09
3.67581e-09
1.5854e-08
-8.0606e-09
8.90563e-09
1.32731e-08
6.57635e-09
-1.23686e-08
-7.48092e-09
1.61402e-08
-1.09486e-08
8.08152e-09
8.77737e-09
2.72268e-09
-1.29196e-08
1.41959e-09
4.81244e-09
-1.14047e-08
1.53696e-08
-7.56969e-09
-5.83209e-09
1.82142e-08
-9.0368e-09
4.18979e-09
-1.03601e-08
2.06682e-08
-3.82076e-09
3.70324e-11
2.28447e-08
3.92688e-09
-1.8685e-08
-8.0866e-09
-6.87192e-09
1.83119e-08
1.29201e-08
-1.80749e-08
-7.21372e-09
3.31594e-09
-1.3444e-09
-7.84207e-09
-1.15064e-09
1.63044e-08
-8.46933e-09
-2.65201e-08
5.61175e-09
-6.73515e-09
1.0143e-09
4.58932e-09
7.99884e-09
-1.08568e-08
-1.73135e-09
1.87878e-09
-5.7588e-09
-6.57838e-09
6.24989e-09
8.71681e-09
-9.88497e-09
-5.08174e-09
1.14012e-08
-7.367e-09
2.21571e-09
-8.74187e-09
7.41965e-09
1.27234e-08
-2.0236e-10
1.773e-10
4.54763e-09
-1.12329e-08
-3.19968e-09
1.1768e-09
-3.99619e-09
-1.05278e-09
-3.91401e-09
1.23864e-08
-7.95943e-09
-3.82774e-09
1.07344e-08
-8.21985e-09
5.80584e-11
1.29968e-08
-5.32825e-09
-6.49177e-09
-4.21561e-09
-7.76532e-09
3.76107e-09
8.67504e-09
-1.22582e-08
-1.91656e-09
1.09994e-08
-2.73569e-09
7.58298e-09
1.18223e-08
-1.39984e-08
-3.15214e-09
-7.67809e-09
-3.1466e-09
-8.73211e-09
-6.71131e-09
-1.36715e-08
9.01925e-09
-4.99585e-09
-8.32498e-09
-9.39182e-09
-1.09632e-09
1.88131e-08
-5.48354e-09
-7.37885e-09
4.53741e-09
-7.07607e-09
-9.11863e-09
6.80288e-09
-1.08894e-08
-1.6702e-09
3.52515e-09
7.25884e-09
-1.00197e-08
-7.64329e-10
-1.0922e-08
3.55774e-09
4.12424e-09
1.03784e-08
-1.87877e-09
-1.26239e-08
8.78713e-09
-6.59873e-09
1.93584e-09
-9.89612e-10
8.69601e-10
-1.07863e-08
1.84771e-08
-1.13198e-08
1.0912e-08
7.486e-09
-1.50783e-09
-1.59978e-08
4.65556e-09
-8.09155e-09
-8.06032e-09
4.7198e-10
1.86444e-08
-1.91431e-08
8.78891e-09
-8.29017e-09
1.5267e-08
-7.94246e-09
-1.81266e-09
-2.65042e-09
-1.3807e-08
4.23885e-09
1.25088e-08
-5.60918e-09
-1.04053e-08
-4.64541e-09
6.00864e-09
1.11456e-08
4.93902e-09
4.4133e-09
-4.81934e-09
-4.53298e-09
8.92062e-10
4.09124e-09
-4.42755e-11
-5.06158e-09
-5.92352e-09
4.84275e-09
6.14236e-09
-4.20286e-09
3.33389e-11
-4.64497e-09
-8.26444e-10
8.26006e-10
-7.69979e-09
-2.55437e-09
-1.16504e-08
3.84707e-09
-2.60201e-09
-2.44791e-09
3.49594e-09
3.0432e-09
1.13895e-09
2.85091e-09
-3.34143e-09
-3.71234e-09
-1.1321e-09
-1.94051e-09
-6.63552e-09
-1.27147e-08
-8.0809e-09
1.8898e-10
1.39006e-08
-5.71903e-09
1.48521e-09
8.52767e-09
-1.14352e-10
-8.04642e-09
-4.47293e-09
-2.3782e-09
-1.12228e-08
-8.19739e-09
3.7146e-09
-6.20001e-09
1.06828e-08
-8.11129e-09
-4.05225e-09
3.96615e-09
-8.92121e-09
-9.92316e-09
3.38113e-09
1.54632e-08
-6.10852e-09
-5.83829e-09
3.0256e-09
-8.46319e-09
-7.56849e-09
-6.20168e-09
1.32974e-08
5.60896e-09
-7.22432e-09
-3.01991e-10
-2.89068e-10
2.88663e-10
-1.19269e-09
5.99387e-09
-2.74137e-10
-5.09805e-10
-1.28502e-08
1.12932e-08
8.24454e-09
-6.68745e-09
-2.70835e-09
-1.26073e-08
2.46541e-09
-7.56943e-09
1.23431e-09
9.50364e-09
-3.16851e-09
-6.54074e-10
2.37608e-09
-9.29143e-09
1.02595e-08
-1.36219e-08
1.46961e-08
-3.20228e-09
-3.33331e-10
1.13777e-09
-7.34626e-09
1.42563e-09
2.61282e-11
8.0411e-09
1.43644e-09
9.18167e-09
-1.83181e-09
2.58599e-09
3.4095e-09
-8.3037e-09
-6.23714e-09
-1.07041e-09
6.30854e-09
9.99059e-10
-1.39329e-09
-2.96646e-09
4.36499e-09
-5.22227e-12
7.39445e-09
-6.41165e-09
1.18346e-09
8.70221e-09
8.52056e-09
3.27575e-09
4.74709e-09
-5.43684e-09
1.58648e-08
-2.31543e-09
-6.07154e-09
-4.19319e-09
3.86888e-09
6.39586e-09
-4.57832e-09
9.80084e-10
-2.4733e-09
3.58585e-09
-6.04355e-10
-2.98039e-12
-4.06257e-09
9.19858e-10
3.29151e-09
-1.48779e-10
-3.52204e-09
-6.24632e-10
8.41092e-11
-4.06466e-09
-1.89534e-09
6.94009e-09
-5.98333e-11
-5.73272e-09
9.52348e-10
5.70023e-09
-5.74522e-09
-6.12118e-10
1.88071e-09
2.87359e-09
-6.51013e-09
8.16211e-09
-6.99621e-10
6.09114e-09
5.62897e-09
-9.30476e-09
8.88577e-09
-1.31666e-10
4.38465e-10
1.31092e-10
-4.77203e-10
-8.92002e-10
-1.09441e-08
1.23133e-08
-2.13384e-09
-2.10839e-08
2.27406e-08
-1.17987e-08
-1.81495e-09
1.16378e-08
2.79743e-10
-1.35385e-08
1.62102e-09
6.77866e-09
9.19481e-09
-4.33568e-09
1.19949e-08
5.54091e-10
-5.77035e-09
-1.60433e-08
1.41892e-08
1.16167e-08
-1.87842e-10
-2.23406e-09
1.09192e-08
-1.51636e-09
2.69485e-09
5.60998e-09
-6.78849e-09
1.52742e-09
2.24087e-09
-5.28465e-09
-5.35072e-10
7.37764e-09
-4.14771e-09
-2.29817e-09
4.85728e-09
-3.09418e-09
2.8424e-09
-3.61315e-09
-6.94302e-10
-3.50496e-09
5.91242e-09
-1.71316e-09
5.19767e-09
-3.4431e-09
-2.44887e-09
5.45362e-10
1.55965e-09
-4.77845e-09
2.32746e-09
8.36343e-09
-2.05896e-10
6.25115e-10
4.78956e-09
3.13345e-09
-2.58069e-09
4.04871e-09
3.38926e-09
2.93874e-10
-3.21695e-11
2.63086e-09
-3.83308e-09
-2.52045e-09
-1.15971e-09
6.00761e-09
-2.87205e-09
1.45711e-10
7.67856e-09
5.26841e-11
-2.25078e-09
7.45067e-09
1.23981e-10
-5.32388e-09
-2.30612e-09
5.31133e-09
-5.25598e-09
3.22767e-10
-6.16705e-09
3.53815e-09
-3.21317e-09
7.61487e-09
3.04899e-09
2.21484e-09
-1.16678e-10
-2.69068e-09
9.18552e-09
-6.37086e-09
4.84093e-09
-7.20883e-09
-9.71267e-10
6.71318e-09
6.34191e-09
-4.26278e-09
1.35726e-10
2.23796e-09
4.40565e-09
5.3261e-09
-1.32073e-08
-1.43755e-08
-7.68761e-10
4.20443e-09
1.53171e-10
-9.20258e-09
1.02552e-08
-6.42354e-09
-3.67847e-09
7.14743e-09
2.33898e-09
2.74199e-09
5.83787e-09
9.5038e-09
-6.82306e-09
3.03538e-09
2.65272e-10
1.56525e-09
-6.88219e-09
-1.50612e-09
-4.60555e-09
3.18005e-09
4.46088e-09
-3.12221e-09
8.1902e-11
-2.67897e-09
-2.8788e-10
-3.91533e-09
4.46676e-09
-2.66471e-09
-4.48103e-09
1.42096e-09
-7.64115e-11
4.99047e-09
-7.89614e-09
2.40973e-10
5.95224e-09
1.43092e-10
-1.10486e-09
4.41942e-09
6.2069e-09
-4.67408e-09
5.68788e-09
1.52507e-10
-9.88184e-09
4.83306e-09
-4.23407e-09
-5.93565e-09
-4.88588e-09
-2.1115e-09
1.29878e-08
-5.99048e-09
-2.61241e-09
-5.51014e-10
6.34347e-09
-2.90781e-09
5.98328e-09
8.42534e-12
3.29067e-09
4.66103e-09
4.52534e-09
-9.17795e-09
-4.45007e-09
-5.12578e-09
-3.99417e-09
5.39851e-09
-7.10759e-09
3.54401e-09
-1.83493e-09
-4.06158e-09
4.72491e-09
4.73517e-09
3.67409e-09
-4.09705e-09
-6.68464e-09
-5.04202e-10
1.16706e-10
5.24191e-09
-1.89617e-09
8.72941e-09
-1.20752e-08
7.20782e-09
1.68363e-09
-3.64955e-09
-1.74092e-09
2.56733e-09
3.14855e-09
-3.97497e-09
4.67301e-09
-8.3101e-09
-2.00149e-09
-7.67133e-09
1.18885e-08
-6.17067e-10
7.0564e-09
-1.71443e-09
-3.72019e-09
9.23676e-09
1.69125e-09
8.43889e-09
-3.42967e-09
-3.45845e-09
2.88938e-09
6.48585e-11
1.53917e-10
1.12455e-10
5.1949e-09
-6.34351e-10
-1.9745e-10
-1.71651e-09
3.98882e-09
1.06133e-09
6.2105e-09
1.16705e-09
1.07793e-08
4.53972e-09
-8.0333e-09
-7.66527e-09
1.38445e-08
1.85409e-09
-1.27978e-08
-5.25092e-09
1.00154e-08
-1.06997e-08
8.46007e-09
-5.42569e-09
-2.069e-08
-2.80754e-09
-3.27839e-08
-1.51061e-10
8.29645e-09
2.46385e-08
-1.87007e-09
-9.96773e-09
-2.09461e-08
-6.26362e-09
1.42471e-08
5.86102e-09
-1.05605e-09
-1.84741e-08
1.32666e-08
-2.36964e-08
5.89347e-09
1.76519e-08
-1.71064e-08
1.89617e-08
-2.11894e-08
-7.74003e-09
-1.28881e-08
-8.35088e-09
1.93796e-08
1.85936e-09
-1.83709e-08
2.3846e-09
3.09812e-09
1.96762e-08
6.12593e-09
-6.84042e-09
1.96218e-08
1.15112e-08
-7.52827e-09
6.87177e-09
-1.08548e-08
1.45624e-08
5.57817e-09
-7.33693e-10
1.23743e-08
-8.38978e-10
-7.18863e-09
-4.34671e-09
-2.8448e-09
5.59218e-09
9.62694e-09
-4.35672e-09
5.80023e-09
-2.2825e-09
-2.88803e-09
3.91904e-09
-5.38775e-09
1.44496e-08
-4.52607e-09
-1.71121e-08
5.02639e-09
7.37624e-10
7.3731e-09
-1.26368e-08
4.40042e-09
-6.55084e-09
-2.54879e-09
5.20938e-09
3.13963e-09
1.46921e-09
-9.89779e-11
-5.40964e-10
3.24379e-09
2.88937e-09
2.94639e-09
1.72203e-09
-1.23752e-09
6.11815e-09
2.49247e-09
2.70315e-09
4.59729e-10
-1.97153e-09
-3.11524e-09
8.33055e-09
-3.87848e-09
4.85334e-09
8.02931e-09
2.93881e-10
-2.2834e-08
2.26436e-08
1.88291e-08
-1.86386e-08
9.76382e-09
-1.52574e-08
-1.73404e-08
1.46328e-09
2.19513e-08
-1.23324e-08
-1.10823e-08
-4.53958e-09
1.21401e-08
1.50431e-08
3.46615e-09
1.75807e-09
-1.46893e-08
2.82926e-08
-1.20214e-08
1.20172e-09
1.42859e-08
-1.19154e-08
-3.67725e-09
9.03444e-10
1.23595e-08
4.76333e-09
-2.7268e-08
1.01452e-08
-1.25759e-09
1.70161e-09
-2.02809e-08
1.30228e-08
-5.8422e-09
4.40078e-09
7.97344e-09
5.76245e-10
1.56717e-11
-4.67624e-09
2.96769e-10
4.95572e-09
3.74334e-10
-4.45092e-09
5.98708e-09
-1.91049e-09
-3.31822e-09
5.59552e-09
-1.90297e-09
3.57525e-09
-9.20686e-09
9.55364e-10
-5.82439e-09
4.94872e-09
-3.77929e-09
-6.074e-09
-1.08757e-08
6.50745e-10
4.7664e-09
5.45853e-09
-1.31385e-08
-8.44099e-09
1.07038e-08
9.87766e-09
-1.11505e-08
-2.50644e-09
4.70401e-09
-9.87067e-09
1.59685e-08
-9.41601e-09
-4.53897e-09
-2.95009e-10
-1.95073e-08
-8.1984e-09
5.32271e-09
2.23829e-08
-2.84409e-09
-1.72365e-08
5.73364e-10
3.64625e-09
-1.20177e-08
-2.66274e-10
8.63773e-09
-7.78992e-09
9.03773e-09
2.39844e-09
6.96337e-09
7.34147e-09
-1.05894e-08
-3.71541e-09
4.43101e-09
-9.48534e-09
1.79828e-08
-1.67449e-09
-1.91524e-08
1.40066e-08
-4.22214e-09
1.47712e-09
-1.92558e-09
-7.82383e-09
5.30102e-09
-9.89904e-09
-1.07806e-08
1.20528e-08
8.62686e-09
-5.72832e-09
-1.59262e-08
1.17555e-08
-8.92524e-10
-1.21478e-08
2.45083e-09
-7.60172e-09
-6.86221e-09
-4.53032e-09
-1.59428e-09
-1.65592e-09
4.88183e-09
9.35482e-09
-1.19218e-08
-1.19822e-08
3.46411e-09
-7.15773e-09
-2.39748e-08
1.2409e-08
2.1942e-08
-1.03763e-08
-9.13413e-09
-4.57876e-09
-1.02619e-08
-8.63802e-09
-1.96772e-08
1.91811e-08
1.07899e-09
-1.02735e-08
2.16035e-08
-9.44939e-09
-6.99827e-09
1.75266e-08
-8.27311e-09
2.73371e-09
-3.91006e-09
-1.25965e-08
-8.61955e-09
1.42178e-08
1.8956e-09
-8.46139e-09
-6.03074e-09
1.32317e-08
-8.80645e-09
-9.00406e-09
1.39802e-08
-6.8946e-09
-5.19002e-09
-4.25134e-09
9.61196e-09
-2.68222e-09
5.64035e-09
-7.9995e-09
-8.73501e-09
1.77101e-09
-1.84085e-08
8.24904e-09
-1.52845e-08
1.09577e-08
-9.60329e-09
4.02414e-09
1.35171e-08
4.73828e-10
-1.04396e-08
-3.55129e-09
4.33816e-09
9.38834e-10
8.2401e-09
6.40382e-10
-5.57077e-09
7.35438e-10
4.19492e-09
-6.74422e-09
1.80244e-09
5.58215e-09
7.19316e-09
-2.30726e-09
-1.04567e-08
-3.45877e-09
3.90773e-09
4.67178e-09
-1.29261e-08
1.25925e-08
-9.52737e-09
3.79356e-09
6.67264e-09
-6.97704e-09
-2.0765e-09
9.33052e-10
4.47416e-09
-9.54041e-10
-3.05889e-09
4.94598e-09
-3.84678e-09
4.69519e-09
1.39299e-09
-4.82514e-09
-2.66332e-11
-1.85921e-09
-4.36779e-09
-6.69912e-09
-4.44535e-09
-7.8535e-09
-4.7977e-09
3.36737e-09
-3.61059e-09
5.04091e-09
4.52045e-09
2.06329e-09
-1.13815e-08
-2.49208e-09
3.22675e-09