/*--------------------------------*- C++ -*----------------------------------*\
| =========                 |                                                 |
| \\      /  F ield         | OpenFOAM: The Open Source CFD Toolbox           |
|  \\    /   O peration     | Version:  v1612+                                |
|   \\  /    A nd           | Web:      www.OpenFOAM.com                      |
|    \\/     M anipulation  |                                                 |
\*---------------------------------------------------------------------------*/
FoamFile
{
    version     2.0;
    format      ascii;
    class       surfaceScalarField;
    location    "100";
    object      phi;
}
// * * * * * * * * * * * * * * * * * * * * * * * * * * * * * * * * * * * * * //

dimensions      [0 3 -1 0 0 0 0];

internalField   nonuniform List<scalar> 
41383
(
-6.71233e-09
2.47581e-09
4.34927e-09
-1.1276e-10
1.98204e-09
-5.84177e-09
6.34674e-09
-2.48701e-09
-1.16583e-10
-5.07523e-10
-4.25654e-09
4.88064e-09
-3.09139e-09
2.17469e-09
-5.69704e-09
6.61376e-09
-3.19735e-09
1.10213e-09
-8.53471e-10
2.94875e-09
-1.94874e-08
-7.26207e-09
1.00269e-08
1.67225e-08
-1.55684e-08
3.65888e-09
-7.57797e-09
1.32915e-08
1.27838e-09
-1.34277e-08
-1.14223e-09
-1.55919e-08
1.67298e-08
1.21536e-08
-2.26634e-08
1.14844e-08
3.91684e-09
-1.22658e-08
-2.5966e-08
-1.63356e-08
-8.93174e-09
2.89262e-08
-5.10632e-10
1.32734e-08
-1.63234e-08
1.0449e-09
-3.13385e-10
-1.1427e-08
-1.83242e-08
9.83169e-09
-3.35245e-08
-2.62577e-08
1.97538e-08
9.33147e-09
-1.9201e-09
1.12297e-08
-1.86411e-08
5.65394e-09
9.57952e-10
-5.80157e-10
-6.03175e-09
1.59249e-10
2.68216e-09
2.81253e-09
6.37489e-09
7.46259e-10
-6.1632e-09
3.3643e-09
3.16983e-09
-8.92579e-10
-5.97016e-09
8.90497e-10
5.97223e-09
-3.78582e-09
2.90927e-09
-1.60353e-11
3.03977e-09
1.33328e-11
-3.63326e-09
1.54074e-09
1.52758e-09
-2.85691e-11
2.95403e-09
-5.3449e-09
5.75517e-09
-1.70102e-10
9.77445e-09
-8.85809e-09
-2.09171e-09
-4.57815e-09
-8.05021e-10
9.8645e-10
-6.1516e-09
-4.57751e-09
-1.05742e-08
1.13906e-08
-4.19601e-09
3.36928e-09
-3.81323e-09
4.63999e-09
-1.00751e-08
1.28572e-11
5.86629e-09
-9.08865e-09
-3.67762e-09
1.05141e-08
2.25213e-09
-2.71543e-10
-4.71685e-09
-4.10025e-09
-7.99902e-09
-5.38236e-09
6.42892e-09
6.95249e-09
-4.9285e-09
3.71044e-09
9.84581e-09
-8.62774e-09
9.87748e-10
9.61187e-13
-5.91718e-09
7.37854e-11
1.47887e-09
2.15783e-09
-7.17865e-09
3.19013e-09
4.06233e-09
-4.08091e-09
-3.93325e-09
-2.98156e-09
2.06602e-09
4.84881e-09
-3.33523e-09
-1.38845e-09
7.90445e-10
1.69163e-09
-3.03828e-09
-1.98856e-09
-1.26054e-09
-2.93812e-11
-4.01158e-09
2.57358e-09
4.9561e-11
6.64514e-09
1.50496e-09
-2.20611e-09
-5.94395e-09
-4.22994e-09
3.02396e-09
7.85113e-09
-2.88907e-09
1.64098e-10
-3.85913e-10
-3.8286e-09
2.02936e-10
-3.17122e-09
-2.5297e-10
4.52782e-09
-5.58589e-09
3.63167e-09
9.6178e-09
-3.79798e-09
-3.51606e-10
-2.44356e-09
1.87979e-09
-3.26481e-09
-1.78027e-10
-5.43675e-09
-6.99166e-09
3.01566e-09
-2.30321e-09
-1.40289e-09
-9.65505e-09
2.32896e-09
5.66089e-09
1.6652e-09
-2.60593e-09
3.09815e-09
-1.01473e-08
3.09317e-09
-1.44744e-09
-1.66391e-09
1.81229e-11
1.10727e-09
-2.85056e-09
5.59349e-10
-8.46193e-09
5.29663e-09
-1.01288e-08
4.70427e-09
7.75348e-09
9.31915e-10
-7.96259e-09
-2.77463e-09
1.41951e-09
-9.23761e-11
1.62661e-09
-3.84189e-09
-5.24871e-09
2.74911e-09
7.20384e-09
-7.60257e-10
-3.55657e-09
-3.61925e-09
-3.23798e-09
4.10433e-09
2.5723e-09
-1.58586e-10
4.34335e-09
-6.75705e-09
-2.39383e-10
5.53781e-09
-2.72611e-09
-1.72164e-09
-2.58172e-09
9.02432e-10
3.40094e-09
-4.53067e-09
4.17164e-10
2.39191e-09
-1.81792e-09
3.82232e-09
-2.24376e-09
3.0329e-09
-5.0094e-09
-1.38905e-09
3.58507e-09
2.14734e-09
4.83257e-09
-6.83795e-10
-4.68585e-09
-7.18624e-09
3.5829e-09
8.28923e-09
-4.1032e-09
-1.13496e-09
5.52333e-10
-6.45687e-09
1.29583e-09
-2.24142e-09
-1.42499e-09
1.39095e-10
-1.33188e-09
-1.94463e-09
4.17897e-09
2.66822e-09
5.53174e-10
4.41886e-09
-1.1497e-09
3.43907e-09
1.47007e-10
2.93508e-09
3.48817e-10
-2.0555e-09
3.04596e-09
-4.14105e-11
5.87797e-09
3.33355e-09
-2.40131e-09
-6.81022e-09
-6.63121e-10
5.40673e-09
1.13435e-09
4.42354e-09
-2.32329e-09
2.85662e-09
-4.95688e-09
3.36181e-09
3.98599e-10
-4.35882e-09
7.43945e-09
2.32607e-09
-1.67351e-12
-1.02362e-09
-6.29266e-09
1.56806e-09
-2.61781e-09
3.6593e-09
2.3203e-09
2.68192e-10
-2.94053e-11
3.33483e-09
-7.39079e-10
-2.59743e-09
-3.02415e-09
1.85884e-09
4.50013e-09
-2.7642e-09
8.226e-12
5.61918e-09
-1.74079e-09
3.87509e-09
1.4736e-09
1.78318e-10
-9.61454e-09
9.71547e-09
-9.32365e-09
1.08177e-09
3.15631e-09
4.91882e-09
3.05586e-09
5.72887e-09
-6.63121e-09
1.08066e-09
4.3594e-09
-2.1871e-09
-6.44195e-10
6.53369e-09
6.53429e-09
-1.24238e-08
4.42963e-09
3.94966e-09
-9.0235e-09
4.90945e-09
3.87957e-09
-4.07769e-09
7.37482e-09
5.75703e-09
-4.30483e-09
-6.73246e-09
5.28026e-09
1.73426e-09
-4.12259e-09
8.14537e-09
-1.61553e-09
3.7933e-09
-5.44004e-09
3.26225e-09
-1.03058e-09
3.87373e-09
-2.72751e-09
-1.15633e-10
-8.8215e-09
2.90116e-09
-2.30548e-09
7.83303e-09
3.63958e-09
-9.60207e-10
-3.03764e-09
3.58295e-10
-2.95625e-09
-2.3094e-09
2.96017e-09
-1.01443e-09
-5.45619e-09
4.42797e-09
2.70798e-09
-3.31094e-10
1.47523e-09
-6.40078e-09
7.0607e-09
-2.13514e-09
4.44645e-09
-2.90422e-09
-6.70056e-11
-2.98799e-10
-5.09807e-09
-1.00392e-09
-3.08108e-09
7.60364e-10
6.76719e-09
-2.56188e-09
6.5415e-09
-7.99601e-09
5.06651e-09
1.25052e-09
1.67898e-09
-6.68261e-09
3.44862e-09
-4.76203e-09
8.82532e-09
-7.18692e-09
-1.9372e-09
-9.3494e-10
3.12256e-10
-4.4754e-09
4.59558e-09
1.66787e-09
4.05658e-09
-4.3686e-10
-4.55466e-09
1.29407e-09
-1.41706e-10
1.09783e-09
-8.21731e-09
-4.70414e-09
4.58663e-09
5.18403e-09
3.85573e-11
-1.10475e-09
-5.76993e-09
-8.85726e-09
3.19838e-09
6.90939e-09
-8.86417e-09
7.99622e-09
-2.64922e-09
4.75937e-09
1.15432e-09
5.32012e-09
6.20304e-09
3.56618e-09
-1.25235e-08
2.75437e-09
-1.23276e-08
4.85241e-09
1.66778e-08
-9.20258e-09
-8.59236e-09
-1.36303e-10
-3.59892e-09
3.65599e-09
-6.10636e-09
-6.14195e-09
1.56595e-08
-7.18764e-09
-4.81591e-09
-1.03328e-09
1.67351e-08
9.8202e-09
-2.5522e-08
9.8819e-09
4.74436e-09
1.36382e-08
1.00427e-08
3.25462e-09
-1.24855e-08
1.79889e-08
7.35577e-09
-3.92861e-09
-4.82834e-09
4.8371e-09
3.91991e-09
-4.15521e-09
3.17101e-10
-9.04581e-11
3.52194e-09
2.86662e-10
-7.00611e-11
-3.73853e-09
2.67659e-09
9.16749e-10
-7.13578e-11
-4.49462e-09
7.15748e-10
-1.04945e-09
-3.82993e-09
-4.81991e-09
3.01641e-09
-2.27145e-11
2.35384e-09
-5.78789e-09
5.67142e-09
-2.23735e-09
3.29668e-09
-2.6083e-11
5.07828e-10
-6.00903e-09
-1.83705e-10
1.02532e-08
-9.56168e-09
-3.12455e-10
-7.21767e-09
7.34643e-09
-4.21244e-09
1.09492e-09
1.11605e-09
1.07346e-08
-1.29456e-08
9.00789e-09
-3.24129e-09
4.48661e-09
-9.67177e-09
1.62906e-09
9.13766e-09
-2.01555e-09
-6.94044e-09
5.21531e-10
5.94465e-09
-5.77893e-10
4.11585e-09
-2.67477e-09
3.21312e-09
2.75834e-09
6.87244e-10
5.57254e-09
1.06332e-09
5.62528e-09
3.69855e-09
-1.69988e-08
1.2956e-08
-2.61584e-09
6.6586e-09
9.48343e-09
-1.7006e-08
-9.47616e-09
1.13479e-08
-5.32953e-11
1.56632e-09
-1.28608e-08
1.22188e-08
3.71138e-09
-4.58225e-09
-5.62735e-09
1.22448e-08
5.60139e-09
-2.01133e-08
4.67082e-09
2.83985e-08
-1.40986e-08
3.4687e-09
1.94722e-08
2.69708e-09
-2.22225e-08
-2.53707e-10
1.06804e-09
-1.5377e-08
9.18499e-09
1.17999e-09
-8.79866e-09
1.26919e-08
2.04459e-10
4.24556e-10
-1.21082e-08
3.23222e-09
8.45147e-09
3.39751e-09
9.27179e-09
-1.22427e-08
6.42211e-09
3.20475e-09
-9.99466e-09
2.82489e-09
-2.24119e-09
-1.89561e-09
9.96394e-09
7.57814e-09
1.66885e-09
8.91475e-09
8.4012e-10
-1.04828e-08
6.87024e-09
2.77245e-09
-4.05144e-09
7.93178e-09
1.83849e-09
-5.71882e-09
9.01817e-09
-1.22295e-08
1.17348e-08
1.35843e-09
-4.07501e-09
1.11868e-09
-3.5632e-09
-3.18531e-09
5.62981e-09
-5.43489e-09
-2.60974e-09
9.16331e-09
4.05306e-09
-1.04003e-08
2.78404e-09
-8.16669e-09
6.78485e-09
-5.03412e-10
4.07148e-09
5.05851e-09
2.36986e-09
7.69329e-09
-3.9881e-09
-1.8667e-09
3.29979e-09
8.61598e-09
-2.00108e-09
-9.91468e-09
-4.10629e-09
7.25125e-09
1.54826e-10
-2.21206e-09
-6.82977e-09
-2.46417e-09
4.91294e-09
6.18308e-09
-2.59608e-09
-2.10234e-09
3.86148e-09
6.85684e-09
5.12638e-10
4.63626e-09
4.23155e-09
9.11824e-09
-8.44205e-09
-3.7819e-09
2.49299e-09
-2.30777e-09
3.59667e-09
-6.65873e-09
9.52156e-10
1.92465e-09
9.858e-10
-3.68713e-09
-4.00298e-09
6.70432e-09
-2.34326e-09
5.82205e-09
7.85742e-10
-1.69682e-09
-5.74768e-09
-7.61874e-09
3.63028e-09
4.9406e-09
-4.81108e-09
5.47906e-10
1.9554e-09
-4.60766e-10
-3.56459e-09
-6.10606e-09
2.96683e-09
3.5439e-09
-5.42088e-09
-4.2291e-09
-2.33765e-09
1.87855e-09
-1.92993e-10
-9.12258e-09
-1.23104e-09
-4.65062e-09
-5.73211e-09
1.61492e-09
1.7795e-09
-7.15615e-09
9.50493e-10
2.77078e-08
-1.61604e-08
-1.2498e-08
2.29826e-08
-1.27831e-08
-9.24912e-09
-1.66162e-08
2.06819e-08
1.8917e-08
1.5553e-08
-4.46142e-09
4.8559e-09
9.62079e-09
-3.06371e-08
1.10605e-08
-1.89877e-08
2.26875e-09
2.20176e-09
1.62113e-08
-1.8493e-08
3.12616e-09
1.76356e-08
-4.07828e-09
1.13823e-09
1.74577e-08
-1.42191e-08
7.82192e-09
1.63161e-08
-1.89498e-08
-8.30752e-09
1.09411e-08
-9.00037e-10
2.03423e-08
3.24252e-09
1.64169e-08
-1.98298e-08
-3.19824e-09
-1.88789e-08
8.66991e-09
1.41657e-08
-1.0075e-09
-2.14658e-08
1.65082e-08
2.15953e-08
3.70547e-08
-2.04521e-08
-3.81979e-08
2.18661e-08
2.56709e-09
-2.83786e-09
-4.05826e-08
3.02635e-08
3.21852e-08
1.96018e-08
-2.31298e-08
-1.52072e-08
2.07422e-08
1.05846e-08
-1.61197e-08
5.27416e-09
-1.06648e-08
-9.81656e-09
4.15623e-08
-6.43267e-09
-1.55278e-08
1.33154e-09
5.04072e-09
3.519e-08
4.81076e-09
-3.43684e-08
9.10559e-09
4.51491e-09
2.70801e-08
-1.16169e-08
1.68454e-08
1.55137e-08
-2.83723e-08
5.34603e-09
2.80669e-08
-1.92243e-08
-1.55806e-08
-2.90196e-08
1.28376e-08
4.56505e-09
-5.78261e-09
-1.79628e-08
-1.22519e-08
1.98478e-08
5.24167e-09
1.91398e-08
-2.55306e-08
-5.86112e-09
5.39443e-09
1.90914e-08
4.5204e-10
2.47902e-08
2.18124e-08
9.92504e-09
-2.43386e-08
-2.13882e-08
1.0749e-08
1.78046e-08
-6.84746e-09
-2.17062e-08
2.10119e-08
-3.5005e-09
-6.76243e-09
4.96772e-10
-3.41647e-10
2.08568e-08
2.64192e-08
-4.31482e-09
-4.29963e-09
2.7311e-08
-3.95035e-10
-8.44493e-09
1.45144e-08
-9.56992e-09
1.05235e-08
-2.58159e-08
4.09203e-11
-1.24083e-08
1.20257e-08
-1.32908e-08
-5.88888e-09
1.48649e-08
5.20191e-10
-1.65321e-08
1.60529e-08
-1.55723e-08
1.54808e-08
6.11736e-10
7.73048e-09
-5.62433e-09
8.5766e-09
-1.65128e-08
-7.6361e-09
-2.25052e-10
-1.92801e-08
-1.10453e-09
3.33171e-09
2.01294e-09
-4.2401e-09
1.34926e-09
-2.33321e-09
-1.20596e-10
3.03675e-09
-2.96394e-09
3.25889e-09
-1.99335e-09
-1.21746e-09
-6.82802e-10
3.86305e-11
-2.37794e-09
-3.55975e-09
1.22108e-09
-1.9263e-09
2.23345e-11
2.70639e-09
1.45054e-09
-5.01432e-09
8.57308e-10
4.33165e-09
-9.88566e-10
-6.36703e-10
-3.43424e-09
2.27737e-09
3.33887e-09
-1.97118e-09
-9.38929e-10
7.18022e-10
4.11234e-09
-4.5881e-09
-2.60828e-10
2.1335e-09
-3.95777e-09
-9.06271e-10
2.7305e-09
-3.62682e-09
4.40891e-09
1.35139e-09
1.66327e-09
-4e-09
-1.62107e-09
-1.98563e-09
2.20655e-11
-2.71018e-09
-7.74759e-09
8.08148e-09
2.37624e-09
-8.97615e-09
5.35967e-09
8.84972e-10
-4.56926e-09
-9.38123e-10
4.62237e-09
-2.37028e-09
3.28929e-09
-3.40479e-11
-1.84186e-09
-5.30618e-10
-5.37512e-09
-1.77568e-09
-9.04234e-09
-1.43414e-09
-6.17029e-09
2.27559e-09
5.32882e-09
-6.67083e-09
6.67418e-10
-4.20372e-09
-1.5221e-10
-4.00734e-10
-5.37494e-09
-2.33254e-09
-4.36836e-09
-1.39646e-09
-7.60691e-09
-6.00092e-09
-4.79863e-09
-3.17321e-09
1.67491e-08
-8.77725e-09
-2.48835e-09
9.06351e-09
-1.13738e-08
-3.51413e-09
8.04028e-09
-7.69937e-09
3.1216e-09
-9.12408e-09
2.24696e-09
7.86219e-09
6.63991e-09
1.53701e-08
4.95014e-09
-1.12568e-08
8.99394e-09
8.62311e-09
8.38868e-09
2.38657e-09
-2.73498e-09
6.68743e-09
9.56345e-09
-7.84844e-09
3.8456e-09
1.29968e-08
-1.86242e-09
-1.03589e-09
-6.51482e-09
-2.09556e-10
1.34118e-08
-7.53911e-09
-2.32378e-09
3.34806e-09
-3.93371e-09
-1.21884e-09
4.76965e-09
4.9426e-09
-6.59065e-09
3.66949e-09
-7.62272e-10
-3.80536e-09
7.4414e-09
-6.12789e-09
-1.24545e-12
3.45502e-09
-2.44613e-09
9.96622e-10
1.12082e-09
-1.15752e-09
4.2191e-09
-8.85388e-12
4.04911e-09
6.21611e-10
5.05108e-09
-1.43122e-09
5.27486e-09
6.28371e-09
-1.32426e-08
1.2504e-08
-1.49691e-09
2.23556e-09
1.7433e-08
-2.07117e-08
-1.34297e-08
2.17777e-08
4.15594e-09
-2.32907e-09
6.33244e-09
-8.91807e-09
7.98445e-10
6.62274e-09
-4.61378e-09
-6.32588e-09
6.92768e-09
4.01202e-09
-8.02106e-09
-4.96969e-10
3.90428e-09
-6.86596e-10
6.83296e-10
1.48051e-10
9.2283e-09
-1.04574e-10
8.4183e-09
1.81236e-10
5.73354e-10
-2.89343e-10
4.19704e-09
5.63683e-09
-1.53347e-08
5.50086e-09
6.36298e-09
-4.47571e-09
2.3098e-09
-1.47115e-08
9.57903e-09
7.91655e-09
4.50989e-09
-9.02754e-09
6.22255e-09
-1.70491e-09
-2.87144e-09
9.84913e-09
-2.46781e-09
8.63237e-09
-5.20756e-09
-8.11789e-09
-1.08015e-09
-4.09686e-09
1.32949e-08
-1.41971e-08
-7.22569e-09
9.46769e-09
-3.32215e-09
1.02453e-08
-1.1108e-08
-7.32179e-09
7.76193e-09
2.18233e-09
7.41225e-10
-9.53953e-09
1.22979e-08
1.76104e-09
-5.12019e-09
4.52506e-09
-1.7751e-09
2.3702e-09
-2.38368e-09
-3.86652e-09
1.13e-09
-4.39635e-09
2.75978e-09
6.50785e-09
-4.87132e-09
2.85841e-09
3.63101e-09
-1.96438e-09
2.51215e-09
-3.51046e-09
-1.38538e-09
7.5267e-10
-1.56281e-11
2.97721e-09
-2.2703e-09
4.57511e-11
-3.15067e-09
1.59804e-09
4.52983e-09
-5.89215e-10
1.42987e-09
-3.99136e-09
6.5976e-09
-7.56701e-09
-2.14636e-09
3.11576e-09
1.61203e-09
7.21622e-09
6.25883e-09
-3.00298e-09
-3.47321e-09
2.17348e-10
-2.64416e-09
5.41501e-09
3.48798e-09
3.23012e-09
-2.58236e-09
4.41394e-10
1.44558e-10
-5.55273e-09
9.20455e-09
1.76319e-09
-3.45442e-09
-1.05511e-08
8.45281e-09
2.48858e-09
-2.33396e-09
2.86774e-10
2.4947e-09
6.32865e-10
1.60603e-09
-7.05383e-09
1.99336e-09
3.99645e-09
-2.50846e-09
2.17108e-09
-3.65908e-09
5.23492e-10
4.45279e-09
-9.79851e-10
3.02929e-09
-1.72321e-11
6.6405e-09
2.12442e-09
-4.31214e-09
1.75471e-09
6.73048e-09
-1.04415e-08
1.95627e-09
1.14344e-09
5.94851e-09
-5.33726e-09
7.51812e-09
-3.68669e-09
-2.68801e-09
-2.01228e-09
7.16695e-09
2.80272e-09
-7.95741e-09
5.52237e-09
-8.0417e-10
5.98329e-09
4.56151e-09
-3.02671e-09
1.91307e-09
-4.37023e-09
8.4404e-09
8.54746e-09
-4.79764e-09
8.11669e-10
-3.91778e-09
1.43783e-08
-9.13094e-10
3.7098e-09
7.73841e-09
-7.35913e-09
-5.17693e-09
-4.27708e-09
8.09771e-09
2.356e-09
-3.76663e-09
6.89278e-09
9.85575e-10
1.7026e-09
-3.04356e-09
-4.2423e-10
6.01362e-09
-2.54584e-09
-3.87429e-10
9.40545e-10
2.32196e-09
-4.23391e-09
2.38084e-09
-4.68892e-10
1.57838e-09
-2.07362e-09
2.8172e-09
-1.55302e-09
2.70717e-09
-2.04543e-09
1.04987e-10
1.50877e-09
-2.77584e-09
-3.11792e-10
-2.53054e-10
-4.01816e-10
3.6545e-09
-9.90337e-10
-4.86982e-09
2.20565e-09
2.67744e-09
9.52125e-10
2.48997e-11
5.03747e-09
2.84541e-09
-5.20545e-09
7.71728e-10
1.53568e-09
3.23027e-09
-5.5377e-09
1.89357e-09
3.91562e-09
1.65331e-09
3.61603e-09
-6.25966e-09
-2.42529e-09
5.84114e-09
5.40433e-10
-3.95626e-09
6.04452e-09
-6.8165e-09
-2.71075e-09
3.54683e-09
1.16047e-10
1.19166e-09
-4.06166e-09
4.40567e-09
-2.16356e-09
5.24878e-09
4.43359e-09
-3.52831e-09
-4.18987e-09
5.96935e-09
4.37658e-10
1.41699e-09
-3.46152e-09
4.84479e-09
1.40973e-09
-1.36275e-09
-1.21108e-08
1.16817e-09
1.23053e-08
-1.22562e-08
6.9456e-10
1.01989e-08
-1.53497e-08
-1.14167e-08
1.45102e-08
1.76216e-09
-1.25914e-08
-4.52049e-09
-7.95354e-09
-2.39505e-09
7.86541e-10
-7.54221e-09
7.45022e-09
-7.83521e-09
9.78991e-09
-6.33795e-09
1.10711e-08
1.02894e-09
-5.76209e-09
6.0991e-09
-5.10002e-09
-7.33702e-09
9.71565e-09
-7.16562e-09
-3.18706e-09
6.37036e-10
-7.7935e-09
9.96692e-09
8.54752e-09
-8.88278e-09
-6.83036e-09
4.15253e-11
7.12521e-10
9.3845e-09
-2.28508e-09
-1.00032e-09
-8.2302e-09
9.77948e-09
-1.23862e-08
1.01104e-09
-1.54699e-08
-9.50767e-09
-3.46164e-10
-8.28078e-09
1.04632e-09
-1.64827e-09
-2.51115e-09
-7.72747e-09
-2.63561e-10
1.29658e-08
-1.30943e-08
3.92053e-10
-8.44703e-09
1.61874e-09
-4.70686e-09
1.15352e-08
-5.24776e-11
-3.02422e-08
2.97755e-08
5.19153e-10
-1.98619e-08
1.95458e-08
-1.31436e-08
-1.22659e-08
1.69626e-08
2.30713e-08
-1.35016e-08
-7.9509e-09
2.35097e-08
-1.16389e-10
-3.22006e-10
4.54428e-09
-1.57304e-08
-1.90561e-08
-6.16603e-09
-9.15158e-09
1.68563e-08
-1.50795e-08
-1.75071e-08
-2.18804e-08
7.60422e-09
3.11325e-08
1.13652e-08
-3.96651e-09
-2.05423e-08
-5.8694e-09
1.10686e-08
1.51264e-08
-3.41725e-08
-2.02556e-08
1.03516e-09
-1.85215e-09
-1.34114e-08
1.42284e-08
-8.57775e-09
-1.08596e-09
1.06989e-08
8.49295e-09
4.79064e-09
4.04985e-09
-1.73334e-08
-9.855e-09
9.77021e-09
-8.00253e-09
-3.14574e-09
1.29328e-09
7.31443e-10
-1.28908e-08
1.03073e-08
-7.66876e-09
7.31425e-09
-1.82932e-08
9.67241e-09
-4.70032e-09
-1.36149e-08
2.21082e-11
-3.69131e-09
-8.52732e-09
4.21611e-09
1.31735e-08
-1.53155e-09
5.67433e-09
-1.73163e-08
1.13311e-09
1.15731e-08
4.67395e-10
-8.41896e-09
8.58816e-09
9.6392e-10
1.73235e-09
-1.16828e-08
-6.18762e-09
7.10703e-09
-9.95685e-09
6.23504e-10
-9.52015e-09
8.20242e-09
-8.54616e-09
-1.19158e-08
-9.8025e-09
-1.65953e-08
2.32464e-08
3.15135e-09
-2.25805e-09
6.39531e-09
-1.39397e-08
5.75724e-09
-1.93969e-08
1.13816e-08
-1.08727e-08
-2.06216e-08
1.4899e-08
-1.69903e-08
2.62509e-08
-7.75426e-09
-1.50634e-09
-1.62387e-08
1.60061e-08
-1.67578e-08
1.18137e-08
3.5645e-09
2.22954e-08
1.5087e-08
-2.55687e-08
-5.05374e-09
-7.05831e-09
1.85074e-08
-2.24263e-08
-1.05993e-08
-1.15527e-08
1.53046e-09
-4.24758e-09
-1.4106e-08
-6.85922e-09
-2.92128e-08
1.66751e-08
3.75246e-09
-2.25019e-08
1.18902e-08
1.5924e-09
1.80341e-08
-1.98632e-08
2.36603e-10
1.21944e-09
-2.88399e-08
-7.45829e-09
6.48488e-09
8.18022e-09
1.79103e-09
-1.64561e-08
2.17666e-08
2.01301e-08
-3.54118e-08
1.29831e-08
1.66107e-08
-6.42393e-09
-2.31698e-08
1.86831e-08
1.14255e-08
-1.71255e-08
-5.36189e-09
3.42573e-08
-1.02123e-08
2.33952e-08
-1.21464e-08
1.91882e-08
-3.60205e-08
1.04084e-08
2.72099e-08
-6.29287e-09
1.24476e-08
2.81026e-08
4.13319e-09
1.29691e-08
-2.97254e-08
-2.24327e-09
3.39648e-08
-1.99613e-09
1.03782e-08
-2.09154e-08
2.37776e-08
-4.25428e-09
3.88899e-09
3.57685e-08
-1.1685e-08
9.67393e-09
3.59759e-08
2.82637e-09
3.73406e-08
-1.41419e-08
1.54236e-09
-7.20914e-09
1.98087e-08
-8.15667e-09
-1.07103e-08
4.72517e-09
-1.4058e-08
-7.81633e-09
2.34166e-08
1.24731e-08
-1.10982e-08
-9.53152e-09
3.19651e-10
4.94424e-09
-1.83429e-09
1.67193e-08
1.87446e-09
-1.67595e-08
1.59389e-08
1.62589e-09
-1.93991e-08
-2.82889e-09
-1.23247e-08
1.09566e-09
-1.04067e-08
-3.13251e-09
-1.35799e-08
6.08321e-09
1.24412e-08
-8.82696e-09
7.82663e-10
-8.44107e-09
-2.38952e-10
-5.26499e-09
-3.2257e-09
8.72966e-09
-3.88107e-09
-2.41608e-09
6.05821e-09
-6.8882e-09
1.15429e-08
-9.91958e-09
-3.67523e-10
7.8972e-10
-7.31026e-09
-3.87857e-09
-4.16062e-09
4.15817e-09
-4.9195e-09
6.73464e-10
-3.14121e-09
5.12311e-09
-5.13786e-09
3.15595e-09
1.00254e-10
-2.96478e-09
-2.76643e-10
7.92155e-10
1.9149e-09
-6.2114e-09
3.77785e-09
3.71576e-09
-4.16996e-09
-4.46527e-09
-3.44602e-10
-4.25317e-09
5.12978e-10
-1.39764e-09
-3.58035e-09
-3.63759e-09
-6.08305e-09
4.46972e-09
-1.92928e-09
3.54273e-09
-1.48217e-09
-1.1735e-08
7.13415e-09
-1.2287e-09
-9.23246e-09
-4.05549e-09
2.43583e-09
8.40452e-09
1.09879e-09
7.32654e-09
-1.24808e-08
6.66178e-09
1.17049e-08
-1.72679e-08
4.3709e-09
1.2851e-08
-1.05601e-08
1.3333e-08
-6.5263e-09
6.92277e-09
6.9841e-09
-6.58032e-09
-4.88551e-09
1.36319e-08
-1.82365e-09
-6.07893e-09
9.59795e-09
-2.55973e-09
2.44791e-09
-7.96678e-09
8.07862e-09
2.8741e-09
-1.59927e-08
1.05589e-08
-4.19904e-09
1.39023e-08
-7.25536e-09
-1.94133e-08
1.80884e-08
1.56193e-08
5.07324e-09
-8.98755e-09
1.88331e-08
9.63712e-09
-3.98493e-09
1.52605e-08
2.05742e-09
6.4624e-09
6.54129e-09
6.28237e-10
2.46182e-09
-1.49864e-08
-3.46816e-09
9.57429e-10
-7.39455e-10
1.59262e-10
-2.92906e-09
8.01444e-09
9.26419e-10
-3.75322e-10
-8.56554e-09
-5.64761e-09
8.89458e-09
4.76745e-09
4.04887e-09
-1.90701e-10
-9.50581e-09
-1.09896e-09
-1.44945e-09
1.1443e-08
-7.97582e-09
-2.27296e-09
9.14979e-09
5.13254e-10
-4.44022e-09
1.94667e-08
-9.72531e-09
-1.86475e-08
8.9062e-09
1.48349e-08
7.01443e-10
3.9303e-09
-1.16919e-08
-2.97707e-09
1.32195e-08
-1.07393e-08
-2.61937e-11
-7.60859e-10
6.67509e-09
-8.18721e-09
1.17335e-08
1.92421e-08
-1.61407e-08
1.29424e-08
-1.89659e-08
-3.7018e-09
2.90461e-09
7.99553e-09
8.49463e-09
5.4429e-09
-2.05352e-09
3.58689e-09
-1.13136e-09
6.03908e-09
8.44154e-09
6.5294e-09
-9.52805e-09
2.31598e-10
1.17968e-08
-1.98947e-09
1.60208e-09
6.91676e-09
1.10004e-08
4.24223e-10
-7.57604e-09
-3.84855e-09
9.01451e-09
-3.99741e-09
5.98333e-09
-1.67854e-08
1.07027e-08
-6.27533e-09
1.2358e-08
-1.08462e-08
-5.51497e-09
4.93373e-09
1.47835e-08
9.86276e-09
-7.36393e-09
-1.00748e-08
3.8265e-09
2.03888e-09
1.89344e-08
-1.17352e-08
-1.80453e-08
5.7415e-09
6.91755e-09
-7.38513e-09
-8.22383e-09
4.85822e-09
1.07508e-08
-4.43534e-09
8.76725e-10
-1.85453e-08
-1.68093e-09
1.01332e-08
1.00931e-08
-3.72244e-09
1.58367e-09
-1.64065e-08
-3.27461e-10
-1.51302e-08
1.61366e-08
-1.67968e-09
-1.28732e-08
6.94499e-09
7.51072e-09
-9.07103e-09
7.79222e-09
-1.1577e-08
-1.92932e-09
-7.37301e-09
1.7165e-08
2.50228e-09
-1.01936e-08
8.50174e-09
-1.07544e-08
8.5757e-09
-6.44939e-09
1.35897e-10
-2.26217e-09
-9.05841e-10
6.43992e-09
3.04166e-09
-1.42174e-08
-4.6651e-09
5.43991e-09
1.34427e-08
1.04203e-08
-1.78438e-08
-6.7938e-09
1.61252e-09
4.14267e-09
1.58458e-09
4.89382e-09
-2.10891e-09
-4.36947e-09
-4.06666e-09
9.90873e-10
4.66037e-09
1.45471e-09
-6.4272e-09
2.82089e-09
3.6855e-09
-6.52157e-09
1.13041e-08
6.57458e-10
5.35732e-10
-6.17376e-10
-3.91371e-09
-1.01849e-09
6.55699e-10
4.27647e-09
-2.4873e-09
-1.5317e-09
1.05269e-10
-2.83588e-09
7.20146e-09
-1.20255e-11
-4.35363e-09
1.04419e-08
-1.0477e-08
-2.80081e-09
7.29066e-09
1.03527e-08
2.27127e-10
1.0268e-09
5.64329e-09
-6.89729e-09
-5.00568e-09
5.15257e-09
1.37777e-10
-2.84692e-10
1.5095e-09
-7.51332e-09
9.98114e-10
-5.62459e-09
4.83322e-09
-2.95932e-09
-2.27824e-09
4.39698e-09
-4.87197e-09
2.75318e-09
-3.71618e-09
-9.37918e-11
-6.69155e-10
5.72181e-09
7.6483e-09
1.86313e-09
-4.06983e-09
-3.0209e-09
1.58405e-08
-1.02603e-08
1.49186e-08
-2.04988e-08
2.54103e-08
-4.89061e-09
-4.67914e-09
4.03839e-09
6.18432e-09
5.26568e-09
-1.54884e-08
7.68039e-09
1.02703e-08
-5.83901e-09
1.04873e-08
-1.95616e-09
3.76368e-08
-1.20868e-08
1.51162e-08
-7.92006e-09
4.44239e-09
-7.01818e-09
8.76009e-09
5.14181e-09
-1.19629e-08
-6.98405e-09
2.01441e-08
1.46538e-08
-5.06959e-09
3.56295e-09
4.15689e-09
-1.35589e-08
1.12327e-08
3.15638e-09
-4.10966e-09
-3.03827e-09
3.99154e-09
-2.51159e-09
-6.81613e-10
6.34959e-09
-3.97728e-09
3.38059e-09
-8.60949e-10
3.96234e-11
1.01971e-09
3.39577e-09
1.92427e-09
-6.33972e-09
3.37839e-09
-6.46832e-09
-5.61588e-09
8.71212e-09
-3.86583e-09
-3.33844e-11
-7.00326e-09
4.78317e-09
-6.33795e-09
-1.89399e-09
-4.45672e-09
-8.06765e-10
1.47429e-08
9.40123e-09
-6.25492e-09
-1.78892e-08
2.04181e-08
-7.3063e-09
1.63113e-09
1.76878e-08
5.04708e-09
-1.33336e-08
-3.98017e-09
2.10792e-08
5.8871e-10
2.00982e-08
-3.66034e-09
-1.55536e-08
1.638e-08
-8.1326e-09
5.93983e-09
-2.77484e-08
6.4915e-09
-4.33052e-10
1.50208e-08
5.13441e-09
2.14553e-08
1.36774e-08
-1.37313e-09
4.07568e-09
2.10386e-08
-4.53586e-09
-1.14556e-08
1.46197e-08
5.98589e-09
-3.54033e-10
1.91658e-08
-1.29433e-08
1.7715e-08
-5.1257e-09
6.11909e-09
-2.01819e-08
1.11954e-09
1.07969e-08
1.86526e-08
-1.47287e-08
2.09898e-08
4.26688e-09
-6.5538e-09
-1.65557e-09
3.94248e-09
-5.87333e-09
2.13808e-10
-6.02947e-09
7.24645e-09
5.41046e-09
-6.62744e-09
4.06037e-09
-6.40644e-11
-1.00258e-08
-4.98111e-09
-4.12293e-09
3.23071e-09
-6.69838e-09
-4.83653e-09
-1.90109e-09
-2.7575e-09
4.87239e-09
-4.18668e-09
6.30024e-10
2.5914e-09
1.49456e-09
-2.56288e-11
5.24733e-09
4.59052e-09
2.95289e-09
4.13799e-09
-7.15494e-09
3.95222e-09
4.95225e-10
1.20291e-09
-1.43738e-09
-6.19894e-09
7.03487e-10
-3.4377e-09
7.84046e-09
1.00769e-09
-5.49865e-09
4.29289e-09
-5.75361e-10
6.78272e-09
5.78982e-09
8.08329e-09
5.05179e-10
9.55635e-09
5.12719e-09
-8.89371e-09
-7.79807e-10
8.19478e-09
6.68334e-10
9.00808e-09
-2.3152e-10
1.67293e-09
-1.2214e-08
2.5215e-09
8.01951e-09
-1.05768e-08
9.33236e-09
2.91734e-09
-3.70325e-09
1.02495e-08
-1.41907e-09
6.64155e-09
8.88928e-09
-1.50256e-08
9.06462e-09
-6.12631e-09
8.54073e-09
-3.78597e-09
4.25332e-09
7.24601e-10
-4.74381e-09
-6.83596e-09
-3.01622e-09
8.83642e-09
2.22581e-09
7.30804e-09
-8.445e-10
1.68465e-09
3.68674e-10
7.94595e-09
2.80331e-09
1.13962e-09
5.61043e-09
5.57952e-10
6.76151e-09
2.32404e-09
-1.23555e-09
1.20183e-09
1.21502e-08
6.64515e-09
-3.06615e-10
1.56353e-08
-4.33632e-09
-4.65381e-09
3.93291e-12
7.24806e-09
8.38326e-09
3.58665e-09
-7.68316e-09
4.10042e-09
4.18636e-09
5.62276e-09
3.41011e-09
-4.94812e-09
-1.46615e-09
1.00009e-08
-9.19091e-09
1.14908e-08
-1.01742e-08
5.86738e-09
8.49318e-09
4.33315e-11
8.27878e-09
-8.45724e-09
1.28585e-08
1.50989e-08
1.24268e-08
-1.23328e-09
7.87493e-09
-1.80022e-08
-2.25252e-08
1.86464e-09
1.74623e-08
-8.30285e-09
5.73396e-09
-1.99563e-08
5.30257e-10
-7.29358e-09
-4.79892e-09
1.15623e-08
-8.67744e-09
-5.87715e-09
1.50849e-08
-4.44376e-09
-2.16584e-08
1.74247e-08
7.40729e-09
-2.32763e-08
1.14253e-08
-1.5091e-08
1.27792e-08
4.17648e-09
2.33332e-11
-2.34172e-08
-1.05513e-08
1.28056e-08
1.52081e-08
2.00813e-08
-1.37386e-08
-6.08772e-10
1.13889e-09
8.3911e-09
-9.51015e-09
9.62387e-09
-6.01302e-10
-1.02838e-08
6.08625e-09
6.32717e-09
-1.68392e-09
-1.27547e-08
-8.83773e-09
-1.05631e-08
1.14941e-08
9.47358e-09
-1.98287e-08
1.14257e-08
-1.76479e-08
6.24562e-09
-4.05207e-09
5.26232e-09
-1.59706e-08
2.40837e-09
-1.72996e-08
-1.0863e-08
3.31071e-10
1.132e-08
-7.88071e-10
-3.2462e-09
-1.15589e-08
3.94208e-09
-9.05773e-09
4.89907e-09
9.12448e-10
-1.87754e-09
-4.57813e-09
-2.60205e-09
-1.09613e-08
-7.09017e-09
6.49259e-09
6.0961e-09
4.017e-09
-5.21402e-09
-8.46837e-09
-4.3705e-09
-3.22577e-10
6.74975e-09
-7.65893e-09
3.55966e-10
7.0895e-09
2.13474e-10
-7.89547e-09
-4.97467e-09
5.21121e-09
5.8934e-10
-6.31e-09
6.07663e-09
-5.06728e-09
5.33404e-09
1.89506e-09
-6.40354e-09
-1.80153e-09
-3.31163e-09
1.39409e-10
4.91295e-09
-4.61307e-09
4.27895e-09
-4.57882e-09
1.6142e-09
-1.28755e-11
-7.26018e-09
3.14973e-09
-5.02624e-10
-1.091e-09
-1.03359e-09
-2.94206e-09
-6.0444e-09
-1.79958e-09
3.59276e-09
-1.00739e-08
5.53861e-10
-6.88972e-09
4.53629e-09
-1.46736e-09
8.04595e-09
-1.28987e-09
-5.28868e-09
5.22834e-09
-2.25119e-09
-4.44449e-09
-9.21055e-09
2.30891e-09
6.55545e-09
-3.86783e-09
-4.31379e-09
3.43449e-09
7.49316e-09
-2.88168e-09
-3.14551e-09
6.24537e-09
3.3464e-10
1.10982e-08
-8.79534e-09
2.06429e-09
1.85496e-11
4.18801e-09
-5.88534e-09
3.33733e-09
-3.01715e-09
5.2641e-09
1.37502e-10
2.38873e-09
5.18428e-09
5.54958e-09
-8.5597e-10
2.79954e-09
4.95106e-09
6.84388e-09
3.41189e-09
7.97682e-09
-6.60134e-09
2.03519e-09
-2.19086e-09
3.9896e-09
4.6728e-09
-3.70467e-09
-4.95773e-09
4.28453e-10
3.57812e-09
-1.69628e-11
2.72169e-09
3.66937e-09
-3.31096e-09
-3.08008e-09
3.17502e-09
-2.48757e-11
-5.01029e-10
-2.43093e-09
2.00823e-10
3.99416e-09
-2.29855e-09
1.02335e-08
-1.19291e-08
7.20354e-09
-1.47784e-09
-1.26294e-08
6.90374e-09
5.47363e-09
-4.58162e-09
6.31154e-09
8.8156e-09
-3.84299e-09
1.00837e-08
-5.2608e-09
5.76826e-09
3.07067e-09
1.74109e-09
-2.32909e-09
1.15165e-08
-5.83334e-09
1.92979e-09
7.28819e-09
-8.49345e-09
5.4543e-09
6.84824e-09
6.84492e-09
-7.87022e-10
-1.29061e-08
1.25901e-08
1.10971e-09
-6.85155e-09
-1.40611e-09
1.17109e-08
2.28538e-09
-1.04997e-08
9.47517e-09
-3.81524e-10
-5.80665e-10
-3.07413e-09
3.23096e-09
3.90728e-09
-7.92525e-09
-5.50004e-10
4.11554e-10
1.18493e-08
2.25172e-10
8.69999e-09
4.58792e-10
-5.47376e-09
5.24016e-09
-4.36701e-09
2.97445e-10
4.52836e-09
3.23573e-09
5.78787e-09
-5.79263e-09
7.15684e-09
-2.8114e-09
8.14163e-10
-5.64616e-09
-6.41751e-10
-3.68122e-09
1.28381e-10
-2.31955e-09
-6.8874e-09
7.59641e-09
-2.34622e-09
2.61567e-09
-2.39566e-10
5.87856e-09
1.33718e-09
-2.28999e-09
-4.92575e-09
1.97838e-09
8.53635e-10
3.04654e-09
3.52965e-09
-5.01827e-09
-2.89656e-09
4.38519e-09
1.28209e-09
4.22594e-09
5.58719e-09
-6.54023e-10
-3.59601e-09
2.79181e-09
3.64899e-09
2.68155e-09
-5.46336e-09
5.57359e-09
-5.26714e-10
2.6317e-09
2.08258e-09
-4.18756e-09
4.089e-09
1.65749e-09
-6.27316e-09
8.28359e-09
-1.56287e-09
-5.22567e-09
-3.0557e-09
7.46899e-09
-2.75064e-09
-5.37237e-09
8.18893e-10
1.18673e-09
6.15801e-09
-7.18112e-09
1.84201e-09
-3.72789e-09
-2.91424e-09
-2.77383e-09
1.96021e-09
-8.5084e-09
-1.58695e-09
2.61321e-09
-9.60155e-09
-2.19376e-09
2.58803e-09
3.38936e-09
-3.7836e-09
-9.50274e-11
-2.11452e-09
1.5812e-11
-2.17497e-09
-5.05461e-09
9.8176e-09
-2.72927e-09
-5.94129e-09
6.49554e-09
-2.8275e-09
3.16195e-12
-5.04269e-09
8.91296e-11
6.98297e-10
4.25534e-09
2.36566e-09
-3.6803e-09
-3.72803e-09
-6.77169e-10
3.04415e-09
-1.28446e-12
-6.52157e-09
-5.16426e-09
-3.69001e-09
3.36414e-09
-5.61543e-09
-7.58138e-09
1.14898e-09
6.25241e-10
2.91363e-09
-7.2191e-09
2.92789e-09
2.50283e-09
-4.80548e-09
2.36718e-09
-1.16429e-10
-9.32453e-09
4.70279e-10
2.74991e-09
-7.41766e-09
1.6718e-09
-4.28483e-09
5.11587e-09
-4.90281e-09
-2.70227e-09
6.01402e-10
-5.6512e-09
7.75206e-09
-7.21404e-09
-1.06882e-09
5.58058e-09
-1.14767e-09
5.07912e-09
-4.9606e-09
1.02915e-09
3.32362e-09
-4.32356e-09
-1.4774e-10
1.54128e-09
-9.03447e-10
2.68578e-09
8.91217e-10
5.72918e-09
5.08768e-09
-3.59506e-09
-4.90346e-09
1.31386e-09
-2.0616e-09
-5.92184e-09
-6.19567e-09
-7.27048e-10
-2.41718e-10
-3.3548e-09
-1.07584e-09
-4.61181e-09
-5.24567e-09
3.27339e-09
-1.07832e-09
-4.40906e-09
-1.73389e-10
-6.82677e-09
-6.86623e-09
5.617e-09
-8.18832e-09
4.39451e-09
-5.81735e-09
9.61116e-09
1.80858e-09
-8.71965e-09
-1.27723e-09
-4.18959e-09
-1.33486e-09
9.91899e-09
1.29069e-09
-3.67165e-09
2.49001e-09
1.03013e-08
-4.64592e-09
-6.04348e-10
5.06805e-10
3.97711e-09
-3.88322e-09
5.81946e-09
-3.27111e-09
-2.8025e-09
6.14627e-09
4.48924e-09
2.64446e-10
-1.06784e-10
2.76985e-09
3.05471e-09
-3.19278e-11
1.27779e-08
3.31252e-09
-1.34125e-08
-2.67796e-09
1.13366e-08
1.07612e-08
-9.31991e-09
4.27236e-09
-3.25735e-09
2.29744e-09
6.04914e-10
1.5004e-08
-8.29016e-09
-1.01256e-08
5.00327e-09
-9.44407e-09
6.55182e-09
5.24955e-09
-2.35733e-09
-6.72542e-09
-8.23856e-09