/*--------------------------------*- C++ -*----------------------------------*\
| =========                 |                                                 |
| \\      /  F ield         | OpenFOAM: The Open Source CFD Toolbox           |
|  \\    /   O peration     | Version:  v1612+                                |
|   \\  /    A nd           | Web:      www.OpenFOAM.com                      |
|    \\/     M anipulation  |                                                 |
\*---------------------------------------------------------------------------*/
FoamFile
{
    version     2.0;
    format      ascii;
    class       volVectorField;
    location    "50";
    object      U;
}
// * * * * * * * * * * * * * * * * * * * * * * * * * * * * * * * * * * * * * //

dimensions      [0 1 -1 0 0 0 0];

internalField   nonuniform List<vector> 
17027
(
(-0.151844 0.450294 -0.446092)
(-0.0859364 0.419578 -0.556131)
(-0.072345 0.448158 -0.429)
(-0.222199 0.897317 -0.821087)
(-0.108169 0.500978 -1.04927)
(-0.0965519 0.42407 -1.03213)
(-0.113776 0.365322 -0.965928)
(-0.090305 0.355407 -0.966849)
(-0.0836104 0.362697 -0.984037)
(-0.123458 0.384331 -1.04882)
(-0.0593291 0.316381 -1.00067)
(-0.0512446 0.283473 -0.948483)
(-0.115483 0.448303 -1.04904)
(-0.147626 0.481067 -1.04948)
(-0.08029 0.382629 -0.984622)
(-0.116062 0.463212 -1.02576)
(-0.0612847 0.334374 -0.951103)
(-0.0751516 0.385164 -0.958442)
(-0.0753016 0.287541 -0.958041)
(-0.0581527 0.335501 -0.934425)
(-0.0436876 0.306055 -0.935551)
(-0.0434637 0.276836 -0.947013)
(-0.231353 0.592739 -0.714186)
(-0.229511 0.683502 -0.769264)
(-0.227808 0.709416 -0.770763)
(-0.231565 0.585251 -0.688933)
(-0.22717 0.716842 -0.802978)
(-0.219872 0.697831 -0.718375)
(-0.230703 0.64628 -0.713316)
(-0.215148 0.692909 -0.709748)
(-0.231141 0.614817 -0.677051)
(-0.215761 0.778087 -0.807026)
(-0.224279 0.649061 -0.754332)
(-0.224613 0.61226 -0.722614)
(-0.230552 0.607304 -0.696508)
(-0.217124 0.671807 -0.701485)
(-0.21932 0.630738 -0.703649)
(-0.222707 0.726965 -0.767465)
(-0.229932 0.62497 -0.707752)
(-0.197786 0.948936 -0.699488)
(-0.20861 0.966741 -0.715994)
(-0.181051 0.818362 -0.608143)
(-0.161943 0.781603 -0.594835)
(-0.196176 0.906163 -0.682129)
(-0.208375 0.940322 -0.70646)
(-0.16356 0.768559 -0.581844)
(-0.174724 0.831703 -0.640624)
(-0.196318 0.890692 -0.681746)
(-0.174396 0.804625 -0.619635)
(-0.23303 0.446229 -0.792941)
(-0.23444 0.474754 -0.777778)
(-0.233703 0.350125 -0.706567)
(-0.22895 0.314741 -0.704092)
(-0.228782 0.345603 -0.732604)
(-0.237516 0.434289 -0.801388)
(-0.216576 0.444795 -0.769503)
(-0.195934 0.258901 -0.700824)
(-0.185737 0.214932 -0.689757)
(-0.21856 0.307666 -0.686698)
(-0.217254 0.268608 -0.703069)
(-0.20764 0.23179 -0.667823)
(-0.211592 0.307706 -0.700477)
(-0.194781 0.248317 -0.691118)
(-0.216415 0.340515 -0.709562)
(-0.207556 0.341061 -0.767095)
(-0.198564 0.282838 -0.722295)
(-0.210811 0.252584 -0.664196)
(-0.155944 0.512468 -0.464676)
(-0.148528 0.516824 -0.463834)
(-0.146228 0.508544 -0.476076)
(-0.145767 0.498426 -0.455909)
(-0.15045 0.501661 -0.455691)
(-0.127162 0.341166 -0.333267)
(-0.127321 0.427916 -0.396984)
(-0.13169 0.445587 -0.421352)
(-0.150633 0.479475 -0.470142)
(-0.0955151 0.310365 -0.315626)
(-0.14108 0.453814 -0.422049)
(-0.127554 0.411575 -0.371043)
(-0.131604 0.36428 -0.341593)
(-0.121587 0.356405 -0.3397)
(-0.124367 0.392742 -0.359977)
(-0.114475 0.406849 -0.390796)
(-0.106534 0.3526 -0.335575)
(-0.0995938 0.324727 -0.315483)
(-0.1078 0.295402 -0.282359)
(-0.159421 0.386972 -0.370897)
(-0.175609 0.447034 -0.431347)
(-0.16883 0.388636 -0.386695)
(-0.155579 0.327254 -0.340538)
(-0.160928 0.431047 -0.393619)
(-0.185225 0.542802 -0.482533)
(-0.17884 0.542752 -0.465213)
(-0.162496 0.36857 -0.369061)
(-0.144545 0.307068 -0.321443)
(-0.142342 0.331235 -0.331157)
(-0.14466 0.372995 -0.344469)
(-0.174393 0.445277 -0.429082)
(-0.177654 0.548119 -0.483616)
(-0.184028 0.534876 -0.490807)
(-0.159102 0.421427 -0.390495)
(-0.194547 0.28553 -0.662264)
(-0.198269 0.350239 -0.688422)
(-0.231641 0.418718 -0.696694)
(-0.239548 0.490059 -0.72965)
(-0.230424 0.492573 -0.700595)
(-0.210192 0.293026 -0.634171)
(-0.226845 0.333336 -0.653541)
(-0.232308 0.415199 -0.658124)
(-0.232543 0.442121 -0.694733)
(-0.238518 0.318977 -0.631822)
(-0.222519 0.283897 -0.618261)
(-0.204099 0.275891 -0.655916)
(-0.202892 0.2178 -0.584451)
(-0.230442 0.258025 -0.600232)
(-0.216847 0.222513 -0.578483)
(-0.230373 0.314402 -0.640545)
(-0.183546 0.187875 -0.774601)
(-0.187779 0.203671 -0.807034)
(-0.217356 0.3002 -0.69353)
(-0.211406 0.281238 -0.713027)
(-0.219363 0.155332 -0.622839)
(-0.215601 0.195833 -0.645303)
(-0.215708 0.298894 -0.703707)
(-0.188235 0.162633 -0.741107)
(-0.207287 0.208912 -0.712825)
(-0.221593 0.30383 -0.732185)
(-0.217484 0.161314 -0.608791)
(-0.207634 0.1078 -0.570484)
(-0.209968 0.177573 -0.66061)
(-0.20198 0.139414 -0.641017)
(-0.206395 0.120041 -0.643956)
(-0.218443 0.195972 -0.66535)
(-0.202553 0.0844968 -0.595718)
(-0.0523477 0.399249 -0.41254)
(-0.0706574 0.472231 -0.454139)
(-0.062848 0.398849 -0.411262)
(-0.0526412 0.33798 -0.360868)
(-0.113517 0.532848 -0.476473)
(-0.067033 0.449554 -0.426787)
(-0.225669 0.818905 -0.923101)
(-0.219016 0.795887 -0.884243)
(-0.233896 0.868876 -0.924286)
(-0.249159 0.878429 -0.925648)
(-0.242755 0.866287 -0.929976)
(-0.232576 0.808126 -0.882985)
(-0.229825 0.872124 -0.934375)
(-0.228448 0.868569 -0.913177)
(-0.231029 0.870441 -0.915699)
(-0.230447 0.899714 -0.912761)
(-0.248805 0.876833 -0.908518)
(-0.240352 0.849424 -0.863725)
(-0.24214 0.803055 -0.868333)
(-0.228605 0.841926 -0.940583)
(-0.224219 0.772069 -0.870706)
(-0.221582 0.864316 -0.882974)
(-0.21515 0.790234 -0.851865)
(-0.235553 0.812162 -0.908863)
(-0.216469 0.845068 -0.908218)
(-0.187822 0.708282 -0.794384)
(-0.20112 0.783792 -0.834453)
(-0.211961 0.778912 -0.804444)
(-0.228712 0.85913 -0.865563)
(-0.196899 0.786423 -0.788821)
(-0.23762 0.875217 -0.889587)
(-0.228001 0.8659 -0.866631)
(-0.227546 0.842283 -0.890351)
(-0.243444 0.888397 -0.936608)
(-0.209479 0.769966 -0.817296)
(-0.212868 0.840556 -0.856853)
(-0.0930003 0.469871 -0.438717)
(-0.0951259 0.459533 -0.441122)
(-0.126034 0.570262 -0.533668)
(-0.152677 0.657056 -0.592692)
(-0.129335 0.580461 -0.534652)
(-0.174365 0.703303 -0.627565)
(-0.148619 0.630128 -0.54925)
(-0.165999 0.67815 -0.587417)
(-0.133921 0.603389 -0.525788)
(-0.130791 0.558611 -0.490958)
(-0.136301 0.623247 -0.538051)
(-0.0966338 0.479212 -0.429765)
(-0.0903456 0.479072 -0.44587)
(-0.1635 0.676717 -0.591117)
(-0.128944 0.594375 -0.534954)
(-0.143387 0.632405 -0.577109)
(-0.184848 0.523964 -0.520269)
(-0.198656 0.594497 -0.555409)
(-0.19524 0.567917 -0.575552)
(-0.193331 0.587235 -0.566473)
(-0.190397 0.598544 -0.545619)
(-0.188999 0.637497 -0.590598)
(-0.208309 0.574685 -0.572866)
(-0.192794 0.395716 -0.462709)
(-0.177033 0.489953 -0.485218)
(-0.169248 0.535039 -0.496265)
(-0.189382 0.630339 -0.575593)
(-0.190159 0.526283 -0.497128)
(-0.184761 0.548306 -0.513666)
(-0.175628 0.565451 -0.535886)
(-0.188003 0.413632 -0.472532)
(-0.18616 0.459593 -0.484439)
(-0.182597 0.574035 -0.545822)
(-0.18568 0.570115 -0.561882)
(-0.185887 0.526678 -0.534757)
(-0.189429 0.359037 -1.05625)
(-0.156148 0.306356 -0.983518)
(-0.183265 0.427707 -0.989598)
(-0.175848 0.375625 -0.994609)
(-0.15429 0.408068 -0.936891)
(-0.130026 0.422093 -0.891055)
(-0.141932 0.288196 -0.99921)
(-0.230414 0.461345 -1.08085)
(-0.0972248 0.278453 -0.918895)
(-0.110053 0.321715 -0.903463)
(-0.147808 0.315227 -0.95884)
(-0.174952 0.447626 -0.939566)
(-0.194436 0.509491 -0.973263)
(-0.142339 0.288214 -0.976532)
(-0.190478 0.380568 -1.04833)
(-0.206309 0.452413 -1.02957)
(-0.225218 0.646416 -0.701389)
(-0.213947 0.73173 -0.751626)
(-0.243641 0.774894 -0.838412)
(-0.212308 0.654996 -0.690473)
(-0.20864 0.642112 -0.706485)
(-0.233274 0.859755 -0.867853)
(-0.241965 0.844065 -0.862983)
(-0.216178 0.624026 -0.704179)
(-0.213005 0.736635 -0.788574)
(-0.217527 0.851295 -0.914886)
(-0.246673 0.786536 -0.855025)
(-0.215799 0.715232 -0.762262)
(-0.199062 0.653984 -0.737176)
(-0.187258 0.218814 -0.789629)
(-0.178347 0.314123 -0.850043)
(-0.181642 0.373124 -0.862418)
(-0.201408 0.18784 -0.769868)
(-0.182524 0.327463 -0.84192)
(-0.194966 0.250771 -0.822802)
(-0.199956 0.349015 -0.779672)
(-0.196319 0.26744 -0.76603)
(-0.209529 0.257311 -0.729423)
(-0.187045 0.176003 -0.694146)
(-0.203987 0.354457 -0.790481)
(-0.188233 0.403303 -0.846748)
(-0.219935 0.314395 -0.744355)
(-0.206916 0.254019 -0.694552)
(-0.185737 0.440997 -0.856182)
(-0.207476 0.32646 -0.736188)
(-0.210824 0.343107 -0.753259)
(-0.205726 0.361378 -0.720448)
(-0.179232 0.57274 -0.857008)
(-0.187018 0.587877 -0.941823)
(-0.207335 0.593532 -0.971827)
(-0.219121 0.577478 -0.980321)
(-0.248634 0.641008 -1.05172)
(-0.17466 0.573359 -0.86696)
(-0.21049 0.631452 -0.939779)
(-0.20117 0.584658 -0.929517)
(-0.204799 0.609373 -0.940856)
(-0.206284 0.658354 -0.96494)
(-0.247623 0.610797 -1.04672)
(-0.244705 0.651168 -1.07299)
(-0.263199 0.677093 -1.11704)
(-0.230998 0.655946 -0.986112)
(-0.229791 0.842296 -0.893518)
(-0.224143 0.849365 -0.886789)
(-0.24512 0.900508 -0.938995)
(-0.235022 0.889948 -0.890101)
(-0.22885 0.857811 -0.853541)
(-0.226154 0.820283 -0.846611)
(-0.233558 0.863031 -0.888139)
(-0.227524 0.845963 -0.882694)
(-0.243342 0.918463 -0.91667)
(-0.24487 0.942067 -0.892301)
(-0.248788 0.913588 -0.902956)
(-0.233334 0.857483 -0.848129)
(-0.242046 0.914771 -0.87586)
(-0.224443 0.882003 -0.86258)
(-0.231842 0.881072 -0.846728)
(-0.229691 0.882016 -0.858465)
(-0.230427 0.857997 -0.869149)
(-0.163179 0.625103 -0.567601)
(-0.150919 0.578604 -0.542547)
(-0.152188 0.551243 -0.523955)
(-0.207879 0.74049 -0.656641)
(-0.166787 0.568193 -0.567476)
(-0.177032 0.623938 -0.562988)
(-0.191347 0.74333 -0.680099)
(-0.197042 0.798627 -0.75441)
(-0.211404 0.811605 -0.784322)
(-0.216455 0.821301 -0.813994)
(-0.218583 0.828686 -0.780146)
(-0.184777 0.69095 -0.709886)
(-0.187615 0.749888 -0.737161)
(-0.155187 0.584212 -0.664377)
(-0.160614 0.542525 -0.632728)
(-0.213173 0.738213 -0.740627)
(-0.201081 0.639477 -0.689909)
(-0.19366 0.624078 -0.671268)
(-0.204137 0.727171 -0.720302)
(-0.206212 0.6759 -0.693846)
(-0.181151 0.648479 -0.696885)
(-0.183176 0.664841 -0.694393)
(-0.150846 0.521753 -0.657456)
(-0.139543 0.4989 -0.646534)
(-0.194974 0.573682 -0.666162)
(-0.181322 0.536445 -0.655697)
(-0.195835 0.675597 -0.742795)
(-0.193731 0.680679 -0.700727)
(-0.206944 0.915223 -0.708344)
(-0.207792 0.937569 -0.719195)
(-0.190207 0.802469 -0.670202)
(-0.202151 0.825796 -0.688327)
(-0.219112 0.861978 -0.707051)
(-0.182582 0.795711 -0.65475)
(-0.183559 0.838234 -0.673023)
(-0.209546 0.952424 -0.742009)
(-0.221893 0.862435 -0.690263)
(-0.203744 0.823217 -0.668876)
(-0.214713 0.977122 -0.763017)
(-0.221787 0.982011 -0.744908)
(-0.193176 0.876172 -0.697153)
(-0.176089 0.766038 -0.634205)
(-0.200621 0.849103 -0.665772)
(-0.219247 0.984961 -0.750763)
(-0.0278209 0.204688 -0.955722)
(-0.0552997 0.268711 -0.985861)
(-0.1224 0.337142 -1.03604)
(-0.106858 0.355813 -1.0597)
(-0.147816 0.34196 -1.00481)
(-0.121027 0.307456 -0.996737)
(-0.00719513 0.0500885 -0.874895)
(-0.0267891 0.0658855 -0.901332)
(-0.0455094 0.207314 -0.931547)
(-0.0527667 0.205518 -0.940269)
(-0.0986158 0.226709 -0.941002)
(-0.0178992 0.156105 -0.957393)
(-0.0310376 0.126287 -0.921203)
(-0.101526 0.242004 -0.982592)
(0.000555786 0.117098 -0.894038)
(-0.0227728 0.110335 -0.894416)
(-0.226828 0.470892 -0.752497)
(-0.210882 0.52956 -0.773872)
(-0.212337 0.654428 -0.830932)
(-0.225965 0.602314 -0.811993)
(-0.205442 0.592768 -0.853333)
(-0.206569 0.621043 -0.873198)
(-0.229398 0.480029 -0.765545)
(-0.197502 0.480097 -0.78953)
(-0.204591 0.449193 -0.762198)
(-0.191281 0.52781 -0.878259)
(-0.192852 0.499893 -0.846961)
(-0.207491 0.645325 -0.876182)
(-0.2229 0.405978 -0.747955)
(-0.190994 0.400877 -0.775654)
(-0.201711 0.539175 -0.860627)
(-0.24544 0.879565 -0.979536)
(-0.245942 0.835247 -0.931803)
(-0.236707 0.857491 -0.950447)
(-0.239924 0.827388 -0.938617)
(-0.223685 0.806692 -0.889073)
(-0.222435 0.825196 -0.89192)
(-0.243609 0.829438 -0.900275)
(-0.241657 0.906577 -0.946185)
(-0.229481 0.802431 -0.909337)
(-0.257059 0.925412 -0.968294)
(-0.205041 0.619447 -0.825835)
(-0.185549 0.537054 -0.801989)
(-0.22094 0.698567 -0.888423)
(-0.209821 0.739294 -0.883255)
(-0.226548 0.536803 -0.787898)
(-0.229127 0.743516 -0.856132)
(-0.230392 0.66355 -0.847133)
(-0.207144 0.597109 -0.788753)
(-0.181394 0.527296 -0.802481)
(-0.180945 0.552058 -0.774155)
(-0.226964 0.734515 -0.868594)
(-0.166346 0.637024 -0.776346)
(-0.196934 0.610285 -0.804694)
(-0.187467 0.497368 -0.575481)
(-0.21492 0.478722 -0.608884)
(-0.205632 0.482754 -0.586803)
(-0.206003 0.499039 -0.601322)
(-0.202699 0.366499 -0.498936)
(-0.20105 0.266 -0.488265)
(-0.180879 0.260749 -0.467922)
(-0.179157 0.305739 -0.470118)
(-0.208301 0.459558 -0.584425)
(-0.195602 0.356602 -0.499209)
(-0.208617 0.301886 -0.506344)
(-0.180709 0.267481 -0.453214)
(-0.187373 0.47363 -0.604646)
(-0.193938 0.306464 -0.514987)
(-0.204093 0.309996 -0.529575)
(-0.191798 0.424219 -0.580662)
(-0.180523 0.576282 -0.506652)
(-0.185337 0.608642 -0.528294)
(-0.177315 0.614677 -0.51262)
(-0.167694 0.537723 -0.476185)
(-0.184277 0.719958 -0.555501)
(-0.197817 0.72205 -0.5803)
(-0.168249 0.557358 -0.463396)
(-0.186568 0.623279 -0.50463)
(-0.19772 0.727054 -0.58698)
(-0.18756 0.739881 -0.58652)
(-0.190115 0.634474 -0.555063)
(-0.185224 0.664655 -0.569475)
(-0.172515 0.644378 -0.526167)
(-0.177968 0.607948 -0.49722)
(-0.182852 0.579572 -0.48767)
(-0.163777 0.507751 -0.442146)
(-0.169491 0.53043 -0.452735)
(-0.168624 0.567937 -0.465827)
(-0.188996 0.751949 -0.688216)
(-0.193857 0.772707 -0.672083)
(-0.172558 0.739076 -0.695046)
(-0.151417 0.646266 -0.596422)
(-0.137244 0.582032 -0.553739)
(-0.14539 0.629542 -0.633725)
(-0.120326 0.577124 -0.579918)
(-0.142016 0.639918 -0.598444)
(-0.145979 0.642962 -0.618473)
(-0.11845 0.595472 -0.583134)
(-0.118976 0.566345 -0.548413)
(-0.190114 0.765628 -0.679097)
(-0.186222 0.764022 -0.652002)
(-0.182555 0.739612 -0.693974)
(-0.163301 0.747083 -0.681843)
(-0.172978 0.758952 -0.675166)
(-0.128861 0.606687 -0.572496)
(-0.183097 0.693993 -0.704718)
(-0.197605 0.713696 -0.686399)
(-0.131715 0.544046 -0.626698)
(-0.135482 0.497774 -0.607715)
(-0.121383 0.46546 -0.585735)
(-0.122926 0.527986 -0.607509)
(-0.170011 0.639801 -0.646613)
(-0.16158 0.50167 -0.625162)
(-0.154257 0.644654 -0.674916)
(-0.159429 0.674214 -0.643856)
(-0.118831 0.466335 -0.582821)
(-0.128099 0.545112 -0.604413)
(-0.158969 0.594879 -0.616051)
(-0.134366 0.598291 -0.621236)
(-0.147538 0.411409 -0.419749)
(-0.128108 0.372565 -0.381762)
(-0.164876 0.513309 -0.508105)
(-0.138891 0.426934 -0.424395)
(-0.15201 0.580796 -0.562297)
(-0.160207 0.545808 -0.563415)
(-0.148623 0.513621 -0.511385)
(-0.141264 0.403701 -0.409073)
(-0.153887 0.519159 -0.503877)
(-0.159313 0.568234 -0.55799)
(-0.156053 0.533287 -0.547954)
(-0.109882 0.397875 -0.414277)
(-0.0908936 0.349177 -0.368579)
(-0.128646 0.459839 -0.482017)
(-0.111949 0.429704 -0.436215)
(-0.120689 0.366556 -0.375994)
(-0.106252 0.400404 -0.406837)
(-0.125477 0.407364 -0.394957)
(-0.121882 0.444225 -0.428068)
(-0.22311 0.566664 -0.957293)
(-0.233307 0.577524 -1.03005)
(-0.22585 0.354776 -0.777)
(-0.20617 0.396517 -0.792267)
(-0.257771 0.484678 -0.901203)
(-0.250259 0.521191 -0.908635)
(-0.250746 0.615349 -1.00973)
(-0.270442 0.616836 -1.03778)
(-0.254061 0.546332 -1.04588)
(-0.271414 0.501024 -0.912042)
(-0.2114 0.439919 -0.856256)
(-0.203796 0.489207 -0.928035)
(-0.238876 0.474176 -0.884724)
(-0.243388 0.469145 -0.881635)
(-0.234236 0.463325 -0.844841)
(-0.245948 0.360509 -0.78486)
(-0.225129 0.37635 -0.781236)
(-0.25064 0.395308 -0.811383)
(-0.245506 0.474913 -0.931067)
(-0.122322 0.298333 -0.756054)
(-0.131693 0.281021 -0.746053)
(-0.113368 0.255353 -0.74871)
(-0.142268 0.467318 -0.866068)
(-0.15843 0.437224 -0.850711)
(-0.158198 0.464231 -0.822224)
(-0.150157 0.417486 -0.797757)
(-0.163636 0.447746 -0.868134)
(-0.168727 0.506769 -0.851947)
(-0.122917 0.291157 -0.786114)
(-0.121134 0.22036 -0.703348)
(-0.125151 0.221695 -0.727659)
(-0.166922 0.477983 -0.875355)
(-0.193934 0.46945 -0.831434)
(-0.129586 0.189118 -0.761382)
(-0.12621 0.171312 -0.710242)
(-0.151023 0.258186 -0.796458)
(-0.152195 0.292996 -0.756586)
(-0.0774461 0.014028 -0.725541)
(-0.0534099 -0.0177621 -0.691581)
(-0.0640951 0.0125868 -0.718741)
(-0.0376955 -0.048791 -0.684926)
(-0.0280152 -0.00607362 -0.732194)
(-0.0345372 0.0336371 -0.76132)
(-0.0968531 0.0797569 -0.749933)
(-0.0882 0.243025 -0.843167)
(-0.0619558 0.210893 -0.822852)
(-0.10219 0.213689 -0.83808)
(-0.126339 0.192054 -0.836575)
(-0.0864318 0.260984 -0.837112)
(-0.116523 0.272926 -0.86739)
(-0.110864 0.213263 -0.864449)
(-0.0715583 0.0179238 -0.760502)
(-0.117352 0.251701 -0.876518)
(-0.13092 0.188701 -0.872548)
(-0.223643 0.308002 -0.984683)
(-0.216258 0.287651 -0.96543)
(-0.198006 0.329885 -1.00764)
(-0.178348 0.191832 -0.789154)
(-0.213892 0.244403 -0.905665)
(-0.1952 0.423573 -0.472511)
(-0.19686 0.399548 -0.451268)
(-0.200533 0.475146 -0.536683)
(-0.20639 0.419553 -0.506258)
(-0.198952 0.541095 -0.568304)
(-0.207723 0.455732 -0.525557)
(-0.198786 0.438681 -0.50355)
(-0.193156 0.422243 -0.496142)
(-0.205164 0.603193 -0.582413)
(-0.200509 0.5894 -0.555304)
(-0.196637 0.504068 -0.508625)
(-0.194279 0.443842 -0.477978)
(-0.198291 0.50956 -0.527893)
(-0.192487 0.367772 -0.461203)
(-0.210944 0.641906 -0.600255)
(-0.205672 0.665011 -0.598516)
(-0.191462 0.533346 -0.547252)
(-0.196108 0.567976 -0.550723)
(-0.205619 0.58254 -0.566469)
(-0.19158 0.48406 -0.497312)
(-0.159366 0.447893 -1.01234)
(-0.191918 0.523067 -1.00211)
(-0.148806 0.417387 -1.01111)
(-0.141483 0.494029 -1.01717)
(-0.156045 0.505246 -1.07381)
(-0.129728 0.438906 -1.05289)
(-0.172589 0.538379 -1.03468)
(-0.177218 0.529555 -1.07997)
(-0.155983 0.491981 -1.04147)
(-0.175591 0.544563 -0.890842)
(-0.205517 0.612224 -0.908974)
(-0.156517 0.540709 -0.840704)
(-0.165652 0.542505 -0.852129)
(-0.185147 0.594107 -0.885798)
(-0.221551 0.569129 -0.959244)
(-0.205958 0.574833 -0.949301)
(-0.142962 0.470506 -0.84166)
(-0.104689 0.389796 -0.790079)
(-0.139446 0.47397 -0.817199)
(-0.212189 0.486793 -0.94833)
(-0.176031 0.379429 -0.892393)
(-0.217319 0.531823 -0.982868)
(-0.214239 0.465878 -0.94313)
(-0.185832 0.553649 -0.876448)
(-0.199499 0.575556 -0.933974)
(-0.12895 0.384795 -0.826116)
(-0.120073 0.303787 -0.839156)
(-0.144105 0.457458 -0.813272)
(-0.103664 0.333892 -0.789705)
(-0.139652 0.338158 -0.841879)
(-0.207787 0.510697 -0.933635)
(-0.195899 0.509376 -0.947767)
(-0.207362 0.570545 -0.946839)
(-0.272355 0.597495 -0.936164)
(-0.256118 0.588239 -0.931564)
(-0.273755 0.659328 -1.00097)
(-0.274692 0.678688 -0.976165)
(-0.27909 0.618824 -0.934966)
(-0.241982 0.702454 -0.993604)
(-0.261041 0.634443 -0.943102)
(-0.255315 0.734446 -0.961318)
(-0.275561 0.612 -0.901665)
(-0.258697 0.621608 -0.886604)
(-0.2528 0.630673 -0.910425)
(-0.24577 0.671283 -0.924684)
(-0.248605 0.701176 -0.970613)
(-0.265358 0.76169 -1.02729)
(-0.251642 0.762712 -0.96492)
(-0.261089 0.737904 -0.999408)
(-0.270005 0.687657 -0.97444)
(-0.260383 0.718926 -0.953246)
(-0.210851 0.706161 -0.97301)
(-0.192268 0.596576 -0.958578)
(-0.178091 0.685974 -0.969132)
(-0.182624 0.650557 -0.968785)
(-0.0917254 0.455511 -0.969534)
(-0.118433 0.466404 -0.928344)
(-0.147008 0.54452 -0.980485)
(-0.154588 0.54805 -0.991947)
(-0.18847 0.73279 -0.979665)
(-0.185664 0.654633 -0.986698)
(-0.176251 0.660838 -1.02647)
(-0.191199 0.643432 -0.982076)
(-0.1814 0.653048 -0.961829)
(-0.12079 0.468555 -0.91886)
(-0.187617 0.695668 -1.00854)
(-0.171321 0.652976 -1.00776)
(-0.135322 0.532122 -0.898651)
(-0.137154 0.568856 -0.968699)
(-0.109187 0.506008 -0.905798)
(-0.210067 0.715979 -1.0191)
(-0.123371 0.483703 -0.885216)
(-0.219576 0.692426 -0.635018)
(-0.209261 0.655434 -0.614033)
(-0.168596 0.426956 -0.405019)
(-0.192402 0.379916 -0.388242)
(-0.199357 0.403835 -0.417828)
(-0.181731 0.477076 -0.442529)
(-0.196347 0.495232 -0.496145)
(-0.197888 0.595268 -0.557321)
(-0.212036 0.676678 -0.609982)
(-0.207561 0.706866 -0.623764)
(-0.226611 0.532491 -0.521027)
(-0.224209 0.61923 -0.588562)
(-0.182671 0.411071 -0.405362)
(-0.163367 0.441604 -0.42039)
(-0.190818 0.406968 -0.430513)
(-0.201762 0.545497 -0.538243)
(-0.193254 0.583707 -0.570154)
(-0.196773 0.548768 -0.505758)
(-0.19847 0.599038 -0.546191)
(-0.182711 0.500048 -0.483949)
(-0.206552 0.503249 -0.519334)
(-0.190757 0.416147 -0.458505)
(-0.199499 0.512395 -0.529474)
(-0.189226 0.401923 -0.421337)
(-0.194117 0.405573 -0.429761)
(-0.189384 0.875082 -0.688336)
(-0.168413 0.781046 -0.63545)
(-0.162656 0.733562 -0.618604)
(-0.177419 0.512375 -0.471539)
(-0.186581 0.504702 -0.474579)
(-0.175233 0.404027 -0.417433)
(-0.162894 0.409558 -0.416294)
(-0.161292 0.374845 -0.392406)
(-0.172957 0.42128 -0.426904)
(-0.175347 0.348424 -0.429016)
(-0.155944 0.294905 -0.388301)
(-0.167956 0.39959 -0.410016)
(-0.173344 0.367273 -0.399588)
(-0.155417 0.32238 -0.362327)
(-0.180757 0.393878 -0.439981)
(-0.159052 0.334196 -0.385049)
(-0.196223 0.562067 -1.04062)
(-0.199188 0.52246 -1.0186)
(-0.194663 0.553279 -1.06747)
(-0.198352 0.573906 -0.953023)
(-0.21888 0.605512 -0.996573)
(-0.168412 0.497424 -0.787774)
(-0.191021 0.564596 -0.922545)
(-0.178852 0.444266 -0.897801)
(-0.181916 0.461132 -0.912078)
(-0.179521 0.511881 -0.863763)
(-0.160192 0.475846 -0.819439)
(-0.166488 0.516929 -0.798421)
(-0.19658 0.551118 -0.886269)
(-0.192127 0.470635 -0.831955)
(-0.187678 0.496276 -0.846123)
(-0.16604 0.445461 -0.742816)
(-0.162381 0.481109 -0.762281)
(-0.141303 0.666122 -0.684912)
(-0.154546 0.635274 -0.677769)
(-0.128348 0.599397 -0.636245)
(-0.145574 0.705435 -0.695996)
(-0.179659 0.704834 -0.694217)
(-0.176893 0.773798 -0.692259)
(-0.142212 0.653009 -0.651696)
(-0.158041 0.657737 -0.683473)
(-0.156786 0.677731 -0.686621)
(-0.148564 0.736182 -0.695844)
(-0.159011 0.740706 -0.692816)
(-0.145526 0.652592 -0.640761)
(-0.201888 0.836071 -0.742336)
(-0.187858 0.76549 -0.700593)
(-0.16652 0.70779 -0.667314)
(-0.166765 0.690081 -0.677647)
(-0.158687 0.646492 -0.672821)
(-0.147952 0.65863 -0.662301)
(-0.185661 0.606833 -1.00004)
(-0.115851 0.499266 -0.891155)
(-0.113195 0.538646 -0.911826)
(-0.0921699 0.473251 -0.879302)
(-0.111535 0.480965 -0.877691)
(-0.170408 0.592089 -1.00976)
(-0.142738 0.526717 -0.925831)
(-0.1655 0.589846 -1.03474)
(-0.043784 0.43356 -0.896584)
(-0.0841414 0.467257 -0.899374)
(-0.0806039 0.465495 -0.916723)
(-0.176857 0.61651 -1.04282)
(-0.156356 0.588511 -1.03348)
(-0.167405 0.600591 -1.05854)
(-0.165076 0.548316 -1.06113)
(-0.101268 0.476453 -0.967327)
(-0.086758 0.422624 -0.890858)
(-0.072602 0.451238 -0.953041)
(-0.0727294 0.427888 -0.928419)
(-0.199936 0.213584 -0.976528)
(-0.182481 0.189425 -0.966989)
(-0.204508 0.279595 -1.03368)
(-0.239805 0.362639 -1.08978)
(-0.213406 0.289058 -0.978827)
(-0.233019 0.162659 -0.896114)
(-0.230961 0.236729 -0.906946)
(-0.196856 0.162443 -0.894498)
(-0.253097 0.282066 -0.947103)
(-0.26945 0.277203 -0.958016)
(-0.207756 0.130385 -0.903126)
(-0.236433 0.336812 -1.04553)
(-0.255578 0.416119 -1.09257)
(-0.252603 0.25623 -0.932966)
(-0.249133 0.282729 -0.965485)
(-0.244753 0.183329 -0.900256)
(-0.238999 0.211426 -0.944786)
(-0.243122 0.250912 -0.931453)
(-0.249823 0.194675 -0.906287)
(-0.167313 0.738953 -0.602805)
(-0.162045 0.699608 -0.582772)
(-0.174431 0.704297 -0.549744)
(-0.155832 0.644786 -0.514494)
(-0.163535 0.734251 -0.593734)
(-0.183912 0.769707 -0.625907)
(-0.163337 0.707479 -0.579025)
(-0.157934 0.708846 -0.552634)
(-0.186186 0.820543 -0.655889)
(-0.171333 0.777892 -0.628206)
(-0.190688 0.77706 -0.602025)
(-0.162366 0.69396 -0.535455)
(-0.177672 0.811638 -0.617378)
(-0.192974 0.81449 -0.642015)
(-0.152276 0.717386 -0.596283)
(-0.162111 0.748044 -0.57856)
(-0.203419 0.897183 -0.695339)
(-0.207349 0.874806 -0.704213)
(-0.195223 0.861492 -0.662586)
(-0.18045 0.846067 -0.654619)
(-0.21602 0.938425 -0.730402)
(-0.213846 0.92738 -0.724739)
(-0.197197 0.82469 -0.658456)
(-0.211741 0.880229 -0.698117)
(-0.146158 0.42207 -0.426412)
(-0.137499 0.380923 -0.409026)
(-0.154554 0.379313 -0.403424)
(-0.138774 0.337782 -0.39286)
(-0.162677 0.435736 -0.453583)
(-0.180538 0.60539 -0.524667)
(-0.196441 0.624799 -0.547075)
(-0.147583 0.325772 -0.374835)
(-0.18078 0.558442 -0.491825)
(-0.175666 0.589433 -0.504977)
(-0.159237 0.368301 -0.415754)
(-0.193049 0.595753 -0.535407)
(-0.156538 0.418249 -0.398424)
(-0.15492 0.380199 -0.390738)
(-0.179357 0.444776 -0.444588)
(-0.154323 0.39713 -0.39681)
(-0.147053 0.353842 -0.36576)
(-0.0635469 0.420122 -0.34665)
(-0.0511052 0.359204 -0.309475)
(-0.0769643 0.425391 -0.341144)
(-0.0942049 0.526157 -0.423453)
(-0.0902899 0.511996 -0.425199)
(-0.039552 0.312765 -0.277482)
(-0.0529604 0.371294 -0.309972)
(-0.090969 0.52968 -0.429944)
(-0.0852992 0.445349 -0.364231)
(-0.0713029 0.421213 -0.346654)
(-0.0562484 0.382684 -0.338012)
(-0.041514 0.322846 -0.28939)
(-0.0701372 0.400678 -0.340091)
(-0.0649355 0.371045 -0.322275)
(-0.0711551 0.40772 -0.359613)
(-0.0789433 0.448321 -0.382206)
(0.0398643 0.242566 -0.533522)
(0.0463113 0.191891 -0.500629)
(0.0175409 0.245946 -0.543667)
(0.0230927 0.262595 -0.548394)
(0.0576881 0.145854 -0.485302)
(-0.0264782 0.338496 -0.60419)
(-0.0156307 0.305044 -0.616547)
(0.0448649 0.164771 -0.517948)
(0.0374827 0.228475 -0.549911)
(0.0205585 0.24982 -0.542128)
(0.0289334 0.203961 -0.530954)
(-0.0415106 0.332608 -0.629121)
(-0.0190083 0.303328 -0.621472)
(0.0263106 0.174679 -0.551097)
(0.0177134 0.1913 -0.578483)
(0.0461783 0.166912 -0.508269)
(0.00843803 0.194714 -0.575655)
(0.0319841 0.156741 -0.527728)
(-0.00627017 0.280485 -0.578534)
(0.00689376 0.21708 -0.570022)
(-0.0785284 0.525533 -0.576796)
(-0.0709272 0.488272 -0.562122)
(-0.105017 0.582093 -0.571524)
(-0.0953024 0.573524 -0.578657)
(-0.100058 0.563315 -0.587721)
(-0.0805273 0.510471 -0.572472)
(-0.0235851 0.382399 -0.494446)
(-0.0273608 0.400803 -0.490467)
(-0.0950578 0.553115 -0.55512)
(-0.107526 0.586621 -0.578428)
(-0.0724726 0.498029 -0.548589)
(-0.0383236 0.393391 -0.496782)
(-0.0263748 0.35506 -0.474796)
(-0.0349334 0.403169 -0.518252)
(-0.0461021 0.408848 -0.482167)
(-0.0316081 0.353275 -0.45576)
(-0.048424 0.404119 -0.491332)
(-0.0529467 0.430968 -0.513677)
(-0.0537531 0.426795 -0.490068)
(-0.0879253 0.361636 -0.618774)
(-0.0669541 0.310421 -0.600273)
(-0.135702 0.474322 -0.69327)
(-0.150883 0.529673 -0.703122)
(-0.0877257 0.414486 -0.640149)
(-0.0753388 0.368498 -0.632512)
(-0.146533 0.563996 -0.733059)
(-0.164771 0.539039 -0.742625)
(-0.160969 0.508588 -0.729666)
(-0.169043 0.619209 -0.781314)
(-0.155021 0.636319 -0.766158)
(-0.149275 0.531323 -0.71357)
(-0.103384 0.419771 -0.646921)
(-0.142415 0.550464 -0.733119)
(-0.145083 0.552699 -0.761619)
(-0.134578 0.54159 -0.753312)
(-0.0874067 0.359454 -0.644084)
(-0.0615847 0.296651 -0.609261)
(-0.0856009 0.379906 -0.652595)
(-0.0909528 0.332015 -0.646794)
(-0.114074 0.37652 -0.690542)
(-0.0917684 0.393049 -0.674681)
(-0.226728 0.86973 -0.867261)
(-0.207923 0.821352 -0.829764)
(-0.212784 0.840875 -0.896882)
(-0.220146 0.872123 -0.878156)
(-0.221232 0.901454 -0.896087)
(-0.212412 0.829294 -0.821183)
(-0.204967 0.799264 -0.825572)
(-0.200218 0.734778 -0.756022)
(-0.193018 0.775998 -0.835897)
(-0.227991 0.871269 -0.918782)
(-0.188127 0.742954 -0.763881)
(-0.183229 0.743264 -0.794824)
(-0.176956 0.719198 -0.789575)
(-0.196883 0.799688 -0.881632)
(-0.188584 0.769246 -0.785863)
(-0.197853 0.764234 -0.80721)
(-0.183506 0.712576 -0.774651)
(-0.196425 0.486703 -0.560745)
(-0.185891 0.473313 -0.558461)
(-0.182848 0.50047 -0.559409)
(-0.199713 0.475903 -0.562755)
(-0.18077 0.516179 -0.542087)
(-0.17181 0.474353 -0.551574)
(-0.187959 0.567955 -0.627931)
(-0.188971 0.500255 -0.555314)
(-0.184916 0.584863 -0.610661)
(-0.197158 0.778997 -0.702352)
(-0.200249 0.794268 -0.68406)
(-0.205116 0.621897 -0.622507)
(-0.214846 0.732316 -0.684402)
(-0.192974 0.602227 -0.585022)
(-0.187864 0.667257 -0.628489)
(-0.19304 0.745438 -0.663763)
(-0.202997 0.764043 -0.666864)
(-0.187063 0.660316 -0.640493)
(-0.212545 0.754304 -0.694004)
(-0.204603 0.739106 -0.691037)
(-0.198252 0.599695 -0.594145)
(-0.194348 0.655609 -0.613225)
(-0.154954 0.432497 -0.824505)
(-0.12863 0.340182 -0.803688)
(-0.146963 0.377602 -0.793887)
(-0.133061 0.352478 -0.774015)
(-0.199918 0.436221 -0.858108)
(-0.137696 0.390229 -0.83827)
(-0.164933 0.450026 -0.817915)
(-0.223358 0.532209 -0.896458)
(-0.224043 0.543961 -0.90071)
(-0.161882 0.326548 -0.802067)
(-0.197666 0.359833 -0.771176)
(-0.152753 0.335825 -0.768464)
(-0.210414 0.467675 -0.836545)
(-0.197201 0.448403 -0.825183)
(-0.124229 0.236542 -0.764359)
(-0.179068 0.321956 -0.771457)
(-0.190872 0.349954 -0.787431)
(-0.164295 0.294187 -0.765342)
(-0.185005 0.373718 -0.778675)
(-0.151205 0.302682 -0.786159)
(-0.18594 0.295308 -0.771356)
(-0.163257 0.249094 -0.751783)
(-0.183076 0.202524 -0.578613)
(-0.180931 0.216126 -0.590828)
(-0.210118 0.325061 -0.678707)
(-0.204944 0.364281 -0.675816)
(-0.227492 0.366935 -0.668253)
(-0.21529 0.35598 -0.649033)
(-0.205761 0.351874 -0.633284)
(-0.20201 0.190603 -0.531698)
(-0.190538 0.143594 -0.499636)
(-0.202974 0.178403 -0.556758)
(-0.187773 0.131055 -0.518401)
(-0.189415 0.156034 -0.556762)
(-0.216805 0.331783 -0.667058)
(-0.220363 0.24051 -0.581002)
(-0.21138 0.189972 -0.543364)
(-0.215161 0.341953 -0.643071)
(-0.205083 0.243812 -0.57869)
(-0.208727 0.21667 -0.585921)
(-0.211343 0.414765 -0.513623)
(-0.209585 0.481701 -0.552027)
(-0.205476 0.457325 -0.516775)
(-0.205665 0.587548 -0.573936)
(-0.211137 0.723418 -0.646338)
(-0.212549 0.706159 -0.640924)
(-0.211499 0.55029 -0.587919)
(-0.217992 0.610536 -0.615371)
(-0.213753 0.680799 -0.633782)
(-0.210753 0.63764 -0.605968)
(-0.206208 0.569002 -0.597496)
(-0.206426 0.586238 -0.573905)
(-0.134833 0.368541 -0.458622)
(-0.138896 0.326871 -0.415093)
(-0.126957 0.327652 -0.427631)
(-0.117979 0.264209 -0.367602)
(-0.175241 0.447375 -0.553192)
(-0.165972 0.433525 -0.531838)
(-0.160755 0.312366 -0.439327)