/*--------------------------------*- C++ -*----------------------------------*\
| =========                 |                                                 |
| \\      /  F ield         | OpenFOAM: The Open Source CFD Toolbox           |
|  \\    /   O peration     | Version:  v1612+                                |
|   \\  /    A nd           | Web:      www.OpenFOAM.com                      |
|    \\/     M anipulation  |                                                 |
\*---------------------------------------------------------------------------*/
FoamFile
{
    version     2.0;
    format      ascii;
    class       volVectorField;
    location    "50";
    object      wallShearStress;
}
// * * * * * * * * * * * * * * * * * * * * * * * * * * * * * * * * * * * * * //

dimensions      [0 2 -2 0 0 0 0];

internalField   uniform (0 0 0);

boundaryField
{
    WALL
    {
        type            calculated;
        value           nonuniform List<vector> 
1482
(
(0.0078537 0.0125245 0.0168316)
(0.0100803 0.0120419 0.0171327)
(-0.00335216 -0.00243797 0.0132955)
(-0.0035903 -0.00130641 0.0156441)
(-0.00891239 0.000142093 0.0222728)
(-0.00895593 0.00347387 0.0239917)
(0.00537731 -0.00419845 0.00726622)
(0.0058021 -0.00425424 0.00835498)
(0.00593484 -0.00225584 0.00574145)
(0.0070503 -0.00107763 0.00705856)
(0.00731347 -0.0005083 0.00874821)
(0.00753281 -0.000847119 0.00831872)
(0.00104436 0.00182559 0.0162414)
(0.000557049 0.00237924 0.0172129)
(0.00212917 -0.00166323 0.0149817)
(0.000898573 -0.00302815 0.0150573)
(0.00361611 0.00957824 0.0167372)
(0.00563798 0.00848818 0.0153376)
(0.00574293 -0.00228398 0.00778053)
(0.00623778 -0.00280556 0.00871328)
(0.00710078 -0.00188602 0.00666272)
(0.00795709 -0.000885201 0.00737588)
(0.00871199 0.00716071 0.0142355)
(0.00748716 0.00750153 0.0151311)
(0.0098182 0.00210699 0.0106529)
(0.00955069 0.00308181 0.0117984)
(-0.00489701 -0.00102433 0.0145612)
(-0.00507503 -0.000882167 0.0133469)
(0.00501867 -0.00960665 0.0122388)
(0.00662382 -0.00756068 0.0125447)
(0.00841951 -0.0031684 0.0175352)
(0.00785124 -0.00280371 0.0175111)
(-0.000930925 -0.00499227 0.0143558)
(-0.00119404 -0.00333261 0.0150209)
(-0.000715162 -0.00980717 0.0128421)
(-0.000652027 -0.0105089 0.0131852)
(0.0089334 -0.0036881 0.0168846)
(0.00823037 -0.00369786 0.015804)
(-0.00200659 -0.0043673 0.00881685)
(-0.0010888 -0.00481016 0.00728529)
(-0.000735948 -0.00401377 0.00482371)
(-0.001195 -0.00383565 0.00595482)
(-0.00149146 -0.00408379 0.00735004)
(-0.0017604 -0.003101 0.00816568)
(-0.00125898 -0.00375574 0.00999811)
(-0.00458833 -0.00463054 0.0147832)
(-0.00665802 -0.00255026 0.0173181)
(0.000353391 0.00652966 0.0234117)
(0.00202427 0.0042418 0.0225137)
(0.00992833 -0.00190949 0.0125817)
(0.00906175 -0.00203695 0.0106879)
(0.00163274 -0.0092864 0.0116262)
(0.00258422 -0.00962616 0.0110876)
(0.000567168 -0.00843739 0.0109)
(0.000718148 -0.00926274 0.0114359)
(0.00178914 -0.00994664 0.0114403)
(0.00266014 -0.00916088 0.010961)
(-0.000553176 -0.00442739 0.0146838)
(-0.00133584 -0.00573002 0.0149034)
(-0.000589794 -0.0054055 0.014756)
(6.04984e-05 -0.00400394 0.0145634)
(-9.28186e-05 -0.00459707 0.0140597)
(-0.000267459 -0.00346525 0.0147579)
(-0.002662 0.00947176 0.0173872)
(-0.000131279 0.0115738 0.0178784)
(-0.000854515 0.00946591 0.0181619)
(-0.00260458 0.00912358 0.0180638)
(-0.000795993 0.0124689 0.0189266)
(-0.00177126 0.0110666 0.0190441)
(0.0115088 0.0074465 0.0145359)
(0.0102227 0.0107662 0.0162918)
(0.0116001 0.00857639 0.0156625)
(0.0109586 0.00904849 0.0159047)
(0.0110979 0.010321 0.0172006)
(0.0116254 0.00657911 0.0149423)
(0.00903288 0.0118962 0.0166981)
(0.00852148 0.0124485 0.0169542)
(0.00913788 0.00110419 0.00996327)
(0.00911569 0.00291666 0.0118122)
(0.00918475 0.00212361 0.0107041)
(0.00851059 0.00301125 0.0114004)
(0.00905746 0.00133949 0.0099535)
(0.00875045 0.00211616 0.0104513)
(-0.000909039 0.0103454 0.0254119)
(0.000758194 0.0115717 0.0235869)
(-0.000935835 0.0100712 0.0261894)
(6.87828e-05 0.0108639 0.023757)
(0.0023281 0.00939571 0.0228693)
(0.00258711 0.00951536 0.0241087)
(-0.00568718 0.0127498 0.0168626)
(-0.00677919 0.0102056 0.0162416)
(-0.00725421 0.00874088 0.015516)
(-0.00578787 0.0113722 0.0186392)
(-0.00664954 0.0115872 0.0158431)
(-0.00748758 0.0102396 0.0160433)
(-0.005817 0.000383723 0.0102071)
(-0.00783456 0.00287789 0.0118091)
(-0.00635135 0.000890124 0.0108325)
(-0.00715917 0.001932 0.0115627)
(-0.0030757 -0.00608359 0.0165903)
(-2.39151e-05 -0.00617009 0.0134452)
(-0.00318581 -0.00532679 0.0148839)
(-0.00137269 -0.00631564 0.0149416)
(-0.00138412 -0.00609622 0.0136613)
(-0.00539376 -0.00307411 0.0138465)
(-0.00434149 -0.00400873 0.0130775)
(-0.00609191 -0.00269927 0.0144311)
(-0.00497664 -0.00416153 0.0136233)
(-0.00587926 -0.00211971 0.0151459)
(-0.00656001 -0.00197374 0.0155015)
(0.00555815 -0.00603252 0.0113332)
(0.00485612 -0.00668747 0.01181)
(0.00626547 -0.00541863 0.013015)
(0.00539461 -0.00538448 0.0120499)
(0.00427437 -0.00602312 0.0113925)
(0.00617009 -0.00610908 0.0125906)
(0.00558563 -0.0125887 0.0115894)
(0.00414412 -0.0119498 0.0110981)
(0.00522174 -0.0121299 0.0116202)
(0.00581766 -0.0118006 0.0115459)
(0.00506734 -0.0123756 0.0110156)
(0.00457745 -0.0128836 0.0114726)
(-0.0037099 -0.00275238 0.0130673)
(-0.00357923 -0.00366737 0.0114948)
(-0.00363556 -0.0029542 0.0125854)
(-0.00259413 -0.00408576 0.0107265)
(-0.00349315 -0.00335157 0.0113056)
(-0.00394991 -0.00274821 0.0137412)
(-0.00320241 -0.0020045 0.0149652)
(-0.00396962 -0.00188271 0.0154063)
(0.00215106 -0.00426143 0.0144767)
(0.00227394 -0.00253838 0.0128745)
(0.000585541 -0.00359668 0.0124733)
(0.000372173 -0.00338629 0.0131091)
(-0.00169937 -0.00295163 0.0114767)
(-0.00161135 -0.00347497 0.0108545)
(-0.00197898 -0.00334467 0.00949888)
(-0.00166092 -0.00370995 0.00991934)
(-0.00164433 -0.00297336 0.0108707)
(-0.0003615 -0.00430456 0.00455886)
(-7.92616e-05 -0.00433609 0.00445155)
(8.7513e-05 -0.00427105 0.00430097)
(-0.000808517 -0.00408296 0.00510609)
(-0.000324944 -0.00416062 0.00478819)
(0.00611306 -0.00517716 0.0151588)
(0.00628954 -0.00640648 0.0134433)
(0.00563255 -0.00562699 0.0131534)
(0.00630376 -0.00559575 0.0138829)
(0.00499073 -0.00477005 0.0132296)
(0.00510846 -0.00442005 0.0142036)
(0.00761404 -0.00844936 0.0135731)
(0.00677506 -0.00862512 0.0125222)
(0.00688648 -0.00667125 0.0128942)
(0.00699299 -0.00886365 0.0121063)
(0.00772712 -0.00830968 0.0126593)
(0.00701764 -0.00727988 0.0130651)
(-0.00101338 -0.00211154 0.0133098)
(-0.000361826 -0.00209654 0.0143761)
(-0.000459566 -0.00244783 0.0131778)
(-0.00102429 -0.00242568 0.0125963)
(-0.000335697 -0.00120867 0.0140376)
(-0.000549549 -0.00468298 0.00614197)
(-0.000458042 -0.0044655 0.00603131)
(0.000431198 -0.00431708 0.00527887)
(-0.00126757 -0.00437229 0.0070003)
(-0.0015887 -0.00462102 0.00769998)
(-0.0010055 -0.00422667 0.00589014)
(-0.000612081 -0.00414838 0.00544426)
(-0.0014039 -0.00405205 0.00674345)
(-0.00144573 -0.00420938 0.00703839)
(-0.00114615 -0.00439409 0.00622654)
(-0.00140984 -0.00386795 0.00691166)
(0.00307974 -0.00267368 0.0151595)
(0.00522893 -0.0024166 0.0160809)
(0.00304995 -0.00197024 0.0152421)
(0.00409716 -0.00109145 0.01529)
(0.00386651 -0.00358707 0.0148393)
(0.00501901 -0.00352164 0.0151434)
(-0.00270387 0.000333769 0.0191478)
(-0.00515019 0.000961259 0.0179549)
(-0.00325101 0.00179441 0.0196937)
(-0.00424508 -4.29587e-05 0.0166842)
(-0.00343483 0.000133971 0.0173405)
(-0.0043588 0.00196496 0.0190876)
(-0.00478416 -0.00230622 0.0133749)
(-0.00479947 -0.00137342 0.0145581)
(-0.00491619 -0.00219916 0.0128126)
(-0.00500731 -0.00184506 0.0148746)
(-0.00416075 -0.00287836 0.0121397)
(-0.0053617 -0.000531729 0.0149957)
(0.00844288 -0.00160984 0.0173625)
(0.00820236 -0.000347052 0.0191238)
(0.00796292 0.000316551 0.0182948)
(0.00852838 -0.00094705 0.0177119)
(0.00788589 -0.000953185 0.0169648)
(0.00792093 0.00100414 0.019394)
(0.00889603 -0.00252264 0.0191438)
(0.00775817 -0.002446 0.0177797)
(0.00735114 -0.00193698 0.0191302)
(0.00887019 -0.00323473 0.0165535)
(0.00796961 -0.00194023 0.0198208)
(0.00676453 -0.00072429 0.0186509)
(-0.0012122 0.00258326 0.0205935)
(-8.59968e-05 0.00087095 0.0206377)
(0.00139742 0.00165201 0.0218819)
(0.000444986 0.00262185 0.022081)
(-0.00127234 0.00120952 0.0205415)
(0.0013181 0.00288652 0.0218964)
(0.00596941 0.000644387 0.0202617)
(0.00287097 0.00155174 0.0216092)
(0.0036263 0.00218404 0.0185927)
(0.00593899 0.000452058 0.0215067)
(0.00305727 0.000835459 0.0202842)
(0.00364649 0.00289357 0.0210533)
(0.00506754 0.00272207 0.0211204)
(-0.00243967 -0.00109066 0.0170272)
(-0.0026269 -0.00021559 0.0171221)
(-0.00143648 0.000462258 0.0191631)
(-0.00144332 -0.00156077 0.0179716)
(-0.00160277 -0.00085266 0.0195573)
(-0.00176493 -0.00728965 0.0142496)
(-0.0011501 -0.00657683 0.0138435)
(-0.00134658 -0.00828385 0.0132831)
(-0.00147617 -0.00609902 0.0138956)
(-0.00168296 -0.0076757 0.0131358)
(-0.00125134 -0.0077087 0.0136809)
(0.000239656 -0.010078 0.0121026)
(-0.00010355 -0.00990722 0.0121097)
(0.00104754 -0.0102729 0.0114248)
(0.000581249 -0.0102626 0.0115189)
(-0.000480444 -0.00915374 0.0116802)
(0.00122085 -0.0109554 0.0117517)
(0.00389705 -0.0114489 0.0120311)
(0.00443279 -0.0111998 0.011219)
(0.0028571 -0.0107106 0.0111416)
(0.00356681 -0.0113547 0.011155)
(0.00447986 -0.0107064 0.0110527)
(0.00278957 -0.0112688 0.0113146)
(0.00230352 -0.0118234 0.011553)
(0.00292008 -0.0117843 0.0109654)
(0.0013271 -0.0115788 0.0116556)
(0.00276668 -0.0125985 0.0113977)
(0.00132214 -0.0125294 0.0120441)
(0.00192151 -0.0123308 0.0112375)
(0.000666864 -0.00495415 0.00967922)
(-0.00107064 -0.00394079 0.00870101)
(-0.00130573 -0.00433077 0.00925462)
(-0.00029798 -0.00400903 0.00880261)
(-0.000356786 -0.00499872 0.00967453)
(0.000471183 -0.00443895 0.00930412)
(-0.00383055 -0.00171063 0.0147642)
(-0.0036271 -0.00128016 0.0160294)
(-0.00429283 -0.000865553 0.0149248)
(-0.00402023 -0.00217075 0.0144776)
(-0.00404914 -0.00270643 0.0151942)
(-0.0039668 -0.000424502 0.0157106)
(-0.00215558 -0.00685012 0.0129861)
(-0.00168139 -0.00809403 0.0122867)
(-0.00218655 -0.0078235 0.0134996)
(-0.00151216 -0.00719594 0.0121898)
(-0.000774146 -0.00787067 0.0116699)
(-0.00100396 -0.00863747 0.0123379)
(0.00939401 -0.00579387 0.0158398)
(0.00929764 -0.00511855 0.0161806)
(0.00862643 -0.00402311 0.0170762)
(0.00928961 -0.00538197 0.0160559)
(0.00932065 -0.0046537 0.0173309)
(0.00892749 -0.00410235 0.0162795)
(0.00540017 -0.0100208 0.0118533)
(0.00594232 -0.00891616 0.011984)
(0.00446881 -0.00974395 0.011368)
(0.00641704 -0.00951355 0.0123246)
(0.00432808 -0.00906868 0.010997)
(0.0075266 -0.00895448 0.0133025)
(0.00833781 -0.00638131 0.0136896)
(0.00850813 -0.0078154 0.0142046)
(0.00804744 -0.00818375 0.0131742)
(0.00757994 -0.00918501 0.0128992)
(0.00795957 -0.00726283 0.0135364)
(0.00721185 -0.00942581 0.0123527)
(0.00646883 -0.0107923 0.0118314)
(0.00624264 -0.0110424 0.0119282)
(0.00575769 -0.0102955 0.0115589)
(0.00662098 -0.00993905 0.0122352)
(0.0071646 -0.0105484 0.0125272)
(-0.00368466 -0.00444987 0.0132167)
(-0.00313869 -0.0049897 0.0125653)
(-0.0029174 -0.00516001 0.0121244)
(-0.00290283 -0.00576809 0.0125693)
(-0.00382959 -0.00372085 0.0132701)
(-0.00369091 -0.0043094 0.0135867)
(-0.00306079 -0.00360387 0.0103888)
(-0.00270814 -0.00311049 0.00921392)
(-0.00209347 -0.00354957 0.00914009)
(-0.00321526 -0.00290977 0.00986473)
(-0.00207682 -0.00409986 0.00981998)
(-0.00165918 -0.00402266 0.00944561)
(-0.0039209 -0.0048261 0.0130323)
(-0.0051048 -0.00374115 0.0146119)
(-0.00283584 -0.00536701 0.01297)
(-0.00583015 -0.00385143 0.0157428)
(-0.004596 -0.00501067 0.0160785)
(-0.0026186 -0.00514774 0.0122991)
(-0.00488418 0.00135311 0.0154318)
(-0.00425115 0.00286534 0.0156894)
(-0.00455474 0.0006293 0.015237)
(-0.00415218 0.00131375 0.0157134)
(-0.00487456 0.00259263 0.0164928)
(-0.0050156 0.00394399 0.0166746)
(-0.00791668 0.00425387 0.0131751)
(-0.00818227 0.00528382 0.0136447)
(-0.00825023 0.00732418 0.0149322)
(-0.00815864 0.00507463 0.0130599)
(-0.00867656 0.00664261 0.0137925)
(-0.0082109 0.0065646 0.0143762)
(-0.00515078 0.00988479 0.0170368)
(-0.00304752 0.0119566 0.0170406)
(-0.0043887 0.0100894 0.0183839)
(-0.00321174 -0.00592678 0.0205203)
(-0.00303584 -0.00559301 0.0187728)
(-0.00129653 -0.00612579 0.0193918)
(-0.0001508 -0.00624322 0.0185766)
(-0.00108199 -0.00675642 0.0191396)
(0.00993881 0.0117726 0.0183156)
(0.00682429 0.0149328 0.0180494)
(0.00923671 0.0117607 0.0183049)
(0.0103893 0.0114785 0.017843)
(0.00816139 0.0128193 0.0181194)
(0.00775356 0.0139226 0.0194494)
(0.00327742 0.0154359 0.0191091)
(0.00178035 0.0165894 0.0195257)
(0.00130678 -0.00341498 0.00929357)
(0.0022171 -0.00354538 0.00958186)
(0.0012223 -0.00385901 0.00914452)
(0.000608324 -0.00336101 0.00857405)
(0.00230562 -0.00326046 0.00938178)
(0.000537684 -0.00364921 0.00864254)
(-0.00210597 -0.00221094 0.00800011)
(-0.00170139 -0.00223406 0.00731144)
(-0.00223196 -0.0022099 0.00824687)
(-0.0018372 -0.00234985 0.00767605)
(-0.0023185 -0.00191938 0.00782347)
(-0.00924824 -0.00089712 0.0239602)
(-0.010613 0.00199912 0.0261138)
(-0.01046 -0.000947593 0.0246571)
(-0.00990201 -0.000130605 0.0258332)
(0.000965589 -0.00454788 0.00588342)
(-5.4734e-05 -0.0050647 0.00755288)
(0.00105085 -0.00471228 0.00631845)
(3.12215e-05 -0.00481824 0.00634697)
(-0.00133958 -0.00458078 0.00734634)
(-0.00067103 -0.00439914 0.00647182)
(0.00347163 -0.00362243 0.00452166)
(0.00255108 -0.0041276 0.00497261)
(0.00149776 -0.00415511 0.00477291)
(0.00280612 -0.00380845 0.00453867)
(0.00374113 -0.00350522 0.00453905)
(0.00137448 -0.0038633 0.00447173)
(0.00238741 -0.00400499 0.0044621)
(0.00272062 -0.00465861 0.00682097)
(0.000457045 -0.00482971 0.00734509)
(0.00190916 -0.00499593 0.00768079)
(0.000932246 -0.00522208 0.00806264)
(0.00175162 -0.00492635 0.007005)
(-0.00747031 0.00737796 0.0269243)
(-0.00834052 0.0061265 0.0254936)
(-0.00865011 0.00483011 0.0247283)
(-0.0087236 0.00629567 0.0266796)
(-0.0092203 0.00510913 0.0254953)
(-0.00729778 0.00795493 0.0261018)
(-0.00915574 0.001718 0.02302)
(-0.00908949 0.000932933 0.0244817)
(-0.008931 -0.00143946 0.0233106)
(-0.00888664 -0.00021174 0.0227488)
(-0.0095986 0.00171415 0.0244636)
(-0.00918801 -3.40747e-05 0.0245411)
(-0.00794767 -0.00147392 0.0218644)
(-0.00940547 0.00360319 0.0239518)
(-0.007839 0.0066662 0.0273308)
(-0.00748729 0.00794855 0.0274892)
(-0.00673986 0.00843262 0.0263311)
(-0.00631414 0.0101284 0.0284806)
(-0.008373 0.00710249 0.0263674)
(-0.00645206 0.0093572 0.0273778)
(0.00144295 0.00693391 0.0230303)
(-9.25456e-05 0.00804237 0.0235616)
(0.00126757 0.00933222 0.0232032)
(-0.00224779 0.00869171 0.0231688)
(-0.000298174 0.00659545 0.0270793)
(0.00545692 0.00741311 0.0217388)
(0.00581642 0.00567347 0.022001)
(0.00657776 0.00278794 0.0180991)
(0.00630734 0.00428584 0.0179021)
(0.00611277 0.00581854 0.0208447)
(0.00679187 0.0044794 0.0192615)
(0.00613628 0.00112211 0.0152075)
(0.0053055 0.000778899 0.0147099)
(0.00488902 -0.000427349 0.013476)
(0.00613574 0.00209352 0.0153594)
(0.00498991 -0.00110748 0.012959)
(0.00547098 -0.000532228 0.0139259)
(0.0032306 -0.00160156 0.0108565)
(0.00243873 -0.00192494 0.00997234)
(0.00192422 -0.00226117 0.00926547)
(0.00355179 -0.0021382 0.011328)
(0.0019709 -0.00255752 0.00944625)
(0.00276751 -0.00275919 0.0104643)
(0.00652153 0.00518299 0.0140928)
(0.00795683 0.00445782 0.0130068)
(0.00825104 0.00468381 0.0125086)
(0.00697213 0.00452762 0.0133391)
(0.00710075 0.00618287 0.0143154)
(0.00748561 0.005227 0.0132443)
(0.011966 0.00438375 0.0133806)
(0.0120307 0.00352277 0.0142234)
(0.0120659 0.00498981 0.0147613)
(0.0116721 0.00595524 0.0137474)
(0.010939 0.000366419 0.0152136)
(0.00848292 -0.00280178 0.0162906)
(0.011453 0.00173029 0.0157502)
(0.00966802 -0.00168393 0.0170191)
(0.00975561 -0.00164779 0.0153221)
(0.0106698 0.000395 0.0163566)
(0.00521466 -0.00501791 0.0115862)
(0.00616355 -0.00497793 0.0133624)
(0.00662793 -0.00412271 0.011857)
(0.00403548 -0.00576843 0.0126447)
(0.00232866 -0.00607617 0.0132147)
(0.00396206 -0.00583743 0.0141408)
(0.00847339 -0.00238602 0.0098217)
(0.00925053 -0.00150497 0.0102575)
(0.0101846 -4.86947e-05 0.0105253)
(0.00775877 -0.0033096 0.0103959)
(0.0100971 -0.000546595 0.0108277)
(0.00969188 0.0066544 0.0129572)
(0.00909976 0.00721858 0.0140999)
(0.00918197 0.00573899 0.0137593)
(0.00960475 0.00513055 0.0128432)
(0.0103896 0.00548464 0.012934)
(0.0105833 0.000828165 0.0107965)
(0.010482 0.00353472 0.011564)
(0.010388 0.00203712 0.0111984)
(0.0109001 0.00290913 0.0120977)
(0.0103085 0.00011569 0.0108764)
(0.0106266 0.00138187 0.0112627)
(0.00542468 -0.00344697 0.00622701)
(0.00532182 -0.00305415 0.00568436)
(0.00343819 -0.00399675 0.00542211)
(0.00312818 -0.00445346 0.00591621)
(0.00430439 -0.00392077 0.00567094)
(0.00444389 -0.00419223 0.00647191)
(0.00616262 -0.00362219 0.00740442)
(0.00436216 -0.00443992 0.00753267)
(0.00691407 -0.00251697 0.00740951)
(0.00804906 -0.00209843 0.00811168)
(0.0085055 -0.00160457 0.00813461)
(0.00742669 -0.00264044 0.00769499)
(0.00625053 -0.00331772 0.00717851)
(0.00731023 -0.00289706 0.00793713)
(0.00545165 -0.00268753 0.00515081)
(0.00645587 -0.00170948 0.00636901)
(0.005523 -0.00288748 0.00528312)
(0.00611149 -0.00267137 0.00602621)
(0.00644005 -0.00234684 0.00604523)
(0.00605508 -0.00228979 0.00576094)
(0.00552395 -0.00298062 0.0089272)
(0.00546952 -0.00273602 0.00947108)
(0.00539159 -0.00293275 0.00793593)
(0.00502956 -0.00241126 0.0104042)
(0.00490641 -0.00345548 0.0106579)
(0.00453799 -0.00242586 0.0122306)
(0.00455323 -0.0037861 0.0112991)
(0.00456671 -0.00272272 0.0113457)
(0.0066159 0.0115623 0.0162475)
(0.00446947 0.0108049 0.0173798)
(0.00357488 0.0126148 0.01717)
(0.00592153 0.0110541 0.0162773)
(0.00518879 0.0120295 0.0166422)
(0.00292711 0.0110385 0.0169186)
(0.00229889 0.00905428 0.0173144)
(0.00382312 0.00920964 0.0171109)
(0.000960499 0.00862538 0.0174746)
(0.000630006 0.00983774 0.0175387)
(0.00207715 0.0103306 0.017687)
(0.00176836 -0.00355546 0.0144273)
(0.00279143 -0.00388853 0.0138656)
(0.000943968 -0.00380788 0.0140949)
(0.00397452 -0.00364678 0.00472498)
(0.00538549 -0.0028427 0.00539531)
(0.004689 -0.00331671 0.00497211)
(0.0048804 -0.00313194 0.00502569)
(0.00427501 -0.00332829 0.00445677)
(0.00563031 -0.00298642 0.00560002)
(0.00664375 -0.000812166 0.00912487)
(0.00684127 -0.000329627 0.00823884)
(0.00682685 -0.00185918 0.00876607)
(0.00696584 -0.00031218 0.00943467)
(0.00682665 -0.000938699 0.00750941)
(0.00504596 -0.00294723 0.00551358)
(0.00553554 -0.00318681 0.00577365)
(0.0056513 -0.00272973 0.00628042)
(0.00658018 -0.00199755 0.00665822)
(0.00602122 -0.00223464 0.00606907)
(0.0065339 -0.00143154 0.00717497)
(0.00647468 -0.00242022 0.00720148)
(0.00611272 -0.00241912 0.00708299)
(0.00723799 0.000606657 0.0106025)
(0.00714106 0.00105187 0.0116468)
(0.00767273 0.00171266 0.0101432)
(0.00714222 -0.00100477 0.00824059)
(0.00731673 4.30124e-05 0.00995059)
(0.00713104 0.00118687 0.0110416)
(0.00764774 0.000303213 0.00864258)
(0.00783017 0.000116119 0.010258)
(-0.0030853 0.00319683 0.0168005)
(-0.00319448 0.00148708 0.0166244)
(-0.00174893 0.00165717 0.0161445)
(-0.00152681 0.00275409 0.016723)
(-0.00288169 0.000726723 0.0171981)
(-0.00238759 0.0041865 0.0165669)
(0.00358894 -0.00423683 0.00467086)
(0.00353558 -0.00414107 0.00476038)
(0.00412401 -0.00401452 0.00489505)
(0.00428626 -0.00348965 0.00516482)
(0.0048292 -0.00362596 0.00574071)
(0.00466338 -0.00371144 0.00568041)
(0.00238304 -0.00422604 0.00402635)
(0.00107676 -0.00457134 0.00416395)
(0.00114032 -0.00446724 0.0040733)
(0.0014172 -0.0041058 0.00374407)
(0.00241594 -0.00449096 0.00429739)
(0.00204559 -0.00387841 0.0036547)
(0.00173257 -0.00474554 0.004125)
(0.00310699 -0.00452143 0.00446086)
(0.00280581 -0.00435715 0.00422902)
(0.00433851 0.00466907 0.0159239)
(0.00441467 0.00632046 0.0161948)
(0.00525316 0.00616525 0.0153069)
(0.00353713 0.00570734 0.0161476)
(0.00526204 0.00481882 0.0142957)
(0.00579542 0.00493474 0.014604)
(0.00204828 0.0018897 0.0157124)
(-0.00095003 0.00118969 0.0171508)
(-8.10702e-05 0.00196143 0.0165548)
(0.000509461 0.00100415 0.0152745)
(-0.0010448 0.000352161 0.0157975)
(-0.000327451 0.000945044 0.0155399)
(0.00365559 0.00265844 0.0146645)
(0.00285316 0.00206711 0.0159056)
(0.00415928 0.00123808 0.0134473)
(0.00211511 0.000977475 0.0152721)
(0.00357887 6.19919e-05 0.0141271)
(0.00267894 -0.000189685 0.0153051)
(0.00613562 0.00119488 0.0118075)
(0.00652727 0.000571869 0.0107592)
(0.00497331 -7.57809e-05 0.0119538)
(0.00543786 0.000692277 0.0126637)
(0.00612823 -5.2437e-05 0.010597)
(0.00566777 0.000156824 0.0111613)
(0.0064943 0.00980681 0.0161086)
(0.00737922 0.00892091 0.015891)
(0.00677957 0.00849555 0.0152997)
(0.00481128 0.00930655 0.0163551)
(0.00525024 0.00969082 0.0164016)
(0.00676952 -0.003021 0.0144692)
(0.006763 -0.00398346 0.0137355)
(0.00604828 -0.00446169 0.0131587)
(0.00598306 -0.0038551 0.0133596)
(0.00773094 -0.00292658 0.0150232)
(0.00773448 -0.00208033 0.0149029)
(-0.00968925 0.00494235 0.0268288)
(-0.00993563 0.00152186 0.0257733)
(-0.00946136 0.00159881 0.025221)
(-0.00922596 0.00496513 0.0269046)
(-0.00971837 0.00308361 0.0269233)
(-0.00940155 0.00302553 0.0261556)
(0.0113239 0.00522602 0.0172758)
(0.0113929 0.00364172 0.0168345)
(0.0117544 0.00915956 0.0173664)
(0.0113526 0.00718596 0.0160804)
(0.0118011 0.00502416 0.0160943)
(0.011327 0.00722131 0.0183841)
(0.000429372 -0.00507416 0.0204649)
(0.00415128 -0.00402032 0.0189044)
(0.00511078 -0.00316682 0.0198178)
(0.00167162 -0.00492896 0.0195457)
(0.00620453 -0.00393951 0.0173974)
(0.0046408 -0.00455551 0.0178681)
(0.00359701 -0.00567193 0.0182373)
(0.00171796 -0.00581314 0.0187009)
(0.00280794 -0.00524271 0.0187436)
(0.00516523 -0.00489194 0.0174773)
(-0.00591073 0.000197801 0.0112359)
(-0.00708718 0.00270953 0.0126163)
(-0.00620527 0.000752743 0.0114466)
(-0.00625249 0.000966591 0.0116824)
(-0.00677938 0.00186642 0.0119786)
(-0.00666014 0.0019803 0.0125635)
(-0.00377685 -0.00222034 0.00971313)
(-0.00422679 -0.00185345 0.00989643)
(-0.00489025 -0.00110299 0.0110833)
(-0.00419941 -0.00185817 0.0101821)
(-0.00478574 -0.00121907 0.010481)
(-0.00516923 -0.000588818 0.0108798)
(0.0025386 -0.00762791 0.010598)
(0.00410211 -0.00738001 0.011039)
(0.00342557 -0.00877422 0.0117363)
(0.00344173 -0.00776238 0.0114387)
(0.00444936 -0.00775668 0.0113223)
(0.00253748 -0.00712492 0.0101745)
(-0.0019981 -0.00283064 0.0130612)
(-0.000841105 -0.00254435 0.0158223)
(-0.0014535 -0.00260644 0.0138301)
(-0.00180702 -0.00224919 0.0147501)
(-0.00178659 -0.00304953 0.0130706)
(-0.00041074 -0.00276083 0.0147444)
(0.00339482 -0.00101963 0.0162032)
(0.00319576 -0.00143907 0.0188327)
(0.00217032 -0.000908848 0.0156594)
(0.000628628 -0.0012377 0.0160174)
(0.00157027 -0.00221803 0.0174616)
(0.00123383 -0.0010408 0.0148373)
(-0.000218175 -0.00214144 0.0153144)
(-0.00536835 -0.00128363 0.0126635)
(-0.00611393 0.0023125 0.0147225)
(-0.00597332 0.00492018 0.0160436)
(-0.00569875 0.00343533 0.0150948)
(-0.00536752 0.00249853 0.0152607)
(-0.00534688 0.0013228 0.0145023)
(-0.00597718 0.00112918 0.0140015)
(-0.00556783 -0.000683137 0.0128871)
(-0.00597452 0.000335943 0.0137683)
(-0.00553156 0.000478675 0.0141076)
(-0.00524327 -0.000680672 0.0105609)
(-0.00645676 0.00315235 0.0149227)
(-0.00658677 0.00475969 0.0156394)
(-0.00586129 0.00718276 0.0164832)
(-0.00636053 0.00591897 0.0163267)
(-0.00573948 0.00775484 0.0170021)
(-0.00603374 0.00101956 0.0134969)
(-0.00660062 0.00239113 0.0137452)
(-0.00510621 -0.000772437 0.0120294)
(-0.00595632 0.000424185 0.0125523)
(-0.00615691 0.00111844 0.0122077)
(-0.00585732 0.000374163 0.0114994)
(-0.00643764 0.00686124 0.0176379)
(-0.00713832 0.00582141 0.0158661)
(-0.00688117 0.00242029 0.0133425)
(-0.00686497 0.00416112 0.0141447)
(-0.00671654 0.00283797 0.0131987)
(-0.00682557 0.0044673 0.0152027)
(-0.00670377 0.00311182 0.0140881)
(-0.00726541 0.00551285 0.0146464)
(-0.00601118 0.00687404 0.0162958)
(-0.00710046 0.00659794 0.015109)
(0.000685706 -0.00545968 0.0189313)
(0.00118166 0.00061617 0.0158365)
(-0.000262202 -0.000956235 0.0158271)
(0.00628121 0.0012207 0.0119113)
(0.00493167 0.00104034 0.0129274)
(0.00229318 0.00528607 0.0165817)
(0.00148058 0.00448706 0.016134)
(0.00229206 -0.00387357 0.00373636)
(0.0042226 -0.00366698 0.00489239)
(0.0027066 -0.00419343 0.00409675)
(0.00297376 -0.00387471 0.00426709)
(-0.00246814 0.0060521 0.0168084)
(-0.000581851 0.00424482 0.0169543)
(-0.00178837 0.00532678 0.0175915)
(0.00017101 0.00593441 0.0179019)
(0.00138412 0.00624987 0.0166947)
(-0.000488967 0.00625732 0.0173699)
(0.00653988 0.00266782 0.0114492)
(0.00595468 0.00390853 0.0133502)
(0.00651661 -0.00261283 0.00860013)
(0.00639878 -0.00146878 0.0100191)
(0.00677822 0.000392125 0.010052)
(0.00628814 -0.0017867 0.0105808)
(0.00632517 -0.00206036 0.00972189)
(0.000104179 -0.00122394 0.0158291)
(-0.000380745 -0.00183693 0.0151301)
(4.48268e-06 -0.002527 0.0154553)
(0.000710719 -0.000626179 0.0153878)
(0.000945036 -0.00112444 0.0156821)
(0.0019065 -0.000692858 0.014546)
(0.000432244 -0.00217427 0.0152511)
(0.00162047 -0.00212465 0.0144229)
(0.000449929 -0.0029876 0.0141222)
(-0.00165082 0.00730868 0.0184459)
(0.00239186 0.00996352 0.0181479)
(0.00138675 0.0110072 0.0187982)
(-0.000848967 0.0100135 0.0190748)
(-0.00203942 0.0083819 0.0182564)
(0.000218354 0.0118586 0.0182848)
(0.00179151 0.011745 0.0173577)
(0.0040012 0.0105199 0.0168852)
(0.0101539 0.00960847 0.014943)
(0.00833638 0.00828893 0.0146858)
(0.00906482 0.0085643 0.0150268)
(0.00810253 0.0116094 0.0162106)
(0.00712208 0.0104875 0.016405)
(0.00916131 0.0106515 0.0161638)
(0.008118 0.0100933 0.0152264)
(0.000367164 0.00748362 0.0176858)
(1.73752e-06 0.00821049 0.0176398)
(0.00490552 0.00850084 0.0165809)
(0.00483549 0.00824275 0.0153772)
(0.0061002 0.00910665 0.0161107)
(0.00624922 0.00713183 0.0160091)
(0.0066683 0.00822586 0.0150419)
(0.00681425 0.00676167 0.0155116)
(0.00289597 -0.00101341 0.0144999)
(0.00400433 -0.00385045 0.0135429)
(0.00390921 -0.00268192 0.0135479)
(0.00303053 -0.00218058 0.0134692)
(0.00412881 -0.0013096 0.0128171)
(0.00411051 -0.00125196 0.0143274)
(0.00347015 -0.00031857 0.0135618)
(0.00601763 -0.00167338 0.0115337)
(0.00554086 -0.00207726 0.0111777)
(0.00473336 -0.00146106 0.0126083)
(0.00528785 -0.00223161 0.0127168)
(0.00566347 -0.00115773 0.0119911)
(0.00479329 0.000382195 0.0127811)
(0.00507941 -0.000986535 0.0121959)
(0.00475046 -0.00386612 0.00617459)
(0.00429587 -0.00408584 0.00539318)
(0.00382343 -0.00423636 0.00498348)
(0.00540652 -0.00236599 0.0101055)
(0.00554891 -0.00228932 0.0101036)
(0.00589197 -0.00172604 0.00950589)
(0.00520051 -0.00363475 0.00666631)
(0.00568725 -0.00291175 0.00695325)
(0.00645135 -0.00194309 0.00888997)
(0.00500777 -0.003483 0.00615667)
(0.00543672 -0.00296815 0.00628071)
(0.00582397 -0.00278954 0.00893492)
(0.00582985 -0.00304026 0.00781398)
(0.00549545 -0.00332102 0.00724955)
(0.00540515 -0.00340738 0.00767717)
(0.00331156 -0.00358763 0.00403932)
(0.00269195 -0.00369836 0.00389891)
(0.00308374 -0.00369956 0.00390949)
(0.00374138 -0.0031837 0.0042113)
(0.0033733 -0.00357633 0.00416102)
(0.00330401 -0.00393666 0.0043274)
(0.00398657 -0.00325874 0.00422412)
(0.00484008 -0.00320625 0.00499325)
(0.00669086 -0.00228208 0.00678992)
(0.00736552 -0.0010525 0.00729048)
(0.0073284 -0.00121058 0.00723011)
(0.00605673 -0.00235377 0.00601482)
(0.00391073 -0.00486076 0.0072278)
(0.00442835 -0.00346971 0.00521465)
(0.00722417 -0.00189368 0.00685175)
(0.00764088 -0.000914767 0.00723416)
(0.00439275 -0.00351262 0.00499696)
(0.00776132 0.00780179 0.0145719)
(0.00817743 0.00674166 0.0147198)
(0.00883507 -0.00102695 0.00897955)
(0.00925423 -0.0015187 0.00951519)
(0.00992828 0.000335439 0.00941071)
(0.0053764 -0.00490934 0.0105284)
(0.00677428 -0.00490716 0.0116113)
(0.0113032 0.00153585 0.0139458)
(0.0116349 0.00363686 0.0152509)
(0.0110441 0.00454689 0.0123295)
(0.0112383 0.00419039 0.012135)
(0.010089 0.00828328 0.01368)
(0.0107091 0.00683233 0.013453)
(0.0118478 0.00524509 0.0132834)
(0.0112176 0.00572037 0.0126003)
(0.0114545 0.00661833 0.0138316)
(0.0108958 0.00796051 0.0141792)
(0.0081273 -0.000797308 0.00839794)
(0.00791864 -0.000576982 0.00833076)
(0.00815923 0.000344453 0.00896607)
(0.00786066 0.00187157 0.00980015)
(0.00812879 0.000970664 0.00982523)
(0.00702961 0.00399415 0.0132204)
(0.00763046 0.00226085 0.0113115)
(0.00734686 0.0029717 0.0124202)
(0.0072265 0.00411433 0.0126663)
(0.00673186 0.00446206 0.0137305)
(0.0103853 0.00452674 0.0124453)
(0.00975582 0.000963539 0.010204)
(0.0100466 0.00300701 0.0120777)
(0.00987718 0.00419343 0.0124114)
(0.00868682 0.00593971 0.0132197)
(0.00887286 0.00472026 0.013056)
(0.00812647 0.00542203 0.0136677)
(0.0091341 0.00466937 0.0128123)
(0.00757339 0.00669845 0.014359)
(0.00462652 -0.00165692 0.0119646)
(0.0042624 -0.000467273 0.0120154)
(0.00240371 -0.0014866 0.0101386)
(0.00519412 0.00625746 0.0192436)
(0.00589077 0.00400494 0.0173973)
(0.00604685 0.0029678 0.0166522)
(0.00550341 0.00532339 0.017737)
(-0.00258051 0.0112707 0.0260522)
(-0.00101521 0.0113776 0.025666)
(-0.00935337 0.00649636 0.0275683)
(-0.00486632 0.0112767 0.0270913)
(-0.00412494 0.0110322 0.0259958)
(0.0076061 0.000516258 0.0176068)
(0.00707346 0.00130325 0.0174209)
(0.00773704 -0.000683603 0.0167432)
(0.00690794 0.000613263 0.0162769)
(0.00667921 0.00151928 0.0167757)
(0.00762413 0.00160111 0.018269)
(0.00702887 0.00344118 0.0209146)
(0.00728957 0.00252466 0.019993)
(0.00472134 0.0075278 0.0231767)
(0.00610383 0.00547693 0.020277)
(0.00579829 0.00643387 0.0225907)
(0.00673426 0.00329188 0.0198741)
(0.00683163 0.00274105 0.0186362)
(-0.00720619 -0.00336446 0.0206281)
(-0.00705661 -0.0031299 0.0202378)
(-0.00411135 0.0096582 0.0264797)
(-0.00578628 0.0114413 0.0266855)
(-0.00899618 0.00306932 0.025926)
(-0.00684501 0.00960862 0.0274219)
(-0.00875963 0.00613726 0.0264523)
(-0.00715938 -0.00140755 0.0172675)
(-0.00729464 -0.00173389 0.0184096)
(-0.00655962 0.00794644 0.0257287)
(-0.00662875 0.00940051 0.0259626)
(-0.0046288 0.0100948 0.0271948)
(-0.00310931 0.0100895 0.0249719)
(-0.0031976 0.00975264 0.0260948)