/*--------------------------------*- C++ -*----------------------------------*\
| =========                 |                                                 |
| \\      /  F ield         | OpenFOAM: The Open Source CFD Toolbox           |
|  \\    /   O peration     | Version:  v1612+                                |
|   \\  /    A nd           | Web:      www.OpenFOAM.com                      |
|    \\/     M anipulation  |                                                 |
\*---------------------------------------------------------------------------*/
FoamFile
{
    version     2.0;
    format      ascii;
    class       surfaceScalarField;
    location    "166";
    object      phi;
}
// * * * * * * * * * * * * * * * * * * * * * * * * * * * * * * * * * * * * * //

dimensions      [0 3 -1 0 0 0 0];

internalField   nonuniform List<scalar> 
37506
(
-8.23695e-09
4.51467e-09
8.78466e-09
-5.0624e-09
1.10625e-09
-1.42798e-09
-5.4681e-09
-5.52207e-09
1.48073e-09
5.04054e-09
-9.99197e-10
-1.18895e-08
-3.78572e-09
1.31874e-08
2.48784e-09
8.44623e-10
2.21602e-09
-4.14505e-09
1.0845e-09
-5.43042e-09
3.46378e-09
2.81131e-09
3.02131e-09
5.52276e-09
-6.26115e-10
2.86124e-09
2.55691e-09
-2.83323e-09
2.49238e-09
-1.18683e-09
7.20749e-09
6.8451e-09
-4.56888e-09
3.24652e-09
-5.27172e-09
1.093e-08
7.28466e-09
-7.23256e-09
-4.62097e-09
-4.56749e-10
2.46967e-09
7.28863e-10
-1.4113e-09
-4.38488e-09
1.09493e-09
2.41204e-09
2.76661e-09
-1.99071e-09
9.81016e-10
-8.89392e-10
-1.06938e-08
-1.43577e-08
2.49341e-08
1.17426e-10
-2.09713e-08
-1.47643e-10
1.04252e-08
2.61909e-09
1.47068e-08
-1.5733e-08
-1.5929e-09
-1.85208e-08
1.68563e-10
-1.82071e-08
8.74925e-09
9.31027e-09
-1.39007e-08
1.42498e-08
-9.96584e-09
1.97465e-09
-1.05296e-08
2.28806e-08
-1.36972e-08
-1.4653e-08
5.46962e-09
6.51258e-09
8.80665e-10
1.54874e-08
-2.37984e-09
-2.36256e-09
-1.15679e-08
1.63103e-08
8.88556e-09
-5.45236e-09
-1.3399e-08
4.74089e-13
-6.84796e-09
-7.62339e-09
-8.60909e-09
-1.25481e-08
-3.7324e-09
-7.21299e-09
-5.33464e-09
2.60114e-09
-1.52665e-08
-8.82973e-09
-1.24909e-08
5.72047e-09
-9.88067e-10
-7.7463e-09
3.01391e-09
-5.78771e-09
1.64917e-09
9.85901e-09
-3.29833e-09
3.18178e-09
-4.45826e-09
4.57482e-09
-6.35802e-09
2.07162e-09
-7.9455e-09
-5.08602e-09
7.24383e-09
-1.11731e-08
-4.51876e-09
-2.85792e-09
7.68888e-09
2.2379e-09
-5.67636e-09
-2.91955e-09
-2.30892e-09
8.85702e-11
2.16673e-09
-2.42993e-09
-1.09098e-08
-1.05475e-08
4.68397e-10
4.99306e-09
-8.8986e-10
-7.49087e-09
-7.69795e-09
4.35669e-09
3.80966e-09
3.50715e-09
-6.28816e-09
-4.91694e-09
-4.66839e-09
6.16716e-09
-1.26791e-09
1.06674e-10
4.26504e-10
-8.53279e-09
-1.63977e-09
-5.53825e-09
-3.4764e-09
-1.00419e-10
-4.68966e-09
-1.46028e-09
-2.0375e-09
2.61043e-09
8.87383e-10
-2.25042e-09
9.02151e-10
-1.11903e-10
-2.08728e-10
3.03048e-09
1.66039e-09
5.73624e-10
-5.08353e-10
2.98815e-09
5.50713e-10
1.21147e-09
-5.94026e-11
2.03517e-09
-3.44252e-09
1.62398e-09
2.91351e-09
2.69632e-09
-3.01208e-09
-1.12396e-09
8.50127e-11
-1.87015e-09
-3.50837e-09
-6.44281e-10
9.82804e-09
-5.67539e-09
5.42214e-09
-3.53349e-09
-5.39702e-09
5.28599e-09
2.79202e-11
-8.8316e-09
3.51769e-09
-8.52706e-09
1.31688e-08
1.22041e-09
4.20283e-09
-1.09604e-12
1.25958e-09
9.78887e-09
-7.40085e-09
8.41663e-09
-9.54285e-09
-5.86726e-09
2.36169e-09
6.57391e-09
-1.38911e-09
-1.11804e-08
5.99564e-09
-3.52956e-10
-4.73977e-10
1.34796e-09
-5.45534e-09
-1.75988e-09
-3.73287e-09
-3.16194e-10
5.41063e-09
3.17943e-09
-9.97917e-09
-3.61876e-09
-2.4627e-09
6.26111e-10
5.78598e-09
3.90134e-09
-4.27669e-09
5.8531e-09
-4.2008e-10
5.19939e-09
-5.63872e-09
-5.78452e-09
5.96223e-09
-1.77343e-09
-1.09756e-10
-3.06926e-10
-2.51793e-09
-1.58776e-08
4.51296e-09
1.38826e-08
1.36695e-08
-2.34869e-09
2.68171e-09
-1.40025e-08
2.07328e-08
1.2891e-08
-6.19237e-09
-2.74314e-08
-3.01791e-08
-2.11585e-08
3.11009e-08
2.02367e-08
-5.6701e-09
1.72475e-08
9.15545e-09
7.33078e-09
4.52069e-10
-1.03007e-08
8.84492e-09
-1.30042e-09
-2.13713e-10
9.74589e-09
1.25587e-09
-1.66719e-08
1.59778e-08
4.76936e-09
-7.0776e-09
1.76525e-08
1.12162e-08
-2.26369e-09
4.27371e-09
3.82988e-09
7.10252e-09
-1.01121e-08
-8.56571e-09
1.15753e-08
-2.16205e-09
-3.75197e-10
9.63976e-09
-1.02377e-08
-8.3613e-10
-7.59929e-09
7.10744e-09
-9.16413e-10
5.8905e-09
-7.7871e-09
5.47754e-10
-1.39108e-08
-5.15854e-09
-9.95488e-10
-8.18536e-09
-4.29541e-09
-1.4301e-09
-1.1083e-08
-3.33616e-09
-1.17158e-08
-7.55249e-09
8.25533e-09
-6.89276e-09
-5.65796e-09
-3.45115e-09
2.1228e-09
3.48542e-09
-8.94436e-09
-7.54717e-09
-8.64458e-09
-1.93645e-09
3.68828e-09
7.76928e-09
-1.31849e-08
-3.22894e-09
5.41958e-09
4.13253e-10
-2.20354e-10
-1.90724e-09
-1.85785e-09
8.12902e-09
-1.42494e-10
-6.12867e-09
9.01324e-09
-1.97586e-09
-8.89523e-09
-7.47638e-10
9.85381e-10
3.23469e-10
7.28837e-09
3.98628e-10
-9.66284e-09
-5.6494e-09
-6.59287e-09
-4.52247e-09
-4.82812e-09
1.98013e-09
7.50418e-09
-9.08567e-09
-6.44465e-09
8.28229e-09
-8.38647e-09
-1.21144e-08
-1.45903e-08
8.49503e-09
-4.78445e-09
-2.07652e-08
-4.36633e-09
-5.01407e-09
1.78428e-08
-1.15832e-08
-1.82616e-08
-3.08115e-09
6.35422e-09
-2.27219e-08
-1.01265e-08
3.56033e-09
-8.91888e-09
1.89282e-09
3.46571e-09
3.09982e-09
-3.29199e-09
2.04368e-10
-1.22141e-11
4.15354e-09
5.11638e-09
-5.70959e-09
2.43466e-09
3.73135e-10
1.25502e-09
-4.06282e-09
2.31654e-09
3.32948e-09
-3.21137e-09
-2.02096e-09
5.72368e-09
4.50818e-10
4.48995e-09
-2.01307e-09
-4.49786e-09
-1.18985e-09
4.26254e-09
1.41725e-09
1.97097e-09
-6.09948e-11
1.32944e-09
3.17813e-09
-2.45069e-10
-2.20697e-09
4.04619e-09
-5.09796e-10
3.7159e-09
1.7736e-09
1.37985e-09
-2.07126e-09
6.41507e-09
6.98642e-10
4.39711e-09
2.08053e-09
2.58367e-09
8.03053e-09
-8.90431e-09
-1.7099e-09
9.58675e-09
-7.03914e-09
3.60611e-11
3.0511e-09
1.76548e-09
4.77017e-09
4.92456e-09
6.15707e-09
-2.5593e-09
1.21707e-08
-5.03888e-09
-4.57249e-09
1.49305e-08
-1.04167e-08
-7.07305e-09
8.88732e-09
1.34413e-08
-1.01579e-08
-2.67691e-09
1.19828e-08
-4.1856e-10
4.08423e-09
-8.97539e-09
-1.47717e-10
-1.05099e-08
-1.07136e-09
3.56437e-09
-9.99e-09
8.77111e-10
-4.35189e-09
-1.02634e-08
5.5911e-09
6.43784e-09
5.28472e-09
-2.25429e-09
1.04108e-08
2.69891e-09
1.45686e-08
-3.66084e-09
-5.7255e-09
7.01509e-10
-4.01749e-09
8.90708e-09
8.32499e-09
3.19291e-09
9.48327e-09
9.39753e-09
-7.23743e-09
-5.82094e-09
8.57295e-09
1.22954e-08
-1.08405e-09
-1.04895e-09
-1.01625e-08
3.53192e-09
-2.83829e-09
1.16018e-08
-5.22114e-09
1.30802e-09
5.68674e-09
4.77389e-10
-5.84601e-09
1.47477e-10
-6.35428e-10
-6.27599e-09
8.21943e-09
-2.47879e-09
-6.305e-10
-6.81415e-09
9.92346e-09
-2.12552e-10
4.86241e-09
-7.12865e-09
-9.66841e-09
1.25698e-08
-8.53829e-09
-2.21417e-09
5.16169e-09
-8.21254e-09
7.14364e-09
-6.75889e-09
9.26253e-11
-6.24134e-09
-6.55128e-10
6.72686e-10
6.22376e-09
-7.40867e-09
4.60682e-09
-4.0123e-09
-1.0233e-09
-2.41795e-09
-2.40605e-09
-7.24657e-09
-7.72536e-09
1.7378e-08
-9.28138e-09
1.42757e-08
-7.40039e-09
1.26861e-08
2.64327e-09
2.4351e-09
-1.77645e-08
-1.84789e-08
2.39184e-08
-7.63781e-09
2.65426e-09
-2.7418e-09
-1.0311e-08
3.67291e-09
-6.18018e-09
4.41995e-09
-1.67186e-08
1.22165e-09
-4.98326e-09
-8.68255e-09
1.24442e-08
-3.77653e-09
-6.87176e-09
1.18699e-08
-4.07883e-09
6.23699e-09
-6.68578e-09
4.52766e-09
5.11397e-09
-2.03162e-08
1.11234e-08
-1.16007e-08
-2.21733e-09
-7.85054e-09
-1.14699e-08
7.85412e-09
6.50227e-09
-6.27398e-09
-8.08243e-09
-6.13897e-10
2.45637e-09
6.01166e-09
-5.93235e-10
-4.14476e-09
1.0464e-09
3.69158e-09
-5.2385e-09
4.03136e-09
-1.13923e-08
1.43584e-09
1.24128e-08
-2.41591e-09
-2.4741e-09
3.15742e-10
-3.11309e-09
-3.47665e-09
5.22566e-09
-2.53192e-09
-2.37801e-09
2.61194e-09
-2.62478e-09
-1.67298e-09
1.40164e-10
-6.20936e-09
-1.70976e-10
7.81617e-09
-5.33565e-09
-3.28963e-09
-9.25844e-11
3.60472e-09
-6.62524e-09
2.792e-09
-5.41651e-09
2.68702e-09
4.25459e-09
-4.14962e-09
-4.58771e-10
4.53974e-09
-1.39397e-09
-4.26152e-09
5.13695e-09
-2.18971e-09
-2.66282e-09
2.94104e-09
-8.12058e-11
-1.56605e-08
3.06419e-08
-2.32632e-08
8.28177e-09
1.99257e-08
-2.59283e-08
-9.65785e-09
1.30381e-09
1.34235e-08
1.59145e-08
9.71593e-09
1.15136e-08
-1.73581e-08
-5.64725e-09
4.3615e-10
2.25693e-08
2.1909e-08
-1.83527e-08
-2.09144e-08
1.19109e-09
1.02713e-08
1.04467e-08
-1.2041e-08
-1.9984e-08
2.45307e-08
7.49426e-09
3.83003e-09
-9.60194e-09
-2.01564e-08
-5.86449e-09
-1.35686e-08
5.37502e-10
1.85396e-08
-9.36119e-09
-8.44758e-09
-6.80159e-09
1.18973e-08
-1.31242e-08
2.48777e-08
-2.36507e-08
2.58583e-08
-3.28565e-08
6.05623e-09
-2.39741e-08
-2.88098e-08
2.60075e-08
2.86606e-08
-2.44134e-09
-1.49072e-09
-1.7433e-08
-1.20822e-08
3.90263e-09
5.71217e-09
-1.69521e-08
7.33726e-09
7.18128e-09
7.00427e-09
-1.02829e-08
3.30177e-09
2.34537e-08
-1.29229e-08
-1.38326e-08
1.64733e-08
-5.9902e-09
2.07763e-09
-4.78339e-10
5.40498e-09
-5.67276e-09
1.34166e-08
-7.19604e-09
-4.68655e-09
2.61163e-09
1.48439e-08
3.70698e-09
2.09862e-09
1.42774e-08
-1.29242e-08
-2.77066e-10
2.78322e-10
1.12698e-08
3.27477e-09
1.51725e-09
-1.40441e-09
-3.38762e-09
-1.27307e-09
4.39825e-09
1.49587e-10
-3.46438e-09
4.8207e-09
1.60918e-10
-2.29989e-09
-7.59248e-11
7.2605e-09
-4.8847e-09
-2.24308e-09
3.82493e-09
-3.88174e-09
4.59327e-09
-1.1031e-09
-4.89458e-09
3.29071e-09
2.94942e-11
6.93253e-09
8.58457e-10
-8.89407e-09
5.94649e-09
4.27676e-09
2.39791e-09
7.8958e-09
-9.43522e-09
4.84936e-09
-4.4592e-09
2.00776e-09
8.3639e-09
4.38128e-09
-3.16208e-09
1.01735e-08
-7.08732e-09
9.54357e-10
2.74905e-09
6.15619e-09
8.44209e-09
-4.60234e-09
5.13344e-09
-8.97323e-09
-2.77975e-09
1.22497e-08
-1.02792e-09
1.52047e-08
-8.51751e-09
1.00251e-08
-1.67122e-08
1.44838e-08
-2.05898e-09
-4.92835e-09
2.06691e-13
-3.58938e-09
5.02275e-10
-1.0033e-08
7.86824e-09
7.44504e-10
-3.47934e-09
9.3871e-09
1.07308e-08
5.29975e-09
-1.23539e-10
4.84883e-09
4.99893e-09
1.47847e-08
3.71683e-09
3.78592e-09
-7.00049e-09
6.41302e-09
-2.696e-09
-1.9818e-09
5.29829e-09
-2.572e-09
5.16419e-09
-3.02702e-09
-4.11898e-09
-4.2334e-09
6.07205e-09
3.45963e-09
1.04869e-09
-1.17899e-10
-3.296e-09
1.79889e-10
9.18814e-09
-4.99484e-09
-3.35156e-09
5.0504e-09
1.45659e-08
5.46786e-09
-4.70897e-09
-3.97655e-09
3.03921e-11
-6.72996e-09
3.25485e-09
-1.58439e-09
1.26745e-09
-9.30679e-11
-3.70195e-09
-4.41051e-09
9.60041e-09
-1.48794e-09
-5.81041e-09
1.73618e-09
3.72273e-10
7.33076e-09
-3.65185e-09
3.33853e-09
-7.01744e-09
2.02799e-09
5.46799e-09
-1.65229e-10
6.44659e-09
-5.03246e-10
-9.59521e-09
1.79501e-09
6.67957e-09
-4.50732e-09
-6.89708e-09
6.9939e-09
9.88075e-09
-1.07247e-09
-5.46976e-09
-3.26431e-09
5.5627e-09
6.75448e-09
-9.05289e-09
8.27759e-09
4.61671e-09
-1.33976e-08
-1.09074e-08
1.33999e-09
9.93031e-09
-3.6295e-10
-1.66388e-08
1.4009e-08
-2.30878e-09
2.11385e-09
-5.61548e-09
-6.69512e-09
-1.20979e-10
-1.04089e-08
-4.71695e-09
8.22871e-09
1.08034e-09
-1.60846e-09
-1.46794e-10
1.12199e-08
-7.67568e-09
3.23868e-09
-3.14933e-09
6.12852e-09
-6.92691e-09
3.94771e-09
8.88265e-10
-3.92843e-09
-1.09175e-10
-1.58541e-09
-1.73188e-09
9.44581e-09
3.94635e-09
-1.49978e-09
-4.90927e-09
2.73108e-09
-5.44605e-10
-3.68773e-09
4.46401e-09
-6.83899e-11
6.12769e-09
-5.00668e-09
-5.04944e-09
-4.10105e-10
-3.89114e-10
-1.23481e-09
1.05175e-08
-9.69279e-09
-8.66997e-09
2.1635e-09
-1.42953e-09
8.88278e-09
3.62736e-09
-1.10807e-08
-4.31753e-09
-1.76972e-09
9.94449e-10
5.09282e-09
1.69341e-09
-5.88875e-09
-1.22223e-10
-1.21383e-08
-1.51981e-09
1.18883e-08
-1.87716e-08
1.39399e-08
3.40218e-09
-4.96756e-09
-1.2101e-08
-1.70307e-09
5.68683e-09
-2.40093e-09
-7.43297e-09
4.14706e-09
3.65617e-09
2.00254e-09
2.80845e-11
1.77919e-10
-1.98002e-09
1.06849e-08
-5.23899e-09
6.41134e-09
1.10578e-10
-7.38038e-09
-8.01083e-10
-3.95684e-09
1.64338e-09
-6.80982e-09
-2.21398e-09
-4.24996e-09
4.584e-12
1.18377e-09
-1.68662e-08
1.41626e-08
1.31437e-08
-1.08795e-08
-6.7878e-09
-7.16869e-10
-5.93404e-09
3.02563e-09
-1.05523e-08
-1.28214e-08
3.63929e-09
-5.02089e-10
-3.95835e-09
8.21162e-10
-3.91084e-09
3.1244e-09
4.42572e-09
5.03665e-09
-4.26028e-09
-1.71881e-09
9.42438e-10
6.47315e-10
-2.92931e-09
7.31864e-09
-5.31556e-09
5.53206e-10
2.33192e-09
-4.02454e-09
-2.26574e-09
-1.65227e-09
7.33506e-11
-2.0881e-09
5.85981e-09
6.66009e-09
-6.11129e-09
-2.26763e-09
-5.34313e-11
3.78421e-09
-6.1758e-10
2.62582e-09
-7.32378e-09
1.71932e-09
-6.36144e-09
2.0715e-09
4.21344e-09
-4.56561e-09
4.9434e-09
9.88931e-12
-2.88179e-09
-2.65571e-09
4.55666e-09
3.04246e-09
-9.45457e-11
2.41512e-09
-3.47558e-09
1.62455e-08
-1.56006e-08
2.22722e-09
-2.87213e-09
7.12133e-09
9.15655e-09
-3.98123e-09
-1.22966e-08
1.45129e-08
4.12277e-09
-1.15143e-08
-4.65037e-09
-1.69071e-08
1.62524e-09
1.99323e-08
1.41775e-08
-4.315e-09
-3.2451e-09
1.73613e-08
6.13401e-11
3.62975e-09
-1.51416e-08
9.16803e-10
1.05951e-08
-1.33637e-08
1.37483e-08
1.63351e-09
-1.14468e-08
-5.32836e-09
-2.57362e-09
-2.55467e-09
2.90646e-09
-1.17986e-08
1.23764e-08
-4.39764e-10
-1.44913e-08
1.13102e-08
-1.19718e-08
-1.77335e-08
1.34591e-08
5.19123e-09
5.95308e-09
-1.00288e-09
4.37769e-09
-8.35883e-09
4.98403e-09
-2.14646e-09
9.2274e-09
-2.46496e-09
-4.61597e-09
2.34122e-09
-3.72683e-09
-1.0814e-08
1.21996e-08
-6.99774e-09
1.17159e-08
-2.37695e-09
-6.00957e-09
-4.47888e-10
5.99412e-09
4.63342e-10
-1.74169e-09
-7.99471e-09
4.73775e-09
-8.35843e-09
1.87898e-09
4.37202e-09
-8.21511e-11
2.85343e-09
-6.65873e-09
2.80244e-09
-4.30234e-09
5.00932e-09
2.80227e-09
-3.69656e-09
6.8884e-09
-2.35739e-09
5.0489e-09
1.1076e-10
2.26056e-09
-3.71549e-09
-5.2038e-09
-2.10895e-09
6.71757e-11
-9.43283e-11
3.61169e-09
1.18459e-09
2.79929e-09
-7.59559e-09
7.5793e-09
6.81948e-09
-1.07871e-08
6.76646e-09
-1.05893e-08
4.06477e-09
-2.41874e-10
1.13924e-09
1.32065e-08
-4.12275e-09
9.41784e-09
-4.15584e-09
-5.35865e-09
-4.72582e-09
5.96171e-09
-1.81809e-09
-3.65414e-09
1.13563e-10
-5.88989e-09
4.00069e-09
7.11024e-11
6.87189e-09
-7.28462e-09
5.59885e-09
-5.18614e-09
-6.20674e-09
2.4893e-09
6.36825e-09
-6.6284e-09
-3.39399e-09
2.82702e-09
1.89313e-09
-6.72232e-09
-2.28089e-09
7.11007e-09
-4.06089e-09
6.41174e-11
-6.25576e-09
-6.6733e-09
3.75719e-09
-5.44104e-09
-2.37705e-09
-5.45999e-09
2.58879e-09
-8.42926e-10
-5.42423e-09
3.9395e-09
2.32764e-09
3.12613e-09
-5.10691e-09
1.13785e-09
-4.71356e-09
2.96182e-09
4.87787e-09
3.20343e-09
-3.98587e-09
-4.32446e-09
-1.46894e-09
-4.11817e-11
-3.19432e-09
7.00526e-09
-9.23516e-09
1.85049e-09
3.90177e-09
-8.94657e-09
2.9662e-09
3.01616e-09
-9.78373e-09
3.80139e-09
-2.56462e-09
1.54496e-09
1.18812e-09
5.55067e-09
6.97696e-09
4.65773e-09
-7.10156e-09
-2.05198e-10
2.16178e-08
-2.02024e-08
-3.11579e-09
1.70041e-09
-7.91772e-09
6.18288e-09
2.33526e-08
1.13759e-08
-1.65609e-08
-1.50174e-08
6.12981e-09
-2.67164e-09
1.39741e-08
-1.49168e-08
-2.1731e-09
2.16816e-08
-1.52451e-09
3.22153e-09
9.73068e-09
6.41951e-09
-1.93717e-08
1.3612e-08
8.33546e-09
-1.87259e-08
4.25838e-09
-5.56323e-09
9.84606e-09
1.42626e-08
-1.4378e-08
1.72589e-08
-3.15443e-09
-5.49067e-09
-2.73479e-09
1.20189e-08
-1.10901e-08
-1.53771e-08
1.98524e-08
1.27837e-08
1.3926e-09
-2.50708e-09
-8.68719e-10
1.42803e-08
-6.26566e-09
-2.01438e-08
7.68365e-09
2.00967e-08
-8.44145e-09
-1.49611e-08
3.3059e-09
-1.57275e-08
3.30894e-08
-1.64327e-08
1.72562e-09
4.98428e-09
-2.60408e-09
-2.25239e-08
2.6355e-09
-1.70229e-08
2.59734e-08
-4.4106e-09
-5.15042e-10
-2.10476e-08
4.05846e-09
9.53888e-09
1.2376e-08
-2.94224e-08
1.65241e-08
1.69568e-08
-6.60438e-09
-2.72286e-08
1.7939e-08
-2.62765e-08
-6.62363e-09
1.87357e-08
1.22492e-09
-2.02617e-08
1.29504e-08
-1.08299e-08
1.13992e-08
-3.16559e-08
8.00845e-09
-1.84041e-08
1.67591e-08
-6.36348e-09
-1.81137e-08
4.15298e-09
2.19692e-08
1.28864e-08
-9.56588e-09
-2.17246e-08
-9.95016e-10
-4.23227e-09
-1.82621e-09
2.04356e-09
1.65418e-08
-1.04955e-08
-2.56542e-09
2.49529e-08
-1.1892e-08
-9.827e-09
6.90932e-09
-7.57781e-09
-1.10586e-08
1.43345e-08
-4.27094e-09
1.37973e-08
-4.68778e-09
-1.61695e-08
7.05998e-09
-1.13509e-08
2.25828e-08
8.60976e-09
6.76194e-09
-2.49375e-08
5.27322e-09
-7.722e-09
1.59821e-08
-2.07081e-08
3.83099e-11
-1.26789e-09
5.89911e-09
3.2396e-09
-1.83641e-08
3.68369e-10
1.48578e-08
-2.64599e-08
-5.77146e-10
-1.7538e-08
4.8043e-09
1.86328e-08
-2.35438e-08
6.04408e-09
8.50063e-09
-1.45223e-09
-3.19065e-09
-3.85778e-09
2.50228e-09
1.25612e-09
4.74222e-09
4.2245e-09
1.22989e-08
-1.40211e-08
2.88201e-09
-5.81593e-09
4.19003e-09
-6.25632e-09
6.70321e-10
8.468e-09
3.02747e-10
8.35673e-10
-6.95436e-09
-7.40534e-09
1.45178e-09
-9.49012e-09
1.43849e-08
-4.51173e-10
-1.18461e-09
-5.76955e-09
8.01877e-09
-1.76056e-08
3.4727e-10
9.23956e-09
-1.92254e-09
8.11166e-09
-1.25544e-08
6.29326e-09
5.74644e-09
1.44086e-08
-1.20434e-08
-5.67449e-09
1.87068e-08
-7.28585e-09
1.17408e-09
6.46207e-09
-8.16765e-10
5.66657e-09
-6.23289e-09
1.74033e-09
-7.03499e-10
1.28321e-08
1.04069e-08
-9.07611e-09
6.4936e-09
2.56482e-09
9.64833e-09
1.46693e-08
-1.11702e-08
7.1648e-09
6.57018e-09
6.57844e-09
-7.34172e-09
-5.08224e-09
9.92941e-09
-9.7684e-09
1.1851e-08
-8.62319e-10
1.95705e-09
7.62274e-09
-1.39222e-09
-8.18759e-09
-7.17988e-09
8.32437e-09
8.12565e-10
3.72941e-09
-1.17576e-08
-7.18096e-09
1.52091e-08
-5.44917e-09
1.00174e-08
-8.38808e-10
4.37635e-09
-1.22652e-08
7.08925e-10
1.63828e-09
1.2369e-09
6.38049e-09
2.88053e-09
-1.97255e-08
6.21535e-11
5.07307e-09
-1.79238e-09
-6.77577e-09
-1.11573e-08
8.58687e-09
-1.59681e-08
-1.97122e-08
1.44692e-08
5.30518e-09
-1.29177e-08
3.13905e-10
-6.14352e-09
-1.14525e-08
5.19323e-09
-1.19225e-08
4.37412e-09
-3.90407e-09
-1.30718e-08
-5.62654e-09
-9.25369e-09
1.5009e-09
-1.40482e-08
2.22487e-08
-5.8664e-09
-2.33409e-09
-1.64596e-08
1.11607e-08
-7.05233e-09
2.29122e-08
2.50103e-09
-1.83609e-08
-1.99416e-08
1.66822e-08
-3.7929e-09
1.2176e-08
2.69502e-08
-1.4192e-08
4.68201e-09
-3.65488e-09
-7.71371e-09
-1.81709e-09
-3.91378e-09
1.35504e-08
6.13767e-09
6.63072e-09
1.21947e-08
2.28731e-08
1.49762e-09
-1.51339e-08
7.79883e-09
-7.9227e-09
3.28003e-08
-2.43345e-09
-2.24441e-08
3.18529e-08
-1.28255e-08
-1.13215e-08
-1.68397e-08
9.92203e-09
-3.58233e-09
-1.46592e-09
1.64792e-08
1.52227e-08
-9.41239e-09
8.15113e-09
-4.63723e-09
5.89848e-09
1.18357e-08
-1.32393e-08
-8.0088e-09
8.99626e-09
1.39069e-09
-1.25772e-08
2.19029e-09
-5.11892e-09
3.08006e-09
1.10351e-08
-9.5746e-09
9.44575e-09
-4.99004e-09
-4.25985e-09
-2.87331e-09
-2.44143e-09
1.21601e-08
-1.48728e-08
4.10347e-09
-3.96928e-09
1.92094e-08
1.58886e-08
-4.62646e-09
5.73548e-10
2.00704e-08
-9.79729e-09
-6.54443e-09
1.20819e-08
-1.08413e-08
-4.60922e-09
-1.61706e-08
-3.32866e-09
-1.37017e-08
8.43544e-09
6.29031e-10
-4.07159e-09
-3.92726e-09
-5.70281e-09
-5.38985e-09
-8.47901e-09
1.41385e-09
-4.6216e-09
-7.63354e-09
-6.46843e-09
-8.28837e-09
-8.427e-09
-8.73955e-09
1.34929e-10
-1.01464e-08
-1.47605e-08
-2.92813e-09
5.76925e-09
-6.43274e-09
3.59165e-09
1.8873e-09
-4.63311e-09
-1.82301e-10
-3.967e-09
2.50468e-09
-6.90782e-10
2.15312e-09
-2.13936e-09
5.96746e-11
-3.33561e-10
-8.50057e-10
3.6883e-09
7.5923e-09
-2.1566e-09
6.1868e-09
1.38524e-09
1.52383e-09
-9.09583e-09
1.66285e-11
-2.62592e-10
2.08861e-09
-5.33647e-09
-5.38132e-09
2.51599e-09
2.17456e-09
-5.13239e-09
-2.38828e-09
-2.122e-09
3.78793e-09
6.48693e-09
-2.45927e-10
-8.36302e-09
-8.04225e-09
8.66094e-09
-6.02068e-10
4.03809e-09
-1.05565e-08
-3.41473e-09
3.70943e-10
-3.71662e-09
3.48658e-09
8.89096e-09
-3.01083e-09
3.3323e-09
-7.21168e-09
3.81913e-09
-1.14065e-08
1.47991e-08
-1.43822e-08
9.49089e-09
-2.32033e-09
-7.19817e-09
1.64245e-08
-5.40722e-09
-8.63084e-09
-1.69407e-08
2.03358e-08
5.23574e-09
1.03326e-08
-7.07391e-09
-1.18895e-08
1.72258e-08
-6.25413e-09
-6.39124e-10
4.51813e-09
-1.67452e-09
-1.0002e-08
3.11356e-09
1.11258e-08
-4.48396e-10
-1.77514e-08
9.61727e-09
-4.74556e-09
1.0538e-08
-8.87814e-09
8.63511e-09
-1.02949e-08
2.07902e-08
-6.34943e-10
8.26532e-09
9.06789e-09
5.46344e-09
-2.27967e-08
-1.45432e-08
5.21667e-09
6.86382e-09
3.92436e-09
-1.47512e-08
1.58183e-08
-2.15048e-08
1.36174e-08
-8.52334e-09
-4.34635e-09
2.64628e-08
-1.64128e-08
4.4217e-10
-1.04922e-08
3.18473e-09
1.15728e-08
1.17053e-08
9.55396e-09
-1.07074e-08
-1.52595e-08
-8.35145e-10
1.29898e-08
-2.6007e-09
-7.15115e-10
9.48002e-09
4.24798e-09
-1.3013e-08
4.96053e-09
-1.6383e-08
-1.43077e-08
-1.23638e-08
1.61409e-08
1.05306e-08
-3.15709e-08
5.49053e-09
1.17726e-08
1.15043e-08
-2.85947e-09
8.575e-09
7.59947e-09
8.86525e-09
-5.73819e-09
5.44787e-09
-7.86829e-09
1.78621e-08
-1.12855e-09
2.71242e-09
1.30978e-08
-1.15623e-08
1.56772e-08
-8.0043e-09
-1.99886e-08
-1.11401e-08
7.08871e-09
1.47656e-08
-8.7566e-09
-2.17598e-09
1.00594e-08
-7.94781e-10
1.06116e-08
-1.28335e-09
-5.49173e-09
-7.80195e-09
5.42536e-09
-6.18318e-10
-1.81927e-08
-1.82576e-09
7.65464e-09
-2.25042e-08
7.07034e-09
5.8695e-09
9.32782e-09
2.55441e-09
1.083e-08
3.66189e-09
-1.70462e-08
-1.522e-08
1.40512e-08
3.72334e-09
-1.69515e-08
1.63889e-08
-4.33059e-09
4.89324e-09
1.05837e-08
-1.35146e-08
-1.40206e-08
-9.97646e-09
1.22723e-08
1.40931e-08
2.57012e-09
-1.96293e-09
-1.18444e-08
5.98745e-09
-9.36303e-09
1.95362e-08
-8.81038e-09
3.36121e-09
-1.81981e-09
1.344e-08
1.45423e-09
-1.30745e-08
-2.92861e-09
-6.94534e-09
1.2444e-08
1.40664e-08
8.99952e-09
-2.37228e-09
-9.45755e-09
1.80224e-08
-6.19247e-09
-8.91777e-09
-8.22868e-09
4.90421e-09
1.22423e-08
-1.52953e-08
-5.49698e-09
1.18745e-08
1.27473e-08
-8.03222e-09
9.9599e-09
-1.4675e-08
1.85474e-08
1.74275e-10
-5.97435e-09
-9.19022e-09
1.79393e-08
-1.11213e-08
-1.3153e-08
2.85225e-09
1.11061e-09
-1.65366e-08
7.61511e-09
-5.36057e-10
-5.83772e-09
1.32595e-09
-3.7169e-09
1.37549e-08
-5.0198e-09
-1.45728e-08
-2.16755e-09
6.27176e-10
3.99214e-09
-1.70442e-08
7.60318e-09
1.89166e-10
1.29976e-08
-8.01435e-09
-7.19625e-09
1.44787e-08
-1.8501e-08
-5.49498e-09
2.0148e-08
7.11452e-09
-1.75933e-09
-3.5039e-09
-1.8513e-09
6.39101e-09
-3.96783e-09
9.45545e-09
-3.23343e-09
-7.98135e-09
5.58899e-09
4.84381e-09
-4.12867e-09
-4.21904e-09
1.05001e-09
-1.74034e-10
-2.00347e-09
-5.6362e-09
1.50232e-09
-6.31671e-09
6.85731e-10
-3.68162e-09
6.00278e-11
-4.18277e-09
4.91214e-09
9.97398e-10
-4.83336e-09
-1.07616e-09
-4.04428e-09
4.82708e-09
4.12935e-09
-7.76891e-09
-2.47222e-09
1.05865e-09
9.18252e-09
-5.16066e-09
-1.61084e-09
1.25526e-08
-8.02929e-09
-9.68395e-09
-1.26644e-09
1.13468e-08
2.81054e-09
-4.35789e-09
-3.28601e-09
-1.33818e-09
1.04445e-10
9.75052e-11
7.07887e-09
-6.91457e-09
-2.61793e-10
-3.57524e-09
3.785e-09
-1.12243e-10
4.87018e-09
-4.51466e-10
1.3171e-09
-5.7358e-09
-4.32431e-11
-8.88377e-10
6.77412e-09
-1.08806e-09
1.0274e-09
-7.96862e-09
-5.89742e-09
1.68594e-09
-9.63197e-10
6.35614e-09
4.58256e-09
8.81359e-10
-6.47882e-09
-1.02774e-08
8.04779e-09
-8.36864e-09
-1.56044e-08
4.39752e-09
-4.16705e-09
1.53739e-08
3.07064e-09
-1.86671e-08
-7.89286e-12
-5.68745e-09
-8.54458e-09
1.83548e-08
-5.88346e-09
-1.01561e-08
1.03521e-08
2.24391e-08
3.31806e-09
-2.26865e-08
-1.32522e-09
8.98031e-09
1.4784e-08
-3.49143e-09
-7.96989e-09
5.57786e-09
-1.62629e-08
8.79023e-09
-1.71324e-09
-1.01521e-08
-2.19778e-09
-1.02881e-08
3.94133e-09
-1.24144e-08
6.05234e-11
2.22171e-08
6.61128e-10
-1.95601e-08
1.28364e-08
8.05548e-09
6.6088e-09
-1.2619e-08
-1.95973e-09
-1.47175e-08
1.70597e-08
-5.87744e-09
3.53521e-09
-1.41148e-09
-1.26449e-08
-6.91076e-09
1.10513e-09
1.9608e-08
2.37934e-09
-1.32704e-08
-1.72789e-09
1.27558e-08
-1.17879e-08
-3.24414e-11
3.17053e-09
1.88314e-08
-2.14309e-08
-5.71026e-10
1.48314e-08
-1.44398e-08
2.77896e-09
2.2587e-09
8.15605e-09
4.41661e-09
-1.23588e-08
3.41613e-09
-9.99969e-09
1.89423e-08
8.73138e-09
8.09244e-09
-1.19594e-08
-1.7564e-08
-2.91971e-09
-3.42764e-09
-2.92135e-09
1.44935e-08
3.16544e-08
-8.5558e-09
-2.97998e-09
-2.01187e-08
8.2499e-09
3.33468e-09
2.00698e-08
3.1519e-08
-9.71074e-09
-3.03641e-08
2.97692e-08
9.16442e-09
-9.29035e-09
-2.79378e-09
1.21719e-08
-7.06726e-09
4.05972e-09
1.90902e-08
-7.82982e-09
-1.42404e-08
8.24108e-09
1.41838e-08
1.74917e-08
1.50145e-10
-2.18203e-08
7.58558e-09
-1.67258e-08
-7.3115e-09
-2.94558e-10
-5.60602e-09
8.46781e-09
-2.56725e-09
-5.54354e-09
9.24983e-09
-4.00087e-09
-1.7722e-08
6.57244e-09
1.25526e-08
1.55554e-08
-1.88582e-08
-5.01763e-10
1.03492e-08
2.7052e-09
1.14444e-08
-9.42126e-09
1.51641e-09
-1.04046e-08
1.06649e-08
-3.68788e-10
5.25926e-09
3.77686e-09
7.29877e-09
1.6437e-09
6.85596e-09
-6.62945e-09
-1.87026e-09
6.23883e-09
-4.5676e-09
-2.75424e-11
-1.13217e-08
5.22218e-10
3.19906e-09
7.60038e-09
-1.65577e-09
-2.80995e-09
1.44651e-08
-1.0387e-08
-5.73382e-09
-4.96656e-09
5.20974e-09
2.95588e-09
1.43676e-09
-1.64472e-10
-6.64517e-09
-6.6001e-09
6.36318e-09
6.88209e-09
-5.21902e-09
1.06121e-11
-3.37786e-09
3.28869e-09
-4.47846e-09
1.43807e-10
-1.01511e-08
-4.96759e-09
1.11785e-09
-6.43318e-09
-5.49812e-09
-1.64215e-08
-1.57414e-08
-8.98833e-09
1.90989e-09
-9.15695e-09
-5.05041e-09
-4.75041e-09
-8.50936e-09
6.15973e-10
4.02889e-09
3.86449e-09
7.94053e-09
-5.77125e-09
-1.06786e-08
-1.00366e-08
5.50021e-09
5.1524e-09
4.23847e-09
-6.33459e-09
-1.43195e-08
6.39073e-09
2.15755e-09
4.0677e-09
5.60155e-09
-5.64037e-09
9.13558e-09
-3.28421e-09
-1.61292e-09
4.85366e-09
9.78211e-09
7.63521e-09
1.33817e-09
-1.90293e-09
-7.07047e-09
-3.18884e-09
1.21102e-08
-7.88751e-09
1.23339e-08
-2.73658e-09
-8.43515e-09
8.59876e-09
9.23281e-09
-5.46308e-09
-1.23685e-08
9.1279e-09
-1.11603e-09
5.86895e-10
-5.03505e-09
6.40422e-09
7.75875e-09
3.75876e-09
4.39022e-10
5.15307e-09
2.15222e-09
-1.27683e-08
4.72379e-09
-6.86751e-10
-3.01896e-10
1.3324e-09
5.37374e-09
-6.52504e-09
5.5188e-10
5.67128e-09
8.17113e-09
5.42174e-09
-1.14406e-08
5.47174e-09
7.59222e-09
-4.89283e-09
-1.49651e-09
-3.04736e-10
7.61409e-09
1.61642e-09
-6.2995e-09
1.02567e-08
3.65688e-09
-8.08842e-09
-1.56134e-09
3.35026e-09
5.77267e-09
-1.84744e-09
5.27646e-09
-4.13645e-09
-1.95819e-08
9.10656e-09
1.46118e-08
1.95133e-08
9.15197e-09
-6.2863e-09
-2.2379e-08
2.70552e-09
1.26714e-08
-1.47876e-08
1.92937e-09
4.36568e-09
8.49255e-09
-6.21043e-09
-2.34567e-08
1.00853e-08
-2.31357e-08
2.13768e-09
-2.1479e-08
1.70855e-08
7.09903e-09
3.58137e-09
-1.59084e-08
-2.92871e-08
-8.55349e-10
7.00674e-09
3.45766e-09
5.93668e-09
-3.86814e-08
-1.5674e-08
1.41364e-08
8.95765e-09
-7.42005e-09
-1.94687e-09
-1.12463e-08
-2.48076e-09
8.8354e-09
-1.86558e-08
3.53408e-09
1.20492e-08
1.09226e-08
-8.32756e-09
1.93558e-08
1.02097e-09
-1.3152e-08
6.75378e-09
7.63558e-09
-2.76346e-08
2.00029e-08
-2.0355e-08
6.28875e-09
1.47249e-08
4.42267e-09
-6.4531e-09
-1.41495e-08
-2.11965e-08
8.67481e-09
-7.10185e-09
1.96143e-08
-1.38676e-09
-2.80429e-09
-1.54233e-08
-1.27513e-09
7.62544e-09
1.3264e-08
1.45574e-08
-3.25107e-09
-1.26931e-08
8.88534e-09
4.39691e-09
-1.09988e-08
1.39692e-08
4.655e-09
-2.68942e-09
-1.11136e-08
-8.30042e-09
-3.75136e-09
4.30133e-09
7.75043e-09
-2.40353e-09
-9.14797e-09
-8.39713e-10
-8.24328e-09
6.39358e-09
7.10982e-09
-1.03531e-08
3.52079e-09
-1.62338e-10
-5.23524e-09
9.20152e-09
-2.60117e-09
-1.36511e-09
-1.85904e-09
1.44585e-10
1.5624e-08
-6.30063e-09
-1.42309e-08
4.9075e-09
-7.08121e-10
1.27613e-08
3.57087e-09
-1.22454e-08
2.04123e-08
2.33048e-08
-3.14716e-08
1.53438e-08
-4.73435e-09
-1.69101e-08
1.14327e-08
3.20306e-09
1.4523e-08
1.31128e-09
4.90438e-09
1.37461e-08
-4.12746e-09
1.7521e-08
-2.35718e-08
7.36212e-09
6.78363e-09
2.73118e-10
1.04642e-08
1.3036e-08
-1.81673e-08
1.78925e-08
4.11848e-09
1.09308e-08
-2.72947e-08
3.60346e-09
2.35925e-08
1.47633e-08
1.57369e-09
5.54221e-09
8.47696e-09
-4.23911e-09
2.08785e-08
1.60664e-08
-4.34003e-09
-3.74093e-09
6.62872e-09
6.1618e-10
-3.15737e-09
2.66351e-09
-1.22387e-10
-2.88442e-09
-5.82699e-10
6.20432e-09
-2.73721e-09
-2.25308e-09
-1.51732e-11
5.78437e-09
-5.79961e-09
8.509e-10
4.12146e-09
-3.38924e-09
5.05214e-09
-2.80464e-09
-4.69276e-09
9.48092e-10
-3.0772e-09
-1.23988e-10
7.72879e-09
2.38227e-09
-3.38694e-09
-4.79496e-09
-5.88811e-11
-5.16211e-09
-7.19732e-10
1.07333e-08
1.03357e-08
-6.21446e-09
-1.48545e-08
1.56518e-08
6.76933e-09
-1.16878e-08
-6.28896e-09
2.04998e-08
1.44101e-09
7.36337e-09
-3.31666e-09
1.94743e-08
-1.96764e-08
1.02949e-08
-1.00929e-08
1.05732e-08
-2.92066e-09
1.18218e-08
-7.62937e-09
-5.27763e-09
-9.76846e-09
4.52828e-09
1.58134e-08
4.66529e-09
-4.13875e-09
7.88263e-09
9.69649e-09
2.5328e-09
5.82238e-09
-1.45696e-08
-1.27756e-08
7.67903e-09
4.98135e-09
-6.85631e-09
8.26209e-09
-6.38709e-09
-5.53851e-09
1.50482e-08
-9.9644e-09
6.34774e-09
1.14993e-08
-2.44657e-09
-1.54445e-10
-1.65438e-09
2.46364e-09
-8.38051e-09
-1.30183e-10
5.27981e-09
-1.90397e-09
-2.3048e-09
-7.9588e-10
-9.96166e-09
1.79088e-09
-9.32613e-10
9.10339e-09
-6.229e-09
-9.46542e-10
-2.78613e-09
4.41603e-09
-7.30056e-09
-3.34449e-09
7.32431e-09
-3.68082e-09
7.72525e-10
9.30489e-10
8.1847e-09
7.45349e-09
-5.42058e-09
-2.97946e-09
5.9388e-10
5.92698e-09
-4.827e-09
2.3618e-09
-2.95539e-09
-1.90631e-10
-2.78541e-10
-4.35786e-09
1.31566e-09
-5.39623e-09
5.56055e-09
-1.47999e-09
-2.36187e-09
3.71416e-09
-3.66279e-11
-5.25278e-09
8.11305e-10
-9.54756e-10
3.87414e-10
-1.33636e-10
-5.50658e-09
3.37531e-09
-3.17853e-09
1.1359e-09
-1.22463e-10
-3.80139e-10
-7.19897e-09
6.02692e-09
-7.71027e-09
-1.99749e-09
-2.46783e-10
7.20419e-09
6.87276e-09
-7.38653e-09
-2.62093e-11
3.45831e-09
3.93805e-11
-1.18168e-09
6.49544e-09
-9.45337e-10
3.47782e-09
3.10685e-09
9.8737e-10
-4.89462e-09
2.2315e-09
1.67574e-09
-3.23562e-09
3.02131e-09
1.2017e-09
-1.71935e-09
-4.21874e-09
2.70247e-09
-1.76467e-09
1.40415e-10
-9.50614e-11
-1.16761e-10
1.10675e-09
2.69833e-09
-2.38052e-09
1.80814e-09
4.55622e-10
-3.42813e-09
3.74514e-10
-1.16513e-09
-3.01825e-09
-8.69981e-11
-7.32197e-10
8.88048e-09
5.83626e-09
-1.10218e-08
-3.695e-09
7.52525e-09
5.41892e-10
8.13344e-10
-9.20957e-09
1.03966e-08
6.33819e-09
-1.09401e-08
1.81119e-09
-8.06248e-11
9.84434e-09
7.14182e-10
-1.00166e-08
1.01702e-08
6.29715e-09
-1.20914e-08
-4.376e-09
1.61205e-08
5.59079e-09
-1.15411e-08
1.48695e-08
-3.59735e-09
-2.47437e-09
-8.79782e-09
1.00523e-08
1.30064e-09
3.51654e-09
-8.70124e-09
1.04619e-08
1.40165e-09
-2.37665e-09
4.68935e-09
8.14919e-09
3.38148e-09
4.6385e-09
-1.47288e-08
1.09993e-08
5.03014e-09
-1.09061e-08
2.32249e-09
-7.94481e-09
9.00381e-09
-7.34116e-09
1.4353e-08
7.91109e-09
1.01102e-08
-1.90081e-09
9.81063e-09
1.37684e-08
-1.23143e-08
1.87813e-09
-1.0644e-08
2.10802e-08
-2.63631e-08
-7.49686e-09
2.03057e-08