/*--------------------------------*- C++ -*----------------------------------*\
| =========                 |                                                 |
| \\      /  F ield         | OpenFOAM: The Open Source CFD Toolbox           |
|  \\    /   O peration     | Version:  v1612+                                |
|   \\  /    A nd           | Web:      www.OpenFOAM.com                      |
|    \\/     M anipulation  |                                                 |
\*---------------------------------------------------------------------------*/
FoamFile
{
    version     2.0;
    format      ascii;
    class       volVectorField;
    location    "50";
    object      wallShearStress;
}
// * * * * * * * * * * * * * * * * * * * * * * * * * * * * * * * * * * * * * //

dimensions      [0 2 -2 0 0 0 0];

internalField   uniform (0 0 0);

boundaryField
{
    WALL
    {
        type            calculated;
        value           nonuniform List<vector> 
1532
(
(0.00850185 -0.0104771 0.00924667)
(0.00636801 -0.0108402 0.00863092)
(0.00667818 -0.0160137 0.000612853)
(0.012272 -0.0111189 0.0025738)
(0.0120033 -0.0117616 0.00225788)
(0.00673777 -0.00850393 0.00426869)
(0.00613587 -0.00837596 0.00548703)
(0.00858948 -0.012531 0.00847259)
(0.00818386 -0.0129944 0.00870663)
(0.00481991 -0.00937219 0.00642926)
(0.00986393 -0.00893374 0.00416651)
(0.00956009 -0.00859526 0.0051042)
(0.0130948 -0.0108647 0.00311883)
(0.0130865 -0.0116905 0.00315121)
(0.0127617 -0.0113775 0.00291145)
(0.0122481 -0.0124337 0.00263352)
(0.0116137 -0.0125437 0.00178677)
(0.0107982 -0.0127726 0.00168938)
(0.00548657 -0.00944341 0.00666375)
(0.00595219 -0.00887925 0.00635131)
(0.00675435 -0.0131264 0.00853198)
(0.00627633 -0.0142052 0.00855293)
(0.00837131 -0.0128772 0.00808927)
(0.00740922 -0.0130785 0.00823708)
(0.00812467 -0.0119749 0.00873765)
(0.00833999 -0.0120146 0.0084406)
(0.011887 -0.0101016 0.00339956)
(0.0121594 -0.0108058 0.00270951)
(0.00976373 -0.0159152 0.00107373)
(0.0090979 -0.0154797 0.00193389)
(0.0116022 -0.0134576 0.00254061)
(0.0119431 -0.0126906 0.00262979)
(0.0109259 -0.0110493 0.00233768)
(0.011027 -0.0102351 0.0025225)
(0.0109555 -0.011121 0.00220425)
(0.0107132 -0.0119042 0.00236473)
(0.00864268 -0.012732 0.00165631)
(0.00996238 -0.0129718 0.0015458)
(0.00783106 -0.0111504 0.00886985)
(0.0081428 -0.00948331 0.00822492)
(0.00830756 -0.0115193 0.00144867)
(0.00878953 -0.0121066 0.00146884)
(0.00882354 -0.0113024 0.00165375)
(0.00896186 -0.0109786 0.00216085)
(0.00865005 -0.0106798 0.00229046)
(0.00842825 -0.0110053 0.00201104)
(0.00356025 -0.0177764 0.00734501)
(0.00345935 -0.0169028 0.00544773)
(0.00310527 -0.0168393 0.00597543)
(0.00329091 -0.0180515 0.0069955)
(0.00446177 -0.0174653 0.00733874)
(0.00456708 -0.018301 0.0066544)
(0.0122073 -0.0096718 0.00409785)
(0.0125266 -0.00943867 0.00452585)
(0.0125372 -0.00973784 0.00377165)
(0.0120439 -0.00982657 0.00353077)
(0.0120406 -0.00912098 0.00448445)
(0.0123744 -0.0101666 0.00328482)
(0.0139732 -0.00829909 0.0057381)
(0.0132695 -0.00837489 0.00526469)
(0.0131335 -0.00855971 0.0044692)
(0.0128613 -0.00794297 0.00575352)
(0.0134012 -0.00837072 0.00473362)
(0.0136158 -0.0089039 0.00462611)
(0.00628566 -0.0102182 0.00814111)
(0.00510263 -0.0119286 0.00802532)
(0.00600462 -0.0118324 0.0084763)
(0.00582255 -0.011931 0.00853225)
(0.00595665 -0.0111462 0.0086226)
(0.00622406 -0.0108296 0.00826186)
(0.00771749 -0.0148093 0.00179989)
(0.00626627 -0.0153683 0.00077295)
(0.00727245 -0.0153072 0.00183858)
(0.00645456 -0.0163509 0.0020364)
(0.00586433 -0.0159003 0.00127986)
(0.00637958 -0.0164827 0.00201939)
(0.00572518 -0.0157976 0.00925108)
(0.00572046 -0.0148592 0.008904)
(0.0052501 -0.0147329 0.00898917)
(0.0052633 -0.0148513 0.0093907)
(0.00650258 -0.0151753 0.00946864)
(0.00734967 -0.00926422 0.00400912)
(0.00640502 -0.00884906 0.00452017)
(0.00721953 -0.00889741 0.00401832)
(0.00633112 -0.00892975 0.00494227)
(0.00697126 -0.00907466 0.00506356)
(0.00693671 -0.0092224 0.00416856)
(0.00713958 -0.0128389 0.000676392)
(0.00741948 -0.0122426 0.000799967)
(0.00319609 -0.0160159 0.00405707)
(0.0016411 -0.0156989 0.0044404)
(0.00212773 -0.0171457 0.00585961)
(0.00231274 -0.0155672 0.00594002)
(0.00344951 -0.0167835 0.00503677)
(0.00324507 -0.0156576 0.00561352)
(0.00688993 -0.0146962 0.00198355)
(0.00858305 -0.0147783 0.00321669)
(0.00692199 -0.0152256 0.0030154)
(0.00776633 -0.0144331 0.00181274)
(0.00786704 -0.0164889 0.00315899)
(0.00905908 -0.0159198 0.00493489)
(0.00945641 -0.0161039 0.00441335)
(0.00944452 -0.0145913 0.00445067)
(0.00812429 -0.0165717 0.00489572)
(0.00801871 -0.0145628 0.00479488)
(0.00896167 -0.0150678 0.00320759)
(0.00917936 -0.00788874 0.0080097)
(0.00924215 -0.0088241 0.00806209)
(0.00939875 -0.00806203 0.00831431)
(0.00947629 -0.00814923 0.00809494)
(0.00901795 -0.00946329 0.00884562)
(0.00909954 -0.00869894 0.00829252)
(0.0095495 -0.00803036 0.00826582)
(0.0101863 -0.00789659 0.00814387)
(0.00988454 -0.00714586 0.00773917)
(0.00909958 -0.00942647 0.00836234)
(0.00921456 -0.0105089 0.0090111)
(0.00891815 -0.00862999 0.00825352)
(0.00869491 -0.0103509 0.00788307)
(0.00844011 -0.00930021 0.00830574)
(0.00894328 -0.0100967 0.00870371)
(0.00805526 -0.00956042 0.00799022)
(0.00901636 -0.0108657 0.00843788)
(0.00764707 -0.00961978 0.00794332)
(0.0102999 -0.00795614 0.00650272)
(0.0100707 -0.00791351 0.00691291)
(0.0102933 -0.00760422 0.00606409)
(0.0104378 -0.00748382 0.00603093)
(0.0103438 -0.00751797 0.00649714)
(0.0102142 -0.00796404 0.00697995)
(0.0103131 -0.00903976 0.00733233)
(0.0106557 -0.00878747 0.00702133)
(0.0103356 -0.00852391 0.0067069)
(0.00921265 -0.00878746 0.00794399)
(0.00996975 -0.00865056 0.00755425)
(0.0113427 -0.00737995 0.00525746)
(0.0113981 -0.00752455 0.00585235)
(0.0107736 -0.00739935 0.00649049)
(0.0108314 -0.00734928 0.0056315)
(0.0103696 -0.00682168 0.00593626)
(0.010628 -0.00731723 0.00619325)
(0.0108472 -0.0066731 0.00578606)
(0.011402 -0.00665348 0.00557678)
(0.0110484 -0.00664531 0.00572199)
(0.0109255 -0.00655913 0.00485469)
(0.0106927 -0.00658316 0.00538354)
(0.0120772 -0.00806055 0.00412174)
(0.0118424 -0.00824297 0.00355139)
(0.0112324 -0.00715692 0.00433069)
(0.0115708 -0.00753741 0.00468936)
(0.0117158 -0.00779854 0.00444426)
(0.0113956 -0.00792358 0.00382081)
(0.0095569 -0.0123285 0.00218493)
(0.00945992 -0.0121878 0.00238009)
(0.00824926 -0.0129638 0.0028015)
(0.00941136 -0.0135589 0.00302555)
(0.00947585 -0.0125347 0.00321317)
(0.00971348 -0.0122626 0.00293215)
(0.0115228 -0.00880568 0.00317373)
(0.0112755 -0.00942972 0.00273324)
(0.0110643 -0.00980413 0.00247639)
(0.0114247 -0.00886888 0.00296964)
(0.0113859 -0.00926807 0.00310735)
(0.0113238 -0.00982065 0.00275121)
(0.0100756 -0.00908151 0.00715458)
(0.00873203 -0.00932654 0.00784901)
(0.00947487 -0.00995083 0.00819003)
(0.00950281 -0.00994716 0.00840304)
(0.010277 -0.00917172 0.00761055)
(0.00915866 -0.00911687 0.00774099)
(0.00912123 -0.0148385 0.00146154)
(0.00900605 -0.015805 0.00143647)
(0.00863793 -0.0161328 0.00150256)
(0.00887644 -0.0157279 0.00164124)
(0.0085529 -0.0135389 0.00149059)
(0.00984435 -0.0140375 0.00243884)
(0.0108156 -0.011566 0.00218272)
(0.00994638 -0.0129998 0.00142198)
(0.0104472 -0.0115162 0.00192326)
(0.0109291 -0.0123883 0.0028673)
(0.0109727 -0.0114955 0.00228742)
(0.00851095 -0.0135787 0.00217575)
(0.0087844 -0.0136242 0.00277163)
(0.00911479 -0.0134647 0.00257541)
(0.0099096 -0.0140774 0.00236744)
(0.00974963 -0.013847 0.00218211)
(0.00819527 -0.0125336 0.00172396)
(0.0106933 -0.0121631 0.0018051)
(0.01003 -0.0126587 0.00164922)
(0.0107791 -0.0131307 0.00253826)
(0.0108834 -0.0116734 0.0025573)
(0.0106996 -0.0114121 0.00255183)
(0.00995851 -0.0132331 0.00166308)
(0.0105735 -0.0137017 0.00200715)
(0.00788632 -0.0130392 0.00622051)
(0.00837008 -0.0122734 0.00727243)
(0.00817466 -0.0134344 0.00538586)
(0.00828761 -0.0146777 0.00582309)
(0.00868143 -0.0139059 0.00735523)
(0.00882552 -0.0132958 0.00661881)
(0.0119595 -0.0135002 0.00342827)
(0.0105214 -0.0136326 0.00373507)
(0.0108819 -0.0133193 0.00362826)
(0.0106421 -0.0136009 0.00302089)
(0.0116747 -0.0143141 0.00285304)
(0.0114976 -0.0140999 0.00241653)
(0.00978918 -0.0112844 0.00835158)
(0.00885087 -0.00993925 0.00798659)
(0.00840626 -0.0109364 0.00849684)
(0.00896285 -0.0115623 0.00881404)
(0.00868622 -0.0100288 0.00773826)
(0.00734428 -0.0131846 0.00933548)
(0.00699627 -0.0125163 0.00927784)
(0.00704313 -0.0135169 0.00918343)
(0.00804641 -0.0124241 0.00903487)
(0.00801138 -0.0124548 0.00937442)
(0.00682206 -0.0127068 0.00899487)
(0.00616197 -0.0192251 0.00404536)
(0.00584913 -0.017499 0.00485633)
(0.00574732 -0.0177368 0.00534199)
(0.00482055 -0.0169594 0.0034813)
(0.00463311 -0.0172365 0.00408131)
(0.00598849 -0.0186024 0.00412606)
(0.00596746 -0.0139532 0.00843895)
(0.00638793 -0.0145925 0.00790837)
(0.0056822 -0.013071 0.00794958)
(0.00589067 -0.0138581 0.00784786)
(0.00584674 -0.0148537 0.00746141)
(0.00520381 -0.0157137 0.00766621)
(0.00618068 -0.017833 0.00381162)
(0.00616313 -0.01748 0.00425959)
(0.00631033 -0.0179082 0.00537066)
(0.00567609 -0.0167218 0.00436177)
(0.00593582 -0.018037 0.00516265)
(0.00675724 -0.0175758 0.00387406)
(0.0112395 -0.014606 0.00295316)
(0.0104698 -0.0163302 0.00261925)
(0.0114601 -0.0158329 0.00375894)
(0.0106653 -0.0146643 0.0025909)
(0.0115351 -0.0156048 0.0023026)
(0.00961863 -0.0140799 0.00229286)
(0.00720843 -0.0133925 0.00626175)
(0.00808048 -0.0150293 0.00666082)
(0.00893441 -0.0144167 0.00527512)
(0.00741764 -0.0128836 0.00545583)
(0.00813678 -0.016515 0.00502145)
(0.00831451 -0.0147695 0.00573263)
(0.00805057 -0.0149858 0.00376597)
(0.00873216 -0.0143342 0.00394155)
(0.00952062 -0.0136623 0.0046089)
(0.00998388 -0.0150647 0.00397129)
(0.0103375 -0.0146406 0.00456827)
(0.0095611 -0.0145355 0.00550521)
(0.00963139 -0.0160325 0.00150291)
(0.00929453 -0.0141187 0.000849929)
(0.0094284 -0.0169654 0.000720755)
(0.00932984 -0.0141822 0.00126961)
(0.00686474 -0.0153594 0.000769366)
(0.00982497 -0.0170302 0.000818902)
(0.0076744 -0.0149975 0.000790596)
(0.00799712 -0.0135344 0.000568459)
(0.00832905 -0.0152005 0.0016759)
(0.00801806 -0.0178443 0.00168058)
(0.00739234 -0.0171822 0.0029098)
(0.00840336 -0.01743 0.00133431)
(0.00795635 -0.0165057 0.00267005)
(0.00709271 -0.0170494 0.00208949)
(0.009307 -0.0171879 0.00220386)
(0.00630047 -0.0181975 0.00268375)
(0.00671871 -0.0177414 0.0015385)
(0.00691178 -0.0182557 0.00229057)
(0.00665674 -0.0165801 0.00231583)
(0.00721937 -0.0164198 0.00213256)
(0.00647593 -0.0188249 0.00277204)
(0.0107143 -0.0128455 0.00126582)
(0.0113321 -0.0148568 0.00142764)
(0.0101208 -0.0147481 0.00168625)
(0.010144 -0.0145893 0.00149405)
(0.0109401 -0.0135046 0.0018049)
(0.0104085 -0.0140949 0.00171988)
(0.00841176 -0.0108331 0.00804153)
(0.0083006 -0.0114561 0.00868547)
(0.00968203 -0.011783 0.00832369)
(0.00835475 -0.0115096 0.00875114)
(0.0087006 -0.0112905 0.00798049)
(0.00809251 -0.012526 0.00905991)
(0.00837734 -0.0130882 0.00908341)
(0.0072495 -0.0123775 0.0090766)
(0.00588434 -0.0137017 0.00902568)
(0.00574631 -0.0147014 0.0089645)
(0.00659313 -0.0145272 0.00968816)
(0.00710307 -0.0140728 0.00945447)
(0.0062185 -0.0130926 0.00885125)
(0.00623986 -0.0145132 0.00910742)
(0.00960793 -0.0127246 0.00323262)
(0.0101717 -0.0125599 0.00296414)
(0.0105134 -0.012958 0.00325705)
(0.00863866 -0.0140185 0.00393994)
(0.00914491 -0.0143467 0.00515286)
(0.00787465 -0.0130107 0.00499894)
(0.00844508 -0.0139739 0.00406005)
(0.00876298 -0.0138133 0.00384745)
(0.00746713 -0.012877 0.00393699)
(0.00789687 -0.0154106 0.00615043)
(0.00676461 -0.0140968 0.00502806)
(0.0069967 -0.0124955 0.00675757)
(0.00688268 -0.0126983 0.00564382)
(0.00774644 -0.0154573 0.00755361)
(0.00755863 -0.0141322 0.00621451)
(0.00744246 -0.0113618 0.00889785)
(0.00753238 -0.0112876 0.00907395)
(0.00749168 -0.0102616 0.00891035)
(0.00672131 -0.010974 0.00814235)
(0.00774557 -0.0104793 0.0086519)
(0.00760305 -0.0099969 0.00851913)
(0.00804864 -0.00985822 0.00870352)
(0.00666451 -0.0114352 0.00886609)
(0.00962707 -0.0154811 0.00230573)
(0.00940339 -0.0146172 0.00272089)
(0.00988548 -0.0144733 0.00280361)
(0.00961284 -0.0141973 0.002787)
(0.00958347 -0.0156024 0.00220201)
(0.0102692 -0.0146091 0.00348081)
(0.00849786 -0.0134881 0.00796457)
(0.00939104 -0.0135024 0.00711505)
(0.00924564 -0.0133148 0.00724222)
(0.00308758 -0.0176578 0.00277989)
(0.00340043 -0.0178737 0.00335844)
(0.00266977 -0.0181541 0.00268143)
(0.00299241 -0.0175461 0.00206027)
(0.00392378 -0.0189897 0.00209619)
(0.00388173 -0.0183658 0.00228392)
(0.00629585 -0.0159389 0.00118801)
(0.00625023 -0.0157727 0.00153426)
(0.00619689 -0.0173322 0.00255619)
(0.00536152 -0.0179838 0.00152917)
(0.0050365 -0.0181993 0.0014939)
(0.00532385 -0.0160967 0.001034)
(0.0029058 -0.0163771 0.00508499)
(0.00412869 -0.016435 0.00581292)
(0.00303086 -0.015719 0.00578911)
(0.00452574 -0.0170898 0.00538942)
(0.00392625 -0.0164217 0.00666809)
(0.00337348 -0.0158938 0.00654316)
(0.00140781 -0.0152077 0.00612138)
(0.00185078 -0.0164784 0.00595936)
(0.000587789 -0.0157578 0.00589455)
(0.000857295 -0.0148088 0.00645913)
(0.00170695 -0.0152822 0.00706841)
(0.00141804 -0.0149201 0.00708051)
(0.00771925 -0.011636 0.000941025)
(0.0083299 -0.0115775 0.00150482)
(0.00776493 -0.0125889 0.000728304)
(0.00800901 -0.0120162 0.0012507)
(0.0081018 -0.0133166 0.000585948)
(0.00801786 -0.0112172 0.0014634)
(0.00752225 -0.0101507 0.00231254)
(0.00774671 -0.0100926 0.00305872)
(0.0075836 -0.0108685 0.00191349)
(0.00719757 -0.00966749 0.00305752)
(0.00710228 -0.0103283 0.00166258)
(0.00701086 -0.00970461 0.00226918)
(0.00662072 -0.0142352 0.000759311)
(0.00514538 -0.0148956 6.79925e-05)
(0.00248695 -0.0128351 0.00789078)
(0.00202843 -0.0142343 0.00783119)
(0.00193143 -0.0137815 0.00766615)
(0.00267038 -0.0124409 0.00740323)
(0.002965 -0.0123899 0.00779824)
(0.00215645 -0.0128359 0.00741769)
(0.0033634 -0.0109252 0.00744796)
(0.00399104 -0.0102596 0.00706578)
(0.00439444 -0.00993695 0.00686629)
(0.00296577 -0.011398 0.00766756)
(0.0098646 -0.0142152 0.00437191)
(0.00980404 -0.0155186 0.00360015)
(0.00967279 -0.0140997 0.00398794)
(0.00596103 -0.0135496 0.00879256)
(0.0073555 -0.0149652 0.00960156)
(0.0069099 -0.0151994 0.00928406)
(0.00617484 -0.0148177 0.00897371)
(0.00601517 -0.0131827 0.00891035)
(0.00673224 -0.0137927 0.00905383)
(0.00801838 -0.0125922 0.00862494)
(0.00908968 -0.0122526 0.00795203)
(0.00841289 -0.0124081 0.00837066)
(0.00703118 -0.0124432 0.00835462)
(0.0074699 -0.0128804 0.00887717)
(0.00776312 -0.012808 0.00832917)
(0.00572662 -0.0176694 0.00242438)
(0.00692757 -0.0182879 0.00237488)
(0.00536629 -0.0171771 0.00207746)
(0.00540447 -0.0181443 0.00324143)
(0.00691805 -0.0185485 0.00378185)
(0.00658002 -0.0190224 0.00189838)
(0.00672338 -0.0137144 0.000109891)
(0.00735443 -0.0172607 0.000654908)
(0.00619104 -0.0172303 0.000299929)
(0.00849896 -0.0169222 0.00108464)
(0.00679487 -0.0144553 0.000590942)
(0.0072013 -0.0161529 0.00123246)
(0.00940077 -0.01494 0.00216337)
(0.0100859 -0.0144694 0.00212728)
(0.008748 -0.015181 0.00132079)
(0.0104035 -0.0153304 0.0020892)
(0.00978065 -0.0140251 0.0024545)
(0.00931958 -0.0148684 0.00198003)
(0.00958971 -0.0151522 0.00152551)
(0.00840794 -0.0151919 0.000633193)
(0.00840227 -0.0149888 0.00101439)
(0.00902165 -0.0155936 0.00120318)
(0.00913645 -0.0146366 0.00116603)
(0.00990451 -0.0146526 0.00191352)
(0.00737482 -0.0159503 0.00231112)
(0.00752865 -0.0159714 0.00178425)
(0.00640284 -0.0159308 0.00208788)
(0.00812272 -0.0163597 0.00213725)
(0.0078398 -0.0158327 0.00314166)
(0.00704677 -0.0157818 0.00323911)
(0.00925497 -0.014323 0.00154034)
(0.00794867 -0.0140491 0.000633154)
(0.00750084 -0.0141974 0.00125419)
(0.0092909 -0.014301 0.000992903)
(0.00941307 -0.0158318 0.00209284)
(0.00922127 -0.0149046 0.000983852)
(0.0055683 -0.016184 0.00422737)
(0.00545132 -0.0159833 0.00270382)
(0.0050451 -0.0156527 0.00317637)
(0.00603589 -0.0174104 0.00354268)
(0.00395476 -0.0162321 0.00426208)
(0.00499365 -0.0176589 0.00445604)
(0.00515189 -0.0154162 0.00347941)
(0.00679878 -0.0162752 0.00402913)
(0.00457615 -0.0168531 0.00391491)
(0.00726152 -0.016486 0.00529299)
(0.00661644 -0.0152696 0.0033716)
(0.00459721 -0.0166687 0.00456863)
(0.00392523 -0.0136568 0.00799934)
(0.00418854 -0.0131153 0.00819226)
(0.00358755 -0.0148128 0.00731966)
(0.003794 -0.0139592 0.00732638)
(0.00406361 -0.013567 0.00794077)
(0.00391314 -0.0148309 0.00775696)
(0.00718285 -0.00970369 0.00759235)
(0.00714823 -0.0100302 0.00809924)
(0.00721289 -0.00965059 0.00823908)
(0.0065106 -0.00996297 0.00780443)
(0.00703485 -0.00934253 0.00758358)
(0.00505482 -0.0114369 0.00808541)
(0.00560522 -0.0109759 0.00824231)
(0.00544759 -0.011657 0.00829255)
(0.00591179 -0.0106502 0.00796838)
(0.00625347 -0.0103031 0.00801403)
(0.00472155 -0.0120898 0.00814593)
(0.00563719 -0.0139565 0.00794969)
(0.0049131 -0.013756 0.00821364)
(0.00453907 -0.0137653 0.00739021)
(0.00485898 -0.0125416 0.0078334)
(0.003511 -0.0143721 0.00716265)
(0.00697156 -0.00922989 0.00725231)
(0.00626844 -0.00910016 0.00707921)
(0.00630674 -0.00928462 0.00706132)
(0.00574157 -0.00983621 0.00786699)
(0.00566475 -0.00992083 0.00787415)
(0.0130662 -0.0113824 0.00317678)
(0.0130072 -0.00938897 0.00374863)
(0.0131241 -0.0103807 0.00307114)
(0.013619 -0.0105932 0.00339264)
(0.0131963 -0.0110418 0.00307738)
(0.0134332 -0.00989542 0.00368172)
(0.0121847 -0.0076585 0.00672056)
(0.0115401 -0.00817851 0.00688671)
(0.013445 -0.00856005 0.0065942)
(0.0125661 -0.00850836 0.00616414)
(0.0127647 -0.00815612 0.00750986)
(0.0119609 -0.00837144 0.0075136)
(0.0109265 -0.00880593 0.00468791)
(0.0110316 -0.00863267 0.00517052)
(0.00974995 -0.00815364 0.00579263)
(0.010394 -0.00838112 0.00444043)
(0.0109197 -0.00889934 0.00543507)
(0.0104162 -0.0084071 0.00579167)
(0.0112004 -0.00804734 0.00639052)
(0.011647 -0.00821363 0.00588261)
(0.0107561 -0.00798416 0.00688052)
(0.0120298 -0.00851914 0.00536634)
(0.0116002 -0.00849597 0.00582327)
(0.0118418 -0.00882338 0.00666106)
(0.011079 -0.00902965 0.00347774)
(0.0115024 -0.0100814 0.00333218)
(0.0114967 -0.0103059 0.00297625)
(0.0110887 -0.00928452 0.00412287)
(0.0112869 -0.00924027 0.00464232)
(0.0128557 -0.0105252 0.00351571)
(0.0123987 -0.0117778 0.00232812)
(0.0125556 -0.0105197 0.00286188)
(0.0122778 -0.0117049 0.00262923)
(0.0123133 -0.0111572 0.00245224)
(0.0124234 -0.0108512 0.00283129)
(0.011981 -0.0103919 0.00266636)
(0.0117306 -0.0111844 0.00236711)
(0.0131799 -0.00882172 0.00524005)
(0.0126365 -0.008977 0.00462054)
(0.0131549 -0.00913752 0.00449166)
(0.0126724 -0.00925703 0.00404749)
(0.0126665 -0.00871963 0.00509782)
(0.0131786 -0.00971037 0.00413735)
(0.00287976 -0.0168135 0.00672922)
(0.0030427 -0.0173648 0.00621317)
(0.00320671 -0.018041 0.00763917)
(0.00298322 -0.0174028 0.00579503)
(0.0048095 -0.0155686 0.00846706)
(0.00485129 -0.0153256 0.00892763)
(0.00518702 -0.0168954 0.00884291)
(0.00404649 -0.0169439 0.00822309)
(0.00431383 -0.0163072 0.00923191)
(0.00332636 -0.0160014 0.00758216)
(0.00855069 -0.0125065 0.00865671)
(0.0089806 -0.0122749 0.00800874)
(0.00879738 -0.0112385 0.00796276)
(0.00921253 -0.0112923 0.00709565)
(0.00912497 -0.0116276 0.00767236)
(0.00641819 -0.0139065 0.00704725)
(0.00707351 -0.0155885 0.0064209)
(0.00627654 -0.0152394 0.00616368)
(0.00718721 -0.0152159 0.00726689)
(0.00596353 -0.0156834 0.00584569)
(0.0055003 -0.0141126 0.00608903)
(0.00685367 -0.0137424 0.00678652)
(0.0057027 -0.0146314 0.00642868)
(0.00626411 -0.0162281 0.00766772)
(0.00751614 -0.0155872 0.00806091)
(0.0067546 -0.0166052 0.00702001)
(0.00644188 -0.0169614 0.00682403)
(0.00755433 -0.0176434 0.00718431)
(0.00672087 -0.0158425 0.00732885)
(0.00556769 -0.0160964 0.006936)
(0.0063419 -0.0173343 0.00646211)
(0.00716466 -0.0156479 0.00780205)
(0.00535338 -0.0164854 0.00633489)
(0.0117624 -0.0088821 0.00315644)
(0.01177 -0.00856873 0.00323749)
(0.0114907 -0.00946595 0.00271525)
(0.00827204 -0.00993226 0.00285457)
(0.00863897 -0.0107166 0.00260487)
(0.0080244 -0.0097573 0.00336632)
(0.00773468 -0.00949843 0.00295292)
(0.00861622 -0.0100831 0.00357303)
(0.00816323 -0.0102406 0.0025453)
(0.00838961 -0.00919521 0.00314531)
(0.00835003 -0.00939161 0.0036873)
(0.00862669 -0.00933033 0.00376413)
(0.00881967 -0.00989727 0.0029237)
(0.00809672 -0.00897389 0.00397944)
(0.00854494 -0.00970969 0.00310809)
(0.00976085 -0.0114869 0.00223596)
(0.00903294 -0.00992503 0.00281107)
(0.00894006 -0.0107034 0.0019651)
(0.00873543 -0.0100869 0.00242621)
(0.00899127 -0.0103808 0.00219275)
(0.00861268 -0.0102 0.00278276)
(0.00821067 -0.00928375 0.00387797)
(0.00770413 -0.012842 0.000513775)
(0.00840927 -0.0134631 0.000979572)
(0.00742044 -0.0151825 0.000497108)
(0.00825 -0.014886 0.000799865)
(0.00703344 -0.0141538 0.000850353)
(0.00750593 -0.013642 0.000556232)
(0.0111535 -0.0104397 0.00330396)
(0.0115882 -0.0115163 0.00369966)
(0.00618125 -0.0153926 0.00563138)
(0.00972631 -0.0119182 0.00704837)
(0.00964494 -0.012523 0.007696)
(0.0106902 -0.0125821 0.00613743)
(0.0100495 -0.0122413 0.00722586)
(0.0103268 -0.0122421 0.00613646)
(0.00975255 -0.0122283 0.00712715)
(0.0099916 -0.0124304 0.00694281)
(0.00518159 -0.00895717 0.00574764)
(0.00499031 -0.0097701 0.00673782)
(0.0111079 -0.00874925 0.00640032)
(0.0100535 -0.00852151 0.00849836)
(0.00978474 -0.00855881 0.00817407)
(0.00993418 -0.00880382 0.00851593)
(0.0106411 -0.00858637 0.0085755)
(0.0110819 -0.00834038 0.0084115)
(0.0103946 -0.0080882 0.0072451)
(0.0103511 -0.00824165 0.00762742)
(0.0111323 -0.00842396 0.00818129)
(0.0107092 -0.00793191 0.00676472)
(0.0123387 -0.00841412 0.00556407)
(0.00979654 -0.0084156 0.00689838)
(0.00906064 -0.00819397 0.00683491)
(0.00988836 -0.00803207 0.00735147)
(0.0110956 -0.00863007 0.00760083)
(0.0102989 -0.00880493 0.00753876)
(0.00889191 -0.00858229 0.00780042)
(0.008793 -0.00961393 0.00871189)
(0.00900075 -0.00845834 0.00793817)
(0.009992 -0.00859919 0.00776164)
(0.0093183 -0.00894186 0.00813511)
(0.00822998 -0.00940381 0.00877804)
(0.00880427 -0.00919283 0.0086639)
(0.00895987 -0.0114991 0.00106789)
(0.00970171 -0.0127529 0.00124748)
(0.00943377 -0.0126662 0.00144544)
(0.0100681 -0.0131105 0.000625957)
(0.0107417 -0.0123197 0.00194529)
(0.0104284 -0.0124301 0.00184598)
(0.00939399 -0.0105347 0.00251674)
(0.00979219 -0.0100411 0.00288425)
(0.0101129 -0.0105354 0.00362565)
(0.0100016 -0.00954549 0.00359803)
(0.00947713 -0.00931856 0.00389737)
(0.0104399 -0.00917601 0.00451213)
(0.0131339 -0.0103522 0.00345169)
(0.0133728 -0.010614 0.0033265)
(0.0126501 -0.0110349 0.00287265)
(0.0100566 -0.00958036 0.0047263)
(0.00857464 -0.00886732 0.00562328)
(0.00929685 -0.00894207 0.00568696)
(0.0103791 -0.00925139 0.00515531)
(0.00992827 -0.00930475 0.00466465)
(0.00880497 -0.0085047 0.00493431)
(0.00771767 -0.00846708 0.00623466)
(0.00829802 -0.00903943 0.0058739)
(0.00880214 -0.0092946 0.00411449)
(0.0085677 -0.00924036 0.00499444)
(0.00937921 -0.00953769 0.00402569)
(0.00850103 -0.00895488 0.0053897)
(0.0087212 -0.00883357 0.00508684)
(0.0095122 -0.00930727 0.00467447)
(0.00768428 -0.0085922 0.00469602)
(0.00779358 -0.0086932 0.00428913)
(0.0059578 -0.012105 0.00811729)
(0.0059397 -0.0145505 0.00825527)
(0.00625296 -0.0128738 0.00808391)
(0.00840961 -0.00845558 0.00760286)
(0.00914205 -0.00867778 0.00740591)
(0.00725959 -0.0096201 0.00814155)
(0.00822242 -0.00919913 0.00789992)
(0.00841436 -0.00875292 0.00758587)
(0.00653353 -0.00973346 0.00819182)
(0.00451627 -0.0131484 0.00836089)
(0.00581106 -0.0136981 0.00847469)
(0.00515602 -0.0121361 0.00833959)
(0.00619229 -0.011066 0.00866951)
(0.00674335 -0.0101064 0.00826307)
(0.00731622 -0.00969016 0.0081931)
(0.00778363 -0.00917767 0.00796301)
(0.00645571 -0.0094979 0.00791588)
(0.00588075 -0.00943924 0.0079283)
(0.00549704 -0.0104569 0.00814064)
(0.00633157 -0.00981569 0.00760244)
(0.00744405 -0.00872273 0.0066147)
(0.00748235 -0.00937461 0.00774545)
(0.00852163 -0.00854699 0.00720529)
(0.00801307 -0.00913485 0.00777082)
(0.00908535 -0.00888989 0.00734707)
(0.00804137 -0.00901834 0.00700187)
(0.00832236 -0.0087638 0.00694841)
(0.00713657 -0.00867054 0.00732312)
(0.00976279 -0.00844378 0.00662397)
(0.00934885 -0.00849126 0.0068527)
(0.00910378 -0.00875344 0.00593063)
(0.00848916 -0.00867268 0.00681517)
(0.00812566 -0.00861762 0.00648718)
(0.00983997 -0.00885967 0.00661681)
(0.0104683 -0.00892754 0.00588315)
(0.00902637 -0.00855049 0.00607511)
(0.0103145 -0.00909434 0.00522852)
(0.00928554 -0.00857679 0.00541442)
(0.00449252 -0.0143149 0.00704354)
(0.00449485 -0.0120988 0.00827232)
(0.00450595 -0.0134174 0.00836497)
(0.0043702 -0.0159884 0.00677531)
(0.00445121 -0.014652 0.00559967)
(0.00388227 -0.0161614 0.00658781)
(0.00534478 -0.0168362 0.00595885)
(0.00531035 -0.0167559 0.00485217)
(0.00837861 -0.00947798 0.00448591)
(0.00756515 -0.00929333 0.00459156)
(0.00753784 -0.00862149 0.00487363)
(0.0075443 -0.00897065 0.00550734)
(0.00688136 -0.00902255 0.00566584)
(0.00655338 -0.017173 0.00394022)
(0.00563519 -0.0161158 0.00211178)
(0.00653238 -0.0163335 0.00246658)
(0.00710586 -0.0163467 0.00227567)
(0.00574316 -0.0169362 0.00142456)
(0.00741138 -0.0166086 0.00110349)
(0.00811922 -0.0162488 0.00191689)
(0.00977694 -0.0143454 0.0018837)
(0.00742803 -0.0146861 0.00117493)
(0.00842296 -0.0159421 0.000903341)
(0.0105956 -0.015605 0.002413)
(0.00670869 -0.0147726 0.0011023)
(0.00662112 -0.0171477 0.00143883)
(0.0068455 -0.0166591 0.000814075)
(0.00782081 -0.0156155 0.00154122)
(0.00870368 -0.0169271 0.00205156)
(0.00890694 -0.0151617 0.0018498)
(0.00842371 -0.0169445 0.00140916)
(0.00813269 -0.0159371 0.00100542)
(0.00918921 -0.0156025 0.00156185)
(0.00822384 -0.0153411 0.00144561)
(0.00844001 -0.0158186 0.00104501)
(0.00659897 -0.0153509 0.00104052)
(0.00721628 -0.0160716 0.000908466)
(0.0082328 -0.0156077 0.00159179)
(0.00746898 -0.0171525 0.00100751)
(0.00825079 -0.017344 0.00184383)
(0.00606813 -0.0159702 0.00311847)
(0.0056208 -0.0149546 0.00887592)
(0.00408593 -0.0146339 0.00661757)
(0.00545464 -0.0140624 0.0073541)
(0.00577117 -0.0138689 0.00774136)
(0.00494778 -0.0141833 0.00758047)
(0.00562583 -0.0148523 0.00732848)
(0.00611073 -0.0152278 0.00685702)
(0.00447616 -0.0153564 0.00493424)
(0.00551662 -0.0170988 0.006221)
(0.00612379 -0.0148302 0.00509187)
(0.00572972 -0.0169026 0.00624924)
(0.00470054 -0.0149752 0.00654583)
(0.00547738 -0.0152303 0.00722949)
(0.00493545 -0.0142201 0.00577377)
(0.0104478 -0.0139711 0.00189752)
(0.0107932 -0.0124309 0.00384124)
(0.0106443 -0.0127036 0.00313278)
(0.0104713 -0.0134971 0.00246559)
(0.0103794 -0.0136647 0.00255724)
(0.0104434 -0.0141021 0.00278918)
(0.00994492 -0.0122546 0.0035566)
(0.0105682 -0.0138735 0.00344045)
(0.0103155 -0.0130876 0.00316843)
(0.0101341 -0.0135577 0.00274847)
(0.0106685 -0.0127815 0.00339194)
(0.0108531 -0.012834 0.0036054)
(0.0102421 -0.0120686 0.00371114)
(0.00975881 -0.0111336 0.00636551)
(0.0105201 -0.0121201 0.00398979)
(0.0106228 -0.0120596 0.00528411)
(0.0105507 -0.0120761 0.00588325)
(0.0103302 -0.0119184 0.00459986)
(0.0100028 -0.0111276 0.0048594)
(0.010785 -0.0122622 0.00442167)
(0.0102466 -0.0115807 0.00388383)
(0.0101555 -0.0108514 0.00524657)
(0.00428214 -0.0154956 0.00821566)
(0.00355931 -0.017112 0.00783971)
(0.00830716 -0.0122931 0.00845857)
(0.00540211 -0.0148018 0.00821955)
(0.00572268 -0.0161997 0.00927712)
(0.00589402 -0.0106926 0.00811633)
(0.00653486 -0.00868736 0.00527131)
(0.00569555 -0.00921945 0.00607813)
(0.00615451 -0.00895288 0.0060393)
(0.00567904 -0.00939139 0.00654141)
(0.00527604 -0.00951459 0.00659002)
(0.00498898 -0.00944148 0.00668601)
(0.00691984 -0.00858118 0.00589451)
(0.00641029 -0.00861588 0.00616303)
(0.00660296 -0.00851399 0.00579125)
(0.00693162 -0.00839898 0.00554371)
(0.00551275 -0.00975509 0.0073233)
(0.00563314 -0.00931053 0.00700835)
(0.00600151 -0.00869486 0.00645374)
(0.00661773 -0.00875405 0.00606704)
(0.00557587 -0.00937673 0.00691294)
(0.00522652 -0.00959935 0.0069541)
(0.00599796 -0.00907717 0.00673473)
(0.00560394 -0.00889918 0.00619911)
(0.0051432 -0.0094079 0.00704786)
(0.00445553 -0.0102185 0.00724182)
(0.00357835 -0.0115868 0.00766729)
(0.002633 -0.0117291 0.00741364)
(0.0049456 -0.0108522 0.00799391)
(0.00483817 -0.00996616 0.00742577)
(0.00417204 -0.0101982 0.00748642)
(0.0047252 -0.00999438 0.007369)
(0.00387993 -0.0110661 0.00771073)
(0.00269289 -0.0128587 0.00777808)
(0.00264838 -0.0142454 0.00776244)
(0.00212045 -0.0136393 0.00718521)
(0.0063982 -0.0144049 0.000418325)
(0.00722366 -0.00915993 0.00338511)
(0.007372 -0.0165869 0.000588909)
(0.00648999 -0.0139646 2.86344e-05)
(0.00801875 -0.0121826 0.000995538)
(0.00816316 -0.0105433 0.00192082)
(0.00748178 -0.0114277 0.00118727)
(0.00802126 -0.0106037 0.00195892)
(0.00761161 -0.0143221 0.00104667)
(0.00762941 -0.013286 0.000850564)
(0.00771286 -0.0150905 0.000171158)
(0.00736178 -0.0134705 0.000300026)
(0.00687692 -0.00932607 0.00386197)
(0.00540055 -0.0167649 0.00055287)
(0.00301407 -0.0171343 0.00438515)
(0.00332334 -0.0190544 0.00371693)
(0.00333949 -0.0184513 0.00529599)
(0.0136626 -0.00941745 0.00404228)
(0.0130116 -0.00958808 0.00363033)
(0.0138879 -0.00962326 0.00394884)
(0.0132221 -0.0101126 0.00346541)
(0.0132768 -0.0110683 0.00309065)
(0.00556741 -0.0170173 0.00163996)
(0.00642975 -0.0173122 0.00118719)
(0.0064962 -0.0172487 0.000764106)
(0.00551987 -0.0174196 0.0020241)
(0.00568856 -0.0177999 0.00186629)
(0.00396929 -0.018599 0.00400935)
(0.00438686 -0.0169744 0.00304243)
(0.0057414 -0.0180073 0.00329892)
(0.00592989 -0.0156771 0.00199534)
(0.0060885 -0.0163877 0.00331652)
(0.00434122 -0.0173335 0.00242576)
(0.00401315 -0.0176895 0.00262713)
(0.00545047 -0.0180333 0.00234071)
(0.00546753 -0.0181866 0.00241447)
(0.00499852 -0.0182478 0.00298939)
(0.00385687 -0.0120152 0.00852309)
(0.00357139 -0.0115782 0.0078489)
(0.00321225 -0.0123955 0.00797655)
(0.0033195 -0.0133091 0.00799572)
(0.00384481 -0.0128066 0.00804472)
(0.00396433 -0.0131392 0.00816029)
(0.00335712 -0.0131652 0.00780416)
(0.00426655 -0.012534 0.008568)
(0.00272866 -0.0135315 0.0074862)
(0.00249353 -0.014197 0.0073468)
(0.00283839 -0.0143146 0.00752111)
(0.00262363 -0.0139673 0.00765445)