/*--------------------------------*- C++ -*----------------------------------*\
| =========                 |                                                 |
| \\      /  F ield         | OpenFOAM: The Open Source CFD Toolbox           |
|  \\    /   O peration     | Version:  v1612+                                |
|   \\  /    A nd           | Web:      www.OpenFOAM.com                      |
|    \\/     M anipulation  |                                                 |
\*---------------------------------------------------------------------------*/
FoamFile
{
    version     2.0;
    format      ascii;
    class       volVectorField;
    location    "166";
    object      wallShearStress;
}
// * * * * * * * * * * * * * * * * * * * * * * * * * * * * * * * * * * * * * //

dimensions      [0 2 -2 0 0 0 0];

internalField   uniform (0 0 0);

boundaryField
{
    WALL
    {
        type            calculated;
        value           nonuniform List<vector> 
1505
(
(0.00781515 -0.0123121 -0.010802)
(0.00695616 -0.0121929 -0.0113124)
(0.00810335 -0.011059 -0.0125731)
(0.00783549 -0.0115693 -0.0139455)
(0.00160321 -0.0125699 -0.0121429)
(0.00297207 -0.0117445 -0.0114327)
(0.00555768 -0.0120874 -0.014174)
(0.00691486 -0.0121927 -0.0138897)
(0.0039479 -0.0174781 -0.0144886)
(0.00607017 -0.0180077 -0.0154352)
(0.0102481 -0.0174075 -0.0157235)
(0.0116395 -0.0178865 -0.0161218)
(-0.00255842 -0.0144794 -0.0119644)
(-0.00311586 -0.0144345 -0.0119909)
(0.00119932 -0.0128613 -0.0114868)
(0.00277834 -0.0115764 -0.00993467)
(0.00505606 -0.0165743 -0.00791789)
(0.003411 -0.0149952 -0.00873369)
(0.00874175 -0.0111854 -0.0163297)
(0.00287608 -0.0139145 -0.0139793)
(0.00308021 -0.0127655 -0.0138592)
(0.00550353 -0.0117901 -0.0144565)
(0.00434465 -0.0119265 -0.0144498)
(0.00648127 -0.016756 -0.0144685)
(0.00759019 -0.0175421 -0.0137574)
(0.00222006 -0.0157809 -0.0132142)
(0.00331652 -0.016491 -0.0137473)
(-0.00344091 -0.0161082 -0.0130796)
(-0.00237257 -0.0158759 -0.013805)
(0.00166908 -0.0138874 -0.0129133)
(0.00304356 -0.0132521 -0.0128311)
(0.00236208 -0.012249 -0.0122098)
(0.00349238 -0.0112415 -0.011515)
(0.0050343 -0.0131305 -0.0137548)
(0.00299406 -0.0135824 -0.0140805)
(-0.000853586 -0.0136231 -0.0115764)
(0.000517622 -0.0135498 -0.0121377)
(-0.00152172 -0.0127773 -0.0117464)
(-0.000443637 -0.0133305 -0.0116132)
(0.00587658 -0.0125538 -0.0101901)
(0.00497259 -0.0118434 -0.0103147)
(0.0108747 -0.0170342 -0.0147127)
(0.0101326 -0.0168725 -0.0147263)
(0.0128622 -0.0178889 -0.0180897)
(0.0132305 -0.0173009 -0.0163826)
(0.0113629 -0.0174463 -0.0163805)
(0.0130383 -0.0181236 -0.017622)
(0.0125024 -0.0183626 -0.0172295)
(0.0120581 -0.0168746 -0.0155513)
(0.00838769 -0.0198135 -0.00558246)
(0.00797119 -0.0204525 -0.00636398)
(0.00768175 -0.0187162 -0.00490157)
(0.00813365 -0.020327 -0.00426664)
(0.00700236 -0.0190142 -0.00518064)
(0.00659145 -0.0208196 -0.00496392)
(0.011518 -0.011434 -0.0146058)
(0.0130564 -0.0129393 -0.0149699)
(0.0113451 -0.0122406 -0.0144148)
(0.0132489 -0.0151832 -0.0141128)
(0.0132467 -0.0124725 -0.0150759)
(0.0121576 -0.0129319 -0.0134506)
(0.00714524 -0.011622 -0.0147463)
(0.0065301 -0.0113786 -0.014912)
(0.00665447 -0.0115409 -0.0144502)
(0.00557967 -0.0119431 -0.0160254)
(0.00603759 -0.0118655 -0.0142144)
(0.0058193 -0.0114699 -0.0148794)
(0.00377614 -0.0181879 -0.00707961)
(0.00279733 -0.0184636 -0.007989)
(0.00287835 -0.0160935 -0.0070109)
(0.00331971 -0.0179845 -0.00727078)
(0.00407506 -0.0178974 -0.00724276)
(0.0036407 -0.017828 -0.00864286)
(0.00734139 -0.016318 -0.010206)
(0.00795278 -0.0181428 -0.0133374)
(0.00907119 -0.0177959 -0.0105412)
(0.00753604 -0.015934 -0.00900082)
(0.00743729 -0.0167762 -0.0108757)
(0.00485218 -0.0183702 -0.00446982)
(0.00635369 -0.0200937 -0.00518945)
(0.00557034 -0.0233566 -0.00358628)
(0.00607427 -0.019355 -0.00382405)
(0.0041128 -0.0195172 -0.00360297)
(0.00445033 -0.0223571 -0.00366752)
(0.00597267 -0.0215999 -0.00340493)
(-0.00692307 -0.0150313 -0.0122197)
(-0.00642817 -0.0139437 -0.0116394)
(-0.00757451 -0.0151345 -0.0115197)
(-0.00309265 -0.020406 -0.00926029)
(-0.00313739 -0.020377 -0.00824647)
(-0.00191136 -0.0213416 -0.00816599)
(-0.00162567 -0.0221838 -0.00862091)
(-0.00143249 -0.0197163 -0.00950393)
(-0.00184373 -0.0192669 -0.00840475)
(0.00274853 -0.0187925 -0.00818816)
(0.00155113 -0.0184326 -0.00863345)
(0.000812991 -0.0193645 -0.00915613)
(0.00193794 -0.0190885 -0.00704641)
(0.00199494 -0.0206305 -0.00953542)
(0.00251612 -0.0209573 -0.00865799)
(0.00445331 -0.0135506 -0.00757592)
(0.00416786 -0.0155887 -0.00537759)
(0.00447836 -0.0149403 -0.00653248)
(0.00446201 -0.0127692 -0.00669219)
(0.00419063 -0.0136049 -0.00698149)
(0.00388539 -0.013714 -0.00586133)
(0.00925705 -0.0116387 -0.01089)
(0.00914154 -0.011827 -0.0122915)
(0.0102059 -0.0140084 -0.0126698)
(0.0107352 -0.0140036 -0.0112745)
(0.0103972 -0.0139316 -0.0113957)
(0.0101368 -0.0134955 -0.0113253)
(0.0064655 -0.0146057 -0.00304368)
(0.00515638 -0.0133678 -0.00246296)
(0.00558689 -0.0131557 -0.00187861)
(0.00541544 -0.0131772 -0.0036307)
(0.007864 -0.0170852 -0.00249829)
(0.00653056 -0.0143861 -0.00134647)
(0.0126593 -0.019823 -0.0155103)
(0.0129862 -0.0193584 -0.0147627)
(0.0124384 -0.0191757 -0.0151536)
(0.0116091 -0.016277 -0.00550186)
(0.011668 -0.0162189 -0.00575479)
(0.0133238 -0.0164434 -0.00946395)
(0.0119642 -0.0158886 -0.00766356)
(0.0130131 -0.015965 -0.00857857)
(0.0114473 -0.0147241 -0.00616929)
(0.00724635 -0.018282 -0.0108636)
(0.00736377 -0.0173812 -0.00966375)
(0.00768711 -0.0199903 -0.0112661)
(0.00918296 -0.0186951 -0.0107678)
(0.00915682 -0.018184 -0.0111747)
(0.00848405 -0.0175218 -0.0097226)
(0.013753 -0.0162581 -0.012921)
(0.0137082 -0.015677 -0.0114612)
(0.0133878 -0.0157242 -0.0137022)
(0.0133445 -0.016302 -0.0145204)
(0.0130481 -0.0161728 -0.0136471)
(0.0129109 -0.0147275 -0.012871)
(0.0135897 -0.0159825 -0.0157197)
(0.0136921 -0.0159089 -0.0175585)
(0.0136448 -0.0148446 -0.0137391)
(0.0136632 -0.0152326 -0.0141138)
(0.0103527 -0.0170164 -0.0141218)
(0.0111293 -0.0172943 -0.0142675)
(0.0117662 -0.0176109 -0.0152672)
(0.00966606 -0.0169951 -0.0145419)
(0.0100823 -0.0175455 -0.0152656)
(0.0116173 -0.0170248 -0.0150708)
(0.0125023 -0.0167575 -0.015003)
(0.0126672 -0.0168 -0.0144724)
(0.0123279 -0.0175604 -0.0160628)
(0.0114813 -0.0165622 -0.0142639)
(0.0123319 -0.0171048 -0.0149943)
(0.0130981 -0.0178364 -0.0119951)
(0.0132826 -0.0174286 -0.0117632)
(0.0140566 -0.0174736 -0.0133024)
(0.0133055 -0.0178078 -0.0121183)
(0.0126967 -0.0159754 -0.0113968)
(0.013148 -0.0156246 -0.0124233)
(0.0149874 -0.0172454 -0.0133402)
(0.0163472 -0.0175192 -0.01429)
(0.0153783 -0.0167396 -0.0136898)
(0.0162199 -0.0170222 -0.0141598)
(0.0147393 -0.0167841 -0.0132809)
(0.0152831 -0.0167284 -0.0136326)
(0.0115332 -0.0179244 -0.0122972)
(0.00921341 -0.0182791 -0.0113092)
(0.0103365 -0.0197893 -0.012747)
(0.00924788 -0.0185749 -0.011035)
(0.0108687 -0.0199456 -0.0131785)
(0.0121009 -0.0188691 -0.0124035)
(0.0117548 -0.0188323 -0.0117628)
(0.0138468 -0.0178475 -0.0126466)
(0.0142736 -0.0184316 -0.0131866)
(0.0150444 -0.0196464 -0.0144001)
(0.0123074 -0.0194962 -0.0126444)
(0.0122844 -0.0177865 -0.0118062)
(0.0102519 -0.0185301 -0.0108666)
(0.0105288 -0.0170159 -0.0100797)
(0.0108778 -0.01763 -0.0103797)
(0.00947006 -0.0172408 -0.0102978)
(0.0107117 -0.0172857 -0.0105871)
(0.0105038 -0.0170792 -0.0104702)
(0.0130809 -0.0148557 -0.0106387)
(0.0130244 -0.0143838 -0.0099753)
(0.0116601 -0.014542 -0.00633418)
(0.0116174 -0.0140342 -0.00898141)
(0.0115668 -0.0128648 -0.0076019)
(0.0116478 -0.014326 -0.00632883)
(0.00377499 -0.0158463 -0.00656414)
(0.00280381 -0.0162387 -0.00733346)
(0.00309351 -0.0140488 -0.00515221)
(0.00661003 -0.0161945 -0.00329721)
(0.00827618 -0.0184073 -0.0047134)
(0.00707474 -0.0180123 -0.00388684)
(0.00729278 -0.0175988 -0.0049009)
(0.00674071 -0.0177762 -0.00420306)
(0.00719817 -0.0164145 -0.00290964)
(0.0065802 -0.0127273 -0.000865488)
(0.00755794 -0.0136269 -0.00110032)
(0.00643712 -0.0108725 -0.000703336)
(0.00839802 -0.0119392 -0.0028274)
(0.00927757 -0.0125859 -0.00391336)
(0.0085699 -0.0133711 -0.0025621)
(0.00930786 -0.0154676 -0.00328067)
(0.00828669 -0.0157511 -0.00226363)
(0.0100327 -0.0148997 -0.00392517)
(0.00827582 -0.0158295 -0.00334613)
(0.0086327 -0.0153759 -0.00262318)
(0.00936568 -0.0147206 -0.00345608)
(0.00373756 -0.0108229 -0.00974407)
(0.00375155 -0.010974 -0.0097477)
(0.00500578 -0.0113748 -0.00913971)
(0.00480257 -0.0114495 -0.0089411)
(0.00498406 -0.0121338 -0.00981648)
(0.00453105 -0.0118351 -0.00929743)
(0.00696122 -0.0137286 -0.00868549)
(0.00578685 -0.0125462 -0.0070247)
(0.00630272 -0.0126259 -0.00805958)
(0.00574744 -0.011771 -0.00865924)
(0.00540688 -0.0121858 -0.00739783)
(0.00529324 -0.0115999 -0.0081579)
(0.00747301 -0.0154544 -0.00800812)
(0.00698397 -0.0157351 -0.00758639)
(0.00752176 -0.0157993 -0.00783693)
(0.00685399 -0.0141808 -0.00670842)
(0.00773101 -0.015931 -0.00745249)
(0.00644733 -0.0152548 -0.00597144)
(0.00778952 -0.0123509 -0.0117312)
(0.00534136 -0.010906 -0.0116047)
(0.00567901 -0.0117043 -0.0121072)
(0.00636943 -0.0107223 -0.0118002)
(0.00676219 -0.0121173 -0.0116661)
(0.00690003 -0.011259 -0.0108106)
(0.00622988 -0.0113023 -0.0118914)
(0.00649514 -0.0110757 -0.0116036)
(0.00867489 -0.016661 -0.00835014)
(0.00825335 -0.0160143 -0.00790411)
(0.00894751 -0.0148224 -0.00881911)
(0.00995875 -0.0157996 -0.00935226)
(0.00934359 -0.0144524 -0.00881396)
(0.00991192 -0.0154287 -0.00888431)
(0.00806626 -0.0146828 -0.00750057)
(0.00798555 -0.0158933 -0.00791906)
(0.00812553 -0.0155487 -0.0079042)
(0.00853215 -0.0160095 -0.00824584)
(0.00871385 -0.0147379 -0.00846478)
(0.00904457 -0.0159409 -0.00868474)
(0.0124949 -0.0143306 -0.013329)
(0.011527 -0.0125699 -0.0125898)
(0.0105374 -0.0120596 -0.0127201)
(0.0106625 -0.0123787 -0.0121709)
(0.0105383 -0.0122992 -0.0127121)
(0.010843 -0.0120502 -0.0118273)
(0.00763715 -0.012236 -0.0134271)
(0.00736161 -0.0108694 -0.0115302)
(0.00911987 -0.0133926 -0.0134025)
(0.00769935 -0.0121479 -0.012227)
(0.00759433 -0.0125404 -0.0134423)
(0.00907311 -0.0128974 -0.011933)
(0.0099234 -0.0124406 -0.0142198)
(0.00926845 -0.0117198 -0.0128747)
(0.00843598 -0.0118284 -0.0153399)
(0.00845559 -0.0118184 -0.0139213)
(0.00900878 -0.0117401 -0.0148156)
(0.00807512 -0.0117619 -0.0148237)
(0.0100625 -0.0125969 -0.0139408)
(0.00789784 -0.0115746 -0.0134212)
(0.00934215 -0.0133968 -0.0110281)
(0.00823989 -0.0114869 -0.0117528)
(0.00906801 -0.0133728 -0.0100543)
(0.00874888 -0.013029 -0.0103102)
(0.0083861 -0.0123612 -0.0112229)
(0.00393709 -0.0131027 -0.00886017)
(0.00339574 -0.0128913 -0.00902459)
(0.00321118 -0.0119428 -0.0081297)
(0.00284932 -0.0123974 -0.00939155)
(0.00388022 -0.01296 -0.00804877)
(0.00311322 -0.0131605 -0.00926485)
(0.00303972 -0.0159975 -0.00461551)
(0.00374224 -0.0151844 -0.00653514)
(0.0025072 -0.015072 -0.00521017)
(0.00195726 -0.0165 -0.00364647)
(0.00194323 -0.0160293 -0.00388008)
(0.00336716 -0.0165041 -0.00535945)
(-0.00101627 -0.0127886 -0.011615)
(-0.000292946 -0.0124837 -0.0113863)
(0.00044352 -0.0125917 -0.0116915)
(0.000321381 -0.0124033 -0.0116073)
(-0.00197456 -0.0133787 -0.011496)
(-0.000216113 -0.0132827 -0.0117292)
(-0.00319389 -0.0136612 -0.0114182)
(-0.00431615 -0.0151413 -0.0118018)
(-0.0036767 -0.0145808 -0.0119871)
(-0.00177192 -0.0131945 -0.0115542)
(-0.00450719 -0.0150543 -0.0117667)
(-0.00478225 -0.0153401 -0.0114766)
(-0.00614817 -0.0170191 -0.0115475)
(-0.00777657 -0.01873 -0.0101546)
(-0.00674226 -0.0189681 -0.0107075)
(-0.00646374 -0.0166102 -0.0107461)
(-0.00768274 -0.0220154 -0.00822549)
(-0.00821839 -0.021838 -0.0070758)
(-0.00782897 -0.022552 -0.0072551)
(-0.00881334 -0.021503 -0.0077056)
(-0.00749411 -0.0214399 -0.0091058)
(-0.00817684 -0.0205313 -0.0085776)
(0.00225619 -0.0155406 -0.0136459)
(0.00325878 -0.0140498 -0.0145584)
(0.00191749 -0.0145627 -0.0126925)
(0.00203569 -0.0139813 -0.0130458)
(0.00282521 -0.0129924 -0.0132235)
(0.00281541 -0.0136547 -0.0128507)
(-0.000190871 -0.0143117 -0.0118852)
(-0.000916972 -0.0154417 -0.011768)
(-0.000303482 -0.0142745 -0.0119232)
(-0.000257489 -0.0151939 -0.0118609)
(0.000358337 -0.0144883 -0.0123273)
(-0.00106699 -0.0153074 -0.0113401)
(0.00142902 -0.0147739 -0.0134147)
(0.00317232 -0.0119503 -0.0121104)
(0.00133015 -0.0139722 -0.0126105)
(0.00162333 -0.0125749 -0.0120482)
(0.0031688 -0.0125923 -0.0120349)
(0.00285007 -0.0128352 -0.0127524)
(0.00177848 -0.0122167 -0.0120772)
(0.00123137 -0.0130855 -0.0121649)
(0.00391874 -0.0122158 -0.0125904)
(0.00371186 -0.0127744 -0.0131193)
(0.0028398 -0.0117652 -0.0120887)
(0.00256923 -0.0130218 -0.0125042)
(0.00221377 -0.0133266 -0.0127801)
(0.0030941 -0.0186728 -0.00866673)
(0.00193089 -0.0186745 -0.00794783)
(0.0024174 -0.0203873 -0.00785708)
(0.00439894 -0.0190773 -0.00841508)
(0.00312812 -0.0193651 -0.00728227)
(0.00288087 -0.0182855 -0.00897137)
(-0.000719663 -0.016498 -0.0109796)
(-0.00189504 -0.018043 -0.010433)
(-0.000367923 -0.0166024 -0.0113461)
(-0.001329 -0.0163848 -0.0105433)
(-0.00112644 -0.0184733 -0.0101416)
(-0.000182202 -0.0188683 -0.0104598)
(-0.000413165 -0.0168922 -0.0106668)
(-4.07949e-05 -0.0191317 -0.00838385)
(0.00050794 -0.0211356 -0.0085957)
(-0.000474846 -0.019759 -0.00875884)
(0.000344911 -0.0204944 -0.00796232)
(0.000532457 -0.0203421 -0.00739722)
(-0.000325634 -0.0201362 -0.00938593)
(-0.0032547 -0.0177732 -0.0102228)
(-0.00218244 -0.0167252 -0.0107832)
(-0.0026346 -0.0174764 -0.00964479)
(-0.00202655 -0.0161806 -0.0109441)
(-0.00264609 -0.016647 -0.0105019)
(-0.00223561 -0.0173423 -0.0100679)
(0.00205487 -0.0158939 -0.0116119)
(0.00181342 -0.0149815 -0.0120964)
(0.00179649 -0.0153609 -0.0114835)
(0.00165117 -0.0154387 -0.0108471)
(0.00185419 -0.0160401 -0.012456)
(0.00204369 -0.0157251 -0.0117408)
(0.00174109 -0.0147145 -0.0123173)
(0.00175362 -0.0148882 -0.0116951)
(0.00178234 -0.01555 -0.0111245)
(0.00179545 -0.0164551 -0.0119596)
(0.00179046 -0.0162944 -0.0130412)
(-0.00739428 -0.017524 -0.00958673)
(-0.00872254 -0.0173816 -0.0101522)
(-0.00775789 -0.0164746 -0.0106253)
(-0.00627063 -0.0180113 -0.0108469)
(-0.00764121 -0.0179712 -0.0088705)
(-0.00868627 -0.0169855 -0.00848865)
(-0.00422389 -0.0163094 -0.0125149)
(-0.00212512 -0.016355 -0.0135557)
(-0.00466058 -0.0168157 -0.0133782)
(-0.00536796 -0.0163552 -0.0121392)
(-0.00319581 -0.0152115 -0.012795)
(-0.00532689 -0.0172484 -0.0124629)
(0.00797189 -0.019423 -0.00391281)
(0.00715965 -0.0198519 -0.00399973)
(0.00778332 -0.0182324 -0.00373908)
(0.00787452 -0.0199721 -0.00468177)
(0.00775872 -0.0177041 -0.00477296)
(0.00741512 -0.0207299 -0.00333002)
(0.00865797 -0.0161932 -0.00858958)
(0.00834538 -0.0166553 -0.00583245)
(0.00871673 -0.0164184 -0.00747621)
(0.00925824 -0.0178505 -0.00794288)
(0.00843457 -0.0168112 -0.00604639)
(0.00747096 -0.0169308 -0.00788451)
(0.00768045 -0.0165382 -0.00661831)
(0.00817589 -0.0180064 -0.00581017)
(0.00709608 -0.0169713 -0.00723748)
(0.00735704 -0.0183303 -0.00650662)
(0.00732226 -0.0180074 -0.0055158)
(0.0024234 -0.0162008 -0.012932)
(-0.000527262 -0.0162673 -0.0133473)
(0.000293118 -0.0154606 -0.0129905)
(0.000967267 -0.0161912 -0.0133822)
(0.00179514 -0.0152975 -0.0122875)
(-0.00739218 -0.0190017 -0.00654534)
(-0.00772613 -0.0192186 -0.00748018)
(-0.00638823 -0.0193808 -0.00594513)
(-0.00822116 -0.0182725 -0.00681939)
(0.00563339 -0.0161846 -0.00618533)
(0.00541849 -0.0179923 -0.0068786)
(0.00426901 -0.0174776 -0.00606565)
(0.00506516 -0.0169567 -0.006155)
(0.00607365 -0.0177735 -0.00665136)
(0.0058358 -0.0167227 -0.00618571)
(4.1089e-05 -0.0198407 -0.0109966)
(-0.00133331 -0.0188278 -0.0105696)
(-0.00135502 -0.0189683 -0.00895549)
(9.10789e-05 -0.0193274 -0.00918476)
(0.000112269 -0.0197717 -0.0101882)
(-0.00120215 -0.0203707 -0.0106371)
(0.0043543 -0.0182459 -0.00665403)
(0.00263356 -0.0192946 -0.00686334)
(0.00307125 -0.0183428 -0.00587986)
(0.00380847 -0.0171973 -0.00632496)
(0.00251495 -0.0188804 -0.00628245)
(0.00352633 -0.0191356 -0.00751782)
(0.00475632 -0.0175329 -0.00614153)
(0.00694021 -0.0173543 -0.00717745)
(0.00646672 -0.0158458 -0.0064655)
(0.00688937 -0.017361 -0.00780122)
(0.00482453 -0.0177043 -0.00593874)
(0.00532936 -0.0161012 -0.00582848)
(0.0114601 -0.0149839 -0.0104881)
(0.0106513 -0.0166769 -0.00972398)
(0.0113929 -0.0148656 -0.0105149)
(0.0100932 -0.0156063 -0.00926227)
(0.0101362 -0.0150696 -0.00924015)
(0.011435 -0.0164884 -0.0105145)
(0.00302238 -0.018868 -0.0119058)
(0.00180638 -0.0185819 -0.0121976)
(0.00253407 -0.0187025 -0.0109037)
(0.00175645 -0.0204014 -0.0124737)
(0.00117904 -0.0184435 -0.0102567)
(0.0023534 -0.0188567 -0.0104578)
(0.00456799 -0.0181141 -0.00757759)
(0.0056316 -0.0196221 -0.00834084)
(0.00498837 -0.0194717 -0.00752733)
(0.00437966 -0.0185945 -0.00816308)
(0.00428603 -0.0180842 -0.0074454)
(0.00439781 -0.0192959 -0.00831234)
(0.00775189 -0.0203411 -0.00469971)
(0.00745359 -0.0216781 -0.00510556)
(0.00823267 -0.0213746 -0.00336078)
(0.00626843 -0.0217002 -0.00344431)
(0.00640553 -0.0200127 -0.00407811)
(0.0074116 -0.0198789 -0.00383236)
(0.00383697 -0.0115527 -0.0104337)
(0.00343743 -0.0116915 -0.0108833)
(0.00304704 -0.0116456 -0.0106289)
(0.00190499 -0.0123351 -0.011722)
(0.00222614 -0.0128691 -0.0124587)
(0.00313431 -0.0122952 -0.0117006)
(0.0041268 -0.0122874 -0.0109189)
(0.00279137 -0.0124036 -0.0117977)
(0.00542497 -0.0124563 -0.0141575)
(0.006368 -0.0119795 -0.0135276)
(0.00535341 -0.0117626 -0.0127551)
(0.00624325 -0.0119987 -0.0131763)
(0.00497677 -0.0118301 -0.0133543)
(0.00631261 -0.0115459 -0.0134807)
(0.00606054 -0.0117161 -0.0136761)
(0.00571774 -0.0122095 -0.0136494)
(0.00178063 -0.0138747 -0.0134666)
(0.00214822 -0.0142904 -0.0127565)
(0.00280113 -0.0139357 -0.0142661)
(0.00210744 -0.0135196 -0.0144752)
(0.00257423 -0.0134716 -0.0146334)
(0.00263159 -0.0153771 -0.0141352)
(0.00767246 -0.0121068 -0.0170373)
(0.00604833 -0.0118696 -0.0168364)
(0.00677506 -0.0126063 -0.0164629)
(0.00721878 -0.0120817 -0.0164737)
(0.00595006 -0.012531 -0.0164961)
(0.00285203 -0.0147689 -0.00788971)
(0.00294674 -0.0148353 -0.00678724)
(0.00201531 -0.0139276 -0.00792909)
(0.00483203 -0.0183654 -0.00506856)
(0.00365249 -0.016815 -0.00459711)
(0.00373446 -0.0165858 -0.00435985)
(0.000422096 -0.0165893 -0.0118309)
(0.00102709 -0.0151782 -0.0119848)
(-0.00492391 -0.0218099 -0.00803195)
(-0.00517177 -0.0239593 -0.00651779)
(-0.00668062 -0.0223961 -0.00760425)
(-0.00703637 -0.023326 -0.00672341)
(-0.00494974 -0.021581 -0.00693916)
(-0.00443641 -0.0246416 -0.00687168)
(-0.00277168 -0.0247448 -0.00331863)
(-9.04186e-05 -0.0246102 -0.00312952)
(-0.00100186 -0.0242911 -0.00262511)
(-0.00328916 -0.0244046 -0.00302168)
(-0.00254152 -0.0250061 -0.00279924)
(-0.00115262 -0.0238656 -0.00310514)
(0.00330924 -0.0125944 -0.0126948)
(0.0040765 -0.0122723 -0.0114497)
(0.00366469 -0.0118788 -0.0120073)
(0.00415528 -0.0115725 -0.0114014)
(0.00463961 -0.0118335 -0.0111962)
(0.00500827 -0.0123438 -0.0114387)
(0.0083028 -0.0170114 -0.00362558)
(0.00803757 -0.0177787 -0.00307131)
(0.00798579 -0.0194095 -0.00454058)
(0.00904499 -0.0199452 -0.00473162)
(0.00819006 -0.0194947 -0.00345851)
(0.00753224 -0.0196194 -0.00354348)
(0.00873025 -0.018062 -0.00341729)
(0.00836779 -0.0181894 -0.00366007)
(0.00996121 -0.0171409 -0.00416488)
(0.0101211 -0.0191702 -0.00373695)
(0.0101804 -0.0173649 -0.00351289)
(0.00888739 -0.0174254 -0.00341767)
(0.00645239 -0.0195118 -0.0100881)
(0.00554126 -0.0176653 -0.00934181)
(0.006819 -0.0192243 -0.00949748)
(0.00657745 -0.0183546 -0.00905166)
(0.005948 -0.0182512 -0.00922225)
(0.00632304 -0.0185611 -0.00871557)
(0.00870122 -0.0173756 -0.00934041)
(0.00911753 -0.0174027 -0.00914636)
(0.00831916 -0.0172898 -0.00938029)
(0.00867119 -0.0174715 -0.00862639)
(0.00836977 -0.0173683 -0.0090663)
(0.008697 -0.0169167 -0.00896962)
(0.00611869 -0.0176958 -0.00720944)
(0.00667009 -0.0187323 -0.007928)
(0.00753515 -0.0189735 -0.0089497)
(0.00704688 -0.0173305 -0.00775415)
(0.00787319 -0.0165421 -0.00837131)
(0.00846691 -0.0167793 -0.00874571)
(0.00178225 -0.0183668 -0.00477859)
(0.00239072 -0.0180915 -0.00447378)
(0.000677448 -0.0176282 -0.00379471)
(0.0021469 -0.0172933 -0.00399639)
(0.00071202 -0.0177121 -0.00332072)
(0.0038717 -0.0188168 -0.0061851)
(0.00331634 -0.0173445 -0.00487965)
(0.00203323 -0.0170599 -0.00426408)
(0.00290222 -0.0188666 -0.00645196)
(0.0017453 -0.0190841 -0.00515356)
(0.00115957 -0.0190826 -0.00525186)
(0.00423054 -0.0153943 -0.00503408)
(0.00422326 -0.0166529 -0.00484989)
(0.00362081 -0.0174241 -0.00442487)
(0.003962 -0.0169567 -0.00485451)
(0.00409118 -0.0174897 -0.00488903)
(0.00180696 -0.0119846 -0.0107785)
(0.000934118 -0.0118848 -0.0109627)
(0.00171245 -0.0119461 -0.0107755)
(0.00253672 -0.0126651 -0.010585)
(0.000881903 -0.0121487 -0.0110545)
(0.00205945 -0.0115682 -0.0102973)
(-0.00113297 -0.012563 -0.0112409)
(-0.000711991 -0.0131105 -0.011366)
(-0.00238687 -0.0133849 -0.0120056)
(0.0151146 -0.0186178 -0.0137681)
(0.0140658 -0.0182324 -0.0130748)
(0.0126342 -0.0165167 -0.0160974)
(0.0134716 -0.0169343 -0.016305)
(0.013309 -0.016698 -0.0162851)
(0.0122243 -0.016513 -0.0159507)
(0.0137675 -0.0171704 -0.0176543)
(0.0128592 -0.0172383 -0.0164117)
(0.00268037 -0.019013 -0.0140151)
(0.00170631 -0.0188774 -0.0121074)
(0.00205134 -0.0186547 -0.0129327)
(0.000352234 -0.0181063 -0.0121941)
(0.000376968 -0.0189363 -0.0137944)
(0.00155536 -0.0181571 -0.0136768)
(0.00120096 -0.0188152 -0.0146209)
(0.00155113 -0.018072 -0.014392)
(0.00280187 -0.0175426 -0.0143066)
(0.000177128 -0.0185038 -0.0145544)
(0.00192656 -0.0176852 -0.0144983)
(0.00458669 -0.0183482 -0.0134586)
(0.00269862 -0.018041 -0.0129336)
(0.00394534 -0.0188951 -0.0131143)
(0.0046347 -0.0181377 -0.0139625)
(0.00471868 -0.0180174 -0.014151)
(0.00386981 -0.0182128 -0.0136021)
(0.00386219 -0.0182801 -0.0141006)
(0.0044264 -0.0179149 -0.0143294)
(0.0030041 -0.0170382 -0.0133238)
(0.00516428 -0.0175819 -0.0146174)
(0.0050226 -0.0167771 -0.0144577)
(0.0105307 -0.0173862 -0.0155035)
(0.0106198 -0.0179292 -0.0150191)
(0.01113 -0.0172606 -0.0147748)
(0.0101384 -0.0183859 -0.0153406)
(0.0106162 -0.0188523 -0.015824)
(0.0108616 -0.0178899 -0.0154269)
(0.0109721 -0.0166632 -0.0150646)
(0.0100208 -0.0167691 -0.0146762)
(0.010217 -0.0173101 -0.0148393)
(9.9147e-05 -0.0122547 -0.0106049)
(-0.000638144 -0.0124136 -0.0113378)
(-0.00274905 -0.0127997 -0.0115941)
(-0.000941447 -0.012671 -0.0116837)
(-0.00142889 -0.0134386 -0.0117278)
(-0.00140215 -0.0133719 -0.0115543)
(0.000667443 -0.012449 -0.0106155)
(0.000396794 -0.0126126 -0.0111098)
(0.00138882 -0.0117913 -0.00982428)
(0.00150528 -0.0126069 -0.00998905)
(0.000994519 -0.0126872 -0.0109343)
(-4.02384e-05 -0.0130341 -0.0113466)
(0.000541124 -0.011776 -0.010505)
(0.00038298 -0.0123387 -0.0108093)
(-0.000632449 -0.0121518 -0.0109972)
(0.00424751 -0.0155376 -0.00951944)
(0.00585105 -0.0167174 -0.00723158)
(0.0065671 -0.016941 -0.00819798)
(0.00605882 -0.0178856 -0.00657533)
(0.00114449 -0.0185569 -0.00447363)
(0.00292292 -0.0176499 -0.00495425)
(0.006585 -0.0175696 -0.00835427)
(0.00724351 -0.0205545 -0.00538911)
(0.00226176 -0.0164605 -0.0103579)
(0.0018383 -0.0160865 -0.0113095)
(-0.000767508 -0.0124743 -0.0104269)
(0.00487388 -0.0169061 -0.00597368)
(0.0022506 -0.0152506 -0.0101996)
(0.00461203 -0.0169706 -0.00666188)
(0.00414284 -0.015124 -0.00732068)
(0.00312969 -0.0144079 -0.00893842)
(0.00359631 -0.0156264 -0.00600583)
(-5.08318e-05 -0.0127834 -0.0099475)
(0.00119784 -0.0136143 -0.00953292)
(0.00383279 -0.0197408 -0.00452803)
(0.00862697 -0.0118023 -0.0163237)
(0.0102647 -0.0114118 -0.0167122)
(0.00997161 -0.0115565 -0.0155994)
(0.0100101 -0.0115485 -0.0163541)
(0.0141427 -0.0152675 -0.0136615)
(0.00404623 -0.0125065 -0.0166964)
(0.0034851 -0.0127336 -0.0156848)
(0.00339076 -0.0126592 -0.0145693)
(0.00408768 -0.0131927 -0.0152567)
(0.00518587 -0.0131089 -0.016067)
(0.00452597 -0.0126804 -0.0167481)
(0.00906877 -0.0120368 -0.016026)
(0.00926527 -0.0114126 -0.0152446)
(0.0067751 -0.0206196 -0.00470782)
(0.00619331 -0.0195072 -0.00326871)
(0.00738749 -0.0193875 -0.00469704)
(0.00835298 -0.0197398 -0.00445499)
(0.00846255 -0.0198026 -0.00344003)
(0.00859316 -0.0181169 -0.0039859)
(0.00891772 -0.0189966 -0.00423767)
(0.00967892 -0.0189708 -0.00556369)
(0.00964872 -0.0173646 -0.00522948)
(0.0100282 -0.017015 -0.00733872)
(0.0098356 -0.0187996 -0.00467444)
(0.0100193 -0.0179646 -0.00547678)
(0.0105318 -0.0170498 -0.00615024)
(0.0106688 -0.0160853 -0.00648457)
(0.0105336 -0.0162776 -0.00623157)
(0.0104735 -0.0165366 -0.00555799)
(0.0107283 -0.0173122 -0.00531157)
(0.00920324 -0.0164552 -0.00417665)
(0.00992565 -0.0186948 -0.00412138)
(0.00941758 -0.0161551 -0.00384875)
(0.00954723 -0.0182993 -0.00393728)
(0.0111904 -0.0164477 -0.00774426)
(0.0106846 -0.0165727 -0.00788249)
(0.0116909 -0.0169249 -0.0103743)
(0.0111096 -0.0163892 -0.00885904)
(0.0110442 -0.0174083 -0.00877379)
(0.0114142 -0.0170789 -0.0111306)
(0.0112636 -0.0173759 -0.0098667)
(0.0102203 -0.0172349 -0.0106508)
(0.00463789 -0.0168193 -0.00571816)
(0.00440572 -0.0184128 -0.0115322)
(0.0049233 -0.0187517 -0.0113283)
(0.00534038 -0.0203854 -0.0138486)
(0.00511103 -0.0192505 -0.0128678)
(0.00489934 -0.0194272 -0.00911567)
(0.00687606 -0.0179204 -0.00859825)
(0.00402729 -0.0187523 -0.0117417)
(0.00252337 -0.0195128 -0.011353)
(0.00282426 -0.0177987 -0.0117697)
(0.00197263 -0.0190313 -0.0129725)
(0.00218506 -0.0192618 -0.00842553)
(0.00396343 -0.0192389 -0.00922621)
(0.00182678 -0.019546 -0.00915193)
(0.0022775 -0.0194315 -0.0100065)
(0.0121159 -0.0152809 -0.0110514)
(0.0118888 -0.0150787 -0.0107484)
(0.00635449 -0.0173421 -0.00780103)
(-0.000427317 -0.0175376 -0.00252349)
(0.000172213 -0.0189651 -0.00377841)
(0.000384314 -0.0178099 -0.00323467)
(0.000387141 -0.0176415 -0.00369215)
(0.00131921 -0.017724 -0.0033397)
(0.00175309 -0.0168071 -0.00362311)
(0.000262859 -0.0172987 -0.00271907)
(0.00161562 -0.0165949 -0.00353265)
(0.000425857 -0.0172229 -0.00307553)
(0.00206829 -0.0194104 -0.00791651)
(0.00265214 -0.0180062 -0.00700389)
(0.00424672 -0.0179009 -0.00635781)
(0.00143079 -0.0203513 -0.00725383)
(0.00216411 -0.018629 -0.00639247)
(0.000504006 -0.0178731 -0.00479693)
(0.000764624 -0.0201413 -0.00645212)
(0.000183063 -0.0183439 -0.00512625)
(0.000302768 -0.0192248 -0.0052678)
(0.000415487 -0.0195606 -0.0118554)
(0.00103859 -0.0188712 -0.00890485)
(0.00151524 -0.0201505 -0.01052)
(-0.00060996 -0.0190093 -0.00591668)
(0.00011335 -0.0189423 -0.00724592)
(-0.000214474 -0.0198346 -0.0088995)
(-6.50338e-07 -0.0188816 -0.00658128)
(-0.00141351 -0.0182543 -0.00586961)
(-0.00219689 -0.0199987 -0.00824996)
(-0.00296441 -0.0196413 -0.00882752)
(-0.00208791 -0.0199709 -0.00742443)
(-0.00339101 -0.0187302 -0.0081786)
(0.00630016 -0.0175735 -0.00707303)
(0.00499879 -0.0176767 -0.00635135)
(0.00351605 -0.0192264 -0.00603111)
(0.00364956 -0.0182655 -0.00468916)
(-0.000930128 -0.0178272 -0.00265397)
(-0.0034084 -0.0197599 -0.0048447)
(-0.00111471 -0.0192749 -0.00416167)
(-0.00265805 -0.0189647 -0.00355116)
(-0.00365851 -0.0196957 -0.00394631)
(-0.00336318 -0.018485 -0.00360479)
(-0.00516764 -0.0188023 -0.00315252)
(-0.00324426 -0.0184812 -0.00306145)
(-0.0015441 -0.0176809 -0.00242914)
(-0.00386746 -0.017987 -0.00244194)
(-0.00293985 -0.0185434 -0.00275277)
(-0.00144166 -0.0181495 -0.00251908)
(-0.00145948 -0.0196824 -0.00356932)
(-0.00863966 -0.01784 -0.00789234)
(-0.0056623 -0.0186599 -0.00361827)
(-0.00452378 -0.0185297 -0.0043747)
(-0.0049055 -0.0187621 -0.00495399)
(-0.00527804 -0.0179586 -0.00448292)
(-0.00326135 -0.0173695 -0.0113531)
(-0.00253991 -0.0178692 -0.0105863)
(-0.000984367 -0.019664 -0.0123181)
(-0.00058455 -0.0200614 -0.01241)
(-0.00256419 -0.0191275 -0.0104424)
(-0.00188947 -0.0194569 -0.00975152)
(-0.00290403 -0.0184834 -0.0125938)
(-0.00257148 -0.0182368 -0.0126998)
(-0.00169467 -0.0181035 -0.0132725)
(-0.00233398 -0.0173676 -0.0132856)
(-0.00327191 -0.018301 -0.0117449)
(-0.00317091 -0.0199076 -0.0100769)
(-0.00358005 -0.0180384 -0.00990899)
(-0.00438064 -0.0190582 -0.0114723)
(-0.0030875 -0.0199855 -0.0119574)
(-0.00530054 -0.0191559 -0.00940896)
(-0.00538909 -0.0189453 -0.0103873)
(-0.00190879 -0.0193122 -0.00535438)
(-0.00270669 -0.0199325 -0.00575984)
(-0.00540901 -0.0193599 -0.00850262)
(-0.004464 -0.0193857 -0.00617198)
(-0.00575142 -0.0189247 -0.00704433)
(-0.00589013 -0.0190203 -0.00809331)
(0.00122834 -0.0145111 -0.0107761)
(-0.000247401 -0.0139917 -0.0110699)
(0.00137329 -0.0151833 -0.0118799)
(0.00341731 -0.0150036 -0.00991064)
(0.00259873 -0.0146046 -0.010706)
(0.00526851 -0.0177855 -0.0152557)
(0.0063427 -0.0170155 -0.0140403)
(0.00757325 -0.0177168 -0.0144874)
(0.00322733 -0.0160239 -0.0117982)
(0.00604945 -0.015886 -0.00885867)
(0.00522251 -0.0165891 -0.0103251)
(0.00442105 -0.0160467 -0.0112846)
(0.00371087 -0.0157696 -0.0124751)
(0.00445775 -0.0160677 -0.0122172)
(0.00334183 -0.0158303 -0.0131631)
(0.00476931 -0.0156981 -0.0119656)
(0.00225464 -0.0167533 -0.0136984)
(0.00683988 -0.0178676 -0.0138667)
(0.00366601 -0.0171926 -0.0141097)
(0.0057547 -0.0180312 -0.0142175)
(0.00545213 -0.0179174 -0.0141887)
(0.00848029 -0.0181845 -0.00527444)
(0.00850893 -0.0175288 -0.005272)
(-5.87443e-05 -0.0166926 -0.0139115)
(-0.00125424 -0.0178064 -0.0141392)
(0.00105468 -0.0169533 -0.0142668)
(-0.00424357 -0.016883 -0.011534)
(-0.00343486 -0.0175211 -0.012674)
(-0.000472538 -0.0184719 -0.0123678)
(0.00126692 -0.018117 -0.0130102)
(-0.00173377 -0.0171611 -0.0122595)
(-0.00320217 -0.0135017 -0.0123088)
(-0.00165675 -0.0137334 -0.0119262)
(-0.00569109 -0.0145452 -0.0127411)
(-0.00542748 -0.0154827 -0.0128447)
(-0.00373341 -0.0145774 -0.0121591)
(-0.00419885 -0.0130126 -0.0118715)
(-0.000828246 -0.0152406 -0.0126058)
(0.000442764 -0.014679 -0.0122639)
(-0.00205309 -0.0153638 -0.0127342)
(-0.000984304 -0.0146975 -0.0127816)
(-0.00625995 -0.0194809 -0.00901471)
(-0.00771207 -0.0182373 -0.00788674)
(-0.00520701 -0.0180066 -0.0114505)
(-0.00655737 -0.0185386 -0.00968641)
(-0.00498124 -0.0180993 -0.0103442)
(-0.00631073 -0.0167462 -0.0116177)
(-0.00556015 -0.0173718 -0.0116204)
(-0.00444068 -0.0202613 -0.00701554)
(-0.00483352 -0.01894 -0.00710392)