/*--------------------------------*- C++ -*----------------------------------*\
| =========                 |                                                 |
| \\      /  F ield         | OpenFOAM: The Open Source CFD Toolbox           |
|  \\    /   O peration     | Version:  v1612+                                |
|   \\  /    A nd           | Web:      www.OpenFOAM.com                      |
|    \\/     M anipulation  |                                                 |
\*---------------------------------------------------------------------------*/
FoamFile
{
    version     2.0;
    format      ascii;
    class       surfaceScalarField;
    location    "50";
    object      phi;
}
// * * * * * * * * * * * * * * * * * * * * * * * * * * * * * * * * * * * * * //

dimensions      [0 3 -1 0 0 0 0];

internalField   nonuniform List<scalar> 
37231
(
7.50695e-09
-8.66259e-09
1.04272e-08
1.54257e-09
5.79935e-09
1.1776e-09
-8.51903e-09
1.7686e-09
-1.10916e-08
1.08657e-08
1.18151e-09
-1.0898e-08
8.97408e-09
7.42502e-10
8.97298e-09
2.02723e-09
-9.81862e-09
4.57906e-09
-1.21848e-08
-7.84851e-09
1.54545e-08
8.37188e-09
3.55138e-09
-8.42497e-09
-3.49809e-09
2.4809e-09
6.08077e-09
-1.8968e-10
4.87161e-09
-3.89422e-09
4.82206e-09
-8.36704e-10
-8.29262e-09
1.05462e-08
-6.99409e-10
-6.29536e-09
2.67236e-09
1.03548e-08
6.57544e-10
-3.44112e-09
1.17577e-08
1.23029e-08
2.36412e-09
6.19941e-09
-7.38568e-09
7.06086e-09
-5.53328e-09
-1.35393e-08
1.45774e-08
-4.47916e-09
-1.89934e-09
-8.82984e-10
-5.10235e-09
-4.43632e-09
-2.14079e-08
-2.1129e-08
1.79955e-08
2.45414e-08
2.70295e-09
-2.46592e-08
5.48364e-10
-1.49941e-08
1.64572e-09
1.60516e-08
3.29928e-09
-1.41539e-08
-4.13936e-09
-7.34703e-09
1.51434e-09
9.13212e-09
2.22628e-08
-1.6778e-08
-3.01441e-08
1.89157e-09
-7.57726e-10
-3.51416e-09
2.62623e-08
-4.75256e-09
1.58802e-09
2.40601e-09
-1.13409e-08
5.38725e-09
-1.7953e-08
1.31458e-08
-1.21463e-08
8.92036e-10
1.54651e-08
-5.83346e-09
-1.11592e-09
-1.02747e-08
-7.93452e-09
-1.12311e-08
7.0194e-09
-6.64437e-09
1.13733e-09
-3.93606e-09
9.68745e-09
-6.88881e-09
9.39306e-09
-3.45054e-09
-4.80515e-09
-5.0567e-09
3.68908e-09
-3.37155e-09
4.73915e-09
9.631e-10
-5.89539e-09
-1.24445e-10
3.73678e-09
6.34983e-09
-6.93585e-10
2.07562e-10
4.21376e-09
-8.35728e-09
3.29061e-09
3.35091e-09
-6.4339e-09
5.41096e-09
-5.5708e-09
-3.81932e-09
3.44542e-11
7.47401e-09
7.97872e-10
-3.65417e-09
3.49776e-09
-5.17941e-09
-2.10297e-10
3.36543e-10
9.98692e-10
4.84382e-09
-4.31516e-10
3.66015e-09
6.89495e-10
3.02587e-09
5.55475e-09
-3.14546e-09
6.20585e-09
3.04423e-10
7.46337e-09
-5.07777e-09
5.41126e-09
-7.79688e-09
-2.02482e-09
-3.81916e-09
1.33075e-08
8.20773e-09
-8.14494e-10
-6.59536e-09
-5.19488e-09
1.13779e-08
7.97316e-09
2.68793e-09
-1.57389e-08
-7.73854e-09
1.18926e-08
-9.2928e-09
-2.4933e-09
6.59125e-09
-8.26296e-09
-1.84429e-09
-1.08245e-08
6.31141e-11
2.49838e-09
4.15332e-09
-1.4385e-08
-3.68077e-09
3.15717e-09
8.03055e-09
-1.78145e-10
-3.41435e-10
-6.78714e-10
-3.42072e-09
-6.30213e-10
4.72962e-09
-1.44446e-11
2.49267e-09
-3.26589e-09
-3.32966e-10
-1.69342e-09
-4.60309e-09
5.66611e-09
-6.29898e-09
4.59113e-09
-4.87479e-09
3.49179e-10
-7.74218e-11
-3.21795e-09
1.8565e-09
-3.51341e-09
-3.29113e-09
-5.67483e-09
5.17567e-09
-2.00725e-09
-4.00284e-09
-4.39712e-10
3.70106e-09
-4.6555e-09
-3.48182e-09
-4.304e-10
6.3345e-10
5.37958e-10
-9.08765e-09
-5.16521e-09
-3.55044e-09
8.01638e-09
1.58886e-09
-1.91677e-09
-4.83731e-09
-2.66358e-09
7.02052e-10
3.57726e-09
-6.3469e-09
3.30764e-09
4.83334e-10
5.22703e-09
-1.23312e-08
-2.30772e-09
9.41201e-09
-1.45511e-08
9.0445e-10
1.88734e-08
-1.60548e-08
-1.67673e-08
1.8271e-08
-2.35394e-08
-4.84671e-09
-1.14426e-08
-1.48444e-08
2.74763e-09
-6.37292e-09
7.33984e-09
-1.24094e-08
-7.20875e-09
4.31317e-09
5.87944e-10
1.07722e-09
8.34023e-09
-4.78089e-09
-4.63649e-09
3.59702e-09
-6.29978e-09
6.03471e-09
-3.33205e-09
-9.04967e-09
1.35511e-08
-1.3432e-08
-8.62115e-09
-8.77553e-10
-1.89273e-08
-3.05748e-10
-9.12159e-09
2.94425e-09
5.90755e-09
-3.33399e-09
-5.5174e-09
1.11362e-08
7.22881e-10
-8.91476e-09
-3.93021e-09
-1.18874e-08
6.76794e-09
9.06228e-10
-6.274e-09
7.525e-09
-3.20925e-09
1.95848e-09
-9.52204e-09
2.37075e-09
-6.28549e-09
1.41071e-08
-6.43322e-09
-4.56015e-09
-3.11335e-09
4.65299e-09
6.28647e-09
3.16785e-09
1.61072e-08
-2.10557e-08
-7.82325e-09
-7.11447e-09
8.50467e-09
-1.38826e-08
3.69685e-09
-2.14216e-09
1.38375e-08
3.95284e-09
-1.56482e-08
5.52809e-09
2.75034e-09
-1.04203e-08
2.22821e-08
5.11546e-09
-1.356e-08
-2.21685e-08
8.50538e-09
1.25616e-09
1.24069e-08
1.23058e-08
-1.21921e-08
-6.15006e-09
-6.18583e-09
1.74516e-08
8.94664e-09
-9.56842e-09
-1.11213e-08
1.01335e-08
9.49327e-09
2.67502e-09
-1.49049e-09
1.60042e-08
-2.32007e-08
2.22533e-08
-1.50571e-08
7.31387e-09
9.94659e-09
-4.66896e-09
-1.45787e-08
9.76856e-09
-1.16873e-08
2.42209e-08
-3.24604e-10
-1.64306e-09
2.16325e-08
9.9025e-09
-1.30037e-08
6.88278e-09
4.84473e-09
1.27641e-09
-7.19785e-09
9.83613e-10
-6.78899e-09
5.72334e-09
-3.9744e-09
6.51728e-09
2.85649e-09
-3.65021e-09
-9.32241e-09
1.48959e-08
1.34114e-10
-6.78131e-09
-1.45606e-08
-7.68687e-10
1.50046e-08
1.19009e-08
-4.91162e-09
-6.00549e-09
4.90104e-09
4.24755e-09
-9.70352e-09
-1.07809e-09
-2.86211e-09
-7.00662e-11
-2.41512e-09
-8.28978e-10
-2.176e-09
-9.81007e-10
-1.66542e-10
-2.34729e-09
-2.69072e-09
-1.31194e-09
-2.22934e-09
-1.71232e-09
-1.1554e-09
1.71508e-09
1.17209e-09
-4.15782e-10
-2.47028e-09
-4.38576e-10
4.41709e-10
-1.95195e-10
-4.07525e-09
6.87739e-09
-4.28653e-09
4.14676e-09
-6.73771e-09
6.23076e-09
-1.88171e-10
8.34845e-10
5.33799e-09
-4.84055e-11
9.41343e-10
3.53112e-10
-3.30135e-09
8.2861e-09
4.26054e-09
-7.17706e-10
-7.82922e-09
3.7377e-09
3.34689e-10
-3.31539e-09
-1.57488e-09
5.24347e-09
-3.75048e-09
3.86739e-10
-4.66391e-10
4.53877e-10
4.57886e-09
5.16058e-09
-4.12103e-09
-5.61822e-09
3.69266e-09
4.19903e-10
1.10705e-08
-2.10161e-09
-4.82225e-09
-2.23778e-09
1.00071e-08
2.80378e-09
8.70875e-09
-1.37502e-08
-8.04902e-09
6.35079e-09
5.39099e-09
-3.48396e-09
5.95559e-10
3.66151e-09
-8.50023e-09
-6.3646e-09
7.92449e-09
7.57977e-09
1.20133e-08
-9.63097e-09
6.01552e-10
-2.98394e-09
1.86931e-09
8.86064e-10
9.2578e-09
1.51039e-09
-9.68122e-09
-1.46003e-09
1.02643e-08
-9.30949e-09
5.55592e-10
-7.12761e-09
2.05922e-09
6.93765e-09
-5.10811e-09
-1.41798e-09
2.17261e-09
8.97811e-09
8.3101e-11
-2.15744e-10
-9.54845e-09
-1.46831e-10
-9.07951e-09
5.7232e-09
4.77201e-11
-5.98666e-09
7.01429e-10
-3.53788e-10
4.3503e-09
-4.69782e-09
6.9239e-09
-6.36932e-09
5.50884e-10
6.41473e-11
7.56988e-10
-3.72366e-09
5.02592e-09
-4.31366e-09
7.24325e-09
3.4011e-09
-3.70715e-09
-3.76964e-09
6.37991e-09
3.22536e-10
2.58067e-10
-3.45595e-09
2.83106e-10
2.67715e-10
1.10538e-08
7.52859e-09
-6.19565e-09
-1.23866e-08
-4.52559e-09
5.4387e-09
1.01409e-08
8.54814e-10
2.14834e-09
5.58822e-09
2.15271e-10
-4.94838e-09
4.20959e-09
5.38003e-09
-4.00134e-09
-2.28701e-09
1.47717e-09
-8.83041e-09
9.64039e-09
7.72285e-10
5.81944e-09
-8.87845e-09
9.31582e-10
2.08975e-09
-7.2497e-09
4.22872e-09
-1.96546e-09
-2.25355e-09
5.69631e-09
4.2457e-09
-4.46839e-09
6.54747e-09
-1.09093e-08
-2.32483e-09
4.86149e-09
-5.00288e-09
2.46643e-09
-7.83291e-09
2.56891e-09
3.0815e-09
-3.3165e-09
3.86513e-09
-9.01659e-10
1.1826e-10
-4.09807e-09
6.0542e-09
3.74655e-10
1.85965e-11
1.41769e-10
2.77152e-09
-1.84542e-09
9.36685e-10
-1.86289e-09
-2.03555e-09
2.32668e-09
2.47997e-09
2.06896e-09
-1.14463e-09
-2.76968e-09
7.26086e-11
-3.92028e-11
-4.6882e-09
4.03077e-09
-3.93034e-10
1.04973e-09
2.23327e-09
-2.15861e-09
3.16246e-09
-3.237e-09
2.36735e-09
-6.13862e-11
-1.81968e-09
-1.93162e-09
2.01633e-09
-5.31925e-09
-2.94244e-09
3.27672e-09
-4.94182e-10
1.5974e-10
-2.96729e-09
2.39233e-09
-1.07681e-09
1.27229e-09
-4.91424e-09
5.11094e-09
-1.15128e-09
5.3361e-09
-4.71153e-09
5.26858e-10
6.16788e-09
-6.76875e-09
-5.50215e-10
-4.08911e-09
-8.77015e-10
1.59749e-09
3.36889e-09
-7.25263e-09
-6.5368e-09
9.7004e-09
-5.78187e-09
-1.68136e-09
5.16259e-09
2.30081e-09
8.24933e-10
-4.38895e-10
2.77779e-09
3.41277e-09
1.34975e-09
-9.47386e-09
4.83829e-09
-8.19419e-09
1.13352e-08
-1.37464e-08
-1.65543e-09
4.06669e-09
1.46512e-08
-3.14878e-09
-1.67061e-10
7.14875e-09
-1.30515e-08
-1.04196e-08
5.15591e-10
1.07291e-08
-3.40368e-10
-6.25722e-09
-5.92166e-09
-2.29913e-09
1.90557e-09
-2.07676e-09
-2.99131e-10
-1.82287e-09
-1.77349e-10
-2.12226e-09
-4.71805e-11
-4.21031e-09
1.882e-09
8.28398e-10
1.49992e-09
-7.84268e-11
-9.05207e-10
-3.22661e-09
-1.86607e-09
1.62557e-09
-1.94409e-09
-2.21001e-10
3.3574e-10
1.07424e-09
-3.48681e-09
-2.65519e-09
-2.53685e-09
5.14491e-09
5.12356e-09
-3.77934e-09
-1.42236e-09
3.29673e-09
-8.97447e-10
-1.952e-09
2.70715e-09
6.98859e-10
-4.10765e-09
7.02187e-10
9.15465e-10
-1.03121e-09
2.82307e-09
-4.11776e-09
1.91669e-09
6.91583e-11
-3.27114e-09
-2.21527e-09
2.01671e-09
-9.26191e-09
6.80831e-09
4.04403e-09
-1.59018e-09
5.07127e-09
-7.34925e-09
-6.98374e-09
4.24735e-09
-5.39547e-09
2.27418e-09
-1.12607e-09
-4.08142e-09
5.15086e-09
3.1779e-09
-4.32538e-09
6.45135e-09
4.6824e-09
5.91334e-10
1.5466e-10
5.08869e-10
-9.7932e-09
1.93522e-09
1.14557e-08
-6.68715e-10
-7.43068e-09
-3.35618e-09
8.70165e-09
9.34831e-09
-6.59426e-09
6.89186e-09
-7.74504e-09
9.55488e-09
-4.45429e-10
-5.49714e-09
5.4713e-10
-4.39926e-09
-1.27519e-10
-4.24576e-09
4.37824e-10
4.84386e-09
-5.00367e-09
-8.52067e-10
4.30386e-10
9.76999e-09
5.4494e-09
-4.85129e-09
-8.99783e-10
-1.40443e-08
2.74583e-09
4.567e-09
6.73135e-09
-1.69913e-09
-7.85562e-10
-1.15598e-08
7.65581e-10
4.65338e-09
-4.35213e-10
-4.98356e-09
4.57783e-09
-4.21391e-09
4.01798e-10
8.54883e-09
-9.31708e-09
-9.30888e-10
8.11393e-09
-7.50154e-09
-1.39799e-09
8.07033e-09
4.25796e-09
-4.21449e-09
4.84012e-09
5.97619e-09
-1.56929e-08
9.01642e-09
1.12435e-08
6.08757e-09
-1.32316e-08
5.65898e-10
3.54325e-09
4.68788e-10
-4.27719e-09
6.31493e-09
2.8025e-09
5.4678e-10
7.73606e-10
-1.39243e-09
5.27244e-09
-8.55585e-09
1.43145e-08
3.25788e-09
-1.69468e-09
-6.44073e-10
8.11325e-09
-8.19349e-09
7.24378e-10
-3.96802e-09
3.46098e-09
-1.36904e-10
1.75795e-09
-2.15863e-09
8.5139e-09
-3.28516e-10
-1.09135e-08
3.04862e-09
1.35471e-09
-5.65115e-09
-4.16695e-09
2.01269e-10
5.72365e-09
-9.05734e-10
1.99915e-10
8.22228e-10
1.12789e-08
-1.42598e-08
-3.2045e-09
4.95246e-09
-4.9273e-09
3.17966e-09
-4.10033e-09
-9.60418e-12
-1.59613e-09
6.74989e-09
9.69999e-09
-1.98131e-09
-6.76514e-09
-9.53433e-10
8.92606e-09
-2.9661e-09
-3.94228e-09
-5.7117e-09
8.93521e-09
1.68727e-08
-1.14646e-08
-1.43434e-08
-1.3554e-08
2.80327e-08
-5.54343e-09
-9.06488e-09
1.20434e-08
-1.65325e-08
4.67464e-09
7.4705e-09
-2.12097e-08
-1.59698e-08
1.68458e-08
1.59968e-08
1.66747e-08
-4.61185e-09
-1.4786e-08
7.99631e-09
2.17126e-09
9.08467e-09
-3.78547e-09
1.60372e-08
-1.82262e-09
5.5097e-09
-2.28645e-09
1.34513e-08
1.55553e-09
2.08e-08
9.9195e-09
3.83124e-09
-2.79522e-09
8.76239e-10
1.10038e-08
1.59173e-08
-1.08458e-08
-3.51571e-09
4.11673e-09
-5.45764e-09
4.31065e-09
-2.97068e-09
-5.99295e-09
1.77742e-09
8.33155e-09
-3.45822e-09
-2.50249e-09
-3.31367e-11
-2.4669e-09
6.02237e-09
-7.28491e-09
3.72868e-09
-6.21598e-09
2.90513e-10
-2.65775e-09
1.0457e-08
-6.1178e-09
-1.84286e-09
-1.28922e-09
-1.86022e-09
-4.13543e-09
-2.52025e-09
-4.98507e-09
1.19313e-08
4.08244e-09
-4.4595e-09
-1.1556e-08
-6.38457e-09
1.56571e-08
-1.30186e-09
-1.00089e-09
-7.05093e-10
5.15703e-09
-1.41489e-10
-3.98114e-09
-2.91996e-10
3.11701e-09
-1.99864e-09
-3.63891e-09
-2.45298e-09
-5.47989e-10
-2.72993e-09
-3.70431e-09
1.4596e-09
-6.18845e-09
-4.86017e-09
-5.98066e-10
5.18579e-09
-4.06297e-09
-5.24858e-10
5.52626e-09
-5.33315e-09
-7.91158e-10
-1.01667e-08
1.52599e-09
-8.34234e-10
9.4751e-09
-1.99066e-10
-5.11435e-09
-4.85315e-09
9.88983e-10
6.06324e-09
-1.17028e-08
4.48328e-10
-6.66162e-09
-5.24024e-09
-3.84909e-09
-6.59844e-09
4.71678e-09
-7.55804e-10
1.22449e-09
1.35705e-11
5.69236e-09
-7.61431e-10
-5.13405e-09
5.90898e-09
-1.03263e-08
1.00131e-08
4.78179e-09
-3.55781e-09
-7.88541e-09
-1.97906e-09
-3.56524e-09
-3.1066e-09
4.6151e-09
-5.57137e-09
-1.05135e-08
6.27212e-09
-3.63607e-09
3.82392e-10
1.18535e-08
2.06569e-08
-1.02935e-08
-2.22167e-08
2.48084e-08
-2.63439e-09
-1.03204e-08
-8.34167e-09
2.10144e-08
1.21358e-08
3.05037e-08
5.02432e-09
-1.48711e-08
1.5703e-08
6.45912e-09
-1.22661e-08
1.90689e-08
-9.43724e-09
-1.70113e-08
1.74097e-08
1.53046e-08
-7.2347e-09
-4.7523e-09
3.29612e-09
8.49104e-09
-2.20807e-08
1.06056e-08
-1.95756e-08
-1.74617e-08
-1.89242e-09
7.23507e-09
1.21194e-08
1.02231e-08
-8.61579e-09
6.07341e-09
1.30488e-08
-2.16518e-09
-7.98783e-09
2.07586e-08
1.64397e-08
-1.01139e-08
-2.90122e-08
8.30191e-09
2.79455e-08
-4.12809e-09
-1.46611e-08
-2.69144e-08
1.92746e-12
3.52146e-08
-4.48526e-09
1.23709e-09
-2.36661e-08
4.40426e-09
1.9079e-08
1.65088e-08
-7.30366e-09
1.44516e-08
-2.4279e-09
1.88578e-08
-3.28927e-09
8.03963e-09
3.96482e-09
4.06701e-09
4.49462e-09
5.39085e-09
1.7205e-08
-2.98125e-09
-1.0941e-09
9.46577e-09
-6.38744e-09
1.6421e-10
3.24225e-09
6.38381e-09
-3.27765e-09
1.27113e-08
5.88671e-09
8.36073e-09
-1.36205e-08
-6.26513e-10
-6.91199e-09
5.41314e-09
6.7819e-10
2.14943e-09
-1.23669e-08
4.68328e-09
7.71927e-10
5.2151e-09
-7.87202e-09
-1.09632e-08
-6.45186e-09
-6.99675e-10
-1.09861e-08
3.37178e-09
-6.99442e-09
3.15871e-09
5.97157e-09
9.741e-09
-2.3584e-08
8.86888e-09
-9.34911e-09
-1.40184e-08
5.316e-09
5.82442e-09
2.87829e-09
1.63696e-08
-2.06469e-08
1.06995e-08
6.68015e-09
-4.80554e-09
1.413e-09
2.97879e-09
-3.84663e-09
-3.75783e-09
4.62544e-09
7.7085e-09
-1.95686e-09
1.59385e-09
-7.34545e-09
5.28349e-09
3.55406e-09
-1.12899e-09
-6.52877e-10
-5.72786e-09
4.42386e-09
-2.26323e-09
4.48601e-09
2.10546e-09
-4.32845e-09
1.02131e-09
-3.05999e-10
-1.38403e-09
4.68047e-10
-2.826e-09
3.74197e-09
-2.02106e-10
-5.02853e-09
6.16548e-09
-4.10362e-09
2.31336e-09
-3.16835e-09
-2.69109e-09
2.52679e-09
2.39815e-09
-2.23386e-09
-1.14483e-09
-1.3629e-09
-1.83335e-10
7.62637e-10
1.06522e-09
2.65821e-09
9.72652e-10
3.44313e-09
1.74967e-09
3.67999e-09
2.57611e-09
5.38025e-09
1.63988e-09
-3.577e-09
8.99696e-10
5.24312e-09
-1.42379e-09
2.60939e-09
-1.64289e-10
-2.55239e-10
1.15653e-09
2.51768e-09
-3.32274e-10
4.91185e-09
3.35102e-09
1.3077e-08
-6.7548e-09
1.16527e-08
-1.79744e-08
1.06362e-09
4.80521e-10
1.15332e-08
1.75233e-09
4.6878e-09
-1.31942e-08
4.13225e-09
5.2859e-09
-7.66537e-09
1.67429e-09
-2.25652e-09
1.2235e-08
1.25263e-09
7.37817e-09
-3.94192e-09
6.04035e-09
-6.55449e-10
7.53143e-09
-5.71067e-10
1.04501e-08
4.45012e-10
-3.36343e-09
4.09993e-09
4.80456e-09
1.54551e-09
7.31857e-09
1.12339e-09
1.09225e-08
-1.63158e-10
-3.44077e-09
4.22852e-09
-1.89385e-09
8.58788e-09
1.32269e-08
-9.2903e-09
-1.91639e-09
8.40181e-09
1.16554e-08
-1.39865e-09
-1.20258e-08
1.76917e-09
1.82689e-08
1.58715e-08
-9.16096e-09
-2.49792e-08
-1.74499e-08
-7.79078e-09
1.76506e-08
7.59012e-09
-3.81153e-09
4.63047e-09
-1.19289e-08
6.0951e-09
-8.94682e-09
1.47807e-08
-1.05206e-08
1.02472e-08
1.32265e-08
-1.85748e-08
3.9498e-09
-4.34336e-09
2.36651e-08
6.41298e-09
1.43777e-08
-8.08627e-09
-1.27041e-08
-4.50368e-09
-8.11791e-09
1.55001e-09
1.10713e-08
1.05825e-08
-2.50143e-09
1.8118e-08
-1.12248e-09
2.44256e-09
1.7553e-08
-2.34473e-09
2.00529e-08
5.07884e-10
-3.09441e-09
-1.58346e-08
3.54288e-10
1.86906e-08
-1.73202e-09
-6.56229e-09
-9.38016e-09
6.99577e-09
-2.08508e-08
3.76783e-09
-1.42416e-08
2.85889e-08
1.80202e-09
-3.25881e-09
1.27372e-08
-6.68578e-10
-1.02665e-08
2.34778e-09
-1.43974e-08
-8.80097e-09
-5.04423e-09
-1.98812e-09
-8.87895e-09
1.21905e-08
-1.36861e-08
-1.28266e-08
-1.09657e-09
-2.69701e-08
2.94534e-09
1.99508e-08
4.07467e-09
-6.76421e-11
-4.87855e-09
-2.20232e-08
-2.38456e-08
2.00854e-08
6.70614e-09
-3.83744e-09
-2.00753e-08
-2.11961e-10
-5.24865e-09
2.55464e-08
1.05943e-08
2.46656e-08
-2.75456e-08
-7.71436e-09
2.63031e-08
-2.11724e-08
5.46381e-09
1.9944e-08
-1.20936e-08
1.21006e-08
-5.59166e-09
2.53236e-08
2.47095e-09
3.3853e-09
1.88095e-08
2.35256e-08
3.07723e-09
2.5463e-09
-3.31686e-08
-2.19324e-08
-6.10084e-09
1.96777e-08
-1.84552e-08
2.47311e-08
-2.82856e-08
3.91149e-09
3.67267e-09
2.0537e-08
8.1056e-09
1.83306e-08
-1.5807e-08
2.66312e-08
-1.79092e-08
7.08524e-09
-9.03697e-09
5.74283e-09
-1.25125e-08
1.54836e-08
1.69795e-09
-8.6183e-09
-8.56314e-09
-1.7112e-09
1.26729e-08
4.52234e-09
-1.46352e-08
3.88725e-09
6.54954e-09
-1.1811e-08
-1.27618e-08
1.80233e-08
-4.57638e-09
-3.50923e-09
-1.70355e-08
1.93019e-08
1.04067e-08
1.94755e-08
-7.83308e-09
-9.94394e-09
6.51479e-09
7.42776e-09
-1.48712e-10
-1.90899e-08
-5.76697e-09
-1.03499e-08
-1.95061e-08
-2.89538e-08
-3.99717e-09
3.99195e-09
-6.88298e-09
6.88853e-09
-7.5155e-09
3.53311e-09
-1.49499e-11
2.49984e-09
-7.98597e-09
-2.02936e-09
-8.02063e-09
9.03906e-09
-1.24123e-09
2.23181e-10
3.57187e-09
-4.69261e-09
1.37672e-08
-1.26471e-08
-1.97847e-10
8.42437e-09
-4.65479e-09
-1.17394e-08
-9.7396e-10
-6.47361e-09
6.48884e-09
3.51794e-09
-4.17163e-09
-2.73143e-09
9.53127e-09
2.23914e-09
6.14668e-10
1.04211e-08
2.41054e-09
6.62848e-09
6.81096e-09
2.08861e-09
-6.79599e-09
6.30938e-09
1.49579e-10
3.37122e-10
6.44699e-09
-9.77142e-09
-3.47144e-09
-1.29268e-09
-2.73884e-09
-3.87667e-09
7.90827e-09
-1.48863e-09
-7.88508e-10
8.72412e-09
9.87216e-09
-5.33195e-09
-5.83298e-09
3.83249e-09
4.80892e-09
1.23079e-09
-5.5346e-09
-6.9756e-09
3.33675e-09
5.74717e-09
-5.2515e-09
-1.08781e-09
1.23415e-08
-7.9171e-09
-8.16597e-09
1.17657e-08
-4.6876e-09
-1.51349e-09
-8.14105e-09
-4.03488e-09
1.08807e-08
-1.21777e-08
-1.97094e-08
3.87111e-09
1.18035e-08
4.40283e-09
-6.21108e-09
1.26889e-08
-1.31307e-08
-8.71722e-10
1.84053e-08
-1.12251e-08
-3.46393e-10
-6.06143e-10
-1.43043e-08
-1.66302e-08
-9.0456e-09
7.38216e-09
-1.86756e-09
5.40427e-10
1.14978e-08
-4.99131e-09
-1.23213e-08
5.81489e-09
1.11713e-08
-1.30955e-09
1.6362e-09
1.24808e-08
-9.97192e-09
-1.70173e-09
-8.07157e-10
1.64115e-09
1.23896e-08
-1.54988e-09
6.3704e-09
-1.12345e-08
-1.27056e-10
-1.70343e-08
1.69909e-08
-9.92845e-09
-2.76259e-10
-2.63307e-09
-7.7629e-09
5.05448e-09
9.07891e-09
7.29294e-09
-7.67255e-09
-1.32202e-09
8.19368e-09
7.40507e-10
-1.56432e-09
-8.66019e-09
2.55193e-09
-9.83554e-09
5.08439e-10
-2.61806e-09
-8.89264e-09
1.77829e-09
-1.14046e-08
9.66219e-10
-1.06752e-08
-1.26335e-08
2.19297e-08
-1.27353e-08
3.43923e-09
1.0444e-08
-1.45221e-08
-8.55542e-09
-2.06904e-09
1.91081e-08
4.8906e-09
7.61653e-09
7.58456e-10
-1.50855e-08
1.19341e-08
-9.5838e-09
-2.97635e-09
-2.47269e-09
9.69486e-09
1.1886e-08
3.29903e-09
-1.20713e-08
1.14603e-08
-2.68784e-09
-2.85384e-09
8.84549e-09
-2.69258e-09
4.61919e-09
4.84232e-09
-1.12465e-08
1.80875e-08
-4.92129e-09
1.29134e-09
-1.87403e-08
1.65494e-09
3.85448e-10
1.67001e-08
-1.29092e-08
-1.88932e-08
1.30621e-08
-1.54188e-08
-8.2433e-09
1.1591e-08
-1.33388e-08
-4.25062e-10
1.48913e-08
-1.24129e-08
-1.58171e-08
1.72673e-09
-2.82984e-08
-3.21196e-10
-5.226e-09
1.20798e-09
4.33916e-09
-6.69976e-09
1.29157e-09
5.08715e-09
4.08284e-09
6.25125e-09
-5.77094e-09
-4.56302e-09
-5.61718e-10
4.75428e-09
-1.09607e-10
5.66175e-10
-6.08045e-09
-1.18539e-09
-4.44094e-09
-2.18781e-10
-4.77695e-09
-2.25549e-10
-4.88145e-09
6.77403e-10
5.41202e-09
-4.68257e-09
4.55543e-09
9.08734e-10
6.59878e-10
3.24315e-09
8.68795e-10
-9.88268e-09
3.56365e-09
-5.0974e-09
3.48659e-09
-1.2293e-08
1.00978e-08
-8.18547e-09
1.23493e-08
4.82471e-09
8.63038e-09
-1.25863e-08
1.43408e-08
-1.25044e-08
2.98821e-09
-2.90484e-09
3.88002e-10
-1.06269e-08
3.35027e-09
5.12564e-09
1.20967e-08
-2.88163e-09
3.12918e-09
7.46407e-09
-7.66044e-09
-5.31837e-09
3.68051e-09
6.76707e-09
-5.12942e-09
-1.22774e-08
4.3611e-09
2.5979e-09
1.64982e-09
-4.38079e-09
7.3219e-09
8.96494e-09
-5.17179e-09
-2.14338e-09
-5.78602e-09
-4.53391e-09
-1.42901e-10
1.04626e-08
-4.13555e-10
-1.69213e-09
4.23956e-09
1.27435e-08
-8.01812e-09
-4.07728e-09
6.31047e-09
5.19387e-10
-2.51666e-11
-3.28845e-09
7.38512e-09
4.08791e-09
-6.72463e-09
-9.72753e-10
9.83271e-10
4.93838e-09
3.10619e-10
6.77231e-10
-5.02658e-09
6.6739e-09
1.74453e-09
-3.39176e-09
7.23936e-09
-4.19973e-09
-6.14091e-09
7.86353e-09
4.95131e-09
1.03405e-09
6.43788e-11
8.51999e-09
-6.50619e-09
4.68233e-09
9.27501e-09
2.78971e-10
2.71197e-09
-6.40286e-09
1.6987e-08
-5.07184e-09
9.52837e-09
6.9812e-10
1.38385e-08
-4.28993e-09
-4.86609e-09
3.4465e-09
-1.04799e-09
1.144e-08
2.17779e-09
1.05438e-08
9.5191e-09
-1.52237e-08
1.85061e-08
-1.3277e-08
1.32476e-08
4.21055e-09
1.14177e-08
-1.37621e-09
-2.0058e-08
-5.89804e-09
5.03382e-09
2.09227e-08
-1.03854e-08
-1.10957e-09
-8.56272e-09
-9.75845e-09
-3.44789e-11
3.89527e-09
-4.74792e-09
-1.53958e-08
-5.1376e-10
4.15749e-09
5.31399e-09
-8.95755e-09
8.4179e-09
-3.83562e-09
-5.69171e-09
-7.66385e-09
5.73987e-09
1.88961e-09
-5.79795e-09
-5.12977e-09
3.26405e-09
-1.42617e-08
3.71598e-09
-3.65619e-09
-6.79729e-09
1.54875e-08
-3.49823e-09
-8.50246e-09
-2.41155e-09
1.44122e-08
-1.92619e-09
-7.01188e-09
5.43987e-09
9.22041e-09
-7.38509e-09
1.23253e-09
-3.06793e-09
-1.31223e-08
1.38402e-08
-3.10894e-09
-7.41062e-09
8.10802e-09
-6.66171e-09
1.62656e-09
1.10789e-08
-2.9989e-09
2.03162e-09
-4.07507e-09
-4.82244e-09
-9.56819e-10
-5.06665e-09
-3.12428e-10
2.164e-09
-1.04853e-09
-6.18213e-09
-6.90093e-09
2.40321e-09
1.5272e-09
-1.62258e-09
-4.72703e-09
3.76031e-10
-5.74975e-09
6.78595e-09
2.72381e-10
-1.04066e-08
3.34827e-09
8.58442e-09
4.58606e-09
-9.39168e-09
-3.77882e-09
6.18273e-09
-2.94709e-09
-6.27534e-09
3.03971e-09
-6.59944e-10
5.95205e-09
1.12401e-09
-6.41627e-09
5.16657e-09
3.56159e-10
-8.82753e-09
1.35161e-08
-6.26918e-10
-4.06149e-09
8.42455e-09
-1.0466e-08
-5.54011e-09
6.00693e-09
5.48525e-09
-7.99681e-10
4.26223e-10
4.7403e-09
-7.4149e-09
-9.55517e-09
1.01156e-08
1.29558e-08
1.68393e-09
-2.81444e-09
1.37561e-09
-9.31188e-10
8.13999e-09
-9.24245e-10
8.30674e-09
3.6166e-09
5.94133e-09
-4.81754e-09
7.90632e-09
-2.60581e-09
1.53986e-09
7.64459e-09
-7.20427e-09
7.81994e-09
-4.77207e-09
5.47422e-09
3.69715e-10
1.55407e-10
-3.07058e-09
-3.27481e-09
6.19054e-09
-5.052e-09
9.75223e-09
-4.54452e-09
-9.14053e-09
1.01803e-09
-4.25178e-10
-9.91557e-09
3.92118e-09
6.41986e-09
-6.09213e-09
3.31544e-09
2.35188e-09
-9.62834e-09
-6.37931e-09
-5.86579e-09
-6.32264e-09
3.04809e-09
-8.90378e-09
8.30643e-09
-5.26838e-09
-7.33782e-09
7.98428e-09
-8.36596e-09
-5.29442e-09
-8.22013e-09
-1.40874e-09
5.09628e-10
9.1193e-09
-6.96931e-09
2.2849e-10
-1.47918e-09
-5.61183e-10
-7.48596e-09
1.07794e-09
-5.08165e-09
4.38179e-09
1.38757e-10
8.93233e-09
-7.15657e-10
-7.9881e-09
-2.01772e-09
9.54149e-09
-2.58902e-09
2.38436e-09
-4.87686e-09
-2.10106e-10
-9.86467e-09
-5.20728e-09
-2.18808e-10
5.93575e-09
-1.1367e-09
3.11312e-10
-4.19388e-09
-1.00527e-08
9.21069e-09
5.03612e-09
-5.4426e-09
1.12072e-10
-1.02465e-09
1.19973e-08
-1.29901e-08
1.64287e-09
-7.99563e-09
6.14297e-09
3.16304e-09
-6.53012e-09
5.01056e-09
1.98865e-09
-5.04689e-09
-1.06456e-09
-6.99933e-09
-8.20152e-10
9.81212e-09
-1.38828e-08
1.20382e-08
-1.17842e-08
6.78555e-09
-5.37102e-09
-6.46889e-09
5.05437e-09
-2.5851e-09
1.38039e-10
9.2326e-09
-1.22443e-08
1.16975e-09
2.45347e-09
-1.21263e-08
-1.90452e-08
-3.50215e-09
-5.76543e-09
4.71567e-09
-2.45233e-09
-7.52981e-09
7.08503e-09
-2.14016e-09
-8.34068e-10
-1.20667e-08
-2.24823e-08
2.48952e-09
3.05473e-09
-3.96348e-09
3.9505e-09
-3.04118e-09
5.86101e-09
-6.2674e-09
5.00697e-09
-4.59984e-09
2.05671e-10
4.32669e-09
-4.88669e-10
-4.0436e-09
6.44473e-09
-3.78069e-10
-5.46573e-09
-2.2667e-09
1.33074e-10
7.59924e-09
-5.29501e-09
-3.95035e-10
2.24311e-10
-3.5592e-10
-1.88433e-09
1.13776e-11
4.12813e-09
-6.40616e-09
-2.8311e-09
1.58218e-09
5.57546e-09
3.62497e-09
-3.06593e-09
4.78112e-09
-3.42204e-09
-3.88972e-11
-1.28831e-09
-2.48962e-09
-8.01154e-10
-8.93513e-09
-1.60969e-09
1.13463e-08
-1.17e-08
1.08202e-08
9.99509e-09
-9.11522e-09
1.82974e-09
-7.97937e-09
-5.55028e-09
-3.84926e-09
-8.06106e-09
9.21392e-09
2.69637e-09
-8.19272e-09
4.30061e-09
4.30316e-11
8.80298e-10
6.5374e-10
7.17209e-09
-8.70582e-09
1.64977e-09
9.78082e-09
-1.05502e-08
-1.28901e-09
-1.56366e-09
-1.0926e-08
1.37787e-08
-7.5144e-09
-1.83564e-09
-8.50469e-09
-7.20263e-09
1.61492e-10
1.23085e-08
8.03114e-09
-1.09282e-09
-5.10871e-09
-8.60919e-09
8.54188e-09
8.09853e-09
2.28742e-09
7.58027e-09
4.12038e-09
-1.0803e-08
-1.82215e-09
-6.39406e-09
-2.64477e-09
4.29644e-10
-2.62507e-09
-4.86175e-09
-7.92077e-09
2.21015e-09
7.99813e-09
-4.00421e-09
3.84105e-10
6.85086e-09
-5.35559e-09
2.01862e-10
1.11387e-08
6.77348e-09
-4.25846e-09
-1.36537e-08
1.98932e-08
2.16139e-09
-1.09158e-08
9.13926e-09
-9.52401e-09
1.18451e-08
1.88536e-09
-1.83648e-08
1.68649e-08
1.53005e-08
-2.90466e-09
1.88175e-08
-3.90757e-09
7.91789e-09
1.21675e-08
-1.61777e-08
6.85153e-09
-1.50176e-08
-9.52915e-10
3.02006e-09
1.21091e-08
1.2582e-09
1.93337e-09
-8.69803e-09
1.37114e-08
2.4582e-09
-1.1912e-08
-5.05368e-10
2.33638e-09
1.0081e-08
9.33783e-11
-9.72463e-09
-2.28062e-09
9.23188e-09
-1.60448e-09
-7.53403e-09
7.36674e-09
1.35973e-09
-1.1663e-08
-6.12462e-09
1.59105e-08
1.87709e-09
-6.91759e-09
2.62138e-09
-1.16904e-08
-1.87779e-09
-1.17684e-08
-6.83962e-09
1.62829e-09
-1.63175e-08
1.32328e-08
1.45659e-09
-1.17445e-08
-1.5699e-08
7.28451e-09
2.11582e-09
4.27253e-09
-4.48406e-09
-1.90453e-09
3.52334e-09
-1.32394e-09
-8.38567e-11
6.20023e-09
-6.16617e-10
-1.31118e-09
6.53889e-09
3.18443e-09
1.08296e-09
-2.96007e-09
-3.37236e-09
5.24939e-09
-2.60105e-09
-4.04676e-09
7.73163e-09
-4.87315e-09
-1.68094e-09
3.59425e-09
-2.40052e-09
-4.60443e-09
2.13175e-09
1.77194e-09
-3.99294e-09
-1.79712e-10
-6.1425e-09
1.86084e-09
-8.04488e-09
-8.04204e-09
9.94406e-09
-1.64808e-09
-1.51028e-09
3.74065e-09
-5.82378e-10
1.61199e-09
-2.81665e-09
-1.19592e-10
-6.51588e-09
9.00777e-09
-5.09168e-09
-2.04078e-09
1.15377e-11
1.39621e-09
-4.94582e-09
-4.43386e-10
1.09599e-09
-4.30442e-09
-7.5281e-10
-6.19599e-09
-1.81892e-09
-6.97581e-09
-1.71055e-09
-5.19997e-09
-5.71401e-09
-4.80615e-10
3.28999e-09
1.04452e-09
-1.37072e-08
9.37248e-09
1.58903e-09
-1.00241e-08
1.17251e-08
-8.78654e-09
7.25318e-09
-5.08805e-09
6.62167e-09
3.19133e-09
-8.74857e-09
-3.22919e-09
2.44162e-09
5.85594e-09
-3.98374e-09
8.01447e-09
-8.59341e-09
-1.92248e-09
6.18795e-09
-5.42253e-09
-9.51384e-09
6.87012e-10
4.12961e-10
-8.35913e-09
-7.52867e-09
5.86372e-09
-6.57613e-09
-1.03764e-08
4.41018e-09
-4.00186e-09
2.78819e-10
-4.86053e-09
5.28706e-09
8.24652e-10
1.80556e-09
-1.01588e-08
2.30617e-09
-9.28297e-09
1.55435e-09
5.34599e-09
2.48334e-09
-5.5231e-09
9.76465e-10
3.6778e-10
-6.01317e-09
1.97745e-09
6.51968e-09
-4.00938e-09
-2.6865e-11
1.48304e-09
3.34692e-09
-2.27357e-09
-4.43415e-09
8.79586e-10
-2.82982e-09
-4.80665e-09
-4.51158e-09
-1.2118e-09
-1.02257e-08
6.63098e-09
1.30081e-08
-6.48746e-09
-3.63687e-09
-2.88346e-09
-5.84821e-09
2.91239e-09
-6.3976e-09
-9.4682e-10
-3.24404e-09
-2.42895e-10
-3.45299e-09
-2.11193e-09
-4.07884e-09
-3.21011e-10
5.88039e-09
-4.66419e-09
-7.70348e-09
-4.63114e-09
2.85976e-10
-7.52055e-09
-7.35085e-10
-5.73665e-09
-5.42073e-09
-4.53783e-09
5.94026e-10
-1.04887e-10
-5.15293e-09
-4.41076e-10
-4.70166e-09
-6.03197e-09
-3.2108e-09
4.61182e-09
-1.067e-08
-3.06528e-09
-1.1386e-09
-3.34599e-09
4.04373e-09
2.83373e-09
-4.07707e-09
-2.30964e-09
-2.9502e-09
5.54592e-09
-2.90032e-09
-3.65227e-09
4.24304e-09
-3.40358e-09
3.33702e-09
1.79089e-09
2.13858e-09
-2.14166e-09
-1.78818e-09
4.02704e-09
-1.99517e-09
-2.41119e-10
-4.42663e-09
-2.44723e-09
3.26327e-09
3.61042e-09
-1.35656e-09
-3.03257e-09
-3.76469e-11
-1.5533e-09
2.34062e-09
3.23948e-09
1.53934e-10
4.30671e-10
-2.98082e-09
-3.71148e-10
9.44874e-09
-8.1142e-09
-4.36735e-09
2.71803e-09
4.28346e-09
7.44917e-10
4.85896e-09
-5.88952e-09
1.42955e-09
5.03078e-09
-5.70941e-10
2.5442e-09
-6.64414e-09
-4.01451e-09
5.25155e-09
-1.88418e-09
-7.11061e-09
3.74274e-09
4.63011e-09
1.29842e-09
-6.77926e-10
9.06566e-09
-1.89143e-09
3.48493e-09
8.29883e-09
7.29172e-09
-3.06195e-09
-5.99051e-09
1.96455e-09
7.65394e-11
6.22665e-09
7.64503e-09
-1.39483e-08
4.11702e-09
5.03081e-09
-9.07143e-09
1.60265e-08
-1.30987e-08
1.49066e-08
-1.78348e-08
-1.14689e-09
5.0571e-09
1.2116e-08
1.48765e-09
7.9433e-09
-5.31388e-09
-5.38443e-09
-4.01554e-10
-2.03149e-09
1.73393e-08
6.9868e-10
1.09543e-08
-4.00819e-09
7.37703e-09
-1.64766e-09
1.27015e-08
-1.15292e-08
-1.57401e-09
5.81569e-10
2.22611e-08
-1.01414e-08
8.56091e-09
1.24645e-09
9.54664e-09
1.9971e-09
-2.98291e-09
2.12752e-08
-1.11472e-08
-2.68249e-12
-3.58331e-09
-7.82718e-09
-1.95635e-09
9.78056e-09
-1.12978e-08
1.08476e-08
3.02792e-09
-4.78117e-09
5.51343e-09
-3.76007e-09
-1.2466e-09
4.69931e-09
-4.24824e-10
-1.11741e-08
-6.67847e-09
4.40797e-09
1.34445e-08
-9.52601e-09
1.97679e-09
-6.81885e-10
3.7166e-09
6.90873e-10
-3.7256e-09
3.13256e-10
-5.77621e-09
5.88567e-10
-3.72779e-09
4.16356e-09
-1.02431e-09
-3.0409e-09
4.00459e-09
-3.75128e-10
-5.70908e-10
-4.21887e-09
4.7064e-09
4.2118e-09
9.09474e-10
3.85133e-10
-6.58397e-09
8.14979e-10
-7.49168e-09
-8.61818e-09
-9.99495e-10
-2.07259e-09
7.48002e-09
-3.52557e-09
-6.28724e-11
1.08694e-09
3.1394e-09
8.35449e-10
3.1062e-09
4.54233e-09
4.58978e-09
-7.55651e-09
2.31652e-09
3.93443e-09
-5.95763e-09
-2.93546e-10
-4.16263e-09
1.13579e-09
5.34331e-09
-3.38838e-10
-6.21615e-10
-3.20218e-09
-5.38442e-09
6.26996e-09
-2.58748e-09
-1.50388e-09
7.10715e-09
-3.01558e-09
-2.48993e-09
-5.20693e-09
5.10968e-09
1.04964e-09
-1.0407e-08
6.86739e-09
3.35064e-09
-1.20046e-08
-4.37141e-09
-4.37189e-10
-3.98184e-10
-4.15854e-09
1.85714e-09
-3.23066e-10
4.47914e-09
-4.71833e-09
1.72987e-09
-7.82557e-09
-3.85717e-09
-4.82e-09
-3.74948e-09
2.80266e-09
-6.3048e-09
3.58305e-09
-8.07124e-11
7.06788e-09
-4.36066e-09
9.55286e-11
-2.53515e-11
6.05431e-09
-5.81871e-09
-2.0995e-10
6.42701e-09
-6.40493e-09
-4.72786e-11
-6.75127e-10
5.66795e-09
-5.38928e-09
3.96436e-10
-5.58025e-09
4.55527e-09
3.4986e-10
-2.29062e-09
-8.54762e-10
-3.53774e-10
1.70953e-09
3.7791e-09
-5.4109e-09
-7.76821e-11
-3.03747e-09
6.11769e-11
-6.90274e-10
-2.41834e-09
-2.75391e-10
2.55302e-09
-2.86059e-09
-3.82506e-10
2.18774e-09
4.52816e-09
-7.28961e-09
5.73597e-10
6.78919e-09
-5.36393e-09
7.62412e-10
-3.99417e-10
6.59932e-09
-5.98368e-09
-2.16042e-10
6.29698e-09
-6.38081e-09
-3.15454e-10
3.77681e-09
1.26243e-09
1.1172e-10
3.35076e-09
1.59675e-09
-4.89354e-09
-5.39341e-11