/*--------------------------------*- C++ -*----------------------------------*\
| =========                 |                                                 |
| \\      /  F ield         | OpenFOAM: The Open Source CFD Toolbox           |
|  \\    /   O peration     | Version:  v1612+                                |
|   \\  /    A nd           | Web:      www.OpenFOAM.com                      |
|    \\/     M anipulation  |                                                 |
\*---------------------------------------------------------------------------*/
FoamFile
{
    version     2.0;
    format      ascii;
    class       volVectorField;
    location    "50";
    object      wallShearStress;
}
// * * * * * * * * * * * * * * * * * * * * * * * * * * * * * * * * * * * * * //

dimensions      [0 2 -2 0 0 0 0];

internalField   uniform (0 0 0);

boundaryField
{
    WALL
    {
        type            calculated;
        value           nonuniform List<vector> 
1514
(
(-0.00942565 0.0112669 0.00912598)
(-0.00867923 0.0087862 0.00983679)
(-0.0103096 0.0142745 0.0217839)
(-0.0110699 0.0144265 0.0190065)
(-0.00102274 0.00344253 0.00526962)
(-0.000922907 0.00366418 0.00555873)
(-0.0011516 0.00933206 0.00682615)
(-0.00074969 0.00752613 0.00660297)
(-0.000577143 0.00572309 0.00689835)
(-0.000640286 0.00461875 0.00629568)
(-0.00628568 0.0135355 0.0225298)
(-0.00751077 0.0128134 0.0222934)
(-0.00475687 0.0143562 0.0217608)
(-0.00482793 0.0151387 0.0218923)
(-0.000984973 0.00531618 0.00834547)
(-0.000453573 0.00509545 0.0075099)
(-0.00514372 0.00710726 0.0071504)
(-0.00752803 0.00448827 0.016138)
(-0.00583028 0.00508076 0.0171014)
(-0.0114636 0.0131538 0.00758657)
(-0.012782 0.0135984 0.00889931)
(-0.00508494 0.0132046 0.021278)
(-0.00392939 0.0148489 0.0215688)
(-0.000827004 0.0105934 0.0170631)
(-0.00220857 0.00819291 0.0175837)
(-0.00276711 0.0105617 0.0180815)
(-0.00263833 0.0115365 0.0189147)
(-0.000959434 0.012249 0.0165848)
(-0.000816269 0.0116835 0.0166881)
(-0.00333309 0.0151026 0.0200803)
(-0.00224599 0.0154349 0.0187083)
(-0.00386105 0.015291 0.0193792)
(-0.00107827 0.00416134 0.00916762)
(-0.000970851 0.00468809 0.0091909)
(-0.0133683 0.0087064 0.0100304)
(-0.012591 0.0104402 0.00911763)
(-0.0128445 0.00892513 0.00959751)
(-0.0130176 0.0108532 0.00893494)
(-0.012934 0.00999067 0.00978093)
(-0.0129567 0.00850112 0.00953047)
(-0.00578375 0.00645758 0.00735136)
(-0.00535291 0.00585364 0.00742481)
(-0.00625911 0.00680101 0.00758106)
(-0.00465688 0.00493999 0.00678108)
(-0.00495694 0.00522738 0.00703732)
(-0.00566435 0.00596584 0.00731929)
(-0.000647801 0.00995997 0.00923418)
(-0.000924267 0.0102042 0.00900334)
(-0.00114133 0.0113919 0.00861286)
(-0.00041996 0.00950651 0.00890095)
(-0.000441811 0.00909176 0.0090677)
(-0.000789042 0.010809 0.00848663)
(-0.00750447 0.0124973 0.00828755)
(-0.00678519 0.0144265 0.00908405)
(-0.00764508 0.0126739 0.00874809)
(-0.00721589 0.0129621 0.00826035)
(-0.0076383 0.0154693 0.0100192)
(-0.00755132 0.0137279 0.00808234)
(-0.00182504 0.00316878 0.00921576)
(-0.00110749 0.00418304 0.00907185)
(-0.00110904 0.00390774 0.00875336)
(-0.00156716 0.00352233 0.00943507)
(-0.00159864 0.0033523 0.00873618)
(-0.00178702 0.003046 0.00934796)
(-0.0106435 0.0137406 0.00821847)
(-0.0106754 0.0131141 0.00805468)
(-0.0120995 0.0137196 0.00818642)
(-0.0111042 0.0145227 0.00863322)
(-0.00963713 0.0139412 0.00803955)
(-0.00984306 0.0143814 0.00806637)
(-0.00987641 0.0113389 0.00989763)
(-0.0105973 0.0127069 0.0091282)
(-0.0125814 0.0109902 0.0100558)
(-0.0109013 0.0102995 0.00966948)
(-0.0109191 0.0115532 0.00955354)
(-0.0114036 0.0100207 0.00927259)
(-0.00935495 0.00842623 0.0172054)
(-0.00779596 0.00769787 0.0167681)
(-0.00763678 0.00832933 0.0176904)
(-0.0085291 0.0084136 0.0178206)
(-0.00956395 0.00803764 0.0161903)
(-0.00898918 0.00719188 0.0154523)
(-0.00360068 0.0166329 0.0127129)
(-0.00293373 0.0162382 0.0142253)
(-0.00251892 0.0160576 0.0148046)
(-0.00184758 0.0156561 0.014653)
(-0.00222055 0.0158038 0.0145773)
(-0.00366839 0.0171729 0.0146092)
(-0.00367348 0.0126408 0.0199647)
(-0.00361393 0.0124692 0.0195359)
(-0.00366613 0.0134746 0.0201052)
(-0.00271404 0.0148785 0.0201121)
(-0.000708168 0.00490349 0.00656572)
(-0.000599136 0.00600125 0.00687117)
(-0.000540475 0.00500755 0.00685802)
(-0.000432111 0.00539582 0.00679741)
(-0.000718357 0.00465822 0.00669746)
(-0.000350703 0.00612991 0.00716671)
(-0.0023461 0.0117811 0.00783892)
(-0.00225931 0.0129797 0.0069156)
(-0.00150833 0.0102182 0.00696141)
(-0.00144636 0.010785 0.00732786)
(-0.00206074 0.0122997 0.00736138)
(-0.00111331 0.0093058 0.00663876)
(-0.00474285 0.0153324 0.00735404)
(-0.0030965 0.0135968 0.00716869)
(-0.00370562 0.0147837 0.0073667)
(-0.00477787 0.0150314 0.00793064)
(-0.00390429 0.0150353 0.00757254)
(-0.000623961 0.00723171 0.00729924)
(-0.000674523 0.0078859 0.0069554)
(-0.00112808 0.00835783 0.00775342)
(-0.000545621 0.00733417 0.00706928)
(-0.000582256 0.00758204 0.00771803)
(-0.000944758 0.00837607 0.00796085)
(-0.00526733 0.0142563 0.0218021)
(-0.0046514 0.0144649 0.0213745)
(-0.00546092 0.0145772 0.0229688)
(-0.00504403 0.0140334 0.0219525)
(-0.00310731 0.0155921 0.0198277)
(-0.003212 0.0162976 0.0193355)
(-0.00353934 0.0147229 0.0195257)
(-0.00349053 0.015409 0.020591)
(-0.00335588 0.0163798 0.0201313)
(-0.00318703 0.0155902 0.0192858)
(-0.00219468 0.0184289 0.013885)
(-0.00270805 0.0183589 0.0157804)
(-0.00158735 0.0182126 0.0163872)
(-0.00224855 0.0184593 0.0162725)
(-0.00256001 0.0176391 0.016726)
(-0.00220221 0.00220851 0.00964241)
(-0.00261563 0.00209152 0.00984733)
(-0.00236965 0.00203333 0.00976263)
(-0.00145101 0.00807436 0.0183061)
(-0.00214812 0.00706899 0.0183778)
(-0.000834589 0.00896281 0.0172021)
(-0.00137952 0.00728905 0.0176443)
(-0.00107212 0.0088401 0.0181564)
(-0.000556239 0.00982792 0.0173127)
(-0.0113271 0.0155744 0.0174819)
(-0.010054 0.0145475 0.0170348)
(-0.0100779 0.0143614 0.017361)
(-0.0098851 0.0152025 0.0169774)
(-0.00978618 0.0153949 0.015576)
(-0.0103414 0.0149842 0.0159692)
(-0.0111212 0.0146801 0.0139091)
(-0.011234 0.0138607 0.0163151)
(-0.0120505 0.0150213 0.015869)
(-0.0116271 0.0154804 0.0172391)
(-0.0124163 0.0144593 0.0158737)
(-0.0110407 0.0147669 0.0140064)
(-0.0101175 0.0156538 0.0131757)
(-0.0087737 0.0163806 0.0111224)
(-0.00967805 0.0160949 0.0112345)
(-0.00853403 0.015528 0.0117199)
(-0.00984118 0.0152855 0.0129009)
(-0.00931463 0.015777 0.0128964)
(-0.00781453 0.014616 0.0119777)
(-0.00664522 0.013617 0.0110205)
(-0.00730327 0.0132634 0.013777)
(-0.00637124 0.0128086 0.0122252)
(-0.00883021 0.0154007 0.0122501)
(-0.00303117 0.0113538 0.00806606)
(-0.00313848 0.0127956 0.00862561)
(-0.00238567 0.0108281 0.0077889)
(-0.00191214 0.010442 0.00727316)
(-0.00209847 0.0114467 0.00777017)
(-0.00244049 0.0163058 0.0145823)
(-0.00288917 0.0187548 0.0151407)
(-0.00273953 0.0179718 0.0173756)
(-0.00152178 0.016346 0.014733)
(-0.00286045 0.0173972 0.0144774)
(-0.00598625 0.0172795 0.0128493)
(-0.00569976 0.0162771 0.0118283)
(-0.00787415 0.0159785 0.0110187)
(-0.00797511 0.0153839 0.0118991)
(-0.0071736 0.0165249 0.013742)
(-0.00765487 0.016868 0.012635)
(-0.00098125 0.0132765 0.0159033)
(-0.000871583 0.0115173 0.0174512)
(-0.000933288 0.0132218 0.0161946)
(-0.00115028 0.0139551 0.0159972)
(-0.000632552 0.012801 0.0166823)
(-0.000716047 0.0114557 0.0161721)
(-0.00638217 0.00455768 0.00997762)
(-0.00733558 0.00524412 0.010366)
(-0.00725646 0.00583678 0.00982753)
(-0.00628724 0.00508951 0.00958787)
(-0.00567476 0.00449881 0.00937918)
(-0.00829334 0.00624951 0.0107119)
(-0.00469938 0.018691 0.0125993)
(-0.00628506 0.0183217 0.0124585)
(-0.00422244 0.0185489 0.0141033)
(-0.0049472 0.0180205 0.0124115)
(-0.00429221 0.0177914 0.0133316)
(-0.00592975 0.0185315 0.0128803)
(-0.00698617 0.0172691 0.0115031)
(-0.00555335 0.0173684 0.0111647)
(-0.00751968 0.01659 0.0102399)
(-0.00751996 0.0161768 0.0113353)
(-0.00659669 0.0170028 0.0119375)
(-0.00603767 0.0182444 0.0119233)
(-0.00708219 0.0187 0.0127373)
(-0.00690194 0.0174953 0.0126162)
(-0.00469541 0.0172684 0.0131248)
(-0.006247 0.0186929 0.0137251)
(-0.00548977 0.0174302 0.0128311)
(-0.00491105 0.0181037 0.0132594)
(-0.00693224 0.00779919 0.00814463)
(-0.0066529 0.00710721 0.00802579)
(-0.00894792 0.0109552 0.0094986)
(-0.00873411 0.00985468 0.0096125)
(-0.00808731 0.00881109 0.00908836)
(-0.00738665 0.00762504 0.00864146)
(-0.00170557 0.0120933 0.017924)
(-0.00216332 0.0115696 0.0183325)
(-0.00279433 0.0102719 0.0183865)
(-0.00201061 0.0112751 0.0183376)
(-0.00252881 0.00976914 0.0181575)
(-0.00322744 0.00940176 0.0184316)
(-0.00123408 0.0159241 0.0157236)
(-0.0012641 0.0131108 0.0174293)
(-0.00105397 0.0140598 0.0173258)
(-0.0013155 0.0156174 0.0165263)
(-0.00167832 0.015059 0.0169568)
(-0.00159611 0.0137823 0.0173106)
(-0.00146864 0.0153633 0.0183818)
(-0.00132565 0.0159053 0.0180249)
(-0.00129595 0.014896 0.0167902)
(-0.00172085 0.0158513 0.0169487)
(-0.00163391 0.0167407 0.0165485)
(-0.000894355 0.0165548 0.0161852)
(-0.0112907 0.0141831 0.0204819)
(-0.0109259 0.0127803 0.0192114)
(-0.011898 0.0136252 0.0177963)
(-0.0101198 0.0130098 0.0199322)
(-0.0111982 0.012443 0.017541)
(-0.0111509 0.013513 0.0184128)
(-0.00635594 0.011881 0.0205968)
(-0.00594097 0.0124472 0.0210618)
(-0.00740463 0.0122479 0.02141)
(-0.00620071 0.0134984 0.0222662)
(-0.00502842 0.0128938 0.0211653)
(-0.0117586 0.0133796 0.0175149)
(-0.0120647 0.0141613 0.0169259)
(-0.0127903 0.0140032 0.0170192)
(-0.012753 0.0147252 0.0143276)
(-0.0121232 0.0143686 0.0148086)
(-0.0127644 0.0134321 0.0137851)
(-0.00876569 0.0120403 0.0205739)
(-0.00838995 0.0134186 0.0224985)
(-0.00905016 0.0122847 0.0204507)
(-0.00816333 0.0116277 0.0203384)
(-0.00797889 0.0121284 0.0205675)
(-0.00909831 0.0122533 0.0201561)
(-0.0085861 0.010364 0.0185409)
(-0.00881264 0.0110852 0.0189487)
(-0.00844281 0.0109006 0.0200368)
(-0.00677763 0.0105816 0.019047)
(-0.00750134 0.012075 0.0210387)
(-0.0128301 0.0122753 0.0152601)
(-0.0126086 0.0119169 0.0165514)
(-0.0131641 0.0130215 0.0138198)
(-0.0126946 0.0122623 0.0134305)
(-0.0125204 0.010383 0.012099)
(-0.012079 0.0113783 0.0154209)
(-0.0130362 0.0124683 0.0130352)
(-0.0120647 0.00801398 0.0136363)
(-0.0109611 0.00741116 0.0140379)
(-0.0105623 0.00730194 0.015331)
(-0.0114417 0.00790678 0.0136682)
(-0.0107473 0.00702315 0.0138304)
(-0.0104845 0.00711589 0.0149682)
(-0.00535103 0.00824313 0.0179474)
(-0.00551459 0.00861528 0.0177739)
(-0.00438681 0.00946653 0.0182678)
(-0.00387159 0.00959391 0.0180921)
(-0.00622299 0.00787124 0.0176853)
(-0.00505638 0.00899008 0.0185521)
(-0.0126194 0.0104147 0.0138555)
(-0.0119826 0.00922965 0.0141452)
(-0.0119187 0.00876108 0.0129392)
(-0.0111062 0.00887123 0.0154963)
(-0.0118708 0.0100893 0.0144308)
(-0.0118286 0.00903043 0.0149059)
(-0.0135322 0.00770227 0.0110845)
(-0.0135929 0.00990735 0.0108329)
(-0.0132834 0.00951123 0.0111997)
(-0.0135227 0.00891254 0.0111207)
(-0.0131372 0.00778244 0.011056)
(-0.0132738 0.00729354 0.0118702)
(-0.0124017 0.00965319 0.0116097)
(-0.0130307 0.0111357 0.0115112)
(-0.0127797 0.00800159 0.0114847)
(-0.00908506 0.0110403 0.0102656)
(-0.0102122 0.0104487 0.0102561)
(-0.00850649 0.0115291 0.0100586)
(-0.00873297 0.0128893 0.00857471)
(-0.00816398 0.0135791 0.00766048)
(-0.0106777 0.0128529 0.0085882)
(-0.00925526 0.0122686 0.00817134)
(-0.00970817 0.0117779 0.00804966)
(-0.00780704 0.0127027 0.00768562)
(-0.0100398 0.0131351 0.00798737)
(-0.00951684 0.0140423 0.00866096)
(-0.011368 0.0148057 0.00833584)
(-0.00815486 0.0144197 0.00681558)
(-0.0089588 0.0142918 0.00896491)
(-0.00557471 0.00412168 0.017252)
(-0.00421979 0.00504946 0.0183167)
(-0.00317472 0.00584455 0.0178128)
(-0.00490727 0.00459362 0.0171849)
(-0.00392216 0.00541762 0.017713)
(-0.00475656 0.00449413 0.017929)
(-0.0125997 0.00465615 0.012993)
(-0.0111143 0.00375328 0.0141022)
(-0.0117325 0.00403542 0.0148261)
(-0.0130072 0.00489132 0.0126537)
(-0.0123919 0.00451899 0.0136141)
(-0.00890877 0.00325732 0.0160162)
(-0.00757473 0.00350256 0.0169465)
(-0.00699165 0.00339578 0.0170075)
(-0.00759441 0.00282406 0.0164226)
(-0.00897306 0.00291873 0.0162534)
(-0.00982553 0.00294967 0.0153294)
(-0.0103031 0.00493681 0.0139727)
(-0.0115332 0.00610694 0.0132236)
(-0.011936 0.00620106 0.0131108)
(-0.0109432 0.0060353 0.0144224)
(-0.0113669 0.00547821 0.0145229)
(-0.0102266 0.0052818 0.0145078)
(-0.00822634 0.00695969 0.0164826)
(-0.00850078 0.00673212 0.0156429)
(-0.00739965 0.00712452 0.0170377)
(-0.00774377 0.00657727 0.0163999)
(-0.00938841 0.00684698 0.0159193)
(-0.00931016 0.00651208 0.0155933)
(-0.00362209 0.00737139 0.0169599)
(-0.00589234 0.00556422 0.0163689)
(-0.00497904 0.00621656 0.0175188)
(-0.00441179 0.00657748 0.0173843)
(-0.00569044 0.00628346 0.0169862)
(-0.00431067 0.00764517 0.0177581)
(-0.00684253 0.00497279 0.0162374)
(-0.0058608 0.00567833 0.0173332)
(-0.00817393 0.00486698 0.0154076)
(-0.00808066 0.00438756 0.0155423)
(-0.00746334 0.00522577 0.0164441)
(-0.00897525 0.004521 0.0152566)
(-0.00201763 0.00297856 0.00895444)
(-0.00240461 0.00332579 0.00922531)
(-0.00256966 0.00303132 0.00950933)
(-0.00203936 0.00318315 0.00881526)
(-0.00188138 0.00336219 0.00864075)
(-0.00242833 0.00291215 0.00926154)
(-0.000537201 0.00549174 0.00785062)
(-0.00071723 0.00524889 0.00833229)
(-0.000559457 0.00585423 0.00839794)
(-0.00074723 0.00553738 0.00883929)
(-0.00118215 0.00447363 0.0081524)
(-0.000884103 0.00433163 0.00764377)
(-0.000293372 0.00694351 0.00806355)
(-0.000329627 0.00862625 0.00826878)
(-0.000345237 0.00883318 0.00812348)
(-0.000347683 0.00799996 0.00808419)
(-0.000497174 0.00660178 0.00861917)
(-0.000382539 0.00684062 0.0080947)
(-0.00021207 0.00798816 0.00820909)
(-0.00154983 0.0116385 0.00779985)
(-0.00127058 0.011004 0.0077115)
(-0.000244991 0.0101064 0.0076373)
(-0.000601715 0.011498 0.00831127)
(-0.00103958 0.0115111 0.00746163)
(-0.000753704 0.0106414 0.00797449)
(-0.00173679 0.00344829 0.00697481)
(-0.00250549 0.00372321 0.00787758)
(-0.00170583 0.00356409 0.00701868)
(-0.00171396 0.00344206 0.00694162)
(-0.00207171 0.00362342 0.00757678)
(-0.00227866 0.00365377 0.00754758)
(-0.00483552 0.00455052 0.008233)
(-0.00343852 0.0038382 0.00789894)
(-0.00398418 0.00408016 0.00788887)
(-0.0053283 0.00467466 0.00892517)
(-0.00452765 0.00413296 0.00866636)
(-0.00355707 0.00389502 0.00841913)
(-0.00545597 0.0151944 0.00751705)
(-0.00563598 0.0152748 0.00745431)
(-0.00672485 0.0158364 0.00888064)
(-0.00715299 0.0153944 0.0088966)
(-0.00841314 0.0169646 0.00842112)
(-0.00801373 0.015143 0.00829913)
(-0.00451113 0.0178109 0.014077)
(-0.00344512 0.0182104 0.0123135)
(-0.00436905 0.016562 0.0109147)
(-0.00459031 0.0162718 0.011042)
(-0.00441253 0.017447 0.012668)
(-0.00318875 0.0178704 0.0123765)
(-0.00245301 0.0172591 0.0166977)
(-0.00288442 0.0181073 0.0184685)
(-0.00274775 0.017157 0.0163682)
(-0.00330274 0.0175249 0.0165888)
(-0.00331242 0.0185437 0.0168356)
(-0.00324358 0.0175372 0.0186372)
(-0.00337845 0.00422959 0.00623596)
(-0.00431426 0.00499794 0.00686133)
(-0.00310159 0.00391055 0.00605159)
(-0.00376322 0.00446875 0.00662759)
(-0.00396041 0.00474194 0.00646299)
(-0.00332727 0.00400003 0.00633254)
(-0.0015118 0.00307547 0.00541109)
(-0.00188067 0.00307703 0.00529386)
(-0.00219194 0.00329488 0.00546892)
(-0.0021811 0.00337051 0.00572225)
(-0.00589002 0.0109073 0.0093161)
(-0.00489447 0.0119025 0.00944754)
(-0.00509439 0.011136 0.00846496)
(-0.00543155 0.0128609 0.00987802)
(-0.00606693 0.00816814 0.00769367)
(-0.0066964 0.00853914 0.00805111)
(-0.00536466 0.0068528 0.00674556)
(-0.00489251 0.00614927 0.00697114)
(-0.00610983 0.00730694 0.00741861)
(-0.00569634 0.00664182 0.00742481)
(-0.00626172 0.0173144 0.0103212)
(-0.00558705 0.0180383 0.0107353)
(-0.00619931 0.0176416 0.0114241)
(-0.00784842 0.0110292 0.00876511)
(-0.00952347 0.0129162 0.0112178)
(-0.0074542 0.00929121 0.0090139)
(-0.00902671 0.0105915 0.00945602)
(-0.00790917 0.0101345 0.008241)
(-0.00810511 0.0120684 0.00977717)
(-0.00778075 0.0110915 0.00807995)
(-0.00638246 0.00790219 0.00788896)
(-0.00653384 0.0080135 0.00741005)
(-0.00658062 0.00962257 0.00761904)
(-0.00655848 0.00871003 0.00770721)
(-0.00662937 0.00903234 0.00796565)
(-0.00612027 0.0104102 0.00813059)
(-0.00600013 0.00988975 0.00812346)
(-0.00689755 0.0101197 0.00772817)
(-0.00641785 0.00937667 0.00800879)
(-0.00736079 0.0136439 0.00878254)
(-0.00555169 0.0109662 0.0084823)
(-0.0049484 0.00220918 0.0110211)
(-0.00402525 0.00218309 0.0106114)
(-0.00453857 0.00210346 0.0105082)
(-0.00316211 0.0021166 0.0098324)
(-0.00384317 0.00215762 0.0109497)
(-0.00936827 0.00420213 0.0120379)
(-0.00740597 0.0025977 0.0116973)
(-0.00691755 0.00268058 0.0113971)
(-0.00830809 0.00343396 0.0121571)
(-0.0101634 0.00410659 0.0129307)
(-0.0083949 0.00280477 0.011709)
(-0.00582933 0.00304182 0.011679)
(-0.00474846 0.00264701 0.0106359)
(-0.00353293 0.00279408 0.0103406)
(-0.00399409 0.00288928 0.0103964)
(-0.00435418 0.00252972 0.0107096)
(-0.00534498 0.00323245 0.0113129)
(-0.0099153 0.00590785 0.0116224)
(-0.00987118 0.00504284 0.0122081)
(-0.00849719 0.00438582 0.0119308)
(-0.00927553 0.00516629 0.0121452)
(-0.0095553 0.00457181 0.0122948)
(-0.0106605 0.00611307 0.0125071)
(-0.00129685 0.00388765 0.00742198)
(-0.00153376 0.00366762 0.00764977)
(-0.00132733 0.00375643 0.00752661)
(-0.00126472 0.00420743 0.00749338)
(-0.00123116 0.00396957 0.00762146)
(-0.00113298 0.00943336 0.0108104)
(-0.000723483 0.00728596 0.0103714)
(-0.00107177 0.0087614 0.0103038)
(-0.000786628 0.00765788 0.0100394)
(-0.000674014 0.00678942 0.00996112)
(-0.000688857 0.00773838 0.00984028)
(-0.0011521 0.00344946 0.00944297)
(-0.000934336 0.00461383 0.00971722)
(-0.000962063 0.00428528 0.00993345)
(-0.000740857 0.00521993 0.00985134)
(-0.000956886 0.00413915 0.00976663)
(-0.00123654 0.00350004 0.00995378)
(-0.00865792 0.0126138 0.0092155)
(-0.00898622 0.01317 0.00975009)
(-0.00801298 0.0132044 0.0102262)
(-0.00676521 0.0129709 0.00932277)
(-0.00729001 0.0127993 0.00876391)
(-0.00619655 0.0120884 0.00838521)
(-0.0037092 0.0111358 0.010201)
(-0.00361026 0.0122637 0.0102485)
(-0.00261319 0.0103862 0.00991739)
(-0.00266852 0.0113358 0.00974702)
(-0.00441067 0.0116103 0.00946762)
(-0.00402669 0.0116364 0.00859776)
(-0.00196566 0.011668 0.00797673)
(-0.00318456 0.0125665 0.00823927)
(-0.00395654 0.0129888 0.00716751)
(-0.00213771 0.0128174 0.00794494)
(-0.00410472 0.013562 0.00811415)
(-0.00320244 0.0133747 0.00785827)
(-0.000242574 0.00562163 0.00851739)
(-0.000421754 0.00636337 0.00860731)
(-0.00337417 0.013412 0.0068831)
(-0.00251639 0.0129014 0.00686793)
(-0.00259978 0.0131487 0.00798172)
(-0.00447923 0.0138937 0.00734448)
(-0.00437152 0.0144878 0.00839215)
(-0.00327255 0.0137948 0.00823223)
(-0.00208495 0.0129525 0.017239)
(-0.00327899 0.0139877 0.0143872)
(-0.00265821 0.0135796 0.0143922)
(-0.00197728 0.0133989 0.0164685)
(-0.00701553 0.0164919 0.0149051)
(-0.00544417 0.015313 0.0141073)
(-0.00798897 0.0161803 0.0147086)
(-0.00764077 0.0153696 0.0121813)
(-0.00735803 0.0161093 0.0130336)
(-0.0100318 0.0164147 0.0139499)
(-0.00867535 0.0137206 0.0113128)
(-0.00775489 0.0146216 0.0130871)
(-0.0123687 0.0143416 0.00887666)
(-0.011586 0.0110858 0.00837514)
(-0.0129796 0.0113562 0.00933605)
(-0.0120059 0.0128373 0.00970657)
(-0.011328 0.0127176 0.00868068)
(-0.0123891 0.01109 0.00889453)
(-0.0115773 0.0118426 0.0085547)
(-0.01007 0.013553 0.00794629)
(-0.0110998 0.0114486 0.00800331)
(-0.0098105 0.0130773 0.00806954)
(-0.0105254 0.0117465 0.00789975)
(-0.0104387 0.0125325 0.00803839)
(-0.0118506 0.0117664 0.00910838)
(-0.0127668 0.00986937 0.00978173)
(-0.011513 0.0112597 0.00940115)
(-0.0119839 0.010775 0.00894331)
(-0.0118002 0.00984752 0.00924771)
(-0.0125551 0.00959829 0.00891074)
(-0.0104116 0.0143759 0.019983)
(-0.0107583 0.0149107 0.0217306)
(-0.0102076 0.0140425 0.0206542)
(-0.00956373 0.0134952 0.0199633)
(-0.00962624 0.0133153 0.0199985)
(-0.00942387 0.0132208 0.0190482)
(-0.0103954 0.0144354 0.0190955)
(-0.0117723 0.0154986 0.019532)
(-0.00530342 0.0131428 0.020659)
(-0.00508502 0.0141779 0.02183)
(-0.00482628 0.0148046 0.0220608)
(-0.00562762 0.0138413 0.0220839)
(-0.00437884 0.0153305 0.0217302)
(-0.00467393 0.0154611 0.0222407)
(-0.00083414 0.00456207 0.00586273)
(-0.000729754 0.00514778 0.00598404)
(-0.000814889 0.00455642 0.00574369)
(-0.000706587 0.00590099 0.0064244)
(-0.000819155 0.00549911 0.00629468)
(-0.00083675 0.00475792 0.00619676)
(-0.000900832 0.00386183 0.00557743)
(-0.0010369 0.00343928 0.00539751)
(-0.000898051 0.00389016 0.00568124)
(-0.000797924 0.00414453 0.00585235)
(-0.000913177 0.0041264 0.00592909)
(-0.000834152 0.00482941 0.00646304)
(-0.000976372 0.00473962 0.00621412)
(-0.000778567 0.00440833 0.00583499)
(-0.000640317 0.00748567 0.00722917)
(-0.000614383 0.0083624 0.00694447)
(-0.000672213 0.00724251 0.00644888)
(-0.000748235 0.00653844 0.00639119)
(-0.000723217 0.00684038 0.00666286)
(-0.000924345 0.00385135 0.00541949)
(-0.00068221 0.00582211 0.00609948)
(-0.00085478 0.00584913 0.00685287)
(-0.000775639 0.0056946 0.00635121)
(-0.000607465 0.00552986 0.00664991)
(-0.000778911 0.0065875 0.00701723)
(-0.00067369 0.00624173 0.00724668)
(-0.00389443 0.0151843 0.0206374)
(-0.00366362 0.0152584 0.0205508)
(-0.00452194 0.0139787 0.0215826)
(-0.00398808 0.0138234 0.0200332)
(-0.00522077 0.0140195 0.0221889)
(-0.00918897 0.0133225 0.0179827)
(-0.0083083 0.0128222 0.0182592)
(-0.00834546 0.013208 0.0215363)
(-0.00846775 0.0128534 0.0200649)
(-0.00848824 0.0136061 0.020582)
(-0.00887504 0.0139353 0.0223149)
(-0.00962277 0.0137262 0.0214643)
(-0.0127451 0.00380181 0.0166898)
(-0.011084 0.0103996 0.0169926)
(-0.0103868 0.00944452 0.0164737)
(-0.0135891 0.00898915 0.0106657)
(-0.0132385 0.00803817 0.0107647)
(-0.010984 0.0122266 0.00841001)
(-0.0113566 0.014134 0.00782525)
(-0.0128756 0.0056928 0.0118429)
(-0.0129985 0.00616377 0.0112714)
(-0.013379 0.0111257 0.0100424)
(-0.0127237 0.00568984 0.0132021)
(-0.0130815 0.00592537 0.0115434)
(-0.0125287 0.00589714 0.0133681)
(-0.0139922 0.00964088 0.0120439)
(-0.0136614 0.00994084 0.010802)
(-0.0131914 0.00809916 0.0120174)
(-0.0133908 0.00694896 0.0128692)
(-0.0126294 0.00681158 0.0130366)
(-0.0129918 0.00793991 0.0120554)
(-0.00553134 0.0155595 0.0084415)
(-0.00389795 0.0143892 0.00802197)
(-0.00496568 0.0148727 0.0087593)
(-0.000606773 0.00703392 0.00986046)
(-0.0005211 0.00632744 0.00863394)
(-0.000634569 0.005931 0.00872048)
(-0.00426461 0.0147126 0.00839995)
(-0.00313107 0.0139676 0.00762104)
(-0.00288664 0.0136784 0.00899349)
(-0.00287569 0.0143488 0.00823292)
(-0.00141257 0.0127625 0.00830912)
(-0.0019531 0.00982988 0.00996648)
(-0.00497816 0.0133615 0.00850826)
(-0.00488505 0.0121946 0.00884778)
(-0.0076833 0.0127286 0.0112119)
(-0.00702113 0.013203 0.0110198)
(-0.00041988 0.00608789 0.00879414)
(-0.000956792 0.00466398 0.00988919)
(-0.00119763 0.0039255 0.00977597)
(-0.00151609 0.0096926 0.0103779)
(-0.000655553 0.00606095 0.00953316)
(-0.000961366 0.00561877 0.0102126)
(-0.000504349 0.00553263 0.00949667)
(-0.000603367 0.00811814 0.00941388)
(-0.000814339 0.00730191 0.00975146)
(-0.00197856 0.00925604 0.0111299)
(-0.000803091 0.00474591 0.0102992)
(-0.000821061 0.00544893 0.0103539)
(-0.00101941 0.00862001 0.0106892)
(-0.000976164 0.00849536 0.0102595)
(-0.00109653 0.00801722 0.0109342)
(-0.000660354 0.00613474 0.00990175)
(-0.00081804 0.00651152 0.0104326)
(-0.00166993 0.00322296 0.00598011)
(-0.00109519 0.00410166 0.00686284)
(-0.000973098 0.00424901 0.00694376)
(-0.00134767 0.00336507 0.00596443)
(-0.00156523 0.00330546 0.00603758)
(-0.00168813 0.00326756 0.00602)
(-0.00118955 0.00363486 0.00660142)
(-0.00133856 0.00355159 0.00619281)
(-0.00137483 0.00367677 0.0069814)
(-0.00143279 0.00365578 0.00673167)
(-0.000999566 0.00387956 0.00645889)
(-0.00114441 0.00395228 0.00682985)
(-0.00138643 0.00391592 0.00734126)
(-0.00117263 0.00386795 0.00672448)
(-0.000871403 0.00420116 0.00690704)
(-0.00453495 0.00384538 0.00942359)
(-0.00521542 0.00388301 0.009513)
(-0.00726981 0.00451359 0.0107939)
(-0.0059225 0.0041465 0.0102662)
(-0.00765781 0.0044086 0.0117668)
(-0.00861061 0.00519049 0.011315)
(-0.00693342 0.00378806 0.01129)
(-0.00755195 0.00386412 0.0118647)
(-0.00581452 0.00333012 0.0110879)
(-0.00718571 0.00327186 0.0113483)
(-0.00667918 0.00328424 0.0114443)
(-0.00603023 0.00277073 0.0113979)
(-0.00155701 0.00352796 0.00774732)
(-0.00205078 0.00356864 0.00829397)
(-0.00198711 0.00361559 0.00859475)
(-0.00182319 0.00353124 0.0079059)
(-0.00196146 0.00350179 0.00875895)
(-0.00572912 0.00253365 0.0114548)
(-0.00805118 0.00346714 0.0115538)
(-0.00295869 0.0137596 0.00790713)
(-0.00217122 0.0124337 0.00731962)
(-0.00643131 0.0138133 0.0089254)
(-0.00677023 0.00890542 0.00749631)
(-0.0058932 0.0165866 0.0104975)
(-0.00668175 0.0166468 0.0113174)
(-0.00697107 0.0154838 0.0107969)
(-0.0058085 0.0152674 0.0100904)
(-0.00844024 0.0133272 0.00911496)
(-0.00979497 0.0129364 0.00999503)
(-0.00977476 0.0138696 0.00978125)
(-0.00596206 0.0167344 0.0113025)
(-0.00509118 0.0158849 0.0104647)
(-0.00603848 0.0179128 0.010915)
(-0.0082136 0.0163566 0.011272)
(-0.00857481 0.0148207 0.0102445)
(-0.00778763 0.0175283 0.011749)
(-0.00666117 0.0164586 0.011008)
(-0.00858951 0.0156687 0.010611)
(-0.00681082 0.0158442 0.00981356)
(-0.00742858 0.0158831 0.0102405)
(-0.00256504 0.00345736 0.0061156)
(-0.00201622 0.00337685 0.00616734)
(-0.00426271 0.0051136 0.00641458)
(-0.0030617 0.00370152 0.00629794)
(-0.00284324 0.00362778 0.00595072)
(-0.00544374 0.0144163 0.0112882)
(-0.00510343 0.0154462 0.0115714)
(-0.00364434 0.017273 0.0173494)
(-0.00370171 0.0179728 0.0158925)
(-0.00327209 0.0170319 0.0161535)
(-0.00450438 0.0171188 0.0131802)
(-0.00540966 0.0168751 0.0132288)
(-0.00580341 0.0173265 0.0127484)
(-0.00438651 0.0174411 0.0142277)
(-0.00363973 0.0170599 0.0144094)
(-0.0031027 0.0184559 0.0151452)
(-0.00565717 0.0194433 0.0134523)
(-0.00448191 0.0142167 0.0108617)
(-0.002738 0.0036053 0.00641796)
(-0.00224017 0.00339369 0.00632255)
(-0.00328359 0.00382053 0.0066302)
(-0.00394514 0.00366609 0.00952825)
(-0.00256179 0.003577 0.0088606)
(-0.00243998 0.00355561 0.00865388)
(-0.0029818 0.00348147 0.00861014)
(-0.00340216 0.00356549 0.00884673)
(-0.00406976 0.00377253 0.00903022)
(-0.00313423 0.00382707 0.00869904)
(-0.00211646 0.00364422 0.00815494)
(-0.0018618 0.00371228 0.00778136)
(-0.00304016 0.00360018 0.00796781)
(-0.00290465 0.00375536 0.00751617)
(-0.00248063 0.00363279 0.0072262)
(-0.0023297 0.00355791 0.00664565)
(-0.00195992 0.00344686 0.00645034)
(-0.00209799 0.00358537 0.00724565)
(-0.00216842 0.00369752 0.00704164)
(-0.00469149 0.00480989 0.00733843)
(-0.00577933 0.00511443 0.00834079)
(-0.00514022 0.00483175 0.00786614)
(-0.00301116 0.0037408 0.00731041)
(-0.00293372 0.00367334 0.00690713)
(-0.0038561 0.00403088 0.00746364)
(-0.00439786 0.00442463 0.00790052)
(-0.00402362 0.00433229 0.00738775)
(-0.00327588 0.00391644 0.00705691)
(-0.00163055 0.011801 0.00857806)
(-0.0023147 0.0124518 0.00756512)
(-0.00172198 0.0118307 0.00766166)
(-0.00181519 0.0130156 0.00895874)
(-0.00692967 0.016102 0.00802838)
(-0.00693066 0.015389 0.00809034)
(-0.00853657 0.0165214 0.00815032)
(-0.00765671 0.017421 0.00778557)
(-0.0085865 0.0177181 0.00784698)
(-0.0038343 0.0146979 0.00892608)
(-0.00341161 0.0138781 0.0082155)
(-0.00580449 0.0152794 0.00772951)
(-0.004777 0.015228 0.00802728)
(-0.00574425 0.0159606 0.00790728)
(-0.00796265 0.0164235 0.00747297)
(-0.00657947 0.0157872 0.00655525)
(-0.00782356 0.0146125 0.00732746)
(-0.00627283 0.0142399 0.00714642)
(-0.00362473 0.0145895 0.00740623)
(-0.00494208 0.0150759 0.0085063)
(-0.00526092 0.0135938 0.00672412)
(-0.00589007 0.0150769 0.00744205)
(-0.000501324 0.00729425 0.00747759)
(-0.000376427 0.00682462 0.00720437)
(-0.000334942 0.00800766 0.00756965)
(-0.00177346 0.0120826 0.00766259)
(-0.00238263 0.0128395 0.0081768)
(-0.00139463 0.0112762 0.00813527)
(-0.00196142 0.0120989 0.00899767)
(-0.000735965 0.0100621 0.00790042)
(-0.000543053 0.00904211 0.00785184)
(-0.00126876 0.0100396 0.00828858)
(-0.00109352 0.0110109 0.00843163)
(-0.000654307 0.00914828 0.00777481)
(-0.00045246 0.00867038 0.0076517)
(-0.000709863 0.00936083 0.00861693)
(-0.000885279 0.0101829 0.00810182)
(-0.000622093 0.00967279 0.00805237)
(-0.000305725 0.00768725 0.00881504)
(-0.000596528 0.00824712 0.00899706)
(-0.000429726 0.00716555 0.00930608)
(-0.000777503 0.00465961 0.00709045)
(-0.000983797 0.00445562 0.0073873)
(-0.000473368 0.00610633 0.00737988)
(-0.000854902 0.00426313 0.00817985)
(-0.000714889 0.0056805 0.00929181)
(-0.000567639 0.00692803 0.00898541)
(-0.00113029 0.00424697 0.00751811)
(-0.000574326 0.00560982 0.00739854)
(-0.000575504 0.00501089 0.00723324)
(-0.00089548 0.0041079 0.00771208)
(-0.00134755 0.00380768 0.00782901)
(-0.00111386 0.0042158 0.0085596)
(-0.00171438 0.00374205 0.00837368)
(-0.00168441 0.00351721 0.00844437)
(-0.00136944 0.00407208 0.00827605)
(-0.00565603 0.00205298 0.0112969)
(-0.00354452 0.00246743 0.0105961)
(-0.00149151 0.00288216 0.00960512)
(-0.00198006 0.00236717 0.00936489)
(-0.00150647 0.00281523 0.00921764)
(-0.00129055 0.00325721 0.00941645)
(-0.0028291 0.0024439 0.0100895)
(-0.00251348 0.00230575 0.00968594)
(-0.00209832 0.00232849 0.00943527)
(-0.00187918 0.00242146 0.00914774)
(-0.00215214 0.00240737 0.00949424)
(-0.00230949 0.00325202 0.00895945)
(-0.00322155 0.0031162 0.0101067)
(-0.00141185 0.00363262 0.00830019)
(-0.00174572 0.00350311 0.00848798)
(-0.00268147 0.00269169 0.00983376)
(-0.00257832 0.00281375 0.00974472)
(-0.00948556 0.00587366 0.0143963)
(-0.00906963 0.00538749 0.0152999)
(-0.0128505 0.00787642 0.0137552)
(-0.0103536 0.00617118 0.0151797)
(-0.0100906 0.00591407 0.0135171)
(-0.0107974 0.00632639 0.0145208)
(-0.0114794 0.00560819 0.0144559)
(-0.00972628 0.00472478 0.0150717)
(-0.0116215 0.00462324 0.0139325)
(-0.00501784 0.00490203 0.0167356)
(-0.00503992 0.00576434 0.0173231)
(-0.00672148 0.0144864 0.0081398)
(-0.00898253 0.0155855 0.00650769)
(-0.00946111 0.0161311 0.00658763)
(-0.00756472 0.0153692 0.0071056)
(-0.00765567 0.0150605 0.00774069)
(-0.0132972 0.0111198 0.00983677)
(-0.0130203 0.00911226 0.011689)