/*--------------------------------*- C++ -*----------------------------------*\
| =========                 |                                                 |
| \\      /  F ield         | OpenFOAM: The Open Source CFD Toolbox           |
|  \\    /   O peration     | Version:  v1612+                                |
|   \\  /    A nd           | Web:      www.OpenFOAM.com                      |
|    \\/     M anipulation  |                                                 |
\*---------------------------------------------------------------------------*/
FoamFile
{
    version     2.0;
    format      ascii;
    class       volVectorField;
    location    "118";
    object      U;
}
// * * * * * * * * * * * * * * * * * * * * * * * * * * * * * * * * * * * * * //

dimensions      [0 1 -1 0 0 0 0];

internalField   nonuniform List<vector> 
21110
(
(-0.141244 0.322362 -0.118462)
(-0.386188 0.74613 -0.350754)
(-0.223713 0.515349 -0.266835)
(-0.390645 0.685659 -0.347756)
(-0.100266 0.605925 -0.253322)
(-0.20221 0.437799 -0.0904865)
(-0.161342 0.395007 -0.074178)
(-0.188087 0.662018 -0.154596)
(-0.336099 0.81526 -0.235612)
(-0.151742 0.431274 -0.204204)
(-0.120873 0.600019 -0.253252)
(-0.313438 0.454973 -0.129406)
(-0.293337 0.414946 -0.126085)
(-0.180284 0.346395 -0.136689)
(-0.307793 0.789755 -0.222628)
(-0.212609 0.701717 -0.194978)
(-0.263402 0.729086 -0.173055)
(-0.393996 0.715337 -0.236902)
(-0.339903 0.766459 -0.222444)
(-0.344391 0.760572 -0.224506)
(-0.162792 0.691443 -0.187489)
(-0.222748 0.654978 -0.134016)
(-0.241118 0.494225 -0.275814)
(-0.220506 0.490151 -0.274542)
(-0.458103 0.784251 -0.268961)
(-0.516562 0.6843 -0.319695)
(-0.40619 0.784552 -0.373517)
(-0.428768 0.833568 -0.298923)
(-0.243923 0.42375 -0.0851227)
(-0.269097 0.791683 -0.332832)
(-0.484183 0.712158 -0.263678)
(-0.254171 0.737635 -0.242726)
(-0.281499 0.865266 -0.334953)
(-0.185785 0.738502 -0.227748)
(-0.367973 0.786342 -0.351146)
(-0.393458 0.833582 -0.237647)
(-0.409031 0.782123 -0.207047)
(-0.282663 0.743768 -0.249201)
(-0.360038 0.599092 -0.154694)
(-0.238318 0.384012 -0.224804)
(-0.353018 0.789935 -0.213479)
(-0.27197 0.719623 -0.196715)
(-0.32235 0.544604 -0.121559)
(-0.476064 0.822932 -0.266464)
(-0.212388 0.316998 -0.167495)
(-0.172564 0.377989 -0.202302)
(-0.271902 0.349512 -0.122252)
(-0.242481 0.797739 -0.308758)
(-0.268738 0.861061 -0.322661)
(-0.21023 0.365646 -0.14568)
(-0.436205 0.710458 -0.263753)
(-0.256589 0.737867 -0.210352)
(-0.204808 0.335064 -0.142753)
(-0.257533 0.678136 -0.13767)
(-0.230388 0.381249 -0.130802)
(-0.347367 0.816961 -0.230923)
(-0.249642 0.822196 -0.323329)
(-0.381944 0.72473 -0.320131)
(-0.297895 0.667708 -0.283037)
(-0.493471 0.758637 -0.350495)
(-0.405339 0.809867 -0.227522)
(-0.361891 0.774669 -0.239615)
(-0.240695 0.454246 -0.0823526)
(-0.2317 0.36647 -0.248145)
(-0.227259 0.693493 -0.160369)
(-0.194557 0.470925 -0.0948932)
(-0.212502 0.668071 -0.132358)
(-0.231395 0.313802 -0.14363)
(-0.448801 0.711915 -0.261849)
(-0.459446 0.723909 -0.314858)
(-0.203584 0.533462 -0.262677)
(-0.193604 0.44074 -0.190854)
(-0.342153 0.782101 -0.319188)
(-0.256578 0.336466 -0.147346)
(-0.426897 0.781962 -0.259925)
(-0.21148 0.829697 -0.205943)
(-0.116024 0.616542 -0.24843)
(-0.478974 0.748683 -0.374994)
(-0.266093 0.851144 -0.310958)
(-0.315366 0.876226 -0.349917)
(-0.174704 0.432444 -0.237976)
(-0.162951 0.736462 -0.251018)
(-0.101402 0.643486 -0.233682)
(-0.146648 0.618349 -0.270851)
(-0.137518 0.406981 -0.208038)
(-0.133952 0.436196 -0.220165)
(-0.201155 0.792347 -0.262279)
(-0.306136 0.659874 -0.19705)
(-0.283709 0.713027 -0.309549)
(-0.589198 0.75716 -0.394595)
(-0.53812 0.751073 -0.40323)
(-0.122308 0.665452 -0.2444)
(-0.126796 0.586765 -0.262738)
(-0.450454 0.676887 -0.312188)
(-0.469729 0.693965 -0.313658)
(-0.377739 0.861341 -0.236806)
(-0.25312 0.780812 -0.291396)
(-0.176309 0.584243 -0.234463)
(-0.2277 0.637262 -0.259442)
(-0.428737 0.748318 -0.24242)
(-0.107328 0.330071 -0.155247)
(-0.126685 0.359664 -0.161363)
(-0.157256 0.378777 -0.166995)
(-0.290385 0.793248 -0.313021)
(-0.234789 0.67886 -0.136601)
(-0.296715 0.377472 -0.138537)
(-0.205146 0.297725 -0.181514)
(-0.164623 0.368752 -0.130655)
(-0.196484 0.423507 -0.156194)
(-0.220386 0.539757 -0.104165)
(-0.283616 0.646441 -0.259883)
(-0.344636 0.82353 -0.208794)
(-0.39221 0.81687 -0.216483)
(-0.150145 0.5697 -0.25535)
(-0.389538 0.768048 -0.278256)
(-0.237235 0.788486 -0.310902)
(-0.231386 0.781131 -0.309076)
(-0.295318 0.858066 -0.342869)
(-0.324547 0.869274 -0.353536)
(-0.235829 0.764965 -0.308579)
(-0.280741 0.823637 -0.338282)
(-0.334913 0.493036 -0.117835)
(-0.24801 0.597133 -0.121605)
(-0.447478 0.740437 -0.302116)
(-0.344265 0.652319 -0.239566)
(-0.34107 0.642899 -0.190906)
(-0.322685 0.621766 -0.171766)
(-0.486348 0.684595 -0.322639)
(-0.443557 0.660737 -0.272363)
(-0.433435 0.670399 -0.285821)
(-0.473471 0.711558 -0.320034)
(-0.478339 0.684864 -0.288774)
(-0.15498 0.512603 -0.230216)
(-0.33117 0.716604 -0.22)
(-0.131756 0.486068 -0.245492)
(-0.179963 0.59238 -0.281051)
(-0.168633 0.57325 -0.278431)
(-0.320513 0.555708 -0.309951)
(-0.224271 0.456194 -0.272372)
(-0.270228 0.370646 -0.101163)
(-0.294934 0.413561 -0.118603)
(-0.285869 0.709837 -0.308126)
(-0.34357 0.768274 -0.35005)
(-0.198215 0.470017 -0.0973649)
(-0.451591 0.688823 -0.30722)
(-0.438985 0.719181 -0.323705)
(-0.332936 0.791469 -0.350754)
(-0.295574 0.786546 -0.308096)
(-0.22727 0.330079 -0.170313)
(-0.495506 0.646378 -0.356441)
(-0.461838 0.666791 -0.241321)
(-0.447066 0.694716 -0.222266)
(-0.469948 0.698997 -0.22631)
(-0.180039 0.356672 -0.112067)
(-0.171306 0.348278 -0.0962008)
(-0.325188 0.721674 -0.327305)
(-0.246088 0.755764 -0.213643)
(-0.261461 0.772366 -0.313768)
(-0.270442 0.757478 -0.327539)
(-0.266588 0.745286 -0.294008)
(-0.319162 0.775373 -0.338399)
(-0.302558 0.762623 -0.328488)
(-0.167784 0.754822 -0.209316)
(-0.201263 0.407858 -0.102754)
(-0.217705 0.461978 -0.088751)
(-0.441713 0.69368 -0.35278)
(-0.284029 0.657434 -0.215891)
(-0.237461 0.708956 -0.210677)
(-0.334674 0.544848 -0.123761)
(-0.175675 0.30677 -0.096201)
(-0.2107 0.350525 -0.183604)
(-0.30626 0.630262 -0.152007)
(-0.309083 0.65405 -0.169471)
(-0.389289 0.767894 -0.330365)
(-0.390899 0.779461 -0.333428)
(-0.346479 0.74179 -0.284468)
(-0.352484 0.714377 -0.301987)
(-0.364267 0.712717 -0.314433)
(-0.324328 0.68976 -0.230723)
(-0.374156 0.646167 -0.186001)
(-0.187081 0.442883 -0.238127)
(-0.141382 0.424312 -0.224754)
(-0.352617 0.758935 -0.357262)
(-0.407138 0.725433 -0.320433)
(-0.412902 0.716019 -0.30005)
(-0.392607 0.736878 -0.323746)
(-0.346984 0.737304 -0.300387)
(-0.371113 0.76725 -0.26732)
(-0.269002 0.685547 -0.164821)
(-0.265564 0.596278 -0.123771)
(-0.338407 0.79306 -0.258302)
(-0.193843 0.568528 -0.2871)
(-0.475762 0.71631 -0.228048)
(-0.323198 0.730217 -0.254233)
(-0.324093 0.814233 -0.210802)
(-0.369803 0.752903 -0.304511)
(-0.365433 0.761422 -0.314778)
(-0.349249 0.703639 -0.291081)
(-0.412124 0.795264 -0.336731)
(-0.248658 0.636775 -0.112032)
(-0.33374 0.744621 -0.283159)
(-0.427191 0.732257 -0.377069)
(-0.213902 0.747444 -0.169165)
(-0.200622 0.330396 -0.0968033)
(-0.23133 0.396014 -0.109141)
(-0.229706 0.692107 -0.163316)
(-0.231379 0.777333 -0.253646)
(-0.30644 0.557581 -0.123251)
(-0.169697 0.334612 -0.206478)
(-0.251145 0.656972 -0.135464)
(-0.196763 0.712777 -0.222147)
(-0.180018 0.684015 -0.228435)
(-0.160123 0.621805 -0.248538)
(-0.179961 0.638411 -0.236618)
(-0.225028 0.636184 -0.221737)
(-0.293088 0.683981 -0.268229)
(-0.191187 0.545244 -0.253299)
(-0.184894 0.580924 -0.222695)
(-0.401343 0.793053 -0.218638)
(-0.315009 0.584567 -0.140466)
(-0.380709 0.76902 -0.301935)
(-0.413691 0.748025 -0.302766)
(-0.408288 0.766535 -0.250172)
(-0.316679 0.733415 -0.231261)
(-0.286734 0.718104 -0.186126)
(-0.228162 0.48972 -0.0896387)
(-0.206932 0.7482 -0.198794)
(-0.238228 0.320604 -0.164802)
(-0.409038 0.678365 -0.369717)
(-0.481827 0.691866 -0.387224)
(-0.255571 0.379333 -0.116865)
(-0.174248 0.619602 -0.244533)
(-0.219735 0.695863 -0.230083)
(-0.251656 0.747136 -0.223741)
(-0.394391 0.729595 -0.351654)
(-0.360767 0.736518 -0.355564)
(-0.413622 0.708782 -0.3633)
(-0.391604 0.726932 -0.357473)
(-0.436025 0.688569 -0.349456)
(-0.371073 0.666518 -0.338277)
(-0.35109 0.784643 -0.230131)
(-0.289308 0.713497 -0.170693)
(-0.342991 0.734513 -0.191842)
(-0.382058 0.753846 -0.199974)
(-0.174957 0.43247 -0.238333)
(-0.162121 0.393417 -0.221975)
(-0.206494 0.332024 -0.144375)
(-0.213194 0.374604 -0.178215)
(-0.215663 0.677333 -0.12833)
(-0.180161 0.40861 -0.0667841)
(-0.23972 0.530989 -0.119939)
(-0.248937 0.589971 -0.103744)
(-0.17649 0.362772 -0.0756264)
(-0.230833 0.577774 -0.097741)
(-0.215953 0.624592 -0.114145)
(-0.205141 0.700578 -0.155161)
(-0.210321 0.48409 -0.0785391)
(-0.173359 0.373768 -0.0695341)
(-0.245141 0.481416 -0.117941)
(-0.214628 0.43258 -0.102476)
(-0.221342 0.424314 -0.0958583)
(-0.196047 0.366772 -0.101449)
(-0.252673 0.482695 -0.114378)
(-0.0998182 0.57353 -0.214049)
(-0.360302 0.687915 -0.232262)
(-0.279857 0.332619 -0.140989)
(-0.264623 0.338107 -0.110184)
(-0.230355 0.311422 -0.13166)
(-0.179283 0.772819 -0.249422)
(-0.317825 0.745363 -0.315664)
(-0.389889 0.77591 -0.361825)
(-0.333549 0.723745 -0.329111)
(-0.142201 0.605443 -0.256632)
(-0.146463 0.309893 -0.166344)
(-0.173961 0.346386 -0.188337)
(-0.126427 0.321671 -0.165708)
(-0.225579 0.779295 -0.300294)
(-0.260945 0.806164 -0.322808)
(-0.448131 0.723457 -0.377569)
(-0.317772 0.650015 -0.282104)
(-0.223157 0.377663 -0.211685)
(-0.174993 0.400808 -0.23019)
(-0.139737 0.34712 -0.198468)
(-0.187538 0.662866 -0.247252)
(-0.205825 0.661621 -0.252318)
(-0.246887 0.624875 -0.127404)
(-0.192315 0.568489 -0.0961756)
(-0.250983 0.675636 -0.132522)
(-0.232885 0.724298 -0.148062)
(-0.297284 0.822712 -0.337578)
(-0.216284 0.464229 -0.267393)
(-0.378164 0.687702 -0.234504)
(-0.276372 0.744722 -0.195194)
(-0.352822 0.705128 -0.220287)
(-0.241982 0.771892 -0.281878)
(-0.215955 0.769672 -0.248687)
(-0.306864 0.807404 -0.33828)
(-0.175878 0.31486 -0.175515)
(-0.175468 0.373474 -0.223463)
(-0.183426 0.378462 -0.21824)
(-0.158961 0.324578 -0.119633)
(-0.235868 0.779404 -0.3076)
(-0.273567 0.811671 -0.333814)
(-0.281199 0.680894 -0.182101)
(-0.181827 0.304962 -0.181916)
(-0.324915 0.724097 -0.238784)
(-0.146315 0.318715 -0.180613)
(-0.166624 0.348116 -0.195807)
(-0.21468 0.612784 -0.102521)
(-0.208918 0.645204 -0.116701)
(-0.221576 0.568821 -0.0960647)
(-0.203498 0.373471 -0.229012)
(-0.231957 0.388055 -0.248199)
(-0.507906 0.708541 -0.238001)
(-0.266251 0.614665 -0.112112)
(-0.273023 0.604657 -0.107976)
(-0.19957 0.38314 -0.100592)
(-0.180611 0.675635 -0.137003)
(-0.182138 0.695019 -0.157453)
(-0.488268 0.636953 -0.244595)
(-0.415158 0.621545 -0.273552)
(-0.347052 0.715869 -0.230052)
(-0.273071 0.712808 -0.204173)
(-0.35172 0.77926 -0.234379)
(-0.347675 0.738518 -0.189058)
(-0.255149 0.704778 -0.211765)
(-0.273039 0.330576 -0.133718)
(-0.214774 0.796486 -0.180212)
(-0.163308 0.601243 -0.0993267)
(-0.366511 0.778551 -0.354996)
(-0.349816 0.694923 -0.303226)
(-0.280547 0.58242 -0.116412)
(-0.210872 0.367989 -0.094148)
(-0.3526 0.797044 -0.236874)
(-0.310362 0.752886 -0.197908)
(-0.31723 0.702717 -0.264168)
(-0.351265 0.777106 -0.288575)
(-0.414261 0.770918 -0.240938)
(-0.164809 0.666121 -0.263324)
(-0.1613 0.562453 -0.267733)
(-0.191889 0.315992 -0.155321)
(-0.167661 0.305734 -0.163657)
(-0.154335 0.303067 -0.164678)
(-0.183865 0.470848 -0.258295)
(-0.243503 0.815798 -0.175574)
(-0.265675 0.811983 -0.171865)
(-0.203714 0.366372 -0.111383)
(-0.148254 0.380767 -0.188946)
(-0.115368 0.30606 -0.154405)
(-0.175506 0.296036 -0.133661)
(-0.219563 0.5604 -0.280256)
(-0.128601 0.530562 -0.24613)
(-0.249308 0.659576 -0.154327)
(-0.188368 0.760108 -0.1657)
(-0.217704 0.607169 -0.109846)
(-0.266759 0.829429 -0.191467)
(-0.392941 0.74728 -0.366116)
(-0.498055 0.831942 -0.389741)
(-0.300596 0.743893 -0.333851)
(-0.175858 0.380344 -0.112045)
(-0.286778 0.745083 -0.18987)
(-0.337259 0.775288 -0.234206)
(-0.213812 0.734846 -0.171359)
(-0.169376 0.565032 -0.0944703)
(-0.426727 0.626716 -0.356301)
(-0.436144 0.668504 -0.373267)
(-0.218248 0.537924 -0.101818)
(-0.433924 0.722828 -0.371977)
(-0.430758 0.622498 -0.352008)
(-0.279373 0.706139 -0.15907)
(-0.1865 0.637908 -0.230585)
(-0.511238 0.671198 -0.255388)
(-0.200621 0.501496 -0.0921527)
(-0.173277 0.319701 -0.112566)
(-0.172087 0.320745 -0.0863409)
(-0.208039 0.346249 -0.0904498)
(-0.546364 0.675914 -0.32933)
(-0.254593 0.740309 -0.27972)
(-0.18725 0.722018 -0.191059)
(-0.207039 0.744567 -0.193121)
(-0.18208 0.375606 -0.233388)
(-0.329598 0.726759 -0.177875)
(-0.438407 0.617223 -0.271362)
(-0.188957 0.559566 -0.0901352)
(-0.379174 0.750334 -0.35333)
(-0.411756 0.740093 -0.34438)
(-0.154089 0.331502 -0.194424)
(-0.352325 0.697578 -0.175148)
(-0.196406 0.317401 -0.0980512)
(-0.230678 0.504226 -0.0868845)
(-0.193596 0.799558 -0.185805)
(-0.110711 0.511948 -0.236364)
(-0.435776 0.69074 -0.350296)
(-0.287989 0.602372 -0.116051)
(-0.145648 0.555894 -0.264482)
(-0.333327 0.780104 -0.341184)
(-0.216466 0.669656 -0.215869)
(-0.310899 0.713731 -0.310384)
(-0.387253 0.724853 -0.343998)
(-0.117778 0.31847 -0.146784)
(-0.133626 0.363813 -0.173162)
(-0.111579 0.336762 -0.162133)
(-0.378718 0.720113 -0.342255)
(-0.212751 0.404347 -0.24101)
(-0.400467 0.76817 -0.348182)
(-0.303653 0.420951 -0.102172)
(-0.343331 0.683155 -0.322466)
(-0.118052 0.553615 -0.235915)
(-0.145581 0.446828 -0.234105)
(-0.174801 0.525697 -0.262913)
(-0.231339 0.355005 -0.233953)
(-0.159233 0.378198 -0.0839475)
(-0.211403 0.786454 -0.202423)
(-0.325829 0.728259 -0.184045)
(-0.365747 0.70724 -0.176121)
(-0.263387 0.670086 -0.21324)
(-0.310427 0.705528 -0.204914)
(-0.33726 0.789943 -0.318131)
(-0.287321 0.708123 -0.298443)
(-0.297143 0.715813 -0.306339)
(-0.4699 0.650943 -0.236293)
(-0.472162 0.666079 -0.231392)
(-0.472697 0.640832 -0.247712)
(-0.311438 0.745424 -0.319508)
(-0.394644 0.723541 -0.184838)
(-0.391883 0.699329 -0.18971)
(-0.262757 0.779393 -0.177753)
(-0.412494 0.714512 -0.184383)
(-0.168942 0.316819 -0.138164)
(-0.131535 0.310502 -0.107371)
(-0.121418 0.306631 -0.128326)
(-0.235422 0.614313 -0.12145)
(-0.310679 0.681842 -0.170458)
(-0.204922 0.345302 -0.123824)
(-0.229013 0.391492 -0.152333)
(-0.236379 0.38489 -0.138057)
(-0.183382 0.334847 -0.154504)
(-0.472419 0.693724 -0.284673)
(-0.47262 0.742282 -0.285754)
(-0.45308 0.712248 -0.315717)
(-0.430289 0.697847 -0.338132)
(-0.398624 0.665816 -0.305888)
(-0.219023 0.328055 -0.146105)
(-0.237361 0.347536 -0.136125)
(-0.15107 0.52952 -0.25846)
(-0.107847 0.461253 -0.22039)
(-0.119933 0.44759 -0.222615)
(-0.118174 0.553346 -0.252151)
(-0.10567 0.369623 -0.193195)
(-0.247684 0.430685 -0.0854277)
(-0.117394 0.385305 -0.20002)
(-0.169988 0.456422 -0.245078)
(-0.208272 0.507883 -0.263985)
(-0.252453 0.510593 -0.288726)
(-0.219647 0.607276 -0.206373)
(-0.189127 0.44629 -0.25815)
(-0.323263 0.730041 -0.33642)
(-0.322862 0.76816 -0.337992)
(-0.29186 0.727432 -0.323519)
(-0.361625 0.754369 -0.344772)
(-0.346683 0.716201 -0.344935)
(-0.351751 0.726977 -0.34651)
(-0.131454 0.354004 -0.184492)
(-0.363585 0.679921 -0.311881)
(-0.269434 0.790542 -0.185822)
(-0.226993 0.783083 -0.185851)
(-0.211703 0.71537 -0.161945)
(-0.450489 0.734325 -0.24115)
(-0.443983 0.77916 -0.248957)
(-0.19116 0.507366 -0.269926)
(-0.124155 0.433984 -0.223405)
(-0.174048 0.380882 -0.21217)
(-0.266964 0.340895 -0.167302)
(-0.227025 0.299257 -0.182599)
(-0.345448 0.628912 -0.168435)
(-0.432559 0.741102 -0.291309)
(-0.380979 0.697547 -0.270401)
(-0.174596 0.294136 -0.134097)
(-0.241445 0.364232 -0.139363)
(-0.173716 0.279933 -0.127398)
(-0.162806 0.748016 -0.178671)
(-0.191829 0.780264 -0.212805)
(-0.33845 0.791562 -0.220796)
(-0.158487 0.547091 -0.264269)
(-0.18515 0.586232 -0.278611)
(-0.151015 0.496569 -0.25)
(-0.183358 0.618609 -0.205006)
(-0.190213 0.37307 -0.108015)
(-0.452338 0.679474 -0.333881)
(-0.311471 0.714284 -0.327654)
(-0.370934 0.769515 -0.351944)
(-0.438069 0.751275 -0.335966)
(-0.260983 0.33068 -0.185632)
(-0.205048 0.578079 -0.257331)
(-0.218468 0.366523 -0.129231)
(-0.148915 0.402537 -0.218891)
(-0.299894 0.65404 -0.248696)
(-0.291319 0.689058 -0.200788)
(-0.272612 0.648455 -0.196751)
(-0.225147 0.592829 -0.217931)
(-0.16697 0.558114 -0.270244)
(-0.18304 0.318207 -0.110569)
(-0.465842 0.651071 -0.27307)
(-0.113366 0.491365 -0.238038)
(-0.342561 0.799671 -0.269106)
(-0.176375 0.335907 -0.201726)
(-0.185002 0.329336 -0.194592)
(-0.206667 0.349259 -0.0857711)
(-0.0942989 0.343874 -0.175717)
(-0.271533 0.789373 -0.323149)
(-0.196725 0.312484 -0.105037)
(-0.218527 0.726794 -0.16563)
(-0.239315 0.618636 -0.12688)
(-0.218059 0.376207 -0.0803624)
(-0.39572 0.772005 -0.285273)
(-0.234589 0.559445 -0.290516)
(-0.285906 0.740853 -0.155618)
(-0.441612 0.730913 -0.351581)
(-0.36628 0.680204 -0.329982)
(-0.45319 0.690009 -0.372375)
(-0.422825 0.615894 -0.219803)
(-0.175135 0.343817 -0.127115)
(-0.288491 0.800949 -0.187356)
(-0.324565 0.781901 -0.325963)
(-0.271083 0.743308 -0.310793)
(-0.25521 0.717394 -0.296225)
(-0.380071 0.766046 -0.327369)
(-0.370092 0.737845 -0.302405)
(-0.191757 0.409752 -0.0708948)
(-0.350157 0.810934 -0.30867)
(-0.214935 0.631557 -0.238104)
(-0.289086 0.755593 -0.174771)
(-0.293091 0.745187 -0.179137)
(-0.299319 0.7522 -0.331177)
(-0.287651 0.771036 -0.326109)
(-0.453964 0.75527 -0.351388)
(-0.174497 0.50935 -0.264215)
(-0.265115 0.373465 -0.152147)
(-0.281365 0.420317 -0.0864875)
(-0.40623 0.609636 -0.179335)
(-0.288547 0.587112 -0.138381)
(-0.131619 0.69375 -0.227059)
(-0.254587 0.334174 -0.124646)
(-0.380052 0.642423 -0.327384)
(-0.357158 0.712563 -0.341897)
(-0.436658 0.743698 -0.370895)
(-0.119072 0.636459 -0.258744)
(-0.0921821 0.662132 -0.225749)
(-0.188665 0.365481 -0.133503)
(-0.213636 0.600529 -0.113013)
(-0.187843 0.787726 -0.228572)
(-0.182182 0.383334 -0.120105)
(-0.348437 0.806083 -0.213408)
(-0.25736 0.72883 -0.175413)
(-0.422685 0.675176 -0.228768)
(-0.193165 0.795972 -0.240407)
(-0.19771 0.67548 -0.178382)
(-0.222234 0.745157 -0.193609)
(-0.241247 0.756259 -0.220981)
(-0.487747 0.720526 -0.221113)
(-0.445287 0.710406 -0.205838)
(-0.377786 0.865802 -0.242799)
(-0.319962 0.74643 -0.190571)
(-0.364672 0.82607 -0.225161)
(-0.221023 0.80245 -0.292934)
(-0.222393 0.809946 -0.291063)
(-0.258498 0.366874 -0.103538)
(-0.101741 0.364552 -0.193692)
(-0.11688 0.351723 -0.186175)
(-0.254613 0.623108 -0.204825)
(-0.303 0.653669 -0.179611)
(-0.219395 0.750891 -0.293777)
(-0.287604 0.536806 -0.30122)
(-0.440734 0.698582 -0.280539)
(-0.298535 0.726395 -0.208497)
(-0.206416 0.764058 -0.243762)
(-0.155114 0.532264 -0.219127)
(-0.403058 0.797528 -0.211124)
(-0.196628 0.4626 -0.0750817)
(-0.420644 0.788206 -0.208262)
(-0.420715 0.707273 -0.206259)
(-0.361298 0.757753 -0.212102)
(-0.190854 0.567723 -0.0923931)
(-0.225473 0.685084 -0.149349)
(-0.27894 0.723598 -0.189482)
(-0.349557 0.710099 -0.266309)
(-0.214589 0.641383 -0.123884)
(-0.18385 0.31926 -0.0919485)
(-0.164503 0.317399 -0.17244)
(-0.193283 0.427516 -0.245362)
(-0.327255 0.732266 -0.300424)
(-0.271058 0.669543 -0.264045)
(-0.117953 0.466755 -0.23361)
(-0.160089 0.370273 -0.208416)
(-0.192125 0.458114 -0.254221)
(-0.153878 0.493978 -0.248242)
(-0.145833 0.353483 -0.149636)
(-0.395323 0.666942 -0.350241)
(-0.478996 0.713531 -0.295887)
(-0.276776 0.551891 -0.110427)
(-0.224201 0.7251 -0.162449)
(-0.268506 0.548201 -0.105305)
(-0.241079 0.395582 -0.0902523)
(-0.177263 0.707292 -0.22781)
(-0.19487 0.710828 -0.238969)
(-0.122922 0.666982 -0.189143)
(-0.348822 0.776485 -0.221327)
(-0.292006 0.790066 -0.339453)
(-0.362824 0.782557 -0.290043)
(-0.328004 0.729417 -0.267769)
(-0.144048 0.348629 -0.184432)
(-0.155157 0.306769 -0.160502)
(-0.192972 0.306964 -0.197941)
(-0.139306 0.295013 -0.125493)
(-0.116244 0.34648 -0.176967)
(-0.107708 0.356074 -0.177951)
(-0.404677 0.764038 -0.213154)
(-0.16503 0.295756 -0.13938)
(-0.179336 0.303558 -0.151997)
(-0.193832 0.315961 -0.154833)
(-0.267157 0.788187 -0.314315)
(-0.256544 0.758146 -0.304131)
(-0.455516 0.62424 -0.298382)
(-0.333384 0.735487 -0.341715)
(-0.325904 0.732791 -0.335678)
(-0.290994 0.769669 -0.334868)
(-0.451765 0.727322 -0.298961)
(-0.570031 0.780014 -0.312673)
(-0.285141 0.805506 -0.335708)
(-0.321619 0.477937 -0.191991)
(-0.416311 0.921374 -0.310339)
(-0.531504 0.861354 -0.323671)
(-0.373093 0.820734 -0.295585)
(-0.384728 0.559205 -0.154483)
(-0.617233 0.738765 -0.410413)
(-0.60826 0.73695 -0.406794)
(-0.550982 0.754388 -0.289559)
(-0.361525 0.862405 -0.322105)
(-0.365634 0.691 -0.294852)
(-0.54797 0.772912 -0.295009)
(-0.426664 0.709022 -0.317249)
(-0.554424 0.779978 -0.3038)
(-0.612994 0.754627 -0.394944)
(-0.127675 0.480225 -0.231655)
(-0.396618 0.647534 -0.315666)
(-0.526347 0.573106 -0.31143)
(-0.375155 0.739022 -0.217041)
(-0.463936 0.788344 -0.333216)
(-0.377096 0.792884 -0.284968)
(-0.408885 0.895812 -0.357092)
(-0.316985 0.878944 -0.286221)
(-0.522945 0.875586 -0.379562)
(-0.325103 0.801578 -0.195049)
(-0.152889 0.497943 -0.257072)
(-0.405952 0.620741 -0.297236)
(-0.271651 0.473469 -0.0998492)
(-0.139673 0.515288 -0.259991)
(-0.138346 0.416867 -0.227443)
(-0.414455 0.713389 -0.315153)
(-0.407628 0.665678 -0.2789)
(-0.428621 0.665338 -0.225524)
(-0.521283 0.766418 -0.293792)
(-0.296794 0.844065 -0.257038)
(-0.367018 0.848589 -0.283448)
(-0.182689 0.761448 -0.261589)
(-0.364829 0.925466 -0.349847)
(-0.385933 0.823427 -0.274425)
(-0.361195 0.673764 -0.174468)
(-0.462421 0.854477 -0.364266)
(-0.460229 0.675255 -0.264929)
(-0.243601 0.583615 -0.103964)
(-0.323944 0.531535 -0.135051)
(-0.50533 0.742008 -0.338574)
(-0.359 0.913647 -0.244247)
(-0.41821 0.833594 -0.236645)
(-0.162769 0.607901 -0.107927)
(-0.607607 0.715447 -0.383043)
(-0.424812 0.668207 -0.212054)
(-0.556629 0.623529 -0.304131)
(-0.276605 0.54933 -0.11865)
(-0.393842 0.819409 -0.362267)
(-0.214598 0.637194 -0.127661)
(-0.331315 0.732988 -0.234274)
(-0.28719 0.754459 -0.255612)
(-0.323955 0.744248 -0.214152)
(-0.534516 0.71924 -0.37989)
(-0.362474 0.734041 -0.352244)
(-0.438239 0.771127 -0.380798)
(-0.431993 0.673939 -0.228445)
(-0.55128 0.777402 -0.405699)
(-0.5211 0.790113 -0.379025)
(-0.537514 0.758806 -0.403894)
(-0.409309 0.623683 -0.331636)
(-0.477436 0.758607 -0.388434)
(-0.59855 0.803786 -0.412587)
(-0.470944 0.819918 -0.390923)
(-0.266766 0.690248 -0.179591)
(-0.405201 0.777992 -0.349379)
(-0.561506 0.80294 -0.393754)
(-0.479483 0.830706 -0.378517)
(-0.360847 0.755983 -0.309116)
(-0.467426 0.656875 -0.241964)
(-0.54751 0.695565 -0.380168)
(-0.437708 0.931024 -0.356928)
(-0.306546 0.797416 -0.335053)
(-0.207052 0.743154 -0.225646)
(-0.428803 0.703107 -0.339207)
(-0.273893 0.792357 -0.329112)
(-0.269514 0.802384 -0.312862)
(-0.264505 0.559109 -0.276246)
(-0.373389 0.728466 -0.259492)
(-0.32098 0.605337 -0.29258)
(-0.313843 0.738221 -0.19142)
(-0.430237 0.758486 -0.238402)
(-0.459149 0.819657 -0.258667)
(-0.479929 0.773599 -0.248346)
(-0.547337 0.841528 -0.322754)
(-0.401267 0.495742 -0.187808)
(-0.48511 0.523004 -0.30795)
(-0.493151 0.542631 -0.249573)
(-0.217423 0.273302 -0.144692)
(-0.442101 0.594582 -0.302287)
(-0.588132 0.802186 -0.384239)
(-0.484287 0.67655 -0.275938)
(-0.569288 0.692259 -0.353474)
(-0.512401 0.721427 -0.337608)
(-0.56368 0.789282 -0.384884)
(-0.473913 0.550116 -0.29304)
(-0.472023 0.743736 -0.327088)
(-0.292008 0.570074 -0.304174)
(-0.224778 0.54868 -0.279392)
(-0.603595 0.756779 -0.373341)
(-0.562464 0.777426 -0.362749)
(-0.192595 0.664517 -0.224887)
(-0.472441 0.65107 -0.3242)
(-0.557436 0.836008 -0.331268)
(-0.538957 0.834091 -0.329114)
(-0.35911 0.642718 -0.320493)
(-0.299982 0.417633 -0.192046)
(-0.417739 0.556858 -0.193017)
(-0.244588 0.35394 -0.216604)
(-0.462135 0.537452 -0.294227)
(-0.322882 0.396145 -0.169705)
(-0.351927 0.489135 -0.283813)
(-0.308226 0.708244 -0.172936)
(-0.468718 0.876217 -0.381534)
(-0.315682 0.858167 -0.305055)
(-0.350016 0.89809 -0.36469)
(-0.482192 0.898366 -0.379867)
(-0.480292 0.906215 -0.373979)
(-0.336239 0.885133 -0.330449)
(-0.410899 0.896393 -0.337991)
(-0.454956 0.917089 -0.322667)
(-0.365248 0.898401 -0.259989)
(-0.381801 0.877453 -0.254903)
(-0.406497 0.942873 -0.28983)
(-0.319322 0.731241 -0.181389)
(-0.428558 0.832631 -0.329953)
(-0.33398 0.716652 -0.254271)
(-0.396383 0.910353 -0.258232)
(-0.466883 0.906454 -0.345185)
(-0.462102 0.890954 -0.37179)
(-0.412113 0.884453 -0.314325)
(-0.493023 0.879852 -0.337853)
(-0.490077 0.90182 -0.361552)
(-0.405618 0.829433 -0.300395)
(-0.382604 0.877754 -0.280406)
(-0.185474 0.782387 -0.194759)
(-0.105371 0.63673 -0.207703)
(-0.138977 0.723936 -0.181762)
(-0.434697 0.780244 -0.30535)
(-0.313026 0.479655 -0.195411)
(-0.309826 0.665744 -0.162726)
(-0.430843 0.651714 -0.268904)
(-0.459048 0.71806 -0.312547)
(-0.491015 0.748662 -0.334859)
(-0.417787 0.752953 -0.261045)
(-0.430072 0.711818 -0.321646)
(-0.522411 0.879468 -0.332334)
(-0.224227 0.740557 -0.187448)
(-0.350087 0.834762 -0.2549)
(-0.503742 0.842159 -0.322198)
(-0.469795 0.869811 -0.285521)
(-0.307134 0.864152 -0.245968)
(-0.343473 0.699498 -0.303977)
(-0.26548 0.707203 -0.301783)
(-0.136046 0.687863 -0.242332)
(-0.141041 0.586277 -0.262468)
(-0.411165 0.88948 -0.253641)
(-0.540211 0.840704 -0.348258)
(-0.393126 0.646077 -0.291188)
(-0.393775 0.752518 -0.315847)
(-0.514501 0.889943 -0.345422)
(-0.519533 0.817873 -0.347062)
(-0.336518 0.756265 -0.314116)
(-0.171309 0.6394 -0.261506)
(-0.233532 0.389293 -0.107097)
(-0.242143 0.327607 -0.113344)
(-0.315362 0.620246 -0.169981)
(-0.135912 0.360044 -0.158216)
(-0.216701 0.460667 -0.159971)
(-0.214127 0.459967 -0.127507)
(-0.139683 0.510185 -0.248406)
(-0.239814 0.445868 -0.180034)
(-0.192203 0.363548 -0.133408)
(-0.315106 0.502481 -0.177033)
(-0.209798 0.544996 -0.275234)
(-0.643906 0.785586 -0.389356)
(-0.577424 0.765926 -0.363685)
(-0.626945 0.800942 -0.387602)
(-0.589619 0.783818 -0.371546)
(-0.620476 0.785708 -0.363948)
(-0.600073 0.777522 -0.346653)
(-0.602806 0.793962 -0.382877)
(-0.327424 0.874418 -0.353662)
(-0.257425 0.811726 -0.325864)
(-0.391295 0.73653 -0.332044)
(-0.393351 0.725788 -0.302254)
(-0.235225 0.386774 -0.192315)
(-0.42079 0.56151 -0.266099)
(-0.274669 0.401448 -0.168147)
(-0.368389 0.500634 -0.220608)
(-0.290376 0.441166 -0.207155)
(-0.310713 0.454317 -0.209771)
(-0.349491 0.481922 -0.205809)
(-0.395355 0.795431 -0.30932)
(-0.283106 0.863888 -0.287373)
(-0.396632 0.867404 -0.307772)
(-0.343162 0.907824 -0.285167)
(-0.402771 0.857313 -0.308516)
(-0.403976 0.887537 -0.310006)
(-0.357517 0.899454 -0.284725)
(-0.514425 0.859718 -0.347806)
(-0.44743 0.781271 -0.257756)
(-0.495325 0.865747 -0.320017)
(-0.523889 0.858313 -0.32875)
(-0.520625 0.850456 -0.323815)
(-0.438321 0.794261 -0.25746)
(-0.34362 0.618308 -0.233553)
(-0.321321 0.689141 -0.192629)
(-0.309721 0.603789 -0.193133)
(-0.324499 0.724599 -0.205691)
(-0.38012 0.742888 -0.27219)
(-0.382485 0.798191 -0.290388)
(-0.330488 0.705648 -0.200753)
(-0.307007 0.465594 -0.113418)
(-0.305541 0.55885 -0.119569)
(-0.306217 0.566677 -0.120379)
(-0.347001 0.51947 -0.128669)
(-0.246698 0.609834 -0.114668)
(-0.349972 0.696713 -0.171798)
(-0.25393 0.632307 -0.127105)
(-0.301224 0.689808 -0.313961)
(-0.388444 0.71858 -0.357795)
(-0.607023 0.69567 -0.38466)
(-0.605182 0.776509 -0.420221)
(-0.640077 0.714047 -0.403705)
(-0.625451 0.768709 -0.4239)
(-0.619979 0.744611 -0.405063)
(-0.610302 0.758086 -0.408524)
(-0.637304 0.756056 -0.419068)
(-0.655547 0.749648 -0.427081)
(-0.606055 0.78235 -0.419427)
(-0.667623 0.751291 -0.418039)
(-0.624481 0.773153 -0.418538)
(-0.616651 0.760159 -0.421478)
(-0.597867 0.762083 -0.419809)
(-0.637363 0.775083 -0.418934)
(-0.644786 0.772541 -0.389567)
(-0.555256 0.718258 -0.287242)
(-0.606067 0.758187 -0.372336)
(-0.545285 0.724881 -0.293531)
(-0.611953 0.774787 -0.34858)
(-0.596662 0.774731 -0.320401)
(-0.568871 0.729447 -0.316271)
(-0.679589 0.735415 -0.39387)
(-0.679316 0.738389 -0.419396)
(-0.298324 0.756237 -0.293139)
(-0.469328 0.80261 -0.333908)
(-0.433808 0.753264 -0.315462)
(-0.43012 0.751088 -0.334724)
(-0.440825 0.842021 -0.371288)
(-0.394672 0.865328 -0.377326)
(-0.394826 0.81501 -0.35201)
(-0.356108 0.831895 -0.358621)
(-0.38795 0.81779 -0.361079)
(-0.314849 0.758191 -0.341236)
(-0.391558 0.850491 -0.37207)
(-0.376692 0.671431 -0.239985)
(-0.632988 0.770309 -0.358124)
(-0.465866 0.766726 -0.261936)
(-0.562246 0.760052 -0.295306)
(-0.49335 0.766334 -0.250319)
(-0.592972 0.784004 -0.325235)
(-0.577868 0.793499 -0.318804)
(-0.521749 0.764511 -0.257206)
(-0.501937 0.612266 -0.348963)
(-0.486136 0.715057 -0.328206)
(-0.595078 0.682842 -0.37094)
(-0.52331 0.722833 -0.333901)
(-0.454147 0.676286 -0.339855)
(-0.400382 0.680722 -0.314079)
(-0.547813 0.718132 -0.351905)
(-0.483285 0.696101 -0.321296)
(-0.651223 0.69766 -0.386378)
(-0.550797 0.705964 -0.350241)
(-0.58959 0.716016 -0.360635)
(-0.621444 0.778154 -0.358772)
(-0.610086 0.809499 -0.358834)
(-0.557833 0.789644 -0.321315)
(-0.581982 0.806138 -0.333098)
(-0.62062 0.795323 -0.357554)
(-0.616577 0.796378 -0.356358)
(-0.582418 0.808923 -0.329923)
(-0.229617 0.313675 -0.161357)
(-0.595803 0.673709 -0.371471)
(-0.551125 0.646529 -0.348403)
(-0.630198 0.701533 -0.390595)
(-0.610603 0.716213 -0.374274)
(-0.5965 0.702493 -0.379805)
(-0.596191 0.720759 -0.384279)
(-0.618184 0.711662 -0.375927)
(-0.289983 0.495133 -0.276205)
(-0.251473 0.497066 -0.276482)
(-0.166799 0.402214 -0.228719)
(-0.181563 0.427455 -0.238328)
(-0.199886 0.427769 -0.249172)
(-0.174169 0.547851 -0.265368)
(-0.314811 0.501453 -0.276325)
(-0.192625 0.493761 -0.26918)
(-0.319953 0.524388 -0.283418)
(-0.311887 0.61339 -0.306201)
(-0.370428 0.647485 -0.317353)
(-0.288818 0.520412 -0.281521)
(-0.51434 0.587507 -0.341032)
(-0.543316 0.637128 -0.344586)
(-0.604717 0.665093 -0.370942)
(-0.577275 0.653991 -0.359502)
(-0.486424 0.534443 -0.312896)
(-0.501085 0.549919 -0.3114)
(-0.575547 0.650019 -0.362381)
(-0.478444 0.81528 -0.328393)
(-0.405812 0.736133 -0.240447)
(-0.373883 0.689622 -0.219752)
(-0.433923 0.784781 -0.292182)
(-0.437247 0.787248 -0.322989)
(-0.424065 0.837112 -0.332354)
(-0.456061 0.875806 -0.354112)