/*--------------------------------*- C++ -*----------------------------------*\
| =========                 |                                                 |
| \\      /  F ield         | OpenFOAM: The Open Source CFD Toolbox           |
|  \\    /   O peration     | Version:  v1612+                                |
|   \\  /    A nd           | Web:      www.OpenFOAM.com                      |
|    \\/     M anipulation  |                                                 |
\*---------------------------------------------------------------------------*/
FoamFile
{
    version     2.0;
    format      ascii;
    class       volVectorField;
    location    "118";
    object      wallShearStress;
}
// * * * * * * * * * * * * * * * * * * * * * * * * * * * * * * * * * * * * * //

dimensions      [0 2 -2 0 0 0 0];

internalField   uniform (0 0 0);

boundaryField
{
    WALL
    {
        type            calculated;
        value           nonuniform List<vector> 
1497
(
(0.00373252 -0.0192386 0.00975775)
(0.00291489 -0.019505 0.00946052)
(0.00767291 -0.0187132 0.00726274)
(0.00771039 -0.0181388 0.007726)
(0.0057325 -0.0122308 0.00028695)
(0.00223048 -0.00901646 0.00536542)
(0.00241443 -0.0087949 0.00501546)
(0.0032863 -0.00803264 0.00408843)
(0.00275106 -0.00807491 0.00444014)
(0.00139267 -0.0109722 0.00609348)
(0.00136392 -0.0116847 0.00621541)
(0.00379935 -0.00797666 0.00516062)
(0.00307484 -0.0078574 0.00353444)
(0.00284195 -0.00809261 0.00398968)
(0.00290859 -0.00824465 0.00385918)
(0.00320213 -0.00803147 0.00327815)
(0.00199847 -0.00864077 0.00415934)
(0.00201163 -0.00920724 0.00463477)
(0.00201134 -0.00920783 0.00460357)
(0.00183848 -0.00942711 0.00464437)
(0.00463559 -0.022355 4.37713e-05)
(0.00578739 -0.0221585 -0.000247144)
(0.00107708 -0.0105967 0.00538104)
(0.00123391 -0.0106175 0.00549678)
(0.00263917 -0.00846686 0.00438955)
(0.00259976 -0.00863446 0.00458991)
(0.00407098 -0.00819175 0.00330522)
(0.00373046 -0.00786346 0.00363358)
(0.00305697 -0.00829517 0.00495391)
(0.00366386 -0.00786609 0.00425054)
(0.00389898 -0.00776362 0.00400102)
(0.00396538 -0.00758819 0.00348757)
(0.00659591 -0.0178189 0.00943326)
(0.00643099 -0.0191604 0.0100943)
(0.00826981 -0.0184483 0.0089797)
(0.00825456 -0.0178874 0.00892045)
(0.00264523 -0.0189549 0.00934311)
(0.00385024 -0.0185323 0.00898084)
(0.00991402 -0.0164285 0.00921338)
(0.00902404 -0.0159116 0.00917143)
(0.00604504 -0.0170696 0.0102278)
(0.00707504 -0.0172794 0.0103014)
(0.00553563 -0.018883 0.0100215)
(0.00334824 -0.0187586 0.00993614)
(0.00285685 -0.0200521 0.0098672)
(0.00193773 -0.0203953 0.00943224)
(0.0105058 -0.0183935 0.00691776)
(0.00993237 -0.0176236 0.00664616)
(0.00170691 -0.0173713 0.00137356)
(0.00168512 -0.015964 0.000680907)
(0.00134452 -0.0178156 0.00135754)
(0.000525799 -0.0176772 0.0013372)
(0.00159078 -0.0162637 0.00062159)
(0.00534195 -0.0129135 0.000987527)
(0.00463157 -0.0131918 0.000543411)
(0.00578695 -0.0121777 0.00128611)
(0.00531373 -0.0131185 0.00074752)
(0.00496294 -0.0139308 0.000605836)
(0.00535308 -0.0119473 0.000817432)
(0.00620445 -0.0113488 0.00102821)
(0.00649901 -0.0108322 0.00136145)
(0.00633659 -0.0119458 0.00076502)
(0.0062249 -0.00981135 0.00144213)
(0.00266087 -0.0155015 0.000609555)
(0.00306439 -0.0149164 0.000377285)
(0.00333671 -0.0153406 0.000729779)
(0.00389282 -0.0149357 0.000523218)
(0.00344417 -0.0143952 0.000414714)
(0.0030391 -0.0160955 0.000938743)
(0.00168099 -0.0188386 0.00155793)
(0.00108279 -0.019059 0.00306898)
(0.00236125 -0.0189953 0.00225818)
(0.000739628 -0.0203454 0.00356889)
(0.00187183 -0.0207249 0.00268479)
(0.00176798 -0.0198156 0.00314757)
(0.00274737 -0.00852795 0.00489493)
(0.00305655 -0.00890095 0.00536576)
(0.0027989 -0.009077 0.00517903)
(0.00349095 -0.00843392 0.00503233)
(0.00316298 -0.00841319 0.0047345)
(0.00348442 -0.00812249 0.00465383)
(0.00913432 -0.0182543 0.00926292)
(0.00909639 -0.0173228 0.00866765)
(0.00831429 -0.0177262 0.00958758)
(0.00883105 -0.0166555 0.0086167)
(0.00888381 -0.0176218 0.00935385)
(0.00797713 -0.0176891 0.00981074)
(0.0103128 -0.0194336 0.00411857)
(0.010118 -0.0184125 0.00476479)
(0.0098284 -0.0186887 0.00359928)
(0.0102207 -0.0185381 0.00541317)
(0.00984161 -0.0176545 0.00462858)
(0.00947414 -0.0178348 0.00395266)
(0.0068956 -0.0189288 0.000717783)
(0.00846604 -0.0207005 0.00219159)
(0.00773046 -0.019129 0.000982369)
(0.00876351 -0.0193614 0.00115507)
(0.00863629 -0.0182952 0.00238732)
(0.00890323 -0.0204368 0.0014671)
(0.0100959 -0.0185448 0.00649212)
(0.00906262 -0.0175303 0.00714299)
(0.00937732 -0.0180235 0.00786857)
(0.00917258 -0.0180882 0.00790278)
(0.00999832 -0.0186066 0.00689743)
(-0.000487613 -0.0196045 0.00578868)
(-0.000647457 -0.0206187 0.00539949)
(0.00032571 -0.0199113 0.00655419)
(0.000604579 -0.0206697 0.00656136)
(0.000477439 -0.0216306 0.00678847)
(0.00105904 -0.0216002 0.00853613)
(0.00098291 -0.0197808 0.00751013)
(0.00128003 -0.0216938 0.00844677)
(1.07177e-05 -0.0199589 0.00625571)
(0.000238843 -0.0205197 0.00757161)
(-0.000297435 -0.0213377 0.00573756)
(-9.20054e-05 -0.0200346 0.00558364)
(0.000352562 -0.0217693 0.0075515)
(-0.000117567 -0.0203233 0.0066417)
(-0.00027748 -0.0185575 0.00409524)
(-0.000521527 -0.0201729 0.00572832)
(-0.000442158 -0.0197479 0.00487975)
(-2.60169e-05 -0.0202418 0.00495041)
(-0.00056504 -0.0194442 0.00558917)
(0.000342767 -0.0210121 0.00504286)
(0.000549393 -0.0211758 0.00656514)
(-0.000272896 -0.0190109 0.00476154)
(-0.000596318 -0.020147 0.00578848)
(0.000218303 -0.0210829 0.00478886)
(0.000123671 -0.0189395 0.0053384)
(0.00260332 -0.0148465 0.00066232)
(0.0023473 -0.0144626 0.000454198)
(0.00309261 -0.0130474 0.000588145)
(0.00347175 -0.0132939 0.000771149)
(0.00299332 -0.013891 0.000665491)
(0.00282933 -0.0141026 0.000488642)
(0.00145234 -0.0189303 0.00869756)
(0.00250364 -0.0210473 0.00962648)
(0.00219429 -0.019974 0.00984207)
(0.00131185 -0.0203129 0.00908051)
(0.00324016 -0.0201296 0.0101671)
(0.00254382 -0.0192267 0.00951618)
(0.00319399 -0.0188867 0.00929566)
(0.00419088 -0.0193704 0.00982206)
(0.00308107 -0.0195969 0.00973608)
(0.00404965 -0.0188756 0.00947914)
(0.00509579 -0.0195387 0.00985083)
(0.00514825 -0.0186362 0.00965109)
(0.00504759 -0.0182742 0.00954221)
(0.00479981 -0.0189456 0.00960983)
(0.00149664 -0.0213512 0.00871966)
(0.00091343 -0.0211107 0.00886362)
(0.000998549 -0.0202198 0.00898519)
(0.00209201 -0.020137 0.00907748)
(0.00242027 -0.0198648 0.00862339)
(0.010943 -0.0157023 0.0043558)
(0.0110139 -0.0154274 0.0062572)
(0.0111919 -0.0155298 0.00469207)
(0.0109901 -0.0157177 0.00608155)
(0.011711 -0.0171039 0.00513374)
(0.0119176 -0.0161884 0.00568835)
(0.00838123 -0.0177611 0.00899804)
(0.00812187 -0.0182676 0.00940339)
(0.00780829 -0.0180741 0.00978245)
(0.00877295 -0.017939 0.00884409)
(0.00763341 -0.0182976 0.00965679)
(0.00742535 -0.0186004 0.0100474)
(0.00669662 -0.0178916 0.010886)
(0.00753614 -0.0161305 0.00979182)
(0.00768109 -0.0173833 0.0103471)
(0.00734485 -0.0167246 0.0102966)
(0.00641748 -0.0172245 0.0101961)
(0.00762303 -0.0162276 0.00990021)
(0.0113796 -0.0165788 0.00629088)
(0.0106961 -0.0154526 0.0052829)
(0.0102607 -0.0156336 0.00705599)
(0.0104338 -0.0159524 0.00657714)
(0.0109308 -0.0169505 0.00566161)
(0.0105593 -0.0159926 0.00499589)
(0.0100208 -0.0154265 0.00860337)
(0.0108308 -0.015918 0.00833291)
(0.00354488 -0.0194551 0.00944193)
(0.00209925 -0.0189187 0.00846329)
(0.00287072 -0.0185991 0.00914396)
(0.00248961 -0.0186508 0.00878434)
(0.00432449 -0.0189404 0.0106277)
(0.00516531 -0.0199715 0.0111087)
(0.00418401 -0.0194141 0.0104955)
(0.00567674 -0.0191306 0.0107235)
(0.00587867 -0.0186082 0.010291)
(0.00314922 -0.0190854 0.00958474)
(0.00384887 -0.0189189 0.0100484)
(0.00421 -0.0184605 0.0103762)
(0.00413816 -0.0193306 0.0109385)
(0.00288523 -0.0192824 0.00981806)
(0.00451341 -0.0194063 0.0100817)
(0.00493052 -0.0185343 0.00926798)
(0.00542165 -0.0183034 0.00907721)
(0.00572187 -0.0191179 0.00931233)
(0.0058578 -0.0186901 0.00923131)
(0.00476685 -0.0187266 0.00929526)
(0.00609984 -0.0185187 0.00892483)
(0.00764499 -0.019385 0.00925486)
(0.0067941 -0.0184198 0.00895307)
(0.00799138 -0.0189792 0.00863361)
(0.005902 -0.0195111 0.0103804)
(0.00605854 -0.0186922 0.00956126)
(0.00270015 -0.0154151 0.00144664)
(0.00240491 -0.0140873 0.000707722)
(0.00156498 -0.0150331 0.00104123)
(0.00253085 -0.016125 0.00147424)
(0.00259422 -0.0138652 0.000970621)
(0.00380361 -0.0101904 0.0026422)
(0.00324365 -0.00939499 0.00190977)
(0.00318342 -0.00952182 0.00180541)
(0.00305997 -0.00878281 0.00199121)
(0.00314761 -0.00834926 0.00229016)
(0.00838915 -0.0185789 0.00568515)
(0.00914249 -0.0199259 0.00397337)
(0.00859125 -0.0189867 0.00455888)
(0.00967356 -0.0216749 0.00619191)
(0.00880196 -0.0191493 0.00589697)
(0.00867112 -0.0191536 0.00670254)
(0.00944521 -0.0185543 0.00412581)
(0.00973337 -0.019013 0.00524151)
(0.00942116 -0.0180273 0.00528477)
(0.00964246 -0.0189096 0.00584234)
(0.00953863 -0.0193822 0.00353841)
(0.00978873 -0.0195955 0.00471389)
(0.00830236 -0.0190348 0.00579354)
(0.00760323 -0.0183614 0.00646634)
(0.00807402 -0.0188144 0.0056171)
(0.00809416 -0.0188137 0.00619837)
(0.00822098 -0.0195717 0.00653291)
(0.00702784 -0.018759 0.00845031)
(0.00778691 -0.0184231 0.00784803)
(0.00670741 -0.0180509 0.00878505)
(0.00681443 -0.0193359 0.00904926)
(0.00683812 -0.017744 0.00796023)
(0.0063152 -0.0187657 0.00883761)
(0.00760299 -0.0193255 0.00880047)
(0.00748169 -0.0177109 0.00692283)
(0.00774026 -0.0199059 0.00366127)
(0.00809203 -0.0188852 0.00412681)
(0.00785698 -0.0187333 0.00394323)
(0.00715455 -0.0188339 0.00277362)
(0.00741335 -0.0189435 0.00292277)
(0.00756452 -0.0176037 0.00327898)
(0.00777377 -0.0220906 0.00210484)
(0.00767173 -0.0200972 0.00236608)
(0.00762627 -0.0204496 0.00262735)
(0.00886001 -0.0208552 0.00336024)
(0.00867581 -0.0219374 0.00313593)
(0.00750849 -0.0188789 0.0026552)
(0.00413662 -0.00774926 0.00313739)
(0.00421792 -0.00778943 0.00298123)
(0.00415717 -0.00786679 0.00331193)
(0.00408254 -0.0077147 0.00351856)
(0.00416268 -0.00772235 0.00314957)
(0.000637969 -0.012025 0.00598804)
(0.00067361 -0.0125115 0.00601109)
(0.000239094 -0.0127938 0.0055408)
(8.0472e-05 -0.0134463 0.00549499)
(0.000280031 -0.0137748 0.00553962)
(0.000354736 -0.0129432 0.00599833)
(0.00484039 -0.020499 -0.000624741)
(0.00634095 -0.0208686 -0.000149847)
(0.00424395 -0.0199862 -0.000186605)
(0.00649119 -0.0197864 -0.000660866)
(0.00586194 -0.0198512 -0.0010516)
(0.00515705 -0.020552 0.000309516)
(0.00622132 -0.0231134 -0.000351096)
(0.00730107 -0.021969 0.000849702)
(0.00661948 -0.0193333 8.30679e-05)
(0.00837738 -0.02069 0.000867267)
(0.00941477 -0.0215513 0.0013309)
(0.0079618 -0.0209913 -0.000450237)
(0.00677239 -0.0210335 -0.000558707)
(0.00852091 -0.0196153 0.00149814)
(0.00804506 -0.0218052 0.000818702)
(0.00715907 -0.0218331 0.000452311)
(0.0071956 -0.0186148 -9.53312e-05)
(0.00704148 -0.0213624 0.00019588)
(0.00785147 -0.0197409 0.00077715)
(0.000884849 -0.0112087 0.00570906)
(0.00198307 -0.0100711 0.00554594)
(0.00223709 -0.00942376 0.00556667)
(0.0016058 -0.0102798 0.00614727)
(0.0013757 -0.0105247 0.00577727)
(0.000501399 -0.0140555 0.00571063)
(-0.000191253 -0.0138538 0.00556225)
(0.000546639 -0.0127739 0.00555707)
(-0.000185331 -0.014395 0.00543603)
(0.000636527 -0.012678 0.00567663)
(0.000792531 -0.0119623 0.00559853)
(0.0030685 -0.0201793 0.000249712)
(0.00258505 -0.0221573 0.000619803)
(0.00339467 -0.0209638 -0.000225455)
(0.00314518 -0.0209224 0.000285026)
(0.00155431 -0.0203645 0.000794678)
(0.00286782 -0.0207381 0.00163219)
(0.000189803 -0.0173416 0.00383034)
(-5.8421e-05 -0.0180335 0.00344029)
(0.00160238 -0.0193426 0.00267991)
(0.000351033 -0.0182908 0.0025206)
(0.00116117 -0.0189776 0.00380435)
(0.00123451 -0.0201474 0.00251502)
(-0.000884696 -0.017285 0.00383007)
(-0.000761241 -0.0157083 0.00489381)
(-0.00116376 -0.0146894 0.0048301)
(-0.00101675 -0.0165872 0.00423779)
(-0.000687134 -0.0172713 0.00514374)
(-0.00126206 -0.0179923 0.00393998)
(-2.10701e-05 -0.0212086 0.00297769)
(-0.00115767 -0.0190761 0.00384644)
(0.000281261 -0.0203129 0.0027372)
(-0.000979973 -0.0182604 0.00275924)
(-0.000302161 -0.0184873 0.00323557)
(-0.000352031 -0.0178843 0.00379086)
(0.00218948 -0.0201301 0.00232695)
(0.00283513 -0.0200509 0.000887998)
(0.00178226 -0.0204963 0.00131141)
(0.0025516 -0.0188048 0.00115844)
(0.00317845 -0.0201821 0.000840777)
(0.00150701 -0.0199721 0.00203744)
(0.00588549 -0.0185567 0.00817008)
(0.00612765 -0.0181047 0.00801921)
(0.00698981 -0.0191489 0.00766063)
(0.00649541 -0.0193713 0.00249845)
(0.00694192 -0.0189787 0.00329144)
(0.00720429 -0.019204 0.00404846)
(0.00256809 -0.00881654 0.00433918)
(0.00217916 -0.00918054 0.00475959)
(0.00173864 -0.00994967 0.00501979)
(0.00202757 -0.00869313 0.00442107)
(0.00222822 -0.00837961 0.00421041)
(0.00219767 -0.00832568 0.00418602)
(0.00126818 -0.0101108 0.00491763)
(0.000634272 -0.0107912 0.00524295)
(0.00270438 -0.00820686 0.00355953)
(0.0028921 -0.00850921 0.00351803)
(0.00269497 -0.00804929 0.00358327)
(0.000895967 -0.0105654 0.00539489)
(0.00170385 -0.00990659 0.00500898)
(0.000697537 -0.0111022 0.00563028)
(0.00203888 -0.00977471 0.00496942)
(0.00147884 -0.00973482 0.00494067)
(-0.000133554 -0.0124522 0.00541245)
(0.000364261 -0.0123312 0.0054959)
(-0.00021819 -0.0131525 0.00558822)
(0.00038824 -0.0122614 0.00551395)
(-8.14965e-05 -0.0138432 0.00570195)
(0.000421612 -0.0117486 0.00551387)
(7.13425e-05 -0.0122798 0.0052623)
(0.000289757 -0.0118773 0.00524197)
(-0.000221308 -0.0139287 0.00544425)
(-0.000420282 -0.0127855 0.00488593)
(-0.000161036 -0.0135878 0.00483139)
(-5.36957e-05 -0.0121423 0.00520469)
(-0.000826729 -0.0157994 0.00503483)
(-0.00126131 -0.0171591 0.00431502)
(-0.000918125 -0.0158368 0.00415673)
(-0.000708693 -0.0145479 0.00501152)
(-0.00044224 -0.0151915 0.0051083)
(-0.000522348 -0.0165397 0.00479143)
(0.00258742 -0.00821004 0.00381396)
(0.00315963 -0.00806214 0.00356169)
(0.00294002 -0.00801237 0.00385968)
(0.00298968 -0.00789364 0.00340806)
(0.00284718 -0.00827369 0.00407587)
(0.00354321 -0.00813128 0.00290374)
(0.00353154 -0.00822194 0.00318124)
(0.00332618 -0.00805777 0.00311797)
(0.00360755 -0.00846157 0.00278317)
(0.00368422 -0.00847486 0.00264587)
(0.00331532 -0.00806031 0.00336707)
(0.00409601 -0.00985396 0.00208325)
(0.00395184 -0.0100173 0.00166464)
(0.00382293 -0.0088811 0.0022448)
(0.00385049 -0.00906394 0.00227491)
(0.0038384 -0.00978232 0.00177336)
(0.00370913 -0.00916935 0.0019187)
(0.00293689 -0.0079138 0.00287161)
(0.00283107 -0.00792649 0.0030883)
(0.00278026 -0.0077916 0.00304446)
(0.0031418 -0.00825674 0.0028157)
(0.00338522 -0.00894257 0.00290889)
(0.00293756 -0.00818915 0.00286289)
(0.00738079 -0.0205684 0.00368116)
(0.00713869 -0.0202115 0.00247662)
(0.00628763 -0.0199682 0.00239717)
(0.00632242 -0.0212575 0.00213175)
(0.00657838 -0.0199301 0.00231316)
(0.00640799 -0.0194664 0.00220517)
(0.00869036 -0.0187646 0.00230773)
(0.0083991 -0.0193099 0.00215004)
(0.00865323 -0.0203497 0.00197172)
(0.00921032 -0.0191842 0.0031541)
(0.00886177 -0.019804 0.00250344)
(0.00920705 -0.0192888 0.00302486)
(0.00758155 -0.0203619 0.00127017)
(0.00642077 -0.0196175 0.000504846)
(0.00749477 -0.0189169 0.00167427)
(0.00595312 -0.019169 0.000835999)
(0.00697661 -0.0207377 0.00178918)
(0.00722795 -0.0189957 0.00164963)
(0.00191779 -0.0192427 0.00504486)
(0.00185536 -0.0193393 0.00318218)
(0.00158613 -0.0199694 0.00565315)
(0.00203937 -0.0203779 0.00524574)
(0.00252654 -0.0210038 0.00446654)
(0.00226078 -0.0197763 0.00391934)
(0.00400268 -0.0157168 0.000402055)
(0.00470029 -0.0141635 0.000256157)
(0.00454175 -0.015583 -2.56017e-05)
(0.00444695 -0.0166993 0.000389142)
(0.0045532 -0.0133099 -0.000101194)
(0.00515804 -0.0159028 0.000322002)
(0.00269 -0.018926 0.0018651)
(0.00175867 -0.0192243 0.00226379)
(0.00295602 -0.0177379 0.00141813)
(0.00241157 -0.0202821 0.00298954)
(0.00312181 -0.0188023 0.00146806)
(0.00286215 -0.020231 0.00238736)
(0.00150732 -0.0213187 0.00629806)
(0.00107888 -0.0204508 0.00518828)
(0.00117868 -0.020952 0.0046118)
(0.000987098 -0.0207635 0.00609985)
(0.00155498 -0.0208542 0.00500331)
(0.0015475 -0.0200948 0.0040189)
(0.00381544 -0.0153813 0.000561136)
(0.00406486 -0.0165143 0.000267549)
(0.00287681 -0.0176447 0.00098126)
(0.00327169 -0.0181125 0.00108318)
(0.00321855 -0.0163398 0.000395068)
(0.00361273 -0.0173686 0.000618609)
(0.000729667 -0.0203049 0.0045967)
(0.00135079 -0.0203175 0.00376905)
(0.000585078 -0.0206159 0.00385777)
(0.000865845 -0.0197533 0.0029283)
(0.000284274 -0.021493 0.00463954)
(0.000927138 -0.0185186 0.00257736)
(0.00155201 -0.0166337 0.000575196)
(0.00221287 -0.0160868 0.000628594)
(0.00239367 -0.0160734 0.000895333)
(0.00291596 -0.0155203 0.000687866)
(0.00269237 -0.0150239 0.000643811)
(0.00194825 -0.0171682 0.00117239)
(0.00173132 -0.0173927 0.000991415)
(0.000988121 -0.0183426 0.00241414)
(0.00196291 -0.0177779 0.0013907)
(0.000747442 -0.0196535 0.00250545)
(0.00182499 -0.0187454 0.00183818)
(0.00168331 -0.018974 0.00226333)
(0.0026773 -0.0174871 0.00134969)
(0.00173681 -0.018029 0.00130511)
(0.00344331 -0.0171793 0.00108942)
(0.00310051 -0.016864 0.000916937)
(0.00244102 -0.0184105 0.00199052)
(0.00263935 -0.0180724 0.00112198)
(0.00399507 -0.0149406 0.000634058)
(0.00393485 -0.0141783 -8.91918e-05)
(0.00464733 -0.0143904 0.000648115)
(0.004082 -0.0128304 -4.67907e-06)
(0.00374768 -0.0155866 2.94013e-05)
(0.00422638 -0.0121535 0.000390365)
(0.00439171 -0.00802597 0.00457143)
(0.00406765 -0.00783039 0.00430044)
(0.00438299 -0.00737313 0.00409571)
(0.0045253 -0.0076139 0.00363731)
(0.00401565 -0.00724746 0.00415842)
(0.00352005 -0.00741712 0.00447951)
(0.00470517 -0.00787508 0.00416964)
(0.00409969 -0.00745632 0.00386893)
(0.00458505 -0.00759022 0.0042921)
(0.00424558 -0.00761752 0.00491967)
(0.00398572 -0.00775165 0.00453756)
(0.00403973 -0.00727582 0.00417228)
(0.00448489 -0.00835881 0.00498564)
(0.0044168 -0.0073272 0.00458756)
(0.00476609 -0.00776307 0.00491357)
(0.00366898 -0.00779759 0.00466874)
(0.00534118 -0.0079453 0.00346392)
(0.00528906 -0.00741787 0.00356015)
(0.00514785 -0.00750703 0.00400697)
(0.00478396 -0.00742978 0.00396305)
(0.00498964 -0.00763935 0.00443568)
(0.00564923 -0.00789417 0.00336782)
(0.00603203 -0.0119796 0.00101387)
(0.00527998 -0.0122848 0.00043082)
(0.00629945 -0.0114708 0.00132595)
(0.00539893 -0.0114119 0.000623115)
(0.00572877 -0.0123147 0.00115079)
(0.0056974 -0.0110414 0.00123614)
(0.00508779 -0.00800658 0.00246389)
(0.00628626 -0.00990976 0.00189419)
(0.00585744 -0.00892819 0.00198493)
(0.00554371 -0.00833391 0.00271256)
(0.00530795 -0.00858524 0.00243621)
(0.00547706 -0.00912631 0.00201952)
(0.00570082 -0.00832283 0.00258216)
(0.00625954 -0.0136313 0.000988757)
(0.00533472 -0.0137089 9.34682e-05)
(0.00576116 -0.0143838 0.000591221)
(0.00576628 -0.0157221 0.000431867)
(0.00600145 -0.0159327 0.000585015)
(0.00616519 -0.014382 8.42008e-05)
(0.00452887 -0.0091027 0.00190519)
(0.0046405 -0.00933026 0.00199351)
(0.00472798 -0.00911424 0.0024927)
(0.00453973 -0.00873848 0.00211315)
(0.00422959 -0.00818517 0.00232406)
(0.00445988 -0.0083574 0.00240136)
(0.0043772 -0.0098454 0.00165146)
(0.00467734 -0.010213 0.00181537)
(0.00424531 -0.0103682 0.00111934)
(0.00422629 -0.00992618 0.00146745)
(0.00412258 -0.00856459 0.00188431)
(0.00424725 -0.00895303 0.00194619)
(0.00338327 -0.00907679 0.00580171)
(0.0105267 -0.0181838 0.0013328)
(0.0103975 -0.0160149 0.00256391)
(0.0106813 -0.0176931 0.00199521)
(0.0111342 -0.0169766 0.0031268)
(0.0101687 -0.0167215 0.00283775)
(0.0103214 -0.0158653 0.00355691)
(0.0103077 -0.0165518 0.0026101)
(0.00984543 -0.0165278 0.00215894)
(0.0106977 -0.0158034 0.00379091)
(0.0038406 -0.0182918 0.0100213)
(0.00268977 -0.0202796 0.00996706)
(0.00464343 -0.0189738 0.0102307)
(0.00389771 -0.0204009 0.0100561)
(0.00301251 -0.0189763 0.00992164)
(0.00237233 -0.0198542 0.00812998)
(0.00304016 -0.0205113 0.00732276)
(-0.000625933 -0.0192531 0.0033811)
(-6.06949e-05 -0.0175169 0.00453993)
(-0.000665055 -0.0157232 0.00448)
(-0.000416168 -0.0166879 0.00484801)
(-0.000253743 -0.0183176 0.00393467)
(-1.16887e-05 -0.0179714 0.00344981)
(0.000757615 -0.0185778 0.00181232)
(0.000499823 -0.018724 0.00212718)
(0.00111274 -0.0189128 0.0031695)
(0.00202411 -0.0196444 0.0018133)
(0.00191806 -0.0213099 0.00152026)
(0.00042931 -0.020188 0.00307892)
(0.000605375 -0.0201462 0.00123234)
(0.00227764 -0.00884083 0.00475817)
(0.00244325 -0.00924096 0.00489681)
(0.00263297 -0.00883236 0.00472708)
(0.00285423 -0.0084292 0.00447535)
(0.00288311 -0.0086035 0.0046554)
(0.00145891 -0.00972535 0.00553047)
(0.0011863 -0.0111612 0.00587814)
(0.00110874 -0.0106155 0.00572463)
(0.00249255 -0.00822386 0.00460921)
(0.00204359 -0.00977883 0.00566484)
(0.00145613 -0.0105202 0.00562883)
(0.00209637 -0.00923589 0.00510385)
(0.00204639 -0.0100452 0.00549818)
(0.00190776 -0.00973514 0.00536356)
(0.00116376 -0.0110857 0.00553135)
(0.0012613 -0.0103385 0.00539407)
(0.00158571 -0.0099374 0.00545591)
(0.00154186 -0.0109465 0.00567605)
(0.00189509 -0.0100533 0.00553901)
(0.00354855 -0.00755727 0.00370761)
(0.00373491 -0.00785467 0.00383426)
(0.00358328 -0.00756081 0.00379478)
(0.00284885 -0.00807199 0.00446913)
(0.00359753 -0.00793138 0.00391442)
(0.00336484 -0.00819671 0.00439624)
(0.00347014 -0.00787767 0.00411905)
(0.00345282 -0.00775602 0.0040926)
(0.00281296 -0.0203739 0.00963011)
(0.0018062 -0.0202315 0.00911642)
(0.00110868 -0.0197931 0.00802617)
(0.00146134 -0.0201704 0.00772303)
(0.00153349 -0.0207256 0.00824998)
(0.0021342 -0.0198618 0.00902392)
(0.00923408 -0.018623 0.00173275)
(0.00328051 -0.0121056 0.0014037)
(0.00245355 -0.00897103 0.00487073)
(0.0029445 -0.00822221 0.00448763)
(0.0006228 -0.0185477 0.00443883)
(0.000498407 -0.0206537 0.00231089)
(0.00111555 -0.020244 0.00147414)
(0.00246442 -0.0215585 0.000733808)
(0.0015757 -0.0208043 0.000758267)
(0.00255319 -0.0219134 0.000801198)
(0.00157765 -0.0210876 0.00131887)
(0.0011086 -0.0209923 0.00143261)
(0.00275644 -0.0222224 0.00179958)
(0.000983603 -0.0207583 0.00113351)
(0.00264201 -0.0215687 0.00126727)
(0.00244933 -0.0206561 0.000400028)
(0.0023496 -0.00986407 0.00588112)
(0.00224928 -0.0102389 0.00599435)
(0.00214575 -0.0101269 0.00572578)
(0.00208093 -0.0104118 0.00601512)
(0.00249817 -0.0100443 0.00580887)
(0.00474385 -0.00744736 0.00446581)
(0.00392458 -0.00763414 0.00491985)
(0.00284542 -0.00933686 0.00548772)
(0.00296972 -0.00927655 0.00570614)
(0.00280276 -0.00915841 0.00575533)
(0.00260837 -0.00954091 0.00598886)
(0.00333491 -0.00815276 0.0049798)
(0.00252631 -0.0191514 0.00843017)
(0.00180978 -0.0190091 0.00775291)
(0.00174079 -0.0208737 0.00912288)
(0.00295074 -0.0207815 0.00905945)
(0.00433292 -0.0172717 0.0100552)
(0.00454703 -0.0183307 0.0109182)
(0.00374278 -0.018725 0.0106029)
(0.00367397 -0.0182842 0.00979272)
(0.00354678 -0.0188436 0.00932805)
(0.00576179 -0.0177123 0.0107149)
(0.01007 -0.0190618 0.00159616)
(0.00184858 -0.010635 0.00630244)
(0.00380567 -0.00854019 0.00529475)
(0.00306434 -0.00837993 0.00535785)
(0.00278124 -0.008652 0.00522925)
(0.00291506 -0.00787501 0.00481018)
(0.00245502 -0.010318 0.00613425)
(0.00362353 -0.0086082 0.00562061)
(0.00284135 -0.00858572 0.00548478)
(0.00381783 -0.00835469 0.00536232)
(0.0030614 -0.00937897 0.00574951)
(0.00233037 -0.0107567 0.00651874)
(0.0050789 -0.00901262 0.00276142)
(0.00505491 -0.00870765 0.00245884)
(0.00492551 -0.00877201 0.00212824)
(0.00484341 -0.00803693 0.00263613)
(0.00492111 -0.0081968 0.00261985)
(0.00562882 -0.00935433 0.00198162)
(0.00531901 -0.00901929 0.00230056)
(0.00520476 -0.00927164 0.00194158)
(0.00402421 -0.0120727 0.00105568)
(0.00435427 -0.0132581 0.000509255)
(0.00437472 -0.0110913 0.00146498)
(0.00407339 -0.0110381 0.000887211)
(0.00445914 -0.00884855 0.00243417)
(0.00412795 -0.00814938 0.00257559)
(0.00468461 -0.00865827 0.00235856)
(0.0042064 -0.00782776 0.00260887)
(0.00399531 -0.00806491 0.00246294)
(0.00436919 -0.00879271 0.00245648)
(0.00472673 -0.0101953 0.00179872)
(0.00437264 -0.01033 0.00149983)
(0.00492922 -0.0103608 0.00165455)
(0.00524028 -0.00975408 0.00222604)
(0.0048079 -0.00959802 0.00161925)
(0.00472249 -0.00917854 0.00189497)
(0.00471593 -0.0107556 0.00125356)
(0.00507918 -0.0107865 0.00114772)
(0.00488089 -0.012522 0.0011425)
(0.00451482 -0.0105038 0.000639211)
(0.00517094 -0.0129364 0.000753105)
(0.00460731 -0.0108491 0.00135019)
(0.00476786 -0.0102122 0.00174221)
(0.0055665 -0.00784353 0.00300696)
(0.00623149 -0.00933037 0.00180521)
(0.00531789 -0.00842128 0.00232909)
(0.00526236 -0.00926644 0.00140786)
(0.00613178 -0.0104585 0.00137076)
(0.00541478 -0.0096909 0.00134726)
(0.00631371 -0.0124481 0.00102741)
(0.00519607 -0.0131157 0.000925909)
(0.0048585 -0.00723433 0.00419962)
(0.00493396 -0.00814803 0.00305456)
(0.00408518 -0.0121746 0.000728625)
(0.00123868 -0.0201666 0.00764887)
(0.00179635 -0.019749 0.00221029)
(0.00107807 -0.0202766 0.00657223)
(0.000643238 -0.0204054 0.00598442)
(0.0015806 -0.0221986 0.00745205)
(0.00320124 -0.0156267 0.000433389)
(0.00174102 -0.020202 0.00787413)
(0.00166519 -0.0192243 0.00720461)
(0.00393089 -0.0176068 0.000841472)
(0.00166158 -0.0204548 0.00730907)
(0.00114843 -0.0217636 0.00767066)
(0.00238812 -0.0201224 0.00610509)
(0.00182538 -0.0207513 0.00402319)
(0.00286752 -0.0202242 0.00342578)
(0.00150621 -0.0202324 0.00643056)
(0.00525056 -0.0157184 0.000644636)
(0.00704372 -0.0226895 0.0016494)
(0.00693111 -0.0218584 0.00104957)
(0.00703244 -0.0199119 0.00133829)
(0.00812433 -0.0206399 0.00246986)
(0.00246121 -0.0215724 0.00132927)
(0.00345264 -0.0224563 0.000814426)
(0.00551765 -0.0205508 0.00118485)
(0.00429463 -0.0205028 -0.000162228)
(0.00552658 -0.0217013 0.000657032)
(0.00352892 -0.0210086 0.000432821)
(0.0035185 -0.0216441 0.000182584)
(0.00431525 -0.021495 0.000825135)
(0.00557694 -0.0216123 0.000978179)
(-0.00133982 -0.0170718 0.00376228)
(-0.00127821 -0.0164261 0.00436885)
(-0.000496961 -0.0174298 0.00415068)
(0.00626513 -0.0193994 0.00129749)
(0.00571399 -0.020639 0.00132278)
(0.00558903 -0.0200432 0.00179319)
(0.00606341 -0.0191521 0.00162149)
(0.00673282 -0.0197395 0.00251945)
(0.00343567 -0.00840056 0.00258842)
(0.00368654 -0.00893206 0.00266281)
(0.00396106 -0.0108082 0.00181838)
(0.00330416 -0.00839298 0.00256153)
(0.00366868 -0.00946897 0.0021439)
(0.00356826 -0.008813 0.0029003)
(0.00381582 -0.00901968 0.00253605)
(0.00366191 -0.0085119 0.00241998)
(0.00355581 -0.00847653 0.0026135)
(0.00327098 -0.0080005 0.00284565)
(0.00333461 -0.0082716 0.00306814)
(0.00335553 -0.00817325 0.00292736)
(0.0031543 -0.00823591 0.00307453)
(0.0034362 -0.00834191 0.00307016)
(0.00270108 -0.00777121 0.00347979)
(0.00305039 -0.00802838 0.00379016)
(0.0032332 -0.00801909 0.00314084)
(0.00319832 -0.0079074 0.00319838)
(0.00324845 -0.00801042 0.00317801)
(0.00247221 -0.00776214 0.00372117)
(0.00296426 -0.00817576 0.00354014)
(0.000292411 -0.0191422 0.00200985)
(0.00329069 -0.0117815 0.00102523)
(0.00329361 -0.01283 0.00121964)
(0.0028181 -0.013573 0.00120687)
(0.0028834 -0.0143023 0.000707786)
(0.00223899 -0.0142041 0.000935461)
(0.00362547 -0.0102335 0.00125938)
(0.00334444 -0.0115113 0.000940769)
(0.00351421 -0.0127981 0.00114608)
(0.00302472 -0.0127916 0.000764415)
(0.00389878 -0.0116173 0.00131744)
(0.00345191 -0.0121616 0.00112794)
(0.00367518 -0.0114051 0.00145686)
(-0.00142803 -0.0151815 0.00416889)
(-0.00120873 -0.0176359 0.00428362)
(-0.000912094 -0.0160184 0.00514003)
(-0.000802967 -0.0154149 0.00491848)
(0.000650714 -0.0179243 0.00245777)
(-0.000212106 -0.0179797 0.0024587)
(-0.000261329 -0.0172439 0.00226093)
(0.00147809 -0.0157288 0.00142782)
(0.00115984 -0.0168936 0.00183505)
(0.00196163 -0.0137025 0.00063955)
(0.00210105 -0.0153776 0.00117806)
(0.00179198 -0.0151671 0.00120578)
(0.00141262 -0.016217 0.00129618)
(0.000794249 -0.0164801 0.0014841)
(0.000622398 -0.0177825 0.00198456)
(0.00257863 -0.0205536 0.00164469)
(0.0023183 -0.0217842 0.00120258)
(0.00181147 -0.0211721 0.00122321)
(0.00244853 -0.0199623 0.0006358)
(0.00173567 -0.0214419 0.00143084)
(0.00434077 -0.0222248 0.00180279)
(0.00502362 -0.0209946 0.00171876)
(0.00501 -0.0212689 0.00160302)
(0.00396532 -0.020655 0.000767714)
(0.00321531 -0.0212031 0.00103328)
(0.00303371 -0.0210499 0.00108518)
(-0.000546265 -0.0193391 0.00241117)
(7.97002e-05 -0.0205448 0.00190617)
(0.000487763 -0.0212796 0.00158427)
(-0.000967004 -0.0186942 0.00239331)
(-0.000949904 -0.0194892 0.00341546)
(-0.000731102 -0.0188628 0.00258837)
(-0.000423864 -0.0183065 0.00324534)
(0.00062133 -0.0205123 0.00106611)
(0.00045992 -0.0207624 0.00279758)
(9.11348e-05 -0.0206076 0.00221672)
(-9.66949e-05 -0.0209363 0.00146487)
(0.00145847 -0.0204816 0.00159985)
(0.00100434 -0.0200967 0.00192881)
(-0.000338844 -0.0146356 0.00546327)
(-0.000285216 -0.0194626 0.00254039)
(-0.00114874 -0.0178589 0.00366383)
(-0.000488927 -0.017342 0.00510775)
(0.0030464 -0.00846225 0.00326386)
(0.0027492 -0.00790698 0.00334379)
(0.00259423 -0.00778288 0.00354736)
(0.000844176 -0.0114405 0.0055975)
(0.00109295 -0.0110536 0.00513319)
(0.000497848 -0.0108541 0.00501867)
(0.000630839 -0.0114316 0.00543332)
(0.000873766 -0.0106569 0.00516832)
(0.00442225 -0.0197902 0.00100892)
(0.00442175 -0.0210781 0.00138442)
(0.00330667 -0.0204427 0.00157136)
(0.00748388 -0.0190616 0.00382319)
(0.00719068 -0.0195633 0.0030218)
(0.00512483 -0.0186725 0.00894422)
(0.00593329 -0.0183193 0.00868293)
(0.00182403 -0.0116456 0.00635222)
(0.00130986 -0.0113669 0.00581602)
(0.00163809 -0.0108763 0.00595549)
(0.00153583 -0.0117022 0.00611449)
(0.000809541 -0.012265 0.00603326)
(0.0016734 -0.0120399 0.00647035)
(0.00199318 -0.0112142 0.00630756)
(0.000682681 -0.0133754 0.00616247)
(0.00160105 -0.0130057 0.00626912)
(0.000458773 -0.0166843 0.00569084)
(0.00528687 -0.0210891 0.000428154)
(0.0017448 -0.0217711 0.00136162)
(0.00167279 -0.0212643 0.00142197)
(0.00463158 -0.0228391 0.0005332)
(0.00216024 -0.0216511 0.00095802)
(0.00398867 -0.0226377 0.00169465)
(0.0051297 -0.0216458 0.00131713)
(0.00198347 -0.0208144 0.000851205)
(0.00269775 -0.0218433 0.000873973)
(0.0020752 -0.0215949 0.000753307)
(0.00377628 -0.0217263 0.000404352)