/*--------------------------------*- C++ -*----------------------------------*\
| =========                 |                                                 |
| \\      /  F ield         | OpenFOAM: The Open Source CFD Toolbox           |
|  \\    /   O peration     | Version:  v1612+                                |
|   \\  /    A nd           | Web:      www.OpenFOAM.com                      |
|    \\/     M anipulation  |                                                 |
\*---------------------------------------------------------------------------*/
FoamFile
{
    version     2.0;
    format      ascii;
    class       surfaceScalarField;
    location    "100";
    object      phi;
}
// * * * * * * * * * * * * * * * * * * * * * * * * * * * * * * * * * * * * * //

dimensions      [0 3 -1 0 0 0 0];

internalField   nonuniform List<scalar> 
46493
(
-3.08162e-09
3.03436e-09
2.16812e-09
-2.12085e-09
4.03252e-09
-7.34926e-09
3.70112e-09
-3.84379e-10
-7.28034e-09
-4.09465e-09
7.37904e-09
3.99595e-09
2.16308e-09
-2.34931e-09
9.21206e-11
9.40888e-11
-2.36247e-09
-3.60363e-09
2.42603e-09
3.54008e-09
-3.02561e-09
-3.2215e-09
2.91267e-09
3.33445e-09
2.89497e-09
-1.31486e-09
-1.6857e-09
1.05585e-10
-3.52633e-09
-3.57463e-09
3.24921e-09
3.85177e-09
-2.68127e-09
8.20998e-11
3.45695e-09
-8.57786e-10
2.31923e-09
6.6025e-09
-1.75679e-09
-7.16494e-09
-9.27094e-10
2.33293e-09
-1.4741e-09
6.82556e-11
-2.0189e-09
3.43586e-09
1.4587e-09
-2.87566e-09
-1.3952e-09
-5.38484e-09
7.4243e-10
6.03761e-09
1.01724e-09
-4.62733e-09
2.41105e-09
1.19907e-09
-6.75583e-09
5.07244e-09
2.95911e-09
-1.27571e-09
-5.1081e-09
1.79487e-09
-4.12986e-09
-7.32432e-10
-6.99923e-09
-3.80982e-09
1.15415e-08
-6.47449e-09
-3.92532e-09
1.11724e-08
-7.72575e-10
1.07794e-08
-9.5356e-09
-7.71826e-09
-3.70449e-09
1.15457e-09
2.54971e-09
2.10885e-13
4.7587e-09
2.76302e-09
1.56394e-09
-9.08565e-09
-5.60376e-09
-3.1819e-09
8.05323e-09
8.73199e-09
-3.88106e-09
-2.32645e-09
-2.52447e-09
-2.01669e-09
-3.23279e-09
3.6749e-09
1.57457e-09
-9.22568e-09
7.16902e-09
3.06971e-09
-1.01305e-09
-1.19379e-08
-3.0301e-09
5.74235e-09
-3.07163e-09
-3.59631e-09
1.01608e-08
-3.4929e-09
-3.29971e-10
2.66192e-09
6.53112e-10
-2.98509e-09
3.09432e-09
-4.06505e-10
-2.74806e-09
6.02509e-11
5.86512e-09
8.325e-10
-2.85905e-09
-3.83858e-09
-1.28213e-09
-6.85325e-09
7.25673e-09
8.78647e-10
1.50605e-09
4.02585e-09
-1.93701e-09
-3.59489e-09
8.29798e-10
1.27444e-09
4.67154e-09
-6.77577e-09
-6.14782e-09
7.18554e-09
-5.13934e-09
4.10161e-09
-8.05804e-09
3.67586e-09
6.17211e-09
-1.78993e-09
4.50729e-09
6.60041e-09
-1.09481e-08
-1.59643e-10
-2.45622e-09
-2.18222e-09
5.75812e-09
-1.11967e-09
-1.43575e-09
1.50075e-09
1.96815e-09
-2.03316e-09
-7.76472e-09
5.8452e-09
-1.10611e-09
3.02563e-09
9.04566e-09
-1.98732e-09
-1.98789e-09
-5.07046e-09
1.90693e-09
-3.42128e-09
1.45844e-09
5.58934e-11
-3.62874e-09
3.59173e-09
7.11468e-11
-3.41296e-11
1.7848e-09
-3.05234e-09
3.01404e-09
-1.7465e-09
-5.90823e-09
6.74399e-09
-3.25285e-09
2.41709e-09
1.10425e-09
6.80233e-09
-2.79683e-09
-5.10974e-09
3.00492e-09
2.29984e-09
-3.26696e-09
-2.03779e-09
-2.99768e-09
5.74679e-09
-4.11473e-09
1.36563e-09
4.0112e-10
3.10143e-09
-3.32903e-09
-1.73521e-10
5.90975e-09
8.17628e-10
-6.32627e-09
3.04791e-09
-1.07563e-08
1.40253e-09
6.30591e-09
-7.16799e-09
2.63356e-09
1.00811e-09
-3.42961e-09
-2.17919e-09
3.01063e-09
2.59817e-09
-1.28301e-09
3.64601e-09
-2.43695e-09
7.39552e-11
-1.85182e-09
-3.44404e-09
2.47563e-09
2.82025e-09
3.23665e-09
-1.61417e-09
2.11161e-09
5.01925e-09
-3.13115e-09
4.14131e-09
-4.03551e-09
3.73227e-09
3.93678e-09
-3.63354e-09
-2.84534e-11
1.92254e-09
-1.8551e-09
-3.8992e-11
-2.50422e-09
4.38692e-09
-2.25523e-09
3.72578e-10
2.91935e-09
-3.76652e-09
1.57781e-09
-7.30633e-10
-5.9606e-10
-2.31821e-09
7.12125e-09
-4.20699e-09
-5.77222e-09
4.53797e-09
1.30923e-09
-7.49861e-11
-9.62716e-10
-6.30839e-09
3.50764e-09
3.76347e-09
5.60402e-09
-1.12081e-10
-1.55818e-09
-3.93375e-09
2.73508e-09
-2.79825e-09
3.54746e-09
-3.48428e-09
-4.41554e-09
-2.774e-09
7.056e-09
1.33539e-10
6.63383e-09
-6.06606e-09
-4.81255e-09
4.24477e-09
-9.56955e-09
3.35993e-09
-2.1136e-09
8.32323e-09
1.23858e-09
4.49978e-09
-2.01454e-09
-3.72383e-09
-2.52688e-09
-1.70086e-09
4.18939e-09
3.83601e-11
-5.28264e-10
-1.91182e-09
2.45835e-09
-1.82805e-11
5.69541e-09
-1.18895e-09
-4.87763e-09
3.7116e-10
4.311e-11
-2.09428e-09
2.21492e-09
-1.63747e-10
4.26445e-09
-3.56972e-09
5.17037e-09
-2.72333e-09
1.59402e-09
6.52917e-09
-5.39985e-09
-5.05264e-09
1.26201e-09
-1.43867e-09
5.22931e-09
-2.29976e-09
-1.233e-09
3.47754e-09
5.52235e-11
-1.78789e-09
7.51556e-10
2.9587e-09
-1.92235e-09
-2.20882e-09
-1.21762e-09
7.06043e-11
4.39105e-09
1.24885e-09
-1.18739e-09
-4.45251e-09
-2.66494e-09
-2.55007e-09
5.07487e-09
1.40142e-10
3.84355e-09
-4.84652e-09
-1.887e-09
2.88996e-09
4.32544e-09
5.19982e-09
-5.80376e-09
-3.72149e-09
9.27065e-09
-2.55404e-09
-2.88434e-09
-3.83225e-09
-5.80017e-09
4.54644e-09
4.41171e-09
-3.15798e-09
3.75196e-09
-5.48276e-09
7.46089e-09
-5.7301e-09
-1.27598e-09
-5.02799e-09
-6.18255e-10
2.87028e-09
-6.87797e-09
4.05668e-09
-4.8985e-11
-3.24475e-09
3.03418e-09
3.12991e-09
-1.36602e-09
-1.27962e-09
-1.12088e-09
1.07605e-09
1.41598e-09
-2.37374e-09
-1.18286e-10
-3.78809e-09
7.5425e-09
3.34767e-10
-4.08917e-09
-2.2784e-09
-4.94681e-09
8.17626e-09
-9.51046e-10
9.71785e-10
6.60662e-09
-3.32095e-09
-4.25746e-09
2.0185e-09
3.33758e-09
-5.25351e-09
-1.02571e-10
2.87826e-09
1.19606e-09
-8.44819e-10
-3.22951e-09
5.19169e-09
-3.08944e-09
3.08801e-09
-5.19026e-09
9.05338e-10
2.12323e-09
-2.99832e-09
-3.02492e-11
3.83287e-09
-3.58537e-09
-2.59961e-09
2.35211e-09
-3.82657e-09
-3.90648e-09
7.69436e-09
3.87034e-11
4.90553e-09
-2.42502e-09
-2.54681e-09
6.62958e-11
2.6139e-09
1.43963e-09
6.55179e-10
-4.70871e-09
4.19833e-09
-3.50723e-09
-1.36393e-09
6.72848e-10
3.03344e-09
8.01279e-09
-6.84789e-09
7.03675e-09
2.07369e-09
2.23132e-09
1.86819e-09
-1.14895e-09
-3.05377e-09
2.23234e-09
1.84416e-09
5.57381e-11
-4.13223e-09
4.62812e-09
-6.6849e-09
1.29087e-09
7.65898e-10
3.29187e-11
-5.37005e-09
-3.60005e-10
5.69713e-09
-5.4064e-10
1.08258e-09
8.19007e-09
-1.79323e-09
-4.1345e-09
5.71979e-09
2.0795e-10
-1.77161e-10
-2.56709e-09
6.07521e-09
-3.33094e-09
-6.82304e-09
2.18507e-11
7.04184e-09
-2.40662e-10
-2.93097e-09
3.61283e-09
2.76085e-09
-3.44271e-09
3.39611e-09
1.91029e-09
9.51027e-10
-6.25744e-09
4.92559e-10
-2.16369e-09
-4.48214e-09
6.15327e-09
-7.06611e-09
-2.10682e-09
7.15897e-09
6.38832e-09
2.80907e-10
2.41669e-09
1.72575e-09
-1.37371e-09
-4.40366e-10
8.83306e-11
-5.03705e-10
1.17929e-09
-7.33653e-10
5.80752e-11
-5.09313e-09
-3.60977e-09
8.66249e-09
4.04197e-11
4.78865e-09
3.00655e-09
-4.43477e-09
-3.36043e-09
7.86166e-09
-3.44052e-09
-5.79512e-09
1.37398e-09
1.15982e-10
5.45109e-09
-1.96419e-09
-3.60289e-09
-6.42959e-09
-3.27239e-09
5.75414e-09
3.94784e-09
7.54723e-09
4.55055e-09
-3.14131e-09
-8.95647e-09
-2.07041e-09
-1.14511e-09
3.16061e-09
5.49096e-11
-3.32099e-09
-6.87897e-09
7.96875e-09
2.23121e-09
7.03905e-09
4.67135e-09
-4.1518e-09
-7.5586e-09
3.0318e-09
1.03766e-08
-7.79465e-09
-5.61372e-09
-2.75481e-09
-1.394e-09
-1.82661e-09
5.97543e-09
3.36731e-09
7.39557e-09
-5.39192e-09
-5.37097e-09
3.06054e-09
-1.67762e-09
-8.6532e-09
7.2703e-09
6.77252e-09
-5.10702e-09
-4.24034e-09
2.57484e-09
-3.66071e-09
1.90832e-09
3.86062e-10
1.36635e-09
9.03372e-10
-6.31373e-10
-2.58759e-09
2.31559e-09
-5.32391e-09
3.62975e-09
1.86381e-09
-1.69638e-10
-3.47554e-09
4.87356e-09
-4.94644e-10
4.92199e-09
-8.71454e-09
8.65853e-09
-4.86598e-09
-4.50086e-10
9.20986e-10
-1.85844e-09
1.38754e-09
6.25178e-09
-2.26814e-09
-4.05223e-09
6.85922e-11
2.59644e-09
-2.8195e-09
3.41584e-10
-1.18478e-10
-6.38347e-10
-7.75719e-10
1.88656e-11
2.44061e-09
-3.61339e-09
-4.21207e-09
4.32367e-09
4.93228e-09
-5.22144e-09
-4.03451e-09
6.19882e-09
-3.2677e-09
-3.75826e-09
8.27147e-10
-4.92103e-09
7.82442e-09
-5.72113e-09
2.81774e-09
-1.6555e-10
-4.34247e-09
4.4738e-09
3.42239e-11
6.9883e-09
-6.17022e-09
6.03403e-09
-6.85212e-09
-4.79014e-09
-1.45262e-09
3.9554e-09
2.28735e-09
-3.86124e-10
-8.58894e-09
5.02865e-09
3.94641e-09
6.59479e-09
-8.74856e-10
-2.98485e-09
2.08025e-09
8.86309e-09
-4.85457e-09
-6.08877e-09
3.87721e-09
-1.21804e-08
7.68688e-09
6.16343e-10
-1.6424e-09
1.70411e-09
-4.68107e-09
4.61938e-09
-1.26542e-09
1.32053e-09
-3.00975e-09
2.95464e-09
7.65173e-10
-1.94886e-09
5.80418e-09
-4.62049e-09
3.02825e-09
4.50655e-09
-2.3251e-09
-5.20971e-09
2.63565e-09
-2.04907e-09
-5.67969e-09
2.24664e-09
-4.05691e-09
-1.38216e-09
3.19249e-09
1.72318e-09
2.16892e-09
-2.83418e-09
-1.05792e-09
-3.40119e-09
-8.79419e-10
6.36184e-09
-2.08123e-09
1.14328e-09
-4.48867e-09
-1.64159e-09
4.98699e-09
4.95195e-09
3.52809e-09
-3.90693e-09
-4.57311e-09
4.48942e-09
-1.87652e-09
-2.66401e-09
5.11058e-11
3.5092e-09
-7.83632e-10
4.9657e-09
-7.69127e-09
-7.33235e-10
-2.78665e-09
-1.15903e-09
4.67892e-09
-4.2647e-09
1.99063e-09
-5.66682e-09
7.94088e-09
5.57505e-10
5.83743e-09
-5.41928e-09
-9.75661e-10
-2.91444e-09
1.02507e-09
4.50326e-09
-9.73708e-10
2.11381e-09
-4.45813e-09
3.31803e-09
3.16309e-09
1.35074e-09
-5.96312e-09
1.44927e-09
5.50832e-09
4.04068e-09
-1.59183e-09
-7.95717e-09
-2.36046e-09
-9.73542e-10
-3.19508e-09
1.44046e-09
7.09625e-10
-7.29194e-09
5.14186e-09
-9.55685e-10
-6.63051e-09
6.37063e-09
1.21557e-09
-5.87747e-09
-3.11367e-09
1.7108e-09
3.24517e-10
4.07662e-09
-8.39424e-10
-3.5617e-09
7.90506e-10
-4.2178e-09
1.17649e-09
2.25081e-09
-1.65357e-09
2.71726e-09
-1.05608e-09
-7.60527e-12
-7.31397e-10
5.7985e-09
2.63535e-09
-7.70244e-09
2.04233e-09
-3.75513e-09
1.73691e-09
-2.40881e-11
2.15239e-09
4.13949e-09
-3.92108e-10
-5.89978e-09
3.55917e-09
7.95685e-10
-4.29936e-09
-5.54911e-11
3.11352e-09
-4.21404e-09
3.26282e-09
-2.1623e-09
2.63319e-09
-6.32839e-09
3.82718e-09
-1.31993e-10
-4.09323e-09
2.94302e-10
-2.45247e-09
6.2514e-09
-6.81225e-10
-2.33853e-09
1.46556e-09
1.55423e-09
-2.98558e-09
5.29352e-09
-2.39473e-09
8.67869e-11
3.20116e-09
-6.26453e-09
-2.67116e-09
5.73454e-09
-4.69067e-09
7.03307e-09
4.02167e-09
-6.36407e-09
1.96828e-09
-1.81086e-09
-3.09699e-09
2.93957e-09
6.49059e-10
7.56487e-10
3.40849e-11
-2.05967e-09
7.1366e-09
-9.77405e-10
-4.09952e-09
-1.64692e-09
-1.11553e-09
2.64285e-09
1.19595e-10
-7.65394e-10
1.86379e-09
1.40186e-10
-1.37145e-09
-4.09337e-09
4.24968e-09
1.21514e-09
2.06002e-09
6.50529e-09
-5.558e-09
-3.00731e-09
2.42116e-09
3.41851e-09
-4.46886e-09
-1.3708e-09
-5.76125e-09
7.8377e-10
-5.25425e-10
5.50291e-09
3.7855e-09
-6.39712e-09
-3.14962e-09
-1.28218e-09
3.28656e-09
7.99723e-11
3.99334e-09
-6.0592e-09
2.148e-09
-8.21271e-11
8.49201e-09
-3.36004e-09
-5.67286e-09
5.40899e-10
-2.69555e-10
5.24458e-09
2.8818e-09
-7.85682e-09
1.9388e-09
-4.77838e-09
-4.21834e-09
7.05793e-09
5.95261e-09
-6.22973e-09
-2.67361e-09
2.95073e-09
-3.98466e-09
7.53579e-09
2.27075e-10
-3.7782e-09
1.44396e-09
-8.25155e-10
-6.88872e-10
7.00881e-11
-1.33407e-09
6.29609e-09
-6.71548e-09
1.75346e-09
6.69976e-10
-2.01344e-09
-3.74729e-11
-1.0301e-09
-7.22917e-10
-3.78155e-09
-5.55502e-09
3.43006e-09
-5.39253e-09
7.5175e-09
1.16418e-09
2.73555e-09
2.86673e-09
-6.76645e-09
-5.16198e-09
2.12559e-09
-2.51864e-09
1.99702e-09
-3.09343e-09
5.54234e-09
-5.29989e-10
1.76971e-09
-1.28199e-09
4.22693e-11
-1.37305e-09
-3.33517e-09
3.29263e-09
1.41559e-09
3.65201e-09
9.25964e-10
-1.35059e-09
-3.22738e-09
-8.43461e-09
8.90456e-09
-5.17803e-09
4.70809e-09
2.36669e-09
-8.32037e-09
1.00617e-08
-4.10804e-09
-3.1865e-09
6.31174e-09
-9.62162e-10
-3.29237e-09
5.37231e-09
6.53389e-09
-8.61381e-09
-1.73568e-09
-4.46392e-09
-9.50756e-10
7.15036e-09
4.26941e-09
1.3309e-11
2.58524e-09
-6.86796e-09
4.13907e-09
-1.2366e-09
-2.96035e-09
5.78781e-11
-6.48913e-09
4.04704e-09
3.39276e-09
-9.50666e-10
-4.81138e-09
2.58412e-09
3.03099e-09
-8.03722e-10
4.98243e-09
2.81964e-09
-5.99208e-09
-1.80997e-09
6.6979e-09
4.52916e-09
-3.81954e-09
-7.40751e-09
4.46749e-09
2.26834e-09
-3.79363e-11
4.50514e-09
-8.96534e-10
6.3791e-09
-9.98772e-09
-7.59469e-09
5.64964e-09
-1.46322e-09
3.40828e-09
-2.2941e-09
3.29913e-09
-1.11061e-09
1.0557e-10
2.04946e-09
9.61731e-10
-6.9361e-10
-2.31758e-09
2.00126e-09
-5.35419e-09
3.4205e-09
-6.75657e-11
-3.77041e-09
-2.9905e-09
1.35292e-09
5.40799e-09
1.99307e-09
-1.50099e-09
-6.69295e-10
1.77215e-10
1.30079e-09
-5.61974e-09
-2.11938e-10
7.93536e-09
-1.06102e-09
8.60508e-10
-7.73484e-09
1.44197e-09
-2.92722e-09
1.54734e-09
-6.21e-11
4.5251e-09
-6.80877e-09
2.36678e-09
-8.31145e-11
6.95887e-09
-6.67037e-09
2.58179e-09
-5.31035e-09
2.09025e-09
2.45527e-09
7.64844e-10
-1.19699e-08
1.37559e-09
7.6123e-09
2.98207e-09
3.08332e-09
-2.36624e-09
-3.55959e-09
2.84251e-09
8.48939e-10
-2.14619e-09
-5.91234e-09
7.2096e-09
2.20275e-09
-6.60723e-09
4.57722e-09
-1.7274e-10
2.01765e-09
2.12357e-09
-2.88629e-09
-1.25486e-09
-4.13042e-09
2.86656e-09
1.38324e-09
-1.19389e-10
-6.98744e-09
-1.20712e-09
3.58292e-09
4.61164e-09
4.77275e-09
2.81274e-09
-7.51854e-09
-6.6946e-11
-1.1438e-09
-7.3034e-10
8.62632e-11
4.70282e-09
3.11964e-09
-7.67837e-09
-1.44087e-10
2.00125e-09
4.39073e-09
-3.59702e-09
-2.79496e-09
6.7263e-10
-1.1304e-09
3.93897e-09
-3.4812e-09
-4.48483e-09
-1.46237e-11
1.60627e-09
2.89319e-09
1.72739e-09
-1.88678e-09
2.55066e-09
6.93691e-10
-3.66922e-09
4.24877e-10
3.40664e-09
-3.06077e-09
2.20479e-09
-1.58752e-09
5.22694e-09
9.08097e-11
8.95179e-10
-1.6066e-09
4.69483e-09
2.57266e-09
3.77276e-11
-1.59855e-09
1.44729e-10
-1.91045e-09
6.17074e-09
-8.50638e-09
4.24609e-09
3.14263e-09
-6.93698e-09
-2.16304e-09
5.95739e-09
8.38941e-10
-2.26795e-09
1.57981e-09
-1.50808e-10
-2.07696e-09
1.36329e-09
2.14087e-09
-1.4272e-09
1.90689e-09
7.60876e-10
-1.46196e-09
-1.2058e-09
-1.82188e-09
3.26284e-09
4.65926e-10
-3.54543e-09
-2.68933e-09
4.41288e-09
-1.28023e-09
1.89909e-09
1.42009e-10
-3.30619e-09
-5.15673e-09
7.71665e-09
7.46272e-10
-5.41381e-09
6.13164e-09
2.42417e-09
-3.142e-09
2.95402e-09
-2.33516e-09
-4.73046e-09
4.1116e-09
3.4405e-09
2.40757e-09
-3.54305e-09
-2.30502e-09
1.7582e-09
-3.82229e-09
8.07595e-09
-6.01186e-09
-5.59555e-09
1.46817e-09
2.40249e-09
1.72488e-09
1.8764e-09
6.34808e-10
2.99712e-09
5.38388e-09
-9.06952e-09
3.76157e-09
-7.59247e-11
-4.24426e-09
4.004e-09
2.09572e-09
-1.85546e-09
5.53823e-09
-4.39172e-09
1.65292e-09
-2.79943e-09
4.17012e-09
4.85934e-09
-5.16253e-09
-3.86694e-09
-8.79395e-10
-7.45888e-09
3.74449e-09
4.59379e-09
-2.41628e-09
2.13211e-09
-2.35057e-09
2.63474e-09
-5.46619e-09
-4.83675e-09
5.81134e-09
4.49159e-09
2.75251e-09
-3.25709e-09
4.55959e-10
4.86255e-11
-2.44482e-09
4.93167e-09
-2.60325e-09
1.16406e-10
2.42667e-09
-5.66364e-10
1.21553e-09
-3.07583e-09
2.66165e-09
-5.05064e-09
8.01159e-10
1.58782e-09
5.9166e-09
-4.24039e-09
-1.67121e-09
-4.99029e-12
-5.56745e-09
1.76678e-10
-5.43042e-10
5.9338e-09
-5.14813e-09
4.02237e-09
-3.41289e-09
4.53866e-09
-4.86308e-09
3.79373e-09
-1.98305e-09
3.0524e-09
3.6905e-09
-5.512e-09
2.8944e-09
-1.0729e-09
3.02012e-09
-6.44914e-09
1.6706e-09
1.75842e-09
-9.93639e-10
9.97262e-11
-5.50665e-09
-3.86409e-09
4.73359e-11
-3.79596e-10
8.38753e-10
-4.30731e-09
3.84815e-09
2.30714e-09
-4.84576e-09
2.73798e-09
-1.99356e-10
1.72601e-09
-5.2806e-09
3.6415e-09
-8.68998e-11
4.18312e-09
-1.95519e-09
2.26148e-09
-1.00415e-08
6.20579e-09
3.85427e-09
-1.85142e-11
1.30992e-09
-4.10531e-09
-4.25121e-09
7.04661e-09
-1.2794e-09
3.6877e-09
7.54785e-10
6.06016e-09
-8.69591e-10
-4.86604e-09
-1.68844e-09
2.22401e-09
-4.88378e-10
-4.71788e-11
4.08777e-09
-2.54523e-09
-1.49066e-09
-5.18908e-11
4.53611e-09
-2.61586e-09
1.92331e-09
-1.45527e-09
5.38298e-09
-6.74247e-09
2.81476e-09
-3.02926e-09
3.13889e-09
-3.20361e-09
3.09398e-09
5.37214e-09
-1.72252e-09
2.46527e-09
-6.21395e-09
3.84973e-09
-1.01037e-10
-5.79565e-09
3.03992e-09
2.97292e-09
-2.17177e-10
-3.8993e-09
2.44423e-09
1.60237e-09
-1.47296e-10
-2.98949e-09
4.31542e-09
-1.44813e-09
1.22208e-10
5.13833e-09
-8.43311e-09
1.05811e-08
-7.28633e-09
-3.25847e-09
-3.11911e-09
2.08378e-09
4.2938e-09
3.13323e-09
1.62349e-09
-2.92818e-09
-1.82853e-09
4.48393e-09
-1.45485e-09
1.04163e-10
3.87014e-09
-1.43229e-09
-2.53993e-09
1.02082e-10
-3.28378e-09
3.03989e-09
-2.40383e-09
2.64773e-09
5.36692e-09
-3.14497e-09
-2.3417e-09
1.19751e-10
-6.28072e-09
3.00947e-09
-4.94968e-09
8.22093e-09
5.88171e-09
5.34598e-10
1.83461e-09
-8.25091e-09
-5.31684e-09
8.88605e-09
-1.99281e-09
-1.57638e-09
-1.39794e-09
-2.92651e-09
4.16113e-09
1.63314e-10
1.47971e-09
2.76536e-09
-6.19376e-11
-2.66303e-09
4.08387e-09
5.88665e-11
4.1409e-09
-3.7294e-09
5.5051e-09
7.38577e-09
-6.31172e-10
-2.41632e-09
-4.33827e-09
1.45109e-09
-2.95067e-09
5.85317e-09
-4.35359e-09
-1.93729e-09
-1.38653e-09
3.34421e-09
-2.03887e-11
-8.68468e-10
5.01696e-09
-4.38098e-09
2.32484e-10
2.14002e-09
1.62725e-09
-3.89179e-09
1.24543e-10
-4.26719e-09
8.08337e-12
1.41778e-11
4.24492e-09
1.9836e-09
1.0206e-09
4.43468e-09
-7.43888e-09
-4.50044e-09
-3.46516e-09
3.75895e-09
4.20664e-09
3.53447e-09
-7.93534e-09
-3.66533e-09
8.06621e-09
3.74109e-09
-1.6632e-09
-5.15951e-09
-3.5986e-09
-5.51325e-09
6.61505e-09
2.49679e-09
-5.20602e-09
2.79039e-09
2.57502e-09
-1.59388e-10
5.24927e-09
-1.72384e-09
1.47081e-10
9.06438e-10
-3.93735e-09
5.9577e-09
-2.92679e-09
1.87411e-09
-3.84092e-11
4.34622e-09
-6.18191e-09
-5.55102e-09
3.55265e-09
2.12756e-09
-1.29184e-10
2.23158e-09
-6.06977e-09
3.88673e-09
-4.8543e-11
-1.55571e-09
9.62702e-10
-3.26027e-09
3.85328e-09
1.64666e-09
3.5944e-09
-7.58407e-09
2.34301e-09
-1.72689e-09
-2.23313e-09
3.7464e-09
2.13626e-10
3.0558e-09
-1.1705e-09
-1.92844e-09
4.31286e-11
2.43404e-09
7.46574e-10
-3.11608e-09
-6.45403e-11
-3.4297e-09
-2.15637e-09
5.44133e-09
1.44741e-10
1.43793e-09
5.6884e-09
-3.1801e-09
1.25577e-09
3.01457e-09
-4.13729e-09
-1.33058e-10
-1.89101e-09
-5.50255e-09
2.57768e-09
4.81588e-09
-2.66294e-09
3.94048e-09
-1.32035e-09
4.28048e-11
-4.76006e-09
3.14214e-09
1.63774e-09
-1.98217e-11
-9.32366e-09
4.60588e-09
4.63135e-09
8.64266e-11
1.06933e-09
-2.19935e-10
1.53819e-09
-2.38759e-09
-1.5811e-09
2.37613e-09
1.1031e-10
2.95951e-09
6.20061e-09
-4.91549e-09
-4.24463e-09
-1.32943e-09
3.73372e-09
-2.57057e-09
1.6628e-10
-8.73845e-10
-3.6656e-09
1.61823e-09
2.92123e-09
-4.58911e-09
7.68348e-09
-3.28959e-09
1.95212e-10
5.71866e-09
-6.09116e-09
1.81296e-09
-1.40095e-09
-6.54697e-11
2.46421e-09
-1.33466e-09
3.6077e-09
-5.68011e-09
2.24302e-09
-1.70608e-10
-3.22245e-09
3.12492e-09
5.63311e-09
-5.53557e-09
-1.5038e-11
2.61233e-09
-3.63329e-11
6.74543e-10
3.23615e-09
-1.58739e-10
-5.23826e-09
2.30866e-10
-2.31491e-09
1.90951e-09
5.328e-10
-1.27395e-10
1.70842e-09
-8.83238e-11
7.25283e-10
6.3586e-09
-3.18631e-09
-3.89757e-09
-4.6443e-09
4.68849e-09
-2.72549e-09
2.6813e-09
-4.43319e-09
5.02678e-09
2.69815e-09
-3.29174e-09
1.67941e-09
1.51255e-09
-3.02983e-09
-1.62113e-10
-2.8345e-09
-6.04109e-10
3.40846e-09
3.01467e-11
-9.42183e-09
3.42108e-09
2.8871e-09
3.11364e-09
2.05966e-09
-2.96374e-09
1.29297e-09
-3.8887e-10
-3.30803e-09
6.0589e-11
-2.87222e-09
6.11966e-09
4.88007e-09
-3.62794e-09
-6.42184e-09
5.16972e-09
3.00469e-09
-8.93902e-10
1.28532e-09
1.1052e-09
-3.97386e-09
-4.5782e-11
-5.93308e-09
3.6486e-09
2.67778e-10
-2.04548e-09
2.7077e-09
-8.07514e-10
1.45284e-10
2.83534e-09
-5.57634e-10
-2.18028e-10
4.25569e-09
-4.63459e-09
-5.12803e-09
5.50693e-09
-4.03389e-09
1.54924e-09
8.94208e-09
-6.45743e-09
1.5588e-09
3.87967e-09
-4.39442e-09
-1.04405e-09
-4.72377e-09
3.11285e-09
4.90441e-09
-3.29349e-09
1.91299e-09
1.08797e-09
1.91589e-11
8.36158e-10
3.85046e-09
-3.99741e-09
-6.89204e-10
2.35306e-10
4.6156e-09
7.1097e-11
-2.81708e-09
3.95141e-09
-1.31911e-09
1.84793e-10
-7.30204e-09
7.42094e-10
3.89094e-09
2.669e-09
-3.53359e-09
-8.86231e-10
-2.88222e-09
3.22962e-09
-5.20432e-09
2.08921e-09
-1.14509e-10
-2.79661e-09
-1.70467e-09
4.47387e-09
2.74228e-11
3.62504e-09
-3.87069e-09
-2.16318e-09
2.40883e-09
3.78265e-09
-2.00425e-09
1.28539e-10
3.57351e-09
-5.10767e-09
-1.35174e-09
2.88591e-09
6.83117e-09
-2.19806e-09
-3.97808e-09
-6.55036e-10
1.86395e-09
-2.82833e-09
-3.95665e-09
6.35684e-09
-2.21753e-09
-5.65783e-10
4.89343e-10
6.364e-09
-4.53584e-09
-2.3175e-09
1.46245e-09
-3.06265e-09
1.66947e-09
-6.92845e-11
-2.73049e-09
4.59905e-09
2.02005e-09
-3.88862e-09
-4.51474e-09
2.62297e-09
1.95046e-09
-5.86948e-11
-1.97325e-09
4.19831e-09
-5.43152e-09
3.20646e-09
-5.53928e-09
-8.15246e-09
3.95724e-09
9.7345e-09
2.95486e-10
2.57721e-09
-2.51642e-09
-3.56271e-10
-6.89089e-10
5.21871e-10
-5.04344e-09
5.21066e-09
4.98874e-09
-4.95498e-09
-7.22851e-10
-1.78088e-09
5.0513e-09
-3.26088e-09
-9.54865e-12
-6.20461e-09
2.99808e-09
3.2712e-09
-6.4671e-11
1.62717e-09
-1.53377e-09
5.10642e-09
-3.09983e-09
-3.46241e-09
1.37894e-09
5.18329e-09
-1.56885e-09
-1.20127e-09
2.65526e-09
1.14849e-10
5.61803e-09
2.30874e-09
-7.25417e-09
-6.72583e-10
-3.61674e-09
1.91436e-09
1.72994e-09
-2.75642e-11
-1.24601e-10
-1.21209e-09
1.39449e-09
-5.77905e-11
-2.02981e-09
-3.29119e-10
2.23433e-09
-1.26923e-09
6.51112e-09
-4.47672e-09
-1.27959e-09
6.28825e-09
-4.9385e-09
-7.01657e-11
-2.0727e-09
1.33109e-09
-4.31104e-09
-5.21197e-10
1.37757e-09
-2.66202e-09
1.80564e-09
1.15092e-09
2.16523e-09
-3.32996e-09
1.37991e-11
-3.87133e-10
-2.75754e-09
6.62255e-09
-3.47787e-09
-5.39925e-09
2.71574e-09
3.63772e-09
-9.54207e-10
-2.98852e-09
-1.8385e-09
2.53971e-09
2.28731e-09
2.64526e-09
-4.5185e-09
1.93998e-09
-6.6729e-11
2.56625e-09
-1.31022e-09
-1.15616e-09
-9.98407e-11
1.2572e-09
8.35964e-10
-1.95721e-09
-1.35948e-10
5.22737e-10
1.67503e-09
-3.49059e-09
1.29284e-09
2.1848e-09
-6.35774e-10
-1.63279e-09
8.37663e-11
2.58916e-09
-5.98399e-09
-9.50069e-10
4.3449e-09
1.90962e-09
-5.20358e-09
3.37669e-09
-8.27268e-11
2.1558e-09
-2.59941e-09
-5.49459e-09
5.9382e-09
6.28229e-10
4.67154e-09
-2.35832e-09
-2.94144e-09
-3.6133e-09
4.45096e-09
-9.1341e-10
7.57397e-11
-2.30756e-09
-3.58406e-09
5.86179e-09
2.98239e-11
5.90948e-09
1.61259e-10
-2.50509e-10
7.38144e-10
-5.23321e-09
2.39939e-09
2.09569e-09
-2.02554e-09
-2.79422e-09
4.64561e-09
1.74156e-10
4.5093e-09
-2.0664e-09
-4.21711e-09
1.77421e-09
-1.44953e-09
6.26305e-09
2.65944e-09
-7.47296e-09
-9.20228e-10
1.53525e-09
-6.24151e-10
9.1309e-12
1.89938e-09
-2.51373e-10
-1.50062e-09
-1.47393e-10
-3.45447e-09
2.77268e-09
6.87294e-10
-5.50548e-12
-6.09342e-09
7.4696e-10
3.27725e-09
2.06925e-09
-2.90908e-09
7.19412e-10
5.34995e-09
-3.07707e-09
-5.44463e-09
3.17176e-09
2.638e-09
-3.48698e-09
-5.86781e-10
8.94972e-09
-2.23936e-09
-5.86034e-09
-8.50025e-10
1.1318e-09
-1.98212e-09
8.49194e-11
-4.64368e-09
3.94383e-09
2.57397e-09
-2.7085e-09
-8.05468e-09
1.34135e-09
3.25937e-09
-4.796e-09
-1.77884e-09
3.31547e-09
-4.92686e-10
3.1477e-09
3.19974e-10
-2.97505e-09
-7.39809e-10
-9.8754e-09
6.58132e-09
-1.88346e-09
3.48601e-10
1.78065e-09
-2.45796e-10
1.21013e-09
8.3347e-10
2.74502e-09
4.83347e-09
-6.58414e-09
-1.43554e-09
3.18621e-09
-5.61958e-09
4.37669e-09
-2.23969e-09
-3.35209e-10
2.52941e-09
4.54858e-11
-4.899e-09
-6.31787e-09
8.14524e-09
-1.30354e-10
-2.59218e-09
2.61165e-09
1.1089e-10
7.12139e-09
2.3064e-09
-4.83714e-09
-4.59065e-09
9.1972e-10
-1.018e-09
9.34445e-10
-1.19012e-09
1.78262e-09
-6.50409e-10
5.79141e-11
5.58508e-09
-1.51315e-10
-8.40331e-09
2.96956e-09
3.57388e-09
-4.56835e-09
2.26795e-09
-1.27345e-09
-1.43362e-09
-3.98095e-09
3.17481e-09
2.23976e-09
2.22882e-09
-2.84109e-09
7.50564e-10
-1.38298e-10
4.89118e-09
-7.35203e-10
1.41416e-11
1.31592e-09
6.68261e-10
-1.87193e-09
-1.12245e-10
-7.55491e-10
4.15985e-11
1.0167e-09
3.89763e-09
-4.14552e-10
2.2516e-09
3.41984e-09
-1.52941e-09
-4.14203e-09
-1.07933e-09
3.29798e-09
3.29499e-11
2.05431e-09
-3.07066e-09
-6.29734e-11
-3.95977e-09
1.30989e-09
4.83469e-09
-8.4361e-10
-1.82053e-09
-1.71283e-11
-5.38007e-09
4.26071e-09
3.52728e-09
-2.40792e-09
-1.44992e-09
2.27667e-09
-8.12491e-10
-1.42594e-11
-2.85087e-10
-5.33519e-09
5.59182e-09
1.6212e-09
-9.20722e-10
-7.35449e-10
3.49747e-11
-5.0386e-09
5.07914e-09
-1.6611e-09
1.62055e-09
-4.2595e-09
3.53056e-10
-1.6002e-09
-2.39623e-09
2.22324e-09
-4.40408e-09
4.57708e-09
2.62431e-09
-9.73656e-09
2.17048e-09
4.94178e-09
-5.10722e-09
4.93903e-09
4.92466e-09
-3.7068e-09
-1.27128e-09
5.34254e-11
9.1152e-11
8.0983e-09
-5.7064e-09
-2.48305e-09
1.99112e-09
-7.82641e-10
-1.35029e-09
1.4182e-10
-5.27906e-09
2.74346e-09
2.46427e-09
7.13308e-11
-4.23592e-09
7.28786e-10
4.44963e-09
-9.42489e-10
-5.57484e-09
2.2843e-09
3.3587e-09
-6.81675e-11
-4.32487e-09
-1.08953e-09
7.94249e-09
-2.52807e-09
3.32783e-09
-1.42828e-09
-2.63279e-09
-2.70126e-09
1.62546e-09
1.01585e-09
5.99663e-11
4.34123e-09
1.61715e-09
-3.54946e-09
-2.40891e-09
5.07673e-09
7.20409e-10
1.7501e-09
-1.76075e-09
2.4068e-09
-7.47476e-10
1.01418e-10
-7.4884e-09
5.09493e-09
1.04003e-09
1.35345e-09
-4.99851e-09
1.8075e-09
7.42328e-09
-4.23226e-09
-6.52762e-09
-1.2949e-09
4.03443e-09
-2.85959e-09
-5.18758e-09
3.95168e-09
4.09549e-09
-3.55017e-09
-2.46495e-09
6.76668e-09
-3.72787e-09
-2.39984e-10
4.00077e-09
-3.31871e-09
-1.81151e-09
4.35106e-09
7.7917e-10
4.17169e-10
5.67137e-09
1.63231e-10
2.2297e-09
-1.52423e-09
-7.30769e-10
2.52975e-11
-1.89388e-09
-1.311e-09
3.07123e-09
1.33646e-10
-4.42646e-09
3.16354e-09
3.1732e-09
1.89822e-09
-5.53203e-09
9.10482e-10
-7.93729e-10
-1.47954e-09
2.20375e-09
6.95163e-11
1.2306e-09
-3.39105e-09
-4.83803e-11
-3.12733e-09
-5.3097e-10
3.01271e-09
6.45584e-10
8.11716e-09
-7.62002e-09
-2.29037e-09
-3.97569e-09
5.91184e-09
1.78446e-09
-3.72061e-09
-4.69563e-09
-3.60008e-09
5.46374e-09
2.83196e-09
-3.62424e-09
9.02811e-09
-4.93959e-09
-4.64266e-10
-5.75616e-09
3.35094e-09
5.58013e-09
-3.17491e-09
-2.29641e-09
-4.03125e-09
6.05743e-11
4.44274e-09
-7.69895e-09
3.88899e-09
-6.32773e-10
2.51859e-09
-6.02427e-09
3.60113e-09
-9.54495e-11
3.17826e-09
-1.37493e-09
-5.41309e-09
4.90328e-09
-2.23419e-09
4.48876e-10
-9.44525e-10
-1.54613e-09
2.42705e-09
6.36074e-11
-4.67758e-09
-1.14632e-09
2.59111e-09
9.80533e-10
-2.60872e-09
1.80665e-09
-1.78475e-10
-5.27625e-09
1.08876e-09
4.29027e-09
-1.02783e-10
1.75149e-09
1.09351e-09
-2.92162e-09
7.66311e-11
-3.77583e-09
4.75539e-09
2.14869e-09
-3.12825e-09
8.96482e-10
2.45824e-09
-3.32121e-09
-3.35049e-11
2.74083e-09
-6.51496e-09
3.79592e-09
-2.17942e-11
7.32055e-10
-2.15709e-09
1.47255e-09
-4.75252e-11
-2.30515e-09
1.30897e-09
1.18884e-09
-1.92663e-10
6.18712e-09
-2.22335e-09
-3.97686e-10
-3.56609e-09
-4.54955e-09
-1.1005e-09
-1.98692e-09
-5.71167e-09
8.79909e-09
7.33877e-10
1.21368e-09
-1.79756e-09
-1.49964e-10
-3.6111e-09
-7.36828e-10
1.15495e-09
3.19298e-09
-6.21793e-10
1.7824e-09
-1.2506e-09
8.99971e-11
-4.08771e-09
5.19194e-09
-1.93176e-09
-5.64289e-10
3.64519e-11
-4.7361e-09
3.10545e-09
-3.24545e-10
3.04209e-09
-4.80292e-09
-1.15701e-10
5.69921e-09
-4.96436e-10
2.91439e-09
6.44233e-09
-4.31984e-09
1.09087e-10
1.89127e-09
-1.29578e-09
7.27716e-11
-6.9578e-09
1.67624e-09
3.39054e-09
-1.17331e-09
-6.23587e-09
2.89445e-09
-3.09943e-09
4.76287e-09
3.97625e-10
-2.06107e-09
-2.19876e-09
-1.42208e-09
3.60698e-09
1.3862e-11
-6.98011e-09
5.45215e-09
4.88526e-09
-3.35729e-09
3.90016e-09
1.10923e-10
-4.00688e-09
-4.19687e-12
-2.06312e-09
8.26092e-10
1.35137e-09
-1.14348e-10
2.25622e-09
-4.2981e-09
-3.12025e-09
5.16213e-09
4.34989e-09
-2.56511e-09
-1.83887e-09
5.40988e-11
2.08509e-09
3.38888e-09
-3.61124e-09
-1.86274e-09
3.10137e-09
2.74582e-09
-1.9329e-09
-3.91429e-09
-8.69875e-10
-1.32817e-09
2.17132e-09
2.67216e-11
-2.36996e-09
1.60979e-09
-1.09696e-10
-5.99109e-09
3.36905e-09
2.70432e-09
-8.22876e-11
-1.93306e-09
1.21489e-09
-1.55665e-10
-3.21226e-09
1.90561e-09
-2.27858e-11
9.53863e-10
-3.15342e-09
9.37861e-09
-7.17906e-09
5.47489e-09
-4.00398e-09
-1.53675e-09
6.58435e-11
1.17895e-09
2.79002e-09
-3.9062e-09
-6.27676e-11
1.65846e-09
4.64866e-09
-4.43184e-09
-1.87528e-09
2.07367e-09
3.03086e-09
-5.52787e-09
4.23338e-10
-5.2841e-09
-3.028e-09
2.43462e-09
3.17215e-09
-1.6283e-09
-1.56516e-09
2.13174e-11
9.43095e-10
1.32974e-09
-2.10885e-09
-1.63985e-10
-2.83262e-09
3.3112e-09
-2.66807e-09
2.18949e-09
-1.00105e-09
-2.65772e-09
3.51893e-09
1.39851e-10
-8.50895e-10
-1.37199e-09
2.11096e-09
1.11924e-10
2.0206e-09
-5.5342e-10
9.16155e-11
-2.20234e-09
5.61433e-09
-3.59763e-09
1.85635e-10
1.60641e-09
-1.40536e-09
9.44206e-11
2.41016e-09
-2.79782e-09
-2.90429e-09
3.29195e-09
-8.12409e-10
8.01446e-09
4.73487e-09
-1.19369e-08
-6.94372e-09
4.03569e-09
6.51463e-09
-3.60661e-09
5.39037e-09
5.371e-11
-3.37099e-09
3.70912e-09
-8.69536e-10
5.31409e-10
-1.1035e-08
2.78731e-09
1.78545e-10
8.06912e-09
5.10017e-09
8.83289e-09
-9.19815e-10
-1.30133e-08
3.93614e-09
7.19517e-09
8.00138e-10
-1.19315e-08
-4.54686e-09
9.3794e-09
-9.20272e-09
4.37018e-09
5.51909e-09
2.0867e-09
-9.22302e-09
1.61724e-09
8.00826e-09
-7.08543e-09
-4.67087e-09
3.74804e-09
-7.93142e-09
8.88406e-09
4.24273e-09
-5.19537e-09
3.91579e-09
-2.44256e-09
-6.16391e-09
9.27072e-10
-5.1457e-09
1.30913e-08
-8.8727e-09
1.16807e-08
-8.23603e-10
-3.73121e-09
-7.12585e-09
-2.96642e-09
8.10847e-09
-5.35856e-09
2.16528e-10
1.0753e-09
-1.72872e-09
4.20845e-09
-3.55504e-09
-3.75594e-09
-8.10278e-09
7.26402e-09
4.59469e-09
-7.3254e-09
2.49053e-09
4.75281e-10
4.35959e-09
-1.19766e-08
6.06968e-10
3.861e-09
7.50859e-09
1.37283e-09
-2.38539e-09
-1.49165e-09
1.1455e-08
-1.04175e-08
-4.62452e-09
3.58699e-09
-8.36689e-09
-6.8079e-10
5.85748e-09
8.63579e-11
-6.78412e-09
-5.548e-10
-4.20982e-09
1.15487e-08
5.35421e-09
1.80908e-09
-7.58527e-09
4.21978e-10
-9.08617e-10
3.34692e-09
1.14594e-09
-3.58424e-09
-5.80372e-09
4.76463e-09
-2.94987e-10
-5.58423e-09
9.86325e-09
-1.15158e-09
-3.12743e-09
-3.62822e-09
5.93762e-09
3.98983e-09
-6.29923e-09
3.59783e-09
2.04716e-09
-8.75157e-09
8.43932e-10
1.16497e-08
-4.59425e-09
-7.89935e-09
1.07297e-08
-3.43425e-09
1.71788e-09
-9.01328e-09
5.4833e-09
-1.24359e-09
9.09892e-10
-5.14959e-09
-2.16243e-10
-5.47669e-09
-1.90668e-10
5.88359e-09
4.4704e-09
-1.82842e-10
-1.3284e-08
8.99641e-09
-7.66058e-10
9.56114e-09
-4.5133e-09
-4.28178e-09
-2.31448e-10
4.4995e-09
-1.53862e-09
-2.72943e-09
-1.78023e-09
-2.9509e-09
4.66675e-09
6.43765e-11
4.78533e-09
-1.20219e-08
8.02036e-09
-7.83791e-10
4.68454e-09
2.87004e-09
-8.1351e-09
5.8052e-10
4.798e-09
3.48885e-09
-4.95261e-09
-3.33424e-09
3.78623e-09
6.96884e-09
7.98323e-10
-1.15534e-08
6.39321e-09
-1.07526e-08
3.59137e-09
7.67993e-10
-3.25211e-09
-3.76736e-09