/*--------------------------------*- C++ -*----------------------------------*\
| =========                 |                                                 |
| \\      /  F ield         | OpenFOAM: The Open Source CFD Toolbox           |
|  \\    /   O peration     | Version:  v1612+                                |
|   \\  /    A nd           | Web:      www.OpenFOAM.com                      |
|    \\/     M anipulation  |                                                 |
\*---------------------------------------------------------------------------*/
FoamFile
{
    version     2.0;
    format      ascii;
    class       volVectorField;
    location    "100";
    object      U;
}
// * * * * * * * * * * * * * * * * * * * * * * * * * * * * * * * * * * * * * //

dimensions      [0 1 -1 0 0 0 0];

internalField   nonuniform List<vector> 
21535
(
(0.129182 0.506763 -0.451179)
(0.14363 0.514655 -0.441859)
(0.136082 0.502811 -0.43981)
(0.112343 0.430851 -0.374947)
(0.148708 0.560493 -0.493825)
(0.139553 0.515441 -0.446779)
(0.129857 0.471998 -0.421393)
(0.143257 0.562089 -0.495311)
(0.1273 0.494689 -0.437533)
(0.144889 0.560572 -0.487707)
(0.115458 0.442743 -0.376241)
(0.124526 0.478785 -0.435593)
(0.133327 0.494298 -0.437189)
(0.135874 0.520723 -0.459685)
(0.170776 0.642477 -0.571874)
(0.142567 0.530032 -0.465086)
(0.163063 0.638073 -0.554556)
(0.190238 0.678619 -0.59653)
(0.18338 0.681535 -0.589736)
(0.129708 0.501718 -0.450711)
(0.136982 0.532797 -0.478242)
(0.140435 0.541103 -0.471471)
(0.142825 0.551498 -0.477357)
(0.147039 0.567294 -0.496173)
(0.159552 0.622566 -0.552571)
(0.163306 0.633626 -0.561491)
(0.138204 0.56616 -0.515929)
(0.130941 0.508004 -0.431638)
(0.128974 0.455634 -0.404708)
(0.14546 0.544988 -0.489946)
(0.138878 0.531492 -0.465755)
(0.139296 0.539024 -0.480417)
(0.141312 0.510758 -0.441217)
(0.167482 0.619026 -0.538882)
(0.137813 0.536526 -0.468794)
(0.157313 0.582806 -0.510204)
(0.14033 0.494744 -0.436166)
(0.123701 0.485186 -0.427479)
(0.140366 0.537964 -0.479522)
(0.144526 0.546254 -0.483686)
(0.146371 0.527583 -0.462534)
(0.123019 0.462639 -0.412781)
(0.132665 0.477528 -0.425418)
(0.147077 0.540882 -0.479293)
(0.138344 0.519551 -0.466069)
(0.13231 0.512685 -0.453132)
(0.144222 0.542504 -0.467803)
(0.0980691 0.441268 -0.366051)
(0.120587 0.503774 -0.430928)
(0.166002 0.642875 -0.558653)
(0.129109 0.512769 -0.46234)
(0.124023 0.472189 -0.411857)
(0.117621 0.44557 -0.389344)
(0.141728 0.53802 -0.474361)
(0.112761 0.540211 -0.459441)
(0.105554 0.540417 -0.473144)
(0.160726 0.599099 -0.524591)
(0.114709 0.432941 -0.385673)
(0.129334 0.494993 -0.43852)
(0.127124 0.499292 -0.434577)
(0.168421 0.630735 -0.549845)
(0.138886 0.501502 -0.435046)
(0.134253 0.523437 -0.45331)
(0.146003 0.55291 -0.482729)
(0.129193 0.511625 -0.434756)
(0.137927 0.483524 -0.418167)
(0.151812 0.557463 -0.490727)
(0.151022 0.558851 -0.484436)
(0.136732 0.479204 -0.419877)
(0.111435 0.425139 -0.371183)
(0.110058 0.436958 -0.373615)
(0.148591 0.53169 -0.462519)
(0.126888 0.445784 -0.39441)
(0.136527 0.505097 -0.455242)
(0.151205 0.573281 -0.500559)
(0.135692 0.499387 -0.43257)
(0.132647 0.50467 -0.448677)
(0.127802 0.502973 -0.441317)
(0.115322 0.439619 -0.380593)
(0.135263 0.520225 -0.448907)
(0.155272 0.586123 -0.511695)
(0.144146 0.521432 -0.454792)
(0.145213 0.53968 -0.478438)
(0.138331 0.511523 -0.453204)
(0.142948 0.507746 -0.458722)
(0.111777 0.519965 -0.462133)
(0.146263 0.55612 -0.493102)
(0.134917 0.522202 -0.459993)
(0.1362 0.546996 -0.468819)
(0.136088 0.526746 -0.45544)
(0.125712 0.478774 -0.419418)
(0.139834 0.529905 -0.460135)
(0.130081 0.502314 -0.439373)
(0.132494 0.509217 -0.452142)
(0.121945 0.480771 -0.418376)
(0.158082 0.589305 -0.515339)
(0.14238 0.531368 -0.465976)
(0.113924 0.434832 -0.382558)
(0.131653 0.461741 -0.415918)
(0.14131 0.496029 -0.430066)
(0.131991 0.477708 -0.419608)
(0.132414 0.517807 -0.449858)
(0.122087 0.486828 -0.4433)
(0.142862 0.544492 -0.493502)
(0.146367 0.555454 -0.498363)
(0.112199 0.461978 -0.391209)
(0.147222 0.532131 -0.468628)
(0.124819 0.468879 -0.409695)
(0.137296 0.518726 -0.46084)
(0.146161 0.550101 -0.480087)
(0.13773 0.501815 -0.435703)
(0.142915 0.521431 -0.458604)
(0.119097 0.458968 -0.413096)
(0.129386 0.495232 -0.429239)
(0.140418 0.549521 -0.468321)
(0.135026 0.524384 -0.439363)
(0.140515 0.501314 -0.457294)
(0.145235 0.524879 -0.46954)
(0.118024 0.449944 -0.392943)
(0.112736 0.427649 -0.374391)
(0.134918 0.497437 -0.432906)
(0.136197 0.515719 -0.451741)
(0.140437 0.528529 -0.460245)
(0.141905 0.544709 -0.464862)
(0.149265 0.597882 -0.512268)
(0.146235 0.539528 -0.473147)
(0.123933 0.451897 -0.398305)
(0.135456 0.518831 -0.447743)
(0.141407 0.51843 -0.459588)
(0.135789 0.524194 -0.450093)
(0.160103 0.581846 -0.508432)
(0.139223 0.590082 -0.526675)
(0.143626 0.564967 -0.509327)
(0.143498 0.558221 -0.481945)
(0.136142 0.503319 -0.466138)
(0.12507 0.481838 -0.432231)
(0.131714 0.493169 -0.45179)
(0.140224 0.551366 -0.48844)
(0.145992 0.525235 -0.479072)
(0.126254 0.468845 -0.407403)
(0.131184 0.490943 -0.432561)
(0.128908 0.447638 -0.39469)
(0.119139 0.421183 -0.359601)
(0.1501 0.535295 -0.478072)
(0.1462 0.53842 -0.475975)
(0.135865 0.504657 -0.436989)
(0.148922 0.57619 -0.501929)
(0.129237 0.508312 -0.4369)
(0.144247 0.54674 -0.477267)
(0.129729 0.502908 -0.447688)
(0.136822 0.532039 -0.465415)
(0.13583 0.525852 -0.460402)
(0.144309 0.542903 -0.470191)
(0.14088 0.559699 -0.50069)
(0.135606 0.569409 -0.501585)
(0.117567 0.487879 -0.42423)
(0.136446 0.508653 -0.443015)
(0.148707 0.560525 -0.482831)
(0.142154 0.531752 -0.46453)
(0.142714 0.522796 -0.460222)
(0.122407 0.510398 -0.432932)
(0.133613 0.517119 -0.447272)
(0.141509 0.535382 -0.478012)
(0.149044 0.552182 -0.49038)
(0.11061 0.455038 -0.414847)
(0.13498 0.504127 -0.451543)
(0.130335 0.496245 -0.439531)
(0.150175 0.565977 -0.492124)
(0.117768 0.487948 -0.429591)
(0.126512 0.486971 -0.429472)
(0.134665 0.51979 -0.467082)
(0.136796 0.535284 -0.466695)
(0.132775 0.510266 -0.43998)
(0.133762 0.501161 -0.435764)
(0.149453 0.569716 -0.493669)
(0.140475 0.520578 -0.459008)
(0.133618 0.484277 -0.41938)
(0.120251 0.468516 -0.409858)
(0.150492 0.545641 -0.48056)
(0.120396 0.449426 -0.397812)
(0.15597 0.582658 -0.505355)
(0.118893 0.482912 -0.420048)
(0.127453 0.504267 -0.434865)
(0.117776 0.440076 -0.399815)
(0.125063 0.469897 -0.41165)
(0.134267 0.516446 -0.453312)
(0.145179 0.549797 -0.480985)
(0.131584 0.503691 -0.431116)
(0.125881 0.521846 -0.434905)
(0.140622 0.529364 -0.459685)
(0.143895 0.546223 -0.475933)
(0.134656 0.515076 -0.457552)
(0.117788 0.461732 -0.400232)
(0.154077 0.561622 -0.484695)
(0.12641 0.481688 -0.410256)
(0.123354 0.437174 -0.379698)
(0.144858 0.519639 -0.450853)
(0.150412 0.549223 -0.483915)
(0.122948 0.499177 -0.44423)
(0.119732 0.490688 -0.444518)
(0.13576 0.540726 -0.487262)
(0.12524 0.486617 -0.446383)
(0.126914 0.521141 -0.481973)
(0.144473 0.531224 -0.463122)
(0.139358 0.528578 -0.462306)
(0.132042 0.508885 -0.442637)
(0.157215 0.597105 -0.519147)
(0.127186 0.504443 -0.445066)
(0.113812 0.427331 -0.37354)
(0.134204 0.517668 -0.452092)
(0.111119 0.445274 -0.376553)
(0.139284 0.524866 -0.457921)
(0.141428 0.525005 -0.468709)
(0.14538 0.524259 -0.466232)
(0.145182 0.544943 -0.490993)
(0.12769 0.501403 -0.446027)
(0.121766 0.442554 -0.394102)
(0.143336 0.505592 -0.443929)
(0.150481 0.518668 -0.456797)
(0.13443 0.518502 -0.458018)
(0.146453 0.549348 -0.477651)
(0.14216 0.50252 -0.448166)
(0.14288 0.556392 -0.482442)
(0.135855 0.528031 -0.469171)
(0.141124 0.540759 -0.46888)
(0.117195 0.451359 -0.39033)
(0.139646 0.52262 -0.470423)
(0.126234 0.506511 -0.449769)
(0.15456 0.544847 -0.476345)
(0.140109 0.527811 -0.458012)
(0.13902 0.515248 -0.442671)
(0.124825 0.541012 -0.489287)
(0.140031 0.525432 -0.461637)
(0.120916 0.487119 -0.423661)
(0.134498 0.524597 -0.448696)
(0.120423 0.47777 -0.425856)
(0.121683 0.514147 -0.440784)
(0.127213 0.481528 -0.423558)
(0.115058 0.431452 -0.38812)
(0.124416 0.502334 -0.438646)
(0.102348 0.450108 -0.386198)
(0.133618 0.510415 -0.443733)
(0.146337 0.55074 -0.49043)
(0.137522 0.547567 -0.474021)
(0.152147 0.57787 -0.503795)
(0.128298 0.511666 -0.444904)
(0.149146 0.554728 -0.489748)
(0.12782 0.469415 -0.4169)
(0.135102 0.497081 -0.438821)
(0.140045 0.493228 -0.42886)
(0.143255 0.548312 -0.475302)
(0.13591 0.518171 -0.451668)
(0.116103 0.439583 -0.380789)
(0.134686 0.50832 -0.438064)
(0.147036 0.563324 -0.499264)
(0.143246 0.503311 -0.446535)
(0.149378 0.57391 -0.500802)
(0.142879 0.556932 -0.489215)
(0.142299 0.525059 -0.469605)
(0.136003 0.501741 -0.444914)
(0.131046 0.509048 -0.461532)
(0.130403 0.510602 -0.44976)
(0.117652 0.442586 -0.390872)
(0.12961 0.502946 -0.446459)
(0.136643 0.512535 -0.444992)
(0.140482 0.499603 -0.436034)
(0.118811 0.444675 -0.379519)
(0.123061 0.486121 -0.413214)
(0.128565 0.487618 -0.418238)
(0.144137 0.533176 -0.460652)
(0.153119 0.58875 -0.501865)
(0.122355 0.477098 -0.405635)
(0.145016 0.529523 -0.454176)
(0.138943 0.52346 -0.450763)
(0.1315 0.494649 -0.430179)
(0.136225 0.50687 -0.432475)
(0.159435 0.588891 -0.507269)
(0.129743 0.474741 -0.4301)
(0.14408 0.54431 -0.476022)
(0.135535 0.516796 -0.452595)
(0.127764 0.496948 -0.458204)
(0.120736 0.500485 -0.45)
(0.145293 0.513245 -0.453266)
(0.146672 0.564881 -0.490816)
(0.12782 0.515762 -0.447182)
(0.136895 0.494854 -0.426816)
(0.116629 0.453164 -0.395787)
(0.112711 0.437459 -0.395046)
(0.112813 0.467913 -0.400916)
(0.137098 0.507024 -0.437435)
(0.130319 0.481254 -0.426428)
(0.143928 0.549878 -0.467851)
(0.145634 0.543257 -0.480144)
(0.151892 0.562031 -0.495045)
(0.133369 0.507399 -0.444027)
(0.128904 0.511573 -0.448976)
(0.123445 0.46892 -0.416721)
(0.143971 0.540894 -0.476485)
(0.142519 0.497219 -0.443622)
(0.13322 0.445061 -0.400065)
(0.128836 0.495637 -0.436024)
(0.124642 0.494967 -0.439344)
(0.133427 0.517994 -0.46086)
(0.141861 0.531942 -0.471182)
(0.141818 0.537204 -0.469529)
(0.134681 0.546537 -0.477284)
(0.100515 0.397436 -0.35219)
(0.122241 0.447443 -0.399826)
(0.130768 0.490078 -0.437913)
(0.149241 0.522785 -0.45781)
(0.140039 0.482349 -0.421228)
(0.147593 0.544104 -0.483897)
(0.138458 0.519135 -0.448952)
(0.122015 0.468125 -0.412957)
(0.123618 0.478327 -0.426416)
(0.134274 0.508095 -0.458077)
(0.146841 0.547188 -0.476445)
(0.132817 0.521476 -0.457994)
(0.12924 0.507744 -0.445312)
(0.12686 0.500001 -0.442156)
(0.130564 0.497437 -0.444008)
(0.131624 0.527317 -0.463613)
(0.142184 0.527898 -0.472626)
(0.139952 0.524265 -0.456424)
(0.141071 0.557805 -0.486938)
(0.139514 0.53387 -0.473942)
(0.124283 0.45908 -0.393133)
(0.113887 0.464075 -0.411682)
(0.114312 0.455692 -0.405512)
(0.1211 0.506367 -0.449079)
(0.142315 0.537234 -0.480278)
(0.150347 0.546129 -0.478496)
(0.119271 0.436087 -0.380241)
(0.12646 0.479818 -0.413083)
(0.11511 0.452641 -0.391891)
(0.13312 0.508394 -0.441631)
(0.134402 0.523669 -0.44355)
(0.1383 0.534921 -0.465096)
(0.123911 0.52831 -0.459748)
(0.136619 0.502674 -0.446681)
(0.141363 0.531772 -0.472289)
(0.126082 0.443426 -0.41064)
(0.123691 0.448343 -0.412839)
(0.140508 0.533606 -0.474842)
(0.141131 0.528701 -0.457069)
(0.146225 0.523966 -0.456009)
(0.131827 0.495846 -0.43273)
(0.123267 0.480837 -0.41998)
(0.12699 0.502496 -0.443161)
(0.122079 0.480438 -0.421317)
(0.112273 0.474135 -0.42569)
(0.120441 0.476256 -0.411641)
(0.120075 0.493109 -0.441522)
(0.114581 0.478551 -0.406934)
(0.125896 0.479785 -0.415347)
(0.143168 0.529301 -0.464413)
(0.12431 0.464504 -0.414129)
(0.125609 0.475281 -0.412609)
(0.144693 0.551183 -0.488035)
(0.123826 0.465683 -0.409574)
(0.121994 0.45378 -0.389401)
(0.144762 0.558444 -0.481706)
(0.120249 0.48455 -0.42048)
(0.13149 0.495747 -0.425843)
(0.130009 0.500457 -0.437852)
(0.136836 0.526165 -0.461179)
(0.121323 0.458958 -0.401106)
(0.133747 0.519564 -0.45474)
(0.130563 0.502952 -0.430282)
(0.109599 0.515083 -0.443092)
(0.0967514 0.458871 -0.392586)
(0.1039 0.466835 -0.420432)
(0.144465 0.546524 -0.466671)
(0.111309 0.43888 -0.37733)
(0.127323 0.47439 -0.415793)
(0.15562 0.548482 -0.480221)
(0.146827 0.529418 -0.460064)
(0.143758 0.538747 -0.464329)
(0.125525 0.478012 -0.420638)
(0.123483 0.476486 -0.417528)
(0.146186 0.542804 -0.472916)
(0.114089 0.432502 -0.385464)
(0.140577 0.535144 -0.462717)
(0.157105 0.553516 -0.47689)
(0.133558 0.507575 -0.432697)
(0.125067 0.478794 -0.421488)
(0.165919 0.604047 -0.523691)
(0.118665 0.437934 -0.386416)
(0.106895 0.385159 -0.343895)
(0.135917 0.515903 -0.464422)
(0.1423 0.552456 -0.489328)
(0.137521 0.519559 -0.454469)
(0.130768 0.501953 -0.452255)
(0.121997 0.470036 -0.409363)
(0.127117 0.489253 -0.427867)
(0.133112 0.484408 -0.435849)
(0.117224 0.429287 -0.404598)
(0.144273 0.529688 -0.470025)
(0.140631 0.531976 -0.468811)
(0.127546 0.478967 -0.416191)
(0.13274 0.484025 -0.43031)
(0.121917 0.452859 -0.407518)
(0.149268 0.501691 -0.443025)
(0.142455 0.522543 -0.454861)
(0.13553 0.510009 -0.458535)
(0.127488 0.520776 -0.46639)
(0.145478 0.5392 -0.471881)
(0.132352 0.512576 -0.439548)
(0.111776 0.423445 -0.367027)
(0.13611 0.514108 -0.450228)
(0.145192 0.555367 -0.482366)
(0.137063 0.509595 -0.435151)
(0.132615 0.530922 -0.453835)
(0.121779 0.476362 -0.420781)
(0.129571 0.509966 -0.447205)
(0.138121 0.512885 -0.452625)
(0.123586 0.466193 -0.401214)
(0.131739 0.517062 -0.447099)
(0.138592 0.508682 -0.447301)
(0.133123 0.503624 -0.438826)
(0.1275 0.44706 -0.39338)
(0.152194 0.566885 -0.499909)
(0.122693 0.478854 -0.425464)
(0.121436 0.477823 -0.418095)
(0.127739 0.486902 -0.429852)
(0.143039 0.548164 -0.483811)
(0.123094 0.487765 -0.425695)
(0.146284 0.526459 -0.462033)
(0.11779 0.489476 -0.441059)
(0.117816 0.475445 -0.425887)
(0.135694 0.504141 -0.45729)
(0.132565 0.512951 -0.448931)
(0.125645 0.492619 -0.436321)
(0.130655 0.489479 -0.426402)
(0.133978 0.524233 -0.448242)
(0.114123 0.439865 -0.385803)
(0.125132 0.485759 -0.419015)
(0.112437 0.41602 -0.370254)
(0.130235 0.545531 -0.475319)
(0.119658 0.476484 -0.421206)
(0.121827 0.505654 -0.43434)
(0.130743 0.513339 -0.449138)
(0.130446 0.481089 -0.415945)
(0.131251 0.477954 -0.422174)
(0.127332 0.52346 -0.469984)
(0.143261 0.547152 -0.485288)
(0.141847 0.522153 -0.456036)
(0.141144 0.519458 -0.455717)
(0.147643 0.553738 -0.481911)
(0.104627 0.410538 -0.36246)
(0.0971756 0.399864 -0.347418)
(0.115687 0.446537 -0.392381)
(0.11897 0.527153 -0.444157)
(0.111753 0.510436 -0.424975)
(0.112358 0.515247 -0.446231)
(0.132819 0.493463 -0.447728)
(0.148685 0.540828 -0.471311)
(0.117654 0.437508 -0.390944)
(0.135724 0.529541 -0.468631)
(0.139409 0.51814 -0.451978)
(0.135715 0.524783 -0.450543)
(0.133177 0.472408 -0.417093)
(0.164511 0.615193 -0.536532)
(0.108417 0.423266 -0.367291)
(0.128309 0.519788 -0.459785)
(0.133669 0.508077 -0.443865)
(0.130517 0.490152 -0.436162)
(0.114253 0.429357 -0.373116)
(0.138042 0.536892 -0.490367)
(0.125107 0.48194 -0.43103)
(0.139827 0.536499 -0.473101)
(0.139209 0.48874 -0.421045)
(0.11481 0.429688 -0.379217)
(0.147669 0.554916 -0.48434)
(0.146716 0.524445 -0.463811)
(0.127999 0.522686 -0.454906)
(0.117944 0.450275 -0.391556)
(0.129386 0.46042 -0.403504)
(0.127862 0.470489 -0.411164)
(0.125011 0.464597 -0.404751)
(0.143144 0.509664 -0.442043)
(0.134995 0.487814 -0.433449)
(0.122415 0.451502 -0.402854)
(0.127438 0.480609 -0.416296)
(0.130135 0.47768 -0.419635)
(0.113601 0.443101 -0.388051)
(0.131587 0.53265 -0.470834)
(0.128656 0.468196 -0.412149)
(0.136582 0.494424 -0.443329)
(0.109069 0.402311 -0.3574)
(0.12475 0.514157 -0.450727)
(0.140667 0.509712 -0.444779)
(0.137785 0.513747 -0.44959)
(0.147969 0.534002 -0.466131)
(0.143833 0.537326 -0.461916)
(0.130015 0.477223 -0.417865)
(0.147766 0.569016 -0.483407)
(0.122896 0.478004 -0.408988)
(0.147044 0.522827 -0.468667)
(0.133786 0.485723 -0.430569)
(0.126614 0.478373 -0.420614)
(0.141387 0.543787 -0.478977)
(0.137872 0.529743 -0.465247)
(0.118808 0.451177 -0.397551)
(0.129335 0.476797 -0.417748)
(0.151583 0.574455 -0.496385)
(0.124308 0.474326 -0.42296)
(0.144962 0.54946 -0.481468)
(0.171239 0.65988 -0.573394)
(0.153539 0.581761 -0.506677)
(0.145187 0.52782 -0.474268)
(0.144987 0.553761 -0.476552)
(0.127593 0.460931 -0.415143)
(0.134472 0.497094 -0.445871)
(0.136757 0.509391 -0.448925)
(0.117427 0.475232 -0.427092)
(0.126433 0.486503 -0.414513)
(0.126017 0.523241 -0.450156)
(0.132646 0.513553 -0.441163)
(0.120635 0.459539 -0.395128)
(0.121989 0.455249 -0.396277)
(0.119409 0.467752 -0.405479)
(0.138634 0.525022 -0.465668)
(0.141599 0.512663 -0.447176)
(0.141517 0.511909 -0.444563)
(0.138862 0.518458 -0.457941)
(0.159495 0.575676 -0.506107)
(0.138812 0.484129 -0.423644)
(0.139298 0.545233 -0.476337)
(0.129429 0.483891 -0.42556)
(0.144096 0.522551 -0.463732)
(0.119484 0.435942 -0.406213)
(0.12112 0.451252 -0.385101)
(0.14028 0.528942 -0.455848)
(0.127315 0.477485 -0.41488)
(0.123187 0.477178 -0.440423)
(0.124373 0.461963 -0.407494)
(0.132431 0.527468 -0.467577)
(0.112934 0.444719 -0.385738)
(0.121459 0.462975 -0.414661)
(0.121023 0.4375 -0.386619)
(0.111649 0.424239 -0.37241)
(0.129862 0.472677 -0.426452)
(0.134176 0.527371 -0.462787)
(0.140489 0.548925 -0.477786)
(0.114905 0.43506 -0.384654)
(0.127282 0.485485 -0.419286)
(0.120049 0.456418 -0.395249)
(0.129388 0.501495 -0.432921)
(0.111615 0.454784 -0.39906)
(0.127424 0.538575 -0.476852)
(0.122214 0.491261 -0.446562)
(0.150308 0.524672 -0.46621)
(0.132405 0.512215 -0.443812)
(0.120491 0.470667 -0.414015)
(0.145352 0.522754 -0.460509)
(0.13839 0.517727 -0.451069)
(0.146819 0.522839 -0.443458)
(0.12217 0.450747 -0.380782)
(0.139103 0.528199 -0.463608)
(0.130853 0.485178 -0.428382)
(0.112023 0.431767 -0.378175)
(0.137791 0.513151 -0.450911)
(0.114285 0.45701 -0.398115)
(0.119506 0.478554 -0.430188)
(0.126077 0.471124 -0.426207)
(0.113769 0.425569 -0.367676)
(0.121285 0.450438 -0.388239)
(0.135932 0.488745 -0.421996)
(0.110051 0.439499 -0.380231)
(0.121526 0.469957 -0.406857)
(0.160885 0.613904 -0.533994)
(0.126646 0.487747 -0.430648)
(0.131666 0.463399 -0.405058)
(0.121621 0.501685 -0.438846)
(0.131474 0.545205 -0.483244)
(0.131754 0.508294 -0.44301)
(0.119726 0.44362 -0.384629)
(0.125279 0.443542 -0.386038)
(0.124276 0.493315 -0.425994)
(0.132157 0.490585 -0.423242)
(0.121472 0.449333 -0.392442)
(0.129422 0.479745 -0.414891)
(0.133245 0.49864 -0.435492)
(0.11012 0.431526 -0.369167)
(0.122546 0.483184 -0.415713)
(0.194101 0.723182 -0.633889)
(0.166169 0.634975 -0.555433)
(0.106296 0.466013 -0.410389)
(0.127561 0.471038 -0.417452)
(0.168113 0.645988 -0.564292)
(0.209584 0.787151 -0.683136)
(0.190396 0.718399 -0.627839)
(0.159187 0.635508 -0.563108)
(0.137393 0.528122 -0.45865)
(0.189541 0.704977 -0.622732)
(0.208438 0.796085 -0.689219)
(0.151287 0.564489 -0.490121)
(0.209579 0.792384 -0.686607)
(0.188878 0.696423 -0.612656)
(0.15549 0.594633 -0.519351)
(0.156716 0.584408 -0.509235)
(0.195857 0.717997 -0.626325)
(0.140133 0.532127 -0.467037)
(0.18104 0.699083 -0.608935)
(0.123767 0.50073 -0.439132)
(0.16732 0.640308 -0.556304)
(0.151924 0.577395 -0.502453)
(0.130856 0.477287 -0.423354)
(0.17722 0.651246 -0.5765)
(0.139222 0.533817 -0.463055)
(0.138916 0.486866 -0.432866)
(0.143007 0.523155 -0.455223)
(0.161724 0.586065 -0.518395)
(0.161564 0.616125 -0.546278)
(0.157545 0.577242 -0.509021)
(0.185633 0.703946 -0.608074)
(0.13454 0.540675 -0.46722)
(0.133306 0.515327 -0.452563)
(0.138826 0.549286 -0.476176)
(0.173887 0.654247 -0.572723)
(0.165747 0.621825 -0.538521)
(0.120547 0.465044 -0.411724)
(0.128524 0.471064 -0.414001)
(0.19047 0.721989 -0.632885)
(0.144273 0.559965 -0.485475)
(0.15409 0.585004 -0.506534)
(0.18547 0.701774 -0.61186)
(0.160102 0.657005 -0.570541)
(0.187842 0.717044 -0.619179)
(0.201489 0.758776 -0.658287)
(0.145306 0.611719 -0.521366)
(0.174639 0.669517 -0.590824)
(0.20642 0.784218 -0.681897)
(0.18983 0.721067 -0.630658)
(0.173969 0.667916 -0.591696)
(0.186374 0.712124 -0.62644)
(0.143937 0.546704 -0.483432)
(0.198086 0.749332 -0.651968)
(0.137959 0.552583 -0.480998)
(0.141441 0.534115 -0.471522)
(0.135073 0.519512 -0.442657)
(0.132185 0.506749 -0.453007)
(0.203509 0.774329 -0.675013)
(0.205095 0.782366 -0.681737)
(0.152226 0.615219 -0.519809)
(0.180698 0.685215 -0.597241)
(0.209681 0.789362 -0.685104)
(0.205843 0.778341 -0.675396)
(0.166386 0.640327 -0.559028)
(0.134712 0.526298 -0.466055)
(0.133606 0.527749 -0.457671)
(0.158901 0.579351 -0.503003)
(0.126683 0.477838 -0.41426)
(0.123628 0.475861 -0.413655)
(0.178034 0.670578 -0.584888)
(0.160171 0.58306 -0.508524)
(0.139353 0.491152 -0.44558)
(0.199499 0.745439 -0.650668)
(0.133855 0.479839 -0.422112)
(0.185951 0.69586 -0.602594)
(0.177858 0.675932 -0.594325)
(0.149961 0.569182 -0.503621)
(0.14108 0.495465 -0.433798)
(0.198005 0.739437 -0.639033)
(0.209117 0.796092 -0.689597)
(0.192478 0.725693 -0.628634)
(0.202878 0.773108 -0.671761)
(0.190976 0.722238 -0.623159)
(0.204504 0.781235 -0.677742)
(0.183634 0.695186 -0.602973)
(0.194326 0.722554 -0.62555)
(0.12305 0.499416 -0.436513)
(0.151243 0.570383 -0.498916)
(0.176949 0.656216 -0.573942)
(0.153231 0.591073 -0.522667)
(0.185305 0.705511 -0.620459)
(0.177214 0.675994 -0.593548)
(0.20976 0.792409 -0.685877)
(0.199066 0.7466 -0.64344)
(0.210126 0.793479 -0.687803)
(0.203718 0.756779 -0.658509)
(0.211334 0.79312 -0.686401)
(0.209509 0.789675 -0.685483)
(0.200481 0.750315 -0.65436)
(0.202969 0.756514 -0.655981)
(0.140542 0.523497 -0.463832)
(0.20817 0.783272 -0.679037)
(0.209169 0.797473 -0.68944)
(0.186608 0.709142 -0.61903)
(0.153256 0.57276 -0.497805)
(0.18878 0.708283 -0.621177)
(0.203104 0.772318 -0.669955)
(0.182966 0.689409 -0.598091)
(0.199947 0.749999 -0.65322)
(0.137625 0.489699 -0.436004)
(0.121215 0.477648 -0.424719)
(0.178546 0.664944 -0.584444)
(0.120114 0.472248 -0.413584)
(0.126444 0.497128 -0.43697)
(0.143484 0.560222 -0.493723)
(0.122945 0.46868 -0.403997)
(0.125547 0.476436 -0.415141)
(0.15304 0.595719 -0.51039)
(0.128759 0.460004 -0.405608)
(0.158425 0.574899 -0.502821)
(0.152708 0.581911 -0.509421)
(0.150607 0.585376 -0.506034)
(0.200797 0.760749 -0.662459)
(0.168749 0.716496 -0.630459)
(0.127297 0.552631 -0.480011)
(0.19461 0.760742 -0.662267)
(0.174556 0.645843 -0.580123)
(0.200364 0.767257 -0.672977)
(0.151252 0.599948 -0.536754)
(0.15887 0.626459 -0.553999)
(0.181738 0.696918 -0.617457)
(0.135068 0.550222 -0.494727)
(0.17069 0.66104 -0.588932)
(0.201319 0.771833 -0.678511)
(0.171607 0.656114 -0.593994)
(0.191983 0.756725 -0.664809)
(0.200689 0.778957 -0.686023)
(0.153352 0.590738 -0.537033)
(0.112466 0.41479 -0.379512)
(0.129345 0.503527 -0.454186)
(0.15468 0.545517 -0.497431)
(0.137732 0.487584 -0.435717)
(0.0922659 0.42475 -0.35081)
(0.157836 0.593691 -0.521469)
(0.207689 0.797921 -0.689169)
(0.192406 0.737884 -0.642909)
(0.154805 0.614593 -0.538055)
(0.192987 0.74805 -0.65152)
(0.202281 0.778487 -0.675684)
(0.190677 0.731756 -0.636921)
(0.199491 0.766055 -0.666561)
(0.11847 0.470344 -0.412269)
(0.14008 0.528004 -0.457082)
(0.203291 0.76666 -0.664351)
(0.156345 0.596556 -0.526724)
(0.145239 0.528792 -0.466267)
(0.187932 0.710667 -0.61517)
(0.118536 0.458125 -0.404349)
(0.148217 0.564045 -0.491218)
(0.170993 0.622305 -0.547675)
(0.195734 0.742234 -0.647333)
(0.144979 0.564811 -0.489868)
(0.19541 0.747914 -0.651133)
(0.192634 0.721707 -0.629939)
(0.161838 0.632455 -0.554618)
(0.205684 0.787191 -0.682065)
(0.189494 0.719547 -0.624863)
(0.206758 0.795959 -0.690001)
(0.202431 0.777934 -0.67593)
(0.186644 0.714658 -0.623729)
(0.155998 0.557303 -0.491685)
(0.157302 0.584333 -0.515021)
(0.196523 0.761348 -0.662068)
(0.141665 0.530858 -0.465604)
(0.168832 0.627373 -0.55396)
(0.206971 0.794585 -0.688386)
(0.1938 0.735168 -0.63807)
(0.197329 0.761461 -0.662744)
(0.15805 0.60865 -0.525257)
(0.160424 0.594321 -0.521186)
(0.126716 0.473716 -0.416163)
(0.135914 0.473698 -0.409488)
(0.206663 0.779528 -0.676217)
(0.173348 0.655929 -0.572421)
(0.206246 0.77666 -0.674187)
(0.186064 0.700593 -0.612065)
(0.203957 0.761397 -0.663818)
(0.198386 0.743827 -0.647897)
(0.194903 0.717014 -0.630275)
(0.111631 0.442739 -0.397515)
(0.19812 0.752644 -0.653942)
(0.199943 0.767291 -0.66612)
(0.202165 0.771584 -0.66996)
(0.200576 0.762579 -0.663339)
(0.186809 0.714859 -0.623779)
(0.180747 0.692212 -0.600572)
(0.202539 0.773936 -0.674053)
(0.119324 0.461509 -0.400506)
(0.12745 0.501437 -0.429261)
(0.129389 0.536691 -0.46867)
(0.117389 0.480188 -0.431137)
(0.140425 0.542299 -0.47317)
(0.165209 0.638459 -0.56058)
(0.112612 0.424685 -0.376835)
(0.136161 0.517263 -0.457199)
(0.128577 0.503976 -0.444192)
(0.153119 0.554664 -0.495082)
(0.172706 0.629375 -0.55062)
(0.146231 0.543767 -0.480435)
(0.150906 0.563633 -0.496812)
(0.14344 0.560812 -0.486664)
(0.155425 0.570739 -0.49353)
(0.153748 0.570431 -0.488248)
(0.20899 0.793748 -0.689388)
(0.203005 0.767364 -0.667335)
(0.206363 0.786542 -0.68532)
(0.204901 0.776517 -0.673211)
(0.210058 0.791737 -0.686141)
(0.209518 0.786957 -0.682298)
(0.207257 0.781775 -0.678344)
(0.134595 0.530991 -0.472471)
(0.181581 0.693886 -0.609123)
(0.167001 0.643508 -0.566779)
(0.190563 0.727344 -0.6376)
(0.167123 0.63478 -0.557285)
(0.17849 0.676561 -0.596219)
(0.188544 0.712139 -0.624053)
(0.1279 0.503633 -0.449239)
(0.124924 0.519817 -0.45809)
(0.130322 0.517541 -0.456157)
(0.130186 0.544387 -0.488006)
(0.110431 0.462558 -0.410372)
(0.157654 0.608123 -0.53755)
(0.159085 0.633543 -0.558097)
(0.131492 0.478655 -0.413913)
(0.177527 0.671909 -0.58819)
(0.170153 0.643787 -0.566751)
(0.173014 0.64771 -0.570012)
(0.175064 0.652379 -0.574635)
(0.194086 0.74461 -0.648761)
(0.158804 0.605597 -0.528851)
(0.195272 0.74135 -0.646598)
(0.157858 0.583081 -0.503989)
(0.174079 0.64216 -0.558356)
(0.164966 0.628757 -0.544028)
(0.170808 0.648202 -0.56606)
(0.205015 0.761305 -0.66674)
(0.210805 0.786524 -0.682692)
(0.208047 0.784007 -0.683566)
(0.209396 0.786091 -0.683239)
(0.196771 0.732718 -0.640943)
(0.197633 0.733759 -0.642854)
(0.208884 0.784959 -0.683391)
(0.12485 0.461058 -0.399814)
(0.203744 0.770162 -0.669703)
(0.196909 0.736742 -0.641984)
(0.201371 0.763552 -0.66434)
(0.199681 0.76143 -0.662161)
(0.205587 0.783663 -0.678703)
(0.20523 0.782065 -0.675876)
(0.19948 0.760382 -0.661814)
(0.162247 0.61022 -0.535313)
(0.14832 0.575836 -0.504771)
(0.207245 0.784174 -0.680037)
(0.210147 0.79571 -0.688275)
(0.205532 0.780696 -0.678177)
(0.209318 0.793175 -0.686249)
(0.209726 0.792738 -0.688322)
(0.210197 0.795121 -0.688784)
(0.208657 0.791387 -0.686171)
(0.205916 0.767868 -0.669583)
(0.20918 0.786192 -0.682735)
(0.202898 0.757766 -0.66155)
(0.207903 0.783413 -0.679212)
(0.203232 0.758263 -0.657818)
(0.199323 0.753681 -0.654797)
(0.20874 0.782624 -0.678357)
(0.169947 0.637606 -0.557241)
(0.136469 0.52707 -0.469357)
(0.125124 0.458378 -0.397021)
(0.154639 0.560688 -0.491317)
(0.13375 0.502837 -0.433721)
(0.122837 0.441215 -0.392022)
(0.132937 0.496988 -0.441472)
(0.119045 0.503166 -0.441876)
(0.142612 0.540768 -0.461355)
(0.127037 0.520014 -0.449483)
(0.131548 0.520519 -0.43421)
(0.134595 0.518751 -0.44308)
(0.123678 0.449004 -0.390303)
(0.117095 0.448218 -0.391334)
(0.0998636 0.398229 -0.358839)
(0.122932 0.460994 -0.41103)
(0.11535 0.504786 -0.449508)
(0.161731 0.658589 -0.580464)
(0.114663 0.493592 -0.454156)
(0.152491 0.611098 -0.53941)
(0.130295 0.553929 -0.49322)
(0.135918 0.525635 -0.457012)
(0.133785 0.511701 -0.447108)
(0.125677 0.501275 -0.445905)
(0.12315 0.486881 -0.436699)
(0.128068 0.50316 -0.458025)
(0.130748 0.529736 -0.482456)
(0.13352 0.499342 -0.459594)
(0.12735 0.483435 -0.429369)
(0.205139 0.778307 -0.679255)
(0.204327 0.771703 -0.672508)
(0.169978 0.61665 -0.542622)
(0.201935 0.758437 -0.664563)
(0.170009 0.619563 -0.550981)
(0.188103 0.699314 -0.617235)
(0.118101 0.508279 -0.43887)
(0.112413 0.512519 -0.442548)
(0.134307 0.503058 -0.431453)
(0.127785 0.466966 -0.417482)
(0.138809 0.522281 -0.458494)
(0.133558 0.498999 -0.437189)
(0.184592 0.697641 -0.611841)
(0.124431 0.493399 -0.434569)
(0.159591 0.627455 -0.551939)
(0.163038 0.635613 -0.55121)
(0.166919 0.645438 -0.562638)
(0.156321 0.602225 -0.537202)
(0.207622 0.785549 -0.680005)
(0.179806 0.664517 -0.581527)
(0.203987 0.769522 -0.667644)
(0.183669 0.665135 -0.586233)
(0.201578 0.760512 -0.657499)
(0.195592 0.724826 -0.628366)
(0.194982 0.726626 -0.633677)
(0.17363 0.650625 -0.562264)
(0.16751 0.625983 -0.55481)
(0.18858 0.702656 -0.609348)
(0.162316 0.600736 -0.528132)
(0.133883 0.524447 -0.464648)
(0.165683 0.611897 -0.530257)
(0.128653 0.476432 -0.416992)
(0.114182 0.437969 -0.387548)
(0.137026 0.508232 -0.446977)
(0.150827 0.564222 -0.492839)
(0.142655 0.555581 -0.485119)
(0.157805 0.591543 -0.517398)
(0.154261 0.587698 -0.515672)
(0.16347 0.636574 -0.552791)
(0.147078 0.555921 -0.485343)
(0.181917 0.70593 -0.614254)
(0.162814 0.62229 -0.549747)
(0.168174 0.645955 -0.568531)
(0.176267 0.655106 -0.571071)
(0.152427 0.57692 -0.500242)
(0.149427 0.583131 -0.502951)
(0.119215 0.451957 -0.397537)
(0.194269 0.728075 -0.636325)
(0.149308 0.55784 -0.493429)
(0.199326 0.747106 -0.651085)
(0.16842 0.630204 -0.555335)
(0.170318 0.609473 -0.541241)
(0.141042 0.548053 -0.477588)
(0.183907 0.682794 -0.600331)
(0.182832 0.676283 -0.595761)
(0.192352 0.708161 -0.622405)
(0.140113 0.511102 -0.446125)
(0.142365 0.51915 -0.454775)
(0.186526 0.686753 -0.606178)
(0.183304 0.685551 -0.599798)
(0.138734 0.48077 -0.429418)
(0.12097 0.469406 -0.423333)
(0.193911 0.716696 -0.631191)
(0.112545 0.444788 -0.392065)
(0.124355 0.475316 -0.418205)
(0.169073 0.629189 -0.552931)
(0.172576 0.654459 -0.571707)
(0.134717 0.473849 -0.422126)
(0.139544 0.531303 -0.474016)
(0.119753 0.469822 -0.412538)
(0.123894 0.469296 -0.409798)
(0.134654 0.526527 -0.459268)
(0.158634 0.606875 -0.531731)
(0.147879 0.540749 -0.473094)
(0.118064 0.439035 -0.376552)
(0.134881 0.505078 -0.437329)
(0.131877 0.481306 -0.424169)
(0.141295 0.525536 -0.459374)
(0.144948 0.547188 -0.475716)
(0.117256 0.440403 -0.382105)
(0.144639 0.550214 -0.484234)
(0.117715 0.441618 -0.388317)
(0.151617 0.588209 -0.512839)
(0.138386 0.519821 -0.451224)
(0.126121 0.459176 -0.40105)
(0.150998 0.514601 -0.451799)
(0.148114 0.54255 -0.473691)
(0.150249 0.534706 -0.470227)
(0.140013 0.504565 -0.441259)
(0.187796 0.684666 -0.608168)