/*--------------------------------*- C++ -*----------------------------------*\
| =========                 |                                                 |
| \\      /  F ield         | OpenFOAM: The Open Source CFD Toolbox           |
|  \\    /   O peration     | Version:  v1612+                                |
|   \\  /    A nd           | Web:      www.OpenFOAM.com                      |
|    \\/     M anipulation  |                                                 |
\*---------------------------------------------------------------------------*/
FoamFile
{
    version     2.0;
    format      ascii;
    class       volVectorField;
    location    "100";
    object      wallShearStress;
}
// * * * * * * * * * * * * * * * * * * * * * * * * * * * * * * * * * * * * * //

dimensions      [0 2 -2 0 0 0 0];

internalField   uniform (0 0 0);

boundaryField
{
    WALL
    {
        type            calculated;
        value           nonuniform List<vector> 
1573
(
(-0.00306896 -0.011614 0.00978506)
(-0.0023236 -0.0104021 0.00968771)
(-0.00283514 -0.0104251 0.00911627)
(-0.00265797 -0.0102611 0.00910053)
(-0.00272836 -0.0106665 0.00930728)
(-0.00287932 -0.0106232 0.00936078)
(-0.00310706 -0.010719 0.00922811)
(-0.00268728 -0.0103851 0.00916306)
(-0.00260791 -0.0105472 0.00908405)
(-0.00267811 -0.0101097 0.008557)
(-0.00270995 -0.0105269 0.0091888)
(-0.00284777 -0.0105976 0.00926455)
(-0.00283838 -0.0106534 0.00930179)
(-0.00297884 -0.0107137 0.00934286)
(-0.00280103 -0.0107157 0.0094139)
(-0.0026587 -0.0105373 0.00918353)
(-0.00269431 -0.0107652 0.00923364)
(-0.00275692 -0.0107869 0.0093673)
(-0.00286722 -0.0105941 0.00927624)
(-0.00280519 -0.0104213 0.00915778)
(-0.0028691 -0.010767 0.00935008)
(-0.00278152 -0.0108116 0.00933058)
(-0.00273743 -0.00995362 0.00850973)
(-0.00243072 -0.0109391 0.00927976)
(-0.00242696 -0.00997064 0.00900177)
(-0.00288541 -0.0108158 0.00946759)
(-0.00275064 -0.0109554 0.00988834)
(-0.0029299 -0.0108972 0.00954538)
(-0.0026302 -0.00983936 0.00848302)
(-0.00226885 -0.0100546 0.00862397)
(-0.00262298 -0.0109176 0.00936075)
(-0.00299801 -0.0106805 0.00950275)
(-0.00279198 -0.0107175 0.00940309)
(-0.00288395 -0.0106414 0.00918503)
(-0.00269595 -0.0109184 0.00950911)
(-0.00301299 -0.0104878 0.00941969)
(-0.0025243 -0.0111532 0.00867312)
(-0.00273538 -0.011526 0.00978605)
(-0.00314749 -0.0113351 0.00985755)
(-0.00260512 -0.00988669 0.00907974)
(-0.00269742 -0.01034 0.00900811)
(-0.00274458 -0.0104102 0.00904554)
(-0.0028915 -0.0105693 0.00925239)
(-0.00271141 -0.0104169 0.00904618)
(-0.00255133 -0.0100045 0.00864373)
(-0.00278193 -0.0103829 0.00864226)
(-0.00275664 -0.0107288 0.00952391)
(-0.00271049 -0.0104144 0.00900561)
(-0.00285493 -0.0107073 0.00924988)
(-0.00259868 -0.0104544 0.00918618)
(-0.00289021 -0.0105495 0.00905018)
(-0.00269291 -0.0102861 0.00900632)
(-0.00261801 -0.010335 0.00916017)
(-0.00242294 -0.0103555 0.00929784)
(-0.00266239 -0.0106975 0.00946357)
(-0.00291713 -0.0104977 0.00920871)
(-0.00245552 -0.00954336 0.00871366)
(-0.00262435 -0.00949534 0.00849855)
(-0.00257079 -0.00971719 0.0086861)
(-0.00273572 -0.0102983 0.00806765)
(-0.00251672 -0.0100457 0.0087014)
(-0.00270833 -0.0101091 0.00885307)
(-0.00273206 -0.0104391 0.00909547)
(-0.00283386 -0.0106985 0.00939583)
(-0.00281484 -0.0103372 0.00896237)
(-0.00284857 -0.0106085 0.00912316)
(-0.00285344 -0.0106623 0.00929425)
(-0.00245039 -0.0102643 0.00917987)
(-0.00278353 -0.0103255 0.00893207)
(-0.00274979 -0.0108023 0.00946908)
(-0.00276017 -0.010884 0.00949437)
(-0.00289924 -0.0108723 0.00963864)
(-0.00281011 -0.0104507 0.00931753)
(-0.00265927 -0.0102383 0.00892916)
(-0.0027411 -0.0105137 0.0092749)
(-0.00257613 -0.0108661 0.00968678)
(-0.00317536 -0.0109294 0.00955308)
(-0.00275703 -0.0108059 0.00942289)
(-0.00275681 -0.0104789 0.00921719)
(-0.00283489 -0.0109223 0.00946444)
(-0.0027978 -0.0106972 0.009479)
(-0.00291404 -0.0106886 0.00941026)
(-0.00294799 -0.0109424 0.00949015)
(-0.00239382 -0.0106427 0.00958047)
(-0.00278447 -0.0106305 0.00928487)
(-0.00268917 -0.0106516 0.00946703)
(-0.00240277 -0.0100829 0.00915198)
(-0.00261046 -0.01022 0.00903369)
(-0.00273666 -0.010857 0.00957264)
(-0.00264421 -0.0106487 0.00962456)
(-0.00267944 -0.0104316 0.00942036)
(-0.00263697 -0.0108503 0.00892989)
(-0.00281128 -0.0112777 0.00936149)
(-0.00234799 -0.00990162 0.0095725)
(-0.00296802 -0.0104168 0.00906865)
(-0.00223151 -0.00942816 0.00836061)
(-0.00226729 -0.0105862 0.00833081)
(-0.00300645 -0.0106866 0.00885755)
(-0.00264153 -0.010059 0.00884478)
(-0.00285211 -0.0102356 0.00927936)
(-0.00270804 -0.0101946 0.00868505)
(-0.00281701 -0.0100553 0.00901344)
(-0.00287167 -0.0103007 0.00887617)
(-0.00304737 -0.0104032 0.00923258)
(-0.00296217 -0.0106207 0.00929875)
(-0.00252058 -0.010049 0.00878163)
(-0.00257345 -0.0103484 0.0086102)
(-0.00258908 -0.0101971 0.00848265)
(-0.00272844 -0.0114068 0.0100156)
(-0.00257705 -0.0109981 0.00898842)
(-0.00260933 -0.010426 0.00928646)
(-0.0026734 -0.0101216 0.0088221)
(-0.00267516 -0.0104776 0.00909281)
(-0.00271094 -0.0104254 0.00906229)
(-0.00274733 -0.0105269 0.0092119)
(-0.00287913 -0.0104768 0.00911738)
(-0.00289566 -0.0105246 0.0093941)
(-0.00276014 -0.0106735 0.00910093)
(-0.00276591 -0.010018 0.00874073)
(-0.00273595 -0.0102476 0.00870672)
(-0.00268928 -0.0104425 0.00944898)
(-0.00237033 -0.00999424 0.00914705)
(-0.00286114 -0.0105501 0.00916678)
(-0.0029299 -0.0107587 0.00927394)
(-0.00282332 -0.0109208 0.00945875)
(-0.00293151 -0.0107221 0.00932061)
(-0.00258187 -0.0102692 0.00918462)
(-0.00275326 -0.0108183 0.00944582)
(-0.00266966 -0.00991521 0.00948622)
(-0.00254838 -0.010836 0.0104001)
(-0.00280157 -0.010534 0.00907043)
(-0.0027858 -0.0103058 0.00904026)
(-0.00287987 -0.0106932 0.00928156)
(-0.0027602 -0.0105139 0.00913943)
(-0.0028597 -0.0107905 0.00935903)
(-0.00277812 -0.0104489 0.00914335)
(-0.00278338 -0.0105278 0.00904639)
(-0.00272031 -0.010376 0.0088964)
(-0.00256644 -0.0104868 0.00903434)
(-0.00276636 -0.0103744 0.009298)
(-0.00292316 -0.0105839 0.00941183)
(-0.00290485 -0.0105547 0.00951933)
(-0.00253191 -0.0109656 0.00871467)
(-0.0031393 -0.011013 0.00976289)
(-0.00271444 -0.0103747 0.0090827)
(-0.00285592 -0.0104069 0.0092834)
(-0.00283643 -0.0100907 0.00906328)
(-0.00293539 -0.0107623 0.00939866)
(-0.00266667 -0.0100483 0.00892536)
(-0.00274327 -0.0103775 0.00921103)
(-0.00268394 -0.0100452 0.00888487)
(-0.00265883 -0.0104686 0.00921287)
(-0.00279662 -0.0100455 0.00897051)
(-0.00278505 -0.0104119 0.00906869)
(-0.0029946 -0.0105215 0.00925278)
(-0.00298743 -0.0107502 0.0094549)
(-0.00328076 -0.0108801 0.00965257)
(-0.00310848 -0.0103008 0.00912735)
(-0.00283985 -0.0106072 0.00921775)
(-0.0028699 -0.0103966 0.00910158)
(-0.00285716 -0.0105353 0.0092184)
(-0.00291919 -0.0109649 0.00965131)
(-0.00280114 -0.0106608 0.00932238)
(-0.00274001 -0.0105701 0.00927857)
(-0.00271757 -0.0103403 0.00889212)
(-0.00294365 -0.0105357 0.00940446)
(-0.00292301 -0.0105221 0.00925687)
(-0.0027852 -0.0102659 0.00894991)
(-0.00280208 -0.0104154 0.00901568)
(-0.00295676 -0.0107638 0.00949507)
(-0.00262682 -0.0104857 0.0092258)
(-0.00262516 -0.0101628 0.00898222)
(-0.00283107 -0.0106656 0.0096093)
(-0.00290238 -0.0107837 0.00920979)
(-0.00271779 -0.0105022 0.00945557)
(-0.00289367 -0.0105692 0.00917076)
(-0.00289663 -0.0109092 0.00955343)
(-0.00258758 -0.0104089 0.00919377)
(-0.00291489 -0.0108151 0.00949866)
(-0.00285923 -0.0108454 0.00939109)
(-0.00294709 -0.0107295 0.00927327)
(-0.00286074 -0.0109613 0.00958106)
(-0.00282036 -0.010465 0.00905264)
(-0.00298745 -0.0105825 0.00914089)
(-0.00306342 -0.010847 0.00919689)
(-0.00289704 -0.0111084 0.00974037)
(-0.003063 -0.0110964 0.00955376)
(-0.00260278 -0.0105373 0.00944918)
(-0.00278912 -0.0105157 0.00949294)
(-0.00302884 -0.0111258 0.00952204)
(-0.00293917 -0.0106477 0.00914235)
(-0.00302651 -0.0106127 0.00916426)
(-0.00282662 -0.0108235 0.00926018)
(-0.00277871 -0.0108782 0.00946328)
(-0.00279271 -0.0107647 0.00945624)
(-0.00284191 -0.0106798 0.00926783)
(-0.00279061 -0.0105135 0.00905649)
(-0.00262128 -0.0102385 0.00932014)
(-0.00263684 -0.0107122 0.00947617)
(-0.00288314 -0.0107935 0.00923473)
(-0.00270784 -0.0102218 0.00876455)
(-0.00267148 -0.0101976 0.00906962)
(-0.00284863 -0.010499 0.00922148)
(-0.0027338 -0.0104296 0.00913836)
(-0.00274991 -0.0102988 0.00906179)
(-0.00261153 -0.0102488 0.00923014)
(-0.00266326 -0.0107889 0.00951053)
(-0.00279146 -0.0107265 0.0092838)
(-0.00271492 -0.0105106 0.00929709)
(-0.00255848 -0.0101062 0.00895724)
(-0.00265758 -0.0101131 0.00871394)
(-0.00280339 -0.010298 0.00896595)
(-0.00276248 -0.0104162 0.00908621)
(-0.00263797 -0.00986023 0.00861763)
(-0.00259812 -0.0103876 0.00906529)
(-0.00282103 -0.0106787 0.00919048)
(-0.00271673 -0.0103356 0.00900048)
(-0.0028916 -0.0100548 0.00889655)
(-0.00275185 -0.0101093 0.00886277)
(-0.0031077 -0.0105568 0.00930013)
(-0.00287708 -0.0105024 0.00922524)
(-0.00258052 -0.00980956 0.00907265)
(-0.00290332 -0.0103502 0.00913771)
(-0.00270542 -0.010133 0.00892195)
(-0.00280263 -0.0107096 0.00928972)
(-0.00258091 -0.0100697 0.00870122)
(-0.00248663 -0.00973763 0.00863039)
(-0.00310395 -0.0105053 0.00959177)
(-0.00309789 -0.0109727 0.00975288)
(-0.00269667 -0.0105278 0.00919247)
(-0.00266726 -0.0105707 0.00930675)
(-0.00292808 -0.0105394 0.00940657)
(-0.00253103 -0.0101603 0.00867764)
(-0.00227521 -0.0107413 0.00941796)
(-0.00248319 -0.0111033 0.00963914)
(-0.00231393 -0.010553 0.0091993)
(-0.0026687 -0.0107893 0.00922414)
(-0.00228386 -0.011147 0.00975501)
(-0.00232822 -0.0106854 0.00924073)
(-0.00248613 -0.00961813 0.00878433)
(-0.00280296 -0.010207 0.00911513)
(-0.00274877 -0.0104207 0.00889178)
(-0.0026686 -0.0101501 0.0086929)
(-0.00269322 -0.010392 0.00877407)
(-0.00237567 -0.00973688 0.00820289)
(-0.00247701 -0.00930827 0.0083035)
(-0.00290947 -0.010669 0.00922168)
(-0.00273764 -0.0103524 0.00898272)
(-0.00288571 -0.0106012 0.00932743)
(-0.00268986 -0.0106043 0.0092685)
(-0.00290256 -0.0108637 0.00935232)
(-0.00282014 -0.0109351 0.00941783)
(-0.00266945 -0.0104297 0.00903432)
(-0.00294615 -0.0104548 0.00920692)
(-0.00265929 -0.0106381 0.00895747)
(-0.00285283 -0.0106328 0.00919252)
(-0.00275844 -0.0103169 0.00918055)
(-0.00267491 -0.0103163 0.00883148)
(-0.00287354 -0.0103684 0.00926511)
(-0.00263865 -0.00997742 0.0087643)
(-0.00289406 -0.0106087 0.00915387)
(-0.00306504 -0.0112151 0.00975377)
(-0.00286353 -0.0106492 0.0088689)
(-0.00286229 -0.0104095 0.00908937)
(-0.00256725 -0.00963683 0.00863517)
(-0.00272291 -0.0101578 0.00896375)
(-0.00285472 -0.0100801 0.00905197)
(-0.00260765 -0.00923812 0.00849075)
(-0.00272851 -0.0102142 0.00863773)
(-0.00285698 -0.00989634 0.00871716)
(-0.00257037 -0.0106006 0.00938425)
(-0.00249958 -0.010297 0.00942296)
(-0.00262571 -0.0104667 0.00937054)
(-0.00275954 -0.0102882 0.00918996)
(-0.00248135 -0.0104656 0.00937469)
(-0.00253471 -0.010875 0.00966388)
(-0.00256485 -0.0105614 0.00921424)
(-0.00302184 -0.0104865 0.00899699)
(-0.00272956 -0.0107737 0.00949736)
(-0.00241295 -0.0105544 0.00966951)
(-0.00255441 -0.0102348 0.00922672)
(-0.00292029 -0.0105558 0.00912787)
(-0.00266242 -0.0108459 0.0097661)
(-0.00255836 -0.0102302 0.00922819)
(-0.00265141 -0.0103268 0.00922465)
(-0.00268837 -0.0104163 0.0093972)
(-0.00275797 -0.0108533 0.00933083)
(-0.00246415 -0.00975495 0.00846798)
(-0.00251148 -0.0103606 0.00938552)
(-0.00265108 -0.0106192 0.00941887)
(-0.00269188 -0.0102385 0.00907842)
(-0.00268764 -0.0103842 0.0091885)
(-0.00277508 -0.0109293 0.00976237)
(-0.00292494 -0.0109041 0.00946167)
(-0.00237557 -0.0101593 0.00960272)
(-0.00266024 -0.0102368 0.0093194)
(-0.0024504 -0.00984326 0.00903238)
(-0.00273783 -0.0107316 0.00922973)
(-0.00249092 -0.0101902 0.00971011)
(-0.00254061 -0.0108403 0.00985167)
(-0.00295661 -0.0103079 0.00883311)
(-0.00260457 -0.00980518 0.00893403)
(-0.00286869 -0.0103033 0.00960639)
(-0.00259533 -0.00938515 0.0081178)
(-0.00285212 -0.0104298 0.00882683)
(-0.00283016 -0.0101267 0.00884163)
(-0.00271136 -0.010627 0.00967163)
(-0.00273105 -0.0106003 0.00981823)
(-0.0028501 -0.0112579 0.00985411)
(-0.0026477 -0.0109027 0.0101337)
(-0.00289772 -0.0107506 0.00951555)
(-0.00261536 -0.0105858 0.00976253)
(-0.00259996 -0.0105836 0.009721)
(-0.00270979 -0.0101299 0.00926751)
(-0.00262958 -0.0104486 0.00951563)
(-0.00257086 -0.0101965 0.00952921)
(-0.00279719 -0.0104905 0.00929949)
(-0.00264236 -0.0104477 0.00936176)
(-0.00275857 -0.0106118 0.00936424)
(-0.00312976 -0.0106206 0.00966754)
(-0.0029421 -0.0103636 0.00932396)
(-0.00283119 -0.0100994 0.00919812)
(-0.00303146 -0.0105983 0.00966076)
(-0.00269164 -0.0104253 0.00896507)
(-0.00270768 -0.00996919 0.0087718)
(-0.00247679 -0.0105707 0.00897895)
(-0.00262355 -0.0106221 0.0089836)
(-0.00258754 -0.0103382 0.00879323)
(-0.00276551 -0.010792 0.00896748)
(-0.00270019 -0.0104673 0.00892217)
(-0.00292535 -0.0106899 0.00934057)
(-0.00303588 -0.0107564 0.00938047)
(-0.00298122 -0.010338 0.00916023)
(-0.0028759 -0.0105344 0.00931639)
(-0.00283625 -0.0102915 0.00908967)
(-0.00316079 -0.0106332 0.00937398)
(-0.00279256 -0.0108485 0.00932404)
(-0.00297291 -0.0108759 0.00937054)
(-0.00274537 -0.0103601 0.00918219)
(-0.00272114 -0.0104895 0.00917444)
(-0.0027981 -0.0105452 0.00921175)
(-0.00284966 -0.0105064 0.0093098)
(-0.00274568 -0.01054 0.00927183)
(-0.00281855 -0.0107643 0.00932974)
(-0.00270555 -0.0109019 0.00959643)
(-0.00281224 -0.0107406 0.00935837)
(-0.00271458 -0.010947 0.00951554)
(-0.00274466 -0.0102733 0.00909346)
(-0.00323204 -0.0112486 0.00966273)
(-0.00294957 -0.010934 0.00944103)
(-0.00299803 -0.0108338 0.00935514)
(-0.00276968 -0.0107441 0.00947077)
(-0.00284486 -0.0110253 0.00967439)
(-0.00286592 -0.0107413 0.00950306)
(-0.00262174 -0.0107397 0.00888518)
(-0.00275182 -0.0101426 0.00903858)
(-0.00301287 -0.010921 0.00945375)
(-0.00263699 -0.0104896 0.00896348)
(-0.00275635 -0.0107775 0.00939108)
(-0.00305318 -0.0108306 0.00953023)
(-0.00306241 -0.0111031 0.00945547)
(-0.00293486 -0.0104016 0.00915936)
(-0.0027609 -0.0107108 0.00937848)
(-0.0028141 -0.0106079 0.00920128)
(-0.00309508 -0.0106804 0.0092558)
(-0.00283605 -0.0106279 0.00924562)
(-0.00288634 -0.0104927 0.00898939)
(-0.00283134 -0.010825 0.00944898)
(-0.00291318 -0.0106417 0.00939202)
(-0.00278517 -0.0104218 0.00899163)
(-0.00290748 -0.0114275 0.0101712)
(-0.00273836 -0.0102921 0.0089445)
(-0.0027162 -0.0106128 0.00949501)
(-0.0028369 -0.0111935 0.00995138)
(-0.00285463 -0.0104039 0.00893613)
(-0.00290616 -0.0112248 0.00984951)
(-0.00282436 -0.0106406 0.0092194)
(-0.00284943 -0.0108587 0.00955585)
(-0.00289784 -0.0108877 0.00961353)
(-0.00305477 -0.0106863 0.00949968)
(-0.00279238 -0.0108582 0.00952695)
(-0.0027453 -0.0102143 0.00909284)
(-0.00303812 -0.0109983 0.00967355)
(-0.00260831 -0.0107767 0.0095642)
(-0.00271341 -0.0107196 0.00930253)
(-0.00263186 -0.0106857 0.0092536)
(-0.00289102 -0.0109333 0.00946459)
(-0.00294327 -0.0109841 0.0096148)
(-0.00266473 -0.0105101 0.00913493)
(-0.00265899 -0.010015 0.00874872)
(-0.00257656 -0.0099087 0.00914337)
(-0.00226306 -0.00942287 0.00870453)
(-0.00280285 -0.0105279 0.00923304)
(-0.00280825 -0.0104652 0.00918725)
(-0.00268135 -0.0104315 0.00873553)
(-0.0028544 -0.0104018 0.0089171)
(-0.00271499 -0.0100894 0.00854605)
(-0.00277412 -0.0104723 0.00943249)
(-0.00265066 -0.0100817 0.00813069)
(-0.00277639 -0.0107336 0.00918881)
(-0.00281844 -0.0100769 0.00874121)
(-0.00291292 -0.0108899 0.00954844)
(-0.00300932 -0.0105789 0.00905811)
(-0.00297167 -0.0103601 0.0090409)
(-0.00300165 -0.0108501 0.00956113)
(-0.00282971 -0.0111064 0.00956451)
(-0.00290421 -0.0104948 0.00930172)
(-0.0029518 -0.010824 0.00946056)
(-0.00296389 -0.0100458 0.00892636)
(-0.0028923 -0.0103298 0.00897828)
(-0.00281228 -0.0102725 0.00898088)
(-0.00282352 -0.0105786 0.00920985)
(-0.00276023 -0.0108613 0.00945909)
(-0.00302949 -0.0108986 0.00944708)
(-0.00280184 -0.0103627 0.00897732)
(-0.00311813 -0.0105226 0.00922422)
(-0.00278649 -0.0109436 0.00957674)
(-0.00296768 -0.0109802 0.00950787)
(-0.00317896 -0.0110779 0.00981856)
(-0.00284144 -0.010809 0.00938525)
(-0.00292715 -0.010537 0.00933049)
(-0.0029457 -0.0107941 0.00960777)
(-0.00290955 -0.0104822 0.00919276)
(-0.00277688 -0.0102934 0.00901701)
(-0.00273864 -0.0104393 0.00903211)
(-0.00276479 -0.0107235 0.00916644)
(-0.00272671 -0.010405 0.00910089)
(-0.00277267 -0.0101805 0.00903917)
(-0.00264231 -0.0101514 0.00862332)
(-0.00244965 -0.00986042 0.00915226)
(-0.00279473 -0.0102564 0.00890114)
(-0.00247023 -0.00982945 0.00922632)
(-0.00239904 -0.0094917 0.0083356)
(-0.00273167 -0.0108723 0.00939223)
(-0.00281227 -0.0106988 0.00920263)
(-0.00295415 -0.0111064 0.00980681)
(-0.0027548 -0.0110966 0.00961838)
(-0.00288098 -0.0110331 0.00952688)
(-0.0027274 -0.011233 0.00980558)
(-0.00292659 -0.0111618 0.00973802)
(-0.00300686 -0.0108646 0.00941983)
(-0.00290489 -0.0110842 0.00969043)
(-0.00298104 -0.0111927 0.00966497)
(-0.00287781 -0.0110932 0.00978161)
(-0.00277602 -0.0109898 0.00948339)
(-0.00275341 -0.0102923 0.00893335)
(-0.00266949 -0.0106547 0.00918002)
(-0.00287207 -0.0102276 0.00903531)
(-0.00265351 -0.0106825 0.00912376)
(-0.00258421 -0.0107479 0.00917939)
(-0.00260174 -0.0106695 0.0090097)
(-0.00303816 -0.0102034 0.00908091)
(-0.00311366 -0.0110629 0.00980196)
(-0.00305738 -0.0106906 0.00938366)
(-0.00295335 -0.0108663 0.00964363)
(-0.00300663 -0.0111382 0.00965683)
(-0.00272719 -0.0104315 0.00909628)
(-0.00302803 -0.0105769 0.00944892)
(-0.00280744 -0.0105465 0.00913927)
(-0.00287589 -0.0109737 0.00962967)
(-0.00278112 -0.0104164 0.00912182)
(-0.00266235 -0.0106306 0.00931953)
(-0.00276571 -0.0109027 0.00932825)
(-0.00299218 -0.0109848 0.00964301)
(-0.00275019 -0.0106444 0.00913218)
(-0.00297626 -0.0102925 0.00895992)
(-0.00281321 -0.0104546 0.00915859)
(-0.00285075 -0.0107276 0.00947882)
(-0.00289672 -0.0106361 0.00936728)
(-0.00285159 -0.010642 0.00934149)
(-0.00274992 -0.0106521 0.00913426)
(-0.00281441 -0.0108226 0.00927595)
(-0.00279842 -0.0103048 0.00896674)
(-0.00306034 -0.0104854 0.00914887)
(-0.00301503 -0.0109807 0.00957894)
(-0.00281208 -0.0106097 0.00937102)
(-0.00297759 -0.0105695 0.00912762)
(-0.00270868 -0.0104346 0.00911241)
(-0.00263304 -0.0106602 0.009523)
(-0.00265165 -0.0103955 0.00918791)
(-0.00295704 -0.0109409 0.00946406)
(-0.00293273 -0.0104732 0.00918307)
(-0.0027884 -0.0110359 0.00950322)
(-0.00291276 -0.0108275 0.00930757)
(-0.0026784 -0.0105174 0.0091821)
(-0.00291592 -0.0108104 0.0095005)
(-0.00263098 -0.0106127 0.00949654)
(-0.00295773 -0.0110529 0.00973194)
(-0.00272783 -0.010812 0.00960224)
(-0.00273577 -0.0108659 0.00939904)
(-0.00309221 -0.0109319 0.00947885)
(-0.00296883 -0.0107381 0.00925155)
(-0.00287201 -0.0107095 0.00934782)
(-0.00293609 -0.01083 0.00943923)
(-0.0029052 -0.0107444 0.00932988)
(-0.00320301 -0.0110001 0.00956901)
(-0.00264756 -0.0106853 0.00942647)
(-0.00292445 -0.0107339 0.0093274)
(-0.00296033 -0.0106259 0.00918377)
(-0.00291124 -0.0106447 0.0092182)
(-0.00284944 -0.0109154 0.00954568)
(-0.00294857 -0.0105528 0.00927302)
(-0.00290658 -0.011032 0.00949835)
(-0.00301006 -0.0108321 0.00939104)
(-0.00319929 -0.011149 0.00988634)
(-0.0030406 -0.0108726 0.0095791)
(-0.00279511 -0.0101611 0.00893511)
(-0.00279546 -0.0106657 0.00919189)
(-0.00286948 -0.0102349 0.00896623)
(-0.00290482 -0.010492 0.00932997)
(-0.00308204 -0.0103615 0.00922935)
(-0.0031158 -0.0107385 0.00958028)
(-0.00273388 -0.00991003 0.00873028)
(-0.00276618 -0.0106955 0.00917637)
(-0.00279143 -0.0105874 0.00908485)
(-0.00299441 -0.0106474 0.00943445)
(-0.00274294 -0.0103628 0.00902084)
(-0.0030444 -0.0103132 0.00919403)
(-0.00316576 -0.0108716 0.00963088)
(-0.00301903 -0.0103796 0.00925541)
(-0.002803 -0.00974632 0.00861531)
(-0.00252209 -0.00960789 0.00846855)
(-0.00249055 -0.0100833 0.00829028)
(-0.00262821 -0.00989816 0.008833)
(-0.00252921 -0.00981214 0.00867373)
(-0.00296912 -0.0108776 0.00913883)
(-0.00295356 -0.00999868 0.00937925)
(-0.00281076 -0.0102531 0.00927587)
(-0.00257286 -0.00978587 0.00857289)
(-0.00299163 -0.0103293 0.00911013)
(-0.00270937 -0.0100713 0.00878542)
(-0.00272142 -0.0112077 0.00971229)
(-0.00264185 -0.0104035 0.00915283)
(-0.00316955 -0.0115311 0.00982721)
(-0.00302935 -0.00982792 0.00882037)
(-0.00251895 -0.00992312 0.0101145)
(-0.0028928 -0.0106539 0.00826493)
(-0.00233306 -0.0123359 0.00935009)
(-0.00332608 -0.0112269 0.0105952)
(-0.0028149 -0.0102915 0.00911888)
(-0.00264947 -0.00992428 0.00838732)
(-0.00251569 -0.00994053 0.00894234)
(-0.00286084 -0.0104068 0.00896574)
(-0.00265118 -0.0108233 0.00969067)
(-0.00281359 -0.0107407 0.00921806)
(-0.00277635 -0.0103721 0.00920988)
(-0.0030044 -0.0107054 0.00903866)
(-0.00279382 -0.0102041 0.00857979)
(-0.00260879 -0.0105298 0.00925766)
(-0.0028106 -0.010448 0.00909885)
(-0.00306105 -0.0110912 0.00964847)
(-0.00290587 -0.0109401 0.00935981)
(-0.0030828 -0.0108037 0.00935675)
(-0.0028862 -0.0107101 0.00948276)
(-0.00282163 -0.0106604 0.00928328)
(-0.00282251 -0.0105855 0.00914199)
(-0.00269157 -0.0106162 0.00930372)
(-0.00270458 -0.0103001 0.00911341)
(-0.00282371 -0.0106257 0.00970646)
(-0.00268414 -0.0105586 0.00934719)
(-0.00294241 -0.0108793 0.00967568)
(-0.00268899 -0.0106021 0.00938476)
(-0.00297265 -0.0108312 0.00946272)
(-0.00256729 -0.0106249 0.00943123)
(-0.00286419 -0.0106526 0.00920791)
(-0.003196 -0.0107853 0.00951024)
(-0.00275564 -0.0109207 0.00961385)
(-0.00296694 -0.0107144 0.00936339)
(-0.00290406 -0.0106312 0.0092902)
(-0.00303497 -0.0109805 0.00974166)
(-0.00286402 -0.0108659 0.00937739)
(-0.00292645 -0.0107502 0.00932716)
(-0.00289891 -0.0106901 0.00930121)
(-0.00288798 -0.0110956 0.00979294)
(-0.00304599 -0.0110692 0.00973112)
(-0.00308887 -0.010993 0.00952799)
(-0.00314092 -0.0108543 0.00942024)
(-0.00295891 -0.0105128 0.00918134)
(-0.00313768 -0.0106119 0.00928544)
(-0.00291137 -0.0103312 0.00900441)
(-0.0031495 -0.0107469 0.0092424)
(-0.00297127 -0.0107717 0.00948289)
(-0.00245866 -0.0104278 0.00894938)
(-0.00253314 -0.0092724 0.00878946)
(-0.00286807 -0.0109595 0.00933792)
(-0.00238361 -0.00991442 0.0080192)
(-0.00234453 -0.00938784 0.00823125)
(-0.00254985 -0.00981214 0.00872795)
(-0.00271419 -0.0102401 0.00917958)
(-0.00265719 -0.00995848 0.00876638)
(-0.00239409 -0.00927492 0.00832026)
(-0.00268314 -0.00987795 0.00875279)
(-0.00277811 -0.00986549 0.00900274)
(-0.00309477 -0.0116936 0.00972057)
(-0.00255006 -0.0101057 0.00897081)
(-0.00278723 -0.0111407 0.00958175)
(-0.00290694 -0.0109734 0.00915095)
(-0.00266962 -0.00993363 0.0090254)
(-0.00275803 -0.0104863 0.00899158)
(-0.00273471 -0.0099336 0.00883094)
(-0.00283665 -0.0102222 0.00897514)
(-0.00280496 -0.00991816 0.0087024)
(-0.00288754 -0.0103497 0.00921773)
(-0.00278145 -0.0108715 0.00940447)
(-0.0028552 -0.0101893 0.00922744)
(-0.00291579 -0.0102975 0.00898095)
(-0.0031353 -0.0107643 0.00945836)
(-0.00266395 -0.0108274 0.00914141)
(-0.0027573 -0.0097063 0.008705)
(-0.00292443 -0.0104385 0.00908383)
(-0.00282717 -0.0108035 0.00920055)
(-0.00270352 -0.0103886 0.00921607)
(-0.00255906 -0.0104272 0.00914717)
(-0.00287565 -0.0108052 0.00937147)
(-0.00279704 -0.0111052 0.0095541)
(-0.00280317 -0.010413 0.00897003)
(-0.00281427 -0.0107299 0.009372)
(-0.00290293 -0.0106829 0.00929043)
(-0.00269074 -0.0107025 0.00942806)
(-0.00292692 -0.0110577 0.00952864)
(-0.00284193 -0.0107786 0.0094347)
(-0.00269736 -0.0105387 0.00925909)
(-0.00288163 -0.0108838 0.0094754)
(-0.00283818 -0.0110121 0.00955892)
(-0.00282069 -0.0107628 0.00931313)
(-0.00268374 -0.0105675 0.00923674)
(-0.00288295 -0.0106017 0.00905123)
(-0.00262694 -0.0100939 0.00889822)
(-0.00275785 -0.0101837 0.00876345)
(-0.00294425 -0.0105868 0.00875105)
(-0.00287447 -0.0102859 0.00877232)
(-0.00266822 -0.00996084 0.00885567)
(-0.00281843 -0.0105295 0.00875826)
(-0.00249575 -0.00987387 0.00864394)
(-0.00265131 -0.0101752 0.00897323)
(-0.00272814 -0.0106129 0.00904231)
(-0.00293109 -0.0107424 0.00909584)
(-0.00258313 -0.00995121 0.00834545)
(-0.00313282 -0.0110742 0.00947066)
(-0.00292565 -0.0106621 0.00950828)
(-0.00281642 -0.010826 0.00938652)
(-0.00265849 -0.0104583 0.00929721)
(-0.00290109 -0.0103841 0.00895308)
(-0.00280508 -0.0103173 0.00871066)
(-0.00289956 -0.010716 0.00924363)
(-0.00275454 -0.0102322 0.00889105)
(-0.00280826 -0.0107378 0.00916295)
(-0.00278129 -0.0105196 0.00910912)
(-0.00260091 -0.0105466 0.00911128)
(-0.00269187 -0.0105042 0.00909182)
(-0.00279764 -0.0106439 0.00921672)
(-0.00278752 -0.0104648 0.00917893)
(-0.00232706 -0.00959091 0.00839036)
(-0.00217576 -0.0105497 0.00881859)
(-0.00221287 -0.00976698 0.00845054)
(-0.00257747 -0.00987579 0.00873728)
(-0.00222661 -0.00963755 0.00833998)
(-0.00255442 -0.00996305 0.00864765)
(-0.00268374 -0.00979039 0.00872363)
(-0.00280965 -0.00982423 0.00884885)
(-0.00274703 -0.00976631 0.00911389)
(-0.00283193 -0.0104696 0.00902129)
(-0.00270427 -0.0102665 0.00906961)
(-0.00258597 -0.0102497 0.00862204)
(-0.00251864 -0.010027 0.0085172)
(-0.00275249 -0.01065 0.00890783)
(-0.00308152 -0.0103075 0.00906204)
(-0.00286646 -0.0109125 0.00946962)
(-0.00273568 -0.0105883 0.00907496)
(-0.00291751 -0.0103726 0.00929902)
(-0.00254107 -0.00965991 0.00854783)
(-0.0025651 -0.0100721 0.0086715)
(-0.00322866 -0.0110113 0.00943466)
(-0.0031321 -0.0113399 0.00941224)
(-0.00249085 -0.0101923 0.00926712)
(-0.0026107 -0.00996932 0.00927974)
(-0.0025077 -0.00923271 0.00859947)
(-0.0030854 -0.0105781 0.00917434)
(-0.00269147 -0.00976753 0.00944056)
(-0.00302249 -0.0109215 0.00872256)
(-0.00269514 -0.0103976 0.00954643)
(-0.00261963 -0.00992617 0.00931547)
(-0.0026841 -0.0100385 0.00874465)
(-0.00260364 -0.00978608 0.00869665)
(-0.00247531 -0.00960132 0.00853107)
(-0.00265071 -0.0103784 0.00895538)
(-0.0026801 -0.0102575 0.0088583)
(-0.00279859 -0.0108501 0.00968977)
(-0.0024912 -0.00991082 0.00845413)
(-0.00265658 -0.00992252 0.00869291)
(-0.00270143 -0.0104681 0.0091812)
(-0.00278098 -0.0102601 0.00894381)
(-0.00290133 -0.010096 0.00902662)
(-0.0030236 -0.0107699 0.00942478)
(-0.00284397 -0.010409 0.00912453)
(-0.00247916 -0.0102573 0.00897376)
(-0.00277647 -0.0107751 0.00936905)
(-0.00276083 -0.0102931 0.00897628)
(-0.00270985 -0.0105828 0.00904721)
(-0.00302383 -0.0104751 0.00932003)
(-0.00267757 -0.0101831 0.00891485)
(-0.00282303 -0.0101764 0.00908072)
(-0.00280061 -0.0104633 0.0092039)
(-0.00278863 -0.00998178 0.00898455)
(-0.00265197 -0.0106122 0.00932234)
(-0.00253015 -0.0102585 0.00885109)
(-0.00265257 -0.0102527 0.00887345)
(-0.0025485 -0.010133 0.00872592)
(-0.00304097 -0.0102344 0.00919495)
(-0.00275875 -0.0101207 0.00888358)
(-0.00293505 -0.0103628 0.00943795)
(-0.00275312 -0.0098414 0.00850368)
(-0.00268281 -0.00986485 0.00886343)
(-0.0028645 -0.0104846 0.00945784)
(-0.00290868 -0.0103671 0.00933531)
(-0.00241031 -0.0103412 0.00868797)
(-0.00271315 -0.0107943 0.00881163)
(-0.00310662 -0.0101669 0.00956033)
(-0.00314785 -0.0101524 0.00927735)
(-0.00272156 -0.00964154 0.00849355)
(-0.00238271 -0.00979405 0.0083362)
(-0.00289152 -0.0107273 0.0091733)
(-0.00278283 -0.0107108 0.00923931)
(-0.0025832 -0.0102431 0.00882567)
(-0.00284628 -0.0111606 0.00987853)
(-0.00282498 -0.00975035 0.00918713)
(-0.00259598 -0.0112103 0.00958224)
(-0.00261176 -0.0104454 0.00884557)
(-0.00246946 -0.0100482 0.00867908)
(-0.00261945 -0.0108132 0.0093188)
(-0.00260608 -0.0106203 0.00925845)
(-0.00296514 -0.0113192 0.00977675)
(-0.00289362 -0.0107405 0.0094381)
(-0.00290421 -0.0109075 0.00967982)
(-0.00288372 -0.0108742 0.00945038)
(-0.00288096 -0.0109114 0.00952073)
(-0.00280981 -0.0104832 0.00907018)
(-0.00263768 -0.0111294 0.00959436)
(-0.00300306 -0.0105448 0.00928904)
(-0.00271739 -0.011115 0.00970507)
(-0.00253825 -0.010191 0.00874786)
(-0.00276131 -0.0102099 0.00874733)
(-0.00279027 -0.0101128 0.00887692)
(-0.00309831 -0.0108228 0.00989148)
(-0.00266247 -0.010143 0.00889125)
(-0.00279144 -0.0105679 0.00916286)
(-0.00304105 -0.010475 0.00990385)
(-0.00264334 -0.00958492 0.008481)
(-0.00269143 -0.0101592 0.00875663)
(-0.00282582 -0.00979174 0.008843)
(-0.00271361 -0.00955194 0.0086213)
(-0.00257319 -0.0101565 0.00893294)
(-0.00240255 -0.00986152 0.00812305)
(-0.00246782 -0.010211 0.00908458)
(-0.00269691 -0.0117157 0.00987256)
(-0.00315261 -0.0108489 0.00957082)
(-0.00243917 -0.010248 0.0095845)
(-0.00260322 -0.0102294 0.00947835)
(-0.0027561 -0.0106172 0.00924916)
(-0.00268716 -0.0101121 0.00876515)
(-0.00240385 -0.0105005 0.00983746)
(-0.00272639 -0.00974406 0.00873973)
(-0.0027627 -0.010352 0.00882247)
(-0.00270777 -0.0104875 0.00955342)
(-0.00293487 -0.0110288 0.00942247)
(-0.00306944 -0.0109874 0.00906049)
(-0.00265225 -0.00985277 0.00901738)
(-0.00296385 -0.0110704 0.0102387)
(-0.00280324 -0.0105495 0.009215)
(-0.00240695 -0.0097154 0.00865572)
(-0.00264082 -0.00960148 0.00857373)
(-0.00288766 -0.0101122 0.00847242)
(-0.00278756 -0.00949601 0.00830763)
(-0.00252197 -0.00918985 0.00811663)
(-0.00291783 -0.0100614 0.00859754)
(-0.00261708 -0.00920961 0.00800014)
(-0.00244228 -0.00972027 0.00820885)
(-0.00267371 -0.00992066 0.00894516)
(-0.00253398 -0.0103176 0.00921551)
(-0.00315235 -0.0110613 0.00976557)
(-0.00278335 -0.010575 0.00914422)
(-0.00252057 -0.010785 0.00945166)
(-0.00262543 -0.0107036 0.00947267)
(-0.00300538 -0.0105314 0.00917273)
(-0.00302131 -0.0110284 0.0097651)
(-0.00271351 -0.0103321 0.00884239)
(-0.00289999 -0.0107371 0.00935446)
(-0.00285695 -0.0107595 0.00946563)
(-0.00299882 -0.0109565 0.00964316)
(-0.00275386 -0.0104924 0.00917854)
(-0.00305526 -0.0110433 0.00963281)
(-0.00287575 -0.0107315 0.00938538)
(-0.00281782 -0.0107173 0.00944377)
(-0.00285385 -0.0109171 0.00946094)
(-0.0029602 -0.0109608 0.00966808)
(-0.00291656 -0.0110341 0.00972121)
(-0.0027073 -0.0106295 0.00934282)
(-0.00271686 -0.0106641 0.00936228)
(-0.00279556 -0.0108459 0.00938485)
(-0.00276726 -0.0106349 0.00917434)
(-0.00278103 -0.0106756 0.00932796)
(-0.00284251 -0.0106555 0.0093)
(-0.00293749 -0.0108791 0.00956668)
(-0.00292046 -0.0107096 0.00920443)
(-0.00299419 -0.0101743 0.00903212)
(-0.00264081 -0.00993349 0.00849437)
(-0.00281156 -0.0100055 0.00900819)
(-0.00238191 -0.00959418 0.00787871)
(-0.0026312 -0.0104271 0.00887477)
(-0.00282542 -0.0113477 0.00961493)