/*--------------------------------*- C++ -*----------------------------------*\
| =========                 |                                                 |
| \\      /  F ield         | OpenFOAM: The Open Source CFD Toolbox           |
|  \\    /   O peration     | Version:  v1612+                                |
|   \\  /    A nd           | Web:      www.OpenFOAM.com                      |
|    \\/     M anipulation  |                                                 |
\*---------------------------------------------------------------------------*/
FoamFile
{
    version     2.0;
    format      ascii;
    class       surfaceScalarField;
    location    "50";
    object      phi;
}
// * * * * * * * * * * * * * * * * * * * * * * * * * * * * * * * * * * * * * //

dimensions      [0 3 -1 0 0 0 0];

internalField   nonuniform List<scalar> 
41187
(
1.21802e-08
-2.64479e-09
-1.73424e-08
7.80715e-09
-2.7616e-10
-3.02134e-10
-9.35804e-10
1.51699e-09
2.02125e-09
-2.19808e-09
-5.81444e-09
5.9917e-09
-3.34471e-09
-4.15421e-09
6.97134e-09
5.28601e-10
7.35465e-09
-1.52873e-09
1.33097e-09
-7.15687e-09
-1.05619e-08
4.66187e-09
9.23475e-09
-3.3345e-09
4.69023e-09
5.22542e-09
4.12838e-09
-1.4044e-08
-6.40599e-09
3.73108e-09
-5.67693e-11
2.73337e-09
-1.53646e-09
-1.10225e-09
-3.76629e-09
-3.32996e-09
2.61161e-09
4.44979e-09
4.50147e-09
-1.63219e-09
-4.40439e-09
2.69071e-09
1.75452e-09
6.349e-09
-2.39343e-09
-5.05715e-09
1.6359e-09
1.38336e-09
-1.26275e-09
3.15112e-09
7.23933e-10
3.07044e-10
1.12232e-09
-2.86413e-09
-4.69726e-09
6.14154e-09
1.42114e-09
-6.11412e-09
2.1241e-09
1.12735e-09
9.04759e-10
1.46652e-09
-4.76299e-09
6.17112e-09
3.1147e-09
-5.02246e-09
-4.26263e-09
3.11002e-09
-2.63202e-09
1.65522e-09
1.28438e-09
-3.38768e-09
3.88712e-10
-3.7034e-10
-1.0938e-09
-1.16559e-09
-2.02631e-09
-1.73e-09
-1.82142e-09
-5.58214e-09
-3.7424e-09
-3.94326e-09
1.25755e-10
7.56025e-09
-2.67125e-09
-1.38981e-09
3.19234e-10
1.31794e-09
-4.39357e-09
4.04929e-10
-5.13595e-09
-2.06474e-09
3.25781e-09
-4.16332e-09
-2.3622e-09
4.55718e-10
4.28601e-09
7.87431e-09
-1.26149e-08
3.14735e-09
4.04833e-09
-3.66648e-09
-4.97934e-09
8.77235e-09
-6.49904e-09
4.15077e-09
2.79456e-10
-1.29518e-09
7.65663e-09
-3.09071e-09
2.75673e-10
7.04545e-09
5.53876e-10
-6.91904e-11
-6.1723e-09
-1.40212e-09
2.59588e-09
-5.80274e-10
-8.55407e-10
-2.30007e-09
-3.77174e-09
4.90128e-10
-4.32362e-09
-2.73949e-09
-1.94821e-09
8.17662e-10
-2.64125e-09
-5.77759e-09
-4.9433e-10
3.84334e-10
-3.06258e-09
9.53149e-10
-1.7683e-09
9.88532e-10
-1.01565e-09
-1.22912e-09
-8.43015e-10
3.1965e-09
-4.17426e-09
1.39794e-09
-4.10195e-09
1.86139e-09
1.5284e-09
-1.07082e-09
-1.47227e-09
1.15796e-09
4.8099e-09
3.73258e-09
-8.27359e-09
-2.68785e-10
1.05631e-08
-1.17337e-08
5.98062e-09
-2.00385e-10
-1.0735e-08
1.68396e-09
9.25148e-09
2.1489e-09
8.21381e-09
-1.4945e-09
-8.14853e-09
-2.09056e-09
-1.3347e-08
4.81209e-10
2.13069e-09
-4.43131e-09
-1.04101e-08
2.43918e-09
-9.21365e-09
-2.74837e-10
-1.18363e-08
-1.12719e-08
-9.98302e-09
7.9731e-09
2.49125e-09
-7.78037e-10
-1.36362e-08
-5.19176e-09
-2.89301e-10
-1.72997e-09
-2.13313e-09
-9.2848e-09
-3.717e-09
7.55097e-09
-1.07607e-08
2.43176e-09
-6.92557e-09
-2.14243e-09
-2.0845e-09
6.98138e-09
-2.75432e-09
6.82094e-09
-2.92981e-09
-6.03325e-09
4.96797e-09
-5.50807e-10
7.66866e-09
-1.20856e-08
5.74391e-09
-2.86034e-09
-1.17668e-09
4.99592e-09
3.16236e-09
4.66321e-09
9.81049e-10
7.13493e-09
-1.06152e-08
-2.68336e-09
-1.03438e-09
9.4621e-09
1.06027e-08
-5.61737e-09
-3.01363e-09
6.31368e-09
1.36314e-09
6.7345e-09
-2.61311e-09
1.42489e-09
8.02234e-09
1.15639e-09
1.43307e-09
4.83503e-09
-1.27207e-09
-5.71425e-11
7.80399e-09
8.10225e-09
2.83934e-09
9.46699e-09
-7.05232e-09
-5.25404e-09
8.62514e-09
-4.60191e-09
-1.18388e-09
4.3268e-09
2.51275e-09
2.62737e-09
5.5867e-09
7.36522e-09
-7.73402e-09
4.68591e-09
-1.55373e-09
3.35876e-09
-7.31371e-10
-1.03614e-08
2.6006e-09
-6.29406e-09
-4.92492e-10
-3.54329e-09
2.28622e-08
-1.8826e-08
-1.16947e-08
1.38029e-08
1.26849e-09
1.33055e-08
-8.98737e-09
-1.63736e-08
1.2099e-08
1.26554e-08
1.5417e-08
-5.21042e-09
-7.11328e-09
1.5254e-08
-6.87235e-09
3.88946e-09
7.80201e-09
-7.00123e-09
1.07676e-08
8.98728e-09
-3.0326e-09
1.62237e-09
-7.57681e-09
2.72763e-09
2.75228e-09
3.50726e-09
1.05125e-08
-2.32846e-09
-1.12161e-08
8.27665e-09
-4.88988e-09
7.12546e-09
5.61698e-09
5.38728e-09
7.86251e-09
-1.5928e-09
-4.64724e-09
-6.78886e-09
5.07468e-09
4.46659e-09
3.77451e-09
-2.70071e-09
-8.50494e-09
2.97932e-09
6.36656e-10
5.05167e-10
-1.13383e-08
2.35923e-09
6.34493e-09
-8.19901e-09
4.40666e-09
-3.64022e-09
-2.04711e-09
4.26915e-09
2.85321e-09
5.44007e-10
1.18386e-09
1.33149e-09
4.08742e-09
9.26199e-10
3.94117e-09
1.79707e-09
1.09379e-09
-4.71982e-09
6.60278e-10
2.96873e-09
-2.80917e-09
2.24467e-09
1.65922e-09
2.34717e-09
1.67637e-09
1.55985e-08
-2.62765e-09
-1.49959e-08
2.02696e-09
1.3246e-08
-4.71737e-09
7.06825e-09
-1.44963e-08
5.40787e-10
1.13287e-08
9.86579e-09
-9.26986e-09
-1.50904e-08
-3.62839e-09
-1.50253e-09
7.57693e-10
7.11047e-09
-1.71368e-08
5.00364e-09
8.77259e-09
-1.30192e-08
-9.73127e-10
-8.36682e-09
1.13664e-08
-9.87025e-09
-2.11472e-09
1.10107e-08
-1.00617e-08
1.9986e-09
8.60316e-09
-3.42434e-10
-2.60814e-09
7.3627e-09
-2.70146e-09
9.24594e-09
-4.10171e-09
2.41312e-09
-1.35538e-08
2.77383e-09
-1.11834e-08
3.72619e-09
-8.26843e-09
8.1517e-09
-5.7613e-09
-1.99227e-09
-3.42953e-09
-1.0069e-08
-2.89813e-09
-4.97917e-09
9.32349e-09
-8.09606e-09
3.75191e-09
-9.01739e-09
4.86359e-09
-8.25292e-10
-1.64819e-09
1.30326e-08
-2.8556e-10
-1.10983e-08
-1.50462e-09
-1.23921e-09
-8.59873e-09
1.13428e-08
-3.4179e-09
-1.49804e-08
1.68938e-08
-2.45264e-09
1.01281e-08
-4.43191e-09
-4.90337e-09
-3.50725e-09
-9.94197e-09
-9.39553e-09
-1.01905e-09
7.96202e-09
-4.17802e-09
-3.53724e-10
-5.70058e-09
-1.0296e-08
9.98283e-09
6.01398e-09
-9.44373e-09
-4.34834e-10
1.005e-08
-7.03095e-11
-1.33974e-08
3.05259e-09
-3.2963e-09
1.02938e-08
4.68294e-09
-6.88247e-09
-7.24407e-09
-2.56046e-09
7.75167e-09
1.2123e-09
-1.046e-08
-4.03535e-09
-1.71608e-09
9.79826e-10
4.77297e-09
-2.60216e-09
-2.9795e-09
1.54707e-09
3.29726e-09
-1.122e-09
-4.77721e-09
3.03599e-09
-3.55629e-09
-2.45857e-09
-2.54506e-10
1.57585e-09
1.65852e-09
-3.91206e-09
1.95044e-09
3.0466e-10
2.95789e-09
-2.78162e-09
1.4831e-09
3.86865e-09
-3.5549e-09
2.98371e-09
-7.7524e-10
5.62389e-09
-1.22108e-09
-3.34397e-09
3.79086e-09
1.48322e-09
4.72459e-10
1.2234e-10
-3.37575e-09
3.22917e-10
-3.76214e-09
-2.51332e-09
1.12016e-09
-3.98417e-09
5.50637e-10
-5.19915e-09
-8.68584e-10
-3.99856e-09
-8.77333e-10
1.72695e-09
5.79012e-09
2.99531e-09
-1.05122e-08
8.31947e-09
5.30054e-09
-1.18929e-08
7.33111e-09
7.72397e-09
-9.26473e-09
-2.31814e-09
6.49825e-09
3.15117e-09
-3.78125e-09
5.12771e-09
-4.93614e-09
3.58998e-09
2.22023e-09
7.246e-09
2.85216e-09
-2.37364e-09
4.94858e-09
8.79582e-09
1.10619e-09
5.33719e-09
-3.44788e-09
7.92715e-09
-1.52029e-09
6.8904e-09
-3.22901e-09
-8.09148e-10
1.46084e-09
1.03782e-08
-4.10095e-09
-6.35344e-09
1.19154e-08
-6.5683e-09
7.59517e-09
7.12362e-09
-4.13244e-09
-1.95843e-09
-5.08313e-09
6.88286e-10
-1.40303e-09
-2.97487e-09
1.49564e-08
-8.68212e-09
-3.40365e-09
-2.87098e-09
-1.56687e-09
8.20961e-09
8.31345e-09
2.99667e-09
-4.96878e-09
-6.71015e-09
-8.20976e-09
3.29604e-09
3.34653e-09
-2.88012e-09
-2.33307e-09
-3.69249e-09
5.47975e-09
-4.66764e-09
6.93332e-09
1.66439e-09
-1.22907e-08
-1.32668e-08
2.52269e-09
6.58914e-09
4.15406e-09
5.79197e-09
-1.21257e-08
5.84685e-09
1.47495e-08
-1.23871e-08
7.21995e-09
-1.05245e-08
-5.98345e-09
9.79928e-09
5.48837e-09
2.51376e-09
-1.33911e-08
7.63656e-09
1.23434e-08
-5.30103e-09
-2.29939e-09
9.78621e-10
7.80541e-09
1.44619e-08
4.65206e-09
1.3028e-08
-1.92905e-08
1.60793e-09
2.05675e-08
-1.87073e-08
2.7904e-09
1.59719e-08
-6.65308e-09
1.12471e-08
8.03315e-10
2.34116e-09
1.28274e-08
1.81393e-09
1.20155e-08
1.01815e-08
7.40588e-09
4.08759e-10
-1.79982e-08
2.93097e-10
-9.40239e-09
4.68755e-09
-1.59899e-08
8.98204e-09
6.68938e-11
-9.95938e-09
9.09283e-10
3.35836e-10
1.09891e-08
-1.33502e-08
-1.40474e-09
-1.31275e-08
-1.73593e-08
-1.38945e-08
8.33603e-10
-8.47152e-09
1.46318e-08
-5.86866e-09
5.79205e-09
-1.38551e-08
1.67788e-08
-5.47241e-09
-6.61924e-09
-1.26611e-08
1.30689e-08
1.66263e-10
-8.63137e-09
-6.12925e-09
-2.60103e-09
-1.24695e-08
-1.00558e-08
-1.21491e-08
-4.15899e-09
-1.78809e-08
1.10711e-08
5.07775e-09
1.73251e-09
-5.88855e-09
-1.12609e-09
-1.08658e-08
1.66723e-08
-1.93686e-08
1.39126e-08
-1.1216e-08
1.49404e-08
1.28031e-08
-5.22656e-10
-2.47343e-08
-5.40676e-09
1.06071e-08
-1.23054e-10
-1.00041e-08
1.0858e-08
-6.26097e-09
-3.57122e-09
-7.56022e-09
5.87463e-09
-1.78635e-09
9.82308e-09
9.08717e-10
1.9906e-08
3.29461e-09
1.01181e-08
-1.3937e-08
1.42819e-08
-3.41485e-09
-9.46884e-12
1.24075e-08
1.24807e-08
-3.36278e-09
3.96504e-09
1.16188e-08
-1.22242e-08
9.91307e-09
-1.01901e-08
4.34172e-09
-4.80102e-09
1.03672e-08
-2.46572e-09
3.44015e-09
5.86526e-09
1.72812e-08
-1.00246e-08
6.68039e-09
4.28646e-09
-9.42274e-10
-2.34466e-09
7.26507e-09
5.67385e-09
-1.05941e-08
-1.08206e-08
-7.01981e-09
9.59445e-09
8.2461e-09
-1.18937e-08
5.01342e-11
1.02304e-09
-1.14619e-08
1.48202e-08
-1.01437e-08
6.78538e-09
-1.16571e-08
3.85954e-09
5.45287e-09
6.14124e-09
2.42847e-09
-1.39276e-08
5.35805e-09
6.08077e-09
-2.56986e-09
2.63046e-09
-6.27385e-09
5.55701e-10
-1.30158e-09
-7.48431e-09
-1.06833e-08
-8.71159e-09
1.34922e-08
2.4846e-09
5.00424e-09
-1.00601e-08
-2.07512e-09
-4.53763e-09
-7.61769e-09
-3.29611e-09
1.54517e-08
-8.05662e-09
-5.62546e-09
9.14483e-09
6.19968e-09
-1.19403e-08
-2.31616e-09
7.18587e-09
5.80311e-10
-8.93539e-09
2.73038e-09
-7.45275e-09
-1.32952e-08
8.80808e-09
-1.16967e-08
5.01913e-09
-7.74644e-10
-1.98867e-09
-1.39139e-08
1.17769e-09
-1.48624e-08
-5.94009e-09
1.07955e-08
-8.65312e-09
3.29346e-09
-4.86697e-09
9.5117e-10
1.02791e-08
-1.18019e-08
1.08669e-08
1.13675e-08
-1.19551e-08
5.67113e-09
3.29008e-10
7.90503e-09
5.64552e-10
4.92311e-09
1.70711e-09
-5.68969e-10
1.06244e-09
-2.19795e-09
3.83313e-09
-2.40163e-09
-7.09719e-10
1.32708e-10
2.82808e-12
-4.40974e-10
1.86906e-10
-5.99785e-10
8.55823e-10
1.03939e-09
-2.51016e-09
1.03465e-09
2.29243e-09
3.24839e-09
1.08442e-10
-2.85854e-10
-3.07359e-09
3.35102e-09
-1.75496e-10
7.23863e-11
3.57976e-11
1.00392e-10
-2.33438e-09
1.11825e-10
-7.8947e-10
-5.68134e-10
9.76482e-11
3.25631e-09
-3.04771e-09
4.09658e-09
-6.91405e-10
-5.52387e-11
-8.68317e-10
1.40678e-09
6.18641e-09
-9.90356e-09
2.30951e-09
-2.21003e-09
-3.609e-09
1.78424e-09
4.03411e-09
-2.63526e-09
6.20848e-09
-4.80946e-10
-3.09318e-09
-1.06243e-08
4.64392e-09
7.38678e-09
-4.35504e-09
-1.08534e-08
4.5833e-09
-4.42377e-09
2.0618e-09
-2.72889e-10
1.14714e-09
-7.78104e-09
-1.24276e-08
-6.43426e-09
4.65035e-09
1.42112e-08
3.92556e-09
-8.11634e-09
-8.23699e-09
-4.46991e-10
9.60611e-09
-3.12204e-10
-1.13246e-08
9.05618e-10
9.37071e-09
-2.81577e-09
-7.46436e-09
-1.08711e-08
-1.54555e-08
2.72262e-08
-7.12598e-09
-9.15893e-09
5.41237e-09
6.64803e-09
-4.43724e-09
-1.26187e-08
1.04074e-08
2.2845e-09
-6.82666e-10
5.04204e-09
-2.00331e-08
1.69622e-08
-4.05728e-09
-6.98873e-09
6.44881e-09
-9.4182e-09
9.95758e-09
2.16628e-08
-2.32582e-08
-7.56495e-09
-1.4054e-08
2.02602e-08
-1.62196e-08
4.79321e-09
-2.41913e-09
-1.11662e-08
-1.06103e-08
-1.16032e-09
-2.41811e-08
-9.68722e-09
4.75626e-09
-3.03449e-09
4.89993e-09
-6.62366e-09
-1.08032e-09
2.50584e-09
3.3282e-09
-6.24867e-10
-3.41476e-10
-2.07931e-09
-7.41365e-10
-9.74355e-10
-1.4559e-10
2.59567e-09
2.44784e-09
-8.26184e-10
1.00007e-10
1.02406e-09
-3.03112e-10
1.34634e-09
6.96141e-10
-2.8777e-09
-2.0692e-09
1.16949e-09
9.65411e-10
9.70164e-10
-1.69581e-09
-1.70566e-09
1.65089e-09
-1.51445e-09
4.77112e-10
2.1895e-09
-7.27567e-10
1.64549e-10
1.406e-09
-3.80098e-11
-1.72998e-09
1.72519e-09
1.67554e-08
5.45873e-09
-7.33485e-09
-1.48794e-08
1.02203e-09
5.62278e-09
1.01108e-08
1.49781e-08
1.35707e-09
-1.08768e-08
6.94385e-09
9.05632e-09
-1.35362e-08
5.70769e-09
1.34513e-08
-4.87827e-09
-1.59929e-08
1.45507e-08
-4.03752e-09
-9.15662e-09
1.55107e-08
1.25006e-09
8.81572e-09
-1.49442e-08
1.09996e-08
-1.37873e-08
5.65936e-09
-1.13775e-08
-9.92072e-10
8.49607e-09
3.9783e-09
-3.50332e-09
1.4165e-09
8.60496e-09
-3.35035e-09
3.38499e-09
-8.63938e-09
2.32021e-09
5.63591e-09
6.4887e-10
9.24497e-09
1.1511e-09
-1.37463e-08
7.13483e-09
4.4303e-09
1.02726e-08
5.19439e-09
-1.43159e-08
4.30578e-09
3.83813e-10
5.58306e-09
7.66442e-09
-8.45041e-10
-3.43424e-09
5.6041e-09
7.69614e-09
4.78986e-09
6.65069e-09
-5.67966e-09
1.00289e-08
1.68693e-08
-6.47537e-09
-2.03417e-08
5.46452e-10
1.38578e-08
5.93673e-09
-2.25794e-09
-1.50571e-08
-3.02715e-09
-1.94504e-08
6.88864e-09
1.31068e-08
-5.55211e-09
-1.61566e-08
1.66691e-08
1.34563e-08
-1.62679e-08
-8.13563e-09
-4.0926e-09
1.92279e-08
-7.00153e-09
1.30478e-08
1.06274e-08
-1.2756e-08
-1.09206e-08
7.23051e-09
-2.33656e-09
1.03257e-08
-1.52205e-08
-1.65706e-08
5.22773e-09
-3.54303e-10
1.16979e-08
-4.64151e-09
-1.90895e-08
7.1598e-09
6.24849e-09
-6.49925e-09
-1.44163e-08
1.46658e-08
-4.51595e-09
-9.17255e-09
2.13494e-08
-2.24065e-09
-1.2861e-08
1.69828e-09
8.77416e-09
-5.53689e-10
-1.04622e-08
1.23752e-08
-8.21164e-09
-6.40482e-09
7.68816e-09
6.38584e-09
-1.34071e-08
-1.13082e-08
5.85463e-09
-4.56779e-09
1.00214e-08
-1.91142e-09
-6.89384e-09
-2.50288e-09
8.25154e-09
-6.2299e-09
-3.93318e-09
8.38345e-09
-5.31309e-09
5.18135e-09
3.73669e-10
1.38644e-08
-8.64998e-09
3.47028e-09
-8.59798e-10
6.0394e-09
-5.85171e-09
-1.45367e-09
-1.3447e-09
5.42609e-09
-7.32234e-09
-4.99763e-09
-1.30535e-09
2.16366e-09
9.33691e-09
-5.49309e-09
5.57266e-09
-6.0329e-09
-5.39148e-09
3.40752e-09
9.56584e-09
-5.16076e-09
-1.06352e-08
2.85878e-09
1.39388e-09
-5.00765e-09
9.93432e-10
-3.30835e-09
2.22837e-09
-1.23966e-08
2.84716e-09
-5.3368e-09
-5.29164e-09
7.78116e-09
-5.85123e-10
6.29118e-09
4.29815e-09
-7.4066e-09
-7.41341e-10
-3.76706e-09
5.25503e-09
2.78609e-09
-4.27442e-09
2.47624e-09
1.78876e-09
-8.03235e-09
3.40274e-09
-5.07302e-10
2.35886e-09
-3.67346e-09
5.34825e-09
4.20076e-09
-7.07323e-09
3.18782e-09
1.65296e-09
8.0779e-09
1.52009e-09
-5.39725e-09
6.36911e-09
-2.63339e-09
-3.49544e-09
-6.93862e-10
-1.93285e-10
3.13555e-09
-3.98004e-09
-2.0789e-10
-1.41706e-08
1.49717e-08
-6.71622e-09
5.91513e-09
-1.05107e-08
-2.19194e-11
1.37444e-09
9.15818e-09
-4.03058e-10
1.58084e-09
-1.16886e-08
-1.75494e-08
2.97567e-09
-1.66044e-08
9.60633e-09
5.53968e-09
1.45845e-09
8.47843e-09
-1.0111e-08
8.14311e-09
1.8813e-09
-8.44371e-09
7.30298e-09
8.18204e-10
-7.39712e-09
5.93815e-09
1.00257e-08
-8.56673e-09
-8.63348e-10
7.69163e-10
-1.0351e-08
-6.3054e-09
7.57082e-09
9.08541e-09
-7.60191e-10
-7.70949e-09
-9.25481e-09
1.20003e-08
5.00281e-09
-7.74839e-09
-6.63388e-09
-3.38098e-09
8.30904e-09
-7.32596e-09
-8.69258e-09
6.85023e-10
1.31871e-09
-5.84825e-09
5.88959e-09
-7.518e-09
7.47668e-09
8.59171e-10
-4.18779e-09
1.60156e-08
-2.39465e-09
3.96202e-09
-6.68323e-09
1.21018e-08
2.92248e-09
-1.28662e-08
-6.29491e-10
7.66711e-09
5.8288e-09
-1.85166e-09
8.47969e-10
-1.18624e-08
-4.11069e-09
-5.2834e-09
5.53956e-09
3.85479e-09
3.05598e-09
-6.86714e-09
-2.99395e-10
1.16098e-08
-2.3877e-09
-1.10736e-08
5.69706e-09
-6.81251e-09
4.88799e-09
7.46428e-09
-3.93181e-09
1.75412e-10
-1.17321e-08
7.67581e-09
1.17236e-08
-2.55589e-10
-1.06285e-08
-1.08772e-09
-8.16707e-09
-3.85234e-09
7.22702e-09
-8.00618e-09
4.6316e-09
-7.7968e-09
1.28123e-11
-2.25359e-09
1.43688e-08
6.90066e-09
-6.09994e-09
-8.59744e-09
-3.02118e-10
-8.0335e-10
8.14494e-10
-8.00206e-09
7.42725e-09
-6.86824e-09
-7.41912e-09
1.28415e-08
-2.93962e-10
-7.13543e-09
-7.74735e-10
6.71357e-10
7.23891e-09
-4.38064e-09
-2.48881e-09
-2.65889e-10
9.16241e-11
1.11073e-08
-1.07446e-08
-4.53776e-10
-1.16873e-08
1.30148e-08
-1.23516e-09
6.12259e-09
-1.4905e-08
-2.90461e-09
-7.9746e-09
-5.41901e-10
7.74194e-09
-3.17488e-09
-4.86117e-09
6.154e-11
-7.41185e-09
-1.43647e-10
9.40828e-09
-9.10921e-09
-2.78791e-09
-4.91185e-10
1.05712e-08
1.8191e-09
-1.00376e-10
9.38895e-09
2.18771e-09
1.26464e-08
-8.45632e-09
1.11187e-08
3.46033e-09
9.4361e-09
-1.49439e-09
1.55014e-09
-9.49193e-09
1.31569e-09
-3.36007e-10
-9.4157e-10
9.61024e-10
-1.07639e-08
-1.73409e-08
-7.72753e-09
-6.59898e-11
1.41951e-09
-7.597e-09
-8.93156e-09
8.2895e-09
-9.48698e-09
-4.30558e-09
1.28153e-08
5.40463e-10
-6.53279e-09
-7.98545e-09
-8.59287e-09
-1.27173e-09
2.99636e-09
-4.79195e-10
-6.71403e-09
-1.39952e-09
-1.45406e-08
2.64028e-09
-7.31107e-09
-2.0158e-09
-5.21368e-09
-1.13424e-08
1.29956e-09
1.30392e-08
-1.01524e-08
-1.66921e-09
-7.11391e-09
-6.91124e-09
1.25419e-08
-6.21476e-09
-8.34286e-09
4.13215e-09
1.10502e-08
-8.79149e-09
1.42231e-08
9.14815e-09
-1.51969e-08
2.34332e-09
3.70544e-09
-1.77412e-08
1.80978e-08
-4.54121e-09
1.08812e-08
1.97341e-09
2.04448e-09
5.45013e-09
-1.20358e-08
-1.04338e-08
-5.48461e-09
-1.82269e-09
-8.96818e-09
1.15912e-09
1.23209e-09
-6.30143e-09
-5.76275e-09
-6.24922e-09
-9.8732e-09
1.02585e-08
2.22911e-09
-2.61419e-09
8.09417e-09
-1.02157e-08
-4.85602e-09
1.0763e-08
4.35158e-09
3.67051e-09
-4.32169e-10
-4.42359e-09
1.0387e-08
4.16495e-09
4.18388e-09
-6.45388e-10
-1.34926e-08
-9.00206e-10
6.44692e-10
1.37482e-08
1.31251e-09
-4.4179e-09
-8.33316e-09
-1.25038e-09
8.68343e-09
-4.78811e-10
1.43707e-08
-9.13173e-09
-3.92623e-09
7.64394e-10
1.42511e-08
1.38189e-08
5.17661e-10
-1.21071e-08
-5.54386e-10
1.00671e-08
9.45794e-09
-5.55715e-09
6.83717e-10
9.53872e-09
1.39482e-08
-1.7828e-10
-8.90777e-09
7.50789e-09
1.57768e-09
-7.4523e-09
6.43206e-09
8.41802e-10
7.22584e-09
-7.32201e-09
7.29593e-09
-7.19999e-09
5.27135e-09
-1.41275e-09
3.36711e-09
9.53115e-11
9.87002e-11
7.59541e-09
-7.78926e-09
8.70103e-11
-7.31371e-09
-7.12547e-09
-6.99612e-09
6.26075e-09
7.86076e-09
5.55571e-10
-7.58253e-09
1.86243e-10
-6.62702e-09
-2.69938e-10
-8.45192e-09
-7.6351e-09
-6.77347e-09
5.90244e-09
8.37898e-09
-1.034e-09
6.92341e-10
-5.70308e-09
3.77652e-09
7.19766e-09
5.58771e-10
2.18875e-09
3.99426e-09
1.27234e-08
-3.04435e-09
-1.48216e-09
5.42341e-10
2.51057e-09
-1.57004e-09
2.13728e-09
-7.89091e-10
-2.83262e-09
-8.88451e-10
1.26417e-09
-2.8405e-10
-9.31274e-11
2.03664e-09
-1.63216e-09
-1.29459e-09
2.20115e-09
1.10155e-09
3.75985e-09
-4.5797e-09
2.95569e-09
3.17908e-11
3.06397e-09
6.64661e-10
1.27145e-09
1.20661e-10
-2.18711e-09
1.8126e-10
2.44229e-10
2.29877e-09
-3.24151e-09
4.78274e-09
-3.89092e-09
2.3501e-09
-2.99908e-09
-5.27463e-10
-3.22398e-09
8.47871e-09
-4.71731e-10
1.1213e-08
-1.13728e-08
-4.19831e-09
-4.49445e-09
4.79981e-09
-7.0765e-09
-7.81505e-09
1.22503e-08
8.04485e-09
9.19508e-09
2.70822e-10
9.9102e-09
2.25927e-09
-2.9747e-09
-1.07621e-08
7.75429e-09
8.68702e-09
-5.67921e-09
-6.64158e-09
-4.67632e-09
5.56046e-10
6.25814e-09
-2.98944e-09
-5.04947e-09
6.71157e-09
4.59587e-09
-1.22333e-08
1.49838e-08
-7.54475e-09
4.79374e-09
-1.07369e-08
-1.06812e-08
9.18473e-09
9.44007e-09
4.1173e-09
1.62386e-08
-1.0916e-08
2.90507e-09
7.30711e-09
-3.55152e-09
-6.66086e-09
3.46077e-09
3.83925e-09
-1.23494e-08
8.57368e-09
1.00473e-08
-3.63742e-09
2.61278e-09
1.18531e-08
1.08151e-08
-3.7929e-09
5.89996e-09
2.79348e-09
7.29972e-09
3.46826e-09
-5.16372e-09
1.63501e-08
1.02624e-08
6.4525e-09
1.23981e-08
1.40333e-08
1.10375e-09
-1.76951e-08
2.5576e-09
4.15458e-09
1.1654e-08
-1.77544e-09
1.36796e-08
-1.25274e-09
-8.27248e-09
9.72765e-09
-7.71688e-09
-8.52516e-09
6.51377e-09
-9.33515e-09
-2.89908e-09
2.19618e-08
1.22251e-09
-1.54944e-08
6.55515e-09
8.86528e-09
-1.60749e-08
8.43263e-09
-1.03191e-08
9.84934e-09
1.22706e-08
2.07041e-09
-1.32373e-08
1.44593e-08
9.46528e-09
8.51886e-09
-2.58493e-09
-1.38013e-08
1.155e-08
1.07698e-08
-9.10683e-09
8.98523e-09
3.46099e-09
-6.92977e-09
-5.6383e-09
-7.38296e-09
1.60334e-08
-4.50725e-10
-2.0377e-09
-1.35865e-08
-1.38746e-08
1.07962e-10
-1.18128e-08
1.38541e-09
-1.01598e-08
2.88489e-09
-2.86635e-09
-1.09843e-08
-9.56513e-09
2.85061e-09
1.27777e-08
-1.13949e-08
-4.23341e-09
-4.90899e-09
8.29312e-09
-5.3354e-10
-1.63631e-09
-1.11662e-08
1.08211e-08
1.9816e-09
-8.2169e-09
6.31975e-09
2.60931e-10
7.38459e-09
2.43493e-09
-1.21333e-09
-8.60616e-09
3.7045e-09
-1.22886e-09
-4.64325e-09
6.54259e-09
6.39373e-09
3.03865e-09
5.09585e-09
2.25618e-09
-1.12161e-08
6.56981e-09
-8.21303e-09
-6.57362e-09
-2.62025e-09
-1.97618e-09
-3.26304e-13
9.6761e-10
-1.03938e-08
6.9035e-09
-7.73952e-09
2.01847e-09
1.15654e-08
-6.84962e-09
1.38722e-08
1.45558e-08
4.70859e-10
-1.27704e-08
7.5344e-09
1.04322e-09
1.12675e-08
-1.1343e-08
-1.24135e-08
-2.02098e-09
1.06683e-08
1.71621e-09
7.66166e-09
-2.56046e-09
-6.81404e-09
1.13416e-08
-1.57755e-09
-8.04893e-09
3.10842e-09
-2.95457e-09
-1.24088e-08
1.2253e-08
-1.87242e-10
-7.56919e-09
1.08647e-08
-4.03205e-09
4.66839e-09
7.02523e-09
5.92686e-09
1.38283e-09
-3.80501e-10
-4.80365e-09
2.61922e-09
-2.48095e-09
4.1886e-09
1.69675e-09
2.13551e-09
-6.31569e-09
9.24145e-09
6.47685e-09
-3.01327e-09
-1.27068e-08
-1.48859e-08
1.61361e-08
7.99069e-09
1.72253e-09
-2.36232e-09
-1.42474e-08
1.25339e-09
-1.28063e-08
9.97429e-09
6.25564e-09
-5.38359e-09
-5.43209e-12
-5.74339e-09
7.25324e-09
2.57089e-09
5.99539e-09
8.54643e-09
-5.70881e-10
-9.05396e-09
5.87966e-09
-1.377e-09
8.67788e-10
1.19876e-08
4.67496e-09
-1.40669e-08
7.61775e-09
2.87451e-09
-1.88259e-09
-8.6098e-09
1.01771e-08
9.42863e-09
-6.93099e-09
9.29292e-09
5.12879e-10
8.56218e-10
-5.34453e-09
-2.44265e-09
2.62979e-09
-1.05932e-08
1.00566e-08
-2.09267e-09
-6.66994e-09
6.72365e-09
7.57433e-10
-8.11067e-10
4.09097e-09
-3.2004e-09
8.47439e-09
8.79153e-10
-1.56512e-09
-1.39223e-09
1.22512e-08
-1.11898e-09
9.73146e-09
-7.89434e-09
4.45309e-09
-3.78017e-09
1.09039e-08
-7.13209e-09
1.09797e-08
-1.47525e-08
-2.75717e-10
-8.16177e-09
1.93408e-08
-7.24023e-09
-4.50115e-09
1.14652e-08
-2.82253e-09
7.83482e-09
-1.63941e-08
6.43895e-09
7.75905e-09
-1.17843e-08
-1.54855e-08
1.95104e-08
-1.63761e-09
-5.00974e-09
1.44062e-08
-5.99794e-09
9.41587e-09
-1.15798e-08
-7.7498e-09
-8.65014e-09
-8.36905e-10
-1.00182e-08
4.8551e-09
-5.56131e-09
-1.39728e-08
2.33839e-09
-7.50783e-09
4.33222e-09
-6.615e-09
4.45141e-09
5.00774e-09
-9.1862e-09
-6.86282e-09
-4.79238e-09
1.56807e-09
-8.0892e-09
-9.87337e-10
-8.58886e-10
-2.24378e-10
-1.63037e-09
-1.28805e-09
1.17332e-08
-1.31662e-08
1.43543e-08
-1.29222e-08
-4.35942e-09
1.13238e-08
4.76611e-09
4.77638e-09
-3.30631e-09
2.86168e-09
1.37578e-09
6.8082e-09
-9.17206e-09
-3.6973e-09
1.99349e-09
-2.65912e-09
-1.54879e-08
1.64733e-08
4.54129e-09
-6.66049e-09
1.40941e-08
1.3703e-08
4.36579e-09
-7.63811e-09
7.72342e-09
-5.12921e-09
1.42721e-08
3.21251e-09
2.89099e-10
-6.50359e-09
8.32696e-09
-5.73228e-10
1.72925e-08
1.19408e-08
2.36726e-09
-3.31925e-09
-9.13494e-10
6.31063e-09
6.54321e-09
1.70055e-08
-2.78405e-09
-1.18543e-08
-1.03449e-08
1.10621e-08
7.18831e-09
-7.90439e-09
9.27535e-09
-2.39888e-09
4.65273e-09
-1.15296e-08
-3.64195e-09
-9.34025e-09
3.1127e-09
9.86908e-09
5.23783e-09
3.95335e-10
-1.49268e-08
3.18858e-09
-1.00733e-08
-4.62063e-09
-2.33618e-10
-1.75198e-08
8.83975e-09
7.76479e-09
9.22053e-09
-9.73604e-09
4.25531e-09
6.82277e-09
-1.43988e-08
1.33463e-08
-1.18752e-08
-4.92196e-09
8.88091e-10
-1.18694e-08
1.37695e-08
-7.84198e-09
1.30133e-08
-2.05824e-09
1.75817e-08
-1.18211e-08
3.45899e-09
1.85797e-08
-8.54876e-09
-8.07664e-09
-2.9445e-09
1.78098e-08
-6.78836e-09
1.47271e-08
-1.81026e-08
-4.70114e-09
2.53863e-08
2.89874e-09
-1.35579e-08
1.49067e-08
3.55044e-09
6.92873e-09
9.51582e-09
-5.05427e-09
-7.40622e-09
7.45554e-09
5.05202e-09
-6.21795e-09
-6.28984e-09
1.26496e-08
4.56611e-09
-9.7602e-09
1.80018e-08
-1.77383e-08
1.23861e-08
3.78222e-09
-1.85324e-09
1.60734e-08
-5.02769e-10
1.54887e-08
-7.89752e-11
-1.48734e-08
1.65483e-08
-2.17744e-09
1.10124e-08
1.03476e-08
-6.92266e-09
-1.17175e-08
-2.52765e-10
1.82219e-08
-6.25131e-09
-9.17008e-09
-4.47361e-09
1.12149e-08
8.74748e-09
4.57438e-09
2.0067e-09
2.93368e-09
-7.76758e-09
1.87296e-08
7.81923e-09
6.22967e-09
-3.69527e-09
6.23832e-09
-8.77258e-09
2.99893e-09
4.41289e-09
-1.18238e-09
-6.69218e-09
-8.19991e-10
3.894e-09
3.61837e-09
-2.23257e-09
-3.67164e-09
-7.88432e-10
2.37195e-09
-3.29482e-09
5.10455e-09
-4.1819e-09
6.42558e-09
-1.05469e-09
4.03644e-09
-1.10266e-08
7.43122e-09
2.85309e-09
-4.04637e-09
8.94289e-09
2.90112e-09
6.26033e-09
-6.09132e-09
-2.40162e-09
2.87597e-09
2.56315e-09
3.78466e-09
-1.03083e-09
-9.54488e-09
3.91217e-09
9.52607e-09
-7.6083e-09
1.84819e-09
-3.70881e-09
2.72173e-09
-1.31957e-08
5.17617e-09
-1.51896e-08
2.32083e-08
-2.58412e-09
-1.19553e-08
1.34351e-09
-1.24961e-09
6.73998e-09
-8.72637e-09
6.02231e-09
1.09593e-08
-1.36629e-09
-5.71264e-09
1.48012e-08
5.06438e-11
-7.50164e-09
1.7366e-09
8.68549e-09
2.48052e-09
-1.11156e-08
-8.59119e-09
2.08658e-09
-9.5872e-09
3.4995e-09
-8.12584e-09
1.86434e-08
1.97638e-09
-1.20498e-08
-8.5708e-09
1.66184e-08
-5.46559e-09
-1.70758e-08
5.92118e-09
4.27652e-09
5.31864e-09
7.01867e-09
9.34899e-09
6.88531e-09
-1.19598e-08
7.89741e-11
1.30984e-08
-9.0745e-09
-6.02533e-09
-2.13602e-08
1.79835e-08
-1.47878e-09
4.85461e-09
-2.13322e-09
1.52581e-10
-1.93816e-08
6.56496e-09
-6.18195e-09
8.96251e-09
-4.12929e-09
1.93918e-08
-8.6993e-09
6.24188e-09
-1.74795e-08
5.05295e-09
1.0981e-08
1.32438e-08
-1.76684e-08
-1.94572e-09
1.57345e-08
-1.5504e-08
1.35237e-08
7.31553e-10
-9.60924e-09
1.64602e-08
4.35424e-10
-7.91626e-10
1.34523e-08
4.34924e-09
-1.3682e-08
1.13821e-08
-5.74949e-09
-1.21886e-08
-1.53048e-09
3.61468e-11
7.87878e-09
-1.2102e-08
-8.63807e-09
-4.68071e-09
-2.31989e-09
3.29702e-09
-1.69233e-08
1.52214e-09
1.15794e-08
-1.15532e-08
3.26992e-09
8.98971e-10
1.29733e-09
-8.62524e-09
2.75986e-09
1.13423e-10
-9.84414e-09
-1.09712e-08
1.55878e-08
-8.68947e-09
7.87216e-09
-1.71419e-09
1.56287e-09
7.20845e-09
1.72769e-08
-1.55845e-08
1.06686e-09
-1.3653e-09
1.99392e-08
-2.04226e-08
-1.69893e-09
2.07564e-08
-1.24253e-08
2.11332e-09
8.92005e-09
-1.24223e-08
-7.65866e-09
-2.73204e-09
2.65522e-09
7.73542e-09
-4.98411e-09
-2.99587e-09
3.21206e-10
1.36019e-08
-1.31498e-08
-5.43639e-09
4.06201e-10
1.04634e-08
-7.51114e-09
2.04935e-09
8.11692e-09
-4.02824e-09
-4.11505e-09
6.32148e-10
1.05836e-08
-8.32688e-09
-7.56661e-10
-1.50013e-09
1.04248e-08
-3.86947e-09
2.37744e-09
-1.80658e-09
8.16503e-09
-8.73599e-09
-1.53982e-09
-5.367e-09
9.28425e-09
5.45885e-09
-8.27136e-09
3.48674e-09
-6.74222e-10
6.92241e-09
1.20485e-09
-9.93398e-09
-7.51849e-09
4.07665e-10
4.20108e-09
7.66304e-09
-4.94172e-09
-2.73066e-09
-5.86817e-10
-1.64964e-09
-3.83711e-09
1.45005e-08
-2.02653e-09
1.25225e-08
-1.35157e-08
-9.6358e-09
1.06291e-08
7.31521e-09
6.88095e-09
-6.03112e-09
-7.90579e-09
7.5708e-09
-1.2161e-08
8.81962e-09
3.74742e-09
-6.49536e-09
3.50606e-09
-5.86255e-09
-1.64157e-09
9.58619e-09
3.797e-09
-9.87646e-09
4.45513e-09
7.86655e-09
-5.56763e-09
1.49846e-09
6.41155e-09
5.91026e-09
-7.11674e-10
-3.95815e-09
7.34791e-09
-2.67794e-09
4.21775e-09
-1.9456e-09
-8.12794e-09
4.78803e-09
2.21862e-09
3.32238e-09
-1.03592e-08
-1.09082e-09
-3.88667e-09
4.71666e-09
-2.7455e-09
2.18163e-09
2.19041e-09
-2.90005e-09
-1.1583e-08
1.22928e-08
-9.53404e-09
-2.15103e-09
1.38756e-08
1.37404e-08
-8.63963e-10
-1.13715e-08
-1.50476e-09
-8.13545e-09
1.23419e-08
-1.96977e-09
-7.51421e-09
7.33295e-09
-1.01229e-08
5.25288e-09
-9.70022e-09
-2.74671e-09
7.61303e-09
-1.40196e-08
-4.96466e-09
-4.19886e-09
3.67654e-09
1.63861e-08
-6.82402e-09
-1.0828e-08
1.26569e-09
1.52081e-08
-8.94503e-09
8.08769e-09
-7.2336e-09
-1.48736e-08
2.76327e-09
1.12551e-09
-5.39823e-09
-1.11261e-08
-1.15491e-08
8.64802e-09
6.07193e-09
-3.17088e-09
-4.36873e-09
-1.32008e-08
6.02044e-09
3.89695e-09
-1.70005e-08
7.51895e-09
2.27946e-09
-1.24584e-08
2.65975e-09
-9.04785e-09
1.02652e-08
-8.07738e-09
4.59399e-09
-9.50501e-09
2.38904e-10
2.18066e-10
6.02322e-10
-8.55005e-09
-1.5576e-09
-1.02987e-08
-1.55737e-09
1.09272e-08
-6.70535e-09
-6.55499e-09
6.1963e-09
5.72601e-09
-1.52681e-08
-1.12781e-08
-3.30084e-09
-1.53397e-08
1.6312e-08
6.02591e-10
-4.69718e-09
2.02985e-08
1.04023e-08
-1.58456e-08
-1.48567e-08
-1.12711e-08
2.18825e-08
9.68794e-09
1.30563e-08
-6.11737e-10
-1.15347e-08
7.8621e-09
-3.76905e-10
-1.87561e-08
-1.18069e-08
2.1813e-08
-8.02971e-10
6.5194e-09
-6.54058e-09
-5.19993e-09
-8.16206e-09
1.99017e-08
-1.15977e-08
-1.36555e-08
1.87123e-08
-1.17427e-08
1.88318e-08
8.34766e-09
-1.54368e-08
6.47793e-09
-8.69483e-09
-9.5266e-09
5.60097e-10
5.96295e-09
-1.17248e-08
-1.47868e-08
3.74869e-09
-5.67777e-09
-3.29376e-10
-7.64873e-09
7.71578e-09
6.73612e-10
-1.91247e-09
1.8385e-08
-2.07411e-10
-2.13092e-08
1.28216e-08
-1.10443e-08
-9.42045e-09
-6.48018e-09
-5.00029e-09
1.2152e-08
-4.96857e-09
-1.68216e-08
1.53088e-08
-1.62207e-08
8.50548e-09
-3.39262e-09
4.46499e-09
-9.57832e-09
-1.8468e-09
1.10947e-08
-7.4238e-10
1.58117e-08
-9.17431e-09
-1.34973e-09
-5.28792e-09
4.99457e-09
-2.31966e-09
1.31369e-08
1.05091e-08
-1.08143e-08
-8.8693e-09
-8.63041e-09
1.32996e-08
5.83966e-09
5.44707e-09
8.84406e-11
2.46517e-09
-5.64896e-09
-8.54894e-09
8.27489e-09
-1.57256e-09
3.18108e-09
8.9462e-09
-1.03284e-09
-6.9516e-09
8.69499e-09
1.43734e-09
2.33356e-09
-4.82029e-09
1.07372e-08
-3.81199e-09
1.98805e-09
1.37435e-08
1.36297e-09
9.61665e-09
-5.58274e-09
8.04022e-09
6.48893e-09
2.50089e-09
6.11038e-10
-8.18971e-09
-1.79749e-09
1.09337e-09
8.89355e-09
-6.38246e-09
6.93391e-10
7.49711e-09
-9.04194e-09
-4.83807e-09
7.06242e-09
-4.24321e-09
1.11216e-08
1.483e-08
1.6575e-09
-1.14841e-08
-5.00455e-09
3.59934e-09
-2.58231e-09
1.38121e-08
-1.04495e-08
1.88831e-09
1.216e-08
4.09922e-09
4.22911e-10
-1.49712e-08
5.36963e-09
1.53441e-09
-6.55869e-09
-3.44396e-10
1.56723e-09
-3.79181e-09
7.59526e-09
-1.12747e-08
-1.64807e-09
1.03401e-08
-2.21226e-09
-7.40501e-09
1.26039e-09
-8.89243e-09
9.87441e-09
-2.24118e-09
6.14636e-09
-4.82718e-09
2.78051e-09
-5.65645e-10
8.60113e-09
3.54517e-09
-3.98903e-09
1.97865e-09
-1.75966e-09
6.87225e-09
-6.97344e-09
-6.32415e-09
6.73893e-09
-1.27093e-08
1.34585e-10
1.09265e-08
-4.33166e-09
-6.99906e-09
-1.3781e-09
5.35358e-09
-1.15399e-08
-5.29656e-09
3.31329e-09
-7.50338e-09
-1.41055e-09
4.15906e-09
1.33791e-09
6.42755e-09
-7.63009e-09
1.03863e-10
-9.85235e-09
8.28779e-10
8.92021e-09
1.22033e-09
-8.08879e-09
7.62071e-10
-3.33326e-09
-5.48046e-09
7.5229e-09
-3.72388e-09
-8.97175e-09
8.51379e-09
4.182e-09
-6.44224e-09