/*--------------------------------*- C++ -*----------------------------------*\
| =========                 |                                                 |
| \\      /  F ield         | OpenFOAM: The Open Source CFD Toolbox           |
|  \\    /   O peration     | Version:  v1612+                                |
|   \\  /    A nd           | Web:      www.OpenFOAM.com                      |
|    \\/     M anipulation  |                                                 |
\*---------------------------------------------------------------------------*/
FoamFile
{
    version     2.0;
    format      ascii;
    class       volVectorField;
    location    "150";
    object      U;
}
// * * * * * * * * * * * * * * * * * * * * * * * * * * * * * * * * * * * * * //

dimensions      [0 1 -1 0 0 0 0];

internalField   nonuniform List<vector> 
19087
(
(-0.483399 0.924675 -0.204527)
(-0.220591 0.999039 0.0920634)
(-0.266207 0.571308 0.027379)
(-0.26889 0.578128 -0.00865491)
(-0.278434 0.620846 0.0237935)
(-0.267523 0.593744 -0.00320122)
(-0.269646 0.606108 0.0516606)
(-0.312207 0.907872 -0.0173048)
(-0.320259 0.922179 -0.0291988)
(-0.321907 0.920454 -0.0247964)
(-0.285884 0.873099 -0.0241107)
(-0.353897 0.902755 -0.0582463)
(-0.330025 0.914283 -0.0343976)
(-0.325619 0.866369 -0.0795391)
(-0.348696 0.897839 -0.0810776)
(-0.243971 0.827548 -0.0421482)
(-0.2584 0.825989 -0.0468518)
(-0.23057 0.808362 -0.0499313)
(-0.290031 0.862133 -0.0630544)
(-0.316245 0.849472 -0.0911407)
(-0.362417 0.895716 -0.0750835)
(-0.304829 0.870763 -0.0778678)
(-0.308574 0.877999 -0.0753758)
(-0.276751 0.84409 -0.0610699)
(-0.304958 0.851814 -0.0583572)
(-0.259402 0.846163 -0.05166)
(-0.347963 0.926381 -0.0651464)
(-0.48275 0.680386 -0.22141)
(-0.45468 0.68898 -0.192957)
(-0.512865 0.729516 -0.251569)
(-0.465333 0.707631 -0.203465)
(-0.51403 0.729307 -0.25515)
(-0.472399 0.705706 -0.216596)
(-0.525692 0.753946 -0.278347)
(-0.429895 0.734083 -0.200979)
(-0.418544 0.729146 -0.175989)
(-0.424806 0.735856 -0.188516)
(-0.537344 0.763704 -0.292184)
(-0.488136 0.752485 -0.253891)
(-0.487158 0.766778 -0.262437)
(-0.451176 0.751912 -0.212188)
(-0.310853 0.737905 -0.0352)
(-0.320398 0.754674 -0.0354168)
(-0.342439 0.754249 -0.0374886)
(-0.327586 0.719449 -0.0546818)
(-0.326147 0.777611 -0.0200159)
(-0.345969 0.820857 -0.0173056)
(-0.315514 0.7171 -0.0391179)
(-0.321401 0.710012 -0.0487216)
(-0.333125 0.73885 -0.0450305)
(-0.327352 0.72713 -0.0315139)
(-0.333616 0.766193 -0.0200724)
(-0.347536 0.827602 -0.0232576)
(-0.361485 0.804597 -0.0414758)
(-0.349032 0.810095 -0.0337921)
(-0.351705 0.836084 -0.0279893)
(-0.381292 0.768106 -0.100656)
(-0.381053 0.736394 -0.0967949)
(-0.371212 0.716134 -0.0792578)
(-0.367882 0.740529 -0.0809488)
(-0.393867 0.786127 -0.0892346)
(-0.408886 0.848133 -0.0814873)
(-0.396937 0.790081 -0.0656321)
(-0.402331 0.812369 -0.0751372)
(-0.391443 0.824272 -0.0640776)
(-0.391521 0.831389 -0.0526845)
(-0.359003 0.736299 -0.0800231)
(-0.372489 0.786134 -0.0994754)
(-0.379666 0.800466 -0.0891737)
(-0.387647 0.834922 -0.0767944)
(-0.405554 0.892476 -0.0572591)
(-0.39631 0.853321 -0.0751614)
(-0.390109 0.845165 -0.0691753)
(-0.378756 0.77062 -0.063241)
(-0.344787 0.707637 -0.0727582)
(-0.347001 0.69248 -0.0846769)
(-0.399615 0.836868 -0.07073)
(-0.34622 0.567041 -0.150291)
(-0.359285 0.581915 -0.158632)
(-0.3354 0.535931 -0.143448)
(-0.343347 0.537948 -0.147845)
(-0.295433 0.515808 -0.138615)
(-0.299027 0.504322 -0.129959)
(-0.343011 0.557068 -0.172635)
(-0.363497 0.578859 -0.177864)
(-0.329296 0.546235 -0.145821)
(-0.290875 0.526545 -0.143484)
(-0.287991 0.495774 -0.13024)
(-0.372896 0.575993 -0.170673)
(-0.372239 0.580237 -0.176446)
(-0.363711 0.587079 -0.171501)
(-0.35958 0.584416 -0.17183)
(-0.340225 0.570635 -0.162185)
(-0.336199 0.541753 -0.156032)
(-0.321136 0.518293 -0.142443)
(-0.339724 0.590774 -0.172261)
(-0.319223 0.558247 -0.174431)
(-0.320249 0.565799 -0.170682)
(-0.308946 0.512617 -0.144358)
(-0.296186 0.540164 -0.161781)
(-0.292846 0.529146 -0.161883)
(-0.446092 0.620387 -0.236649)
(-0.43091 0.593517 -0.233953)
(-0.458854 0.649216 -0.235848)
(-0.46121 0.637673 -0.269083)
(-0.441273 0.644877 -0.249023)
(-0.429332 0.610374 -0.22742)
(-0.429191 0.618395 -0.237962)
(-0.466471 0.640209 -0.267759)
(-0.403835 0.591048 -0.214243)
(-0.445468 0.613272 -0.221099)
(-0.409147 0.577921 -0.221319)
(-0.435086 0.572911 -0.232659)
(-0.398732 0.571146 -0.194414)
(-0.298824 0.656028 -0.0631816)
(-0.312074 0.671849 -0.067246)
(-0.302025 0.658654 -0.0560125)
(-0.301699 0.658607 -0.050089)
(-0.32364 0.714914 -0.0533898)
(-0.302869 0.679106 -0.0451557)
(-0.333017 0.739512 -0.0408239)
(-0.330676 0.734999 -0.0384842)
(-0.198471 0.39756 0.0383402)
(-0.203128 0.413608 0.0315597)
(-0.228627 0.485153 0.00842146)
(-0.224828 0.464594 0.015192)
(-0.240893 0.538756 -0.0407807)
(-0.215094 0.489994 -0.0200252)
(-0.214666 0.459212 -0.000368451)
(-0.237262 0.510636 -0.0211921)
(-0.240146 0.508757 -0.0174114)
(-0.245286 0.50256 -0.0173197)
(-0.202191 0.410525 0.0280562)
(-0.196241 0.408801 0.0180577)
(-0.217918 0.451837 0.0229892)
(-0.221616 0.504463 -0.0204776)
(-0.227938 0.525788 -0.0303183)
(-0.208105 0.440863 0.0246657)
(-0.217644 0.454319 0.0270869)
(-0.234339 0.521758 -0.0188656)
(-0.212803 0.474612 0.00344604)
(-0.222331 0.483319 0.00323992)
(-0.203936 0.408232 0.0297324)
(-0.214055 0.475845 0.00117989)
(-0.514037 0.937659 -0.238419)
(-0.493014 0.93265 -0.231589)
(-0.501579 0.890494 -0.232851)
(-0.483828 0.924517 -0.249688)
(-0.494729 0.938467 -0.245646)
(-0.502432 0.900407 -0.237023)
(-0.473356 0.94972 -0.226691)
(-0.454295 0.945904 -0.225039)
(-0.488896 0.936741 -0.222937)
(-0.486925 0.833173 -0.25144)
(-0.492065 0.898152 -0.259079)
(-0.457234 0.93276 -0.236152)
(-0.496327 0.884104 -0.248192)
(-0.497127 0.868306 -0.238665)
(-0.451991 0.915477 -0.223654)
(-0.486357 0.888947 -0.248784)
(-0.329011 0.544909 -0.260455)
(-0.318195 0.517344 -0.254294)
(-0.337325 0.523208 -0.255298)
(-0.28874 0.591372 -0.26443)
(-0.334005 0.624787 -0.267982)
(-0.272847 0.478454 -0.248911)
(-0.236108 0.475796 -0.234297)
(-0.257015 0.484443 -0.23775)
(-0.274184 0.484246 -0.247805)
(-0.298865 0.573397 -0.262305)
(-0.29849 0.498906 -0.269561)
(-0.307488 0.521023 -0.269762)
(-0.295493 0.630968 -0.266966)
(-0.246171 0.585263 -0.253238)
(-0.217051 0.493767 -0.235733)
(-0.280406 0.506846 -0.260881)
(-0.241592 0.536168 -0.247246)
(-0.207939 0.541829 -0.238281)
(-0.223689 0.555728 -0.241061)
(-0.404716 0.597785 -0.147233)
(-0.396706 0.616285 -0.129752)
(-0.424812 0.678405 -0.184199)
(-0.368015 0.620529 -0.108924)
(-0.408092 0.657623 -0.164082)
(-0.434244 0.721437 -0.173622)
(-0.39859 0.590297 -0.159436)
(-0.361223 0.54868 -0.126663)
(-0.427606 0.694648 -0.177255)
(-0.48279 0.763509 -0.225734)
(-0.410738 0.64791 -0.167386)
(-0.428797 0.6696 -0.182032)
(-0.389781 0.573351 -0.170563)
(-0.381838 0.571721 -0.150174)
(-0.373094 0.55682 -0.143211)
(-0.426786 0.635067 -0.188624)
(-0.352136 0.417359 -0.228171)
(-0.343015 0.420414 -0.233869)
(-0.320498 0.395065 -0.209936)
(-0.355363 0.427269 -0.236419)
(-0.362055 0.421824 -0.23254)
(-0.270475 0.369876 -0.188641)
(-0.347786 0.422401 -0.208129)
(-0.372043 0.44331 -0.202072)
(-0.316896 0.401199 -0.184302)
(-0.283606 0.391995 -0.201477)
(-0.309431 0.415558 -0.213695)
(-0.402196 0.45614 -0.240017)
(-0.362166 0.438613 -0.203744)
(-0.318239 0.410193 -0.193979)
(-0.347106 0.42408 -0.232262)
(-0.372213 0.445017 -0.228195)
(-0.325409 0.921649 -0.0460501)
(-0.333225 0.923969 -0.0370278)
(-0.310382 0.923966 -0.0307616)
(-0.333678 0.932337 -0.031931)
(-0.357905 0.937654 -0.0478478)
(-0.412453 0.955925 -0.0797388)
(-0.363948 0.940393 -0.0411473)
(-0.340998 0.936398 -0.0359139)
(-0.424755 0.959204 -0.0813504)
(-0.395284 0.955095 -0.0684225)
(-0.40745 0.944277 -0.0771253)
(-0.404587 0.916797 -0.0936696)
(-0.338279 0.930723 -0.0505158)
(-0.366021 0.950939 -0.0522056)
(-0.383482 0.96048 -0.071349)
(-0.406711 0.942422 -0.093484)
(-0.36728 0.932671 -0.0773162)
(-0.377359 0.927699 -0.108597)
(-0.395588 0.928072 -0.106263)
(-0.412227 0.914412 -0.113878)
(-0.379666 0.934094 -0.0847731)
(-0.524636 0.904854 -0.166059)
(-0.544549 0.933406 -0.183939)
(-0.540689 0.911474 -0.170678)
(-0.515197 0.882701 -0.159574)
(-0.549154 0.917298 -0.182995)
(-0.547415 0.904228 -0.194516)
(-0.551513 0.90186 -0.201164)
(-0.537392 0.893093 -0.17471)
(-0.517093 0.868606 -0.164171)
(-0.554142 0.934389 -0.199553)
(-0.535207 0.879876 -0.197427)
(-0.510287 0.854944 -0.182324)
(-0.555762 0.923291 -0.203661)
(-0.54833 0.896795 -0.212027)
(-0.552642 0.912366 -0.207008)
(-0.545415 0.921744 -0.196468)
(-0.527433 0.881607 -0.196772)
(-0.537981 0.897701 -0.202847)
(-0.551267 0.908769 -0.218833)
(-0.637958 0.840085 -0.35052)
(-0.623109 0.814634 -0.368382)
(-0.627144 0.826139 -0.341248)
(-0.577329 0.770928 -0.351034)
(-0.562301 0.721622 -0.331952)
(-0.569661 0.746052 -0.35992)
(-0.563297 0.738496 -0.323841)
(-0.569942 0.760506 -0.368333)
(-0.282432 0.90016 0.0686872)
(-0.287348 0.912943 0.0570299)
(-0.201846 0.878839 0.131603)
(-0.22401 0.901902 0.108053)
(-0.283425 0.921329 0.0466025)
(-0.205822 0.906919 0.109241)
(-0.179345 0.857617 0.137036)
(-0.209871 0.814691 0.14357)
(-0.235769 0.80101 0.120826)
(-0.277722 0.852405 0.071077)
(-0.231745 0.845166 0.130126)
(-0.233727 0.910225 0.0769525)
(-0.203852 0.845474 0.12548)
(-0.179361 0.828046 0.157507)
(-0.230105 0.924989 0.0768097)
(-0.27831 0.838587 0.0585671)
(-0.192077 0.869765 0.125223)
(-0.419894 1.00348 -0.0307996)
(-0.40142 1.00761 -0.020251)
(-0.398294 1.0204 -0.0186807)
(-0.393936 1.01813 -0.0128622)
(-0.389351 0.999174 -0.00742027)
(-0.386642 1.02257 -0.0173895)
(-0.399544 1.01521 -0.0204145)
(-0.43579 1.02424 -0.0208056)
(-0.418015 1.00912 -0.019546)
(-0.403522 0.990025 -0.0169007)
(-0.415092 0.979164 0.000553251)
(-0.407426 0.993133 0.00177326)
(-0.405388 1.01467 -0.00911221)
(-0.376643 1.00496 0.00853218)
(-0.388561 1.0142 0.00390097)
(-0.388004 0.970346 -0.000397146)
(-0.395804 0.993149 0.0160389)
(-0.387612 0.966415 0.0202296)
(-0.402578 1.00164 0.00907162)
(-0.40577 0.99312 0.0113334)
(-0.407773 0.994286 -0.0004211)
(-0.4136 0.979108 -0.0157743)
(-0.414735 0.984772 -0.0108871)
(-0.366408 0.997681 -0.057969)
(-0.369454 0.9875 -0.0552225)
(-0.347675 1.02747 -0.0314294)
(-0.359642 0.954331 -0.0667494)
(-0.379434 0.936012 -0.0836943)
(-0.350137 0.985543 -0.0611604)
(-0.368929 0.906841 -0.0693369)
(-0.373286 0.85941 -0.072119)
(-0.35963 0.905084 -0.0448931)
(-0.355554 0.848304 -0.0607577)
(-0.347672 0.981368 -0.0513574)
(-0.327418 0.984959 -0.026228)
(-0.354586 0.911559 -0.0504437)
(-0.347893 0.935659 -0.0443166)
(-0.341037 0.936974 -0.0353382)
(-0.315171 0.991329 0.00196444)
(-0.331091 0.972179 -0.0234285)
(-0.322427 0.992132 -0.023715)
(-0.316201 0.981132 -0.0232107)
(-0.313907 0.998733 -0.00528991)
(-0.44868 0.983067 -0.159206)
(-0.457991 0.952672 -0.159074)
(-0.453632 0.985653 -0.174331)
(-0.441169 0.997003 -0.1601)
(-0.453401 0.93952 -0.176067)
(-0.453433 0.950171 -0.176977)
(-0.429173 0.943355 -0.163806)
(-0.400962 0.94818 -0.14595)
(-0.445335 0.967217 -0.158419)
(-0.457818 0.947013 -0.157317)
(-0.438804 0.964118 -0.151745)
(-0.415458 0.963949 -0.147912)
(-0.399629 1.00112 -0.145415)
(-0.415232 0.988472 -0.1481)
(-0.203445 0.764683 -0.0107684)
(-0.179788 0.738602 -0.00574045)
(-0.246726 0.80745 -0.0364023)
(-0.181948 0.719057 -0.00534188)
(-0.149499 0.647987 0.0117623)
(-0.308641 0.910337 0.00751836)
(-0.317335 0.927093 0.00395001)
(-0.244404 0.850103 -0.0155972)
(-0.212737 0.813097 0.00305135)
(-0.19565 0.786071 0.0200127)
(-0.202771 0.808116 0.029866)
(-0.177535 0.748062 0.0362149)
(-0.256604 0.871947 0.0423135)
(-0.237503 0.852554 0.043869)
(-0.280157 0.896738 0.00444785)
(-0.288434 0.887443 -0.00690215)
(-0.210248 0.793703 0.0365221)
(-0.149086 0.678738 0.0276497)
(-0.251163 0.837085 -0.0147871)
(-0.204853 0.759389 0.00110691)
(-0.17033 0.726622 0.0265409)
(-0.417066 0.97499 0.0206754)
(-0.418344 0.98698 0.0110315)
(-0.431294 0.992693 -0.00991078)
(-0.421396 0.9956 -0.00139597)
(-0.395755 0.932516 0.0218871)
(-0.419123 0.973578 -0.0231525)
(-0.416906 0.993461 -0.0164937)
(-0.425102 0.962135 -0.0261821)
(-0.425755 0.98263 -0.0363933)
(-0.43873 0.992177 -0.000952192)
(-0.440116 1.0085 0.0187429)
(-0.428672 0.983573 0.015819)
(-0.414989 0.965938 0.0177812)
(-0.435013 0.981302 -0.028656)
(-0.419389 0.992038 -0.0271207)
(-0.437357 0.993122 0.00738359)
(-0.423089 0.965127 0.00764742)
(-0.434785 1.01913 -0.0203962)
(-0.436451 0.986593 -0.0129606)
(-0.39122 0.92725 0.0137395)
(-0.374647 0.892645 0.00426103)
(-0.374157 0.832681 -0.00801968)
(-0.381623 0.874695 -0.00195406)
(-0.368125 0.897251 0.00992882)
(-0.378039 0.864462 -0.0157649)
(-0.37061 0.820086 -0.0168048)
(-0.375016 0.901984 -0.00780942)
(-0.383953 0.901849 -0.0098448)
(-0.368306 0.842344 0.00136143)
(-0.183857 0.737434 -0.0296151)
(-0.18242 0.759159 -0.025298)
(-0.18697 0.715286 -0.0344305)
(-0.155922 0.671105 -0.0116784)
(-0.219655 0.774814 -0.0553864)
(-0.203215 0.742897 -0.0613724)
(-0.176369 0.730351 -0.0348041)
(-0.175248 0.73963 -0.0340424)
(-0.213189 0.812289 -0.0353011)
(-0.195584 0.745183 -0.0400678)
(-0.210725 0.804663 -0.0387595)
(-0.421213 0.897901 -0.120519)
(-0.416293 0.819951 -0.120488)
(-0.440217 0.943188 -0.128714)
(-0.443712 0.921741 -0.130736)
(-0.426574 0.949218 -0.123996)
(-0.435356 0.851109 -0.117968)
(-0.423576 0.930293 -0.118407)
(-0.41013 0.888793 -0.112911)
(-0.416313 0.828797 -0.109825)
(-0.423017 0.970104 -0.121741)
(-0.440731 0.850981 -0.124476)
(-0.429831 0.969474 -0.117533)
(-0.422151 0.839419 -0.0991707)
(-0.438802 0.896059 -0.102991)
(-0.417403 0.913784 -0.101846)
(-0.428294 0.864744 -0.102649)
(-0.43807 0.990727 -0.117701)
(-0.449353 1.00438 -0.104721)
(-0.451351 0.951928 -0.116544)
(-0.449244 0.950169 -0.109989)
(-0.436663 0.906251 -0.117077)
(-0.445829 0.990646 -0.10281)
(-0.427521 0.748595 -0.158631)
(-0.421408 0.760811 -0.138346)
(-0.398207 0.676585 -0.152448)
(-0.400307 0.705792 -0.125566)
(-0.410243 0.708689 -0.157172)
(-0.417782 0.768908 -0.145275)
(-0.418385 0.78706 -0.145373)
(-0.395541 0.684372 -0.153491)
(-0.40565 0.71979 -0.137807)
(-0.399826 0.714439 -0.137194)
(-0.39741 0.742667 -0.131789)
(-0.392451 0.707139 -0.124814)
(-0.42173 0.767519 -0.133904)
(-0.423295 0.764669 -0.125502)
(-0.412553 0.711992 -0.160055)
(-0.392024 0.667797 -0.154172)
(-0.394591 0.687954 -0.149123)
(-0.532308 0.730862 -0.389167)
(-0.534755 0.736331 -0.363988)
(-0.547969 0.708963 -0.34887)
(-0.547015 0.753165 -0.362616)
(-0.54892 0.77763 -0.355737)
(-0.552668 0.789143 -0.370283)
(-0.526147 0.714144 -0.37244)
(-0.530316 0.728106 -0.368476)
(-0.532915 0.719616 -0.370255)
(-0.534203 0.741324 -0.360764)
(-0.526557 0.695835 -0.357757)
(-0.551852 0.788261 -0.362533)
(-0.54096 0.751759 -0.35713)
(-0.526194 0.707878 -0.353097)
(-0.552442 0.767282 -0.350087)
(-0.544901 0.797142 -0.358331)
(-0.543395 0.801741 -0.353691)
(-0.359723 0.962813 0.00628549)
(-0.372875 0.976961 -0.00349256)
(-0.356462 1.00163 0.0121596)
(-0.362079 0.999077 0.00927578)
(-0.36695 0.904392 -0.00717447)
(-0.351441 0.972173 0.0200604)
(-0.384627 1.00945 0.00822762)
(-0.376521 0.958991 0.0229895)
(-0.384409 1.03122 0.0146621)
(-0.364563 0.915866 0.00265691)
(-0.505221 0.540757 -0.286946)
(-0.471078 0.520236 -0.253309)
(-0.460183 0.504922 -0.24647)
(-0.456513 0.504711 -0.220861)
(-0.44021 0.480331 -0.21475)
(-0.401302 0.445424 -0.20915)
(-0.449733 0.503099 -0.214575)
(-0.510547 0.920503 -0.174189)
(-0.518301 0.943667 -0.176217)
(-0.504232 0.919451 -0.161858)
(-0.492214 0.921906 -0.154928)
(-0.513564 0.936961 -0.172779)
(-0.503494 0.906506 -0.167568)
(-0.51078 0.923198 -0.167122)
(-0.499685 0.928546 -0.14192)
(-0.515452 0.948319 -0.14786)
(-0.508994 0.945562 -0.134898)
(-0.503942 0.957083 -0.120565)
(-0.514136 0.945023 -0.154987)
(-0.482591 0.895557 -0.142571)
(-0.506007 0.943357 -0.138323)
(-0.496281 0.952775 -0.136141)
(-0.508154 0.947688 -0.150925)
(-0.479048 0.951281 -0.120415)
(-0.468451 0.954196 -0.0917934)
(-0.452126 0.924686 -0.126434)
(-0.470205 0.959783 -0.129536)
(-0.471812 0.980441 -0.115173)
(-0.470379 0.958832 -0.10432)
(-0.46349 0.913835 -0.113529)
(-0.462432 0.942972 -0.0968885)
(-0.450927 0.922466 -0.120848)
(-0.462378 0.949096 -0.109956)
(-0.467316 0.966993 -0.101884)
(-0.455939 0.93132 -0.0987426)
(-0.456895 0.929474 -0.094104)
(-0.459562 0.953072 -0.0940051)
(-0.46304 0.981982 -0.0891283)
(-0.43466 0.88899 -0.0942606)
(-0.435906 0.872743 -0.106391)
(-0.440578 0.91276 -0.0866309)
(-0.456799 0.961772 -0.0881863)
(-0.324692 0.877294 -0.132049)
(-0.336467 0.900754 -0.110223)
(-0.36567 0.87924 -0.134319)
(-0.33121 0.920465 -0.0775357)
(-0.344277 0.854243 -0.131911)
(-0.308159 0.890783 -0.10213)
(-0.33332 0.884363 -0.121998)
(-0.387359 0.837644 -0.138656)
(-0.374823 0.932886 -0.0779857)
(-0.368949 0.834362 -0.138561)
(-0.347007 0.899566 -0.105781)
(-0.404676 0.87507 -0.102827)
(-0.404623 0.866012 -0.106476)
(-0.367816 0.920186 -0.0780053)
(-0.378351 0.943958 -0.0750477)
(-0.434745 0.514122 -0.2368)
(-0.300373 0.382174 -0.182065)
(-0.423825 0.535223 -0.248507)
(-0.552591 0.698482 -0.295873)
(-0.455116 0.572782 -0.250301)
(-0.363334 0.506066 -0.224275)
(-0.395646 0.497335 -0.228814)
(-0.384453 0.53628 -0.228282)
(-0.363028 0.532068 -0.222606)
(-0.421819 0.543299 -0.236622)
(-0.408266 0.555067 -0.223819)
(-0.360677 0.489581 -0.22069)
(-0.350785 0.503587 -0.208897)
(-0.396871 0.527186 -0.220252)
(-0.352798 0.485094 -0.208669)
(-0.607234 0.822397 -0.299354)
(-0.612929 0.834877 -0.34331)
(-0.592904 0.817344 -0.32488)
(-0.610792 0.822418 -0.318078)
(-0.434094 0.802314 -0.131952)
(-0.42657 0.813431 -0.12298)
(-0.451306 0.863576 -0.140275)
(-0.444719 0.842844 -0.135578)
(-0.429524 0.794218 -0.126764)
(-0.433201 0.818775 -0.126508)
(-0.436966 0.862593 -0.13062)
(-0.417634 0.854898 -0.125684)
(-0.423491 0.831781 -0.098969)
(-0.415499 0.806316 -0.116478)
(-0.424944 0.821311 -0.102801)
(-0.478144 0.774734 -0.223475)
(-0.482613 0.750457 -0.21711)
(-0.478619 0.791671 -0.215573)
(-0.438456 0.728452 -0.203312)
(-0.43286 0.678455 -0.220664)
(-0.442845 0.681268 -0.219899)
(-0.472839 0.793543 -0.193746)
(-0.473221 0.797405 -0.200368)
(-0.499026 0.770382 -0.236107)
(-0.494021 0.808735 -0.222201)
(-0.45275 0.713575 -0.219088)
(-0.450641 0.682625 -0.236895)
(-0.494758 0.831742 -0.206311)
(-0.506272 0.847994 -0.219633)
(-0.46375 0.787254 -0.194055)
(-0.458355 0.721037 -0.213017)
(-0.486653 0.798146 -0.211737)
(-0.443714 0.724624 -0.192738)
(-0.506874 0.834121 -0.219966)
(-0.468489 0.738718 -0.210358)
(-0.449059 0.70903 -0.211148)
(-0.488807 0.808627 -0.236505)
(-0.460358 0.741481 -0.229587)
(-0.209415 0.34448 -0.104012)
(-0.205357 0.366108 -0.113883)
(-0.223498 0.365435 -0.105203)
(-0.216129 0.370541 -0.112685)
(-0.238278 0.419478 -0.138682)
(-0.223906 0.397317 -0.131005)
(-0.217071 0.375316 -0.128345)
(-0.279194 0.422099 -0.141046)
(-0.248231 0.410458 -0.125954)
(-0.271578 0.454374 -0.168444)
(-0.243843 0.424578 -0.159403)
(-0.252932 0.416767 -0.155118)
(-0.281734 0.434502 -0.161349)
(-0.284996 0.441851 -0.142859)
(-0.300787 0.45315 -0.170963)
(-0.296787 0.452556 -0.178967)
(-0.260654 0.593558 -0.129164)
(-0.264971 0.581759 -0.126169)
(-0.257797 0.596462 -0.13139)
(-0.235732 0.520618 -0.0810003)
(-0.228395 0.529066 -0.0850091)
(-0.197471 0.460392 -0.0734568)
(-0.209855 0.495192 -0.0865909)
(-0.192341 0.416779 -0.050162)
(-0.196516 0.443602 -0.0584445)
(-0.20507 0.452365 -0.0769092)
(-0.199132 0.432141 -0.0642452)
(-0.242634 0.565724 -0.126691)
(-0.230494 0.508802 -0.081403)
(-0.231963 0.461637 -0.0751949)
(-0.21955 0.481295 -0.067154)
(-0.199174 0.437882 -0.0577501)
(-0.235667 0.541237 -0.126215)
(-0.239077 0.569644 -0.135356)
(-0.223311 0.492566 -0.092392)
(-0.225257 0.465927 -0.0746422)
(-0.215635 0.498937 -0.0887328)
(-0.443071 0.933368 -0.0856695)
(-0.437881 0.908772 -0.0799583)
(-0.434891 0.879338 -0.0961727)
(-0.435319 0.865199 -0.102874)
(-0.461104 0.966927 -0.078226)
(-0.454087 0.984129 -0.0615208)
(-0.452766 0.95205 -0.0671433)
(-0.440953 0.884475 -0.0854784)
(-0.466944 0.961716 -0.0730669)
(-0.440838 0.904242 -0.100453)
(-0.438496 0.856966 -0.10588)
(-0.469158 0.967676 -0.0772887)
(-0.448421 0.903835 -0.104587)
(-0.470798 0.946605 -0.0974538)
(-0.473226 0.948427 -0.0922682)
(-0.466817 0.949527 -0.0897949)
(-0.487336 0.973118 -0.0921753)
(-0.212313 0.437937 0.0663006)
(-0.208165 0.422853 0.0634671)
(-0.279577 0.559543 0.00856331)
(-0.257116 0.531671 -0.0105434)
(-0.242765 0.490535 0.0577343)
(-0.24281 0.497443 0.0250037)
(-0.237121 0.473598 0.0226161)
(-0.238151 0.461258 0.0400961)
(-0.22233 0.443284 0.0891501)
(-0.262951 0.552004 0.0444677)
(-0.223025 0.454568 0.0935864)
(-0.210362 0.435698 0.0881239)
(-0.28402 0.57262 0.0148332)
(-0.257167 0.519563 -0.011602)
(-0.257453 0.540308 0.0715098)
(-0.232508 0.47795 0.0829922)
(-0.231365 0.476043 0.0930523)
(-0.266942 0.560857 0.0452965)
(-0.250024 0.486914 0.0199429)
(-0.257348 0.50872 0.011603)
(-0.251476 0.501322 0.0476792)
(-0.238709 0.488593 0.0491403)
(-0.254699 0.991197 0.0828513)
(-0.234733 0.988257 0.0835388)
(-0.189211 0.927438 0.138245)
(-0.204136 0.934981 0.126891)
(-0.192018 0.942037 0.145712)
(-0.28085 0.989343 0.0667641)
(-0.280249 0.994407 0.0367021)
(-0.261166 0.985375 0.0624157)
(-0.268962 0.943978 0.0930779)
(-0.204783 0.979584 0.122701)
(-0.296482 0.987788 0.0335477)
(-0.293659 0.995948 0.0592794)
(-0.276987 0.961449 0.058912)
(-0.299154 0.892764 0.0285108)
(-0.30974 0.934021 0.0236242)
(-0.301123 0.91915 0.0363758)
(-0.277928 0.950228 0.0670797)
(-0.296582 0.926252 0.0375334)
(-0.313144 0.921511 0.0313654)
(-0.270492 0.984192 0.0795829)
(-0.30739 0.989076 0.0451252)
(-0.266992 0.543707 -0.0644734)
(-0.277374 0.555448 -0.0717053)
(-0.262785 0.532876 -0.0580099)
(-0.251959 0.51526 -0.0682159)
(-0.241779 0.499834 -0.050836)
(-0.28482 0.583457 -0.0887582)
(-0.237376 0.567542 -0.0770113)
(-0.230488 0.525506 -0.0757196)
(-0.285731 0.597848 -0.117003)
(-0.277203 0.585606 -0.118899)
(-0.25143 0.520309 -0.0540476)
(-0.238457 0.498896 -0.0479472)
(-0.236741 0.503286 -0.0569778)
(-0.231949 0.532527 -0.0707855)
(-0.257581 0.587249 -0.0881415)
(-0.239421 0.527681 -0.0624835)
(-0.270279 0.624229 -0.110881)
(-0.271547 0.642897 -0.115001)
(-0.249089 0.54561 -0.0915994)
(-0.251136 0.540563 -0.0693563)
(-0.474009 0.944682 -0.0922292)
(-0.483977 0.933761 -0.0987855)
(-0.511509 0.935786 -0.152316)
(-0.499304 0.917379 -0.156706)
(-0.508129 0.95846 -0.156807)
(-0.507904 0.924977 -0.162585)
(-0.469311 0.932108 -0.0781174)
(-0.455388 0.912966 -0.0705468)
(-0.493047 0.942958 -0.110845)
(-0.49993 0.938614 -0.134422)
(-0.498532 0.939338 -0.118401)
(-0.479024 0.908843 -0.0875115)
(-0.457841 0.904191 -0.0802867)
(-0.486109 0.929434 -0.123218)
(-0.491286 0.935678 -0.128755)
(-0.515835 0.956574 -0.152333)
(-0.520054 0.944456 -0.152866)
(-0.504712 0.950242 -0.106833)
(-0.459 0.900805 -0.0801314)
(-0.48565 0.959474 -0.11595)
(-0.499128 0.943161 -0.125735)
(-0.491432 0.941045 -0.100331)
(-0.468724 0.926479 -0.0824787)
(-0.471238 0.95498 -0.0881132)
(-0.363195 0.734174 -0.107216)
(-0.369171 0.778522 -0.098709)
(-0.372278 0.778249 -0.0804355)
(-0.367317 0.757546 -0.0649212)
(-0.348597 0.725219 -0.0697086)
(-0.345607 0.679289 -0.0969364)
(-0.353619 0.683153 -0.111015)
(-0.378547 0.784349 -0.0641131)
(-0.388701 0.803456 -0.0580096)
(-0.388416 0.829486 -0.0656719)
(-0.387607 0.8139 -0.0625741)
(-0.365113 0.749704 -0.0889507)
(-0.354357 0.710831 -0.0785238)
(-0.343382 0.691748 -0.0935461)
(-0.375593 0.764812 -0.0761481)
(-0.217449 0.741864 -0.0733724)
(-0.182703 0.673105 -0.0589474)
(-0.204277 0.7248 -0.0784585)
(-0.198539 0.711697 -0.0681849)
(-0.1515 0.566381 -0.0324546)
(-0.14731 0.600797 -0.0208472)
(-0.168019 0.68008 -0.0253213)
(-0.196408 0.751696 -0.0432546)
(-0.249747 0.804334 -0.0561597)
(-0.18305 0.647229 -0.0523741)
(-0.263428 0.828408 -0.0529344)
(-0.246295 0.770025 -0.0713112)
(-0.197136 0.697739 -0.0428831)
(-0.377824 0.936055 -0.0548665)
(-0.375265 0.938794 -0.0631787)
(-0.362421 0.925552 -0.0788064)
(-0.36425 0.92386 -0.0773478)
(-0.414997 0.926259 -0.115658)
(-0.38507 0.911819 -0.128727)
(-0.37967 0.93012 -0.110706)
(-0.382866 0.951743 -0.0644859)
(-0.360957 0.940768 -0.0570115)
(-0.390699 0.941665 -0.0775688)
(-0.440074 0.927156 -0.130403)
(-0.407219 0.898469 -0.133631)
(-0.395904 0.891069 -0.125203)
(-0.403375 0.914584 -0.1256)
(-0.426628 0.951775 -0.0901002)
(-0.439981 0.944042 -0.119159)
(-0.435809 0.897019 -0.130545)
(-0.425518 0.904309 -0.1214)
(-0.447561 0.938938 -0.118802)
(-0.43926 0.893634 -0.127085)
(-0.501113 0.711572 -0.304253)
(-0.537107 0.762404 -0.353943)
(-0.537239 0.739074 -0.351807)
(-0.540154 0.731818 -0.351357)
(-0.544544 0.790021 -0.350858)
(-0.539282 0.83521 -0.340994)
(-0.540442 0.807787 -0.329785)
(-0.565846 0.824165 -0.340557)
(-0.479101 0.671276 -0.302274)
(-0.47937 0.647748 -0.306317)
(-0.523711 0.748382 -0.321321)
(-0.509756 0.727333 -0.314001)
(-0.543805 0.767027 -0.352299)
(-0.547555 0.78158 -0.344034)
(-0.562089 0.833577 -0.346695)
(-0.542125 0.783567 -0.328745)
(-0.510368 0.727226 -0.326476)
(-0.535693 0.752547 -0.340769)
(-0.547382 0.815173 -0.348593)
(-0.416805 0.938316 -0.0307466)
(-0.406159 0.934356 -0.0270306)
(-0.435894 0.966626 -0.0652416)
(-0.416002 0.937858 -0.0479232)
(-0.44528 0.962223 -0.0772775)
(-0.444222 0.94431 -0.0903229)
(-0.407155 0.939668 -0.0584617)
(-0.437534 0.952344 -0.0759711)
(-0.343659 0.872021 0.00964604)
(-0.395094 0.935583 -0.019764)
(-0.357093 0.920933 -0.0194267)
(-0.340514 0.881278 -0.00779078)
(-0.490099 0.662578 -0.268009)
(-0.505904 0.643566 -0.282798)
(-0.501378 0.638693 -0.291361)
(-0.476268 0.651892 -0.281651)
(-0.470451 0.637805 -0.278541)
(-0.502315 0.667285 -0.266113)
(-0.518099 0.734179 -0.28208)
(-0.526763 0.734552 -0.308987)
(-0.517013 0.734174 -0.300339)
(-0.468337 0.644008 -0.293103)
(-0.531916 0.735144 -0.310882)
(-0.526593 0.746205 -0.303019)
(-0.490929 0.652795 -0.299732)
(-0.514814 0.737305 -0.293945)
(-0.473333 0.643984 -0.289022)
(-0.522337 0.662236 -0.309419)
(-0.511273 0.671407 -0.30349)
(-0.53034 0.689711 -0.300355)
(-0.500863 0.666751 -0.30141)
(-0.494975 0.660044 -0.320727)
(-0.509731 0.915305 -0.236244)
(-0.522514 0.914715 -0.230906)
(-0.482366 0.916602 -0.229236)
(-0.486463 0.914066 -0.218573)
(-0.515946 0.909776 -0.248135)
(-0.516453 0.886444 -0.247013)
(-0.457857 0.893197 -0.245502)
(-0.469648 0.896175 -0.22598)
(-0.466535 0.894823 -0.227551)
(-0.444075 0.895999 -0.224432)
(-0.508329 0.929982 -0.246749)
(-0.500064 0.923911 -0.251023)
(-0.517933 0.923614 -0.257989)
(-0.445432 0.889323 -0.242592)
(-0.449308 0.91183 -0.236931)
(-0.423032 0.858333 -0.222241)
(-0.444108 0.903385 -0.226384)
(-0.479533 0.910219 -0.246926)
(-0.428126 0.896587 -0.231402)
(-0.402433 0.852871 -0.219146)
(-0.435302 0.764355 -0.187396)
(-0.438513 0.741449 -0.18673)
(-0.415666 0.827712 -0.153923)
(-0.420439 0.868731 -0.16593)
(-0.433511 0.784622 -0.181882)
(-0.437934 0.692234 -0.191611)
(-0.443704 0.760939 -0.21164)
(-0.422518 0.848803 -0.162273)
(-0.433424 0.83827 -0.183986)
(-0.455027 0.746012 -0.19974)
(-0.43038 0.841984 -0.178217)
(-0.447395 0.797571 -0.214473)
(-0.555152 0.859108 -0.324379)
(-0.548256 0.851886 -0.316933)
(-0.553382 0.837729 -0.334254)
(-0.539737 0.829514 -0.312031)
(-0.575258 0.868753 -0.329794)
(-0.552861 0.849281 -0.334138)
(-0.556501 0.838893 -0.326908)
(-0.5669 0.847548 -0.33094)
(-0.520603 0.758825 -0.311174)
(-0.499101 0.730432 -0.296074)
(-0.518148 0.781445 -0.292502)
(-0.557486 0.85078 -0.334742)
(-0.582445 0.849484 -0.331585)
(-0.500286 0.722892 -0.296218)
(-0.541057 0.807362 -0.301059)
(-0.514656 0.747787 -0.29106)
(-0.566254 0.811954 -0.324873)
(-0.404984 0.849406 -0.212688)
(-0.331173 0.799675 -0.237854)
(-0.35381 0.782094 -0.250123)
(-0.368939 0.855052 -0.194861)
(-0.389281 0.867599 -0.191997)
(-0.286855 0.836804 -0.15089)
(-0.323977 0.87745 -0.165127)
(-0.371953 0.838445 -0.217692)
(-0.292971 0.848716 -0.170048)
(-0.288738 0.80873 -0.211353)
(-0.273978 0.809605 -0.186131)
(-0.305076 0.844214 -0.161258)
(-0.239501 0.767473 -0.147019)
(-0.325442 0.850005 -0.17935)
(-0.267015 0.827056 -0.199284)
(-0.275786 0.812284 -0.188215)
(-0.235729 0.771118 -0.167586)
(-0.535157 0.745227 -0.28793)
(-0.514972 0.727453 -0.263992)
(-0.477631 0.749086 -0.244406)
(-0.533992 0.73616 -0.303162)
(-0.533573 0.734537 -0.307036)
(-0.532002 0.766632 -0.313178)
(-0.5348 0.732802 -0.298418)
(-0.514731 0.798812 -0.309146)
(-0.542843 0.798524 -0.322757)
(-0.508213 0.810964 -0.305792)
(-0.531311 0.726119 -0.311366)
(-0.538454 0.76445 -0.328382)
(-0.532972 0.771651 -0.334027)
(-0.536604 0.77612 -0.31875)
(-0.527341 0.810859 -0.31241)
(-0.253493 0.527452 -0.208765)
(-0.246249 0.528674 -0.202008)
(-0.18212 0.465931 -0.175449)
(-0.189206 0.462181 -0.181759)
(-0.255381 0.590312 -0.235307)
(-0.258436 0.547014 -0.224738)
(-0.248421 0.615855 -0.237372)
(-0.241647 0.625186 -0.239114)
(-0.176349 0.475501 -0.179835)
(-0.168289 0.463219 -0.165191)
(-0.230942 0.563269 -0.21599)
(-0.178824 0.495849 -0.176721)
(-0.211112 0.585322 -0.21632)
(-0.230998 0.547531 -0.209808)
(-0.214783 0.60557 -0.222768)
(-0.198681 0.583404 -0.209879)
(-0.184922 0.489676 -0.186997)
(-0.174628 0.489318 -0.184915)
(-0.200189 0.566676 -0.201895)
(-0.197944 0.521309 -0.204594)
(-0.195564 0.568368 -0.202431)
(-0.173664 0.515551 -0.178824)
(-0.573967 0.871171 -0.209582)
(-0.572476 0.879977 -0.214734)
(-0.593008 0.88685 -0.255709)
(-0.570604 0.870555 -0.206425)
(-0.572845 0.880474 -0.23416)
(-0.567761 0.872645 -0.23051)
(-0.589834 0.885801 -0.265664)
(-0.603955 0.888491 -0.25942)
(-0.601497 0.875834 -0.270597)
(-0.586277 0.891475 -0.259145)
(-0.572427 0.866358 -0.240399)
(-0.553276 0.851872 -0.225357)
(-0.570876 0.858766 -0.2285)
(-0.583633 0.864483 -0.23779)
(-0.568896 0.861499 -0.231978)
(-0.587445 0.87374 -0.273154)
(-0.584925 0.872059 -0.244886)
(-0.587612 0.863814 -0.245668)
(-0.576442 0.873872 -0.253241)
(-0.235444 0.396919 -0.0264087)
(-0.224589 0.383876 -0.0185776)
(-0.230055 0.384895 -0.0192538)
(-0.209322 0.358324 0.00111967)
(-0.264954 0.440533 -0.0525528)
(-0.215547 0.372422 0.00150971)
(-0.230852 0.417758 0.0103699)