/*--------------------------------*- C++ -*----------------------------------*\
| =========                 |                                                 |
| \\      /  F ield         | OpenFOAM: The Open Source CFD Toolbox           |
|  \\    /   O peration     | Version:  v1612+                                |
|   \\  /    A nd           | Web:      www.OpenFOAM.com                      |
|    \\/     M anipulation  |                                                 |
\*---------------------------------------------------------------------------*/
FoamFile
{
    version     2.0;
    format      ascii;
    class       volScalarField;
    location    "239";
    object      p;
}
// * * * * * * * * * * * * * * * * * * * * * * * * * * * * * * * * * * * * * //

dimensions      [0 2 -2 0 0 0 0];

internalField   nonuniform List<scalar> 
16938
(
3.39797
3.18376
3.28764
3.25809
3.2533
3.24721
3.25482
3.23626
3.2446
3.23789
3.24739
3.25452
3.26972
3.25046
3.25342
3.23891
3.25937
3.26479
3.30969
3.30305
3.29498
3.28843
3.26842
3.26284
3.26698
3.30494
3.30002
3.28098
3.29469
3.28652
3.28367
3.28169
3.28037
3.26932
3.28559
3.2805
3.36171
3.35979
3.35427
3.3539
3.35771
3.36397
3.3551
3.35419
3.35708
3.36498
3.36372
3.35947
3.35797
3.35913
3.36317
3.36233
3.36345
3.30115
3.29341
3.29319
3.29521
3.2822
3.28823
3.29091
3.29256
3.29941
3.30245
3.29729
3.31403
3.30091
3.28962
3.30166
3.28323
3.29933
3.28918
3.34767
3.34396
3.35261
3.35027
3.33918
3.33839
3.34282
3.34395
3.33439
3.3467
3.3385
3.33702
3.32783
3.33143
3.35657
3.35457
3.34264
3.35292
3.3633
3.35889
3.36775
3.35324
3.35748
3.3359
3.34117
3.35168
3.36282
3.34934
3.35282
3.30691
3.30885
3.30795
3.30374
3.31257
3.29139
3.28128
3.28258
3.30764
3.30211
3.29569
3.30291
3.29314
3.30163
3.28385
3.31409
3.29211
3.3041
3.31689
3.30298
3.30262
3.30346
3.30412
3.29052
3.29923
3.29397
3.31106
3.27951
3.28466
3.28091
3.29665
3.30433
3.31618
3.31256
3.31367
3.31104
3.31202
3.30644
3.3154
3.31404
3.30906
3.29933
3.31948
3.31899
3.31334
3.31395
3.31034
3.31123
3.29975
3.31308
3.30686
3.31333
3.23293
3.22712
3.24491
3.25458
3.22303
3.25753
3.24403
3.23107
3.22496
3.24867
3.26428
3.26735
3.24187
3.26718
3.26069
3.25293
3.26524
3.25638
3.32014
3.32162
3.31911
3.32152
3.315
3.31385
3.31684
3.32716
3.33022
3.32791
3.32576
3.32887
3.31652
3.31248
3.31232
3.31203
3.34499
3.34432
3.3449
3.34772
3.34275
3.33785
3.35141
3.34662
3.33467
3.34212
3.34986
3.35615
3.3451
3.35754
3.33807
3.28735
3.27997
3.25974
3.26853
3.3216
3.31257
3.27616
3.29719
3.29272
3.31768
3.30291
3.27272
3.27375
3.27248
3.30281
3.30642
3.29171
3.29923
3.2953
3.27395
3.26619
3.28131
3.28195
3.26344
3.26437
3.26729
3.27948
3.27953
3.26191
3.2631
3.21349
3.20037
3.21525
3.2083
3.21325
3.20123
3.20014
3.19353
3.20294
3.20115
3.19496
3.217
3.22222
3.20281
3.2022
3.20798
3.21899
3.21605
3.34869
3.35582
3.34528
3.34718
3.35111
3.35649
3.34735
3.36181
3.35797
3.36277
3.34291
3.33532
3.34504
3.34407
3.35954
3.35269
3.35566
3.3524
3.35579
3.31783
3.32336
3.33582
3.33497
3.32276
3.32596
3.32802
3.33927
3.34135
3.33183
3.33139
3.32868
3.33337
3.37473
3.3783
3.36307
3.36804
3.3626
3.35062
3.34892
3.34229
3.34543
3.3672
3.37203
3.37818
3.36383
3.37268
3.35024
3.3565
3.34206
3.35573
3.3484
3.32675
3.32322
3.33077
3.33434
3.32906
3.34427
3.32007
3.32223
3.3307
3.33167
3.32823
3.34165
3.35211
3.32976
3.33157
3.33151
3.3365
3.34053
3.3893
3.39288
3.38365
3.38432
3.38332
3.3986
3.38627
3.38335
3.39315
3.37583
3.37372
3.39277
3.38878
3.3692
3.37596
3.37471
3.36878
3.36526
3.37064
3.36452
3.36364
3.36211
3.30258
3.3322
3.32735
3.33988
3.31582
3.3261
3.34177
3.32653
3.33037
3.31279
3.31091
3.3283
3.34278
3.33014
3.28538
3.28538
3.28944
3.28367
3.28427
3.27865
3.28111
3.28896
3.28296
3.27762
3.29183
3.27685
3.27925
3.28774
3.29866
3.28934
3.30054
3.27851
3.27476
3.25683
3.24444
3.28208
3.27154
3.2582
3.23921
3.24365
3.27894
3.28653
3.26462
3.24965
3.27201
3.26468
3.2367
3.24997
3.26965
3.24821
3.23034
3.23348
3.22374
3.22187
3.22222
3.22593
3.233
3.22488
3.23447
3.23998
3.23424
3.23813
3.23532
3.23798
3.22023
3.23831
3.22721
3.23131
3.19319
3.19011
3.19614
3.18146
3.19201
3.20413
3.20681
3.2088
3.22087
3.21102
3.19686
3.20262
3.20107
3.19904
3.19832
3.24986
3.23842
3.26102
3.25822
3.27585
3.28474
3.26432
3.2324
3.23666
3.27062
3.25277
3.2521
3.24149
3.2593
3.27445
3.2499
3.25331
3.25743
3.33293
3.3326
3.32667
3.32338
3.32165
3.32053
3.34006
3.32065
3.31397
3.32252
3.32712
3.3383
3.34102
3.34513
3.33066
3.32826
3.33983
3.34477
3.33077
3.33444
3.33136
3.3337
3.33798
3.33179
3.32905
3.33046
3.3363
3.32886
3.31946
3.32022
3.32567
3.32187
3.31931
3.32277
3.31805
3.33284
3.33751
3.32376
3.33608
3.32777
3.32002
3.3209
3.31995
3.32285
3.31689
3.32416
3.3154
3.31306
3.29875
3.32154
3.30692
3.32308
3.31928
3.31086
3.32131
3.31103
3.31672
3.29675
3.3023
3.31011
3.31092
3.30955
3.30962
3.31724
3.31662
3.31958
3.30122
3.29746
3.3124
3.31069
3.30607
3.30298
3.32758
3.32511
3.34417
3.34159
3.32864
3.33713
3.32867
3.34224
3.33836
3.32824
3.3268
3.32501
3.33502
3.33345
3.32975
3.33927
3.33279
3.34747
3.32646
3.34095
3.33742
3.33767
3.19704
3.20138
3.19533
3.19206
3.1869
3.18371
3.19875
3.20553
3.20062
3.20064
3.19804
3.21022
3.20389
3.19396
3.20829
3.20415
3.21126
3.20005
3.32789
3.34164
3.33424
3.3353
3.33986
3.33444
3.31769
3.32927
3.34402
3.34198
3.32974
3.33002
3.32113
3.31725
3.34525
3.33522
3.33719
3.33839
3.27653
3.26886
3.28388
3.27421
3.28206
3.27019
3.26818
3.26876
3.26423
3.25984
3.26076
3.27675
3.26313
3.26306
3.25998
3.32525
3.32559
3.32781
3.32143
3.32281
3.32
3.32656
3.32221
3.32443
3.32463
3.31852
3.29069
3.29201
3.30363
3.29874
3.29844
3.2913
3.28961
3.28897
3.29806
3.29567
3.29703
3.28369
3.27646
3.26661
3.26275
3.28214
3.19631
3.19028
3.20801
3.20393
3.21679
3.19129
3.18791
3.18505
3.20245
3.21283
3.21001
3.19232
3.20385
3.19341
3.19819
3.29926
3.31504
3.29544
3.29616
3.29681
3.31405
3.30905
3.30818
3.29951
3.3013
3.38131
3.38669
3.38199
3.291
3.28822
3.31332
3.31127
3.28772
3.29317
3.312
3.31341
3.30988
3.32486
3.32668
3.30505
3.3166
3.33129
3.30845
3.31848
3.27919
3.28126
3.30769
3.27347
3.28298
3.26949
3.27683
3.29133
3.26197
3.25909
3.26174
3.27931
3.27413
3.26213
3.26434
3.28943
3.30421
3.26957
3.28519
3.28011
3.26916
3.29947
3.30537
3.29438
3.30751
3.27343
3.27779
3.27552
3.38008
3.38176
3.38458
3.38231
3.38186
3.38327
3.38479
3.38367
3.38534
3.38494
3.23605
3.22059
3.234
3.2382
3.23383
3.24125
3.22734
3.23605
3.25486
3.25999
3.24561
3.24776
3.24082
3.22555
3.23404
3.25562
3.25576
3.23082
3.24136
3.24106
3.23949
3.36707
3.37303
3.36358
3.36428
3.35631
3.36413
3.35991
3.36743
3.35041
3.34514
3.358
3.35986
3.34929
3.3521
3.34789
3.35958
3.35775
3.35799
3.36591
3.36433
3.37031
3.36032
3.3622
3.36446
3.35206
3.36303
3.36139
3.36104
3.36389
3.36374
3.3635
3.35656
3.36002
3.27147
3.27967
3.26448
3.25806
3.26776
3.28157
3.26694
3.24111
3.25449
3.25028
3.24348
3.24238
3.23674
3.26101
3.24096
3.24196
3.21071
3.21218
3.23129
3.23559
3.23886
3.21763
3.22017
3.23017
3.23006
3.21078
3.22569
3.21828
3.21133
3.21666
3.21761
3.26401
3.26998
3.27675
3.26853
3.26215
3.25073
3.25054
3.26944
3.27396
3.28251
3.27333
3.26398
3.27917
3.25624
3.27536
3.25859
3.25438
3.25965
3.25142
3.2409
3.25035
3.25934
3.24417
3.25425
3.27378
3.26616
3.28151
3.27756
3.26804
3.26016
3.27597
3.27035
3.2845
3.18327
3.18231
3.19293
3.18866
3.1763
3.18319
3.18782
3.16281
3.16884
3.32216
3.3163
3.3062
3.30904
3.31194
3.31399
3.30452
3.29834
3.3069
3.30107
3.30207
3.31178
3.31846
3.31361
3.31589
3.3048
3.31951
3.30046
3.30922
3.30013
3.29404
3.29956
3.36622
3.36998
3.34924
3.3542
3.3596
3.34478
3.3372
3.36022
3.36052
3.36317
3.3474
3.3566
3.35068
3.34615
3.34232
3.35823
3.36458
3.35627
3.35539
3.34684
3.24438
3.22806
3.22176
3.2331
3.23767
3.23416
3.22241
3.24991
3.23918
3.24908
3.21147
3.22264
3.23413
3.24162
3.23087
3.25145
3.25285
3.29008
3.28964
3.27
3.26013
3.27361
3.2602
3.27805
3.27364
3.28296
3.27584
3.28039
3.28472
3.27956
3.27135
3.26002
3.25832
3.27452
3.27278
3.26827
3.31761
3.3172
3.31749
3.31501
3.32107
3.32058
3.31997
3.318
3.31896
3.29674
3.28024
3.27414
3.2952
3.2667
3.2897
3.30224
3.29874
3.30867
3.28206
3.29534
3.38409
3.38847
3.39262
3.39445
3.38461
3.38895
3.25633
3.25485
3.26217
3.27415
3.27872
3.28593
3.26367
3.29874
3.28872
3.25609
3.27867
3.26988
3.28988
3.26429
3.27864
3.24085
3.25026
3.241
3.24254
3.24798
3.24507
3.26413
3.25872
3.26212
3.26584
3.24251
3.23205
3.25139
3.24375
3.21716
3.22183
3.23905
3.21813
3.21566
3.23972
3.24146
3.20518
3.21948
3.23675
3.21038
3.2159
3.30336
3.29983
3.29802
3.29691
3.31299
3.33376
3.32598
3.33505
3.30339
3.32653
3.32776
3.3191
3.32576
3.31941
3.31217
3.32296
3.32701
3.31775
3.31816
3.32302
3.30682
3.32887
3.32304
3.31416
3.32725
3.33513
3.31033
3.31279
3.31883
3.32566
3.3237
3.31964
3.3394
3.34876
3.31764
3.31494
3.34224
3.33789
3.34446
3.32768
3.32745
3.32771
3.36661
3.36461
3.37003
3.36443
3.37207
3.37582
3.3554
3.35569
3.35624
3.35819
3.36898
3.38088
3.37334
3.3795
3.38363
3.36951
3.37174
3.36814
3.25601
3.25748
3.26658
3.25007
3.24925
3.27703
3.28686
3.28301
3.26533
3.27352
3.28916
3.27414
3.28265
3.28571
3.28988
3.25968
3.38171
3.38501
3.3718
3.36204
3.37628
3.36666
3.35672
3.36178
3.39144
3.38192
3.37828
3.36779
3.36875
3.35969
3.35822
3.38331
3.36725
3.36712
3.37107
3.34291
3.34507
3.35498
3.34843
3.33564
3.34642
3.34255
3.34693
3.33802
3.33886
3.33462
3.33564
3.34992
3.33951
3.35006
3.33995
3.32976
3.34704
3.35242
3.32971
3.33105
3.33106
3.25652
3.25367
3.27515
3.28346
3.28691
3.27762
3.26793
3.25809
3.25933
3.28327
3.28839
3.25509
3.27712
3.2592
3.25546
3.24378
3.27824
3.27859
3.27403
3.2616
3.25199
3.25392
3.26834
3.27268
3.27149
3.27983
3.25642
3.26013
3.2729
3.25554
3.27782
3.26581
3.24285
3.23115
3.25081
3.2364
3.24082
3.23773
3.24981
3.25131
3.2388
3.24264
3.23661
3.23892
3.23377
3.24517
3.2399
3.25923
3.25632
3.25702
3.24652
3.23172
3.2235
3.21737
3.21795
3.21239
3.24047
3.2364
3.22209
3.25963
3.25713
3.23288
3.2424
3.25119
3.16128
3.16957
3.18152
3.17381
3.17686
3.17327
3.17467
3.19127
3.18219
3.18219
3.17185
3.17672
3.17855
3.18289
3.20139
3.19685
3.17728
3.18881
3.20033
3.20414
3.1885
3.1849
3.36197
3.35863
3.36302
3.36419
3.36887
3.36466
3.37087
3.34913
3.34899
3.36164
3.33027
3.33526
3.36101
3.35311
3.34484
3.34915
3.34411
3.34009
3.33432
3.358
3.30882
3.29916
3.3012
3.28647
3.29034
3.27714
3.27785
3.29261
3.29586
3.30877
3.29604
3.28597
3.28227
3.27453
3.29176
3.27132
3.27906
3.28122
3.27648
3.24281
3.25892
3.25102
3.24816
3.24425
3.25259
3.26243
3.26285
3.2747
3.26375
3.24858
3.27214
3.27968
3.28276
3.27609
3.26932
3.26153
3.25967
3.27314
3.2781
3.27693
3.28217
3.32842
3.33078
3.33753
3.33506
3.3311
3.33197
3.33759
3.33692
3.33692
3.34143
3.32938
3.32845
3.32667
3.33007
3.33555
3.33174
3.32229
3.32657
3.32991
3.32458
3.33351
3.33288
3.28663
3.28117
3.29193
3.27954
3.26179
3.26676
3.28562
3.28066
3.28563
3.28164
3.27253
3.26499
3.26969
3.29598
3.29551
3.28952
3.27606
3.28828
3.26447
3.33435
3.33492
3.33155
3.33344
3.32744
3.32343
3.32071
3.31882
3.31206
3.30334
3.31514
3.32202
3.32255
3.33438
3.32902
3.33504
3.32212
3.32583
3.31446
3.30883
3.3182
3.33115
3.32592
3.32666
3.33057
3.34325
3.34401
3.32035
3.32236
3.33513
3.33274
3.24944
3.24423
3.14697
3.16901
3.16058
3.33313
3.33334
3.34597
3.34287
3.33994
3.3346
3.33394
3.28398
3.29265
3.2973
3.29114
3.22896
3.22821
3.1956
3.19232
3.30742
3.31237
3.31984
3.30258
3.33971
3.34352
3.33895
3.1778
3.17562
3.19092
3.19696
3.18811
3.18768
3.35175
3.35459
3.3521
3.21389
3.20576
3.20589
3.20777
3.19965
3.28789
3.28577
3.27309
3.19002
3.18568
3.18673
3.19492
3.25607
3.25015
3.23697
3.35005
3.3437
3.34045
3.21027
3.20175
3.19415
3.19742
3.19672
3.20036
3.18701
3.19345
3.35778
3.35699
3.3555
3.35477
3.35756
3.23163
3.2238
3.31498
3.31301
3.31823
3.31372
3.30937
3.29447
3.24308
3.21881
3.23112
3.23786
3.37106
3.36896
3.21351
3.21404
3.1933
3.2068
3.20533
3.36757
3.36485
3.36958
3.36307
3.36669
3.35774
3.32153
3.32309
3.31057
3.35094
3.35024
3.35538
3.35672
3.20692
3.2115
3.37748
3.37597
3.38992
3.38835
3.27657
3.27763
3.36474
3.36289
3.2639
3.27332
3.28572
3.37634
3.37524
3.2343
3.24397
3.31811
3.31718
3.22572
3.23674
3.39258
3.39684
3.39978
3.40226
3.4049
3.36803
3.36657
3.30579
3.30306
3.29423
3.24178
3.24077
3.2297
3.39663
3.38899
3.38435
3.28883
3.27732
3.27689
3.26573
3.38154
3.3837
3.38208
3.38569
3.39113
3.38333
3.40516
3.35131
3.34572
3.40694
3.41343
3.42729
3.42831
3.42662
3.42715
3.41963
3.42682
3.42575
3.42088
3.37229
3.37775
3.37719
3.26046
3.30775
3.29942
3.29531
3.29673
3.28764
3.29434
3.38814
3.39952
3.40023
3.40369
3.40114
3.40189
3.4091
3.41288
3.41206
3.41696
3.40356
3.41553
3.40132
3.41524
3.40554
3.39776
3.40283
3.40683
3.4002
3.39945
3.42144
3.4174
3.41283
3.40949
3.4265
3.42228
3.41847
3.41684
3.40969
3.40691
3.40826
3.39638
3.40229
3.39678
3.39667
3.41063
3.41042
3.39969
3.39757
3.4122
3.4049
3.22813
3.23215
3.36895
3.364
3.36628
3.36532
3.36563
3.36423
3.35678
3.35894
3.36782
3.36781
3.37127
3.32662
3.33819
3.31885
3.32273
3.32041
3.33863
3.34274
3.32991
3.33745
3.34236
3.34622
3.33761
3.33102
3.33003
3.31209
3.32226
3.33293
3.34466
3.34005
3.3345
3.34667
3.31327
3.32555
3.32996
3.38174
3.38864
3.39791
3.39349
3.35998
3.36156
3.37104
3.37179
3.37148
3.3759
3.38903
3.37757
3.38781
3.37564
3.40861
3.40834
3.40803
3.40234
3.38281
3.38405
3.38
3.38536
3.38555
3.38338
3.38639
3.38541
3.38341
3.37311
3.37702
3.37488
3.37061
3.37095
3.37407
3.37261
3.37818
3.38031
3.23151
3.2256
3.28722
3.27383
3.27391
3.37885
3.38008
3.38305
3.38757
3.3973
3.38865
3.39039
3.3901
3.37962
3.38294
3.38114
3.38809
3.38373
3.27817
3.27766
3.26625
3.25324
3.25405
3.23721
3.25003
3.23798
3.22333
3.24625
3.24412
3.21724
3.23368
3.2286
3.23279
3.26634
3.25527
3.24931
3.23607
3.24351
3.26243
3.2495
3.23668
3.23901
3.22133
3.22458
3.22878
3.23242
3.22785
3.24215
3.22662
3.23679
3.34612
3.34238
3.32348
3.30802
3.27929
3.29272
3.28401
3.28327
3.31143
3.30322
3.29963
3.31151
3.28986
3.30538
3.29475
3.28919
3.31322
3.32344
3.31795
3.3692
3.3735
3.37363
3.34973
3.357
3.35775
3.36179
3.36385
3.36679
3.37313
3.36751
3.36905
3.36956
3.35441
3.35598
3.36256
3.36203
3.36061
3.36445
3.40318
3.40306
3.40477
3.35658
3.36338
3.36602
3.39966
3.40692
3.3926
3.40677
3.39839
3.3904
3.38595
3.37358
3.37677
3.39768
3.39378
3.40814
3.41303
3.4206
3.40931
3.39722
3.39979
3.3967
3.3819
3.4062
3.39699
3.38518
3.3997
3.37945
3.38801
3.40544
3.39965
3.39068
3.37733
3.38909
3.38691
3.38637
3.39261
3.39743
3.39353
3.39956
3.3831
3.3936
3.38115
3.39868
3.40577
3.39212
3.38374
3.40135
3.40317
3.40099
3.39304
3.38034
3.39261
3.40109
3.40193
3.38581
3.38553
3.40307
3.39392
3.38896
3.27692
3.27565
3.275
3.26366
3.27704
3.30048
3.20707
3.2153
3.22672
3.22156
3.23553
3.21799
3.31272
3.31495
3.27413
3.28053
3.27763
3.29194
3.29854
3.28986
3.28189
3.30824
3.30026
3.30688
3.3369
3.32937
3.31965
3.31929
3.3269
3.32591
3.33798
3.32414
3.32897
3.32688
3.32474
3.33887
3.33811
3.21573
3.22698
3.22413
3.23901
3.24587
3.23133
3.23498
3.25729
3.26032
3.26329
3.25224
3.25433
3.26869
3.37423
3.3708
3.37778
3.36583
3.36507
3.3757
3.3687
3.36925
3.38383
3.38045
3.37235
3.3758
3.37269
3.38771
3.38591
3.29786
3.31095
3.29884
3.25852
3.31845
3.33747
3.32164
3.30669
3.33533
3.34201
3.35136
3.35102
3.34412
3.36134
3.36706
3.36452
3.36081
3.36278
3.36736
3.36589
3.36267
3.3579
3.35658
3.363
3.36039
3.36102
3.35859
3.35565
3.36221
3.36194
3.35374
3.35407
3.2426
3.24742
3.2349
3.25364
3.27564
3.27529
3.26036
3.26258
3.25645
3.26365
3.25434
3.25648
3.26778
3.26707
3.26409
3.27097
3.28896
3.28922
3.2821
3.28435
3.28526
3.27773
3.39158
3.39394
3.38861
3.39488
3.37918
3.3836
3.38028
3.37727
3.38219
3.37626
3.38736
3.38619
3.38704
3.38849
3.38684
3.37842
3.37512
3.376
3.35564
3.35092
3.34527
3.36996
3.37477
3.3701
3.35483
3.37055
3.36789
3.36078
3.36381
3.35686
3.3564
3.37011
3.39092
3.40234
3.39457
3.38596
3.3897
3.39244
3.38208
3.21022
3.21925
3.21313
3.21683
3.20708
3.21822
3.20414
3.19846
3.21578
3.34118
3.34568
3.34169
3.35661
3.36024
3.35443
3.3543
3.33959
3.34543
3.34941
3.34599
3.34654
3.35644
3.35166
3.34951
3.34862
3.34804
3.3528
3.35015
3.28639
3.28458
3.29544
3.30872
3.29801
3.31427
3.31054
3.3081
3.29857
3.32457
3.33249
3.31598
3.31691
3.32459
3.31939
3.33473
3.33477
3.31275
3.31563
3.31387
3.30264
3.3022
3.30264
3.30111
3.31453
3.33003
3.33626
3.33772
3.32868
3.31936
3.37298
3.37481
3.37786
3.37789
3.37413
3.36416
3.38307
3.37258
3.30999
3.31741
3.31939
3.33143
3.35223
3.3514
3.35352
3.36091
3.356
3.34787
3.3472
3.3489
3.36704
3.36876
3.35725
3.3607
3.36747
3.35906
3.37035
3.36833
3.37673
3.37479
3.36977
3.37401
3.37124
3.36414
3.37302
3.35529
3.36227
3.36455
3.36205
3.20333
3.20869
3.20284
3.19266
3.20973
3.19245
3.21423
3.19775
3.21123
3.20281
3.20917
3.23671
3.22428
3.21014
3.21773
3.21526
3.21746
3.22053
3.21531
3.20783
3.20874
3.20922
3.21454
3.21429
3.21585
3.22012
3.21857
3.21377
3.21484
3.19875
3.21137
3.20316
3.21402
3.21073
3.21876
3.19764
3.20828
3.21441
3.22112
3.22092
3.20936
3.21499
3.22192
3.21633
3.21242
3.21469
3.20826
3.21849
3.24741
3.24719
3.23367
3.23284
3.22874
3.22291
3.22289
3.24898
3.24914
3.22193
3.22154
3.22973
3.35971
3.36187
3.37094
3.3713
3.36123
3.37568
3.36948
3.3663
3.35278
3.35974
3.35796
3.35175
3.36701
3.35732
3.36355
3.35467
3.35755
3.36864
3.37662
3.37374
3.3668
3.37068
3.25495
3.26337
3.25706
3.27145
3.28787
3.27278
3.29723
3.21766
3.22304
3.23124
3.2331
3.22982
3.23989
3.27103
3.27317
3.25776
3.28594
3.28897
3.3344
3.33447
3.32789
3.32787
3.33386
3.33635
3.32699
3.3301
3.32322
3.32221
3.31227
3.31148
3.30723
3.3227
3.31767
3.32446
3.3239
3.32457
3.32357
3.3171
3.31482
3.31611
3.3182
3.32375
3.32117
3.31692
3.31206
3.31288
3.32218
3.31823
3.25326
3.25171
3.26518
3.30274
3.29834
3.31307
3.30962
3.28264
3.27672
3.29386
3.28389
3.29724
3.29873
3.30256
3.29075
3.33503
3.33036
3.34007
3.34655
3.34179
3.35052
3.34849
3.33482
3.3361
3.23009
3.21704
3.22417
3.22556
3.22351
3.23111
3.22742
3.23162
3.22764
3.22586
3.22939
3.24123
3.24347
3.23539
3.24449
3.2421
3.22411
3.24013
3.23405
3.2347
3.22738
3.35341
3.35304
3.35728
3.34424
3.3522
3.35268
3.34635
3.36216
3.3452
3.36046
3.35572
3.35382
3.36603
3.35365
3.34844
3.34326
3.35226
3.35209
3.34541
3.33923
3.35356
3.34828
3.34864
3.34213
3.3457
3.35123
3.34696
3.36096
3.35432
3.33913
3.34178
3.34056
3.3339
3.3326
3.34881
3.33892
3.35012
3.34457
3.34562
3.33423
3.34217
3.35341
3.36112
3.35476
3.35559
3.34084
3.36245
3.3535
3.36149
3.35346
3.34501
3.36012
3.35311
3.19064
3.19199
3.19043
3.20316
3.20482
3.20041
3.20437
3.19428
3.19612
3.20206
3.20965
3.20694
3.20974
3.19915
3.20228
3.20268
3.19999
3.20845
3.20696
3.20499
3.20279
3.21385
3.21047
3.2022
3.18945
3.18508
3.18583
3.19545
3.21451
3.22533
3.21805
3.20429
3.23025
3.24106
3.35214
3.34957
3.34273
3.34754
3.32885
3.32417
3.33851
3.32718
3.33879
3.34101
3.33061
3.32541
3.32477
3.31539
3.31382
3.3348
3.32662
3.32555
3.33266
3.33109
3.20242
3.19599
3.20969
3.20858
3.23216
3.22501
3.30153
3.3026
3.29112
3.23456
3.23729
3.22921
3.23616
3.21699
3.2137
3.208
3.28221
3.2597
3.25628
3.2723
3.26312
3.2558
3.25014
3.17496
3.19323
3.19017
3.1897
3.18112
3.18497
3.18045
3.24314
3.255
3.25513
3.27722
3.2776
3.27044
3.26839
3.32269
3.31922
3.31146
3.31312
3.3023
3.27658
3.28295
3.28022
3.27815
3.27615
3.29762
3.30476
3.27676
3.28847
3.27785
3.294
3.27962
3.30321
3.29798
3.29756
3.31078
3.2936
3.29399
3.29652
3.28899
3.19315
3.19238
3.19927
3.20464
3.19422
3.19913
3.20988
3.20142
3.19868
3.20221
3.19496
3.19559
3.19316
3.19827
3.19677
3.19897
3.20125
3.20776
3.2105
3.20636
3.20819
3.2205
3.20736
3.21965
3.21872
3.22245
3.2222
3.35157
3.34847
3.34354
3.35448
3.36118
3.35513
3.35167
3.34909
3.18558
3.18236
3.17444
3.18773
3.16935
3.18312
3.19691
3.20738
3.19961
3.20541
3.21476
3.19443
3.1872
3.33938
3.33457
3.34524
3.34038
3.32274
3.32954
3.33215
3.33851
3.33247
3.33863
3.33562
3.35607
3.34841
3.34785
3.35148
3.34461
3.34292
3.33662
3.34258
3.33846
3.31743
3.31197
3.27886
3.29291
3.29426
3.30178
3.27619
3.2609
3.28704
3.29191
3.28588
3.27857
3.27376
3.29427
3.29012
3.29377
3.19792
3.17813
3.18725
3.18596
3.18748
3.19464
3.19077
3.19549
3.1918
3.19632
3.19021
3.19416
3.18802
3.19394
3.19596
3.19642
3.19793
3.25049
3.20849
3.22306
3.19998
3.20583
3.20535
3.22542
3.2225
3.20552
3.20337
3.20555
3.30831
3.31735
3.30606
3.31511
3.30933
3.31644
3.305
3.28912
3.29932
3.3024
3.29813
3.29501
3.29957
3.30796
3.30582
3.29728
3.2984
3.285
3.2824
3.34743
3.34718
3.33731
3.3427
3.33323
3.33251
3.32169
3.33891
3.32957
3.34747
3.33598
3.34002
3.34768
3.3373
3.34025
3.32848
3.34535
3.35183
3.34108
3.32889
3.32793
3.33877
3.3343
3.34399
3.33676
3.33374
3.33877
3.16535
3.14544
3.3463
3.33868
3.34889
3.33864
3.33505
3.33699
3.344
3.33385
3.33274
3.34282
3.33912
3.33449
3.34478
3.33575
3.33821
3.33445
3.33108
3.32219
3.32542
3.3223
3.31712
3.31969
3.33252
3.32873
3.18291
3.17508
3.17469
3.27199
3.25547
3.2526
3.20977
3.21787
3.23432
3.21743
3.21681
3.22512
3.2317
3.28306
3.29233
3.29575
3.30516
3.30192
3.18687
3.1829
3.1796
3.18794
3.18434
3.33534
3.3443
3.33911
3.33513
3.33393
3.33554
3.3495
3.34213
3.34122
3.33594
3.34756
3.34436
3.3382
3.34717
3.34249
3.33659
3.33365
3.34028
3.34427
3.33769
3.32926
3.32583
3.3371
3.33092
3.31564
3.31319
3.31483
3.32252
3.32014
3.30603
3.3006
3.31186
3.30334
3.22424
3.23813
3.24278
3.22889
3.26523
3.26853
3.26873
3.25903
3.2524
3.25595
3.26185
3.33479
3.32161
3.32855
3.31654
3.32873
3.32548
3.3208
3.32189
3.34374
3.35144
3.33868
3.33892
3.34105
3.34617
3.33071
3.34336
3.33658
3.3322
3.33832
3.35111
3.34627
3.33142
3.33393
3.33413
3.33388
3.3293
3.34271
3.33818
3.34724
3.34305
3.33788
3.34207
3.34276
3.3322
3.33781
3.32731
3.32454
3.33039
3.32816
3.33833
3.32854
3.33376
3.33867
3.33409
3.32721
3.33546
3.33163
3.33517
3.32812
3.32743
3.32285
3.33041
3.32933
3.24782
3.25949
3.2309
3.22638
3.22287
3.23127
3.2454
3.23611
3.22365
3.21915
3.2301
3.25062
3.18627
3.17938
3.18505
3.18164
3.18893
3.18056
3.17324
3.1727
3.18463
3.18249
3.19141
3.17095
3.17766
3.17521
3.17979
3.17614
3.16711
3.17133
3.16801
3.17831
3.34551
3.34225
3.35034
3.34504
3.34812
3.3518
3.34645
3.35787
3.35034
3.3498
3.33957
3.34507
3.20278
3.20457
3.20761
3.20545
3.21001
3.20016
3.20392
3.22484
3.22356
3.22077
3.22766
3.21584
3.22119
3.32251
3.31944
3.32441
3.32287
3.31161
3.30969
3.31538
3.32139
3.32364
3.26802
3.30416
3.3035
3.30392
3.30686
3.29531
3.28321
3.29688
3.28564
3.27985
3.26595
3.29846
3.28994
3.30085
3.29368
3.30877
3.30264
3.30774
3.29504
3.31032
3.31344
3.31878
3.31426
3.30488
3.31238
3.31746
3.30541
3.32191
3.32756
3.30497
3.32128
3.31085
3.35828
3.34805
3.34004
3.3546
3.34457
3.34059
3.3504
3.33961
3.35071
3.34338
3.34753
3.33554
3.24541
3.23349
3.2249
3.23338
3.2346
3.24327
3.24641
3.23944
3.234
3.22458
3.22444
3.22718
3.22312
3.33722
3.34197
3.341
3.3453
3.35588
3.36601
3.36965
3.35829
3.36958
3.35507
3.33615
3.3303
3.3341
3.34245
3.34508
3.3369
3.3448
3.34038
3.34329
3.3432
3.35705
3.3523
3.36228
3.3491
3.34837
3.3477
3.34208
3.34375
3.34041
3.35195
3.34832
3.23483
3.23532
3.239
3.23011
3.24119
3.24648
3.25032
3.25358
3.31006
3.31359
3.30714
3.29804
3.298
3.31445
3.30417
3.3242
3.31932
3.32047
3.26808
3.25422
3.2786
3.25756
3.28142
3.27755
3.27857
3.27999
3.29069
3.28672
3.28693
3.29595
3.24519
3.26458
3.25923
3.25071
3.24847
3.25044
3.24382
3.24643
3.25949
3.25983
3.26098
3.26313
3.29171
3.30249
3.29932
3.27248
3.27796
3.29295
3.30535
3.3059
3.30918
3.28442
3.27505
3.27416
3.28445
3.29115
3.28228
3.29014
3.28296
3.23194
3.24656
3.2156
3.22475
3.22422
3.21519
3.22331
3.21487
3.22584
3.25014
3.24731
3.24655
3.25096
3.26239
3.24917
3.36438
3.36659
3.358
3.36353
3.37162
3.36885
3.36692
3.3589
3.36999
3.35349
3.35702
3.36785
3.35479
3.36231
3.35437
3.37375
3.35999
3.34069
3.33579
3.33238
3.32579
3.33831
3.33451
3.34072
3.32428
3.32023
3.37653
3.36549
3.38896
3.38593
3.37616
3.38931
3.38038
3.33598
3.33514
3.33571
3.33479
3.34426
3.34498
3.34472
3.34712
3.34306
3.32794
3.33269
3.33559
3.3351
3.33039
3.32815
3.31984
3.32441
3.32917
3.32673
3.3314
3.33267
3.33113
3.32864
3.33875
3.33804
3.32083
3.32688
3.32669
3.33012
3.32449
3.34287
3.34902
3.34404
3.34727
3.34204
3.34759
3.34399
3.33971
3.34001
3.33443
3.34176
3.33997
3.36797
3.36053
3.35574
3.35082
3.3597
3.35313
3.3469
3.34486
3.35468
3.35053
3.34834
3.35481
3.35307
3.35581
3.35835
3.35125
3.34156
3.34684
3.3429
3.34418
3.33254
3.33791
3.34069
3.33731
3.33155
3.33554
3.21986
3.21558
3.21652
3.21455
3.21315
3.22296
3.22431
3.22569
3.2224
3.23094
3.22968
3.22528
3.21876
3.23253
3.29456
3.31838
3.32378
3.32941
3.30651
3.33373
3.34102
3.30039
3.30927
3.31294
3.37214
3.37003
3.38031
3.39366
3.38922
3.38067
3.38684
3.38274
3.38989
3.39803
3.3989
3.3867
3.39356
3.37953
3.27663
3.28511
3.27824
3.27536
3.28173
3.29739
3.28236
3.24903
3.24491
3.24095
3.25019
3.24677
3.25074
3.24586
3.24669
3.25858
3.26879
3.26169
3.26397
3.26439
3.269
3.23927
3.24044
3.24213
3.22973
3.25171
3.25025
3.24377
3.24484
3.25841
3.35924
3.36521
3.36529
3.3622
3.35436
3.36446
3.36154
3.36448
3.36798
3.36837
3.3321
3.31858
3.30359
3.31798
3.31203
3.29399
3.29397
3.30931
3.24823
3.26148
3.23664
3.24657
3.23515
3.23297
3.23551
3.23278
3.23873
3.26871
3.27397
3.27508
3.27784
3.27412
3.27387
3.25954
3.26526
3.28226
3.28001
3.26145
3.26512
3.22487
3.22615
3.2136
3.21171
3.20855
3.22039
3.32592
3.3197
3.32032
3.30984
3.30612
3.30952
3.30483
3.30621
3.29825
3.28336
3.30028
3.29778
3.39982
3.40424
3.40118
3.39549
3.37956
3.38656
3.38511
3.39188
3.38862
3.37738
3.3801
3.39083
3.38174
3.39269
3.37888
3.37789
3.38569
3.37672
3.39302
3.38357
3.37934
3.37476
3.39825
3.39437
3.37913
3.39573
3.38945
3.38805
3.37925
3.39167
3.38072
3.38984
3.38212
3.38866
3.38117
3.36659
3.37857
3.36198
3.36788
3.38789
3.38694
3.36858
3.37494
3.38065
3.41259
3.40782
3.38788
3.39178
3.39713
3.41062
3.39895
3.34049
3.34457
3.34568
3.3531
3.34596
3.35208
3.35204
3.35134
3.35219
3.35159
3.34889
3.372
3.37731
3.37331
3.37346
3.36956
3.36839
3.37038
3.37254
3.37215
3.36529
3.3676
3.37189
3.37356
3.37121
3.36674
3.36225
3.36385
3.36698
3.36669
3.33402
3.33507
3.34449
3.2508
3.25356
3.22847
3.23736
3.23938
3.23903
3.23665
3.23786
3.25065
3.22963
3.23291
3.22931
3.22923
3.23247
3.22914
3.21586
3.2401
3.24151
3.23713
3.22227
3.22843
3.22555
3.23376
3.24142
3.23478
3.24134
3.25341
3.2428
3.23634
3.22406
3.23857
3.24228
3.24692
3.2248
3.22184
3.21836
3.22922
3.221
3.22395
3.24112
3.23416
3.28311
3.27905
3.26486
3.25847
3.26869
3.26438
3.27879
3.27929
3.27157
3.28495
3.29647
3.27676
3.27724
3.2884
3.29852
3.28772
3.27321
3.28392
3.288
3.28945
3.29045
3.37895
3.38015
3.37437
3.38218
3.37008
3.38933
3.38377
3.38298
3.3789
3.38813
3.38122
3.37537
3.37437
3.3938
3.38949
3.38956
3.38898
3.38973
3.37851
3.3904
3.38164
3.37339
3.38333
3.38051
3.37869
3.37924
3.37707
3.38319
3.38048
3.36775
3.36812
3.37228
3.37257
3.37168
3.37946
3.37538
3.37258
3.34048
3.34877
3.33899
3.33201
3.32265
3.25343
3.24301
3.24831
3.24418
3.26338
3.42038
3.41758
3.43157
3.41652
3.40536
3.40366
3.41932
3.39161
3.41681
3.39481
3.40362
3.40014
3.36497
3.37077
3.32915
3.33557
3.35471
3.34365
3.34231
3.34904
3.33373
3.36629
3.35382
3.35129
3.37021
3.3717
3.35635
3.34527
3.33606
3.36375
3.37021
3.34858
3.34752
3.36082
3.28973
3.30856
3.30017
3.30302
3.29622
3.31179
3.32129
3.30733
3.31046
3.30843
3.29278
3.30569
3.32448
3.31979
3.34526
3.33635
3.32788
3.36085
3.34918
3.3555
3.36195
3.36609
3.35774
3.35815
3.41062
3.41732
3.41654
3.41071
3.41087
3.40552
3.40335
3.40487
3.39946
3.40628
3.40083
3.41427
3.40994
3.38846
3.4078
3.40326
3.40652
3.39394
3.40248
3.39218
3.38492
3.39417
3.38633
3.3838
3.39377
3.38857
3.40084
3.39917
3.39546
3.39366
3.38944
3.39776
3.3916
3.39001
3.38771
3.38426
3.38479
3.3901
3.3922
3.38278
3.38508
3.39155
3.38729
3.36936
3.37667
3.37583
3.3762
3.3712
3.3696
3.37074
3.37554
3.37407
3.37018
3.37062
3.40111
3.40992
3.40983
3.41897
3.40961
3.42042
3.41524
3.42619
3.41351
3.41736
3.41537
3.37073
3.3735
3.3764
3.37245
3.37978
3.37827
3.37638
3.37606
3.37367
3.37211
3.37446
3.33951
3.34128
3.34506
3.34453
3.34234
3.34516
3.33418
3.3319
3.33432
3.32827
3.2768
3.28092
3.26444
3.26537
3.28805
3.29178
3.26825
3.26724
3.29467
3.29855
3.2857
3.35383
3.36134
3.35825
3.36363
3.36115
3.35386
3.35147
3.3613
3.35769
3.3491
3.36117
3.35297
3.34903
3.34147
3.34628
3.36065
3.35186
3.3415
3.34787
3.24598
3.22538
3.22885
3.22532
3.24442
3.2469
3.24953
3.25188
3.23776
3.2288
3.2437
3.26035
3.25073
3.26132
3.26198
3.26832
3.20982
3.20054
3.21442
3.23085
3.21285
3.20307
3.21772
3.22116
3.22597
3.23544
3.20631
3.20342
3.18146
3.17785
3.17689
3.20668
3.19284
3.20295
3.20953
3.19528
3.19078
3.16488
3.16075
3.16291
3.15404
3.16957
3.15998
3.16446
3.15182
3.32999
3.32109
3.3196
3.3293
3.3292
3.32478
3.32441
3.32865
3.31776
3.3243
3.32562
3.32917
3.40496
3.40799
3.39959
3.36901
3.36983
3.37013
3.33029
3.31178
3.31828
3.3385
3.33231
3.3309
3.33727
3.39323
3.3872
3.39612
3.39896
3.39751
3.3821
3.38076
3.38232
3.37715
3.38263
3.37688
3.37841
3.38415
3.38468
3.382
3.37767
3.37813
3.38027
3.37375
3.37702
3.38142
3.37903
3.38029
3.38059
3.38129
3.38137
3.38008
3.37344
3.37477
3.37707
3.37552
3.37609
3.27372
3.24881
3.27056
3.24744
3.26375
3.36909
3.37284
3.37245
3.37568
3.38183
3.37988
3.38606
3.38349
3.38324
3.3812
3.3802
3.37744
3.37542
3.38235
3.38073
3.2579
3.25574
3.32626
3.32403
3.32815
3.34021
3.31577
3.32474
3.34137
3.3382
3.33431
3.339
3.33039
3.32808
3.33825
3.33774
3.34605
3.33696
3.33776
3.32746
3.3287
3.34247
3.34574
3.28854
3.28858
3.30225
3.29917
3.31138
3.29354
3.29489
3.30261
3.31048
3.29665
3.28733
3.36281
3.40087
3.4082
3.41804
3.41382
3.40732
3.39929
3.41565
3.40302
3.30201
3.35696
3.34442
3.34215
3.35386
3.36141
3.35399
3.35279
3.34534
3.34597
3.34608
3.35376
3.34984
3.34861
3.36081
3.35793
3.37657
3.36913
3.37511
3.35951
3.37245
3.38089
3.37025
3.36783
3.36016
3.36965
3.3734
3.36684
3.3879
3.37447
3.38636
3.3754
3.38256
3.37556
3.37258
3.38706
3.37711
3.37362
3.37668
3.37466
3.37327
3.35498
3.36454
3.37398
3.36729
3.35804
3.37172
3.35192
3.34544
3.33523
3.32716
3.31187
3.31817
3.34218
3.34653
3.33163
3.32447
3.31746
3.33799
3.38217
3.36108
3.36033
3.35984
3.35941
3.35341