/*--------------------------------*- C++ -*----------------------------------*\
| =========                 |                                                 |
| \\      /  F ield         | OpenFOAM: The Open Source CFD Toolbox           |
|  \\    /   O peration     | Version:  v1612+                                |
|   \\  /    A nd           | Web:      www.OpenFOAM.com                      |
|    \\/     M anipulation  |                                                 |
\*---------------------------------------------------------------------------*/
FoamFile
{
    version     2.0;
    format      ascii;
    class       volVectorField;
    location    "239";
    object      U;
}
// * * * * * * * * * * * * * * * * * * * * * * * * * * * * * * * * * * * * * //

dimensions      [0 1 -1 0 0 0 0];

internalField   nonuniform List<vector> 
16938
(
(0.104416 0.366965 -0.233276)
(-0.153355 0.222359 -0.522497)
(0.0735883 0.558603 -1.00946)
(-0.234305 0.623655 -0.925372)
(-0.228183 0.630901 -0.920335)
(-0.243718 0.602566 -0.923427)
(-0.246481 0.598108 -0.906864)
(-0.207474 0.640945 -0.934426)
(-0.23512 0.650792 -0.974727)
(-0.230756 0.686498 -1.00639)
(-0.244844 0.637484 -0.976787)
(-0.242984 0.545937 -0.861256)
(-0.272822 0.594057 -0.910427)
(-0.254094 0.556445 -0.881383)
(-0.272237 0.575789 -0.889888)
(-0.277631 0.608609 -0.94939)
(-0.257054 0.542036 -0.846305)
(-0.263025 0.55331 -0.866661)
(0.0660481 0.54416 -1.11341)
(0.072341 0.532104 -1.08262)
(0.055284 0.539597 -1.08273)
(0.0275511 0.536666 -1.03316)
(0.00222454 0.589077 -1.09788)
(0.00210633 0.578066 -1.07847)
(0.0039715 0.565826 -1.01975)
(0.0520593 0.547873 -1.10905)
(0.0491789 0.544973 -1.11567)
(0.00780855 0.560206 -1.1152)
(0.0296882 0.553033 -1.11617)
(0.045245 0.550826 -1.11931)
(0.0248154 0.56288 -1.10589)
(0.0252207 0.567867 -1.06869)
(0.0257016 0.576829 -1.09037)
(0.00188416 0.578811 -1.11842)
(-0.00557668 0.565213 -1.11149)
(0.022025 0.559322 -1.0944)
(-0.0592511 0.28165 -0.328338)
(-0.0755928 0.274239 -0.345931)
(-0.0737126 0.282701 -0.354223)
(-0.0797688 0.272349 -0.35926)
(-0.0712423 0.28687 -0.343037)
(-0.0721048 0.276978 -0.304798)
(-0.0859504 0.300493 -0.312488)
(-0.0756804 0.339775 -0.311618)
(-0.0872847 0.339318 -0.292489)
(-0.0604485 0.284915 -0.282957)
(-0.0631061 0.285524 -0.233059)
(-0.0783089 0.294167 -0.282375)
(-0.0670764 0.373197 -0.277802)
(-0.0831256 0.34802 -0.259478)
(-0.066517 0.317742 -0.295719)
(-0.0806718 0.312943 -0.229442)
(-0.0667176 0.304972 -0.237544)
(-0.0746741 0.416295 -0.631749)
(-0.0873689 0.408476 -0.599319)
(-0.0491181 0.418533 -0.661089)
(-0.061905 0.420674 -0.653661)
(-0.135035 0.331855 -0.486482)
(-0.166112 0.279578 -0.392203)
(-0.0820292 0.422682 -0.65483)
(-0.195147 0.297622 -0.393182)
(-0.156958 0.358177 -0.474729)
(-0.114236 0.392454 -0.577526)
(-0.114668 0.394586 -0.556081)
(-0.163795 0.350342 -0.44888)
(-0.168991 0.325707 -0.402087)
(-0.175698 0.313526 -0.424587)
(-0.192156 0.328157 -0.427079)
(-0.133316 0.355469 -0.521828)
(-0.175565 0.337043 -0.434106)
(-0.192099 0.282041 -0.350259)
(0.076948 0.284587 -0.610687)
(0.0896669 0.287774 -0.651041)
(0.0618793 0.302466 -0.69302)
(0.0856735 0.325952 -0.808147)
(0.125303 0.307337 -0.743505)
(0.122142 0.382567 -0.873088)
(0.0906944 0.313739 -0.703168)
(0.113404 0.366604 -0.853774)
(0.124377 0.343048 -0.78213)
(0.119814 0.354178 -0.820357)
(-0.00411463 0.609887 -0.493037)
(0.0283391 0.582837 -0.511626)
(0.0124499 0.55634 -0.545967)
(0.0109095 0.574194 -0.518475)
(0.0715762 0.650148 -0.486841)
(0.0421658 0.655233 -0.475909)
(0.0111166 0.601306 -0.528955)
(0.0812659 0.644261 -0.540527)
(0.0721442 0.638388 -0.511827)
(0.0696718 0.642365 -0.483388)
(0.0558926 0.625155 -0.454437)
(0.0512041 0.621996 -0.587301)
(0.0638715 0.635093 -0.561308)
(0.0294497 0.619278 -0.56129)
(0.0338506 0.592354 -0.566938)
(0.0287889 0.640587 -0.494795)
(0.0552531 0.620435 -0.457881)
(0.0466469 0.650803 -0.563184)
(0.0469214 0.639012 -0.497747)
(-0.142225 0.476126 -0.820589)
(-0.141796 0.39712 -0.713666)
(-0.127723 0.412455 -0.739489)
(-0.145751 0.457952 -0.796845)
(-0.143608 0.377409 -0.703239)
(-0.152061 0.532321 -0.865903)
(-0.104552 0.606752 -0.963334)
(-0.11392 0.588163 -0.950954)
(-0.119952 0.441816 -0.800037)
(-0.144537 0.495439 -0.831339)
(-0.13818 0.464725 -0.798397)
(-0.165229 0.394241 -0.702741)
(-0.091363 0.552252 -0.911647)
(-0.106458 0.539469 -0.882556)
(-0.111729 0.49688 -0.833122)
(-0.135761 0.405693 -0.731714)
(-0.115535 0.524504 -0.856993)
(-0.13979 0.410809 -0.732762)
(0.0423439 0.541039 -1.01576)
(0.0560517 0.543786 -1.01269)
(0.0891245 0.522115 -0.991316)
(0.0631419 0.511613 -0.987801)
(0.047859 0.565404 -1.05125)
(0.0490318 0.568977 -1.0405)
(0.125249 0.541006 -1.01279)
(0.123632 0.557549 -1.02662)
(0.0716003 0.512486 -0.998225)
(0.103356 0.590063 -1.05219)
(0.126407 0.56413 -1.04284)
(0.130708 0.56215 -1.0314)
(0.128585 0.565989 -1.05172)
(0.0681444 0.537199 -1.04588)
(-0.15009 0.37986 -0.651259)
(-0.161188 0.375771 -0.692277)
(-0.146473 0.400002 -0.686589)
(-0.130116 0.47899 -0.800478)
(-0.139872 0.461665 -0.789552)
(-0.155674 0.402847 -0.561409)
(-0.120903 0.502891 -0.782555)
(-0.152033 0.406641 -0.603209)
(-0.142817 0.488585 -0.764675)
(-0.154175 0.517077 -0.840698)
(-0.167741 0.381047 -0.536871)
(-0.150692 0.360856 -0.55212)
(-0.150957 0.369388 -0.623018)
(-0.160138 0.370242 -0.600113)
(-0.1586 0.366333 -0.631439)
(-0.16695 0.343172 -0.624688)
(-0.147278 0.472466 -0.80366)
(-0.169235 0.457886 -0.7811)
(-0.16337 0.43237 -0.731095)
(-0.15551 0.430253 -0.678879)
(-0.184947 0.658671 -0.986367)
(-0.192253 0.65207 -0.951956)
(-0.17007 0.642566 -0.986118)
(-0.190224 0.646029 -0.976995)
(-0.190412 0.602225 -0.889262)
(-0.170371 0.617401 -0.950412)
(-0.215062 0.629068 -0.919144)
(-0.202242 0.60429 -0.880966)
(-0.185589 0.608202 -0.885472)
(-0.174032 0.633207 -0.930819)
(-0.204246 0.601834 -0.902342)
(-0.201027 0.62775 -0.965936)
(-0.233417 0.605442 -0.866731)
(-0.21851 0.595657 -0.818975)
(-0.197137 0.590018 -0.853763)
(-0.224064 0.614734 -0.845485)
(-0.189083 0.618846 -0.924344)
(-0.211436 0.624547 -0.902099)
(-0.133895 0.340129 -0.655075)
(-0.134214 0.333582 -0.638661)
(-0.119576 0.319254 -0.582061)
(-0.120279 0.305751 -0.541036)
(-0.147993 0.34503 -0.654574)
(-0.134176 0.324106 -0.590281)
(-0.135701 0.358786 -0.667931)
(-0.115684 0.33913 -0.649116)
(-0.126951 0.334341 -0.637469)
(-0.109539 0.323476 -0.592193)
(-0.12591 0.328422 -0.582879)
(-0.139816 0.383556 -0.689808)
(-0.12024 0.306841 -0.566363)
(-0.11876 0.416024 -0.762075)
(-0.114371 0.406866 -0.739701)
(-0.114549 0.393984 -0.712574)
(0.0984362 0.469495 -0.736329)
(0.100446 0.467318 -0.713595)
(0.0619421 0.422678 -0.776875)
(0.114372 0.455739 -0.791601)
(0.0528928 0.423008 -0.677199)
(0.0483082 0.433821 -0.712312)
(0.126 0.485236 -0.785782)
(0.137119 0.489528 -0.728492)
(0.0459478 0.423678 -0.759761)
(0.0901217 0.454034 -0.792106)
(0.0723538 0.414852 -0.701043)
(0.135582 0.465548 -0.738238)
(0.0811158 0.410591 -0.657524)
(0.112303 0.4581 -0.718862)
(0.000792577 0.365275 -0.643342)
(-0.0149197 0.585623 -1.13498)
(-0.0185274 0.611866 -1.14553)
(0.0157251 0.623215 -1.17125)
(0.00971536 0.621631 -1.17594)
(-0.0393723 0.52065 -0.97057)
(-0.024458 0.500985 -1.01744)
(-0.000924773 0.590633 -1.13926)
(-0.0441711 0.565235 -1.06839)
(-0.0293828 0.590086 -1.10761)
(-0.0249495 0.523783 -1.04642)
(-0.00725463 0.541195 -1.11329)
(0.0200581 0.618979 -1.13977)
(0.015482 0.611968 -1.16183)
(0.00809488 0.620879 -1.16216)
(-0.0147814 0.565206 -1.06097)
(-0.0277041 0.556127 -1.03503)
(-0.0115639 0.617086 -1.15273)
(-0.019601 0.6074 -1.16384)
(-0.023817 0.586303 -1.0739)
(0.0920546 0.562252 -1.00429)
(0.0715572 0.529184 -0.93174)
(0.0780111 0.554776 -0.99238)
(0.0839367 0.620592 -1.08355)
(0.072607 0.590495 -1.01943)
(0.0724786 0.550013 -0.949384)
(0.050819 0.611834 -1.05973)
(0.074819 0.561586 -0.975058)
(0.0625418 0.518673 -0.940084)
(0.0541401 0.561933 -0.969292)
(0.0625019 0.522589 -0.902855)
(-0.123944 0.590514 -0.945602)
(-0.126739 0.498335 -0.813063)
(-0.124132 0.609934 -1.00982)
(-0.113157 0.544539 -0.914926)
(-0.141512 0.60978 -0.974881)
(-0.133794 0.524079 -0.86288)
(-0.12718 0.544583 -0.870536)
(-0.109963 0.474929 -0.782012)
(-0.140375 0.582425 -0.954861)
(-0.139658 0.597507 -0.971684)
(-0.108921 0.458337 -0.772302)
(-0.139315 0.592809 -0.949755)
(-0.134324 0.648348 -1.01748)
(-0.126074 0.561803 -0.936004)
(-0.106135 0.533112 -0.859169)
(-0.123976 0.575241 -0.935962)
(-0.152499 0.64327 -1.02043)
(-0.146851 0.660493 -1.04483)
(-0.103045 0.541221 -0.300235)
(-0.108668 0.522496 -0.257931)
(-0.115003 0.508907 -0.311366)
(-0.110087 0.538187 -0.335582)
(-0.0887848 0.563891 -0.295583)
(-0.0863583 0.526646 -0.231984)
(-0.0722295 0.583222 -0.338978)
(-0.0734596 0.535354 -0.250685)
(-0.0890418 0.530815 -0.252138)
(-0.0769257 0.512506 -0.217925)
(-0.0773806 0.562041 -0.347574)
(-0.0959208 0.547854 -0.352015)
(-0.090418 0.527961 -0.324792)
(-0.098656 0.535249 -0.344598)
(-0.0733442 0.549215 -0.26103)
(-0.0921116 0.527814 -0.276773)
(-0.0599708 0.583533 -0.292922)
(-0.124853 0.517713 -0.265554)
(-0.0660435 0.575904 -0.30315)
(-0.15682 0.435136 -0.41975)
(-0.160409 0.417377 -0.414678)
(-0.161651 0.497668 -0.317499)
(-0.15052 0.48626 -0.34545)
(-0.13889 0.445064 -0.418616)
(-0.151384 0.431308 -0.404006)
(-0.170249 0.475142 -0.349061)
(-0.134858 0.528045 -0.355815)
(-0.149051 0.515478 -0.332789)
(-0.166134 0.509364 -0.34715)
(-0.135614 0.505394 -0.387247)
(-0.136322 0.534878 -0.375541)
(-0.156492 0.536196 -0.329518)
(0.0791815 0.615537 -0.393496)
(0.0944415 0.60959 -0.384092)
(0.0735689 0.612279 -0.398355)
(0.109526 0.620519 -0.412264)
(0.0738617 0.628176 -0.403727)
(0.0459583 0.579365 -0.449493)
(0.0728376 0.578897 -0.506337)
(0.0589244 0.559979 -0.503575)
(0.0423408 0.536888 -0.496435)
(0.121472 0.61415 -0.4602)
(0.119281 0.615701 -0.485241)
(0.112621 0.609576 -0.449545)
(0.0849832 0.625293 -0.43241)
(0.097943 0.609591 -0.411436)
(0.0443904 0.583888 -0.455064)
(0.0953509 0.639358 -0.476992)
(0.0542816 0.587129 -0.490679)
(0.137091 0.577421 -0.779733)
(0.119569 0.511272 -0.700153)
(0.00456379 0.459625 -0.743814)
(0.0536354 0.491136 -0.717387)
(0.0640807 0.496954 -0.764625)
(0.0311202 0.42321 -0.633201)
(0.0802475 0.502177 -0.701267)
(0.113015 0.535804 -0.78301)
(-0.0231454 0.412536 -0.714233)
(-0.0304618 0.438485 -0.766773)
(0.0800159 0.52973 -0.827415)
(-0.0137874 0.478761 -0.813224)
(-0.00444006 0.446938 -0.756402)
(0.118513 0.517555 -0.791674)
(0.116933 0.527189 -0.799305)
(0.00909293 0.432637 -0.738614)
(-0.010944 0.40927 -0.691016)
(0.0480329 0.489108 -0.833048)
(0.0904368 0.507468 -0.820308)
(0.078162 0.478439 -0.793973)
(0.270366 0.536305 -0.67487)
(0.263376 0.532475 -0.673161)
(0.242243 0.526283 -0.754279)
(0.262492 0.544849 -0.701034)
(0.261086 0.545419 -0.680235)
(0.255818 0.515878 -0.699901)
(0.259938 0.507931 -0.732297)
(0.268543 0.532705 -0.71206)
(0.245063 0.522563 -0.688683)
(0.243959 0.537526 -0.732848)
(0.228406 0.522356 -0.759818)
(0.244341 0.518379 -0.743842)
(0.26372 0.51339 -0.716627)
(0.208724 0.495507 -0.702373)
(0.231543 0.511707 -0.781153)
(0.254273 0.517186 -0.751181)
(0.218214 0.496621 -0.763089)
(0.185062 0.472978 -0.731595)
(0.216609 0.521118 -0.697123)
(0.195607 0.509044 -0.774175)
(0.186171 0.481644 -0.76505)
(0.195106 0.506211 -0.726965)
(0.0474201 0.560081 -1.04256)
(-0.00207352 0.47162 -0.895926)
(-0.025325 0.450872 -0.899805)
(-0.0143745 0.44307 -0.89265)
(-0.0229144 0.488952 -0.945792)
(-0.0140253 0.394861 -0.808636)
(-0.0319956 0.402943 -0.824571)
(0.0623832 0.495247 -0.967071)
(0.0681463 0.479158 -0.949572)
(0.0786653 0.528938 -1.01761)
(0.0478543 0.542668 -1.01932)
(0.000531727 0.467202 -0.944629)
(-0.00760287 0.416439 -0.86099)
(-0.0128968 0.468419 -0.918371)
(-0.172407 0.404237 -0.680262)
(-0.203819 0.465831 -0.786766)
(-0.17362 0.39721 -0.672118)
(-0.202882 0.462157 -0.761524)
(-0.136241 0.490347 -0.780512)
(-0.148137 0.468513 -0.790284)
(-0.200399 0.471174 -0.803753)
(-0.185901 0.381544 -0.667184)
(-0.205426 0.453522 -0.750167)
(-0.117938 0.521734 -0.872602)
(-0.13639 0.428079 -0.696899)
(-0.175589 0.483275 -0.839505)
(-0.193987 0.474219 -0.804214)
(-0.103994 0.538091 -0.822411)
(-0.116239 0.560254 -0.80653)
(-0.151667 0.429288 -0.68716)
(-0.118466 0.470013 -0.715454)
(0.0714397 0.565347 -1.18669)
(0.0532926 0.587935 -1.19803)
(0.0289714 0.606915 -1.19925)
(0.067826 0.608439 -1.11781)
(0.069465 0.547777 -1.16765)
(0.0855825 0.563698 -1.15833)
(0.0663799 0.608027 -1.16883)
(0.0676953 0.601426 -1.13217)
(0.0731394 0.605596 -1.16331)
(0.0492124 0.585012 -1.20124)
(0.0509424 0.570182 -1.18634)
(0.0884365 0.553606 -1.13657)
(0.0684168 0.552107 -1.03453)
(0.0756673 0.551801 -1.15301)
(0.0926983 0.557185 -1.13786)
(0.0589008 0.573202 -1.06662)
(0.064762 0.578359 -1.16653)
(0.0611108 0.559957 -1.1576)
(0.0805882 0.567844 -1.11591)
(-0.377137 0.21019 -0.4071)
(-0.385119 0.15773 -0.353534)
(-0.379055 0.222477 -0.452099)
(-0.385727 0.186398 -0.404153)
(-0.356997 0.321425 -0.547542)
(-0.346193 0.340857 -0.55863)
(-0.371735 0.245452 -0.420051)
(-0.382822 0.222775 -0.443626)
(-0.39428 0.204972 -0.349503)
(-0.383768 0.172529 -0.339776)
(-0.346404 0.359218 -0.529503)
(-0.424037 0.237936 -0.356472)
(-0.403957 0.174374 -0.32515)
(-0.396578 0.277679 -0.409749)
(-0.375305 0.344994 -0.522016)
(-0.37217 0.366938 -0.509223)
(-0.40699 0.243886 -0.407919)
(-0.409007 0.209955 -0.379926)
(-0.124776 0.545078 -0.894968)
(-0.122606 0.520275 -0.820972)
(-0.108173 0.543307 -0.863146)
(-0.102751 0.426433 -0.683131)
(-0.111757 0.442934 -0.704927)
(-0.131588 0.606444 -0.970023)
(-0.135812 0.625527 -1.01747)
(-0.120006 0.624806 -1.00725)
(-0.133129 0.659601 -1.08306)
(-0.117209 0.628638 -1.0152)
(-0.101679 0.441066 -0.727725)
(-0.109686 0.555442 -0.895375)
(-0.103632 0.50185 -0.774938)
(-0.115688 0.56747 -0.919893)
(-0.0972332 0.441191 -0.715529)
(-0.367757 0.457333 -0.575478)
(-0.386287 0.402956 -0.516174)
(-0.375928 0.337563 -0.345818)
(-0.379877 0.269863 -0.308967)
(-0.36738 0.346385 -0.348714)
(-0.381781 0.319365 -0.295777)
(-0.376682 0.377362 -0.444805)
(-0.382362 0.35447 -0.486976)
(-0.374726 0.398639 -0.518635)
(-0.389928 0.271554 -0.287169)
(-0.392133 0.329293 -0.411876)
(-0.393273 0.289089 -0.351038)
(-0.421391 0.258456 -0.37702)
(-0.383055 0.325288 -0.368686)
(-0.395062 0.328656 -0.345714)
(-0.404492 0.251323 -0.327213)
(-0.409615 0.206753 -0.275429)
(-0.400588 0.235154 -0.24893)
(-0.175494 0.572814 -0.329922)
(-0.196528 0.575246 -0.327325)
(-0.194908 0.548123 -0.37819)
(-0.186758 0.541453 -0.397307)
(-0.22133 0.489618 -0.363651)
(-0.225051 0.475293 -0.383475)
(-0.205355 0.559053 -0.336603)
(-0.208225 0.500321 -0.389637)
(-0.229636 0.488453 -0.38947)
(-0.204335 0.553271 -0.383264)
(-0.237614 0.490881 -0.349917)
(-0.197219 0.55433 -0.29708)
(-0.205299 0.543515 -0.298395)
(-0.200705 0.517781 -0.271322)
(-0.21925 0.521905 -0.350363)
(-0.230525 0.508842 -0.349644)
(-0.221957 0.512043 -0.25679)
(-0.206158 0.507816 -0.25132)
(-0.227396 0.511666 -0.278688)
(-0.235652 0.516366 -0.271003)
(-0.209005 0.525912 -0.289747)
(-0.224549 0.533365 -0.28982)
(-0.21442 0.527256 -0.271138)
(-0.247302 0.456565 -0.235783)
(-0.257595 0.450318 -0.246626)
(-0.253967 0.452804 -0.23367)
(-0.24546 0.445023 -0.211583)
(-0.248746 0.4742 -0.257408)
(-0.231128 0.449764 -0.3473)
(-0.223839 0.460649 -0.356396)
(-0.259798 0.440291 -0.306532)
(-0.252399 0.451849 -0.309673)
(-0.236592 0.463681 -0.332144)
(-0.247669 0.483217 -0.319084)
(-0.266087 0.451354 -0.295193)
(-0.229574 0.490312 -0.244133)
(-0.231939 0.458171 -0.222714)
(-0.268313 0.456469 -0.245699)
(-0.23761 0.492974 -0.245285)
(-0.256658 0.48735 -0.250242)
(-0.192139 0.386201 -0.370892)
(-0.181011 0.400094 -0.376323)
(-0.181903 0.385467 -0.349342)
(-0.181723 0.402151 -0.372061)
(-0.171985 0.388879 -0.436999)
(-0.191517 0.423378 -0.466229)
(-0.181765 0.397415 -0.452414)
(-0.163213 0.374323 -0.486307)
(-0.170611 0.480389 -0.699485)
(-0.157036 0.4602 -0.682377)
(-0.184103 0.434845 -0.544936)
(-0.181313 0.37637 -0.412029)
(-0.166533 0.380458 -0.485487)
(-0.169451 0.436608 -0.552566)
(-0.161291 0.444587 -0.606974)
(-0.0721709 0.445203 -0.649067)
(-0.0905115 0.407323 -0.526109)
(-0.161726 0.360201 -0.471495)
(-0.209642 0.293727 -0.342143)
(-0.163921 0.334488 -0.399887)
(-0.188498 0.302441 -0.342677)
(-0.186004 0.318548 -0.330478)
(-0.196231 0.287369 -0.301975)
(-0.0767317 0.447362 -0.660673)
(-0.0911028 0.399404 -0.546876)
(-0.112019 0.401827 -0.541722)
(-0.104864 0.440985 -0.618472)
(-0.108972 0.41687 -0.591579)
(-0.1653 0.339182 -0.387518)
(-0.173097 0.358337 -0.38124)
(-0.186864 0.328459 -0.346759)
(-0.217061 0.305475 -0.375254)
(-0.0648115 0.452182 -0.732086)
(-0.0800686 0.433396 -0.65007)
(-0.0999498 0.328806 -0.38281)
(-0.106643 0.359374 -0.412378)
(-0.0829169 0.405171 -0.71115)
(-0.0845936 0.414976 -0.669578)
(-0.0673817 0.427989 -0.683844)
(-0.109352 0.326024 -0.387937)
(-0.111938 0.353908 -0.40919)
(-0.0930582 0.391792 -0.510553)
(-0.11263 0.383864 -0.479065)
(-0.0975565 0.41041 -0.540302)
(-0.0747313 0.394346 -0.705014)
(-0.0669163 0.427817 -0.73348)
(-0.078169 0.38129 -0.535675)
(-0.0856673 0.347115 -0.479453)
(-0.0982554 0.356572 -0.537946)
(-0.0864725 0.369807 -0.631505)
(-0.0713712 0.393977 -0.659949)
(-0.0926189 0.333481 -0.454576)
(-0.114266 0.316023 -0.410434)
(-0.0853233 0.362064 -0.548747)
(-0.147287 0.510925 -0.835332)
(-0.142998 0.479879 -0.810369)
(-0.170426 0.386065 -0.687839)
(-0.166939 0.344881 -0.661044)
(-0.149709 0.398271 -0.698447)
(-0.143842 0.362799 -0.655104)
(-0.125976 0.419717 -0.714589)
(-0.142516 0.526913 -0.852481)
(-0.174611 0.448849 -0.755389)
(-0.157286 0.408144 -0.710344)
(-0.162625 0.443382 -0.758873)
(-0.142375 0.594673 -0.936616)
(-0.143117 0.57739 -0.92073)
(-0.132057 0.39606 -0.705135)
(-0.150109 0.551035 -0.868491)
(-0.147857 0.5517 -0.874503)
(-0.130698 0.558588 -0.886757)
(-0.139499 0.445647 -0.753562)
(-0.0413492 0.424706 -0.801925)
(-0.0498719 0.421598 -0.782157)
(-0.0206696 0.427381 -0.818963)
(-0.0392292 0.382409 -0.724978)
(-0.075009 0.355782 -0.664039)
(-0.0469813 0.380067 -0.662283)
(-0.0532547 0.443772 -0.827736)
(-0.0617904 0.414812 -0.761491)
(-0.0712765 0.330061 -0.565671)
(-0.0585447 0.350867 -0.588129)
(-0.0375671 0.403816 -0.671864)
(-0.00431676 0.472165 -0.830401)
(-0.0312614 0.458706 -0.783292)
(-0.0436965 0.466652 -0.807251)
(-0.0620484 0.358466 -0.540772)
(-0.061442 0.359919 -0.536329)
(-0.0829358 0.34334 -0.449791)
(-0.0654693 0.39268 -0.65125)
(-0.248465 0.475181 -0.579202)
(-0.313245 0.389009 -0.409685)
(-0.296688 0.41581 -0.468507)
(-0.249057 0.510852 -0.626457)
(-0.267035 0.452771 -0.527804)
(-0.297743 0.451064 -0.495712)
(-0.335097 0.383898 -0.430579)
(-0.319887 0.358319 -0.432385)
(-0.294474 0.396682 -0.470319)
(-0.323183 0.375155 -0.463897)
(-0.33845 0.354598 -0.425864)
(-0.317431 0.384911 -0.429071)
(-0.309957 0.40181 -0.531489)
(-0.313074 0.378674 -0.467544)
(-0.276943 0.481074 -0.635008)
(-0.158006 0.374429 -0.462485)
(-0.135335 0.342649 -0.451882)
(-0.132117 0.379409 -0.550338)
(-0.166387 0.385404 -0.381495)
(-0.149609 0.393873 -0.399016)
(-0.152771 0.383856 -0.46617)
(-0.134525 0.343702 -0.439765)
(-0.151356 0.355169 -0.409935)
(-0.140906 0.373198 -0.477713)
(-0.167154 0.369923 -0.384555)
(-0.158521 0.379046 -0.376757)
(0.0460046 0.543534 -0.952206)
(0.0585629 0.487288 -0.851019)
(0.0285429 0.48646 -0.872124)
(0.0374817 0.507165 -0.890749)
(0.0552397 0.530592 -0.945531)
(-0.0091133 0.445808 -0.753391)
(0.00242677 0.463977 -0.793275)
(0.059403 0.481064 -0.856711)
(0.00688968 0.470887 -0.781046)
(0.0388188 0.535257 -0.923735)
(-0.0256448 0.428503 -0.717675)
(-0.0447493 0.37279 -0.631846)
(-0.00757523 0.400281 -0.680395)
(0.0425709 0.512846 -0.888278)
(0.00333136 0.435007 -0.755602)
(-0.00967221 0.407772 -0.712773)
(-0.203948 0.63356 -1.05272)
(-0.225255 0.641831 -1.05777)
(-0.231371 0.631024 -1.06087)
(-0.234432 0.638708 -1.07679)
(-0.231753 0.640891 -1.05832)
(-0.198662 0.627401 -1.03309)
(-0.195309 0.61901 -1.01423)
(-0.206825 0.610734 -1.01129)
(-0.233506 0.643833 -1.06428)
(-0.207132 0.637092 -1.04739)
(-0.217547 0.652076 -1.05062)
(-0.192199 0.621303 -1.0231)
(-0.206028 0.653603 -1.07253)
(-0.225128 0.640184 -1.05723)
(-0.22402 0.654108 -1.06131)
(-0.140722 0.386895 -0.697936)
(-0.11741 0.461004 -0.817108)
(-0.117731 0.518355 -0.880061)
(-0.140659 0.524218 -0.881068)
(-0.132158 0.498745 -0.849971)
(-0.11098 0.431822 -0.780709)
(-0.103745 0.443217 -0.802554)
(-0.112434 0.467493 -0.808997)
(-0.116408 0.530539 -0.886316)
(-0.118978 0.510524 -0.863068)
(0.192331 0.378238 -1.02784)
(0.182987 0.363098 -0.998481)
(0.125591 0.379961 -0.963969)
(-0.0111262 0.567467 -1.12993)
(0.00817692 0.565969 -1.16284)
(0.0137688 0.534306 -1.11852)
(0.0258701 0.522801 -1.06971)
(0.0135521 0.555867 -1.15835)
(-0.0107542 0.541927 -1.10147)
(-0.0134759 0.493623 -1.00368)
(0.0310276 0.525587 -1.10945)
(0.00634845 0.541478 -1.14732)
(0.00836111 0.462734 -0.988122)
(0.0248313 0.464277 -1.01402)
(0.0303884 0.528853 -1.08579)
(0.0661588 0.523896 -1.14788)
(0.0179492 0.464592 -0.999827)
(0.0411655 0.526534 -1.12691)
(0.0443206 0.492217 -1.06618)
(-0.0269756 0.57661 -1.11331)
(-0.063086 0.539788 -1.03138)
(-0.0345449 0.529669 -1.0546)
(-0.0128538 0.591651 -1.15727)
(-0.0113096 0.574428 -1.1503)
(-0.0442752 0.607247 -1.13486)
(-0.0511303 0.586884 -1.0848)
(-0.0399163 0.586878 -1.07662)
(-0.0110133 0.603405 -1.13705)
(-0.0161138 0.605962 -1.14345)
(-0.00411936 0.599695 -1.14616)
(0.00436302 0.579339 -1.14796)
(-0.0453698 0.614436 -1.1202)
(-0.0164006 0.63229 -1.15878)
(-0.0298651 0.63948 -1.16633)
(-0.152628 0.500104 -0.847419)
(-0.121782 0.514591 -0.852272)
(-0.130543 0.565242 -0.878678)
(-0.14702 0.551628 -0.832897)
(-0.134736 0.562496 -0.813743)
(-0.118148 0.58948 -0.884011)
(-0.115472 0.546174 -0.872973)
(-0.109047 0.523375 -0.842385)
(-0.109978 0.512625 -0.785468)
(-0.154823 0.508848 -0.744599)
(-0.138156 0.583189 -0.918979)
(-0.112841 0.564279 -0.869125)
(-0.125381 0.593351 -0.937265)
(-0.0231899 0.210693 -0.287742)
(-0.0187398 0.208669 -0.272989)
(-0.0284324 0.220589 -0.256642)
(-0.0284904 0.224174 -0.272131)
(-0.0122149 0.209733 -0.2684)
(-0.016148 0.208668 -0.290178)
(-0.0151779 0.212274 -0.16654)
(-0.0207171 0.215801 -0.181652)
(-0.00872029 0.249994 -0.184701)
(-0.0165602 0.233516 -0.185349)
(-0.0161278 0.597762 -0.986847)
(-0.0237896 0.579297 -0.966137)
(-0.0297567 0.622161 -1.0408)
(-0.00694166 0.621125 -1.02417)
(-0.0128569 0.588047 -0.978201)
(-0.00488844 0.641245 -1.07389)
(-0.0152284 0.603766 -1.01565)
(-0.0233579 0.626517 -1.02232)
(-0.0199679 0.64929 -1.06927)
(-0.018391 0.650187 -1.05973)
(-0.024511 0.656704 -1.1167)
(-0.0263121 0.644463 -1.0902)
(-0.0444069 0.649756 -1.07729)
(-0.0274543 0.608542 -1.00508)
(-0.0337199 0.637998 -1.04149)
(-0.0326624 0.651996 -1.07148)
(-0.050936 0.652316 -1.10513)
(-0.0459354 0.621869 -1.02036)
(-0.0459818 0.631424 -1.0596)
(-0.0576732 0.667917 -1.11012)
(-0.0435399 0.652148 -1.08851)
(-0.0142439 0.58339 -0.305557)
(-0.030075 0.561877 -0.276215)
(-0.0316448 0.579623 -0.320305)
(-0.0331305 0.559759 -0.280448)
(-0.0353931 0.58864 -0.336293)
(-0.0520063 0.526354 -0.233967)
(-0.0380621 0.578083 -0.29985)
(-0.0307705 0.55179 -0.269701)
(-0.0541132 0.546528 -0.356034)
(-0.0540043 0.551001 -0.368594)
(-0.0493589 0.549176 -0.272266)
(-0.0616256 0.538315 -0.253002)
(-0.0756464 0.53113 -0.271608)
(-0.0710263 0.528179 -0.334503)
(-0.0790056 0.521783 -0.331627)
(-0.00121544 0.264795 -0.522243)
(0.010583 0.284929 -0.478305)
(0.0276841 0.283329 -0.526298)
(0.0026897 0.261398 -0.537427)
(-0.00980182 0.246637 -0.462369)
(-0.00510633 0.246054 -0.480001)
(-0.0144285 0.249755 -0.566446)
(-0.0411829 0.224368 -0.450073)
(-0.0487207 0.21117 -0.466047)
(-0.0355797 0.253345 -0.56464)
(-0.0471839 0.227903 -0.535159)
(-0.0563429 0.273645 -0.623531)
(-0.0624562 0.226039 -0.451151)
(-0.0461668 0.232849 -0.440385)
(-0.0611168 0.226311 -0.493536)
(-0.0404782 0.227417 -0.453933)
(-0.0650079 0.258595 -0.595777)
(-0.0647424 0.246106 -0.545102)
(0.0268029 0.628037 -1.08203)
(0.0194097 0.622491 -1.08215)
(0.0369752 0.641554 -1.11465)
(0.0539722 0.655797 -1.12987)
(0.00504704 0.635124 -1.09611)
(-0.0137887 0.623457 -1.09811)
(0.0406706 0.629375 -1.12439)
(0.0285886 0.633392 -1.08063)
(-0.0124765 0.64055 -1.18024)
(0.00738014 0.627224 -1.14823)
(0.00244587 0.633887 -1.09984)
(0.00825064 0.643304 -1.14678)
(0.0276997 0.628813 -1.07856)
(0.0347272 0.643486 -1.16486)
(0.0491219 0.624631 -1.07733)
(0.0405939 0.641094 -1.13115)
(-0.137086 0.567764 -0.899838)
(-0.14161 0.596363 -0.942081)
(-0.161107 0.677051 -1.04349)
(-0.185269 0.684395 -1.05739)
(-0.16689 0.668795 -1.01172)
(-0.153698 0.646864 -1.01423)
(-0.176858 0.663175 -1.03562)
(-0.145448 0.64223 -0.991544)
(-0.143746 0.611306 -0.9398)
(-0.168776 0.630396 -0.987887)
(-0.144142 0.593595 -0.914488)
(-0.138145 0.575198 -0.909979)
(-0.165233 0.616083 -0.950718)
(-0.162547 0.601868 -0.926373)
(-0.153975 0.562136 -0.882131)
(0.107453 0.576058 -1.00911)
(0.0934007 0.549521 -1.00318)
(0.141972 0.565388 -1.04202)
(0.144797 0.582779 -1.07441)
(0.104001 0.527283 -0.952899)
(0.0953228 0.510528 -0.884307)
(0.113118 0.528751 -0.945201)
(0.144636 0.559735 -0.992841)
(0.163595 0.518036 -0.975624)
(0.110936 0.560298 -1.02695)
(0.112174 0.605009 -1.09044)
(0.107687 0.610296 -1.10785)
(0.124021 0.516421 -0.945081)
(0.0991485 0.478022 -0.864635)
(0.123511 0.507395 -0.941635)
(0.111136 0.544805 -0.968409)
(0.0889892 0.497288 -0.882487)
(0.145102 0.535169 -0.957791)
(0.140598 0.555095 -0.97659)
(-0.129637 0.657671 -1.03052)
(-0.134694 0.650595 -1.02181)
(-0.127364 0.631211 -0.997322)
(-0.1829 0.670996 -1.07249)
(-0.151159 0.662838 -1.0391)
(-0.134668 0.623048 -1.02132)
(-0.163572 0.491006 -0.808942)
(-0.15199 0.580585 -0.924518)
(-0.138992 0.637746 -0.990581)
(-0.166643 0.581376 -0.945337)
(-0.177532 0.593083 -0.950047)
(-0.172705 0.615657 -0.971934)
(-0.170283 0.564655 -0.919197)
(-0.175939 0.557985 -0.903233)
(-0.202576 0.524549 -0.875946)
(-0.191704 0.546541 -0.899588)
(-0.248975 0.614621 -1.00244)
(-0.230882 0.605991 -0.976074)
(-0.198694 0.58561 -0.942912)
(-0.242386 0.585217 -0.952426)
(-0.242759 0.64543 -1.03603)
(-0.19105 0.449818 -0.747697)
(-0.223647 0.57548 -0.95669)
(-0.235903 0.34671 -0.242701)
(-0.228926 0.351028 -0.243835)
(-0.274121 0.322166 -0.239281)
(-0.263302 0.311606 -0.205337)
(-0.247406 0.322473 -0.220283)
(-0.250655 0.318351 -0.208876)
(-0.277303 0.314727 -0.221594)
(-0.291838 0.33281 -0.255216)
(-0.195846 0.422068 -0.496042)
(-0.210406 0.440014 -0.500726)
(-0.20111 0.421274 -0.456852)
(-0.199285 0.435134 -0.487932)
(-0.232349 0.358379 -0.272541)
(-0.227826 0.382677 -0.35123)
(-0.255998 0.345719 -0.22078)
(-0.273372 0.347486 -0.229563)
(-0.216531 0.390305 -0.396652)
(-0.220184 0.46675 -0.518789)
(-0.25012 0.355785 -0.285347)
(-0.269025 0.333433 -0.264746)
(-0.266897 0.41339 -0.390221)
(-0.268521 0.426594 -0.467744)
(-0.0356559 0.519515 -0.24275)
(-0.0551837 0.495459 -0.225717)
(-0.0529073 0.493692 -0.363675)
(-0.053017 0.544872 -0.351431)
(-0.0430152 0.545237 -0.291145)
(-0.0670241 0.490928 -0.360011)
(-0.0804754 0.438427 -0.359577)
(-0.049638 0.517132 -0.281133)
(-0.0465096 0.528254 -0.261356)
(-0.0528266 0.498195 -0.224916)
(-0.108043 0.480796 -0.244632)
(-0.108962 0.472225 -0.242579)
(-0.122115 0.439253 -0.298726)
(-0.115498 0.458822 -0.294202)
(-0.101067 0.450517 -0.303152)
(-0.0923799 0.482693 -0.25976)
(-0.0873652 0.483409 -0.233558)
(-0.0587615 0.539013 -0.266353)
(-0.104839 0.480101 -0.253894)
(-0.0758756 0.501106 -0.334114)
(-0.204016 0.567343 -0.835504)
(-0.196632 0.556318 -0.814731)
(-0.200371 0.514723 -0.755227)
(-0.181787 0.544806 -0.811576)
(-0.267643 0.472741 -0.670865)
(-0.233497 0.519433 -0.763621)
(-0.235586 0.471816 -0.700614)
(-0.22182 0.476685 -0.700029)
(-0.284926 0.43478 -0.596077)
(-0.233799 0.480583 -0.707355)
(-0.26261 0.384861 -0.647402)
(-0.294166 0.433968 -0.641948)
(-0.31093 0.378243 -0.580862)
(-0.325003 0.414804 -0.570384)
(-0.330028 0.35691 -0.531686)
(-0.244041 0.460539 -0.663852)
(-0.281284 0.449822 -0.619741)
(-0.126006 0.474784 -0.821669)
(-0.138513 0.454824 -0.797396)
(-0.204548 0.55427 -0.949224)
(-0.169724 0.552346 -0.962501)
(-0.20215 0.541362 -0.91257)
(-0.178228 0.530483 -0.932438)
(-0.119581 0.523167 -0.900921)
(-0.127997 0.532369 -0.918587)
(-0.174806 0.50865 -0.8691)
(-0.149031 0.534822 -0.943824)
(-0.1309 0.523436 -0.907909)
(-0.150952 0.454824 -0.778946)
(-0.153221 0.476901 -0.824051)
(-0.14067 0.527245 -0.897483)
(-0.191834 0.565397 -0.956043)
(-0.180321 0.56249 -0.981891)
(-0.183451 0.50527 -0.863406)
(-0.160756 0.533204 -0.939922)
(-0.155416 0.528056 -0.935507)
(-0.210856 0.396646 -0.299016)
(-0.230583 0.380085 -0.271692)
(-0.215621 0.397766 -0.344972)
(-0.203494 0.406762 -0.374029)
(-0.224124 0.378311 -0.281178)
(-0.192129 0.393337 -0.333623)
(-0.211825 0.402812 -0.291971)
(-0.196904 0.403295 -0.325971)
(-0.190839 0.392576 -0.335445)
(-0.140455 0.560269 -0.698391)
(-0.154746 0.610027 -0.843161)
(-0.127005 0.608319 -0.809192)
(-0.0968443 0.614681 -0.712662)
(-0.169357 0.580265 -0.822774)
(-0.0965939 0.613178 -0.773682)
(-0.108038 0.609156 -0.752675)
(-0.104034 0.605739 -0.729942)
(-0.106119 0.605578 -0.724783)
(-0.132134 0.583309 -0.773517)
(-0.100693 0.607462 -0.766305)
(0.022952 0.327026 -0.242227)
(0.0295401 0.318379 -0.221171)
(0.0917889 0.355964 -0.25076)
(0.0835452 0.335894 -0.194329)
(0.0566061 0.359121 -0.282482)
(0.0736707 0.358888 -0.302504)
(0.0746949 0.617693 -1.08436)
(0.0871217 0.632561 -1.09712)
(0.100242 0.61274 -1.08003)
(0.0852569 0.605144 -1.05854)
(0.0417664 0.589467 -1.03771)
(0.037678 0.603601 -1.07138)
(0.0475454 0.631813 -1.10203)
(0.0279718 0.595121 -1.06935)
(0.0473448 0.57392 -1.04805)
(0.0500326 0.63608 -1.14937)
(0.0744595 0.627028 -1.1339)
(0.0440299 0.621405 -1.12111)
(0.0518931 0.596529 -1.06196)
(0.0824321 0.628431 -1.12674)
(0.0874839 0.630734 -1.12784)
(0.0221923 0.598471 -1.11987)
(0.0155619 0.595688 -1.09581)
(0.0311785 0.601802 -1.13757)
(0.0186413 0.589054 -1.07467)
(0.0125458 0.601646 -1.11484)
(0.0246865 0.579891 -1.07674)
(0.0125119 0.595606 -1.13056)
(0.0431576 0.574251 -1.1462)