/*--------------------------------*- C++ -*----------------------------------*\
| =========                 |                                                 |
| \\      /  F ield         | OpenFOAM: The Open Source CFD Toolbox           |
|  \\    /   O peration     | Version:  v1612+                                |
|   \\  /    A nd           | Web:      www.OpenFOAM.com                      |
|    \\/     M anipulation  |                                                 |
\*---------------------------------------------------------------------------*/
FoamFile
{
    version     2.0;
    format      ascii;
    class       volVectorField;
    location    "100";
    object      U;
}
// * * * * * * * * * * * * * * * * * * * * * * * * * * * * * * * * * * * * * //

dimensions      [0 1 -1 0 0 0 0];

internalField   nonuniform List<vector> 
17100
(
(-0.00837349 0.596071 -0.140037)
(0.124245 0.835709 -0.244099)
(0.0786211 0.937025 -0.301108)
(0.0757823 0.911935 -0.275038)
(0.028351 0.959408 -0.305771)
(0.028665 0.947807 -0.294223)
(0.0396956 0.9505 -0.291731)
(0.0337082 0.907179 -0.265782)
(0.0320453 0.906998 -0.254324)
(0.0601363 0.860903 -0.228604)
(0.0773633 0.822261 -0.203636)
(0.0883307 0.910124 -0.274018)
(0.075082 0.904089 -0.254315)
(0.0773559 0.949498 -0.306398)
(0.0783319 0.924492 -0.282859)
(0.0798072 0.859491 -0.222631)
(0.0879666 0.886101 -0.237272)
(0.0883413 0.890926 -0.251847)
(0.101175 0.866481 -0.256379)
(0.123621 0.695314 -0.187573)
(0.0845994 0.801335 -0.231496)
(0.104053 0.860679 -0.258699)
(0.112307 0.674344 -0.180254)
(0.118411 0.634765 -0.169441)
(0.101495 0.888268 -0.2628)
(0.105004 0.916929 -0.286265)
(0.128259 0.746636 -0.230306)
(0.126655 0.728945 -0.224556)
(0.111587 0.876907 -0.274903)
(0.104243 0.841411 -0.268635)
(0.125883 0.662329 -0.204217)
(0.117925 0.749479 -0.217119)
(0.118124 0.77399 -0.240135)
(0.128976 0.730293 -0.218945)
(0.00632186 0.399586 -0.0864614)
(0.00129861 0.334518 -0.0786654)
(-0.0213313 0.451794 -0.119706)
(-0.0127686 0.474626 -0.109038)
(-0.000529584 0.446938 -0.095517)
(-0.000751727 0.391359 -0.0862898)
(-0.019422 0.470198 -0.114029)
(-0.0202956 0.447631 -0.118055)
(-0.00452071 0.423137 -0.10232)
(-0.0130003 0.39789 -0.103226)
(-0.00291365 0.32415 -0.086542)
(-0.0134251 0.396411 -0.106609)
(-0.00965663 0.373321 -0.100114)
(0.0524208 0.996704 -0.328701)
(0.0397881 1.01294 -0.334455)
(0.028107 1.01482 -0.334832)
(0.027871 0.947167 -0.292797)
(0.0266099 0.951886 -0.296586)
(0.0520602 0.970759 -0.308963)
(0.0397817 0.990673 -0.325132)
(0.103656 0.963054 -0.330145)
(0.0810756 0.970583 -0.320879)
(0.0603586 1.04557 -0.362039)
(0.0844879 1.03402 -0.375479)
(0.0898546 0.931828 -0.290971)
(0.075707 0.881952 -0.256786)
(0.0908263 0.912523 -0.28071)
(0.108128 0.9088 -0.309862)
(0.0959822 0.976562 -0.345383)
(0.113853 0.905694 -0.292993)
(0.0985739 0.918501 -0.285847)
(0.108527 0.976103 -0.344045)
(0.0593149 0.951855 -0.305484)
(0.0326532 1.0722 -0.314709)
(0.0297196 1.06179 -0.315225)
(0.0284518 1.08029 -0.321181)
(0.0277093 1.0628 -0.30946)
(0.0123745 1.09938 -0.33273)
(0.00829189 1.09965 -0.329361)
(0.0135415 1.09173 -0.326459)
(-0.0205641 1.15185 -0.361138)
(0.00733783 1.10639 -0.34206)
(0.0156037 1.08681 -0.323871)
(0.0189337 1.07086 -0.3177)
(-0.000273441 1.0992 -0.336825)
(-0.01145 1.15215 -0.364939)
(-0.0304868 1.16684 -0.379353)
(-0.00963543 1.13791 -0.357074)
(-0.016808 1.13185 -0.357054)
(-0.0122213 1.15449 -0.367912)
(-0.0289219 1.18301 -0.389741)
(-0.00869271 1.1169 -0.345601)
(0.00450747 1.05237 -0.314019)
(0.0779155 0.716212 -0.296356)
(0.0742021 0.793428 -0.319157)
(0.0628577 0.734678 -0.313144)
(0.0636667 0.752971 -0.32814)
(0.0562385 0.66022 -0.296949)
(0.0445408 0.692124 -0.312578)
(0.0747524 0.811019 -0.323132)
(0.0846716 0.726134 -0.302447)
(0.0727717 0.589844 -0.261677)
(0.0672109 0.579836 -0.26312)
(0.0470402 0.669297 -0.299457)
(0.040885 0.744702 -0.323305)
(0.035205 0.766183 -0.327727)
(0.0757201 0.763049 -0.311489)
(0.0872493 0.691704 -0.30053)
(0.0755255 0.580456 -0.254349)
(0.0713667 0.524312 -0.223813)
(0.0892655 0.590908 -0.263618)
(0.0355633 0.716633 -0.321093)
(0.0597084 0.710489 -0.316275)
(0.0808655 0.570045 -0.250816)
(0.0778227 0.597545 -0.272537)
(0.0878311 0.597797 -0.259095)
(0.0470563 0.696047 -0.313583)
(0.0910727 0.627098 -0.2723)
(0.0691022 0.664795 -0.296306)
(0.0885013 0.805195 -0.304384)
(0.0850089 0.836186 -0.315547)
(0.0949637 0.780705 -0.286846)
(0.0951272 0.756263 -0.282058)
(0.110231 0.762988 -0.279337)
(0.110658 0.731848 -0.270145)
(0.0929305 0.947408 -0.345253)
(0.0917764 0.937709 -0.347264)
(0.0787521 1.00287 -0.35994)
(0.0861631 0.997551 -0.360895)
(0.0854028 0.951428 -0.352599)
(0.080421 0.954388 -0.362571)
(0.104919 0.840301 -0.319127)
(0.106497 0.831023 -0.307361)
(0.100816 0.830719 -0.317927)
(0.107874 0.786913 -0.294712)
(0.0941963 0.820149 -0.309983)
(0.104934 0.762056 -0.289929)
(0.114391 0.771065 -0.2789)
(0.11008 0.800343 -0.283557)
(0.0903469 0.968051 -0.341402)
(0.0853193 0.979404 -0.34465)
(0.111185 0.785381 -0.284858)
(0.109994 0.817924 -0.29731)
(0.0969841 0.950193 -0.327917)
(0.0944479 0.945327 -0.329407)
(0.128485 0.834084 -0.313608)
(0.138498 0.790617 -0.294094)
(0.114484 0.843559 -0.319057)
(0.10823 0.889452 -0.33926)
(0.0779091 0.975398 -0.381847)
(0.0774951 0.986561 -0.375806)
(0.0475198 0.988938 -0.356333)
(0.0808163 0.986048 -0.353758)
(0.129626 0.856003 -0.306878)
(0.142122 0.849986 -0.302127)
(0.106004 0.897496 -0.345465)
(0.0992465 0.950957 -0.326914)
(0.117353 0.838588 -0.317969)
(0.130445 0.83985 -0.320743)
(0.116706 0.880037 -0.342448)
(0.132458 0.834721 -0.307098)
(0.111276 0.91759 -0.306404)
(0.102349 0.944931 -0.322167)
(0.139819 0.883437 -0.320814)
(0.146213 0.846409 -0.297188)
(0.112245 0.859744 -0.328707)
(0.14731 0.880195 -0.302951)
(-0.140282 0.874685 -0.33261)
(-0.162276 0.827519 -0.305593)
(-0.110005 0.924513 -0.353072)
(-0.107334 0.959018 -0.371179)
(-0.179261 0.784248 -0.293053)
(-0.155497 0.89969 -0.344751)
(-0.153472 0.84905 -0.318633)
(-0.130914 1.01304 -0.401299)
(-0.124795 1.01809 -0.408458)
(-0.166449 0.939906 -0.368305)
(0.0102036 0.950751 -0.286585)
(-0.00457724 0.932093 -0.283654)
(0.0296447 0.902094 -0.272962)
(0.0202189 0.947578 -0.291574)
(0.0223176 1.0732 -0.388462)
(0.0329265 1.06526 -0.390239)
(0.0379327 1.00105 -0.331979)
(-0.0220795 1.02991 -0.361176)
(-0.0472291 0.957254 -0.322255)
(-0.000852882 1.09506 -0.406273)
(-0.0242731 1.03695 -0.378485)
(0.0182033 0.981986 -0.320022)
(-0.0238568 1.00157 -0.34549)
(-0.0435939 0.683203 -0.292692)
(-0.0438186 0.728719 -0.31011)
(-0.0184153 0.738021 -0.314328)
(-0.0150307 0.697728 -0.30649)
(-0.0477727 0.625183 -0.25445)
(-0.0454932 0.698265 -0.297943)
(0.00201658 0.635565 -0.28916)
(0.00840506 0.644147 -0.295421)
(-0.0103056 0.727063 -0.317946)
(-0.0367397 0.605312 -0.249145)
(-0.0134256 0.557632 -0.240901)
(-0.00329548 0.600098 -0.275621)
(0.068152 0.958802 -0.336131)
(0.0639348 0.966059 -0.333769)
(0.0924717 0.91591 -0.328206)
(0.0794242 0.848528 -0.34016)
(0.0623825 0.866218 -0.347138)
(0.0661995 0.953295 -0.343951)
(-0.0193449 1.10419 -0.35689)
(-0.0257519 1.09823 -0.361987)
(-0.0195953 1.11993 -0.357035)
(-0.0587114 1.03861 -0.35516)
(-0.0331157 1.19973 -0.399239)
(-0.0352081 1.09919 -0.363418)
(-0.0494821 1.14847 -0.374081)
(-0.0378707 1.17758 -0.392819)
(-0.0484552 1.09654 -0.36892)
(-0.0754358 1.06302 -0.369801)
(-0.0582823 1.17202 -0.404154)
(-0.0679045 1.05317 -0.362075)
(0.0805602 0.97738 -0.305881)
(0.0712388 0.974688 -0.328582)
(0.0828413 0.938178 -0.294003)
(0.0947501 0.963011 -0.323274)
(0.103363 0.9216 -0.312059)
(0.0267151 1.0505 -0.349384)
(0.0279661 1.03996 -0.339188)
(0.0625 1.0142 -0.310105)
(0.0573754 0.981817 -0.301108)
(0.0280659 1.0506 -0.349914)
(0.0257908 1.08453 -0.35035)
(0.0944925 0.988659 -0.324992)
(0.0890968 0.98619 -0.313023)
(0.0893127 0.874344 -0.257061)
(0.0966056 0.885269 -0.264678)
(0.0566361 1.02353 -0.316047)
(0.0614536 1.01673 -0.311842)
(0.073831 1.00486 -0.309701)
(0.00968065 0.513035 -0.235143)
(0.023152 0.438454 -0.20583)
(0.00409279 0.405362 -0.172397)
(0.00824462 0.373388 -0.166258)
(0.00495309 0.497609 -0.21446)
(-0.00194302 0.439378 -0.191893)
(0.00605359 0.412635 -0.187901)
(0.0123578 0.398976 -0.179712)
(-0.00225303 1.03694 -0.312716)
(-0.00741856 1.04018 -0.337648)
(-0.00640151 1.03968 -0.314029)
(-0.00132728 0.99516 -0.274286)
(-0.012803 1.07698 -0.329215)
(-0.00866248 1.05374 -0.297978)
(-0.0429276 1.17656 -0.394078)
(-0.0607398 1.15772 -0.392387)
(-0.0223278 1.16467 -0.383059)
(-0.0259543 1.17745 -0.372968)
(0.0164482 1.03661 -0.289562)
(-0.0352085 1.14324 -0.370921)
(-0.0322709 1.19524 -0.397716)
(-0.0302919 1.14746 -0.376132)
(0.00663254 1.04436 -0.290555)
(0.00600513 0.998998 -0.294421)
(-0.0138936 1.12828 -0.350709)
(-0.0190108 1.1434 -0.359133)
(-0.0188248 1.12793 -0.356951)
(0.00338722 1.12327 -0.344651)
(0.00807766 1.10281 -0.333217)
(-0.0333602 0.492494 -0.174753)
(-0.0227974 0.459331 -0.145123)
(-0.0235124 0.464447 -0.141571)
(-0.0134916 0.490064 -0.128273)
(-0.00438615 0.426118 -0.10578)
(-0.0164478 0.547771 -0.132217)
(-0.0138966 0.533513 -0.12621)
(-0.0088261 0.393035 -0.117288)
(-0.00840615 0.390503 -0.110571)
(-0.00274427 0.370555 -0.100993)
(-0.00639852 0.443344 -0.107214)
(-0.00712813 0.39904 -0.104492)
(-0.00796154 0.374262 -0.100636)
(-0.0229171 0.464076 -0.123486)
(-0.0207161 0.550455 -0.142816)
(-0.0220238 0.558213 -0.144075)
(-0.00481189 0.374286 -0.112983)
(-0.00234686 0.34851 -0.0919266)
(-0.00653613 0.365879 -0.0990239)
(-0.012651 0.471017 -0.129621)
(-0.00780494 0.388548 -0.114396)
(-0.0210293 0.514628 -0.148057)
(0.02686 0.918718 -0.258145)
(0.0327889 0.898192 -0.248252)
(0.0334717 0.917607 -0.25234)
(0.0373515 0.826668 -0.22291)
(0.0291854 0.976509 -0.282076)
(0.0301474 0.90609 -0.254905)
(0.0295889 0.960108 -0.278429)
(0.0469393 0.917142 -0.252293)
(0.0601388 0.88533 -0.239823)
(0.0566125 0.856436 -0.231523)
(0.0475896 0.90765 -0.256997)
(0.0442262 0.851099 -0.234142)
(0.0235017 1.0651 -0.318109)
(0.0192277 1.06541 -0.318318)
(0.0313134 1.03212 -0.300978)
(0.0455896 0.98981 -0.273637)
(0.0716091 0.939203 -0.25749)
(0.0573146 0.930041 -0.248805)
(0.0442451 1.00357 -0.286066)
(0.0354994 0.896968 -0.240015)
(0.0505531 0.903441 -0.249321)
(0.122325 0.791786 -0.287534)
(0.136414 0.783566 -0.264193)
(0.0943097 0.930805 -0.312689)
(0.0946593 0.91736 -0.30229)
(0.114316 0.837147 -0.267277)
(0.123177 0.805563 -0.253072)
(0.121108 0.802496 -0.255912)
(0.115301 0.809685 -0.261281)
(0.126894 0.832621 -0.282921)
(0.08443 0.918253 -0.315555)
(0.127967 0.773335 -0.27479)
(0.130897 0.72398 -0.246398)
(0.108766 0.85127 -0.281262)
(0.131341 0.708144 -0.226332)
(0.117729 0.867017 -0.300844)
(0.122681 0.798197 -0.285882)
(-0.0986914 0.810277 -0.280262)
(-0.0671276 0.807159 -0.251549)
(-0.0794599 0.811613 -0.266632)
(-0.0934341 0.807318 -0.266465)
(-0.131614 0.704262 -0.245349)
(-0.112445 0.662665 -0.229717)
(-0.0878168 0.693371 -0.223267)
(-0.122773 0.655862 -0.243506)
(-0.110473 0.607507 -0.226897)
(-0.0911042 0.62506 -0.192123)
(-0.109387 0.646662 -0.211623)
(-0.111457 0.629225 -0.212472)
(-0.124679 0.719078 -0.247902)
(-0.109868 0.639206 -0.235325)
(-0.108071 0.588779 -0.206832)
(-0.115389 0.630851 -0.212402)
(-0.136287 0.6795 -0.242306)
(-0.0337488 1.01696 -0.32249)
(-0.0284861 0.973485 -0.30702)
(-0.0515275 1.08817 -0.347314)
(-0.0666112 1.17447 -0.381481)
(-0.0652439 1.14417 -0.38296)
(-0.037353 1.01044 -0.332865)
(-0.0449209 1.15419 -0.362358)
(-0.0516252 1.14209 -0.368428)
(-0.0459306 1.11375 -0.343831)
(-0.0298169 1.03944 -0.308546)
(-0.0213686 0.996261 -0.293676)
(-0.0244374 1.08091 -0.324204)
(-0.0189445 1.02846 -0.302237)
(-0.0103162 1.00483 -0.282179)
(-0.00409765 0.998135 -0.278963)
(-0.0369956 1.0726 -0.333471)
(-0.0302889 1.07487 -0.321918)
(-0.0462385 1.04925 -0.319476)
(-0.0306203 1.03119 -0.308915)
(-0.0260671 0.406716 -0.151772)
(-0.0323075 0.429567 -0.14927)
(-0.0328184 0.49832 -0.218552)
(-0.0332527 0.462408 -0.196598)
(-0.0334148 0.428382 -0.158052)
(-0.065533 0.532131 -0.212756)
(-0.066286 0.528086 -0.22401)
(-0.0374126 0.437626 -0.1496)
(-0.0459459 0.447727 -0.150474)
(-0.0428672 0.47344 -0.200319)
(-0.0680477 0.504696 -0.176049)
(-0.0587105 0.482335 -0.153314)
(-0.0702676 0.525501 -0.209524)
(-0.0393322 0.448694 -0.157632)
(-0.059408 0.502389 -0.204244)
(-0.0304107 0.415344 -0.155967)
(-0.0407348 0.455129 -0.158197)
(-0.029981 0.463852 -0.207282)
(-0.026585 0.43396 -0.188333)
(-0.0564931 0.480975 -0.179164)
(-0.0252566 0.392468 -0.140543)
(-0.0347859 0.433489 -0.150886)
(-0.0589989 0.494216 -0.206944)
(-0.0233206 0.400097 -0.158694)
(-0.0380495 0.475058 -0.211103)
(-0.0679797 0.855913 -0.341897)
(-0.0976227 0.600525 -0.257814)
(-0.0930559 0.615647 -0.275771)
(-0.0859953 0.787551 -0.328324)
(-0.0769035 0.796605 -0.322471)
(-0.122944 0.59573 -0.232525)
(-0.121246 0.593236 -0.240447)
(-0.0878079 0.720171 -0.308765)
(-0.0882068 0.737585 -0.31545)
(-0.105278 0.662911 -0.297969)
(-0.10207 0.781978 -0.317873)
(-0.163068 0.699362 -0.268162)
(-0.102659 0.626651 -0.274893)
(-0.158941 0.718283 -0.26039)
(-0.130058 0.730256 -0.280891)
(-0.127506 0.592491 -0.221263)
(-0.112302 0.612716 -0.239819)
(-0.138973 0.642041 -0.246269)
(-0.14789 0.714179 -0.263447)
(-0.138063 0.626265 -0.231241)
(-0.149212 0.667268 -0.238296)
(-0.14284 0.637312 -0.250805)
(-0.0690611 0.577783 -0.225893)
(-0.0586306 0.576365 -0.232418)
(-0.0687814 0.580257 -0.222036)
(-0.0743947 0.584488 -0.217754)
(-0.0629323 0.665069 -0.207766)
(-0.0468132 0.642071 -0.185718)
(-0.0595812 0.726146 -0.211027)
(-0.0727946 0.717631 -0.212271)
(-0.0923596 0.628885 -0.219547)
(-0.0493468 0.561339 -0.174839)
(-0.048193 0.6208 -0.173099)
(-0.0873257 0.649762 -0.226122)
(-0.0723191 0.681547 -0.201155)
(-0.114006 0.626854 -0.263963)
(-0.0930632 0.617813 -0.283446)
(-0.119216 0.637859 -0.279798)
(-0.106396 0.629584 -0.286174)
(-0.0706731 0.51954 -0.220465)
(-0.0908391 0.543828 -0.231657)
(-0.12816 0.588082 -0.212931)
(-0.10064 0.535268 -0.193097)
(-0.0772348 0.540553 -0.236074)
(-0.0776664 0.512466 -0.207287)
(-0.0846487 0.519923 -0.213587)
(-0.113652 0.555049 -0.202876)
(-0.0934902 0.517713 -0.197024)
(-0.103992 0.582375 -0.244482)
(-0.0902602 0.528666 -0.217073)
(-0.0600337 0.95769 -0.340663)
(-0.0960434 0.872791 -0.296355)
(-0.111363 0.790192 -0.270531)
(-0.104277 0.884928 -0.321375)
(-0.110418 0.898581 -0.326797)
(-0.0928338 0.899947 -0.312018)
(-0.0861982 0.881912 -0.300093)
(-0.135555 0.768085 -0.296821)
(-0.118272 0.788566 -0.265745)
(-0.147387 0.708477 -0.250478)
(-0.134156 0.776832 -0.296523)
(-0.134237 0.773348 -0.288833)
(-0.140518 0.709503 -0.25155)
(-0.138989 0.763873 -0.273485)
(-0.0719586 0.934474 -0.327747)
(-0.0844947 1.00828 -0.37167)
(-0.0862514 1.0196 -0.385222)
(-0.137182 0.797267 -0.293142)
(-0.118892 0.847013 -0.31791)
(-0.0836822 1.00032 -0.379552)
(-0.117853 0.952773 -0.34861)
(-0.108596 0.84719 -0.299353)
(-0.119415 0.948285 -0.344788)
(-0.0965555 0.994559 -0.372258)
(0.0800273 0.860808 -0.246069)
(0.0308093 0.899805 -0.261998)
(-0.0276882 0.877661 -0.281237)
(-0.0145838 0.99944 -0.334948)
(-0.0159689 0.946743 -0.305315)
(0.060908 0.878358 -0.248623)
(0.0897207 0.894352 -0.281094)
(0.0161248 0.968139 -0.296202)
(0.0851045 0.972453 -0.334337)
(0.0824755 0.950041 -0.306123)
(0.0417095 1.01542 -0.338178)
(0.0252586 1.05118 -0.361404)
(0.0538684 1.03596 -0.353334)
(-0.0272294 0.397102 -0.0969079)
(-0.0287133 0.408854 -0.104343)
(-0.0566409 0.516918 -0.12826)
(-0.0474902 0.473943 -0.131775)
(-0.0177597 0.402571 -0.0891824)
(-0.0152614 0.382124 -0.0815531)
(-0.028506 0.431363 -0.0930713)
(-0.017332 0.430438 -0.0841561)
(-0.00829732 0.396738 -0.0786311)
(-0.0184723 0.467408 -0.0869382)
(-0.0110751 0.516206 -0.0895726)
(-0.0432417 0.491928 -0.116161)
(-0.0433362 0.539919 -0.119896)
(-0.023181 0.566644 -0.112705)
(-0.0271684 0.584098 -0.11534)
(-0.0126519 0.434632 -0.0848633)
(-0.00607325 0.410272 -0.0788498)
(-0.00820606 0.49145 -0.0852232)
(-0.0367083 0.562534 -0.115066)
(-0.0302197 0.452031 -0.0948838)
(-0.0478964 0.885557 -0.272171)
(-0.0282604 0.955117 -0.297351)
(-0.015663 1.00391 -0.343852)
(-0.00399269 0.947084 -0.299981)
(-0.0391283 0.878295 -0.276712)
(-0.0408247 0.950982 -0.313931)
(0.00668051 0.964653 -0.315227)
(0.00604672 0.91377 -0.278234)
(0.00976968 0.999244 -0.33905)
(0.0329506 0.989857 -0.324898)
(0.0322358 0.995819 -0.325629)
(0.007649 1.02352 -0.352768)
(0.0195088 0.963861 -0.303035)
(-0.0192358 0.836724 -0.23924)
(0.041195 0.956366 -0.306061)
(0.0420193 0.89932 -0.259466)
(0.0219094 0.883012 -0.251983)
(0.0599506 0.931417 -0.27769)
(-0.0789724 0.939887 -0.342765)
(-0.092245 0.97637 -0.354969)
(-0.0919993 0.912741 -0.3349)
(-0.0792684 0.907546 -0.345475)
(-0.0619221 0.840243 -0.329751)
(-0.0470141 1.00367 -0.363019)
(-0.045507 0.92301 -0.354867)
(-0.0248808 1.03697 -0.37177)
(-0.0322318 0.910918 -0.35653)
(0.00388693 0.995884 -0.370724)
(-0.0379276 1.07211 -0.378647)
(-0.0368273 1.13758 -0.390657)
(-0.0134702 1.01455 -0.363624)
(-0.00258872 1.13053 -0.383081)
(0.0173622 0.719333 -0.31379)
(0.0351555 0.651809 -0.307107)
(0.0199372 0.763708 -0.330844)
(0.0544808 0.727879 -0.326378)
(0.0149665 0.689333 -0.30231)
(0.0346538 0.60767 -0.28534)
(0.0201786 0.634811 -0.292757)
(0.0111174 0.75832 -0.333798)
(0.0404317 0.592743 -0.273329)
(0.0608744 0.7084 -0.305802)
(0.0278189 0.673317 -0.307229)
(0.0640591 0.648576 -0.285153)
(-0.0274725 0.436039 -0.193022)
(-0.0180518 0.395058 -0.176376)
(-0.0128142 0.377581 -0.167773)
(-0.0103144 0.32557 -0.134839)
(-0.0307246 0.430808 -0.184257)
(-0.0189138 0.385865 -0.169923)
(-0.0155364 0.350322 -0.14113)
(-0.0156583 0.323457 -0.128422)
(-0.0164484 0.347504 -0.13629)
(-0.0127816 0.3165 -0.125178)
(-0.0170091 0.387636 -0.173279)
(-0.0147507 0.358333 -0.148589)
(-0.0169083 0.36492 -0.135927)
(-0.0217878 0.390451 -0.150516)
(-0.0257161 0.434989 -0.190345)
(-0.0374282 0.442476 -0.179877)
(-0.0359988 0.435116 -0.175182)
(-0.0210311 0.380043 -0.142352)
(0.0838694 0.603355 -0.263443)
(0.0813148 0.713464 -0.296012)
(0.0794008 0.72612 -0.293405)
(0.0817187 0.525331 -0.231045)
(0.0707966 0.708633 -0.306812)
(0.0751031 0.525189 -0.232423)
(0.0756073 0.504889 -0.223879)
(0.0902149 0.572122 -0.248933)
(0.0624691 0.644513 -0.286297)
(0.0706031 0.551926 -0.253785)
(0.0725777 0.539572 -0.248143)
(0.0339678 0.917597 -0.389908)
(0.0388275 0.877297 -0.374921)
(0.00378746 0.964831 -0.385574)
(-0.000978453 0.970341 -0.396096)
(0.00671699 0.959285 -0.393791)
(0.00276624 0.938797 -0.383081)
(0.0238057 0.941142 -0.392776)
(0.0287848 0.90192 -0.385429)
(0.030577 0.948897 -0.402467)
(0.0274429 0.909327 -0.385389)
(0.0261282 0.861234 -0.366494)
(0.00148658 1.00835 -0.414553)
(0.0195869 0.95314 -0.381997)
(-0.013731 1.0831 -0.419551)
(-0.0134527 1.11053 -0.429587)
(0.0201554 0.979634 -0.414112)
(-0.000638839 1.06415 -0.422941)
(0.00922127 1.04777 -0.422995)
(0.00151519 1.08669 -0.439564)
(0.00670577 1.07479 -0.434907)
(0.0151073 0.630112 -0.130565)
(0.00306863 0.621995 -0.141878)
(0.0302099 0.721751 -0.159093)
(0.00757451 0.711187 -0.158812)
(0.0179802 0.602721 -0.126538)
(0.0296324 0.783124 -0.176309)
(0.0409126 0.750435 -0.173108)
(0.0371207 0.672927 -0.150667)
(-0.00609009 0.654903 -0.140644)
(0.0151517 0.65432 -0.138219)
(-0.0153215 0.642828 -0.142581)
(0.0198989 0.648818 -0.140549)
(0.023618 0.745179 -0.161338)
(0.022817 0.669805 -0.146577)
(0.012281 0.457347 -0.210338)
(0.0113467 0.431539 -0.191252)
(0.00470343 0.439997 -0.194576)
(0.00848205 0.50021 -0.236148)
(-0.00217379 0.35278 -0.142875)
(-0.000296116 0.423522 -0.188087)
(-0.00359348 0.436827 -0.192587)
(-0.0231261 0.466562 -0.21118)
(-0.0269314 0.540117 -0.235997)
(-0.0294816 0.592296 -0.273033)
(-0.0350811 0.596993 -0.268221)
(0.00624945 0.467772 -0.216023)
(-0.0169398 0.575094 -0.274449)
(-0.149362 0.786434 -0.294917)
(-0.146723 0.820423 -0.30443)
(-0.151544 0.836993 -0.291506)
(-0.0721552 0.886315 -0.342422)
(-0.0973194 0.91937 -0.325167)
(-0.0687715 0.969635 -0.344489)
(-0.116853 0.789063 -0.322312)
(0.0494035 0.86089 -0.337918)
(0.0448877 0.903427 -0.353023)
(0.030909 1.05737 -0.400724)
(0.0408943 1.00099 -0.37779)
(-0.0111035 1.13839 -0.41925)
(0.0245982 1.05094 -0.388919)
(-0.0368002 0.518374 -0.243737)
(-0.0179342 0.48829 -0.231366)
(-0.0180367 0.499633 -0.247004)
(-0.0213805 0.524794 -0.256931)
(-0.0350108 0.481526 -0.222883)
(-0.0696769 0.567578 -0.254046)
(-0.0804106 0.590104 -0.270111)
(-0.0677508 0.625298 -0.290707)
(-0.0668863 0.572282 -0.269405)
(-0.0355973 0.594092 -0.283342)
(-0.0267717 0.584112 -0.283043)
(0.0921507 0.888853 -0.314171)
(0.0875925 0.903424 -0.314205)
(0.0893769 0.914738 -0.293565)
(0.0916067 0.901043 -0.308505)
(0.0960166 0.860099 -0.287271)
(0.0820901 0.9601 -0.299191)
(0.0952005 0.903511 -0.291757)
(0.0297229 1.05463 -0.367844)
(0.0359735 1.04322 -0.359932)
(0.0574678 0.980648 -0.336238)
(0.0503308 0.981723 -0.350602)
(0.0792813 0.982939 -0.300842)
(0.0727843 0.996454 -0.308129)
(0.0920289 0.920116 -0.299889)
(0.0457283 1.06016 -0.344739)
(0.0325516 1.05355 -0.356504)
(0.0530649 0.960038 -0.344229)
(0.0393057 1.05372 -0.354025)
(0.0868544 0.915858 -0.311292)
(0.121525 0.764997 -0.250806)
(0.119838 0.707901 -0.241341)
(0.112533 0.767525 -0.272699)
(0.1095 0.716326 -0.253756)
(0.111526 0.745383 -0.248281)
(0.115202 0.8036 -0.267428)
(0.102303 0.877783 -0.281497)
(0.103433 0.87667 -0.275808)
(0.102205 0.822215 -0.289273)
(0.106271 0.862326 -0.274912)
(0.103365 0.940331 -0.324315)
(0.093076 0.967195 -0.334037)
(0.10714 0.941442 -0.320439)
(0.000115688 0.758098 -0.187631)
(0.0444504 0.804076 -0.202653)
(0.0575053 0.789184 -0.202773)
(0.0520397 0.870191 -0.234297)
(0.050824 0.854899 -0.234794)
(0.0396641 0.772488 -0.192648)
(0.0513508 0.832494 -0.221957)
(-0.0209355 0.735677 -0.200739)
(0.0113299 0.72708 -0.165828)
(0.0136643 0.864555 -0.244739)
(0.0665909 0.845116 -0.217335)
(-0.0411053 0.782218 -0.216798)
(-0.05875 0.763891 -0.216807)
(-0.0369262 0.811688 -0.231921)
(0.0069991 0.8373 -0.229048)
(-0.0143647 0.87999 -0.271471)
(-0.0438427 0.847498 -0.253043)
(-0.0415124 0.835234 -0.237338)
(-0.0372531 0.779035 -0.216804)
(-0.0478897 0.820994 -0.256509)
(0.0297927 1.06686 -0.313321)
(0.035044 0.953145 -0.273811)
(0.0311279 0.893721 -0.248965)
(0.0172498 1.07175 -0.32541)
(0.0189697 0.966888 -0.288517)
(0.0226336 1.06859 -0.315995)
(0.0201695 1.09149 -0.329843)
(0.0215925 0.90438 -0.264679)
(0.014893 0.95475 -0.286874)
(0.0374532 0.865122 -0.230896)
(0.0118133 1.09077 -0.338294)
(0.0215357 0.908564 -0.26078)
(0.0285208 0.856382 -0.244667)
(-0.0920156 1.12679 -0.416057)
(-0.0769773 1.13808 -0.418033)
(-0.0532436 1.11206 -0.424655)
(-0.0979346 1.11552 -0.404604)
(-0.0776965 1.14596 -0.414421)
(-0.0406984 1.1288 -0.452165)
(-0.0418271 1.11856 -0.447874)
(-0.0294381 1.10739 -0.444239)
(-0.0795304 1.13676 -0.421664)
(-0.103014 1.09049 -0.39903)
(-0.111588 1.10566 -0.423851)
(-0.0884087 1.11257 -0.424425)
(-0.0432174 1.11191 -0.43983)
(-0.0562675 1.1371 -0.443956)
(-0.099623 1.10097 -0.414451)
(-0.0785602 1.11275 -0.41786)
(0.0458799 0.631483 -0.289933)
(0.0477257 0.662976 -0.299287)
(0.0757679 0.57568 -0.255318)
(0.0555632 0.552623 -0.248715)
(0.0843125 0.598742 -0.255193)
(0.0706257 0.514247 -0.221737)
(0.0701255 0.643915 -0.276744)
(0.0399941 0.657178 -0.297344)
(0.0757385 0.562311 -0.24317)
(0.0694456 0.549902 -0.24448)
(0.0748015 0.715514 -0.304471)
(0.0658219 0.766919 -0.3182)
(0.0465156 0.735312 -0.326251)
(0.038819 0.735663 -0.31815)
(0.0614368 0.56375 -0.255343)
(0.0529629 0.709042 -0.312222)
(0.0576483 0.760874 -0.321328)
(0.0685405 0.733369 -0.309267)
(0.0555088 0.659592 -0.295774)
(-0.0995032 0.93596 -0.329148)
(-0.0845996 1.03161 -0.36205)
(-0.103405 0.842168 -0.311779)
(-0.116074 0.736706 -0.264114)
(-0.0686161 0.932708 -0.336213)
(-0.083754 0.980155 -0.342675)
(-0.112959 0.789342 -0.292918)
(-0.103368 0.877054 -0.305686)
(-0.0816663 0.883546 -0.323297)
(-0.116481 0.818434 -0.307012)
(-0.109104 0.802396 -0.313661)
(0.0510413 0.883339 -0.250246)
(0.0568903 0.888527 -0.255793)
(0.060179 0.89495 -0.254984)
(0.0636965 0.849531 -0.214786)
(0.0643837 0.829726 -0.201193)
(-0.0101816 0.932287 -0.28534)
(-0.0214764 0.945229 -0.31152)
(-0.028664 0.914933 -0.28513)
(-0.0141739 0.913813 -0.286331)
(-0.0447566 0.870167 -0.267837)
(-0.0364958 0.877867 -0.254039)
(0.0545419 0.90032 -0.261102)
(0.0706899 0.826583 -0.202872)
(-0.0619691 0.863365 -0.252595)
(-0.0388054 0.848753 -0.235555)
(-0.0489997 0.837053 -0.235718)
(-0.0703212 0.817909 -0.23114)
(0.0460733 0.824473 -0.191186)
(0.0210408 0.803475 -0.189282)
(-0.0569895 0.772695 -0.200993)
(-0.0354685 0.844398 -0.22337)
(0.0660539 0.854374 -0.214265)
(0.0157832 0.788001 -0.177511)
(0.0331701 0.829625 -0.198602)
(0.0169885 0.944992 -0.350828)
(0.0204851 0.879207 -0.329035)
(0.0161059 0.918444 -0.353278)
(0.0167209 0.96487 -0.364197)
(0.0214554 0.936461 -0.350953)
(0.0217795 0.902922 -0.342346)
(0.0278189 0.900504 -0.344094)
(-0.00250627 1.11819 -0.416875)
(0.00222121 1.06521 -0.393795)
(0.0191226 0.962947 -0.377024)
(0.00922797 1.04756 -0.388736)
(0.00294621 1.11427 -0.418477)
(0.0222341 1.07684 -0.410144)
(-0.00443883 1.10601 -0.405444)
(-0.00461368 1.12483 -0.420533)
(0.0265501 0.941167 -0.367635)
(0.0220147 0.927459 -0.361862)
(0.0190654 1.04239 -0.40406)
(0.0265747 1.04247 -0.402835)
(0.087244 0.968183 -0.296232)
(0.089562 0.979197 -0.307265)
(0.0715705 0.97106 -0.280335)
(0.0756478 0.940925 -0.274755)
(0.0309175 1.07495 -0.338672)
(0.0310022 1.06693 -0.355913)
(0.0461105 1.05849 -0.335154)
(0.0248989 1.07593 -0.341957)
(0.00823605 1.12367 -0.363186)
(0.100794 0.986358 -0.305219)
(0.0890143 0.889451 -0.254095)
(0.100717 0.827792 -0.237391)
(0.0486148 1.03807 -0.312069)
(0.0773217 0.991473 -0.303727)
(0.0383873 1.08209 -0.332057)
(0.0652615 1.03293 -0.313644)
(0.0543942 1.02486 -0.301226)
(0.121244 0.849788 -0.345303)
(0.124236 0.841342 -0.346088)
(0.0972027 0.950766 -0.395298)
(0.133089 0.763272 -0.313593)
(0.112045 0.857239 -0.338582)
(0.0858056 0.941609 -0.37398)
(0.0980945 0.935973 -0.387016)
(0.109139 0.887251 -0.372919)
(0.131195 0.826011 -0.340575)
(0.00234547 0.4622 -0.106331)
(0.00248143 0.479255 -0.105938)
(0.0090993 0.459843 -0.0998474)
(0.00932347 0.43194 -0.0935127)
(0.0241795 0.53009 -0.113205)
(0.0144683 0.449611 -0.0960905)
(0.00450906 0.591376 -0.1295)
(0.00519357 0.503754 -0.109032)
(0.0165582 0.478699 -0.0968852)
(0.0264594 0.54967 -0.11294)
(0.0264021 0.492556 -0.103603)
(0.0223016 0.559669 -0.125355)
(0.0128557 0.426656 -0.0937502)
(0.0329271 0.477072 -0.0895722)
(0.0274229 0.52706 -0.111652)
(0.018725 0.454114 -0.0939732)
(0.0810589 0.865139 -0.237594)
(0.0877663 0.881585 -0.243527)
(0.0803247 0.824023 -0.230451)
(0.0842 0.785606 -0.218449)
(0.0665026 0.993801 -0.293055)
(0.0697518 1.02168 -0.307496)
(0.0791797 0.997177 -0.311935)
(0.102424 0.78305 -0.223904)
(0.104976 0.728624 -0.212729)
(0.108501 0.789555 -0.244917)
(0.107999 0.729093 -0.211732)
(0.082734 0.877667 -0.239894)
(0.100133 0.784779 -0.226841)
(0.0744523 1.00752 -0.29971)
(0.0923846 0.923399 -0.288347)
(0.0910894 0.944955 -0.295398)
(0.102826 0.816925 -0.247007)
(0.112552 0.786001 -0.233865)
(0.112154 0.828241 -0.255735)
(0.0996075 0.799886 -0.235502)
(0.0979346 0.884677 -0.271944)
(-0.0247941 0.588281 -0.293581)
(0.00968154 0.582069 -0.296304)
(-0.0142164 0.591353 -0.299455)
(-0.028957 0.591675 -0.294766)
(-0.00236964 0.563829 -0.290361)
(-0.0294106 0.56904 -0.287424)
(-0.0111034 0.528377 -0.266212)
(-0.00684145 0.546303 -0.276508)
(-0.0326451 0.534743 -0.26214)
(0.0040187 0.434003 -0.218961)
(0.0159403 0.484858 -0.248794)
(0.0195029 0.45375 -0.235029)
(0.00715186 0.395669 -0.197065)
(0.000490159 0.448239 -0.220633)
(0.0158199 0.458781 -0.239238)
(-0.00748757 0.407394 -0.19071)
(0.00814314 0.379942 -0.184739)
(-0.00673531 0.407542 -0.201466)
(-0.0111151 0.426723 -0.206735)
(-0.0279921 0.486679 -0.231033)
(-0.0100607 0.444364 -0.228126)
(-0.0768746 0.587939 -0.168643)
(-0.0457874 0.49973 -0.134727)
(-0.0661117 0.538184 -0.150674)
(-0.0406371 0.508747 -0.11838)
(-0.0365634 0.516903 -0.111274)
(-0.0198977 0.661266 -0.122337)
(-0.0138828 0.617036 -0.118645)
(-0.0337046 0.516642 -0.109075)
(-0.0097306 0.645545 -0.114537)
(-0.0232562 0.576174 -0.118662)
(-0.0672721 0.609909 -0.156165)
(-0.0117932 0.658491 -0.123629)
(-0.022185 0.633014 -0.126315)
(-0.0669921 0.633102 -0.155269)
(-0.0258003 0.381629 -0.150582)
(-0.0165117 0.359763 -0.147504)
(-0.0278824 0.391408 -0.168472)
(-0.0370208 0.43147 -0.17969)
(-0.038404 0.426371 -0.167927)
(-0.0218223 0.384905 -0.167116)
(-0.0463605 0.487295 -0.220306)
(-0.0595249 0.489229 -0.21454)
(-0.0611683 0.49818 -0.22671)
(-0.0494671 0.51148 -0.243867)
(-0.050956 0.460172 -0.186978)
(-0.030498 0.399943 -0.162151)
(-0.0267195 0.419276 -0.19089)
(-0.0260315 0.413839 -0.191787)
(-0.05858 0.474919 -0.205109)
(-0.040103 0.469941 -0.216434)
(-0.0399149 0.482399 -0.227351)
(0.127102 0.782298 -0.238076)
(0.130179 0.749431 -0.22736)
(0.106145 0.867499 -0.267437)
(0.131219 0.750364 -0.237271)
(0.128862 0.700916 -0.226056)
(0.123425 0.78106 -0.246286)
(0.129737 0.814623 -0.287107)
(0.130902 0.761776 -0.260011)
(0.133397 0.759676 -0.254615)
(0.133025 0.717631 -0.246361)
(0.0984139 0.949106 -0.315684)
(0.114517 0.930998 -0.325995)
(0.10187 0.919799 -0.292938)
(0.12508 0.828867 -0.290957)
(0.128119 0.757211 -0.263629)
(0.13161 0.826195 -0.27252)
(0.125962 0.831777 -0.275611)
(0.0270496 0.967594 -0.352438)
(-0.00180616 0.986968 -0.349044)
(0.0305159 0.985047 -0.344415)
(0.0563083 0.999303 -0.336729)
(0.0107617 1.02937 -0.332934)
(0.0466693 1.04562 -0.315392)
(-0.0271686 0.966899 -0.346129)
(0.0508181 0.999682 -0.31804)
(0.0785126 0.989213 -0.315094)
(-0.0317798 1.0181 -0.339662)
(0.00505383 1.01435 -0.33792)
(0.0186758 1.05305 -0.333976)
(0.0295958 1.08268 -0.319841)
(0.0709318 1.00874 -0.291987)
(-0.0413165 0.808102 -0.212387)
(-0.145937 0.842982 -0.294825)
(0.03049 0.813618 -0.194922)
(0.0393124 0.784033 -0.186273)
(-0.0173307 0.926461 -0.274962)
(0.0150417 0.883318 -0.252965)
(0.0346217 0.876182 -0.229321)
(0.0435755 0.836314 -0.200994)
(-0.0335156 0.893155 -0.252942)
(-0.0377335 0.895639 -0.26815)
(-0.021953 0.919318 -0.274944)