/*--------------------------------*- C++ -*----------------------------------*\
| =========                 |                                                 |
| \\      /  F ield         | OpenFOAM: The Open Source CFD Toolbox           |
|  \\    /   O peration     | Version:  v1612+                                |
|   \\  /    A nd           | Web:      www.OpenFOAM.com                      |
|    \\/     M anipulation  |                                                 |
\*---------------------------------------------------------------------------*/
FoamFile
{
    version     2.0;
    format      ascii;
    class       volVectorField;
    location    "100";
    object      wallShearStress;
}
// * * * * * * * * * * * * * * * * * * * * * * * * * * * * * * * * * * * * * //

dimensions      [0 2 -2 0 0 0 0];

internalField   uniform (0 0 0);

boundaryField
{
    WALL
    {
        type            calculated;
        value           nonuniform List<vector> 
1540
(
(-0.00209034 -0.0121318 0.00206897)
(-0.00240738 -0.0127832 0.00225443)
(-0.000111008 -0.00857527 0.00243223)
(2.90081e-05 -0.00798261 0.00271081)
(2.33033e-05 -0.00840087 0.00242534)
(7.68424e-05 -0.00826492 0.00256833)
(-0.000138433 -0.00856668 0.00300374)
(-0.000107537 -0.00864022 0.00302038)
(-0.00692416 -0.0197855 0.0108325)
(-0.00735018 -0.0191844 0.00944256)
(-0.00273468 -0.022068 0.010789)
(-0.00310688 -0.0216622 0.0110225)
(-0.00219666 -0.015098 0.00392594)
(-0.00190615 -0.0163186 0.00404407)
(-0.00138677 -0.0102143 0.00462763)
(-0.0008411 -0.00969156 0.00426792)
(0.000173464 -0.0080897 0.00255902)
(7.74598e-05 -0.0084039 0.00253367)
(-0.00179641 -0.0133941 0.00364858)
(-0.000928114 -0.0191508 0.00818281)
(-0.00078893 -0.0184017 0.00741982)
(-0.00165665 -0.0163375 0.00401935)
(-0.00169433 -0.0171775 0.00412942)
(-0.00707956 -0.0174792 0.00605251)
(-0.00662298 -0.0170685 0.00537713)
(-0.00763383 -0.0177408 0.00677948)
(-0.00643408 -0.0161365 0.00489856)
(-0.00704132 -0.0180609 0.00642992)
(-0.00185035 -0.0115155 0.00496204)
(-0.00184294 -0.0113207 0.00478209)
(-0.00156605 -0.0109722 0.00453275)
(-0.00213103 -0.011538 0.00483318)
(-0.00210764 -0.0118138 0.00452925)
(-0.00182931 -0.0114509 0.00467069)
(-0.0022385 -0.0130818 0.00518919)
(-0.000683566 -0.0090788 0.00387977)
(-0.0011321 -0.00984222 0.00443085)
(-0.000700462 -0.0093774 0.0041044)
(-0.00108667 -0.00953277 0.00428522)
(-0.000851664 -0.00930426 0.00408808)
(-0.000896215 -0.00952083 0.0042283)
(-0.000971704 -0.0112747 0.00238875)
(-0.00133017 -0.0116497 0.00243281)
(-0.000750235 -0.0106944 0.00249346)
(-0.00115526 -0.0115681 0.00252331)
(-0.000827302 -0.0109723 0.00237108)
(-0.00109801 -0.0112025 0.00237244)
(-0.00167853 -0.0179456 0.00412483)
(-0.00194512 -0.0177636 0.00442835)
(-0.00147427 -0.018668 0.00446662)
(-0.00193052 -0.0181246 0.00422201)
(-0.00179223 -0.0190452 0.00433083)
(-0.00284109 -0.0246964 0.00375086)
(-0.00328852 -0.0245835 0.0038681)
(-0.00339691 -0.0251042 0.00346209)
(-0.00276891 -0.0272058 0.00416637)
(-0.00208666 -0.0255479 0.00397434)
(-0.00388755 -0.0252273 0.00396748)
(-0.00100396 -0.0201705 0.00870757)
(-0.00121793 -0.0204311 0.00903051)
(-0.00163925 -0.0205916 0.00965111)
(-0.00184008 -0.0192127 0.00866718)
(-0.00176018 -0.0206851 0.0091099)
(-0.00172412 -0.0199472 0.00900897)
(-0.00268615 -0.0147797 0.00404479)
(-0.00282942 -0.0165946 0.00408578)
(-0.00306324 -0.0152601 0.00415953)
(-0.00332565 -0.0169796 0.00413692)
(-0.00281099 -0.015956 0.00411415)
(-0.00317435 -0.015889 0.00414361)
(-7.69215e-05 -0.0091006 0.00355151)
(-0.00024243 -0.00960223 0.00410641)
(-0.000153393 -0.00924684 0.00388006)
(-0.000116647 -0.00895961 0.00352134)
(-0.000419582 -0.00942919 0.00395991)
(-0.000329579 -0.00985621 0.00416517)
(-0.00348659 -0.0162943 0.00542022)
(-0.00350751 -0.0168609 0.00583836)
(-0.00362551 -0.0161941 0.00566639)
(-0.00138891 -0.0229193 0.00466986)
(-0.000601422 -0.0233672 0.00542203)
(-0.000923514 -0.0243448 0.00510768)
(-0.00100134 -0.0227746 0.00464676)
(-0.000901926 -0.024277 0.00571484)
(-0.00138871 -0.0225135 0.00477847)
(-0.00308961 -0.0129979 0.00204838)
(-0.00362027 -0.0138965 0.00253977)
(-0.00412101 -0.0143316 0.00256926)
(-0.00360922 -0.0140752 0.00242418)
(-0.00248592 -0.0129491 0.00212163)
(-0.00274188 -0.0130506 0.00215109)
(-0.00133972 -0.0121938 0.0032298)
(-0.0011358 -0.0118489 0.00317224)
(-0.00184807 -0.0130807 0.00340519)
(-0.00173401 -0.0127591 0.00344023)
(-0.00139455 -0.0125682 0.00339909)
(-0.00118287 -0.0119029 0.00318386)
(-0.00234543 -0.0135391 0.00380798)
(-0.00266625 -0.0145647 0.00428822)
(-0.0024372 -0.0146109 0.00440237)
(-0.00161595 -0.0128421 0.00336403)
(-0.00200374 -0.013373 0.00337347)
(-0.00170465 -0.0125947 0.00313679)
(-0.00240359 -0.0134518 0.00338051)
(-0.00144125 -0.0124956 0.0031112)
(-0.0020701 -0.0132913 0.00342144)
(-0.00157464 -0.0125306 0.00311751)
(-0.000929815 -0.0106493 0.00202801)
(-0.00132011 -0.0113889 0.00202722)
(-0.00147428 -0.0117674 0.00194829)
(-0.00105225 -0.0107015 0.00181265)
(-0.000805436 -0.0105775 0.00189092)
(-0.00174751 -0.0118844 0.00200136)
(-0.000295417 -0.00959887 0.00201873)
(-0.000148272 -0.00948001 0.00215539)
(-1.48949e-05 -0.00903916 0.00210879)
(0.000168334 -0.00888336 0.0024205)
(-6.28462e-06 -0.00911854 0.00228924)
(-0.000326476 -0.00955165 0.00190929)
(-0.000773446 -0.0104311 0.00474067)
(-0.000424811 -0.00954977 0.00414234)
(-0.00122007 -0.0104627 0.00479891)
(-0.00059038 -0.00947464 0.0040675)
(-0.000234171 -0.00891671 0.00360845)
(-0.000156209 -0.00921711 0.00358855)
(-0.000554764 -0.00920298 0.00386184)
(-0.000312867 -0.00944662 0.00391696)
(0.000130039 -0.00861115 0.00332997)
(0.000229143 -0.00847409 0.00296711)
(0.000155359 -0.00852776 0.00319313)
(0.000282052 -0.00862821 0.00301868)
(0.000235314 -0.0085636 0.00309191)
(0.000196746 -0.00840786 0.00314766)
(-0.00487876 -0.0153135 0.00364756)
(-0.00494825 -0.01567 0.00369127)
(-0.0037848 -0.0142208 0.0025903)
(-0.00437462 -0.0150699 0.00332485)
(-0.00412778 -0.0145438 0.0026805)
(-0.00426654 -0.0143374 0.00289335)
(-0.00291968 -0.0129197 0.0021336)
(-0.00234787 -0.0124577 0.00203951)
(-0.00310279 -0.0135069 0.00231502)
(-0.00245825 -0.0127198 0.0021156)
(-0.00344396 -0.0135337 0.00240382)
(-0.00200012 -0.01225 0.00207038)
(-0.000565278 -0.0100032 0.00210513)
(-0.000964323 -0.0106264 0.00184542)
(-0.0012949 -0.011177 0.00191771)
(-0.000797849 -0.01051 0.00206662)
(-0.00057823 -0.00996871 0.00199717)
(-0.00134601 -0.0112152 0.00204987)
(-0.00344433 -0.0176547 0.00406329)
(-0.00381639 -0.0186778 0.00424799)
(-0.00369995 -0.0195776 0.00415049)
(-0.00348926 -0.0187303 0.00401959)
(-0.00370949 -0.0181486 0.00430342)
(-0.00334337 -0.0194131 0.00391136)
(-0.00256722 -0.0208185 0.00408326)
(-0.00231107 -0.022102 0.0043912)
(-0.00229539 -0.0210346 0.00429325)
(-0.00285645 -0.0208222 0.0043272)
(-0.00191718 -0.0211097 0.00402321)
(-0.00267034 -0.0204206 0.00409327)
(-0.00520023 -0.0147076 0.00540856)
(-0.00528033 -0.0152764 0.00564915)
(-0.0057398 -0.0168978 0.00536314)
(-0.0059566 -0.0166943 0.00506068)
(-0.0056798 -0.01627 0.00548467)
(-0.00358327 -0.0152593 0.00517325)
(-0.00341917 -0.0147943 0.00523435)
(-0.00421972 -0.0154648 0.00546834)
(-0.00219491 -0.0115082 0.00530108)
(-0.00345952 -0.013025 0.00560483)
(-0.00243869 -0.0119384 0.00558279)
(-0.00287771 -0.0121819 0.00556669)
(-0.00310527 -0.0124842 0.00559316)
(-0.00375825 -0.013409 0.00576114)
(-0.00196389 -0.0112147 0.00511005)
(-0.00187312 -0.0106185 0.00482943)
(-0.000978278 -0.00987781 0.00440329)
(-0.000571573 -0.00956989 0.00411291)
(-0.0010663 -0.0103128 0.00467799)
(-0.00149054 -0.0106383 0.00489217)
(-0.00356241 -0.0137167 0.00573613)
(-0.0040228 -0.0139413 0.00563098)
(-0.00445023 -0.0139378 0.0052337)
(-0.00341499 -0.0128643 0.00536837)
(-0.00422188 -0.015089 0.00576856)
(-0.00484363 -0.0149441 0.00544247)
(-0.00428942 -0.0192113 0.00415839)
(-0.00428428 -0.0176949 0.00441274)
(-0.00417491 -0.0186927 0.00443748)
(-0.00483187 -0.0200672 0.00436479)
(-0.00489502 -0.0182168 0.00462653)
(-0.00465781 -0.0187599 0.00451247)
(-0.00366787 -0.0195908 0.00381251)
(-0.00396934 -0.019179 0.00407903)
(-0.00349786 -0.0206073 0.00390905)
(-0.00326199 -0.0200559 0.00370151)
(-0.00364539 -0.0187068 0.00393371)
(-0.00345791 -0.0194645 0.0038815)
(-0.00463716 -0.015717 0.00509092)
(-0.00592723 -0.0187029 0.00511038)
(-0.00502274 -0.0177111 0.00540761)
(-0.00504202 -0.0166391 0.00533593)
(-0.00539634 -0.0170788 0.00531894)
(-0.00515665 -0.0182264 0.00482368)
(-0.00507607 -0.022508 0.00393638)
(-0.00524591 -0.0238525 0.00390962)
(-0.00468638 -0.0232306 0.00370884)
(-0.00569391 -0.0227894 0.00396542)
(-0.00632254 -0.0221797 0.00407912)
(-0.00553867 -0.021519 0.00394538)
(-0.00229748 -0.012939 0.00407685)
(-0.00230087 -0.0135055 0.00435371)
(-0.00239108 -0.0123408 0.00422986)
(-0.00213038 -0.012887 0.00435353)
(-0.00238852 -0.0129187 0.00447272)
(-0.00306545 -0.0149735 0.00451037)
(-0.00313624 -0.0148776 0.00464996)
(-0.00305817 -0.0146546 0.00486657)
(-0.00317101 -0.0152654 0.00432911)
(-0.00343698 -0.0156626 0.00463878)
(-0.00291609 -0.0144236 0.00462774)
(-0.00230211 -0.0172521 0.00380493)
(-0.00237226 -0.017465 0.00391339)
(-0.00238161 -0.0160197 0.00396093)
(-0.0024999 -0.0167276 0.00390346)
(-0.00235089 -0.0169458 0.0040434)
(-0.00237031 -0.015858 0.00387365)
(-0.00556866 -0.0183255 0.00692664)
(-0.00569902 -0.0168882 0.00613853)
(-0.00544429 -0.0184287 0.00766685)
(-0.00603852 -0.0175044 0.00638612)
(-0.00608406 -0.0179889 0.00758256)
(-0.0057631 -0.018772 0.00798086)
(-0.00542449 -0.0160917 0.00481185)
(-0.0048766 -0.0158224 0.00417794)
(-0.0052923 -0.0160088 0.0044132)
(-0.00552466 -0.0166972 0.005147)
(-0.00469558 -0.0153218 0.00385967)
(-0.00260345 -0.0135864 0.00324643)
(-0.00308107 -0.0141717 0.0038291)
(-0.00261828 -0.0140081 0.00361551)
(-0.00274171 -0.0137133 0.0034717)
(-0.00242693 -0.0133586 0.00320699)
(-0.00324938 -0.0145965 0.0038881)
(-0.00191692 -0.012175 0.00260189)
(-0.00198135 -0.0124713 0.00244666)
(-0.0024904 -0.0135308 0.00313426)
(-0.00271571 -0.0137411 0.00291266)
(-0.00232377 -0.0130497 0.00255384)
(-0.00219372 -0.0129761 0.00289442)
(-0.0034762 -0.014158 0.00306566)
(-0.00207815 -0.0120989 0.00208172)
(-0.00291318 -0.0133604 0.00240404)
(-0.00250037 -0.0132315 0.00242981)
(-0.00303618 -0.0140899 0.00288299)
(-0.00262831 -0.0132881 0.0024968)
(-0.00297246 -0.0132725 0.00245769)
(-0.00326376 -0.0142085 0.00300984)
(-0.0028116 -0.019895 0.00969296)
(-0.00161938 -0.021202 0.00955794)
(-0.00251618 -0.0210511 0.00976581)
(-0.00179327 -0.0205046 0.00949303)
(-0.00267341 -0.0208066 0.010068)
(-0.0019046 -0.0206164 0.00966699)
(-0.000833407 -0.0223797 0.00895202)
(-0.00123734 -0.0204157 0.00901804)
(-0.000733906 -0.0216337 0.0091895)
(-0.000126067 -0.0201322 0.00748766)
(-0.000522482 -0.0228036 0.00983473)
(-0.000429172 -0.0210915 0.00865168)
(-0.000168093 -0.0225804 0.00755595)
(-0.000670082 -0.0222693 0.00905385)
(-0.000425983 -0.0213104 0.00781136)
(-4.35398e-05 -0.0211879 0.00745492)
(-0.000119856 -0.0220632 0.00806615)
(-0.00298344 -0.0142338 0.00392584)
(-0.00331929 -0.0148917 0.00422201)
(-0.00358194 -0.0148398 0.00425967)
(-0.00378728 -0.0154176 0.00483595)
(-0.00376032 -0.015174 0.00465191)
(-0.00275801 -0.0191581 0.00904725)
(-0.00389196 -0.0182354 0.00862258)
(-0.00308127 -0.018386 0.00872222)
(-0.00353199 -0.0195148 0.00884088)
(-0.00318904 -0.0191521 0.00913631)
(-0.00394225 -0.0190756 0.00903478)
(-0.00419098 -0.0163476 0.00551145)
(-0.00477732 -0.0171487 0.00590645)
(-0.00474044 -0.01752 0.00581791)
(-0.00354769 -0.0205029 0.00960848)
(-0.00389353 -0.0197603 0.00891958)
(-0.00436618 -0.0191871 0.00861983)
(-0.00395781 -0.0196901 0.00932856)
(-0.00350956 -0.0198284 0.00935625)
(-0.00456412 -0.0196996 0.00901855)
(-0.00404698 -0.0161997 0.00575367)
(-0.00463299 -0.0177335 0.00694426)
(-0.00419059 -0.017372 0.00673619)
(-0.00398526 -0.0172927 0.00628381)
(-0.00387421 -0.0160267 0.00561648)
(-0.00440498 -0.016559 0.0062603)
(-0.00444583 -0.0183123 0.00770699)
(-0.00443908 -0.0173553 0.00711625)
(-0.00423267 -0.0177294 0.00789817)
(-0.00409892 -0.0188469 0.00831754)
(-0.00391201 -0.0185382 0.00820945)
(-0.00463397 -0.0179674 0.00753328)
(-0.000322716 -0.0189763 0.00694421)
(-0.000350887 -0.0193188 0.00630735)
(-0.000271167 -0.020446 0.00627779)
(-0.00041355 -0.0202645 0.00668666)
(-0.00044173 -0.0200102 0.00581101)
(-0.000196425 -0.0193431 0.00598096)
(-0.000283091 -0.0195083 0.00699558)
(-0.00044504 -0.0204295 0.00670088)
(-0.000532839 -0.0181355 0.00708491)
(-0.000450771 -0.0179048 0.00691693)
(-0.000406919 -0.0193483 0.00708115)
(-0.000308273 -0.0185043 0.00694132)
(-0.00060328 -0.0195357 0.00758488)
(-0.000498835 -0.0187126 0.00764613)
(-0.00166431 -0.0180472 0.00804894)
(-0.001601 -0.0184278 0.00836948)
(-0.00128046 -0.0194049 0.00819286)
(-0.0012248 -0.0188543 0.00775949)
(-0.001429 -0.0178871 0.00751076)
(0.000207825 -0.0229197 0.00667368)
(0.000162235 -0.0234354 0.00853552)
(0.000228976 -0.0235591 0.00780138)
(-0.000152745 -0.0211292 0.00855782)
(-0.000415525 -0.0242905 0.00884744)
(-0.00119138 -0.0221702 0.0106952)
(-0.00127519 -0.0228444 0.0112901)
(-0.00160397 -0.0223304 0.0115268)
(-0.0020403 -0.0220929 0.011349)
(-0.00169558 -0.0220635 0.0107152)
(0.000295724 -0.0245782 0.0106254)
(-0.000470919 -0.0243838 0.0113282)
(-0.000239905 -0.0237316 0.0103206)
(-0.000551086 -0.023431 0.0110425)
(0.000489901 -0.0262271 0.010415)
(0.000267235 -0.0237398 0.0102582)
(0.00101633 -0.0262479 0.00958337)
(0.00105069 -0.025808 0.00797836)
(0.000953787 -0.0250001 0.00943816)
(0.00100742 -0.0267781 0.00809518)
(0.000946074 -0.02677 0.00944833)
(0.00126311 -0.0263736 0.00832526)
(-0.00100004 -0.024323 0.0054702)
(-0.000532661 -0.0232597 0.00545181)
(4.01276e-05 -0.0244765 0.00658802)
(-0.000419816 -0.0252357 0.00592894)
(-0.000487758 -0.0238529 0.00547771)
(-0.00120694 -0.0243518 0.00512872)
(-0.00133803 -0.0262338 0.00485023)
(-0.000466455 -0.0262122 0.00473333)
(-0.000611601 -0.0265573 0.00479936)
(-0.00117653 -0.0263848 0.00476665)
(-0.000529579 -0.0268987 0.00544402)
(-0.00142216 -0.0261714 0.00420011)
(-0.00354318 -0.0258375 0.00298803)
(-0.00242404 -0.0264835 0.00398248)
(-0.00446446 -0.0241787 0.00304491)
(-0.00603489 -0.0229989 0.0033153)
(-0.00546902 -0.0233866 0.0030317)
(-0.00502448 -0.0247604 0.00304365)
(-0.00498108 -0.0235433 0.00328962)
(-0.00537561 -0.0220894 0.00326734)
(-0.00768198 -0.0196322 0.00856161)
(-0.00775462 -0.0178406 0.00754879)
(-0.00751866 -0.0192695 0.00998399)
(-0.0076879 -0.0183326 0.00837959)
(-0.00719646 -0.0188081 0.00916255)
(-0.00447433 -0.0215691 0.0119206)
(-0.00520918 -0.0206769 0.0113912)
(-0.00357483 -0.0218004 0.0115611)
(-0.00549868 -0.0203558 0.0106395)
(-0.00366232 -0.0210858 0.0112513)
(-0.00457666 -0.0217237 0.0109003)
(-0.00347428 -0.022524 0.0125451)
(-0.00341954 -0.0232257 0.0127894)
(-0.00280717 -0.0232362 0.012359)
(-0.00188454 -0.022527 0.0120101)
(-0.00150921 -0.0237272 0.0118727)
(-0.00185729 -0.0228835 0.0118143)
(-0.00599237 -0.0201196 0.00968133)
(-0.00596216 -0.0205236 0.0104507)
(-0.00534319 -0.0201465 0.00972178)
(-0.00595475 -0.0184591 0.00854334)
(-0.00588547 -0.0202203 0.00935814)
(-0.000317209 -0.0212763 0.00718143)
(-0.000186778 -0.0211276 0.00668828)
(-0.000255482 -0.020238 0.00760651)
(-0.000207995 -0.0199101 0.00624375)
(-5.34166e-07 -0.0210979 0.00669683)
(-0.000415005 -0.020861 0.00703649)
(-0.000503586 -0.0208402 0.00825473)
(-0.000825505 -0.0201788 0.00836727)
(-0.00098276 -0.0208278 0.00834435)
(-0.00119149 -0.0191251 0.00840267)
(-0.000117645 -0.0194549 0.00693692)
(-0.00140192 -0.0204875 0.00840639)
(-0.00256547 -0.0197714 0.00910278)
(-0.00211191 -0.0190736 0.00858466)
(-0.00165132 -0.0192274 0.00860281)
(-0.00191167 -0.0192435 0.00864735)
(-0.00168704 -0.0195778 0.00843284)
(-0.00272412 -0.0178738 0.00737136)
(-0.00305162 -0.0170517 0.00674752)
(-0.00288035 -0.017018 0.00710943)
(-0.00272229 -0.0165805 0.0065431)
(-0.00271036 -0.0173785 0.0068593)
(-0.00241224 -0.0175018 0.00719362)
(-0.000213037 -0.0231904 0.00652803)
(-0.000107122 -0.0232367 0.00708424)
(-0.000440073 -0.0231422 0.0060551)
(-0.000107032 -0.0219254 0.00625054)
(-0.000198051 -0.0228444 0.00747506)
(-8.50401e-05 -0.0228159 0.00744607)
(-0.000405803 -0.0210094 0.00497614)
(-0.000165458 -0.0210117 0.00675577)
(-0.000129675 -0.0224635 0.00707265)
(-0.00036676 -0.0229024 0.0064151)
(-0.000487724 -0.0225175 0.00674415)
(-0.000129267 -0.0208062 0.00777335)
(-0.000229647 -0.0221068 0.00801732)
(-0.00018516 -0.0216223 0.00758525)
(-0.000255346 -0.0214477 0.00702871)
(-0.000124827 -0.020515 0.00678836)
(-0.00118313 -0.0194647 0.00491799)
(-0.000886183 -0.0200063 0.00492079)
(-0.000873954 -0.0196693 0.00484689)
(-0.000898231 -0.0195656 0.00539779)
(-0.000695632 -0.0208612 0.00561651)
(-0.00212119 -0.0184638 0.00392107)
(-0.00110979 -0.0191322 0.00456549)
(-0.00211364 -0.0179458 0.0038607)
(-0.00189366 -0.0190289 0.00401885)
(-0.00164766 -0.0189096 0.00460154)
(-0.00165329 -0.0202379 0.0045182)
(-0.000232279 -0.00975819 0.00297046)
(-0.000297452 -0.00995404 0.00286561)
(-0.000414696 -0.0101156 0.00279497)
(-0.000345207 -0.0100395 0.00290916)
(-0.000126744 -0.0096099 0.00304991)
(-0.000158413 -0.00961777 0.00303933)
(-0.000181581 -0.00965896 0.00306444)
(-0.000130821 -0.0094419 0.00306552)
(-7.44786e-05 -0.00985226 0.00328034)
(-0.000125495 -0.00938362 0.00322303)
(-0.000230846 -0.00955496 0.00304203)
(-0.000156681 -0.00923514 0.00317582)
(-0.00051 -0.01071 0.00308841)
(-0.000703478 -0.0110599 0.00302741)
(-0.000463659 -0.0103809 0.00307747)
(-0.000853747 -0.0110527 0.00291708)
(-0.00095688 -0.0112141 0.00292119)
(-0.000361424 -0.0102748 0.003075)
(9.0838e-05 -0.00863171 0.00239837)
(-0.000190362 -0.00916135 0.00214047)
(-4.06084e-05 -0.00890773 0.00227741)
(-0.000152182 -0.00892046 0.00222385)
(-3.72569e-05 -0.00858602 0.0024145)
(1.46204e-05 -0.00842341 0.00213813)
(-0.000687316 -0.0102978 0.00209493)
(-0.000385423 -0.00946883 0.00225221)
(-0.000493268 -0.0102661 0.00234283)
(-0.000743221 -0.0102267 0.00203851)
(-0.000358887 -0.00943583 0.00220025)
(-0.00018038 -0.00906562 0.00232415)
(-0.00165594 -0.0122933 0.00236017)
(-0.00116929 -0.0112412 0.00201045)
(-0.00163691 -0.0122488 0.00225867)
(-0.00112922 -0.0113714 0.00211984)
(-0.00126709 -0.012234 0.00250463)
(-0.00142461 -0.0114616 0.00198961)
(-0.0001594 -0.00913698 0.00246382)
(-0.000345838 -0.00973137 0.00253217)
(-0.00021031 -0.00959908 0.00254552)
(-6.76102e-05 -0.00897799 0.00258786)
(-0.000229414 -0.00941661 0.00259383)
(-0.000187498 -0.00887897 0.00259572)
(-0.000163481 -0.00902365 0.00254475)
(-0.000473789 -0.00995013 0.00231468)
(-0.000401253 -0.00969656 0.00233415)
(-0.000296589 -0.00924926 0.00244114)
(-0.000248548 -0.00931804 0.0024333)
(-0.000374535 -0.0100451 0.0025398)
(-0.00124492 -0.0118202 0.00282061)
(-0.000967023 -0.0111838 0.00269995)
(-0.00114585 -0.0118199 0.0028276)
(-0.00144898 -0.0120698 0.00293504)
(-0.00138403 -0.0120628 0.00286253)
(-0.00102866 -0.0111435 0.00269563)
(-0.000375003 -0.00885916 0.00362908)
(-0.000154017 -0.00894237 0.00342149)
(-0.000307216 -0.00878094 0.00351052)
(-0.000321158 -0.00906408 0.00354393)
(-0.000282347 -0.00876857 0.00337188)
(-0.00031757 -0.00876831 0.00363137)
(-0.000624327 -0.00909335 0.00398439)
(-0.000588688 -0.00879043 0.0038664)
(-0.000436141 -0.00876388 0.00370881)
(-0.00130264 -0.00965558 0.00430214)
(-0.000976833 -0.00933975 0.00419945)
(-0.00142415 -0.0106149 0.00463446)
(-0.00187505 -0.0105901 0.00445225)
(-0.00146364 -0.0103122 0.00442266)
(-0.001534 -0.0104262 0.00445505)
(-0.00159146 -0.0107863 0.00450509)
(-0.00175595 -0.0112449 0.00460435)
(-0.0028229 -0.0132064 0.00484561)
(-0.00281012 -0.0135912 0.00487763)
(-0.00252683 -0.0122847 0.00476332)
(-0.00104808 -0.0097428 0.0042121)
(-0.00148915 -0.0109369 0.00465675)
(-0.00117233 -0.0103197 0.0044025)
(-0.0011132 -0.0100273 0.00427231)
(-0.00144525 -0.0104434 0.00446636)
(-0.00143974 -0.0105954 0.00446485)
(-0.00232126 -0.0119533 0.00449007)
(-0.0020322 -0.0118546 0.00471092)
(-0.00190039 -0.0116225 0.00468912)
(-0.00238562 -0.0124774 0.00473661)
(-0.00214895 -0.0118256 0.00446581)
(-0.00189955 -0.0114513 0.00461656)
(-0.00119147 -0.0101487 0.00449366)
(-0.00148959 -0.0106978 0.00465936)
(-0.000964824 -0.00983853 0.00433265)
(-0.00141868 -0.0100259 0.00445615)
(-0.00165018 -0.0108374 0.00485752)
(-0.000844357 -0.00949683 0.00418232)
(-0.00179752 -0.0108895 0.00457858)
(-0.00190443 -0.0112904 0.0047945)
(-0.0012114 -0.00993767 0.00424532)
(-0.0012177 -0.0103493 0.00449205)
(-0.00172254 -0.0108266 0.0047362)
(-0.00145262 -0.0104227 0.00444896)
(-0.00243532 -0.0121073 0.00528482)
(-0.00301196 -0.0127008 0.00529692)
(-0.00317229 -0.0134946 0.00545015)
(-0.00214874 -0.0117688 0.00500699)
(-0.00322075 -0.0128258 0.00512225)
(-0.00249342 -0.0121834 0.00512105)
(-0.00034772 -0.00873465 0.00332268)
(-0.000796717 -0.00928529 0.00383318)
(-0.000502704 -0.00889171 0.00362374)
(-0.000813192 -0.00947914 0.00401693)
(-0.000598676 -0.00917346 0.00381627)
(-0.000243305 -0.00914807 0.00340774)
(3.06115e-05 -0.00837968 0.00279279)
(3.44366e-05 -0.00835558 0.00274244)
(9.00947e-05 -0.00827062 0.00269664)
(5.50471e-05 -0.00821456 0.00263876)
(6.95675e-05 -0.00824351 0.00274552)
(2.9002e-05 -0.00829038 0.00298646)
(-8.8041e-06 -0.0085152 0.0028839)
(-0.000113422 -0.00852713 0.0027889)
(-1.62265e-05 -0.00856286 0.00292494)
(-4.91978e-05 -0.00834035 0.00278097)
(-8.57189e-05 -0.00858662 0.00297477)
(-1.36116e-05 -0.00790718 0.00238059)
(-0.000111384 -0.00885947 0.00315805)
(-0.000235862 -0.00863373 0.0032822)
(-0.000165201 -0.0084558 0.00302113)
(-0.000216452 -0.00854722 0.00318326)
(-0.000121247 -0.00824014 0.00295179)
(-7.8584e-05 -0.00834269 0.00318181)
(-4.99758e-05 -0.00820926 0.00261997)
(-0.000150362 -0.00825602 0.00294193)
(-0.000102007 -0.00845687 0.00308239)
(-8.06692e-06 -0.0081128 0.00265812)
(-0.000108308 -0.00796066 0.00263466)
(-0.000108528 -0.00825953 0.0028317)
(-0.00071732 -0.0092051 0.00393845)
(-0.00077622 -0.00939824 0.00385285)
(-0.000943472 -0.00986458 0.00414563)
(-0.000946446 -0.00955799 0.00429459)
(-0.000727156 -0.00907649 0.00393)
(-0.00113534 -0.00954702 0.00426199)
(-0.00263784 -0.0181373 0.00779597)
(-0.00247512 -0.0178302 0.00763216)
(-0.00232359 -0.0178508 0.00808463)
(-0.00264905 -0.017043 0.00744538)
(-0.00187886 -0.0180311 0.00779623)
(-0.00202066 -0.0173477 0.00744992)
(0.00033025 -0.0248022 0.00771773)
(-0.000246388 -0.0240098 0.00532658)
(-0.000635733 -0.0251467 0.00541955)
(0.000120539 -0.0257545 0.00756044)
(-0.000167768 -0.0252104 0.00701606)
(-7.67819e-05 -0.0254117 0.00642183)
(0.000688886 -0.0272062 0.00736873)
(0.000448848 -0.0263176 0.00793751)
(0.000768499 -0.0252177 0.00852075)
(0.000565021 -0.0266948 0.00873222)
(0.000421476 -0.0253145 0.00669398)
(0.000236912 -0.0270626 0.00677526)
(-0.000385762 -0.0239512 0.0099748)
(0.000230265 -0.0255248 0.00885943)
(-0.000143759 -0.0241741 0.00968023)
(-0.000330717 -0.0239992 0.0106513)
(0.000355147 -0.0242768 0.00956166)
(0.000213192 -0.0243778 0.00946374)
(-9.18277e-05 -0.0234808 0.00916023)
(0.00044119 -0.0241808 0.00949636)
(0.000310756 -0.0242791 0.00749784)
(0.000289627 -0.0260187 0.00885472)
(3.49673e-05 -0.0218464 0.00790928)
(-0.00211375 -0.011358 0.00499416)
(-0.00256587 -0.0119693 0.00514342)
(-0.00200629 -0.0109228 0.00480166)
(-0.00281879 -0.0118793 0.00508626)
(-0.00296428 -0.012498 0.00539405)
(-0.00233427 -0.0114517 0.00509708)
(9.94684e-05 -0.00810696 0.00264611)
(6.75011e-05 -0.00823366 0.00281571)
(0.000182974 -0.00824418 0.00274358)
(0.000161331 -0.00819809 0.00280906)
(0.000107051 -0.00815218 0.0026262)
(0.000148204 -0.00838172 0.00289648)
(-6.93588e-05 -0.00887061 0.00210396)
(-0.000261099 -0.00935737 0.00198396)
(-0.000231623 -0.00917778 0.00205709)
(-0.000185833 -0.00947737 0.00208881)
(0.000122897 -0.0087506 0.00235222)
(-5.58991e-05 -0.00890055 0.00223609)
(-0.000736338 -0.011523 0.00307906)
(-0.000633201 -0.0106143 0.00274618)
(-0.000817973 -0.0109483 0.00273562)
(-0.000676922 -0.0107499 0.00286125)
(-0.00103126 -0.0116558 0.00288527)
(-0.000984108 -0.0116271 0.00296308)
(-0.00054637 -0.0202197 0.00502823)
(-0.000951672 -0.0203584 0.00512016)
(-0.000568439 -0.0199849 0.00538371)
(-0.000542701 -0.0216663 0.00561034)
(-0.000265302 -0.0209685 0.00561406)
(-0.000729582 -0.020105 0.0050473)
(-0.000805971 -0.0224952 0.00570387)
(-2.937e-06 -0.00853959 0.00215127)
(-0.000942183 -0.0205626 0.00936155)
(-0.00164701 -0.0220682 0.0105099)
(-0.000734129 -0.0231832 0.00984222)
(-0.000671731 -0.0222518 0.00980583)
(0.000147783 -0.0220827 0.00855073)
(-5.88247e-05 -0.0242056 0.0103243)
(0.000240676 -0.0250263 0.00962363)
(0.000624028 -0.0249348 0.00795045)
(-0.000288319 -0.025946 0.00633939)
(-0.000620156 -0.0252967 0.0050515)
(0.000370673 -0.0256983 0.00880789)
(1.89686e-05 -0.0240278 0.00632011)
(-0.000552258 -0.00908286 0.00368912)
(-0.00131889 -0.0104079 0.00464537)
(-0.00117757 -0.0106181 0.00449643)
(-0.000911166 -0.00973845 0.00416866)
(-0.000851785 -0.00944136 0.00397602)
(-0.000664129 -0.00919902 0.00383208)
(-5.95783e-05 -0.00836626 0.00297338)
(-0.00048271 -0.0089584 0.00371965)
(-0.000426808 -0.00901824 0.00370387)
(-0.000381174 -0.00862958 0.00351685)
(-0.000307128 -0.00885094 0.00347855)
(-0.000142927 -0.00863862 0.00318061)
(-0.000247061 -0.00876398 0.00333483)
(-0.000133209 -0.0085425 0.00326659)
(-6.19624e-05 -0.00812901 0.00281626)
(5.90032e-07 -0.00881271 0.00293861)
(-0.000112467 -0.00875307 0.00242247)
(-0.000146177 -0.00871997 0.00242365)
(-6.25844e-05 -0.00873331 0.00241994)
(-5.02159e-05 -0.00841122 0.00237543)
(-0.000123816 -0.00863806 0.00222016)
(-0.000112901 -0.00867006 0.00216298)
(1.66774e-05 -0.00843187 0.00243159)
(0.000211026 -0.00829415 0.00262035)
(3.15317e-05 -0.00822021 0.00251402)
(4.98032e-05 -0.00827246 0.00253399)
(-0.00014517 -0.00877151 0.00326752)
(-8.30469e-05 -0.00879394 0.00339678)
(-4.75901e-05 -0.00858512 0.00295832)
(4.8957e-05 -0.00844425 0.00292443)
(-4.47707e-05 -0.00817364 0.0030659)
(8.30015e-05 -0.00809233 0.00255089)
(-6.43709e-05 -0.00835255 0.00243218)
(5.53714e-06 -0.00805158 0.00273023)
(9.88906e-05 -0.00886064 0.00289754)
(-3.81381e-06 -0.00816745 0.00251912)
(3.06499e-05 -0.00819926 0.00246935)
(3.52437e-05 -0.00833459 0.00246176)
(-8.88132e-06 -0.00836776 0.00234295)
(-0.000257448 -0.00879157 0.00345217)
(-0.000163565 -0.0087355 0.00321711)
(-0.00089955 -0.00961617 0.00403067)
(-2.49893e-05 -0.00871041 0.00281264)
(-0.000319228 -0.00844954 0.0031226)
(-0.000256716 -0.00861846 0.00340412)
(-0.000434269 -0.00859487 0.00359041)
(-0.00220498 -0.0116326 0.00488179)
(-0.00134132 -0.0101455 0.0043454)
(-0.000387723 -0.00919906 0.00374713)
(-0.000523048 -0.00944777 0.00401104)
(-0.000490714 -0.00901449 0.00374975)
(-0.00200969 -0.0111745 0.00486429)
(-0.00103416 -0.0101043 0.00429778)
(-0.00168653 -0.0112869 0.00488334)
(-0.00143807 -0.0103456 0.00445642)
(-0.00145907 -0.0106624 0.0045052)
(-0.00260676 -0.0124284 0.00514006)
(-0.00172362 -0.0112215 0.00461788)
(-0.00249315 -0.0117838 0.00488071)
(-0.00202616 -0.0113242 0.00479089)
(-0.00106273 -0.00990687 0.00420836)
(-0.000691409 -0.00937543 0.0038965)
(-0.000933323 -0.00965466 0.00404294)
(-0.00158204 -0.0113651 0.00481844)
(-0.00168188 -0.011106 0.00450118)
(-0.00268824 -0.0125462 0.00508755)
(-0.00232123 -0.012699 0.00508951)
(-0.0026775 -0.0137869 0.00455908)
(-0.00267284 -0.0139232 0.00462543)
(-0.00271359 -0.0138441 0.00467356)
(-0.00165225 -0.0110971 0.00466862)
(-0.000728418 -0.010867 0.00277791)
(-0.000530728 -0.0102826 0.00279558)
(-0.000265295 -0.00924828 0.00228499)
(-0.00132069 -0.0119364 0.00269734)
(-0.000356315 -0.00983476 0.00268521)
(-0.000355029 -0.0101456 0.00291454)
(-0.000542719 -0.0103248 0.00273435)
(-0.000370646 -0.0103996 0.00275262)
(-0.000520484 -0.0102413 0.00253691)
(-0.000583632 -0.0102299 0.00246495)
(-0.00062729 -0.011132 0.00275235)
(-0.00088303 -0.0111584 0.00251169)
(-0.000970264 -0.0118121 0.00279312)
(-0.000641915 -0.0109208 0.0029259)
(-0.000835692 -0.0106807 0.00217801)
(-0.000600545 -0.0103072 0.00210063)
(-1.86151e-07 -0.00842942 0.00236416)
(6.30761e-05 -0.00814896 0.00248357)
(0.000108254 -0.00831973 0.00239707)
(9.01093e-05 -0.0083118 0.00233659)
(-0.000656553 -0.0112853 0.0031137)
(-0.000966977 -0.011605 0.00312692)
(-0.000292394 -0.0103209 0.00317491)
(-0.000350524 -0.010218 0.00289643)
(-0.00042064 -0.0102298 0.00291549)
(-0.000497369 -0.0108961 0.00301019)
(-0.000284106 -0.00986217 0.00296985)
(-0.000156154 -0.00901912 0.00315088)
(-7.16254e-05 -0.00897347 0.00338298)
(-0.000315995 -0.00868158 0.00347326)
(-0.000263194 -0.00855052 0.00347835)
(-5.55708e-05 -0.0084704 0.00273047)
(-6.81411e-05 -0.00836564 0.00288647)
(-6.21736e-05 -0.00842798 0.00301227)
(-2.7082e-05 -0.00859647 0.00270519)
(-0.000106096 -0.00891133 0.00271895)
(-0.000127625 -0.00890596 0.0030402)
(-9.82505e-05 -0.00919624 0.00298695)
(-0.00018881 -0.00974707 0.00288179)
(-0.000277322 -0.00961679 0.0027428)
(-0.000204571 -0.00922543 0.00279729)
(-0.000290855 -0.00960868 0.00270064)
(-8.40173e-05 -0.00904935 0.0029022)
(-0.000160293 -0.00938331 0.00279089)
(-0.000172048 -0.00921886 0.00323308)
(-7.198e-05 -0.00945066 0.0033071)
(-0.000474115 -0.0114001 0.00336695)
(-0.000403407 -0.0106086 0.00315654)
(-0.000292708 -0.00868079 0.00362013)
(-0.000209907 -0.00907057 0.00353164)
(2.4931e-06 -0.00946759 0.00346335)
(-8.03719e-05 -0.00939806 0.00326159)
(-0.000113708 -0.00914802 0.00290642)
(-3.92334e-05 -0.00881912 0.00316793)
(-0.00110645 -0.0214423 0.00534287)
(-0.00170728 -0.0198828 0.00425579)
(-0.00159942 -0.0208879 0.00446045)
(-0.00139041 -0.0200063 0.00442482)
(-0.00195854 -0.0192535 0.0043379)
(-0.00180213 -0.016153 0.00418992)
(-0.00112822 -0.0203616 0.00471725)
(-0.000712442 -0.0186171 0.0054034)
(-0.000517679 -0.019207 0.00527592)
(-0.00216951 -0.0193891 0.00426355)
(-0.00199392 -0.0205114 0.00458185)
(-0.0002157 -0.0228642 0.0062339)
(-0.00137898 -0.0206984 0.00900078)
(-0.000658088 -0.0213429 0.0085062)
(-0.00241683 -0.0179112 0.0075531)
(-0.00305357 -0.0175272 0.00737198)
(-0.0027912 -0.0168037 0.00626428)
(-0.000506804 -0.0215873 0.00829974)