/*--------------------------------*- C++ -*----------------------------------*\
| =========                 |                                                 |
| \\      /  F ield         | OpenFOAM: The Open Source CFD Toolbox           |
|  \\    /   O peration     | Version:  v1612+                                |
|   \\  /    A nd           | Web:      www.OpenFOAM.com                      |
|    \\/     M anipulation  |                                                 |
\*---------------------------------------------------------------------------*/
FoamFile
{
    version     2.0;
    format      ascii;
    class       surfaceScalarField;
    location    "50";
    object      phi;
}
// * * * * * * * * * * * * * * * * * * * * * * * * * * * * * * * * * * * * * //

dimensions      [0 3 -1 0 0 0 0];

internalField   nonuniform List<scalar> 
36965
(
-3.04156e-09
1.14813e-08
-6.85964e-09
-1.58015e-09
3.53891e-09
4.64997e-09
-9.42937e-09
1.24101e-09
-8.32234e-09
5.16715e-09
6.69426e-09
4.32657e-09
-8.16054e-09
2.50372e-09
1.33056e-09
8.52324e-09
-1.25189e-08
-5.14337e-09
-1.45229e-08
1.15058e-08
6.19205e-09
-6.29522e-09
4.75324e-09
-3.10935e-09
1.44689e-08
-1.0729e-08
-1.19698e-08
1.95894e-08
-1.0143e-08
1.91779e-09
-4.55979e-09
-2.99583e-11
-4.8395e-09
-6.75531e-09
-9.92776e-09
4.71344e-09
-1.14071e-08
-5.49143e-09
-4.73967e-09
4.12577e-09
-3.94571e-09
3.53836e-09
-1.34213e-08
-7.42235e-09
3.1146e-10
-2.81658e-09
-1.5291e-08
-1.85784e-09
5.71238e-09
7.96007e-10
-8.19678e-09
1.68837e-09
2.7342e-09
-2.8263e-09
5.80401e-09
-3.29531e-09
3.29627e-10
5.69976e-09
1.80129e-09
-4.30069e-09
4.28956e-09
-3.36475e-09
-9.12169e-09
-3.15745e-09
-3.38881e-09
6.87537e-09
-3.51224e-09
-5.97519e-09
6.32977e-09
1.07304e-08
-2.17811e-09
-4.26283e-09
4.39165e-09
4.34479e-11
-6.8102e-09
3.40192e-09
-7.63044e-10
-5.27431e-09
6.21828e-11
-3.36569e-09
-7.8617e-10
3.11217e-09
2.50848e-09
-5.57718e-09
9.16836e-11
-3.45251e-10
-4.94396e-09
-4.41389e-09
-9.38323e-09
5.33636e-09
8.46097e-09
3.96145e-09
5.16558e-09
-8.93236e-09
-1.94465e-10
-2.7343e-09
2.28197e-09
3.09782e-09
-7.3154e-09
-2.57603e-09
1.07597e-08
-3.43026e-09
3.41628e-09
-8.26312e-09
-4.05501e-09
8.90172e-09
-1.61745e-09
4.59371e-09
4.4019e-10
3.16528e-09
3.13482e-10
5.42622e-09
6.20019e-09
3.75449e-09
-1.04344e-08
5.7687e-09
-2.91855e-09
-2.73333e-09
7.8494e-09
6.52699e-10
3.3088e-09
4.18537e-09
-3.73966e-09
4.85465e-09
7.36192e-10
-4.10778e-09
3.18624e-10
2.93043e-09
2.91688e-10
4.41829e-09
-7.64002e-09
5.47464e-09
-5.58583e-09
7.95351e-09
-1.25814e-08
4.91981e-09
1.08899e-09
-7.24721e-10
4.05416e-09
6.02328e-09
5.40401e-10
1.14625e-08
1.74103e-10
-1.18213e-08
1.84546e-10
-1.01167e-08
1.58986e-08
5.68055e-09
-5.76334e-09
6.9217e-10
5.24531e-09
8.0535e-09
-4.49419e-09
-1.53806e-08
-1.236e-10
-1.93957e-09
6.26787e-09
1.88778e-09
-1.26498e-08
-3.776e-10
8.82175e-10
-7.31462e-09
4.88094e-09
4.32155e-09
-2.54302e-09
-5.18934e-09
4.17678e-10
-8.75445e-10
-5.54086e-09
1.85008e-09
4.56612e-09
-4.23034e-09
3.24323e-09
2.72952e-10
-1.34286e-09
5.00992e-09
1.27582e-08
-8.13155e-09
-9.63637e-09
1.89766e-08
-2.4269e-09
-1.15396e-08
6.34912e-09
1.35704e-08
-9.4278e-10
-1.86373e-08
1.58419e-08
9.14461e-09
-2.69041e-10
-5.60993e-09
-9.6811e-09
1.01387e-08
1.31129e-08
5.50589e-09
-1.36883e-09
-1.38179e-08
1.48222e-08
1.55657e-08
-2.37808e-08
-6.60694e-09
1.76979e-08
2.63027e-09
-2.24269e-09
1.26399e-08
5.44476e-09
2.03669e-08
-5.07024e-09
-7.03506e-09
-4.86783e-09
6.03737e-09
5.86632e-09
-6.92973e-09
1.75927e-08
1.32564e-08
-2.51497e-08
-5.44018e-09
2.48101e-08
5.77997e-09
-1.98059e-08
-6.44935e-09
1.10566e-09
-1.67608e-08
1.30226e-08
-1.70194e-09
-1.32021e-08
-2.33644e-08
-4.91846e-09
-1.41726e-10
-2.15727e-08
2.66329e-08
-2.36798e-08
2.23536e-08
-3.59241e-09
-2.42974e-08
-1.47967e-10
1.83708e-08
6.07486e-09
-1.16666e-09
-2.66615e-08
4.14826e-09
-2.44765e-08
2.07212e-08
2.58877e-09
-1.20165e-08
-2.03754e-08
8.09478e-09
-1.65566e-08
-1.90915e-09
9.08044e-10
-6.52704e-09
-2.10422e-08
-4.89946e-09
-1.86688e-08
-7.8249e-09
-1.74498e-08
-4.39659e-09
-1.99849e-08
2.45115e-09
-1.88131e-08
1.19655e-08
1.64035e-08
-2.04794e-08
8.56413e-09
-4.39579e-10
5.35826e-10
-8.66024e-09
-3.99361e-09
8.53113e-09
4.02673e-09
5.41386e-09
7.92564e-11
-5.11662e-11
-5.44173e-09
2.07825e-09
3.46621e-09
-1.30533e-10
5.13532e-09
-5.49557e-09
1.3962e-09
-2.54348e-10
-6.46259e-09
6.49621e-09
2.0447e-09
-1.70097e-10
-6.34354e-09
-1.15136e-09
1.05511e-08
-9.56972e-09
8.21288e-09
-9.80754e-10
-8.38341e-09
5.70174e-09
1.02465e-08
-5.39701e-09
1.34531e-08
4.61569e-10
1.01915e-08
-1.06363e-08
4.79816e-09
6.43041e-11
-1.16412e-09
6.44045e-09
4.9153e-09
4.05075e-09
3.31627e-09
-2.74868e-09
4.62442e-09
1.15774e-08
1.48136e-09
6.01652e-09
3.84125e-09
-3.45483e-09
3.66438e-09
-1.16618e-09
-3.02117e-09
8.0286e-09
9.89875e-09
3.59349e-09
4.38415e-09
-1.33178e-09
1.90415e-09
1.15024e-11
-6.38094e-09
-2.83244e-08
2.12253e-08
1.34802e-08
1.64112e-08
5.86885e-09
-2.86608e-08
-8.50354e-09
4.37574e-09
-2.41963e-08
4.86635e-09
-2.65817e-09
1.67062e-08
-1.89136e-08
-6.26875e-10
1.63785e-08
-1.08848e-08
3.43978e-09
-2.37381e-08
1.76408e-08
1.36488e-08
-1.0836e-08
-1.71075e-08
-3.16798e-09
4.15006e-08
-1.81263e-08
1.74302e-08
-2.22018e-08
-2.2022e-08
4.10564e-08
-1.03208e-08
-1.53272e-08
3.44654e-09
-1.61264e-08
1.82919e-08
-2.41873e-08
-2.37222e-08
-2.7247e-09
-2.28561e-08
-9.74084e-10
-8.81214e-09
2.66229e-09
1.98426e-08
-1.22761e-08
2.33818e-08
1.92661e-08
-2.89989e-08
3.03979e-08
-9.54895e-09
2.53305e-09
-2.17476e-08
1.78679e-08
6.86921e-09
5.18288e-09
7.21387e-09
1.91409e-08
-6.19387e-09
-6.78713e-09
9.22891e-09
3.75236e-09
-6.77023e-09
2.55824e-09
-1.98154e-09
1.33264e-08
-9.08587e-09
-1.10106e-08
5.01599e-09
1.52337e-09
-4.36308e-09
5.48372e-09
8.10834e-09
-1.8397e-09
3.49487e-11
9.0903e-09
-6.72629e-09
2.65224e-09
-1.52283e-08
-8.79629e-10
1.40382e-08
2.0696e-09
4.44541e-09
-1.44112e-08
-5.26235e-09
7.47982e-09
8.31353e-11
-8.44245e-09
2.52504e-09
1.2049e-08
1.45824e-08
-6.13328e-10
-2.06949e-08
-1.65879e-08
7.04662e-09
4.55541e-10
1.99642e-08
-1.35196e-08
-1.99896e-09
-1.50218e-09
1.38667e-08
7.59976e-09
9.16463e-09
3.37146e-09
3.8978e-09
1.7424e-09
1.10561e-08
1.73932e-08
2.49892e-08
1.56472e-08
-1.11368e-08
-2.9499e-08
5.63198e-09
7.43041e-09
1.92132e-08
-1.47219e-08
-1.89582e-08
7.40289e-09
2.62774e-08
-1.37883e-08
1.10322e-08
1.15105e-08
-8.75435e-09
-6.0244e-09
-7.32765e-09
-4.36123e-10
-1.28895e-09
-2.85756e-08
1.51428e-08
1.49646e-08
2.21663e-08
-1.3648e-08
1.34318e-08
9.58526e-10
5.74239e-10
-5.4597e-09
7.17869e-09
9.31317e-09
1.39758e-08
1.5048e-08
-6.8575e-09
1.71331e-08
1.02744e-08
1.22763e-08
-2.72129e-08
1.53119e-08
-9.06008e-09
4.15641e-09
5.69593e-09
-5.89149e-09
1.7988e-08
-4.91804e-09
-1.31368e-08
2.43785e-08
6.06771e-09
-8.28685e-10
-1.65494e-08
1.78849e-08
-5.06745e-10
4.74611e-10
-1.40105e-08
1.27076e-08
1.3221e-08
2.90495e-09
-1.56506e-08
-1.20848e-08
-1.03172e-08
8.39171e-09
4.70829e-09
-1.06899e-08
-6.10327e-09
-5.98802e-11
-1.17813e-08
-5.76673e-09
-1.06402e-08
6.08982e-09
-1.83777e-08
1.92095e-09
-9.88267e-09
1.69442e-08
-3.19739e-09
-3.86388e-09
1.50652e-08
-6.64446e-09
-1.83031e-08
-1.45241e-09
-4.13423e-09
-3.32552e-09
8.91225e-09
-9.33703e-09
-7.9784e-09
1.5863e-08
4.09836e-09
6.75759e-09
4.20936e-09
1.17056e-08
3.61826e-09
5.24264e-09
4.69554e-09
-1.35563e-08
2.53568e-09
-5.56171e-09
-4.27134e-09
8.5603e-09
-1.75313e-09
-6.90783e-09
7.87924e-09
-3.07658e-09
-9.13269e-09
4.23083e-09
-6.70573e-09
-5.05075e-10
-7.03416e-09
-5.29584e-09
-6.65892e-09
1.00911e-08
4.64331e-09
-6.98185e-09
6.89931e-09
-4.99784e-09
9.29826e-10
-2.99221e-09
-1.6004e-09
8.88586e-09
-5.00822e-09
-2.27761e-09
-4.01303e-09
4.71626e-09
-2.3037e-09
-4.40223e-09
-5.00412e-09
2.63275e-09
6.77266e-09
-9.0706e-10
5.39036e-09
1.41033e-08
8.27695e-09
-9.00207e-09
-1.33782e-08
5.78504e-09
7.41147e-09
-1.61039e-08
6.70985e-09
1.51791e-08
-2.72629e-09
-5.10072e-09
2.28086e-09
-2.52694e-10
-6.04116e-09
5.247e-09
-5.70376e-10
-2.39589e-09
-8.76329e-09
5.0185e-10
-7.90006e-10
-8.45364e-09
2.04758e-09
1.31156e-08
-5.39051e-09
-5.78971e-09
1.73952e-09
3.84675e-09
-5.83915e-09
5.71623e-09
-4.54713e-09
-4.50491e-09
9.18495e-09
1.31829e-09
-9.92798e-10
3.84567e-09
1.31915e-09
-1.57544e-10
1.22499e-08
-9.46079e-09
-4.53885e-09
1.74982e-09
1.27511e-08
-2.28388e-09
2.01595e-09
-1.24831e-08
-1.15505e-09
2.16026e-09
-1.54925e-08
1.44874e-08
3.062e-10
-1.42652e-08
1.2804e-08
3.62694e-09
-3.70021e-09
1.23234e-08
-7.35347e-09
1.09647e-08
1.57021e-11
-1.27156e-08
1.3609e-08
1.26692e-09
6.64849e-09
-1.25081e-09
-8.9657e-10
1.11951e-08
6.66353e-10
-1.03907e-08
9.80038e-09
2.02726e-09
-5.76948e-09
-3.03776e-09
-1.04702e-08
7.30818e-09
6.19977e-09
-1.01577e-08
3.44445e-09
3.67554e-09
6.59115e-09
-1.28524e-08
-3.89646e-09
-4.22004e-09
3.40966e-10
-4.37298e-09
-4.55834e-09
1.90182e-10
8.7412e-09
-6.5134e-09
5.58483e-09
-3.84029e-09
6.59015e-09
-3.60835e-09
1.32621e-09
-1.93796e-09
-7.43993e-09
-9.02075e-09
4.81723e-09
6.55295e-09
-4.14e-09
-7.23022e-09
9.64267e-09
-2.16058e-09
-2.66491e-09
1.77009e-10
-7.40337e-09
7.12942e-10
-1.49532e-09
-1.01879e-09
-4.14993e-09
5.84399e-09
7.94862e-09
9.07717e-10
-5.51632e-09
1.15505e-08
-6.33559e-09
9.96257e-10
3.7132e-09
1.97008e-09
-9.82324e-09
-4.78293e-09
-1.28732e-08
-1.57342e-09
-6.05811e-09
-2.55067e-09
1.01826e-08
-8.03913e-09
-5.61685e-09
1.20828e-08
-6.20324e-09
1.15711e-08
-6.10165e-09
7.3393e-10
-3.90367e-09
6.02215e-09
-8.32149e-09
6.83737e-09
1.26443e-08
-7.91045e-09
-3.29148e-09
8.13837e-09
1.99058e-09
-6.49715e-09
1.16214e-08
-1.12257e-08
6.01032e-09
-1.6411e-08
-3.33568e-09
-2.80577e-09
8.47412e-09
-2.33233e-09
-5.86525e-09
1.82727e-09
7.02681e-10
3.68008e-09
-5.70876e-09
-6.56051e-11
7.74848e-09
-4.00264e-09
7.01234e-09
-3.37119e-09
-3.70659e-09
8.8956e-09
-6.40455e-10
8.54634e-09
-3.47511e-09
7.57321e-09
1.3879e-08
2.08825e-09
-1.3186e-09
-2.76718e-09
3.78387e-09
3.015e-10
5.2792e-09
-5.87765e-09
-7.20677e-10
-1.11185e-09
4.85509e-09
-2.02337e-09
-1.72e-09
5.43867e-09
-3.40662e-09
-3.14406e-09
2.903e-09
4.72955e-09
-2.35344e-09
-2.44483e-09
4.45841e-09
-7.89134e-09
1.89835e-09
7.73071e-10
3.89373e-09
2.85966e-09
-1.69587e-09
-4.36296e-09
4.03546e-09
-7.54721e-09
3.02237e-09
-1.148e-09
7.0304e-09
-8.90483e-09
1.11054e-09
5.57631e-09
-1.52308e-09
6.52736e-09
9.93949e-09
-7.45516e-09
1.97396e-09
7.80994e-09
-6.31067e-09
-1.08489e-08
-6.04599e-09
4.71946e-09
1.21752e-08
-4.3425e-09
-8.8576e-09
2.35075e-09
-1.21878e-08
8.93207e-09
1.72318e-08
1.80256e-09
-4.0674e-09
-2.88737e-09
9.08797e-10
-4.85142e-09
1.88174e-08
-5.16554e-09
9.38429e-10
2.0142e-09
4.02295e-09
5.79826e-09
3.2509e-10
-2.96435e-09
5.36179e-09
-2.72263e-09
-2.2739e-09
-1.2243e-09
3.82296e-09
8.6728e-11
5.40363e-09
-8.45475e-09
3.34686e-09
-5.53424e-09
4.176e-09
3.0099e-09
-1.82418e-09
3.12348e-09
2.07884e-09
-1.02692e-09
4.00995e-09
-2.48866e-09
3.88234e-09
-5.63536e-09
2.92036e-09
4.08311e-09
-1.36836e-09
5.80994e-09
-8.0986e-09
5.0872e-09
1.93255e-09
4.89466e-09
2.37104e-09
-1.45603e-09
6.09489e-09
1.54594e-09
6.66466e-09
-2.9504e-09
3.46751e-09
5.57761e-09
8.51272e-10
-1.43104e-09
1.14423e-08
-6.42896e-09
5.98002e-09
-2.62064e-09
-9.68121e-09
6.32206e-09
8.14292e-09
-8.56881e-09
6.40589e-09
5.90158e-09
1.59072e-09
-1.01128e-08
-1.52577e-08
2.3226e-09
3.67118e-10
1.2568e-08
1.88621e-08
-1.17541e-08
-1.20641e-09
-8.08618e-09
2.31343e-08
2.71934e-09
-1.77675e-08
-1.98978e-09
2.04641e-09
1.23779e-08
1.08035e-09
9.67609e-09
-2.20898e-08
6.95497e-09
2.7513e-08
-6.7729e-10
-2.55042e-09
-1.29058e-08
8.96172e-09
5.02449e-09
-8.10996e-09
-3.44167e-09
1.85065e-08
-7.67206e-09
-1.11549e-09
1.40145e-08
-4.68509e-09
-1.09709e-08
1.64125e-09
2.99605e-09
-5.35801e-09
-7.03656e-09
9.39862e-09
3.90925e-09
-7.95097e-09
-8.86414e-09
-8.73286e-09
1.42531e-08
-4.85185e-09
5.75246e-09
1.31134e-08
-1.43539e-08
1.83006e-09
-1.25631e-08
9.61875e-09
-5.78838e-09
-5.65775e-09
2.42293e-09
-8.12887e-09
3.48031e-10
-6.30469e-09
6.32939e-09
-1.81078e-09
1.78616e-09
3.75544e-09
-5.26398e-09
-4.79607e-09
-3.38599e-09
1.42167e-09
4.38732e-09
2.83341e-09
4.27729e-09
-7.81292e-10
-1.28832e-09
-2.30715e-10
5.2746e-09
-4.02216e-09
-1.06203e-08
6.51364e-09
-1.97998e-08
-6.01441e-09
-4.81316e-10
-9.74557e-10
-1.03038e-08
-4.25314e-09
-4.21153e-10
-9.24977e-09
3.9851e-09
-7.34954e-09
9.02848e-09
-5.66401e-09
6.14173e-09
-6.77406e-10
-1.47925e-09
3.63632e-09
1.04722e-08
-3.60869e-09
-1.04998e-08
-2.79244e-09
-9.2079e-10
6.93814e-10
-1.06137e-09
6.50917e-09
-2.3961e-10
9.96189e-09
6.29695e-09
1.02854e-08
-6.11034e-09
4.03953e-10
-3.90479e-10
6.28336e-09
1.04498e-08
-1.13767e-08
1.08056e-09
-2.22161e-10
1.05178e-08
-5.91422e-09
-4.11662e-09
-1.34601e-09
1.84492e-09
5.96234e-09
-1.14159e-08
-4.58437e-09
3.63691e-09
5.82195e-09
-5.80296e-09
-1.08801e-08
1.02673e-08
-1.0832e-08
-1.31379e-08
-1.91624e-09
-1.88457e-09
1.69386e-08
-7.31304e-09
8.80773e-09
-1.46326e-08
-4.62051e-09
9.88349e-09
3.12641e-09
-8.38948e-09
-1.73725e-09
-1.03866e-08
8.85541e-09
3.26839e-09
-4.88533e-09
-9.17469e-09
1.0139e-08
3.92097e-09
-4.69932e-09
6.81749e-09
-5.67451e-09
3.55623e-09
3.50422e-09
4.34838e-09
-1.51656e-08
-1.05569e-08
9.36169e-09
4.34775e-09
-9.40535e-09
1.72227e-10
-3.99451e-09
2.32984e-10
-5.4133e-09
6.01077e-10
-1.47239e-09
9.67909e-09
8.81603e-10
4.46261e-09
4.79488e-09
6.56834e-09
-6.21436e-09
-7.8599e-09
4.1211e-09
-6.90481e-10
1.22811e-08
-4.81668e-10
-4.52129e-09
-7.27844e-09
3.19024e-09
1.37507e-09
-1.501e-09
-3.06398e-09
6.82205e-09
1.80335e-09
-5.43517e-09
6.67043e-09
1.31468e-09
4.29585e-09
1.12526e-08
2.54036e-09
-9.45755e-09
-4.33525e-09
-4.15843e-09
6.50888e-09
2.74951e-09
-5.09979e-09
2.79605e-09
-2.79003e-09
-4.16428e-09
2.65178e-09
4.0094e-09
1.60642e-10
6.08545e-09
3.23672e-09
6.85627e-09
5.71111e-09
-6.93394e-09
-3.5394e-09
3.45696e-09
7.01674e-09
-7.36765e-09
7.31246e-11
3.60826e-10
-1.38197e-09
5.55323e-09
3.47289e-09
-4.33146e-09
1.29183e-09
-1.35803e-09
3.68869e-09
3.23354e-09
-2.91261e-09
4.4286e-10
9.33129e-09
5.6397e-09
1.28975e-09
9.53966e-09
3.56266e-09
-4.39076e-09
2.81942e-09
-1.99176e-09
3.17419e-10
-4.93498e-09
8.18005e-09
6.77488e-09
-2.41641e-09
-4.04123e-09
-3.75293e-09
-1.04373e-09
-1.07632e-09
5.87265e-09
-4.41794e-09
-5.80587e-09
6.47085e-09
1.51042e-10
6.16628e-09
-3.83532e-09
-2.48219e-09
-3.1863e-09
-1.08097e-09
4.34874e-09
-2.57329e-09
-1.60293e-10
2.75425e-09
-5.7806e-09
5.18897e-09
-4.06379e-09
3.47736e-09
1.30938e-08
1.25382e-08
-8.93661e-09
-1.66961e-08
2.1968e-09
6.83241e-09
9.78422e-09
4.95064e-09
-5.69865e-10
-3.17794e-09
5.94735e-09
-3.76294e-09
6.59187e-09
3.29113e-10
-1.14009e-08
-7.31069e-10
1.1803e-08
-1.55232e-08
-8.3838e-10
1.66908e-08
1.86997e-09
-8.46974e-09
-4.80108e-09
-9.85115e-09
-3.80204e-09
-1.63589e-09
1.14574e-08
-6.82173e-10
-9.13907e-09
-1.27752e-09
9.16137e-09
-9.51957e-09
-1.13658e-08
-3.73407e-10
1.0901e-08
1.82009e-09
1.16763e-09
-1.02568e-08
1.03162e-08
-9.91041e-09
-1.41225e-09
-9.52664e-09
7.75321e-09
-1.04429e-08
1.15649e-08
2.20828e-09
-1.25733e-08
-1.19973e-09
8.31592e-09
-7.14088e-09
1.03899e-08
1.15866e-09
1.2002e-09
6.74239e-09
-7.53549e-09
8.00466e-09
1.09313e-08
7.90354e-09
-9.67333e-09
9.2549e-09
3.49657e-09
-3.83664e-09
-2.05951e-09
-1.24461e-09
-8.65669e-09
-5.9825e-09
7.70198e-09
-1.38466e-10
-1.01875e-09
-1.74948e-09
2.07646e-09
6.91961e-10
6.4296e-10
-2.59616e-09
9.34826e-10
-9.10663e-10
-1.98181e-09
7.80524e-10
2.11225e-09
7.14168e-10
-1.5252e-09
-9.93878e-11
-4.04031e-09
-5.07529e-10
4.38839e-09
1.59304e-10
1.31445e-09
-3.06909e-09
2.39768e-09
-1.00634e-09
-2.89198e-11
-9.8118e-10
-2.53494e-09
9.20063e-10
-1.65913e-09
-3.28032e-10
-2.9333e-09
2.07399e-10
2.51113e-09
-1.24815e-09
-2.78796e-09
1.41406e-09
-8.84889e-10
1.59552e-09
-3.88341e-10
-2.86627e-09
1.02724e-09
-1.9668e-09
2.73663e-10
-1.79309e-09
-1.19066e-09
-3.25584e-09
1.61921e-09
3.97502e-09
-4.52783e-09
-5.18606e-09
5.73908e-09
9.8655e-11
2.24112e-09
1.63539e-09
3.40002e-09
-4.23564e-09
1.93282e-09
-1.09766e-09
2.02293e-09
-1.87913e-09
3.25606e-09
-1.20596e-09
1.66163e-09
-4.69133e-09
1.80358e-09
-2.2677e-09
-7.41955e-10
-1.30118e-09
-7.35584e-10
4.05936e-09
2.43035e-09
-1.79895e-09
1.27593e-09
-3.32908e-09
2.152e-09
2.41292e-09
1.73212e-09
-3.97115e-09
-1.73708e-10
-9.20542e-10
-1.19433e-09
2.42747e-10
-3.18382e-10
-1.59732e-09
2.13764e-09
1.02558e-09
-2.62261e-09
-3.29013e-10
6.80886e-09
-9.43756e-09
8.36955e-09
-5.74071e-09
-4.68503e-09
9.80858e-09
1.68526e-09
2.18403e-09
-2.10465e-09
-9.51677e-09
7.66652e-10
-3.26775e-09
7.52894e-09
1.39314e-09
-5.52758e-10
8.41084e-09
-1.22544e-09
7.59597e-09
-5.6037e-09
7.73919e-09
-2.10496e-09
-6.85952e-09
3.67914e-10
7.42055e-09
-9.89295e-09
-8.45282e-09
2.13477e-09
7.71147e-09
1.43439e-09
4.26456e-09
2.04013e-09
3.13168e-09
5.8987e-09
-1.18335e-08
-1.20979e-08
6.9593e-09
-9.25579e-09
1.68693e-09
9.70579e-09
-1.14429e-08
6.04307e-10
-1.63598e-09
-1.12788e-08
-2.14539e-10
-1.0829e-08
2.31958e-09
1.22811e-08
-1.73958e-09
-1.28609e-08
-2.06666e-10
8.6058e-09
-6.07933e-09
-1.65616e-09
7.5839e-09
-6.13391e-09
-4.83304e-10
5.24361e-09
-8.37983e-09
1.12625e-08
5.72319e-09
1.05932e-08
-6.69187e-09
5.80331e-09
-8.02608e-09
-8.08419e-09
-3.02246e-09
3.12406e-09
7.98275e-09
2.49029e-09
1.87605e-11
-1.6695e-09
5.79824e-09
3.45529e-09
3.3711e-09
2.03531e-10
1.5974e-09
6.64277e-09
6.35087e-09
1.9105e-09
-2.45799e-09
6.22865e-09
2.61244e-09
4.71161e-09
-1.77039e-09
3.28759e-09
-7.46122e-10
8.58187e-09
4.77065e-09
5.11e-10
-2.9574e-09
-2.52529e-09
4.7367e-09
4.28915e-11
4.87045e-09
-3.36259e-09
-1.37607e-09
1.04552e-08
-5.71655e-09
-1.28158e-09
-5.91924e-09
3.83813e-09
-5.60776e-09
-7.51279e-09
3.2781e-09
9.84241e-09
9.01276e-09
-9.92629e-09
-4.69445e-09
2.98934e-09
3.25149e-10
5.69822e-09
1.08508e-09
-4.77539e-09
2.4089e-09
2.3577e-09
-5.01158e-09
3.73914e-09
-5.35558e-09
6.33734e-09
-5.69237e-09
5.02178e-09
2.65759e-10
4.04606e-10
1.03747e-10
2.57124e-11
6.95293e-10
4.35184e-10
-7.25271e-09
2.0919e-09
4.09988e-10
-4.6129e-09
-5.72469e-10
-4.62182e-09
2.02571e-11
5.41945e-09
-3.50709e-10
-5.04313e-09
1.07229e-09
5.01642e-09
-6.75754e-10
-4.6914e-09
6.39043e-10
-2.44356e-10
-5.01258e-09
5.27213e-09
3.79615e-10
-5.25314e-09
-1.33734e-10
5.02905e-11
1.66886e-08
9.35239e-09
-7.77732e-09
-1.82641e-08
8.69065e-09
9.26917e-09
-1.27165e-09
1.49069e-08
-2.83657e-09
-2.7182e-09
1.19211e-08
1.16762e-08
-6.58021e-10
4.08089e-09
5.84566e-09
8.84118e-09
2.57636e-09
-5.87125e-09
-5.54638e-09
2.06075e-09
6.12192e-09
9.7131e-09
-3.65466e-09
-3.48236e-09
7.52652e-09
7.7624e-09
-5.57596e-09
2.15023e-09
1.38518e-08
5.41309e-10
-1.41898e-08
5.72444e-09
-1.04977e-08
5.31447e-09
7.0577e-09
-4.16979e-09
9.50384e-10
8.63649e-09
7.716e-09
3.35907e-09
-4.01761e-09
1.08165e-08
-1.1974e-08
2.47703e-10
3.68859e-09
8.03757e-09
5.05992e-09
-7.88751e-09
-9.14654e-09
1.21386e-08
-4.96669e-09
-2.11224e-09
3.51135e-09
8.87483e-09
-4.49887e-09
4.96912e-09
3.77363e-09
-4.24385e-09
7.37566e-09
3.45434e-09
3.72837e-09
-3.72607e-09
-1.89706e-09
-3.0396e-09
4.55944e-09
3.77169e-10
-6.49893e-09
-6.12414e-09
8.59939e-09
4.02363e-09
-6.81505e-09
-1.58116e-09
1.97213e-09
-1.41151e-09
5.02377e-09
7.21934e-10
7.61767e-09
-1.45541e-09
-1.22865e-08
3.97857e-09
-4.786e-09
6.72629e-09
1.57105e-09
-1.58427e-09
5.26593e-10
3.99867e-10
-6.22613e-09
-5.38324e-09
6.33121e-09
5.27779e-09
3.11349e-09
-8.57711e-10
-8.48215e-09
2.98189e-09
5.08334e-09
-9.53062e-09
1.46522e-09
1.05917e-08
-1.35946e-08
5.98437e-09
3.0365e-09
4.47088e-09
-2.42448e-09
1.17011e-08
1.92663e-09
-1.22098e-10
-4.32628e-09
-9.35168e-10
5.96319e-09
3.32447e-09
-6.17477e-09
-5.08843e-11
1.2345e-08
4.50769e-09
1.1999e-08
-4.80622e-09
5.92057e-09
-1.57211e-09
1.03772e-08
9.73264e-09
4.65772e-09
-1.04787e-08
-3.91154e-09
1.54514e-08
-1.12822e-08
5.56329e-09
-2.33121e-08
7.68721e-09
3.3917e-08
5.1406e-09
-2.14509e-09
-2.63074e-08
9.38451e-09
-1.95025e-08
7.39332e-09
1.20871e-08
-1.73623e-08
1.46597e-08
1.06181e-08
-9.14579e-09
3.66849e-09
-3.21755e-09
2.1523e-08
-7.97445e-09
1.6844e-08
-1.16279e-09
8.63971e-09
6.64996e-09
-1.32358e-08
-1.29166e-08
-6.05475e-09
-2.05127e-09
-3.82918e-09
-1.58674e-08
-4.66626e-09
-1.52566e-08
1.7871e-08
-1.794e-08
7.63101e-09
-1.25081e-08
3.16821e-09
-1.94259e-09
-9.73385e-09
-1.32532e-08
2.64701e-09
2.0354e-09
-1.44167e-08
1.28451e-08
-1.48651e-08
-1.50296e-08
4.48229e-09
1.74506e-08
-2.07651e-08
1.5921e-08
-1.41578e-08
2.71938e-09
1.50905e-08
-2.44077e-09
1.33386e-08
1.76729e-08
-3.30443e-09
-4.30185e-09
-1.31587e-08
-5.4977e-09
-1.19643e-08
1.20154e-08
2.09569e-09
6.20007e-09
-2.03102e-08
4.02673e-09
1.53823e-08
-8.56347e-09
-1.73484e-08
2.16102e-08
1.13791e-08
-1.78466e-08
1.88526e-08
-1.24551e-08
1.51748e-08
1.26629e-08
-1.17526e-08
8.11048e-11
-4.28079e-09
1.855e-08
-1.43499e-08
-2.94738e-09
1.63673e-08
-3.00275e-09
1.75748e-08
9.22488e-09
-3.78596e-08
-4.63767e-09
1.98666e-08
2.26313e-08
-3.30879e-08
2.06029e-09
-6.83136e-09
3.0084e-08
-4.02119e-08
-2.29595e-08
9.56606e-09
1.58804e-08
-1.88662e-08
1.82961e-08
2.04368e-08
-1.37193e-08
-3.08618e-09
-7.12385e-09
5.41847e-09
2.00019e-08
-1.27484e-08
-2.35146e-09
7.97624e-09
-1.93951e-08
1.31509e-08
1.58101e-08
-2.41977e-08
-2.26979e-09
-8.95768e-09
1.72784e-09
-3.29816e-08
-3.39281e-09
-2.49596e-08
-2.72999e-09
2.30098e-08
-1.85521e-08
1.53592e-08
-2.65053e-09
-1.54383e-08
1.55563e-08
-8.40569e-09
-1.00703e-08
2.91991e-09
-1.55651e-09
-1.12141e-08
1.28823e-08
-1.11366e-10
-1.48009e-08
1.4537e-08
-1.29254e-09
1.52152e-08
1.24262e-08
-1.22822e-08
1.72298e-09
-1.30846e-09
-4.36988e-09
-9.86637e-09
1.96545e-08
1.21896e-08
-1.82329e-08
5.35206e-10
3.662e-09
-2.44928e-09
1.39178e-08
-6.5196e-09
-3.73621e-09
1.1942e-08
1.06983e-08
-8.72235e-09
1.45375e-08
-6.96517e-09
8.03265e-09
4.15319e-09
9.9499e-09
-6.66542e-09
-1.28154e-08
1.84855e-08
-5.07721e-09
-1.4715e-08
1.11027e-08
8.68956e-09
-1.35854e-08
3.71007e-09
4.79824e-09
6.26706e-09
5.56976e-09
-5.8907e-09
-5.94612e-09
-6.94595e-09
-3.72284e-10
1.97944e-09
-1.72507e-08
1.07011e-08
4.57064e-09
1.36386e-08
-1.93407e-08
7.68174e-09
-6.20893e-09
-1.35961e-08
1.36991e-08
6.10624e-09
4.50162e-09
2.92819e-09
-1.30636e-08
9.28158e-09
7.49212e-09
-1.57193e-09
8.38907e-09
-2.62081e-09
-1.16587e-08
6.01929e-09
-4.57605e-09
1.10956e-08
-6.02266e-09
-2.23235e-08
-9.81694e-09
-7.33641e-09
4.4415e-09
-4.65566e-09
1.67287e-08
-6.05368e-09
8.18015e-09
-1.68235e-08
1.68299e-08
-1.33054e-08
-9.43299e-09
1.30981e-08
6.05792e-11
-2.58901e-08
6.11652e-09
2.76266e-08
-7.8532e-09
7.96132e-09
-1.56698e-08
-1.81817e-08
1.96836e-08
-1.97716e-08
-1.07125e-08
1.08005e-08
-1.16978e-08
1.33052e-08
4.50917e-09
-2.0365e-09
1.77744e-08
1.18886e-08
2.43804e-09
2.51563e-08
-1.93391e-08
-8.25533e-09
2.38632e-08
-1.28979e-08
-8.52712e-09
2.2618e-09
5.72385e-09
2.67925e-08
-1.58611e-08
-2.96986e-09
1.60226e-08
8.73342e-09
2.96671e-09
2.8113e-08
2.40248e-08
2.10847e-08
-1.99526e-08
1.54408e-08
1.08459e-08
-9.30805e-09
2.82975e-08
8.45891e-09
-4.56427e-10
2.35325e-08
6.01152e-09
2.96654e-08
-2.85409e-09
-5.8519e-09
4.57982e-09
4.12618e-09
-2.7785e-09
6.0326e-11
-1.35898e-10
-6.33294e-09
9.49681e-10
-4.68696e-10
-4.10321e-09
-5.00826e-09
7.74861e-09
-2.18132e-09
2.48758e-09
-8.05491e-09
9.54125e-09
-8.43095e-10
-2.86937e-09
-2.86045e-09
1.92522e-10
5.53744e-09
-1.04693e-10
2.08925e-10
-2.97351e-09
-2.76376e-09
-2.01387e-10
-4.23574e-09
9.00811e-09
9.15705e-09
-3.8516e-09
-2.95649e-10
-5.98884e-09
-1.19521e-09
-9.18575e-09
1.28686e-08
6.42787e-09
-1.17988e-09
-6.44312e-09
-2.80363e-10
5.30702e-10
6.17761e-09
-2.7342e-09
3.08132e-11
2.83239e-09
-4.30787e-09
-1.82072e-10
1.53401e-08
-1.00433e-08
7.22395e-10
-6.0193e-09
4.76556e-09
-1.31282e-08
-4.42299e-09
1.27856e-08
-5.92847e-09
1.08484e-08
1.50047e-08
-1.99246e-08
6.73297e-09
-1.32552e-08
6.24671e-09
2.7583e-10
-3.82011e-09
5.89572e-09
4.65755e-09
-4.99448e-09
1.11423e-08
-6.32907e-09
1.81072e-10
1.82741e-08
-1.29907e-08
6.15064e-10
-5.89838e-09
7.36358e-09
4.98213e-09
1.07794e-09
1.70939e-08
-1.34063e-08
3.21513e-09
-1.81682e-09
-9.12393e-09
7.72558e-09
-3.23929e-09
1.0156e-08
-5.6095e-09
-4.7268e-09
1.80095e-10
-9.82059e-09
1.11704e-08
3.17817e-09
-4.52795e-09
7.33954e-09
-1.65268e-08
3.95869e-09
5.98582e-10
1.19697e-08
1.56655e-09
-7.01289e-09
1.51731e-08
-9.72663e-09
7.78362e-09
8.01144e-09
-1.20065e-08
-3.78869e-09
1.14498e-08
-4.39453e-09
7.28137e-10
5.91164e-09
-1.39429e-08
-8.49565e-09
-1.27704e-08
-2.7647e-10
-5.08157e-09
1.36958e-08
-7.0478e-09
-6.17536e-09
3.12125e-09
3.04873e-09
1.1372e-09
3.8256e-09
6.69739e-09
7.80107e-09
4.4119e-09
-6.96231e-09
-9.45634e-09
-2.09511e-09
1.04906e-08
-3.45349e-09
1.85959e-09
-1.23493e-08
1.40968e-08
-7.71195e-11
7.50915e-10
5.75514e-10
-9.28344e-09
4.24522e-09
-1.24737e-09
-6.17664e-09
8.72019e-09
2.18025e-09
1.58347e-09
-6.02953e-09
-6.7051e-09
2.20258e-08
-1.16395e-08
-3.68062e-09
1.04937e-08
-1.93672e-08
2.16879e-09
9.67101e-09
1.81645e-08
-1.73415e-08
-9.61997e-09
-1.55614e-09
2.08475e-08
-6.44302e-09
2.58235e-08
2.26722e-08
-4.20521e-08
2.93697e-09
-1.89996e-08
5.35808e-09
4.24781e-09
8.5588e-09
-9.9981e-09
-1.39447e-08
4.97703e-09
1.89661e-08
-6.7609e-09
2.12104e-09
1.45472e-08
-1.91873e-08
-2.12066e-09
-1.66951e-08
1.72978e-08
-1.35984e-08
-8.43636e-09
3.24921e-08
-2.96534e-08
1.91063e-10
1.56061e-08
1.24162e-08
-1.74617e-08
2.1218e-08
-3.95869e-09
2.02608e-10
2.29103e-08
-3.01168e-08
-1.02552e-08
-1.63562e-08
8.15019e-09
2.08461e-08
-2.08152e-08
2.85469e-09
1.60446e-09
-1.60676e-08
4.39702e-09
1.86038e-08
1.75631e-08
-3.56599e-09
-3.16211e-08
-1.02105e-08
-5.39541e-09
-4.68659e-09
-1.11338e-08
6.68431e-09
-7.72511e-09
3.89569e-09
-3.42252e-09
1.82571e-08
-9.37314e-09
2.45545e-08
-2.62838e-09
1.44733e-08
9.5086e-10
-1.7257e-08
1.94338e-08
-3.12741e-09
-1.28335e-08
1.59995e-08
-2.2151e-09
1.85864e-08
1.53811e-09
-2.36904e-08
-2.6292e-09
-1.52903e-08
-2.93855e-09
-1.84388e-08
-5.2799e-09
1.35544e-08
1.15256e-08
3.27115e-09
2.09477e-08
-2.52773e-08
1.05872e-09
1.38281e-08
-1.4491e-08
3.9343e-09
6.91872e-09
1.33379e-09
1.26953e-08
1.4869e-08
5.87785e-09
-3.48183e-09
1.28265e-08
3.79957e-09
-1.31438e-08
8.65141e-09
6.81631e-10
-1.28147e-08
-7.1522e-09
-1.55766e-08
-2.5484e-09
1.84991e-08
-2.02306e-08
-5.4204e-09
1.56852e-08
1.36783e-08
-1.08642e-08
1.16188e-08
5.40017e-09
-6.37985e-09
-2.08993e-08
7.04885e-09
1.22505e-08
-6.02534e-09
2.42644e-09
-1.22514e-09
-1.09985e-08
2.75507e-09
9.46869e-09
9.42228e-09
1.60292e-09
1.44538e-08
-1.59337e-08
-1.40966e-08
-1.1987e-09
1.16168e-09
1.40522e-08
-4.08199e-09
-1.05792e-08
6.09264e-10
9.37037e-09
8.17061e-09
-3.48874e-09
-2.41306e-08
1.81732e-09
-4.51237e-09
-5.5947e-09
6.29425e-10
9.67283e-09
9.11976e-09
-1.81957e-08
-1.93409e-08
1.92174e-08
1.8319e-08
-2.48754e-11
1.04593e-08
-2.863e-08
-1.263e-08
1.03449e-08
-5.10625e-09
7.39145e-09
-6.70021e-09
-1.33929e-08
1.29074e-08
7.18574e-09
-2.4386e-09
6.91732e-09
-1.35427e-08
9.06421e-09
6.6904e-09
-1.93453e-08
9.24644e-09
-1.30699e-08
6.27573e-09
-2.45217e-09
-9.46502e-09
1.0896e-08
7.81538e-09
6.69238e-09
-6.02457e-09
-1.37376e-08
1.94273e-10
-2.96697e-09
7.22608e-09
-4.954e-09
4.00375e-09
1.92538e-09
1.61967e-08
1.2849e-08
-8.17587e-09
2.15287e-09
-6.82576e-09
2.04758e-09
5.84752e-09
8.34185e-10
-1.50347e-08
5.78948e-09
-1.13408e-08
6.38574e-09
5.45254e-09
-5.33705e-09
5.67403e-09
-4.51904e-09
-6.96384e-09
1.34081e-08
-5.84921e-09
-5.42694e-09
6.75751e-09
-1.09162e-08
7.11479e-09
-3.41291e-09
-5.35045e-09
-3.10084e-09
-7.41511e-09
3.5523e-09
-8.71473e-09
1.86888e-10
-1.76824e-09
2.47998e-09
-3.5667e-09
2.12348e-09
-1.03695e-09
5.50399e-09
-1.22077e-09
-4.61243e-09
-2.02488e-09
3.67013e-09
2.96701e-09
-2.52824e-09
-1.7478e-09
-3.36347e-10
1.90193e-09
-6.8173e-09
2.97622e-09
1.93935e-09
-5.52093e-09
3.8562e-09
-5.38325e-09
1.85752e-09
-4.62278e-09
-3.28913e-09
4.77999e-10
-1.03904e-09
-4.95991e-09
-7.75046e-10
-5.56433e-09
-2.006e-09
-2.92337e-09
7.31739e-10
4.1976e-09
-3.27978e-09
-4.73853e-10
-7.61999e-10
-7.82565e-09
7.81229e-09
-1.26393e-09
-2.69849e-09
-9.78926e-10
-3.56497e-09
-6.36375e-09
2.20569e-09
-7.81467e-10
-8.28332e-09
5.45354e-09
-7.7552e-11
-3.17026e-09
3.87218e-09
-4.02231e-09
1.24079e-09
-6.23983e-09
4.21769e-09
3.64553e-09
-2.48229e-09
4.15877e-09
-1.09211e-09
8.05723e-10
1.222e-09
3.76403e-09
1.05797e-09
-1.1765e-09
2.70401e-09
-3.20411e-11
-3.0845e-09
-4.50366e-09
8.81007e-09
4.00397e-09
-5.04831e-09
5.70389e-09
-5.32034e-10
-4.11386e-09
3.90429e-09
1.92195e-08
-2.36988e-08
-5.32101e-09
9.80079e-09
-7.74796e-09
3.35646e-08
-6.59676e-09
1.8261e-08
-2.1531e-08
-1.72079e-08
2.04783e-08
-6.65022e-09
8.21705e-09
1.66944e-08
-3.84199e-08
-1.16023e-08
1.87729e-08
3.12493e-08
-1.54373e-08
-4.85962e-09
-1.81228e-08
1.8429e-08
-1.80117e-08
5.42623e-09
-5.84312e-09
-2.8467e-08
2.31972e-08
2.49292e-08
-1.85786e-08
-2.43622e-08
-6.41119e-09
2.8733e-09
-3.20681e-08
1.38158e-08
-1.64136e-08
-3.10916e-08
-2.78642e-08
3.88891e-08
-1.56907e-08
-1.70333e-08
-1.70131e-08
9.08417e-10
1.83399e-08
4.58196e-09
-4.15004e-08
-3.76209e-09
-2.88449e-08
-4.20715e-10
-1.10401e-08
3.16911e-09
8.29178e-09
-5.36962e-09
3.47565e-09
1.47331e-09
6.18716e-10
5.46875e-10
9.34865e-09
7.06124e-10
5.30338e-09
-5.39078e-09
2.92033e-09
9.16719e-09
-4.03442e-09
-8.05306e-09
-1.42056e-09
-1.0287e-09
-1.81956e-09
6.28654e-09
-9.91338e-10
4.92305e-09
-6.79592e-09
-4.59723e-10
-2.86854e-09
1.0827e-08
-4.08715e-09
9.62633e-09
3.8094e-09
4.27547e-09
-3.05924e-09
3.6661e-09
-8.1119e-10
5.74624e-09
-4.02539e-09
3.20224e-09
-4.40985e-09
6.25635e-09
7.66285e-09
-2.4464e-09
-1.4504e-08
5.36215e-09
4.00483e-09
5.13715e-09
-2.10097e-09
-1.47008e-09
-1.09327e-08
-1.06668e-08
7.6456e-09
-3.38652e-09
-9.38123e-09
1.52605e-08
-2.51382e-09
-1.42167e-08
-4.67214e-09
-4.05715e-09
3.33243e-09
-1.22439e-08
-1.99783e-09
3.36896e-09
-1.6737e-08
-5.07055e-09
9.13965e-09
-3.28609e-09
-9.23993e-09
-3.94137e-09
8.3709e-10
1.65449e-08
-1.26034e-08
-5.72487e-10
9.54923e-09
2.67314e-10
-1.95183e-08
-1.40018e-08
-2.54276e-09
-1.70206e-08
5.85643e-09
-1.25467e-08
7.46175e-09
-7.71324e-10
-4.34856e-09
6.01242e-09
4.1927e-09
-8.35256e-09
-9.05415e-09
4.85995e-09
3.23235e-09
5.96067e-09
-1.35416e-08
8.48162e-09
4.67615e-09
3.27387e-09
1.12202e-08
-1.07376e-08
6.42297e-09
1.36276e-08
8.11914e-10
-3.9068e-11