/*--------------------------------*- C++ -*----------------------------------*\
| =========                 |                                                 |
| \\      /  F ield         | OpenFOAM: The Open Source CFD Toolbox           |
|  \\    /   O peration     | Version:  v1612+                                |
|   \\  /    A nd           | Web:      www.OpenFOAM.com                      |
|    \\/     M anipulation  |                                                 |
\*---------------------------------------------------------------------------*/
FoamFile
{
    version     2.0;
    format      ascii;
    class       volScalarField;
    location    "100";
    object      p;
}
// * * * * * * * * * * * * * * * * * * * * * * * * * * * * * * * * * * * * * //

dimensions      [0 2 -2 0 0 0 0];

internalField   nonuniform List<scalar> 
18963
(
1.48994
1.60469
1.5511
1.58164
1.58191
1.6128
1.59701
1.60135
1.56374
1.5943
1.60373
1.56354
1.54713
1.58624
1.59686
1.57182
1.62081
1.62577
1.65636
1.69213
1.67443
1.66643
1.63033
1.62731
1.68602
1.69556
1.65161
1.70085
1.66588
1.66761
1.85503
1.8441
1.88997
1.86914
1.87545
1.88866
1.89445
1.91222
1.86615
1.8778
1.88844
1.87775
1.89914
1.91222
1.90601
1.76788
1.76113
1.83999
1.8353
1.80265
1.79088
1.77888
1.76927
1.83297
1.84134
1.75834
1.76766
1.76851
1.76614
1.77909
1.78917
1.81469
1.79586
1.80826
1.80656
1.81469
1.79752
1.52128
1.52347
1.52601
1.52576
1.53192
1.5341
1.53573
1.54833
1.54056
1.54593
1.53844
1.53575
1.54745
1.55484
1.54903
1.54828
1.54479
1.55246
1.55423
1.49159
1.49539
1.48588
1.49022
1.4907
1.48689
1.50341
1.49727
1.49871
1.48623
1.49773
1.49975
1.48981
1.4948
1.51586
1.51256
1.50767
1.50178
1.51872
1.51703
1.49115
1.50691
1.49759
1.51614
1.51594
1.48093
1.49549
1.49581
1.51674
1.52812
1.52957
1.52679
1.53169
1.51049
1.52229
1.62437
1.6088
1.66193
1.63619
1.58398
1.63852
1.6038
1.67259
1.64037
1.65179
1.63564
1.65764
1.46917
1.47445
1.4723
1.46952
1.47171
1.47317
1.4731
1.46641
1.47171
1.46555
1.46985
1.47134
1.46334
1.4681
1.46757
1.46919
1.4691
1.45797
1.456
1.46231
1.46833
1.46062
1.48919
1.48603
1.47977
1.46875
1.4853
1.48925
1.46554
1.46512
1.46432
1.46292
1.47097
1.47429
1.47061
1.4444
1.44911
1.46359
1.45071
1.48535
1.48629
1.47627
1.45777
1.48752
1.5344
1.52492
1.54079
1.53509
1.53898
1.54194
1.53574
1.54734
1.55188
1.56937
1.57464
1.57534
1.56762
1.56852
1.56828
1.54947
1.48468
1.48464
1.48314
1.48339
1.48267
1.48302
1.48247
1.48594
1.48292
1.48483
1.48255
1.4827
1.48407
1.48298
1.48402
1.48425
1.4835
1.61999
1.61574
1.60421
1.59267
1.61796
1.62436
1.60172
1.59356
1.58044
1.59857
1.5781
1.57997
1.61782
1.58495
1.6064
1.47477
1.47381
1.47424
1.47369
1.47184
1.46815
1.46581
1.46511
1.47937
1.46853
1.47736
1.47746
1.48352
1.47593
1.49795
1.49221
1.49341
1.49685
1.47733
1.50172
1.49868
1.48769
1.49413
1.48407
1.49388
1.53411
1.48934
1.52303
1.50023
1.51623
1.51307
1.506
1.50767
1.61725
1.65287
1.65944
1.68511
1.68892
1.46335
1.46725
1.45706
1.45745
1.47493
1.46665
1.47389
1.46709
1.46058
1.46359
1.46768
1.46158
1.46608
1.46651
1.45799
1.46475
1.46929
1.45056
1.47362
1.46495
1.45732
1.472
1.45591
1.50241
1.50331
1.49913
1.49759
1.49758
1.49026
1.48615
1.4697
1.46927
1.47452
1.47287
1.48763
1.46806
1.4643
1.50132
1.47447
1.47953
1.47759
1.46778
1.47892
1.48663
1.47505
1.47841
1.48398
1.49661
1.49227
1.48323
1.48472
1.48159
1.49789
1.4909
1.4837
1.48451
1.4898
1.48739
1.48495
1.48193
1.54224
1.51099
1.54251
1.56559
1.49938
1.54332
1.57187
1.57928
1.56956
1.56163
1.58214
1.56548
1.52681
1.51634
1.55724
1.5334
1.55205
1.56831
1.55395
1.55749
1.56815
1.59727
1.58516
1.56732
1.5729
1.62058
1.6387
1.66341
1.641
1.59845
1.61406
1.59641
1.64654
1.47705
1.4724
1.47617
1.47307
1.47459
1.47661
1.47646
1.47533
1.47058
1.48228
1.48409
1.48455
1.4861
1.47273
1.47297
1.47497
1.47638
1.47735
1.48299
1.47808
1.56903
1.57995
1.56517
1.56998
1.58074
1.59186
1.58535
1.567
1.572
1.55964
1.57745
1.58092
1.57537
1.58818
1.59407
1.57078
1.58846
1.58689
1.48672
1.48785
1.4738
1.46499
1.47803
1.48912
1.4859
1.48933
1.48435
1.47276
1.48923
1.48255
1.47384
1.48897
1.49512
1.48352
1.48127
1.48752
1.57204
1.56924
1.56073
1.57787
1.56595
1.57462
1.56608
1.56378
1.55363
1.55674
1.5608
1.56555
1.54302
1.54211
1.54104
1.54227
1.55999
1.54288
1.483
1.48792
1.48152
1.48798
1.47934
1.48405
1.48657
1.48858
1.48316
1.47755
1.48486
1.48032
1.48481
1.48414
1.48599
1.48607
1.48622
1.49021
1.4857
1.48911
1.504
1.48955
1.52361
1.49382
1.51773
1.49858
1.50596
1.51849
1.48678
1.47056
1.48443
1.46348
1.50667
1.49978
1.48343
1.50416
1.48582
1.48646
1.56118
1.56005
1.55138
1.56077
1.56104
1.53281
1.53205
1.54556
1.55178
1.52636
1.52816
1.53242
1.54982
1.52822
1.53186
1.53264
1.53006
1.54011
1.54801
1.54854
1.54939
1.52044
1.51657
1.51273
1.51238
1.52214
1.50666
1.50929
1.5469
1.54508
1.55504
1.53421
1.54508
1.55632
1.53766
1.52306
1.54177
1.54633
1.53514
1.52045
1.51701
1.52923
1.51314
1.52043
1.54351
1.54267
1.52022
1.53362
1.53723
1.52809
1.51656
1.53658
1.53487
1.51436
1.49215
1.52184
1.52258
1.50214
1.51152
1.4828
1.49467
1.52364
1.48577
1.49042
1.49315
1.4967
1.50776
1.48704
1.48059
1.49492
1.51733
1.52489
1.5083
1.52263
1.51034
1.51699
1.52069
1.53583
1.52614
1.51769
1.52767
1.50613
1.51355
1.51854
1.50175
1.54093
1.54605
1.54871
1.54057
1.54305
1.55308
1.54633
1.55314
1.56118
1.56259
1.56793
1.5708
1.54899
1.56256
1.55872
1.56603
1.47331
1.47302
1.47984
1.4795
1.48345
1.48387
1.47904
1.4825
1.49344
1.48959
1.48252
1.4876
1.48348
1.49897
1.49514
1.48711
1.5945
1.59477
1.58012
1.57912
1.60893
1.60644
1.61287
1.60427
1.61764
1.57923
1.56629
1.57924
1.60821
1.61357
1.59658
1.58011
1.58295
1.56665
1.60987
1.59967
1.58501
1.55997
1.55277
1.5962
1.6303
1.62311
1.63345
1.55045
1.61062
1.62255
1.60503
1.58482
1.59837
1.61354
1.61115
1.62149
1.60497
1.61668
1.60353
1.60382
1.61477
1.61194
1.62231
1.60748
1.61122
1.58762
1.59405
1.59407
1.59059
1.61492
1.58957
1.5993
1.60131
1.44427
1.45927
1.60448
1.5833
1.58312
1.58604
1.57756
1.57107
1.48653
1.47383
1.48848
1.49498
1.47684
1.46759
1.4773
1.88436
1.83364
1.85125
1.87248
1.83915
1.82479
1.90052
1.82486
1.89444
1.82293
1.85587
1.48041
1.48294
1.48648
1.49011
1.48721
1.47991
1.48729
1.47362
1.47725
1.47536
1.47718
1.47445
1.47858
1.48212
1.5419
1.54607
1.53953
1.52394
1.51736
1.53231
1.51587
1.52119
1.50646
1.50744
1.53312
1.52903
1.51739
1.52459
1.52991
1.538
1.51534
1.54247
1.54609
1.53014
1.53857
1.54194
1.55238
1.52212
1.52877
1.54005
1.53568
1.52483
1.5517
1.53744
1.51776
1.52607
1.53819
1.54955
1.5242
1.5343
1.54846
1.52568
1.54936
1.54769
1.54578
1.46999
1.47615
1.46811
1.47154
1.4767
1.47962
1.472
1.4774
1.48137
1.47811
1.48282
1.48058
1.46407
1.48157
1.47896
1.52966
1.5616
1.55814
1.56566
1.55806
1.52571
1.54322
1.57303
1.59272
1.55808
1.55689
1.58111
1.56106
1.58622
1.5966
1.56266
1.54481
1.56999
1.49167
1.49082
1.5111
1.49373
1.49484
1.50541
1.48788
1.49489
1.54356
1.53955
1.51756
1.54246
1.54309
1.51608
1.59468
1.59351
1.56923
1.58499
1.58549
1.57756
1.55608
1.56963
1.56121
1.56316
1.60417
1.59482
1.58345
1.5632
1.74807
1.76491
1.73408
1.7238
1.76931
1.77883
1.7633
1.80297
1.79776
1.72055
1.73733
1.78715
1.79307
1.75569
1.78057
1.76557
1.48159
1.48728
1.50742
1.52248
1.51798
1.48851
1.49139
1.48733
1.53855
1.54164
1.54325
1.55979
1.51549
1.52355
1.56401
1.56508
1.50995
1.51092
1.48402
1.48741
1.4826
1.4647
1.46424
1.47209
1.47163
1.47499
1.48159
1.47903
1.47851
1.48055
1.47081
1.46335
1.46456
1.47618
1.47981
1.4776
1.4829
1.69455
1.70419
1.70692
1.71593
1.69296
1.69705
1.71778
1.71191
1.72901
1.75123
1.74997
1.70788
1.68927
1.71015
1.72437
1.73635
1.71036
1.73282
1.72916
1.73597
1.48367
1.47756
1.47804
1.48193
1.47451
1.48127
1.4836
1.47997
1.48118
1.48383
1.48436
1.48422
1.48386
1.47861
1.4867
1.48224
1.48499
1.48179
1.48117
1.48033
1.47794
1.48181
1.47734
1.48435
1.47674
1.47407
1.54229
1.53731
1.53144
1.53146
1.54154
1.54289
1.54898
1.52529
1.52331
1.53003
1.53562
1.55261
1.551
1.56103
1.54568
1.54313
1.53184
1.53955
1.55635
1.5559
1.55467
1.54632
1.57577
1.57677
1.5741
1.55763
1.56898
1.58317
1.57004
1.55296
1.5686
1.5804
1.54412
1.55197
1.55426
1.55756
1.55821
1.57521
1.58125
1.56341
1.55072
1.56607
1.56284
1.5555
1.53819
1.51976
1.52035
1.52467
1.52803
1.55014
1.54274
1.54833
1.54175
1.53049
1.53617
1.54215
1.57672
1.59033
1.59339
1.60831
1.58664
1.58485
1.59512
1.58043
1.57443
1.59375
1.58434
1.57419
1.57316
1.56627
1.48974
1.49331
1.48404
1.48275
1.48849
1.47549
1.48589
1.4871
1.50201
1.49441
1.49447
1.48419
1.4732
1.47777
1.46875
1.46567
1.46927
1.47293
1.46473
1.44231
1.44653
1.4402
1.46317
1.4535
1.43538
1.43872
1.4522
1.44644
1.42649
1.44505
1.43222
1.55979
1.56619
1.56092
1.57566
1.55457
1.54857
1.57925
1.58023
1.54559
1.5584
1.53066
1.56139
1.53838
1.52169
1.56245
1.55447
1.55175
1.53782
1.47127
1.46168
1.46654
1.45793
1.4598
1.45285
1.46783
1.45564
1.45988
1.45141
1.45648
1.46328
1.45879
1.46256
1.46525
1.45712
1.45493
1.45543
1.48045
1.48308
1.48261
1.48417
1.4866
1.48508
1.48272
1.48079
1.47881
1.48837
1.48741
1.48744
1.48008
1.47872
1.48278
1.48638
1.48491
1.52248
1.52315
1.50709
1.5097
1.48396
1.48486
1.49071
1.49162
1.52648
1.52098
1.51928
1.50571
1.54965
1.53717
1.54548
1.5414
1.42581
1.42444
1.54633
1.544
1.53397
1.53469
1.52525
1.47881
1.47628
1.4711
1.47845
1.47829
1.48616
1.48631
1.43761
1.44135
1.54129
1.53347
1.53778
1.53336
1.56847
1.56516
1.56116
1.55919
1.50767
1.50605
1.51495
1.56232
1.55296
1.5568
1.53502
1.5349
1.5417
1.46581
1.46965
1.48925
1.48755
1.48483
1.49757
1.49796
1.49631
1.48917
1.48957
1.49382
1.5355
1.52827
1.48541
1.48501
1.48456
1.58244
1.57809
1.46362
1.45694
1.45612
1.55818
1.55208
1.56048
1.542
1.53089
1.53087
1.48486
1.47782
1.48142
1.52035
1.58104
1.58212
1.48935
1.48893
1.55276
1.55812
1.46804
1.4644
1.46278
1.48893
1.4907
1.484
1.47582
1.62572
1.61896
1.62076
1.62612
1.61892
1.5491
1.54765
1.60891
1.60479
1.60586
1.48304
1.48133
1.48384
1.55746
1.54742
1.48032
1.47716
1.47485
1.50683
1.47566
1.48632
1.6311
1.63272
1.48296
1.48297
1.48367
1.6524
1.65986
1.47913
1.48032
1.49076
1.59938
1.59401
1.58984
1.47314
1.47769
1.47243
1.61621
1.60612
1.4781
1.47904
1.53465
1.54867
1.71269
1.70662
1.70311
1.6748
1.65989
1.65477
1.63837
1.66426
1.66926
1.66876
1.46678
1.48107
1.6095
1.59755
1.63648
1.49063
1.47934
1.47503
1.46856
1.5156
1.52665
1.47625
1.47285
1.46647
1.47067
1.47447
1.46612
1.76019
1.75553
1.75937
1.71797
1.7131
1.46892
1.46769
1.46877
1.46921
1.46931
1.46648
1.47233
1.72369
1.71609
1.68992
1.82641
1.80222
1.80922
1.56987
1.51936
1.53931
1.50278
1.47449
1.47464
1.46184
1.47169
1.46565
1.46296
1.47019
1.47629
1.4686
1.47184
1.68471
1.66413
1.62678
1.46176
1.46092
1.59581
1.57061
1.55961
1.47637
1.47189
1.47653
1.91241
1.89755
1.88974
1.89862
1.88461
1.89235
1.87171
1.88297
1.78488
1.74957
1.77367
1.84449
1.83206
1.74849
1.77322
1.79195
1.90101
1.88785
1.84217
1.83579
1.49247
1.51177
1.5194
1.62126
1.59318
1.57941
1.54402
1.53237
1.56583
1.6462
1.55147
1.54056
1.62903
1.64528
1.84015
1.82688
1.83971
1.80877
1.84513
1.86462
1.86678
1.86932
1.87716
1.86259
1.87147
1.87662
1.87309
1.87577
1.85952
1.85851
1.88664
1.88019
1.90262
1.9125
1.91408
1.90243
1.45273
1.48958
1.47629
1.46736
1.47201
1.46854
1.48115
1.46087
1.47394
1.46611
1.45959
1.46631
1.51565
1.51397
1.54927
1.52862
1.55681
1.51438
1.53001
1.51982
1.49008
1.52349
1.52943
1.66762
1.69629
1.65598
1.64476
1.62972
1.46121
1.47547
1.45981
1.46232
1.47567
1.4649
1.44816
1.52777
1.54769
1.57758
1.61349
1.63202
1.61736
1.61265
1.61691
1.59598
1.79028
1.7822
1.78136
1.70556
1.73995
1.69372
1.65017
1.66503
1.69286
1.69196
1.67334
1.7534
1.75243
1.59874
1.5758
1.62694
1.58482
1.59066
1.65714
1.64253
1.47237
1.46972
1.47651
1.47581
1.4695
1.47158
1.46996
1.47276
1.47062
1.47422
1.4733
1.46815
1.47554
1.47644
1.4791
1.47733
1.48139
1.47348
1.45863
1.46856
1.47821
1.46449
1.47507
1.46449
1.54292
1.51908
1.51979
1.52346
1.49241
1.55685
1.50269
1.4832
1.47337
1.50484
1.47516
1.4867
1.49345
1.51094
1.50289
1.48754
1.71883
1.70563
1.70366
1.61363
1.60443
1.6305
1.60238
1.57704
1.81746
1.82033
1.75391
1.75406
1.76466
1.83063
1.81713
1.78659
1.78037
1.75587
1.7289
1.72646
1.71977
1.71874
1.65396
1.64579
1.6689
1.68045
1.68241
1.76876
1.78281
1.76656
1.75388
1.47025
1.48213
1.47479
1.47687
1.47394
1.47342
1.47376
1.47262
1.47386
1.6992
1.70963
1.7049
1.6514
1.64183
1.65725
1.75031
1.74382
1.74577
1.74357
1.71944
1.70138
1.70921
1.68547
1.70651
1.70275
1.70276
1.69877
1.69263
1.6649
1.67005
1.65946
1.6865
1.679
1.71918
1.72806
1.73114
1.73476
1.71654
1.7851
1.77999
1.77685
1.75485
1.76431
1.75997
1.47756
1.47948
1.47532
1.45986
1.46598
1.46738
1.46652
1.49227
1.48253
1.49558
1.46797
1.47511
1.47533
1.47625
1.46813
1.47225
1.46363
1.47647
1.47948
1.47125
1.47845
1.48313
1.49709
1.50843
1.62308
1.60141
1.62627
1.57222
1.54322
1.53947
1.57535
1.55292
1.54489
1.5875
1.60398
1.62878
1.61422
1.62615
1.61233
1.60099
1.59348
1.58595
1.56031
1.46977
1.46711
1.45517
1.47482
1.47016
1.50724
1.52124
1.52226
1.52733
1.50615
1.50927
1.48978
1.54456
1.47079
1.47183
1.47173
1.50463
1.4764
1.47388
1.47884
1.46862
1.4919
1.48754
1.56861
1.59119
1.60655
1.59286
1.54992
1.55375
1.56784
1.56015
1.57484
1.55291
1.56154
1.64848
1.62148
1.60623
1.61923
1.61305
1.65996
1.65642
1.61929
1.60769
1.47599
1.47288
1.48519
1.48488
1.48049
1.48161
1.48205
1.48359
1.475
1.47749
1.4712
1.471
1.48559
1.47104
1.47937
1.68028
1.68778
1.68057
1.68317
1.69047
1.69973
1.69219
1.6724
1.65191
1.65239
1.64804
1.63665
1.65684
1.65314
1.65976
1.65998
1.66503
1.66036
1.66123
1.65821
1.68334
1.68479
1.66948
1.69532
1.69686
1.64483
1.63293
1.64896
1.65889
1.64366
1.6113
1.61584
1.60601
1.6275
1.67585
1.68075
1.67939
1.68223
1.67388
1.68612
1.68478
1.68138
1.73636
1.72077
1.70822
1.74042
1.73735
1.6969
1.68489
1.69481
1.67854
1.70108
1.68089
1.6836
1.69613
1.69361
1.50058
1.52192
1.51152
1.55828
1.55876
1.5445
1.58328
1.59702
1.59037
1.55051
1.55841
1.58931
1.56731
1.56042
1.49427
1.50418
1.51452
1.52392
1.5171
1.49691
1.48386
1.47604
1.46392
1.47702
1.52271
1.52676
1.48174
1.48227
1.48156
1.47982
1.4833
1.48315
1.63865
1.62572
1.62169
1.62362
1.64408
1.6383
1.62331
1.61739
1.63956
1.61351
1.5989
1.59546
1.59532
1.61189
1.6013
1.59847
1.60773
1.60237
1.59395
1.61967
1.607
1.58429
1.57594
1.57897
1.55422
1.58683
1.58893
1.56868
1.59299
1.59228
1.55954
1.57087
1.47973
1.47888
1.46301
1.47349
1.46632
1.47477
1.47585
1.47891
1.47447
1.47175
1.47388
1.4752
1.47887
1.4596
1.46357
1.47495
1.45829
1.48843
1.49561
1.57918
1.56938
1.59426
1.58358
1.55392
1.56616
1.56382
1.57876
1.58596
1.59714
1.57751
1.5907
1.60812
1.59184
1.62807
1.61018
1.58903
1.63722
1.48345
1.47158
1.48788
1.47854
1.47572
1.4759
1.48574
1.47917
1.48385
1.64965
1.65026
1.63994
1.64551
1.64027
1.62467
1.67355
1.66983
1.65328
1.67462
1.64795
1.64865
1.6416
1.65641
1.64791
1.48293
1.48111
1.59435
1.59547
1.59795
1.613
1.59649
1.61936
1.61168
1.63602
1.62717
1.61674
1.6189
1.63269
1.64585
1.62859
1.65348
1.63134
1.65416
1.6436
1.62908
1.63454
1.65863
1.65446
1.46422
1.46376
1.46751
1.4712
1.47705
1.47015
1.47808
1.47773
1.46893
1.46805
1.48139
1.48302
1.46234
1.47352
1.48221
1.47886
1.48669
1.49204
1.48132
1.48655
1.47991
1.47675
1.46792
1.47885
1.48504
1.48306
1.48132
1.48229
1.48434
1.48515
1.48275
1.48737
1.4834
1.48348
1.49697
1.4671
1.47303
1.48971
1.55366
1.55328
1.52399
1.5017
1.50206
1.52639
1.50914
1.50149
1.56093
1.48985
1.50893
1.54761
1.56346
1.52438
1.54086
1.51158
1.48146
1.52411
1.50596
1.49445
1.48659
1.48281
1.49262
1.4697
1.49081
1.48604
1.48953
1.48641
1.49059
1.46544
1.46316
1.4611
1.57662
1.5751
1.58594
1.56372
1.55661
1.59541
1.58718
1.55173
1.58536
1.59408
1.58724
1.57117
1.56035
1.54264
1.53696
1.53486
1.52217
1.51847
1.54272
1.53445
1.5387
1.54489
1.54933
1.5491
1.55089
1.55913
1.48479
1.48666
1.48503
1.48503
1.48688
1.48534
1.48402
1.48549
1.48226
1.48155
1.484
1.4866
1.48222
1.48487
1.48201
1.48279
1.48246
1.47986
1.48377
1.60167
1.61144
1.60473
1.6086
1.5951
1.58764
1.59028
1.5903
1.59685
1.57726
1.59462
1.58483
1.5876
1.58666
1.58002
1.59321
1.58883
1.50925
1.51485
1.52241
1.52276
1.53118
1.54526
1.55845
1.55052
1.54185
1.53797
1.54631
1.53766
1.5512
1.54433
1.61113
1.61984
1.61637
1.61947
1.61128
1.59794
1.60458
1.61007
1.60623
1.60279
1.61023
1.60198
1.61332
1.63217
1.61854
1.6421
1.63906
1.6397
1.62109
1.6348
1.63969
1.63643
1.46808
1.48091
1.47665
1.47739
1.47509
1.48548
1.48477
1.49518
1.49028
1.50437
1.49341
1.48114
1.48566
1.50397
1.49008
1.48943
1.47072
1.48092
1.47867
1.48353
1.47999
1.48221
1.48032
1.47358
1.48419
1.47758
1.4903
1.49868
1.48316
1.47866
1.48098
1.48774
1.48278
1.46468
1.46638
1.46298
1.46261
1.46908
1.47566
1.45821
1.45258
1.47665
1.47234
1.4686
1.46549
1.4643
1.45806
1.46661
1.46737
1.56966
1.56002
1.52558
1.53746
1.53992
1.48656
1.48826
1.48934
1.48896
1.48535
1.47755
1.48178
1.48355
1.49392
1.48586
1.48283
1.47871
1.48642
1.48412
1.48755
1.4859
1.48479
1.48488
1.48717
1.48676
1.55055
1.55774
1.54915
1.55453
1.56077
1.56706
1.56322
1.55616
1.54287
1.57427
1.58568
1.58481
1.58896
1.57132
1.55123
1.55986
1.57513
1.56674
1.56498
1.56847
1.55903
1.57034
1.57388
1.59866
1.59699
1.60249
1.5973
1.58281
1.56544
1.57901
1.57342
1.5731
1.56732
1.57566
1.5758
1.58838
1.57769
1.58499
1.59646
1.59223
1.59006
1.58126
1.59208
1.58361
1.57872
1.57491
1.52418
1.51882
1.53829
1.50558
1.51719
1.53356
1.54453
1.53889
1.51541
1.52681
1.52199
1.47948
1.46651
1.47179
1.48295
1.48815
1.48243
1.48194
1.48265
1.50812
1.49548
1.51118
1.51988
1.50507
1.49178
1.51135
1.53568
1.52312
1.51938
1.51498
1.51384
1.52087
1.52797
1.55941
1.55102
1.53035
1.5382
1.54961
1.53652
1.54344
1.55457
1.55353
1.54773
1.56092
1.55085
1.56726
1.5462
1.56187
1.56614
1.5546
1.44479
1.45264
1.45256
1.46624
1.4636
1.45593
1.46292
1.45865
1.46259
1.46896
1.47167
1.46984
1.46793
1.46739
1.46458
1.46301
1.57177
1.56521
1.57542
1.56752
1.56422
1.56606
1.56064
1.58196
1.56475
1.56932
1.57514
1.56088
1.57751
1.57332
1.58252
1.57828
1.58677
1.58817
1.57949
1.57253
1.58527
1.58791
1.59275
1.58635
1.58688
1.57649
1.56729
1.57321
1.56888
1.57946
1.57309
1.48514
1.48557
1.48441
1.48247
1.48501
1.48566
1.48748
1.48313
1.48684
1.48244
1.48259
1.48484
1.48517
1.47603
1.47858
1.4825
1.54446
1.54006
1.54079
1.53679
1.53266
1.55145
1.54947
1.52802
1.52157
1.54289
1.52101
1.53138
1.54058
1.52552
1.54615
1.53009
1.48955
1.49062
1.48421
1.46074
1.46812
1.47261
1.48168
1.48867
1.50194
1.50405
1.49871
1.50223
1.49193
1.49335
1.48923
1.49158
1.50921
1.51023
1.49732
1.49765
1.50807
1.49045
1.48926
1.4824
1.48853
1.49858
1.4862
1.49327
1.4907
1.48788
1.48548
1.49053
1.48464
1.48803
1.48332
1.48513
1.48478
1.48135
1.47943
1.48463
1.49093
1.442
1.45458
1.46764
1.46667
1.45448
1.4642
1.46409
1.46748
1.54711
1.54696
1.52516
1.52764
1.52925
1.5354
1.54257
1.54145
1.53859
1.53817
1.52741
1.54301
1.54733
1.54124
1.54903
1.5535
1.55643
1.55578
1.56025
1.56163
1.5607
1.56085
1.55157
1.54898
1.5572
1.53544
1.54492
1.54067
1.55544
1.54036
1.53642
1.55875
1.5483
1.54245
1.55594
1.5387
1.55792
1.53693
1.54635
1.54878
1.51996
1.51277
1.51731
1.48992
1.51792
1.50693
1.49951
1.50236
1.51281
1.51327
1.48781
1.48401
1.50096
1.48734
1.49525
1.49477
1.49822
1.49615
1.55918
1.56685
1.57089
1.56379
1.56959
1.55423
1.56464
1.5572
1.54809
1.53426
1.53049
1.54719
1.53099
1.4302
1.44015
1.43722
1.44813
1.44
1.44341
1.43138
1.43788
1.43732
1.44056
1.44488
1.44598
1.48206
1.48701
1.48409
1.48238
1.4915
1.48726
1.47841
1.48116
1.49242
1.49678
1.49559
1.48985
1.48532
1.48417
1.48639
1.47773
1.47525
1.47738
1.47904
1.47759
1.48188
1.48104
1.47722
1.47765
1.47737
1.47374
1.46504
1.46437
1.46638
1.47361
1.46833
1.51731
1.51939
1.51854
1.54079
1.54787
1.54275
1.55333
1.55018
1.54549
1.53638
1.54799
1.54527
1.5373
1.55111
1.55236
1.54232
1.5346
1.54633
1.54471
1.54324
1.53787
1.55193
1.55277
1.54351
1.54465
1.55499
1.55529
1.53528
1.53788
1.53463
1.53456
1.54203
1.53362
1.53746
1.53884
1.55595
1.54937
1.55073
1.55982
1.55426
1.54474
1.41927
1.41945
1.53064
1.52993
1.52031
1.51961
1.53831
1.53993
1.53329
1.53289
1.53326
1.53846
1.52903
1.5224
1.54944
1.52711
1.54945
1.5542
1.55551
1.55348
1.54044
1.53899
1.55754
1.50267
1.50641
1.51108
1.50159
1.53396
1.49781
1.51599
1.53277
1.51402
1.51207
1.51473
1.51629
1.51689
1.51533
1.50739
1.51043
1.50271
1.51759
1.52061
1.48231
1.4949
1.48696
1.4857
1.48437
1.46941
1.46042
1.46645
1.4634
1.47252
1.47989
1.45922
1.45448
1.47614
1.47984
1.48656
1.48947
1.48106
1.48108
1.47536
1.47962
1.47683
1.51304
1.51325
1.50916
1.49768
1.5138
1.52107
1.51207
1.50516
1.49373
1.49062
1.49373
1.51157
1.51341
1.52934
1.53155
1.523
1.51021
1.50885
1.52384
1.51673
1.55148
1.55532
1.45861
1.45798
1.47672
1.47872
1.48196
1.48078
1.48549
1.55255
1.55461
1.55369
1.54492
1.50679
1.49838
1.51348
1.49699
1.49603
1.51227
1.50787
1.50497
1.49669
1.50332
1.50699
1.49777
1.49318
1.48931
1.51182
1.49674
1.4988
1.49965
1.50771
1.49243
1.48821
1.48629
1.49275
1.48513
1.48987
1.48732
1.49753
1.49282
1.5458
1.54299
1.53506
1.55234
1.53863
1.54964
1.54525
1.53522
1.52853
1.55922
1.54971
1.55304
1.54233
1.56308
1.54949
1.54219
1.55528
1.54435
1.5439
1.55839
1.55622
1.54612
1.53418
1.54185
1.54787
1.54269
1.55001
1.53665
1.54237
1.5386
1.54485
1.5375
1.54824
1.54575
1.55692
1.54723
1.55912
1.55013
1.4827
1.48129
1.48477
1.47806
1.47774
1.47854
1.47932
1.47669
1.47588
1.53112
1.52774
1.55433
1.54111
1.5457
1.53563
1.53393
1.51823
1.54663
1.53114
1.53262
1.55101
1.5453
1.56565
1.54787
1.54702
1.55995
1.5512
1.56125
1.55422
1.56098
1.55464
1.52192
1.51445
1.52929
1.5339
1.52948
1.51511
1.52922
1.53568
1.5331
1.53483
1.52635
1.52074
1.51851
1.51721
1.52732
1.53178
1.46503
1.47498
1.47386
1.47219
1.47009
1.44892
1.4697
1.45387
1.45949
1.46166
1.45899
1.50229
1.5197
1.52529
1.52345
1.53032
1.5224
1.53295
1.5124
1.52067
1.5086
1.50716
1.50835
1.50344
1.51024
1.46543
1.46184
1.47304
1.48077
1.48428
1.48085
1.46314
1.54714
1.54498
1.54964
1.55767
1.5606
1.56354
1.55116
1.56133
1.5517
1.57021
1.55681
1.57096
1.57766
1.56318
1.55937
1.55635
1.57736
1.5763
1.57565
1.55358
1.58653
1.56878
1.56434
1.56262
1.55027
1.55319
1.50285
1.52769
1.51363
1.5196
1.51155
1.50369
1.51019
1.53125
1.52746
1.56651
1.57307
1.5674
1.56473
1.5723
1.56833
1.48591
1.48338
1.48528
1.48439
1.4868
1.5492
1.54953
1.53883
1.53458
1.55585
1.55118
1.57663
1.57615
1.57375
1.56715
1.5599
1.47598
1.49452
1.511
1.49351
1.50934
1.48032
1.48177
1.49196
1.49855
1.49688
1.4866
1.48551
1.48573
1.48587
1.4845
1.48344
1.4797
1.48164
1.47929
1.48313
1.59621
1.59451
1.57917
1.59357
1.57427
1.57536
1.57188
1.58821
1.58657
1.59828
1.59348
1.58707
1.59771
1.47159
1.46526
1.49485
1.48313
1.50544
1.49168
1.47015
1.58648
1.6005
1.59971
1.5974
1.57908
1.577
1.58087
1.59458
1.5912
1.59126
1.58701
1.4813
1.48042
1.4781
1.47834
1.48439
1.48269
1.48108
1.47577
1.46985
1.47815
1.47149
1.47377
1.47593
1.47286
1.47104
1.47429
1.47227
1.48379
1.47165
1.47409
1.47642
1.47947
1.48067
1.47436
1.47447
1.48179
1.47564
1.47345
1.48223
1.4788
1.48076
1.47992
1.4809
1.47907
1.47644
1.48024
1.47998
1.53096
1.56025
1.55839
1.54764
1.54997
1.53961
1.5363
1.54031
1.53148
1.51037
1.48461
1.49377
1.52125
1.52144
1.51804
1.48817
1.49062
1.51905
1.50449
1.53146
1.52152
1.55414
1.54116
1.53207
1.56659
1.57189
1.52465
1.52173
1.50879
1.5116
1.50292
1.5025
1.50079
1.50294
1.50301
1.49681
1.497
1.48398
1.47388
1.48374
1.48446
1.48015
1.48374
1.48711
1.48504
1.48666
1.47866
1.48146
1.48442
1.48102
1.48481
1.48371
1.4853
1.48438
1.47891
1.48122
1.46835
1.46981
1.48365
1.48037
1.47717
1.47681
1.46945
1.46202
1.47551
1.47713
1.47852
1.48319
1.47888
1.48024
1.46608
1.47428
1.48844
1.47794
1.47945
1.47758
1.59905
1.59808
1.59866
1.60907
1.61076
1.61455
1.61823
1.62394
1.61682
1.63771
1.63005
1.6396
1.6353
1.62182
1.61404
1.60525
1.63874
1.63551
1.61855
1.61363
1.61426
1.60622
1.63823
1.6447
1.64302
1.63484
1.64778
1.63865
1.63359
1.62409
1.64765
1.63703
1.48487
1.48243
1.48425
1.48363
1.48216
1.48442
1.48355
1.48136
1.48213
1.48305
1.52148
1.52929
1.50541
1.51113
1.51656
1.50541
1.52329
1.52597
1.48714
1.48525
1.48978
1.73535
1.72665
1.72319
1.73509
1.75635
1.74638
1.73164
1.7284
1.70929
1.70393
1.6537
1.66593
1.67338
1.66448
1.65734
1.66659
1.67304
1.66882
1.66887
1.62856
1.62307
1.62913
1.61169
1.64005
1.63246
1.64657
1.62465
1.68001
1.70229
1.68239
1.71112
1.70721
1.70175
1.70285
1.69167
1.48081
1.48713
1.48275
1.48298
1.48147
1.48252
1.47319
1.48855
1.48321
1.48246
1.47585
1.48299
1.4837
1.48217
1.48536
1.47321
1.47824
1.4716
1.48037
1.48026
1.48184
1.48589
1.47762
1.47642
1.46173
1.45964
1.47246
1.46881
1.47297
1.46473
1.47176
1.4642
1.46225
1.46171
1.4589
1.4627
1.48403
1.48488
1.47901
1.47884
1.48364
1.47878
1.47743
1.4804
1.4801
1.48177
1.4816
1.47956
1.46443
1.50246
1.48566
1.47537
1.7268
1.75846
1.76713
1.76394
1.77636
1.7719
1.72457
1.73641
1.82734
1.80994
1.82008
1.84445
1.83557
1.80155
1.78669
1.81008
1.7879
1.66723
1.66279
1.66798
1.67609
1.6531
1.69947
1.66853
1.66138
1.65735
1.643
1.64556
1.63667
1.63389
1.65801
1.64778
1.60727
1.60308
1.62354
1.61871
1.64273
1.61981
1.68978
1.66667
1.68378
1.67673
1.66354
1.68008
1.66897
1.68233
1.67083
1.67492
1.47485
1.47269
1.47368
1.47536
1.47167
1.47434
1.47252
1.47431
1.47898
1.47817
1.48065
1.4808
1.47214
1.47856
1.47535
1.47514
1.4757
1.47348
1.47838
1.80888
1.77222
1.80544
1.77252
1.81784
1.81258
1.7985
1.78803
1.68813
1.69422
1.73101
1.7094
1.72474
1.73364
1.72633
1.73538
1.72055
1.70636
1.74564
1.73559
1.73271
1.74896
1.65621
1.67954
1.67323
1.69294
1.69737
1.69403
1.70139
1.68866
1.67796
1.65167
1.63995
1.65402
1.66125
1.65234
1.79071
1.78386
1.76239
1.7784
1.77412
1.7507
1.73145
1.75417
1.73892
1.78202
1.79453
1.79112
1.75923
1.78463
1.75083
1.75414
1.78646
1.77455
1.79008
1.77359
1.78268
1.79215
1.77596
1.77657
1.78666
1.65034
1.63305
1.60343
1.56579
1.58732
1.66707
1.67537
1.4755
1.47777
1.47408
1.46863
1.47138
1.48393
1.4681
1.47916
1.48181
1.47812
1.48047
1.4679
1.47718
1.48336
1.47963
1.48629
1.52501
1.57225
1.74656
1.7416
1.72203
1.75671
1.76156
1.75324
1.72861
1.70835
1.73106
1.741
1.75979
1.7763
1.82699
1.82592
1.82516
1.8076
1.78626
1.82743
1.7938
1.80802
1.8367
1.79514
1.81608
1.8281
1.79934
1.66439
1.7036
1.69081
1.67869
1.66503
1.69291
1.71079
1.69928
1.64297
1.65073
1.72746
1.73009
1.64492
1.68844
1.475
1.47175
1.48066
1.89379
1.89835
1.91146
1.90333
1.90106
1.88998
1.90159
1.89308
1.82846
1.8004
1.81492
1.84484
1.84328
1.8215
1.83648
1.83664
1.83473
1.81532
1.83621
1.82645
1.78806
1.78108
1.76325
1.76691
1.75244
1.7675
1.76768
1.80159
1.80267
1.79632
1.79379
1.79011
1.77638
1.55693
1.55597
1.57989
1.57621
1.60651
1.66615
1.63089
1.62543
1.65229
1.56807
1.60186
1.59691
1.69008
1.72371
1.75844
1.70763
1.73915
1.71273
1.78115
1.73049
1.75704
1.75517
1.91378
1.89922
1.87921
1.87341
1.85371
1.87605
1.82626
1.83054
1.85608
1.88773
1.87385
1.49509
1.86797
1.90693
1.9005
1.88236
1.90068
1.88552
1.90329
1.89765
1.8902
1.93554
1.93175
1.84963
1.81973
1.80426
1.85648
1.82561
1.85227
1.48718
1.48167
1.48637
1.48712
1.48111
1.49284
1.50036
1.48356
1.48573
1.76258
1.73973
1.76887
1.72138
1.72229
1.78235
1.76321
1.74998
1.71997
1.70512
1.74009
1.46532
1.46872
1.47085
1.47109
1.47266
1.47371
1.47613
1.47691
1.47071
1.4701
1.47348
1.59799
1.53506
1.59004
1.59066
1.58949
1.56136
1.54875
1.55264
1.53997
1.70234
1.67511
1.7089
1.70481
1.71802
1.71154
1.67703
1.68598
1.67918
1.68232
1.71379
1.7026
1.61917
1.61955
1.62655
1.62605
1.62495
1.62575
1.60241
1.60894
1.61162
1.60566
1.61813
1.62297
1.62716
1.61723
1.48531
1.48548
1.48765
1.48381
1.48555
1.485
1.48488
1.48563
1.48458
1.48436
1.48461
1.48554
1.48524
1.51163
1.5156
1.51272
1.49232
1.5085
1.51778
1.52066
1.50819
1.47515
1.47432
1.47584
1.47278
1.47757
1.47662
1.47877
1.47087
1.47574
1.47341
1.47596
1.61066
1.61868
1.61094
1.60471
1.61299
1.59985
1.61442
1.59884
1.60003
1.60684
1.59785
1.60596
1.59351
1.82649
1.83186
1.83309
1.81595
1.75621
1.75139
1.78575
1.5357
1.48078
1.49486
1.50166
1.48546
1.48599
1.48179
1.49612
1.48263
1.49209
1.49039
1.48277
1.47195
1.4733
1.48851
1.49749
1.48979
1.49528
1.48231
1.47771
1.48147
1.47618
1.47774
1.46421
1.46941
1.56831
1.54654
1.53355
1.54849
1.56557
1.54033
1.57294
1.50559
1.50948
1.4966
1.74703
1.69222
1.72918
1.73858
1.73401
1.72816
1.69277
1.47308
1.47489
1.45955
1.46606
1.47385
1.47599
1.47399
1.4708
1.47034
1.47395
1.51424
1.50296
1.49166
1.46556
1.47214
1.48642
1.4838
1.47576
1.47942
1.46828
1.46454
1.46692
1.48363
1.45923
1.45308
1.46222
1.46618
1.46871
1.8345
1.80481
1.85802
1.85681
1.84818
1.82752
1.85583
1.77768
1.76747
1.74355
1.75777
1.73956
1.77891
1.76484
1.76895
1.74699
1.72722
1.70947
1.69897
1.73271
1.7324
1.70307
1.73189
1.72512
1.73897
1.73976
1.72636
1.73325
1.71421
1.6986
1.70639
1.7307
1.74485
1.75021
1.72073
1.74343
1.72586
1.74309
1.75413
1.74396
1.74253
1.72935
1.72984
1.68116
1.70222
1.71008
1.45725
1.4747
1.46956
1.462
1.46765
1.45558
1.45468
1.4619
1.4519
1.46768
1.47012
1.48043
1.47714
1.48271
1.474
1.47827
1.47591
1.47843
1.47823
1.4663
1.48385
1.48642
1.47344
1.4855
1.70687
1.70647
1.6891
1.6906
1.68788
1.66979
1.66599
1.64984
1.68401
1.63595
1.6709
1.6463
1.65638
1.64147
1.50177
1.48826
1.64456
1.64605
1.65626
1.66759
1.66175
1.65967
1.72387
1.71875
1.69819
1.71459
1.71513
1.69952
1.68789
1.70186
1.69311
1.71263
1.70225
1.72173
1.70498
1.53206
1.51452
1.46155
1.46285
1.46041
1.46174
1.47307
1.47418
1.46857
1.47099
1.57846
1.57979
1.62676
1.62759
1.64642
1.63042
1.62819
1.62508
1.62481
1.63984
1.6176
1.67389
1.67584
1.65352
1.64962
1.66059
1.64062
1.653
1.65085
1.65635
1.66314
1.66011
1.65807
1.64295
1.64089
1.64631
1.64585
1.66646
1.65119
1.66699
1.66431
1.64879
1.59238
1.61826
1.61801
1.61088
1.60699
1.6268
1.62256
1.5989
1.61582
1.621
1.60966
1.62115
1.60203
1.48304
1.48436
1.57582
1.57437
1.57193
1.56399
1.56123
1.55708
1.55841
1.54771
1.53731
1.54272
1.52196
1.57364
1.56551
1.48756
1.48653
1.4851
1.48401
1.48603
1.48319
1.48565
1.48495
1.48361
1.48259
1.48497
1.48485
1.57058
1.57639
1.58262
1.57017
1.57097
1.58295
1.57492
1.56508
1.61462
1.6086
1.6084
1.59505
1.59706
1.59358
1.48395
1.48129
1.47116
1.5045
1.5062
1.49472
1.5043
1.48925
1.49246
1.49308
1.51194
1.50733
1.51723
1.53397
1.54515
1.54769
1.54261