/*--------------------------------*- C++ -*----------------------------------*\
| =========                 |                                                 |
| \\      /  F ield         | OpenFOAM: The Open Source CFD Toolbox           |
|  \\    /   O peration     | Version:  v1612+                                |
|   \\  /    A nd           | Web:      www.OpenFOAM.com                      |
|    \\/     M anipulation  |                                                 |
\*---------------------------------------------------------------------------*/
FoamFile
{
    version     2.0;
    format      ascii;
    class       volVectorField;
    location    "150";
    object      U;
}
// * * * * * * * * * * * * * * * * * * * * * * * * * * * * * * * * * * * * * //

dimensions      [0 1 -1 0 0 0 0];

internalField   nonuniform List<vector> 
16995
(
(-0.10768 0.563983 -0.2189)
(-0.0995349 0.587865 -0.234691)
(-0.120718 0.670724 -0.25705)
(-0.16211 0.696861 -0.321942)
(-0.183684 0.984984 -0.386428)
(-0.198822 1.07736 -0.430172)
(-0.205539 1.11244 -0.434364)
(-0.223475 1.19043 -0.482677)
(-0.185116 0.985489 -0.397547)
(-0.188832 1.01056 -0.409869)
(-0.194833 1.04554 -0.4199)
(-0.175796 0.942988 -0.386126)
(-0.196932 1.02553 -0.419858)
(-0.187167 1.00582 -0.397593)
(-0.180379 0.99584 -0.400506)
(-0.205455 1.07957 -0.420899)
(-0.181973 0.974909 -0.391529)
(-0.199419 1.07422 -0.422329)
(-0.169474 0.928253 -0.372224)
(-0.175367 0.937494 -0.375204)
(-0.0918624 0.548192 -0.212943)
(-0.0811784 0.487889 -0.194008)
(-0.103114 0.58779 -0.227869)
(-0.0913871 0.541807 -0.211416)
(-0.114561 0.70637 -0.271357)
(-0.110596 0.697865 -0.267691)
(-0.12429 0.713434 -0.271851)
(-0.124069 0.73683 -0.28721)
(-0.0971855 0.595617 -0.225546)
(-0.10475 0.605187 -0.237725)
(-0.0922966 0.554289 -0.210042)
(-0.10007 0.608051 -0.231267)
(-0.0869582 0.500612 -0.200164)
(-0.119016 0.707603 -0.271581)
(-0.0991583 0.614121 -0.234655)
(-0.0938112 0.568402 -0.219543)
(-0.0906991 0.535835 -0.201332)
(-0.082524 0.522586 -0.200874)
(-0.0794837 0.475885 -0.183652)
(-0.102165 0.611199 -0.231082)
(-0.114767 0.660781 -0.263841)
(-0.101147 0.624762 -0.252451)
(-0.115391 0.614563 -0.243034)
(-0.0965554 0.610756 -0.250431)
(-0.145711 0.761266 -0.302668)
(-0.13674 0.738003 -0.30054)
(-0.104378 0.629287 -0.242246)
(-0.141387 0.756296 -0.305977)
(-0.138648 0.716595 -0.291208)
(-0.105062 0.626576 -0.263592)
(-0.102534 0.612263 -0.262548)
(-0.105204 0.585429 -0.228198)
(-0.107531 0.622295 -0.264578)
(-0.100292 0.568357 -0.247672)
(-0.103934 0.640659 -0.255442)
(-0.105348 0.624203 -0.264054)
(-0.104416 0.534796 -0.223391)
(-0.105753 0.599837 -0.247847)
(-0.149337 0.933023 -0.359906)
(-0.13484 0.853256 -0.329475)
(-0.12339 0.806592 -0.308673)
(-0.144607 0.938812 -0.359507)
(-0.120488 0.780135 -0.298032)
(-0.123041 0.793754 -0.306963)
(-0.146701 0.943369 -0.358584)
(-0.153246 0.972923 -0.374766)
(-0.129156 0.815252 -0.31223)
(-0.123071 0.748757 -0.285024)
(-0.121471 0.778466 -0.296282)
(-0.117672 0.745981 -0.285308)
(-0.114411 0.741859 -0.28644)
(-0.121972 0.783105 -0.299137)
(-0.134854 0.839273 -0.329242)
(-0.162343 0.89758 -0.356238)
(-0.165572 0.918202 -0.367136)
(-0.184244 0.995081 -0.391937)
(-0.168304 0.907718 -0.35945)
(-0.150482 0.857709 -0.347462)
(-0.156453 0.878703 -0.350101)
(-0.170218 0.916115 -0.361223)
(-0.1989 1.06183 -0.418081)
(-0.171272 0.910189 -0.355792)
(-0.17397 0.922918 -0.358394)
(-0.169102 0.911035 -0.360851)
(-0.18669 1.03866 -0.407741)
(-0.183346 0.988231 -0.392385)
(-0.18404 0.985724 -0.386102)
(-0.190226 1.05265 -0.412791)
(-0.188593 1.04989 -0.407117)
(-0.169318 0.929433 -0.373395)
(-0.18039 0.99498 -0.394564)
(-0.191667 1.05683 -0.413937)
(-0.190324 1.04336 -0.408978)
(-0.175442 0.974124 -0.386602)
(-0.144706 0.740101 -0.311333)
(-0.160124 0.791012 -0.318288)
(-0.142737 0.770533 -0.311923)
(-0.1487 0.768091 -0.309969)
(-0.157769 0.830216 -0.338792)
(-0.151805 0.782148 -0.31679)
(-0.142034 0.730916 -0.315087)
(-0.142788 0.790787 -0.318973)
(-0.142573 0.790464 -0.323765)
(-0.173515 0.91764 -0.36835)
(-0.132578 0.744855 -0.311026)
(-0.169108 0.889558 -0.354927)
(-0.169844 0.87879 -0.36765)
(-0.175557 0.901602 -0.374558)
(-0.168264 0.863334 -0.354924)
(-0.152681 0.823123 -0.332303)
(-0.151285 0.842486 -0.339622)
(-0.18485 0.934886 -0.378617)
(-0.156635 0.87641 -0.35706)
(-0.14079 0.76966 -0.3116)
(-0.140826 0.736474 -0.301928)
(-0.152001 0.847117 -0.334793)
(-0.169033 0.898089 -0.358068)
(-0.161919 0.921024 -0.35209)
(-0.157077 0.913466 -0.356578)
(-0.16696 0.935687 -0.360524)
(-0.148767 0.868039 -0.330199)
(-0.136145 0.792245 -0.295978)
(-0.15803 0.850089 -0.32446)
(-0.152698 0.884189 -0.332553)
(-0.14251 0.796294 -0.323963)
(-0.157988 0.848556 -0.33906)
(-0.139278 0.79278 -0.31001)
(-0.156562 0.88043 -0.350911)
(-0.125869 0.725839 -0.281658)
(-0.114212 0.634561 -0.239078)
(-0.147635 0.794323 -0.31523)
(-0.148637 0.870254 -0.328004)
(-0.118235 0.676106 -0.260583)
(-0.139115 0.769494 -0.298366)
(-0.143393 0.792872 -0.312756)
(-0.115873 0.639608 -0.246058)
(-0.155084 0.893655 -0.341005)
(-0.156411 0.922077 -0.358134)
(-0.134948 0.816067 -0.312968)
(-0.126375 0.755102 -0.287245)
(-0.142735 0.840439 -0.320423)
(-0.150941 0.868465 -0.331261)
(-0.15339 0.883517 -0.33829)
(-0.12803 0.732264 -0.283359)
(-0.12464 0.737304 -0.281498)
(-0.115516 0.679736 -0.26465)
(-0.131144 0.772531 -0.301772)
(-0.130676 0.773026 -0.304483)
(-0.116089 0.680652 -0.262998)
(-0.132092 0.792737 -0.305374)
(-0.120824 0.717731 -0.280244)
(-0.123944 0.738952 -0.286754)
(-0.11852 0.717733 -0.281171)
(-0.185878 0.949648 -0.389125)
(-0.182972 0.911576 -0.382599)
(-0.168195 0.830814 -0.342815)
(-0.164601 0.804331 -0.338595)
(-0.152374 0.753343 -0.311737)
(-0.158671 0.762789 -0.322654)
(-0.186421 0.946293 -0.392935)
(-0.172353 0.874138 -0.35961)
(-0.180557 0.900133 -0.366918)
(-0.160583 0.814522 -0.339384)
(-0.179242 0.88873 -0.374368)
(-0.171875 0.874726 -0.365056)
(-0.115154 0.612809 -0.239056)
(-0.119375 0.607435 -0.243618)
(-0.142435 0.734251 -0.295002)
(-0.150319 0.772651 -0.306116)
(-0.112639 0.526451 -0.210892)
(-0.110799 0.516515 -0.197134)
(-0.122658 0.611232 -0.240111)
(-0.116739 0.594241 -0.234876)
(-0.141613 0.759438 -0.304149)
(-0.102389 0.56524 -0.224719)
(-0.104644 0.54965 -0.215056)
(-0.112025 0.582723 -0.23632)
(-0.122407 0.605867 -0.241854)
(-0.134872 0.715518 -0.28816)
(-0.139893 0.746294 -0.298836)
(-0.113256 0.540169 -0.211382)
(-0.115878 0.619051 -0.244597)
(-0.132874 0.720033 -0.287492)
(-0.175728 0.963258 -0.37242)
(-0.158985 0.882342 -0.338356)
(-0.158098 0.914114 -0.352966)
(-0.142627 0.870704 -0.342412)
(-0.160946 0.930231 -0.357812)
(-0.156613 0.921984 -0.351405)
(-0.180192 1.07494 -0.416648)
(-0.15904 0.945748 -0.369969)
(-0.167805 0.954732 -0.372968)
(-0.167477 0.98082 -0.379225)
(-0.169238 1.00283 -0.386493)
(-0.181 1.04642 -0.407101)
(-0.18043 1.08071 -0.416415)
(-0.166561 1.01224 -0.392427)
(-0.154893 0.81374 -0.334298)
(-0.151588 0.790469 -0.326883)
(-0.145755 0.745042 -0.316336)
(-0.1526 0.77339 -0.32091)
(-0.145281 0.755799 -0.316068)
(-0.156219 0.806157 -0.331424)
(-0.113231 0.584746 -0.265183)
(-0.102519 0.529685 -0.251851)
(-0.107236 0.575291 -0.262442)
(-0.106189 0.546992 -0.244545)
(-0.1099 0.576612 -0.264368)
(-0.123368 0.627982 -0.283592)
(-0.116067 0.639247 -0.283349)
(-0.114945 0.642273 -0.280308)
(-0.110226 0.584076 -0.256176)
(-0.149571 0.773415 -0.333153)
(-0.120702 0.621516 -0.277155)
(-0.139886 0.689586 -0.321366)
(-0.113192 0.564915 -0.260822)
(-0.128049 0.631804 -0.293466)
(-0.152471 0.720423 -0.319424)
(-0.150978 0.762288 -0.331103)
(-0.120279 0.602203 -0.276927)
(-0.13108 0.628313 -0.296608)
(-0.122125 0.591733 -0.287539)
(-0.147939 0.708832 -0.322743)
(-0.124591 0.6013 -0.290416)
(-0.14778 0.730006 -0.324134)
(-0.141018 0.659426 -0.314553)
(-0.141877 0.712351 -0.324762)
(-0.126979 0.612108 -0.294358)
(-0.105726 0.527843 -0.266673)
(-0.0971047 0.602305 -0.240424)
(-0.09401 0.602998 -0.235973)
(-0.127807 0.778097 -0.304133)
(-0.128412 0.774243 -0.307471)
(-0.136988 0.779532 -0.300658)
(-0.13019 0.797964 -0.310802)
(-0.099721 0.610365 -0.232522)
(-0.111528 0.671621 -0.263903)
(-0.105342 0.653068 -0.258212)
(-0.0972811 0.612463 -0.240903)
(-0.110875 0.657806 -0.265256)
(-0.135756 0.799619 -0.303594)
(-0.120444 0.732654 -0.277782)
(-0.130242 0.768722 -0.298466)
(-0.102431 0.622737 -0.245545)
(-0.116279 0.6481 -0.257053)
(-0.0935865 0.576968 -0.234796)
(-0.0876941 0.52355 -0.212281)
(-0.10675 0.637465 -0.255487)
(-0.106285 0.613803 -0.243986)
(-0.0931156 0.552408 -0.221632)
(-0.105552 0.606596 -0.242799)
(-0.0967817 0.5494 -0.228802)
(-0.143698 0.723693 -0.279231)
(-0.149495 0.84633 -0.326609)
(-0.13832 0.776901 -0.294081)
(-0.147122 0.792592 -0.308926)
(-0.137785 0.806366 -0.311019)
(-0.14492 0.795192 -0.314824)
(-0.147869 0.752896 -0.301031)
(-0.144586 0.808089 -0.309646)
(-0.115615 0.606215 -0.238249)
(-0.129867 0.678182 -0.272397)
(-0.143776 0.771284 -0.303764)
(-0.125678 0.664857 -0.266618)
(-0.127432 0.649956 -0.262394)
(-0.114896 0.602617 -0.243342)
(-0.131303 0.658029 -0.25737)
(-0.126074 0.637063 -0.25941)
(-0.107746 0.551582 -0.222858)
(-0.12186 0.666076 -0.260919)
(-0.12312 0.642117 -0.259688)
(-0.110953 0.570591 -0.235317)
(-0.124154 0.62339 -0.287396)
(-0.115026 0.565405 -0.283242)
(-0.123679 0.628096 -0.28374)
(-0.114983 0.576856 -0.267563)
(-0.116517 0.570544 -0.270423)
(-0.107544 0.51105 -0.252457)
(-0.14385 0.725698 -0.330603)
(-0.130386 0.624479 -0.292503)
(-0.117437 0.596638 -0.283303)
(-0.0952186 0.492232 -0.254533)
(-0.123044 0.648698 -0.291958)
(-0.140362 0.712105 -0.320476)
(-0.143726 0.702196 -0.319257)
(-0.135017 0.688069 -0.316389)
(-0.103618 0.581306 -0.268266)
(-0.104363 0.56508 -0.275088)
(-0.0981953 0.531195 -0.267264)
(-0.105831 0.606322 -0.236911)
(-0.0998456 0.537528 -0.214303)
(-0.108902 0.601071 -0.236966)
(-0.102326 0.569784 -0.227524)
(-0.101635 0.566487 -0.22291)
(-0.0943088 0.532834 -0.21269)
(-0.0830989 0.496282 -0.200195)
(-0.109874 0.609186 -0.240871)
(-0.116828 0.649165 -0.252557)
(-0.115119 0.631708 -0.253829)
(-0.118736 0.627408 -0.242769)
(-0.122768 0.688351 -0.260264)
(-0.134231 0.796366 -0.313241)
(-0.131597 0.789492 -0.308061)
(-0.143003 0.805117 -0.3152)
(-0.109916 0.601975 -0.238562)
(-0.11353 0.658068 -0.265497)
(-0.117917 0.661893 -0.262866)
(-0.126402 0.675709 -0.268486)
(-0.106947 0.602652 -0.236479)
(-0.097877 0.576504 -0.227077)
(-0.138033 0.805286 -0.308905)
(-0.145455 0.76779 -0.2992)
(-0.151439 0.821765 -0.31293)
(-0.104989 0.582027 -0.22339)
(-0.110228 0.621938 -0.243422)
(-0.130598 0.716638 -0.281886)
(-0.122007 0.650957 -0.2545)
(-0.148273 0.806729 -0.309256)
(-0.129626 0.712462 -0.281236)
(-0.130358 0.597746 -0.244463)
(-0.126296 0.569426 -0.228423)
(-0.122138 0.607398 -0.245085)
(-0.122371 0.567025 -0.236021)
(-0.129222 0.617536 -0.251427)
(-0.131569 0.665372 -0.270191)
(-0.13519 0.632736 -0.255954)
(-0.120348 0.561669 -0.236189)
(-0.150467 0.752405 -0.307032)
(-0.15443 0.782579 -0.317254)
(-0.121196 0.592719 -0.240516)
(-0.125815 0.633756 -0.25242)
(-0.151798 0.723004 -0.289796)
(-0.160839 0.784745 -0.322039)
(-0.16386 0.803694 -0.328333)
(-0.136376 0.616687 -0.255019)
(-0.138786 0.662537 -0.268727)
(-0.157118 0.757857 -0.3084)
(-0.162258 0.802277 -0.329148)
(-0.149456 0.765059 -0.31359)
(-0.136522 0.618015 -0.257866)
(-0.15936 0.895142 -0.34591)
(-0.165773 0.915226 -0.348695)
(-0.171772 0.965038 -0.366857)
(-0.169546 0.961758 -0.372078)
(-0.160743 0.865872 -0.336645)
(-0.146741 0.820045 -0.316193)
(-0.158414 0.842996 -0.326174)
(-0.148666 0.809377 -0.316557)
(-0.171866 0.953206 -0.369018)
(-0.173239 1.00904 -0.387622)
(-0.171439 0.960451 -0.364884)
(-0.18044 1.00938 -0.394339)
(-0.17441 0.962113 -0.374023)
(-0.177551 1.01161 -0.389913)
(-0.172871 0.948313 -0.369979)
(-0.0951806 0.594498 -0.234375)
(-0.103418 0.643462 -0.246912)
(-0.0936868 0.60611 -0.235007)
(-0.0939149 0.588738 -0.228877)
(-0.118243 0.734091 -0.284881)
(-0.112509 0.65864 -0.256218)
(-0.116111 0.728983 -0.281403)
(-0.0882511 0.539798 -0.217387)
(-0.123776 0.754424 -0.296408)
(-0.118458 0.733523 -0.292612)
(-0.102443 0.647823 -0.249211)
(-0.095902 0.607506 -0.236352)
(-0.136331 0.799456 -0.307939)
(-0.135128 0.806283 -0.31177)
(-0.134735 0.769119 -0.298888)
(-0.137987 0.780778 -0.303694)
(-0.105804 0.605296 -0.238708)
(-0.0766442 0.527583 -0.211122)
(-0.118431 0.682867 -0.266388)
(-0.134071 0.788169 -0.302045)
(-0.0865401 0.594391 -0.235759)
(-0.160054 0.930277 -0.356995)
(-0.189117 1.09999 -0.421203)
(-0.186363 1.08761 -0.420041)
(-0.168861 0.985728 -0.382767)
(-0.180065 1.07284 -0.418058)
(-0.157939 0.902644 -0.347678)
(-0.153594 0.838501 -0.326991)
(-0.159483 0.897264 -0.348035)
(-0.159888 0.851302 -0.33015)
(-0.152458 0.861999 -0.32942)
(-0.144822 0.86569 -0.33689)
(-0.165853 0.974396 -0.379229)
(-0.162089 0.935398 -0.361222)
(-0.16797 0.990075 -0.381167)
(-0.141104 0.84868 -0.327826)
(-0.147419 0.843156 -0.316541)
(-0.161558 0.941048 -0.365377)
(-0.186428 1.07355 -0.409672)
(-0.179133 1.0439 -0.405858)
(-0.167074 0.971758 -0.376388)
(-0.178896 1.04258 -0.400934)
(-0.184481 1.06172 -0.410177)
(-0.185619 1.08331 -0.417592)
(-0.172489 1.0215 -0.395827)
(-0.185742 1.08519 -0.42142)
(-0.176433 1.03024 -0.399499)
(-0.161393 0.923004 -0.355899)
(-0.172606 1.00084 -0.38745)
(-0.164742 0.961557 -0.371835)
(-0.160958 0.935586 -0.366034)
(-0.17108 0.986394 -0.383003)
(-0.164948 0.931963 -0.36191)
(-0.159943 0.926178 -0.35716)
(-0.174748 1.00005 -0.387671)
(-0.159565 0.912277 -0.353703)
(-0.156805 0.913205 -0.35353)
(-0.202519 1.03094 -0.443913)
(-0.205789 1.05992 -0.445714)
(-0.206403 1.05596 -0.454067)
(-0.200929 1.02023 -0.437793)
(-0.216284 1.08007 -0.466512)
(-0.217121 1.10663 -0.466165)
(-0.155117 0.80392 -0.369763)
(-0.165166 0.865974 -0.385243)
(-0.159905 0.798329 -0.36152)
(-0.155476 0.806845 -0.370303)
(-0.161965 0.873527 -0.382938)
(-0.179147 0.909657 -0.399177)
(-0.179907 0.932829 -0.394908)
(-0.204812 1.03702 -0.447026)
(-0.197904 1.00677 -0.418558)
(-0.154659 0.809993 -0.367902)
(-0.178713 0.912341 -0.400358)
(-0.202599 1.0089 -0.434334)
(-0.191139 0.980541 -0.423804)
(-0.163456 0.862329 -0.388203)
(-0.181298 0.925784 -0.413223)
(-0.162658 0.72288 -0.340665)
(-0.137601 0.569427 -0.280015)
(-0.172746 0.746455 -0.345726)
(-0.131586 0.553388 -0.274146)
(-0.137054 0.606989 -0.294406)
(-0.140565 0.600136 -0.300892)
(-0.140025 0.677212 -0.315646)
(-0.131363 0.563071 -0.282664)
(-0.15344 0.92147 -0.343496)
(-0.146596 0.869523 -0.323794)
(-0.149162 0.892996 -0.340458)
(-0.150242 0.855333 -0.315352)
(-0.147199 0.884594 -0.329545)
(-0.161932 0.961385 -0.366061)
(-0.168519 0.980357 -0.370129)
(-0.163252 0.908993 -0.341632)
(-0.163714 0.994093 -0.369264)
(-0.168902 1.01995 -0.38083)
(-0.152446 0.883419 -0.326788)
(-0.141504 0.82707 -0.303142)
(-0.165904 0.977658 -0.366784)
(-0.162427 0.960796 -0.365655)
(-0.164984 0.982114 -0.366194)
(-0.183971 0.967679 -0.390501)
(-0.178706 0.964279 -0.387696)
(-0.193023 1.02169 -0.412836)
(-0.191103 1.01663 -0.408567)
(-0.173942 0.881205 -0.357666)
(-0.18 0.949246 -0.384008)
(-0.149449 0.80667 -0.338496)
(-0.177768 0.944148 -0.379492)
(-0.171561 0.931921 -0.382166)
(-0.175829 0.917761 -0.36949)
(-0.184062 0.96297 -0.394827)
(-0.176877 0.896161 -0.373683)
(-0.156133 0.868162 -0.356544)
(-0.151612 0.78966 -0.335534)
(-0.16136 0.803092 -0.32545)
(-0.163982 0.853845 -0.376893)
(-0.172223 0.880596 -0.3819)
(-0.16935 0.837497 -0.378358)
(-0.167609 0.835468 -0.379554)
(-0.170197 0.858147 -0.370349)
(-0.182429 0.90135 -0.388725)
(-0.113752 0.607374 -0.281974)
(-0.109607 0.551243 -0.276621)
(-0.118763 0.60727 -0.286422)
(-0.118296 0.627239 -0.292197)
(-0.124512 0.62247 -0.302599)
(-0.112611 0.602327 -0.291661)
(-0.133263 0.731413 -0.327929)
(-0.141458 0.789133 -0.342491)
(-0.1526 0.803066 -0.347448)
(-0.145174 0.763387 -0.340942)
(-0.151354 0.821896 -0.353137)
(-0.148571 0.830077 -0.322092)
(-0.148369 0.787316 -0.310116)
(-0.134821 0.690789 -0.27093)
(-0.129171 0.693915 -0.276324)
(-0.145603 0.842656 -0.325402)
(-0.149763 0.849693 -0.324938)
(-0.161221 0.879354 -0.335071)
(-0.126949 0.688342 -0.274089)
(-0.149271 0.814813 -0.316212)
(-0.133435 0.738883 -0.296481)
(-0.122664 0.609606 -0.245716)
(-0.108501 0.505266 -0.221313)
(-0.118069 0.571546 -0.234157)
(-0.109547 0.539822 -0.228167)
(-0.128379 0.704475 -0.284198)
(-0.116871 0.611465 -0.252303)
(-0.111477 0.571112 -0.240738)
(-0.100194 0.531939 -0.226152)
(-0.108372 0.583669 -0.245695)
(-0.115484 0.614221 -0.25006)
(-0.117578 0.610618 -0.248586)
(-0.13292 0.713792 -0.284367)
(-0.129082 0.707541 -0.285482)
(-0.133978 0.570875 -0.247329)
(-0.118461 0.516285 -0.22116)
(-0.126723 0.596309 -0.256893)
(-0.125766 0.561616 -0.240475)
(-0.124557 0.54825 -0.232947)
(-0.137871 0.631921 -0.270072)
(-0.152063 0.664855 -0.291718)
(-0.13609 0.589098 -0.262745)
(-0.156483 0.720936 -0.307124)
(-0.156759 0.722737 -0.312857)
(-0.130496 0.618841 -0.261074)
(-0.17288 0.798488 -0.339906)
(-0.161407 0.759992 -0.323372)
(-0.151547 0.735423 -0.313634)
(-0.135906 0.825464 -0.328053)
(-0.150097 0.901046 -0.354435)
(-0.137759 0.812213 -0.318496)
(-0.143643 0.85693 -0.333444)
(-0.152841 0.921491 -0.358557)
(-0.133216 0.823965 -0.326143)
(-0.148591 0.877524 -0.349563)
(-0.151203 0.885756 -0.342458)
(-0.164254 0.96558 -0.368898)
(-0.169923 1.00362 -0.392188)
(-0.132449 0.827791 -0.323614)
(-0.155333 0.928624 -0.353727)
(-0.1309 0.813564 -0.31375)
(-0.133404 0.817607 -0.316352)
(-0.188409 1.05655 -0.412388)
(-0.204703 1.10487 -0.433042)
(-0.185207 0.993796 -0.387322)
(-0.181512 1.00036 -0.395981)
(-0.194631 1.07765 -0.417832)
(-0.161056 0.923369 -0.36774)
(-0.1614 0.865413 -0.331602)
(-0.17257 0.961791 -0.377612)
(-0.148155 0.859698 -0.332644)
(-0.202494 1.11586 -0.434624)
(-0.174126 0.965187 -0.370144)
(-0.19314 1.0761 -0.416857)
(-0.184937 1.01153 -0.395575)
(-0.190478 1.03208 -0.40142)
(-0.17663 1.00907 -0.385267)
(-0.188633 1.0543 -0.410032)
(-0.178455 1.02364 -0.392704)
(-0.12853 0.760593 -0.29087)
(-0.100583 0.616205 -0.253377)
(-0.144774 0.826557 -0.315982)
(-0.119246 0.756515 -0.293459)
(-0.147561 0.878154 -0.338263)
(-0.149112 0.8745 -0.343029)
(-0.115839 0.697122 -0.272795)
(-0.134804 0.791271 -0.303817)
(-0.10812 0.59796 -0.234938)
(-0.106714 0.616036 -0.235403)
(-0.0945514 0.569512 -0.218882)
(-0.108423 0.610903 -0.231819)
(-0.130409 0.758589 -0.303763)
(-0.107036 0.628909 -0.251278)
(-0.105682 0.627795 -0.241101)
(-0.147862 0.859987 -0.332301)
(-0.152271 0.865455 -0.337722)
(-0.114895 0.689118 -0.267588)
(-0.10983 0.594233 -0.23633)
(-0.127681 0.734475 -0.28536)
(-0.134004 0.778773 -0.30587)
(-0.160559 0.748962 -0.316849)
(-0.158105 0.725572 -0.31922)
(-0.169401 0.831893 -0.337665)
(-0.15982 0.753292 -0.318199)
(-0.158769 0.758105 -0.310014)
(-0.150838 0.744196 -0.305391)
(-0.161183 0.824853 -0.337306)
(-0.157982 0.736212 -0.309132)
(-0.183914 0.9504 -0.384107)
(-0.176438 0.934997 -0.376041)
(-0.178241 0.906275 -0.366387)
(-0.179258 0.917595 -0.371623)
(-0.158672 0.782017 -0.321394)
(-0.153432 0.766494 -0.307983)
(-0.151834 0.782128 -0.324165)
(-0.16641 0.863609 -0.345899)
(-0.150754 0.765911 -0.31954)
(-0.162277 0.920189 -0.356748)
(-0.15967 0.92345 -0.359152)
(-0.140104 0.816071 -0.317273)
(-0.148592 0.845122 -0.328119)
(-0.162322 0.911413 -0.349457)
(-0.137733 0.763174 -0.300399)
(-0.133239 0.738199 -0.285118)
(-0.14952 0.860285 -0.331255)
(-0.138988 0.79404 -0.308024)
(-0.1338 0.74728 -0.289954)
(-0.134582 0.790731 -0.302457)
(-0.127612 0.781572 -0.300418)
(-0.161608 0.910337 -0.353471)
(-0.160834 0.924451 -0.357847)
(-0.122377 0.748848 -0.287838)
(-0.140822 0.818414 -0.316868)
(-0.135656 0.78207 -0.307101)
(-0.190296 1.08294 -0.421161)
(-0.195306 1.08108 -0.415873)
(-0.176831 0.983972 -0.382538)
(-0.187498 1.0604 -0.408301)
(-0.19177 1.08128 -0.418554)
(-0.16971 0.96486 -0.371958)
(-0.164524 0.931178 -0.369621)
(-0.165481 0.92557 -0.36106)
(-0.187178 1.07281 -0.412032)
(-0.176492 0.99313 -0.384834)
(-0.186207 1.05812 -0.412829)
(-0.176732 0.993333 -0.385993)
(-0.139807 0.805569 -0.311112)
(-0.130746 0.752622 -0.286871)
(-0.132101 0.805762 -0.305959)
(-0.125159 0.755064 -0.289128)
(-0.132598 0.786279 -0.304477)
(-0.140477 0.814129 -0.324191)
(-0.158839 0.939077 -0.357456)
(-0.150282 0.899095 -0.349175)
(-0.140329 0.801816 -0.307337)
(-0.147422 0.855606 -0.335981)
(-0.147089 0.860392 -0.326904)
(-0.169531 0.98258 -0.373139)
(-0.142106 0.806478 -0.31312)
(-0.157647 0.916778 -0.355391)
(-0.148507 0.882059 -0.336856)
(-0.154207 0.902538 -0.350638)
(-0.163494 0.970512 -0.372517)
(-0.150567 0.803575 -0.316256)
(-0.142784 0.780334 -0.301442)
(-0.154581 0.84078 -0.329171)
(-0.150729 0.806667 -0.317471)
(-0.159878 0.848825 -0.333135)
(-0.152041 0.855187 -0.331376)
(-0.169981 0.948892 -0.366498)
(-0.147131 0.778478 -0.306728)
(-0.136096 0.729972 -0.282089)
(-0.163143 0.872201 -0.351928)
(-0.174412 0.890856 -0.363155)
(-0.15184 0.80892 -0.32374)
(-0.145481 0.765493 -0.312031)
(-0.169954 0.892516 -0.35769)
(-0.170429 0.878089 -0.361238)
(-0.16964 0.899474 -0.363259)
(-0.120951 0.642021 -0.264144)
(-0.127215 0.667993 -0.27597)
(-0.152833 0.806122 -0.332041)
(-0.142971 0.772793 -0.310964)
(-0.14676 0.806536 -0.319676)
(-0.144096 0.763374 -0.31231)
(-0.135054 0.75566 -0.313309)
(-0.144341 0.794349 -0.328433)
(-0.11846 0.654413 -0.279961)
(-0.12485 0.663765 -0.283385)
(-0.112943 0.594915 -0.253797)
(-0.110303 0.603567 -0.25703)
(-0.142701 0.762956 -0.307867)
(-0.139721 0.764221 -0.317387)
(-0.120059 0.667982 -0.284981)
(-0.125735 0.651891 -0.259875)
(-0.111796 0.615825 -0.241889)
(-0.114891 0.62796 -0.244265)
(-0.0925806 0.557711 -0.220602)
(-0.115074 0.653347 -0.25436)
(-0.113625 0.623412 -0.250047)
(-0.132924 0.749554 -0.293629)
(-0.128334 0.724937 -0.278943)
(-0.115634 0.686589 -0.266536)
(-0.130112 0.683437 -0.264961)
(-0.0871606 0.514878 -0.202391)
(-0.120822 0.642947 -0.246757)
(-0.117888 0.633749 -0.243944)
(-0.136024 0.757641 -0.299346)
(-0.1329 0.714385 -0.270957)
(-0.117971 0.594362 -0.23438)
(-0.108264 0.592498 -0.23285)
(-0.0993292 0.622219 -0.242081)
(-0.0919954 0.567358 -0.22894)
(-0.11485 0.736279 -0.291441)
(-0.115251 0.775247 -0.29993)
(-0.116001 0.749736 -0.296222)
(-0.119033 0.759932 -0.296183)
(-0.103394 0.623731 -0.244296)
(-0.105381 0.663066 -0.26453)
(-0.105513 0.667354 -0.261495)
(-0.129183 0.802742 -0.31839)
(-0.129814 0.846271 -0.330714)
(-0.132472 0.85656 -0.330331)
(-0.134692 0.839764 -0.328535)
(-0.102579 0.622817 -0.240178)
(-0.0926463 0.574481 -0.225881)
(-0.12063 0.75754 -0.2969)
(-0.134903 0.826418 -0.32027)
(-0.0997069 0.627622 -0.243638)
(-0.119198 0.747103 -0.293188)
(-0.0987611 0.641908 -0.253677)
(-0.107072 0.647942 -0.251349)
(-0.14371 0.830069 -0.323829)
(-0.123623 0.757856 -0.296066)
(-0.107952 0.667854 -0.258553)
(-0.123868 0.671599 -0.263718)
(-0.155945 0.904794 -0.355069)
(-0.160347 0.950303 -0.366603)
(-0.172484 0.995978 -0.386096)
(-0.128012 0.765299 -0.301231)
(-0.112024 0.684208 -0.262455)
(-0.115407 0.651107 -0.254479)
(-0.122609 0.745249 -0.294332)
(-0.118824 0.714725 -0.275022)
(-0.133077 0.812819 -0.310617)
(-0.152233 0.905947 -0.353645)
(-0.157732 0.912091 -0.347292)
(-0.146618 0.868813 -0.338843)
(-0.133152 0.789469 -0.307955)
(-0.145339 0.862139 -0.335972)
(-0.128388 0.68163 -0.269417)
(-0.121601 0.678144 -0.258543)
(-0.135028 0.721185 -0.289311)
(-0.126766 0.671764 -0.266897)
(-0.132064 0.73175 -0.28735)
(-0.1396 0.768036 -0.301463)
(-0.150311 0.850989 -0.329476)
(-0.125823 0.71302 -0.275762)
(-0.135163 0.742299 -0.295208)
(-0.151677 0.867613 -0.337955)
(-0.144804 0.837671 -0.327087)
(-0.12175 0.701293 -0.269951)
(-0.133586 0.754531 -0.291739)
(-0.148914 0.851554 -0.333492)
(-0.196787 1.14639 -0.440787)
(-0.197131 1.15017 -0.443401)
(-0.19469 1.10737 -0.42798)
(-0.190132 1.09253 -0.419777)
(-0.179132 1.01253 -0.395378)
(-0.178637 1.04619 -0.402167)
(-0.192469 1.11387 -0.427535)
(-0.189764 1.10949 -0.424955)
(-0.18757 1.09784 -0.424467)
(-0.193634 1.10016 -0.427715)
(-0.183146 1.05283 -0.408862)
(-0.177644 1.03077 -0.395756)
(-0.179574 1.0635 -0.410695)
(-0.199181 1.15185 -0.445769)
(-0.194558 1.11061 -0.426661)
(-0.190767 1.08847 -0.414984)
(-0.19795 1.13183 -0.436619)
(-0.188242 1.09928 -0.424335)
(-0.137978 0.776248 -0.301165)
(-0.139507 0.758869 -0.301359)
(-0.13516 0.744186 -0.288434)
(-0.127358 0.702142 -0.274511)
(-0.12349 0.720618 -0.284736)
(-0.131543 0.721465 -0.272698)
(-0.103455 0.590093 -0.230403)
(-0.0953007 0.55752 -0.222006)
(-0.107168 0.595698 -0.232203)
(-0.101601 0.560412 -0.234648)
(-0.0958493 0.552681 -0.225853)
(-0.109148 0.631682 -0.258239)
(-0.0979403 0.548056 -0.21197)
(-0.0873046 0.492996 -0.192736)
(-0.106906 0.607055 -0.244414)
(-0.099409 0.572292 -0.225729)
(-0.0814602 0.483979 -0.198417)
(-0.17563 0.984763 -0.385916)
(-0.176663 0.966495 -0.378471)
(-0.161133 0.887182 -0.350695)
(-0.153558 0.85673 -0.339208)
(-0.160482 0.878637 -0.343139)
(-0.188969 1.04851 -0.408323)
(-0.196196 1.04491 -0.413382)
(-0.160268 0.890273 -0.352963)
(-0.147188 0.846019 -0.329726)
(-0.15939 0.838966 -0.337625)
(-0.159331 0.873819 -0.344406)
(-0.157216 0.857904 -0.335194)
(-0.17803 0.968219 -0.38154)
(-0.176789 0.963787 -0.381309)
(-0.162105 0.901534 -0.352597)
(-0.137944 0.648181 -0.279224)
(-0.14712 0.635889 -0.269282)
(-0.135873 0.633685 -0.268227)
(-0.126405 0.597916 -0.255854)
(-0.134855 0.594686 -0.248252)
(-0.136599 0.643489 -0.262545)
(-0.130847 0.566225 -0.23359)
(-0.126528 0.558374 -0.228373)
(-0.133008 0.618712 -0.252718)
(-0.110913 0.556059 -0.230993)
(-0.12546 0.548124 -0.227539)
(-0.109626 0.468123 -0.189756)
(-0.103686 0.476883 -0.192731)
(-0.155175 0.821777 -0.328192)
(-0.157215 0.83293 -0.329222)
(-0.176173 0.944614 -0.370216)
(-0.174437 0.946385 -0.371887)
(-0.158171 0.859972 -0.339869)
(-0.138846 0.743834 -0.292292)
(-0.173204 0.95955 -0.377563)
(-0.14397 0.734933 -0.292339)
(-0.182976 0.930885 -0.372737)
(-0.155391 0.837971 -0.3329)
(-0.182549 0.96928 -0.377796)
(-0.17252 0.974251 -0.381216)
(-0.166619 0.937264 -0.363971)
(-0.150929 0.826435 -0.318749)
(-0.177456 0.98114 -0.389196)
(-0.164137 0.871311 -0.338766)
(-0.188441 0.884464 -0.371812)
(-0.192095 0.92445 -0.393979)
(-0.174733 0.805911 -0.355657)
(-0.171131 0.820494 -0.353585)
(-0.167331 0.845311 -0.357009)
(-0.173192 0.818002 -0.355762)
(-0.186949 0.943125 -0.394596)
(-0.185192 0.92938 -0.383082)
(-0.16951 0.774828 -0.344009)
(-0.170613 0.826645 -0.352089)
(-0.158884 0.76232 -0.326078)
(-0.164239 0.802835 -0.341568)
(-0.15339 0.713423 -0.311761)
(-0.183536 0.937833 -0.384405)
(-0.178549 0.847775 -0.356773)
(-0.10695 0.630086 -0.248022)
(-0.117145 0.662232 -0.270536)
(-0.111606 0.645843 -0.254712)
(-0.112839 0.641377 -0.247352)
(-0.0997526 0.561803 -0.216633)
(-0.114351 0.664849 -0.258892)
(-0.108953 0.604745 -0.23534)
(-0.107606 0.616032 -0.238758)
(-0.101313 0.559525 -0.22347)
(-0.104122 0.593938 -0.22887)
(-0.0934698 0.560312 -0.220306)
(-0.133255 0.783776 -0.30289)
(-0.121894 0.768946 -0.297712)
(-0.13117 0.796685 -0.31247)
(-0.151466 0.873398 -0.335587)
(-0.133424 0.794045 -0.304823)
(-0.120502 0.681256 -0.261724)
(-0.112773 0.638041 -0.24403)
(-0.134637 0.760607 -0.30355)
(-0.143757 0.828095 -0.317773)
(-0.132247 0.769371 -0.293066)
(-0.137302 0.791584 -0.306455)
(-0.0976305 0.60987 -0.244196)
(-0.0980627 0.574989 -0.230831)
(-0.12516 0.785897 -0.307201)
(-0.119784 0.735791 -0.290625)
(-0.104045 0.651003 -0.251239)
(-0.09638 0.6033 -0.237186)
(-0.0928004 0.618216 -0.247768)
(-0.095525 0.601398 -0.23312)
(-0.0970584 0.558453 -0.217156)
(-0.108406 0.689897 -0.266132)
(-0.13496 0.822904 -0.3215)
(-0.119015 0.765545 -0.298361)
(-0.142629 0.831937 -0.324007)
(-0.104584 0.643128 -0.244868)
(-0.0998344 0.600944 -0.237684)
(-0.124186 0.760129 -0.304273)
(-0.108968 0.729058 -0.286531)
(-0.119927 0.733436 -0.283287)
(-0.100979 0.619143 -0.242935)
(-0.120568 0.735624 -0.291374)
(-0.147238 0.815891 -0.31112)
(-0.144765 0.821152 -0.317848)
(-0.142353 0.784489 -0.297045)
(-0.138983 0.773736 -0.297123)
(-0.117229 0.612148 -0.238647)
(-0.102459 0.543345 -0.207997)
(-0.120896 0.619711 -0.238448)
(-0.116736 0.649591 -0.252741)
(-0.131623 0.763712 -0.293319)
(-0.142925 0.786734 -0.296612)
(-0.10233 0.589759 -0.220483)
(-0.113883 0.6523 -0.246353)
(-0.0922818 0.5138 -0.200672)
(-0.115689 0.630518 -0.242736)
(-0.102776 0.576202 -0.220082)
(-0.124428 0.676806 -0.255558)
(-0.119443 0.596295 -0.230176)
(-0.139983 0.760407 -0.293793)
(-0.141559 0.793216 -0.302844)
(-0.104444 0.59631 -0.227385)
(-0.133525 0.782493 -0.29285)
(-0.12568 0.689574 -0.264464)
(-0.115428 0.567646 -0.269532)
(-0.123963 0.59226 -0.285373)
(-0.139707 0.714394 -0.323744)
(-0.115341 0.551432 -0.273501)
(-0.116909 0.542625 -0.266748)
(-0.128253 0.610177 -0.298118)
(-0.153124 0.708309 -0.341341)
(-0.13494 0.615722 -0.312164)
(-0.123159 0.550078 -0.280827)
(-0.155436 0.777812 -0.346295)
(-0.108502 0.47448 -0.250184)
(-0.12501 0.610125 -0.303416)
(-0.137566 0.692713 -0.328421)
(-0.107468 0.495598 -0.260946)
(-0.1145 0.575802 -0.282455)
(-0.147389 0.869622 -0.334135)
(-0.150251 0.853417 -0.331677)
(-0.134711 0.773948 -0.301617)
(-0.139149 0.774849 -0.29667)
(-0.135883 0.799805 -0.312483)
(-0.152079 0.896201 -0.344825)
(-0.137192 0.797483 -0.300474)
(-0.153153 0.896105 -0.343355)
(-0.152567 0.87903 -0.344807)
(-0.14608 0.823083 -0.321091)
(-0.142608 0.821786 -0.321106)
(-0.135524 0.733157 -0.285085)
(-0.165295 0.937147 -0.363703)
(-0.167999 0.960284 -0.376948)
(-0.152174 0.882281 -0.334719)
(-0.168914 0.920635 -0.356617)
(-0.164429 0.944953 -0.373507)
(-0.126611 0.763802 -0.297657)
(-0.150396 0.839384 -0.322668)
(-0.17104 0.946416 -0.365947)
(-0.16445 0.944228 -0.369915)
(-0.140783 0.759077 -0.291359)
(-0.128983 0.660652 -0.288409)
(-0.105438 0.569605 -0.246357)
(-0.0976388 0.539844 -0.236009)
(-0.120715 0.621895 -0.277623)
(-0.122443 0.611532 -0.254269)
(-0.10311 0.560741 -0.247368)
(-0.0868355 0.515931 -0.237347)
(-0.111054 0.582784 -0.267285)
(-0.0869487 0.52251 -0.233698)
(-0.122033 0.64013 -0.293939)
(-0.0942872 0.548563 -0.252855)
(-0.0906559 0.523504 -0.22722)
(-0.112428 0.584069 -0.245135)
(-0.140748 0.71754 -0.308645)
(-0.136286 0.733145 -0.316853)