/*--------------------------------*- C++ -*----------------------------------*\
| =========                 |                                                 |
| \\      /  F ield         | OpenFOAM: The Open Source CFD Toolbox           |
|  \\    /   O peration     | Version:  v1612+                                |
|   \\  /    A nd           | Web:      www.OpenFOAM.com                      |
|    \\/     M anipulation  |                                                 |
\*---------------------------------------------------------------------------*/
FoamFile
{
    version     2.0;
    format      ascii;
    class       volScalarField;
    location    "200";
    object      p;
}
// * * * * * * * * * * * * * * * * * * * * * * * * * * * * * * * * * * * * * //

dimensions      [0 2 -2 0 0 0 0];

internalField   nonuniform List<scalar> 
16982
(
0.935663
0.957966
1.02679
1.01981
1.03435
1.02576
1.03433
1.04651
1.02689
1.03872
1.00435
1.00052
1.01058
1.02962
1.01679
0.999859
1.00363
1.00179
1.02244
1.0046
1.01104
1.00844
1.01826
1.00962
0.990892
0.983893
1.01262
1.00945
1.01944
1.0013
0.9763
0.994068
1.00581
1.00673
0.999375
0.964076
0.986661
0.996388
0.980329
0.997273
1.00542
0.976315
0.996724
0.979856
0.991898
0.997609
0.968154
0.974272
0.986461
0.987716
0.99316
0.980867
0.976467
0.975662
0.975231
0.974181
0.976558
1.15604
1.17789
1.15201
1.15978
1.15011
1.13802
1.16899
1.17524
1.12893
1.15087
1.15806
1.18626
1.19682
1.18816
1.19325
1.19928
1.18183
1.19186
1.17567
1.17401
1.20186
1.21221
1.18749
1.19169
1.18821
1.1887
1.17206
1.17815
1.19526
1.18757
1.20225
0.953381
0.949015
0.950674
0.948991
0.954774
0.957421
0.952907
0.953443
0.948851
0.954025
0.955285
0.953778
0.95555
0.953027
1.01678
1.00804
1.00996
1.02496
1.00669
1.01454
1.03221
1.0304
1.01781
1.01248
1.03707
1.00143
1.01946
1.02564
1.01442
1.0333
0.994726
1.0001
1.0291
1.04696
1.02157
0.999701
1.02813
1.04332
1.04466
1.03186
1.00432
1.00413
1.01844
1.02745
1.01159
0.956472
0.957627
0.962826
0.957163
0.952595
0.95001
0.954694
0.959425
0.957485
0.954825
0.951784
0.949723
0.951997
0.955545
1.01614
1.00781
1.0066
1.00364
1.00226
1.00093
1.02452
1.01074
1.01443
1.02984
1.02666
1.02477
1.01962
1.01552
1.01481
1.02323
0.915622
0.911511
0.918991
0.903505
0.908979
0.906478
0.906466
0.910292
0.915559
0.909999
0.901199
0.913919
0.90509
0.903548
0.907203
0.901351
0.883626
0.906937
0.913491
0.914867
0.917164
0.910413
0.914611
0.91801
0.923516
0.920806
0.915918
0.9119
0.916954
0.929011
0.924448
0.922503
0.926528
0.924169
0.917813
0.92024
1.0488
1.05076
1.02672
1.02372
1.03587
1.04489
1.03564
1.02733
1.0358
1.02759
1.03452
1.03137
1.02383
1.0337
1.01635
1.02289
1.03104
1.02895
1.02001
1.01691
0.91964
0.918986
0.927808
0.937188
0.929277
0.92779
0.934363
0.929315
0.931584
1.02531
1.0276
1.01772
1.02751
1.03622
1.02243
1.02757
1.02862
1.03279
1.03126
1.02703
1.04049
1.015
1.02587
1.03547
1.03659
0.944883
0.942819
0.937667
0.933893
0.937629
0.937034
0.937569
0.941735
0.962124
0.955203
0.955756
0.961088
0.937351
0.935373
0.951609
0.958548
0.943088
0.946079
0.99391
1.0013
0.994657
0.990214
0.991957
1.00315
1.00146
0.997432
0.999096
1.0008
1.00867
1.01379
1.14631
1.14244
1.13553
1.14234
1.14747
1.15334
1.14046
1.14575
1.15672
1.14989
1.14832
1.16068
1.16254
1.16474
1.17247
0.939648
0.94025
0.939631
0.942533
0.942979
0.937573
0.938591
0.940811
0.937739
0.946175
0.943067
0.938547
0.941427
0.941349
0.944693
0.945068
0.979514
0.982342
0.990496
0.973268
0.972123
0.99778
1.00368
0.987926
0.992079
0.981249
1.0059
1.002
0.976143
0.992578
0.974119
0.956944
0.965033
0.957862
0.95368
0.968859
0.989263
0.977795
0.970116
0.968773
0.965259
0.989634
0.993692
0.956527
0.968255
0.964921
0.964103
0.976678
0.988741
0.979883
0.990332
0.993076
0.97997
0.999541
1.00415
1.00069
0.997555
1.04179
1.0383
1.01069
1.0167
1.02015
1.00683
1.02936
1.02032
1.03058
1.04506
1.05033
1.01679
1.03094
1.04042
1.03241
1.0277
1.01949
1.0155
1.01422
0.993303
1.00365
0.985698
0.992445
0.988379
0.995019
0.9922
0.978641
0.972937
0.976854
0.977014
0.97689
0.972448
1.11097
1.10663
1.12579
1.10597
1.11783
1.11496
1.12554
1.12377
1.13217
1.13007
1.1706
1.18836
1.18527
1.13909
1.13954
1.18487
1.15528
1.1821
1.18779
1.17333
1.17003
1.16141
1.17751
1.18063
1.16637
0.977727
0.980531
0.980255
0.970929
0.965416
0.961185
0.965204
0.974112
0.97676
0.972915
1.06795
1.08036
1.07175
1.08272
1.06956
1.07585
1.08519
1.08128
1.09384
1.09761
1.09849
1.07412
1.08298
1.10769
1.11538
1.12427
1.10074
1.09282
1.10108
1.0813
1.08739
1.09967
1.10554
1.08948
1.09463
1.09764
1.01194
1.01803
1.03105
1.03666
1.01969
1.03042
1.01267
1.02107
1.02942
1.02977
1.01402
1.01739
1.01158
1.01965
1.01238
1.00351
1.02081
1.01378
1.01221
1.00522
0.925871
0.927484
0.940833
0.935113
0.944626
0.915662
0.925113
0.934282
0.930537
0.92912
0.919483
0.929461
0.908482
0.91525
0.918052
0.919481
0.911211
0.920637
0.917249
0.918372
0.919981
0.920286
0.910683
0.914259
1.02446
1.02517
1.04369
1.04122
1.03505
1.04529
1.01566
1.04611
1.0519
1.02768
1.02186
1.00572
1.03046
1.03666
1.04098
1.01306
1.02663
1.05105
1.04089
1.04916
1.04538
1.0483
1.05819
1.05671
1.05747
1.05288
1.05123
1.05086
1.0604
1.07435
1.06306
1.08517
1.07829
1.08761
1.06714
1.05419
1.06136
1.06588
1.08669
1.06666
1.06831
1.07437
0.962342
0.964723
0.96748
0.95218
0.965566
0.957805
0.96988
0.968578
0.971205
0.967916
0.962564
0.958668
0.968222
0.971807
0.961525
0.963633
0.973993
0.969783
0.92906
0.925325
0.928447
0.927107
0.92885
0.929387
0.930571
0.926502
0.925293
0.925909
0.924331
0.926306
0.925273
0.926725
0.929411
0.928431
0.93133
0.931742
0.9323
0.933148
0.925983
0.933157
0.932187
0.925138
0.929898
0.922929
0.924996
0.927711
0.924239
0.924598
0.924288
0.923493
0.918454
0.927045
0.925135
0.924267
0.927766
0.920176
0.92363
0.924377
0.922998
0.927555
0.927473
0.92874
0.93933
0.934868
0.941178
0.945172
0.944257
0.950694
0.955701
0.953681
0.941474
0.96697
0.950918
0.990859
0.993898
0.988107
0.98486
0.992005
0.9916
0.988219
0.982673
0.990322
0.973598
0.975298
1.01983
1.02168
1.03019
1.01572
1.03952
1.03054
1.03414
1.0262
1.0202
1.01535
1.02899
1.03916
1.01542
1.03685
1.0164
1.02569
1.03004
1.00933
1.00597
1.01349
0.951466
0.948217
0.968945
0.980273
0.95892
0.951216
0.95804
0.949234
0.952311
0.979799
0.97912
0.94237
0.945181
0.959224
0.951724
0.96828
0.956899
0.948269
0.961553
0.940035
0.955423
0.942075
0.936111
0.957254
0.96132
0.94871
0.936829
0.942313
0.955094
0.952328
0.943914
0.947409
0.960549
0.958916
0.946015
1.06879
1.07366
1.07489
1.0797
1.08124
1.08917
1.06683
1.05575
1.08614
1.08623
1.08054
1.0741
1.07935
1.09336
1.06877
1.08644
1.02372
1.02025
1.01398
1.01382
1.03614
1.02796
1.01973
1.01839
1.00051
1.00579
1.02308
1.00123
1.03476
1.02302
1.00358
1.03702
1.03373
1.04611
1.0026
0.992131
1.02205
1.01803
0.975231
0.979614
0.972683
0.978453
1.00773
0.991285
0.987918
1.00661
0.976742
0.973064
0.983688
0.97166
1.00523
0.993028
0.995148
1.1159
1.12175
1.10944
1.10662
1.11161
1.09713
1.1105
1.12876
1.13757
1.11664
1.12705
1.09973
1.08701
1.10212
1.11317
1.13616
1.11124
1.1217
1.12814
1.1204
0.93974
0.934257
0.951372
0.949495
0.928161
0.946547
0.945655
0.95274
0.951875
0.9344
0.93634
0.956005
0.94934
0.994824
0.988582
0.986414
0.99421
0.967229
0.963618
0.976567
0.973464
0.991564
0.989575
0.97426
0.970999
0.970349
0.957606
0.966535
0.963009
0.971668
0.971813
0.978077
0.959945
0.972705
0.959366
1.01047
1.01653
0.998806
1.01251
0.990735
0.974464
1.01952
1.00978
0.985482
0.979144
0.992509
0.988202
0.977599
0.991228
0.997146
0.98926
0.986056
1.02328
1.00433
1.00473
0.983034
1.01497
1.03273
0.980023
0.988989
0.983663
0.985989
1.03056
1.04219
1.03131
1.01256
1.0079
1.02258
1.01875
1.01005
1.01012
1.01902
1.02684
1.03717
1.03557
0.999799
1.00398
1.00659
1.00794
1.02573
1.02932
1.01431
0.974753
0.977076
0.964803
0.962895
0.954394
0.95131
0.96537
1.10351
1.11107
1.09552
1.11415
1.01169
1.01007
0.955257
1.22386
1.2148
1.21999
1.22306
1.04595
1.04298
1.05631
0.955025
0.961236
0.957468
1.1628
1.15624
1.13635
0.947136
0.947279
1.11916
1.11453
1.13174
1.1882
1.19538
1.19104
0.956599
0.959583
1.04097
1.03887
1.02944
1.02939
0.945918
0.949442
1.19058
1.19596
1.13316
1.15003
1.14552
1.16201
0.95426
0.955173
0.964527
0.964
0.967873
0.961388
0.953207
0.953925
1.17369
1.17515
1.08507
1.08804
1.09055
0.945039
0.947136
0.942036
0.942698
1.06254
1.06034
1.07558
1.07206
1.10459
1.08501
1.09189
1.10881
1.09703
0.957118
0.9591
0.952446
0.956453
0.947166
0.946814
0.945156
0.959965
0.95745
0.966294
1.1298
1.13525
0.937046
0.93365
0.99222
1.00182
0.97974
1.0406
1.04675
1.02323
1.13265
1.13341
1.05824
1.05293
0.936504
0.935805
0.940851
0.944446
0.946335
0.941095
0.944171
0.944159
0.952701
0.936807
1.10422
1.0974
1.10084
0.975148
0.980041
0.941137
0.95898
0.953812
0.926031
0.927854
0.926404
1.08918
1.08629
1.10505
1.08449
0.941131
0.939276
1.04983
1.04293
1.04263
0.983963
0.984806
0.951148
0.948686
0.933942
0.934715
1.06141
1.07228
1.06845
0.917848
0.925436
0.92544
0.928291
0.92455
0.923115
0.92516
1.04522
1.04748
1.03306
0.997961
1.00107
0.987157
1.00753
0.926866
0.932793
0.931097
0.973668
0.975415
1.05344
1.05157
0.928277
0.929974
0.925948
0.926804
0.929581
1.03238
1.04228
1.03863
0.959052
0.95919
1.00739
1.0075
0.922976
0.92436
0.919982
1.00049
0.99874
0.926566
0.929122
0.932513
0.920941
0.919498
0.920526
1.01533
1.01562
0.985709
0.988297
0.956692
0.950377
0.968867
0.909587
0.911416
0.988563
0.992837
0.993462
0.963893
0.973172
0.973942
0.985228
0.914967
0.910476
0.950396
0.951012
0.896722
0.896088
0.916239
0.901495
0.915871
0.943072
0.942312
0.92735
0.940506
0.939068
0.927725
0.921351
0.939342
0.941185
0.935247
0.989736
0.976595
0.979318
0.962562
0.938243
0.933243
0.921542
0.930521
0.911117
0.908275
0.913735
0.922293
0.923408
0.905273
0.915767
0.914529
0.904039
0.921279
0.91229
0.919486
0.938388
0.918598
0.908248
0.940394
0.93826
0.903917
0.909215
0.900377
0.892834
0.908395
0.908443
0.903639
0.901573
0.89521
0.902133
0.897778
0.894172
0.896148
0.898728
1.00603
1.01014
1.004
1.01006
0.998585
0.998725
0.985849
0.988054
0.982938
0.971704
0.9751
0.957069
0.97927
0.974547
0.959104
0.95219
1.00783
1.01188
1.00603
1.0026
1.002
0.993946
0.991399
0.987145
0.996036
0.991449
1.00048
1.00477
0.991026
0.997034
0.995979
0.98052
0.971726
0.983886
0.921724
0.91911
0.918718
0.908627
0.900211
0.901425
0.912996
0.906574
0.906589
0.899413
0.897566
0.923437
0.922223
0.920383
0.921468
0.920375
0.919687
0.920387
0.953232
0.957993
0.96251
0.954521
0.996144
0.987142
0.978183
0.989681
0.998168
0.996743
0.977406
0.976088
0.978017
1.00999
1.0006
0.99532
1.00381
0.998726
0.990665
0.996046
0.99513
1.00005
0.992369
0.992967
0.990947
1.03758
1.02771
1.03213
1.02866
1.01736
1.02696
1.01884
1.01785
1.01935
1.01729
0.996378
0.993947
1.00582
0.998449
1.00924
1.00966
1.00653
1.00201
1.00218
1.00115
1.00213
1.0078
1.01335
1.0083
1.01045
1.00939
0.924749
0.919266
0.921395
0.919721
0.926075
0.921402
0.924191
0.921429
0.921252
0.918364
0.919501
0.921511
0.92359
0.920734
0.921918
0.923646
0.917559
0.916529
0.916584
0.916378
0.917483
0.922104
0.92154
0.920573
0.914576
0.920858
0.916359
0.913662
0.916662
0.916319
0.942324
0.945243
0.940803
0.938468
0.936495
0.930285
0.924986
0.924724
0.932119
0.933608
1.02299
1.01177
1.00289
1.03338
1.03037
1.01919
1.01695
1.01886
1.01377
1.00288
0.921977
0.923184
0.913882
0.919723
0.919194
0.921243
0.926413
0.92277
0.921002
0.924172
0.922521
0.922925
0.916176
0.909425
0.91582
0.924014
0.91691
0.918227
0.918703
0.917278
0.99724
1.00787
1.00442
0.992554
0.987861
1.00302
0.998217
1.00637
1.00556
1.03342
1.01103
1.02775
1.02366
1.011
1.01836
1.01157
1.03563
1.02339
1.01522
1.02618
0.966785
0.969245
0.961698
0.96044
0.979688
0.986357
0.970209
0.939145
0.932679
0.936965
0.931364
0.93882
0.977082
0.977053
0.970199
0.988765
0.98239
0.966266
0.970294
0.986935
0.984866
0.99178
0.995699
0.995835
0.955902
0.951628
0.98229
0.983308
0.973586
0.971038
0.972684
0.957504
0.981625
0.9775
0.982366
0.977361
0.963012
0.963914
0.967251
0.961652
1.03501
1.03347
1.05535
1.04774
1.05055
1.04941
1.0497
1.04347
1.06296
1.04335
1.05553
1.0457
1.05936
1.05175
1.0426
0.93503
0.934332
0.930774
0.93075
0.929806
0.954831
0.960251
0.944329
0.920349
0.920111
0.922378
0.920426
0.926564
0.925672
0.924542
0.925024
0.9282
0.929911
1.06859
1.07131
1.06227
1.06258
1.06094
1.05252
1.03117
1.04986
1.04129
1.03709
1.05058
1.04822
1.05042
1.05374
1.05302
1.03419
1.0292
1.03552
1.0281
1.05219
1.04845
1.01196
1.00586
1.00224
1.00458
1.021
0.990973
0.984864
1.00812
1.00288
1.02429
1.02807
0.95141
0.94526
0.936433
0.941831
0.98278
1.00883
1.001
0.99287
0.99162
0.986891
1.00798
0.986828
0.996925
0.991098
0.979295
0.960494
0.968799
0.937176
0.93016
0.952201
0.934653
0.939671
0.931068
0.931274
0.936892
0.937091
0.932702
0.931359
0.932312
0.930934
0.934687
0.934893
0.937993
0.933545
0.933816
0.938069
0.933865
0.928214
0.935304
0.936838
0.933424
0.932139
0.930848
0.930898
0.928487
0.929804
0.92844
0.928917
0.932417
0.925708
0.928187
0.928517
0.928242
0.926859
0.929607
0.929193
0.927157
0.926764
0.928789
0.927205
0.928988
0.92229
0.925095
0.929209
0.923433
0.922473
0.923089
0.925766
0.926788
0.921194
0.923644
1.01031
1.00094
0.996695
1.01923
1.01201
0.999222
1.07338
1.06281
1.0651
1.05498
1.06367
1.05827
1.04358
1.05501
1.05063
1.0455
1.04705
1.04829
1.04856
1.03121
1.04038
1.05209
1.05634
1.0246
1.0164
1.00844
1.02337
1.01423
0.914646
0.919855
0.925656
0.92363
0.925331
0.92191
0.926021
0.930477
0.929138
0.925723
0.925905
0.92671
0.923136
0.925904
0.93264
0.938698
0.93575
0.938396
0.942075
0.933728
0.927973
0.924733
0.927177
0.934084
0.932257
0.925004
0.919306
0.927638
0.919159
0.921463
0.918144
0.915693
0.920158
0.916255
0.926969
0.924963
0.929842
0.920082
0.918359
1.07029
1.06429
1.05002
1.04705
1.06754
1.06469
1.04498
1.0506
1.04397
1.04816
1.03205
1.033
1.02679
1.05165
1.05269
1.04634
1.04635
1.03411
1.097
1.09332
1.08255
1.06532
1.08018
1.06765
1.06818
1.08548
1.07666
1.06847
1.07195
1.07609
1.09637
1.08309
1.0739
0.937037
0.938539
0.939918
0.9382
0.936076
0.935726
0.934768
0.938986
0.936699
0.938522
0.928448
0.928658
0.929783
0.932675
0.933051
0.931042
0.929387
0.930397
0.948247
0.9379
0.955452
0.954965
0.956226
0.94538
0.944364
0.943688
0.968063
0.963891
0.958773
0.952357
0.946794
0.937601
0.954772
0.948118
0.950268
0.956933
0.957269
0.962082
0.947122
0.952679
0.963358
0.95455
0.953252
1.04075
1.0257
1.02384
0.980306
0.98467
0.985297
0.962512
0.963393
0.961052
1.00969
1.01942
1.01355
1.00707
0.995891
0.992211
0.988633
0.992417
0.999465
1.00331
1.0014
0.971909
0.960732
0.964777
0.957008
0.94828
0.965536
0.974737
1.06506
1.05984
1.05885
1.0599
1.04771
1.05617
1.10405
1.09148
1.10486
1.08529
1.07488
1.0994
1.11316
1.11672
1.1122
1.11058
1.10237
1.10412
1.09903
1.10178
1.10023
1.08872
1.0754
1.07419
1.06884
1.06015
1.05887
1.03424
1.07405
1.06519
0.929341
0.925846
0.935623
0.935217
0.9293
0.92493
0.925855
0.921184
0.927671
0.924133
0.928257
0.929194
0.97011
0.954825
0.949092
0.970213
0.957256
0.948955
0.973112
0.97827
0.960633
0.991255
1.00249
1.01542
0.987484
0.974093
1.00819
1.01146
0.988764
0.994324
1.00451
0.990965
1.02308
1.01566
0.957092
0.966751
0.955488
0.943067
0.963395
0.960001
0.971042
0.976558
0.974552
0.969849
0.99087
0.998536
1.01533
1.00328
1.00319
0.991043
1.02882
1.13481
1.12905
1.13917
1.08874
1.07926
1.08576
1.09111
1.09333
1.12244
1.11375
1.09526
1.11729
1.09419
1.08429
1.08913
1.10572
1.09465
1.09215
0.933072
0.93634
0.931909
0.934056
0.940077
0.927189
0.938601
0.935662
0.941902
0.923925
0.920766
0.944705
0.942323
0.927809
0.925253
0.93804
0.935729
0.946208
0.94721
0.943574
0.941447
0.944706
0.946006
0.950535
0.950755
0.948363
0.945519
0.947049
0.945727
0.947703
0.94157
0.933916
0.933997
0.932202
0.940288
0.940534
0.940362
0.941674
0.943339
0.944259
0.932817
0.93274
0.937019
0.931366
0.927738
0.936288
0.929195
0.927968
0.936089
0.938211
0.939121
0.934523
0.933497
0.93505
1.02723
1.03077
1.04422
1.04802
1.04487
1.0111
1.00753
1.09925
1.09483
1.07781
1.07672
1.06565
1.1221
1.11282
1.13047
1.1274
1.12976
1.12726
1.1618
1.15323
1.15433
1.14248
1.12647
1.14802
1.14145
1.14533
1.13519
1.12521
1.12314
1.12909
1.12356
1.12756
1.1191
1.1097
1.11993
1.10806
1.02188
1.03014
0.98742
1.00945
1.01112
1.01432
1.01751
1.00173
0.986318
1.00153
0.991297
1.02312
1.02694
1.09424
1.07729
1.07119
1.06374
1.05362
0.97334
0.974778
0.988611
1.01832
1.0164
0.993257
0.998767
1.00482
1.00483
1.00401
0.999988
0.992153
1.00546
1.00252
1.01588
1.01548
0.943337
0.939672
1.11098
1.1145
1.12977
1.15069
1.14638
1.15652
1.12442
1.12088
1.13155
1.12992
1.15264
1.15525
1.13176
1.14475
1.1475
1.14973
1.13716
1.14307
1.12687
1.12777
1.1159
1.11874
1.12968
1.13457
1.13713
1.11972
1.1351
1.1257
0.990207
0.985339
0.969457
0.968751
0.968223
0.953611
0.950334
0.947476
0.947846
0.947048
0.947428
0.946535
0.942856
0.958829
0.956044
0.956506
0.960674
0.958313
0.957953
0.953014
0.956231
0.960143
0.961367
0.958711
0.955843
0.946758
0.951605
0.949183
0.947216
0.95021
0.95192
0.954576
0.952356
0.965153
0.964341
0.958241
0.968984
0.958045
0.959101
1.13594
1.12544
1.12231
1.09914
1.13467
1.11889
1.12289
1.15027
1.10987
1.13323
1.11746
1.0721
1.06827
1.05468
1.06971
1.05758
1.05726
1.07811
1.08122
1.05965
1.03987
1.02664
1.0514
1.03853
1.01952
1.0272
1.0924
1.07971
1.08413
1.09066
1.08273
1.09253
1.12372
1.12715
1.1097
1.09991
1.10662
1.09561
1.06395
1.04452
1.07081
1.07405
1.07198
1.06332
1.07048
1.05232
1.08556
1.07581
1.10249
1.1012
1.02716
1.03825
1.03347
1.01362
1.01209
0.998921
1.01467
1.0428
1.02406
1.03429
1.01494
1.01076
1.01489
1.03981
1.0485
0.940163
0.943844
0.938028
0.939023
0.943153
0.940669
0.94159
0.94747
0.945848
0.944554
0.942091
0.93988
0.938911
1.15576
1.14838
1.13638
1.14246
1.09229
1.10893
1.08975
1.08304
1.02421
1.02459
1.17961
1.18009
1.16567
1.19058
1.19015
1.17992
1.17013
1.17603
1.17388
1.17581
1.1687
1.16745
1.16391
1.17162
0.95645
0.954477
0.950261
0.954017
0.947899
0.947485
0.947998
0.947475
0.95057
0.986382
0.9795
0.986542
0.967229
0.960403
0.964095
0.964855
0.972496
0.969634
0.96941
0.965765
0.970595
0.952073
0.954526
0.956058
0.956936
0.944379
0.950027
0.941876
0.942522
0.949219
0.944899
0.941722
0.951022
0.951768
0.941838
0.9464
0.957051
0.954602
0.964306
0.955213
0.955191
0.966933
0.966688
1.15643
1.15027
1.12137
1.12029
1.12655
1.10638
1.13058
1.127
1.13638
1.11681
1.10984
1.11417
1.14579
1.13467
1.14005
1.14413
1.21612
1.20951
1.21182
1.21173
1.15643
1.13826
1.1355
1.16506
1.19534
1.20042
1.20013
1.18855
1.20659
1.19527
1.19159
0.941689
0.948255
0.939463
0.943076
0.943387
0.948147
0.940484
0.948926
0.942311
0.944884
0.939922
0.941896
1.07052
1.06882
1.02804
1.02875
1.02475
1.0138
1.05479
1.06911
1.06651
1.05007
1.03509
1.01704
1.00629
0.992188
1.00446
1.00988
1.0167
1.06634
1.06369
1.07572
1.03711
1.04855
1.0327
1.02951
1.03994
1.0507
1.03814
1.02959
1.07778
1.0879
1.01599
0.998307
1.02297
1.0198
1.02357
1.02243
1.02404
1.00132
0.99436
0.959635
0.948703
0.958662
0.949371
0.955094
1.17583
1.16192
1.15794
1.18313
1.18217
1.17424
1.18438
1.17515
1.16209
1.178
1.20829
1.19859
1.1831
1.19699
1.17965
1.19643
1.1912
1.17976
1.1935
1.18119
1.12908
1.13341
1.12774
1.11918
1.1367
1.12865
1.13938
1.14475
1.14751
1.13247
1.15294
1.15864
1.12555
1.08958
1.10285
1.11302
1.08163
1.09832
1.10838
1.11116
1.11457
1.11999
1.0766
1.10079
1.09032
1.09314
1.07469
1.09566
1.10309
1.21963
1.21343
1.20294
1.20828
1.09287
1.08194
1.10226
1.10108
1.09792
1.11291
1.10221
1.13703
1.12858
1.12695
1.13738
1.1043
1.14159
1.14097
1.17876
1.18934
1.19359
1.18864
1.17819
1.15638
1.14823
1.17739
1.18788
1.1673
1.15293
1.19182
1.19417
1.20564
1.20247
1.17055
1.17858
1.20146
1.19322
1.18437
1.1857
1.17771
1.17505
1.18326
1.17164
0.959477
0.954954
0.960962
0.957698
0.958029
0.951136
0.948638
0.957313
0.962531
0.963281
0.955192
0.964071
0.961213
0.95699
0.961353
0.986308
0.979243
0.978836
0.978822
1.02183
1.02573
1.05214
1.03912
1.04547
1.06572
1.05467
1.03357
1.05774
1.04096
1.0589
1.06621
1.04443
1.03986
1.21718
1.20686
1.22398
1.22066
1.21506
1.22019
1.21278
1.22504
1.2323
1.22119
1.20995
1.21752
1.20652
1.21685
1.21051
1.21789
1.19809
1.21349
1.21483
1.20669
1.21119
1.22241
1.19949
1.20685
1.21584
0.965344
0.963107
0.962706
0.944168
0.956232
0.990483
1.00758
0.987653
1.01867
1.00053
0.98758
0.99264
0.983977
0.998507
1.04091
1.0547
1.06534
0.966934
0.960384
0.965812
0.966615
0.972066
0.9585
0.976461
0.970585
0.976223
0.966033
0.967577
0.966757
0.966411
0.969128
0.966305
0.95264
0.956555
0.956842
0.960831
0.959361
0.965963
0.972676
0.983521
0.993022
0.988307
0.985663
0.990399
1.00045
1.00453
0.99913
0.994854
0.973295
0.976265
0.984341
0.981058
0.988231
0.977609
0.974661
0.969913
0.981211
0.980214
0.987106
0.977065
0.975501
0.96813
0.96408
0.974638
0.966268
0.964057
0.971098
0.970062
0.965412
0.971047
1.07749
1.12263
1.04195
1.05174
1.1502
1.12134
1.14185
1.14628
1.13342
0.958884
0.959485
0.970368
0.976542
0.972432
0.988924
0.970292
0.976511
0.975093
0.970436
0.965895
0.978471
0.967902
0.976959
0.965516
0.971479
0.97026
0.96387
0.967145
0.961942
0.971211
1.18054
1.19121
1.20179
1.19495
1.18148
1.18028
1.18372
1.03779
1.03285
1.01702
0.989698
0.991795
0.987222
0.999814
0.998256
0.969957
0.977112
0.982819
0.976825
0.986815
0.972297
0.970677
0.97674
0.978357
0.996456
0.984953
0.978092
0.993314
0.995375
0.992662
0.983757
0.97137
0.982525
0.986016
0.989505
0.969146
0.961283
0.970097
0.958316
0.955902
0.965174
0.963792
0.962577
0.966917
0.967032
0.967702
0.957913
0.960813
1.05263
1.06301
1.06009
1.07301
1.07375
1.07022
1.08106
1.07888
1.08015
1.08589
1.19042
1.21226
1.20444
1.20266
1.19129
1.20712
1.19948
1.18813
1.20043
1.19407
1.21172
1.20208
1.21611
1.20907
1.20386
1.18764
1.19861
1.20539
1.20062
1.15896
1.16764
1.16134
1.15472
1.14071
1.17676
1.17167
1.14795
1.13502
1.16775
1.17086
1.15042
1.15064
1.14656
1.14377
1.17276
1.17433
1.17329
1.16118
1.15404
1.15554
0.95149
0.947028
0.943233
0.946843
0.950014
0.949623
0.949668
0.948882
0.947375
0.949929
0.946457
0.948844
0.954695
0.94651
0.95469
0.950746
0.953411
0.956758
0.962184
0.961704
0.966982
0.95707
0.963151
0.959695
0.953794
0.951089
0.957848
1.12407
1.11524
1.10387
1.08774
1.08116
1.07785
1.0742
1.09598
1.12072
1.1351
1.12874
1.10596
1.07542
1.08739
1.06463
1.06084
1.09111
1.07266
1.00284
0.991679
0.997815
0.983314
1.17756
1.17185
1.17265
1.15518
1.12416
1.12843
1.12052
1.14196
1.14148
1.14626
1.13911
1.14522
1.17085
1.17844
1.17895
1.16941
1.16636
1.15584
1.17893
1.16656
1.17529
1.15173
1.16239
1.15358
1.14904
1.15619
0.984219
0.975811
0.974512
0.976181
0.972128
0.96618
0.979284
0.970451
0.964543
0.998562
0.983966
0.971249
0.978349
0.983613
0.97439
0.964411
0.983446
0.972768
0.980294
0.971084
0.960757
0.955223
0.953996
0.954007
0.951283
0.958025
0.963647
0.966543
0.970154
0.970894
0.971987
0.970147
0.968585
0.961447
0.963728
0.991725
0.989817
0.994327
0.987572
0.994798
0.988986
0.984224
0.996386
1.01113
1.15979
1.16074
1.15547
1.16661
1.16171
1.16665
1.16594
1.17377
1.15528
1.16433
1.15427
1.15023
1.15247
1.16926
1.18423
1.14993
1.14792
1.15699
1.15626
1.16174
1.16541
1.18176
1.17469
1.17794
1.17874
1.17561
1.17389
1.17773
1.19048
1.18554
1.1835
1.18236
1.17342
1.16932
1.17677
1.1688
1.17782
1.10439
1.1273
1.13434
1.1373
1.12919
1.13378
1.12898
1.13026
1.11437
1.13599
1.13912
1.13756
1.14176
1.14566
1.11479
1.09704
1.14852
1.1484
1.01562
1.00277
1.0166
1.00754
1.00696
1.00865
1.00907
1.01736
1.02557
1.07782
1.06674
1.07788
1.0848
1.08985
1.08472
1.08944
1.09107
1.08416
1.09048
1.09745
0.939406
0.938661
0.944587
0.944656
0.94844
0.949861
0.947476
0.948336
0.950805
0.945545
1.04444
1.04882
1.05574
1.07085
1.03956
1.02643
1.0455
1.0616
1.05901
1.06443
1.02247
1.03531
0.949525
0.944322
0.957928
0.942761
0.950367
0.951495
0.9478
0.965119
0.980069
0.979468
0.97538
0.968508
1.15299
1.14983
1.1457
1.14247
1.13595
1.13584
1.14609
1.1455
1.03855
1.03332
1.02403
0.947769
0.939785
0.944681
0.949142
0.945763
0.946419
0.944904
0.945451
0.940891
0.945187
0.942976
0.948392
0.943913
0.949942
0.951698
0.941571
0.944483
0.950875
0.946651
0.927201
0.922684
0.928451
0.925491
0.926929
0.934503
0.926453
0.934871
0.924403
0.925103
0.924908
0.926342
0.932948
0.938629
0.94234
0.95608
0.951056
0.944811
0.943981
0.935434
0.95547
0.961643
0.953933
0.942563
0.945839
0.935958
0.930769
0.957186
0.961535
1.12272
1.13642
1.12992
1.12434
1.10952
1.11759
1.12727
1.12497
1.11921
1.10706
1.11716
1.08911
1.0967
1.08966
1.09528
1.09108
1.09914
1.09693
1.11029
1.10789
1.1069
1.11596
1.11027
1.04969
1.04249
1.05091
1.06114
1.07155
1.04113
1.07217
1.05237
1.06089
1.07046
1.0517
1.05096
1.07336
1.09365
1.09034
1.07715
1.09141
1.08987
1.09268
1.08932
1.10337
1.10831
1.11071
1.09007
1.09813
1.08678
1.09203
1.10833
1.10496
1.10317
1.10566
1.09851
1.10111
1.07296
1.08457
1.06784
1.08879
1.08889
1.07281
1.11675
1.12156
1.12153
1.11007
1.11777
1.10523
1.10286
1.12091
1.10764
1.11656
1.11598
1.11011
1.10389
1.09779
1.08709
1.06177
1.06187
1.05115
1.07493
1.07783
1.05193
1.04906
1.01599
1.02566
1.03178
1.00977
1.01552
1.01032
1.02382
1.00693
1.01278
0.985595
1.00258
0.988748
1.00826
1.01817
1.00474
1.01174
0.998005
1.00821
1.00368
1.02117
1.04433
1.03222
1.02964
1.03241
1.0417
1.04715
1.04619
1.04892
1.05144
1.03924
1.04156
1.0255
1.02443
0.934376
0.937277
0.933677
0.931947
0.932737
0.933055
0.936699
0.933467
0.935379
0.936649
0.928609
0.921112
0.91793
0.919942
0.927451
0.919074
0.919902
0.918291
0.914661
0.918699
0.926577
0.923841
0.924618
0.928326
0.920786
0.91814
0.923975
0.917068
0.938348
0.934768
0.937526
0.943825
0.937146
0.933934
0.933871
0.934605
1.06161
1.07195
1.05758
1.07431
1.0682
1.08161
1.07794
0.941812
0.95069
0.942526
0.945423
0.933975
0.93903
0.938395
0.958249
0.960387
0.982035
0.970903
0.984442
0.992823
0.98779
0.982861
0.97434
0.99682
1.00038
0.994184
0.960052
0.96735
1.03347
1.04117
1.03834
1.03882
1.04154
1.03449
1.03698
1.03841
1.0334
1.03299
1.03373
1.03815
1.02583
1.02644
1.02174
1.01244
1.00335
1.01729
1.02033
1.01843
1.00645
1.01017
0.919026
0.922348
0.920558
0.918815
0.916966
0.922398
0.921351
0.922264
0.925373
0.923553
0.923656
0.920516
0.921489
1.03813
1.03508
1.02396
1.03373
1.03236
1.03392
1.02333
1.01639
1.01655
1.01382
1.01376
1.01544
1.02124
1.00729
1.02536
1.02748
1.02378
1.02754
1.00809
1.01023
1.02373
1.02293
1.01791
1.01306
0.999552
1.00971
0.998455
0.996942
1.01091
1.01154
1.00975
0.998042
0.95101
0.980441
0.974821
0.971407
0.961553
0.969377
0.971207
0.974806
0.976764
0.977257
0.966232
0.961464
0.956667
0.955006
0.943988
0.95546
0.928181
0.950335
0.94869
0.949793
0.937684
0.941699
0.927673
0.929654
0.922558
0.917326
0.925685
0.922536
0.92169
0.918795
0.922905
0.923249
0.924082
0.928371
0.930245
0.925713
0.923326
0.923824
0.92105
0.923127
0.922215
0.920699
0.919266
0.921739
0.923644
0.977093
0.987401
0.9765
0.983022
0.990411
0.999014
0.99734
0.990245
0.991143
0.989461
0.938716
0.945486
0.951602
0.934344
0.941712
0.936571
0.938016
0.954446
0.946933
0.956742
0.966122
1.06307
1.0713
1.06686
1.05946
1.05512
1.05724
1.05463
1.04666
1.04312
1.04145
1.04903
1.14947
1.15843
1.14636
1.15218
1.15866
1.16736
1.15424
0.973421
0.978906
0.980045
0.973897
0.975362
0.982425
0.980679
0.983371
0.977838
0.984733
0.975451
0.980855
0.984316
0.985862
0.974536
0.962255
0.971131
0.96189
0.961772
0.971407
1.00916
1.01364
1.03785
1.0118
1.01259
0.999328
1.03304
1.01422
0.969412
0.970725
0.965593
0.96171
0.962988
0.961748
0.967273
0.969606
0.980005
0.970921
0.968961
0.964325
0.978456
0.970244
0.890934
0.897104
0.895091
0.9016
0.894884
0.901312
0.899674
0.912271
0.917009
0.917049
0.9152
0.916656
0.936606
0.924728
0.927578
0.923105
0.924697
0.91694
0.901027
0.913826
0.905597
0.919334
0.933845
0.935168
0.925216
0.916881
0.927792
0.926373
0.925035
0.923265
0.982629
0.987765
0.985373
0.991326
0.979471
0.98079
0.960289
0.962039
0.967242
0.964322
0.989288
0.988926
1.01225
1.00681
1.01682
1.00981
1.00568
1.00701
0.99888
1.01697
1.01302
0.99798
0.999364
0.99978
1.00077
0.996241
0.916519
0.915964
0.914631
0.915138
0.913548
0.914661
0.91433
0.912486
0.910274
1.01457
1.01707
1.01191
1.01315
1.0067
1.01928
1.01835
1.02069
1.02373
1.02186
1.01732
1.00908
1.00991
1.02296
1.02159
0.944505
0.947262
0.938056
0.939069
0.942032
0.945816
0.96537
1.01987
0.931053
0.934488
0.938562
0.939943
0.93169
0.928201
0.924178
0.935039
0.933201
0.917949
0.92213
0.925586
0.923512
0.922736
0.924256
0.918098
0.928216
0.92633
0.928403
0.929572
0.930209
0.927067
0.930872
0.928109
0.926693
1.03113
1.0373
1.02631
1.03784
1.01219
1.01554
1.01613
1.01885
1.02662
1.02961
1.02168
0.918062
0.919354
0.918546
0.919476
0.918471
0.92062
0.915822
0.920861
0.915202
0.917806
0.922054
1.0448
1.04195
0.949871
0.94645
0.941031
0.986152
0.97526
0.957685
0.964891
0.972434
0.964149
0.963712
0.973458
0.985253
0.985466
0.972195
0.96668
0.982705
1.08597
1.08224
1.06771
1.08346
1.07934
1.08164
1.06773
1.06454
1.0818
1.07148
1.08521
1.07118
1.08299
1.06623
1.08569
1.07698
1.07905
1.06974
1.07492
1.06654
1.07699
1.07285
1.00611
1.00816
0.989129
0.940186
0.944601
0.940272
0.941334
0.941608
0.943732
0.945116
0.94376
0.942912
0.931014
0.926479
0.936746
0.936334
0.933508
0.937034
0.93978
0.932528
0.936527
0.936828
0.933253
0.92981
0.933065
0.932241
0.92747
0.928003
0.930548
0.93028
0.925774
0.929115
0.930255
0.934192
0.934163
0.932597
1.14537
1.12015
1.1369
1.12181
1.12838
1.13911
1.14148
1.13395
1.12705
1.14777
1.14067
1.14764
1.13737
1.13564
1.12344
1.11867
1.11089
1.11306
0.937001
0.931732
0.939823
0.937527
0.936251
0.939575
0.943163
0.944342
0.940133
0.94254
0.944685
0.943343
0.973289
0.982882
0.994721
0.994461
1.01409
1.00577
1.00675
0.991323
0.987376
0.981179
0.979469
0.977952
0.971271
0.974558
0.946759
0.951778
0.952249
0.953739
0.947183
0.942446
0.952141
0.954641
0.955444
0.958917
0.955054
0.954702
0.955363
0.962607
0.958095
0.966514
0.965887
0.955844
0.962092
0.960853
0.961129
0.964302
0.960426
0.965556
0.971189
1.08056
0.945954
0.943367
0.946504
0.945065
0.942494
0.946612
1.08682
1.129
1.09737
1.10339
1.10765
1.12764
1.12797
1.11052
1.11405
1.11935
1.14928
1.15888
1.16367
1.15865
1.16153
1.17118
1.16224
0.955027
0.950887
0.958449
0.956867
0.96037
0.957289
0.949159
0.953366
0.957969