/*--------------------------------*- C++ -*----------------------------------*\
| =========                 |                                                 |
| \\      /  F ield         | OpenFOAM: The Open Source CFD Toolbox           |
|  \\    /   O peration     | Version:  v1612+                                |
|   \\  /    A nd           | Web:      www.OpenFOAM.com                      |
|    \\/     M anipulation  |                                                 |
\*---------------------------------------------------------------------------*/
FoamFile
{
    version     2.0;
    format      ascii;
    class       volScalarField;
    location    "50";
    object      p;
}
// * * * * * * * * * * * * * * * * * * * * * * * * * * * * * * * * * * * * * //

dimensions      [0 2 -2 0 0 0 0];

internalField   nonuniform List<scalar> 
17225
(
2.74744
2.65593
2.64879
2.64294
2.75731
2.76721
2.74902
2.74805
2.75168
2.74173
2.74853
2.76644
2.76264
2.73065
2.73454
2.75171
2.75037
2.73923
2.73844
2.75395
2.72751
2.72038
2.73789
2.73422
2.72791
2.7201
2.73079
2.72943
2.64
2.64127
2.63871
2.6428
2.64596
2.6533
2.65203
2.66734
2.67069
2.65295
2.59505
2.59149
2.58684
2.58556
2.59477
2.5967
2.58999
2.58891
2.59089
2.59244
2.5906
2.60465
2.60449
2.59428
2.59149
2.59348
2.59399
2.59295
2.599
2.73336
2.74125
2.7321
2.73008
2.76028
2.75516
2.7581
2.75556
2.73198
2.75855
2.76176
2.74472
2.7528
2.75868
2.76518
2.78559
2.77132
2.79046
2.8046
2.799
2.76867
2.77189
2.79174
2.79915
2.80947
2.78662
2.7989
2.67719
2.68538
2.6774
2.70752
2.67813
2.67451
2.70494
2.71738
2.70819
2.67475
2.71378
2.71662
2.70272
2.73326
2.72203
2.70571
2.70268
2.72908
2.7725
2.76941
2.7744
2.78699
2.77097
2.77862
2.75696
2.76818
2.78274
2.77107
2.78004
2.75056
2.74115
2.76999
2.78006
2.76456
2.76811
2.76674
2.76114
2.7774
2.77881
2.79422
2.75549
2.79195
2.79146
2.77837
2.78779
2.6386
2.64034
2.64422
2.64268
2.63527
2.64353
2.64473
2.64195
2.63519
2.63789
2.64013
2.6422
2.64149
2.64332
2.6471
2.64551
2.64085
2.63642
2.65438
2.65576
2.65114
2.65467
2.66348
2.65133
2.66179
2.65068
2.65642
2.64918
2.65168
2.64636
2.64736
2.65312
2.64666
2.64699
2.65278
2.63998
2.6496
2.63954
2.64116
2.63972
2.6476
2.65706
2.66267
2.64567
2.64809
2.65348
2.65273
2.64142
2.64275
2.65385
2.66569
2.65204
2.65553
2.66052
2.64918
2.64715
2.64966
2.6457
2.64204
2.65715
2.64417
2.63637
2.64007
2.64217
2.64363
2.64888
2.64934
2.64935
2.64525
2.64385
2.6394
2.64888
2.6487
2.64883
2.64957
2.65007
2.64441
2.64203
2.65067
2.64635
2.64364
2.65052
2.60216
2.60964
2.60853
2.61368
2.61161
2.60318
2.61085
2.6108
2.61008
2.61164
2.61391
2.61444
2.60775
2.61235
2.61137
2.61336
2.61711
2.70622
2.71004
2.74018
2.72267
2.70868
2.71706
2.7176
2.71617
2.72898
2.72207
2.74149
2.72433
2.62813
2.61909
2.62481
2.62793
2.62528
2.61289
2.6362
2.62714
2.63381
2.63189
2.62538
2.62242
2.62194
2.63669
2.65846
2.65085
2.65392
2.6424
2.65242
2.65262
2.65018
2.64861
2.65398
2.65572
2.65683
2.64927
2.65205
2.64829
2.64974
2.65323
2.65025
2.65245
2.65581
2.65771
2.63305
2.63154
2.62333
2.63451
2.62517
2.62847
2.63366
2.63701
2.63504
2.62723
2.62489
2.62639
2.63141
2.62957
2.6254
2.62774
2.62734
2.6232
2.62793
2.58969
2.58849
2.59264
2.59089
2.5893
2.58455
2.58097
2.59236
2.58612
2.57612
2.62606
2.63585
2.63324
2.64208
2.66299
2.6628
2.65876
2.64232
2.64305
2.65424
2.65983
2.63596
2.62797
2.66071
2.66106
2.65329
2.63422
2.64203
2.6497
2.63917
2.64679
2.64939
2.64369
2.65084
2.65298
2.6329
2.6341
2.64392
2.64892
2.65062
2.63591
2.6423
2.64463
2.64302
2.82869
2.82759
2.82213
2.8257
2.82574
2.81861
2.82416
2.81217
2.81185
2.82047
2.83035
2.81553
2.80974
2.81933
2.83329
2.82429
2.80991
2.81809
2.80882
2.82459
2.80792
2.809
2.7975
2.80795
2.71886
2.74327
2.73781
2.72544
2.733
2.72853
2.73489
2.74176
2.7339
2.72161
2.71803
2.73474
2.74033
2.72233
2.71949
2.65647
2.65675
2.65105
2.65903
2.6595
2.66447
2.67326
2.66689
2.67136
2.66759
2.67738
2.66078
2.67024
2.79155
2.79183
2.79322
2.79484
2.79145
2.79811
2.80114
2.79662
2.78849
2.79571
2.80242
2.78881
2.78808
2.79979
2.78282
2.61861
2.62547
2.62134
2.61394
2.61739
2.62742
2.62764
2.63017
2.63615
2.62292
2.62069
2.63223
2.63399
2.63517
2.63346
2.63667
2.63414
2.66773
2.66583
2.6506
2.65381
2.6572
2.65087
2.65457
2.6697
2.6673
2.66005
2.66335
2.65668
2.6557
2.65761
2.66294
2.65863
2.66554
2.66321
2.66267
2.66301
2.65511
2.66501
2.70591
2.70052
2.71817
2.71485
2.69533
2.69648
2.70036
2.70252
2.69989
2.68711
2.68034
2.69869
2.70378
2.70894
2.70706
2.69626
2.702
2.69188
2.687
2.70329
2.69604
2.66847
2.67146
2.67007
2.68852
2.67674
2.68317
2.67999
2.66723
2.67341
2.67045
2.66408
2.67422
2.66491
2.66342
2.67664
2.68153
2.67976
2.6776
2.67634
2.67502
2.67863
2.6789
2.67277
2.67216
2.67472
2.67301
2.66828
2.67654
2.67845
2.67879
2.67612
2.67393
2.69581
2.69722
2.68952
2.69278
2.70107
2.70076
2.69776
2.67996
2.68265
2.69488
2.69329
2.69213
2.6776
2.66573
2.70266
2.70484
2.63212
2.64975
2.65653
2.65231
2.63409
2.64226
2.64673
2.61599
2.62708
2.7493
2.76312
2.76432
2.75789
2.74509
2.76477
2.76481
2.75762
2.76986
2.77296
2.77098
2.7727
2.77323
2.65341
2.65743
2.64563
2.61195
2.59961
2.61428
2.60935
2.6001
2.604
2.60408
2.60922
2.59898
2.61595
2.61238
2.59289
2.6063
2.60745
2.60529
2.6046
2.6371
2.63273
2.62242
2.61591
2.6189
2.62905
2.63034
2.63131
2.6224
2.60189
2.60262
2.59836
2.59315
2.60744
2.61348
2.60622
2.603
2.58979
2.60394
2.6068
2.81448
2.8157
2.81212
2.81239
2.81009
2.80345
2.80248
2.82131
2.79468
2.78972
2.81246
2.81595
2.81865
2.81425
2.80908
2.79701
2.81389
2.81957
2.8224
2.76605
2.77095
2.76212
2.7584
2.76147
2.75464
2.75752
2.76421
2.75062
2.74893
2.74027
2.77157
2.78635
2.76829
2.75466
2.73683
2.73187
2.74514
2.72844
2.73415
2.7392
2.74116
2.71564
2.70809
2.7361
2.72625
2.72515
2.7402
2.7177
2.72021
2.72774
2.74413
2.71712
2.71318
2.72879
2.73296
2.74071
2.6677
2.68823
2.68572
2.68807
2.67616
2.65975
2.68006
2.67898
2.69755
2.70522
2.70097
2.67301
2.67401
2.66196
2.70072
2.70826
2.68496
2.6976
2.68805
2.68439
2.67322
2.67829
2.66904
2.67178
2.68176
2.68186
2.68484
2.69057
2.67948
2.67848
2.7594
2.75083
2.78242
2.77522
2.73322
2.73893
2.7787
2.78113
2.79275
2.75471
2.76071
2.7662
2.75567
2.74823
2.79222
2.65422
2.65212
2.6562
2.64792
2.64999
2.65724
2.65304
2.65329
2.64744
2.66
2.65023
2.83472
2.83861
2.82909
2.84103
2.81888
2.83576
2.84279
2.82251
2.835
2.83485
2.66312
2.66434
2.6741
2.66917
2.67096
2.67019
2.65937
2.6652
2.66605
2.66903
2.65878
2.67669
2.67601
2.67768
2.66345
2.66264
2.65548
2.67215
2.66498
2.65937
2.76766
2.77323
2.77563
2.77693
2.77529
2.76503
2.78023
2.76884
2.76173
2.75129
2.76532
2.77261
2.75958
2.77619
2.75914
2.77422
2.75524
2.77252
2.76298
2.5863
2.59828
2.59798
2.59341
2.58942
2.57607
2.59436
2.59743
2.60744
2.59734
2.60707
2.59034
2.60119
2.61122
2.64783
2.65918
2.64336
2.65404
2.64816
2.64441
2.64238
2.6519
2.63128
2.6229
2.63161
2.62965
2.63895
2.65976
2.64282
2.63954
2.64676
2.66694
2.6328
2.63853
2.63081
2.63464
2.6298
2.6565
2.64029
2.64083
2.63792
2.6342
2.63685
2.62313
2.62612
2.63611
2.63812
2.63395
2.63379
2.63471
2.63697
2.70073
2.70154
2.69691
2.69201
2.6916
2.68812
2.69532
2.69
2.68471
2.67628
2.67762
2.68375
2.67683
2.6903
2.68187
2.68311
2.68018
2.68317
2.68226
2.6802
2.74496
2.75361
2.78692
2.75682
2.77034
2.75672
2.78879
2.74815
2.75205
2.75579
2.77439
2.76802
2.76682
2.77325
2.65956
2.66332
2.66586
2.66546
2.66841
2.6726
2.65994
2.65457
2.66273
2.66361
2.67282
2.66614
2.67418
2.66153
2.6641
2.66601
2.67251
2.67287
2.67044
2.67333
2.67238
2.69646
2.69315
2.69819
2.68853
2.69824
2.70912
2.69957
2.70177
2.7025
2.69014
2.7124
2.70397
2.71388
2.71024
2.70858
2.70378
2.70852
2.7102
2.71009
2.69968
2.72964
2.72989
2.74503
2.75683
2.7509
2.74731
2.73567
2.72749
2.73874
2.74462
2.73134
2.73498
2.74352
2.74639
2.75564
2.73673
2.75132
2.74955
2.72676
2.73365
2.75191
2.74069
2.59307
2.59126
2.59009
2.59954
2.59939
2.59465
2.59546
2.59985
2.60095
2.59175
2.58758
2.59841
2.59488
2.59596
2.66638
2.65983
2.66545
2.65993
2.81745
2.81526
2.81862
2.80743
2.65437
2.65394
2.79248
2.78902
2.7878
2.79494
2.60667
2.60397
2.60675
2.60363
2.60453
2.61791
2.62797
2.61521
2.75217
2.763
2.75479
2.6468
2.65322
2.64339
2.63575
2.71302
2.7053
2.68811
2.68655
2.65714
2.65152
2.65421
2.64805
2.65158
2.64014
2.64168
2.69837
2.6993
2.70586
2.83632
2.84043
2.84624
2.84333
2.64094
2.64235
2.63843
2.74064
2.73363
2.74216
2.77565
2.78132
2.78607
2.76111
2.76777
2.76744
2.7449
2.75002
2.71164
2.71126
2.70293
2.72481
2.62207
2.62168
2.61077
2.66937
2.66016
2.66818
2.65922
2.66796
2.66901
2.6764
2.66061
2.65059
2.65257
2.69709
2.69817
2.68226
2.73402
2.74318
2.74602
2.76433
2.76151
2.70423
2.69475
2.68448
2.69117
2.8055
2.80595
2.80232
2.67581
2.67529
2.61913
2.62175
2.61601
2.61708
2.59652
2.5977
2.68985
2.68344
2.7492
2.73856
2.7416
2.70398
2.7116
2.60498
2.60944
2.6117
2.72417
2.72636
2.71734
2.6814
2.67357
2.6773
2.70793
2.70869
2.71827
2.77783
2.78446
2.73634
2.72518
2.73647
2.67195
2.68482
2.68171
2.65929
2.65792
2.65853
2.61262
2.61607
2.6092
2.61181
2.73845
2.74695
2.79804
2.7926
2.63206
2.63278
2.57861
2.5833
2.5862
2.79524
2.7862
2.63848
2.63973
2.62562
2.62657
2.63038
2.69102
2.69971
2.70975
2.70726
2.70086
2.71825
2.72829
2.71227
2.7009
2.69836
2.68153
2.68434
2.6941
2.69388
2.65992
2.66843
2.67024
2.67383
2.67361
2.70325
2.68207
2.67027
2.69632
2.69165
2.7056
2.69568
2.68558
2.67943
2.67692
2.68368
2.71267
2.66671
2.67647
2.68232
2.67463
2.66992
2.65917
2.65787
2.65782
2.67898
2.68345
2.62993
2.63585
2.63129
2.638
2.63554
2.63182
2.62872
2.63356
2.63239
2.62253
2.62696
2.62428
2.62803
2.62808
2.62308
2.62497
2.62832
2.62978
2.6273
2.62335
2.61567
2.61742
2.62198
2.61955
2.62898
2.62812
2.62544
2.64612
2.64383
2.64773
2.64636
2.64397
2.64219
2.64519
2.64343
2.64164
2.64249
2.63847
2.63304
2.63383
2.64561
2.64163
2.63451
2.63704
2.63209
2.63098
2.6417
2.82379
2.82712
2.81562
2.73294
2.73128
2.74113
2.81572
2.81592
2.77127
2.77643
2.77349
2.7752
2.77817
2.77031
2.76432
2.75991
2.7661
2.75958
2.77589
2.7775
2.59241
2.5879
2.5831
2.59325
2.59389
2.5864
2.58461
2.58714
2.58636
2.59189
2.59105
2.58464
2.58141
2.58401
2.58408
2.64701
2.6398
2.64161
2.63038
2.63266
2.63082
2.62819
2.63049
2.62855
2.63132
2.62839
2.62592
2.62984
2.63893
2.635
2.63561
2.63494
2.6413
2.641
2.82972
2.82903
2.83276
2.76022
2.77273
2.77354
2.7576
2.77171
2.79532
2.79184
2.80364
2.79425
2.77541
2.82323
2.8244
2.82057
2.81204
2.8087
2.78862
2.78683
2.7932
2.77681
2.78376
2.76928
2.76782
2.77946
2.76279
2.75553
2.77185
2.77607
2.78533
2.78038
2.76027
2.77401
2.7707
2.7734
2.76863
2.77624
2.78032
2.77185
2.78307
2.78653
2.78781
2.79572
2.81034
2.80684
2.7982
2.79154
2.81009
2.82341
2.81501
2.78814
2.79424
2.82361
2.81474
2.80028
2.79218
2.82181
2.79746
2.80468
2.81215
2.7992
2.81422
2.79923
2.80188
2.80734
2.80307
2.76487
2.76877
2.75848
2.76663
2.7513
2.75605
2.76673
2.75178
2.74756
2.72969
2.69423
2.69878
2.70544
2.75599
2.74743
2.75741
2.74773
2.72831
2.72739
2.7339
2.7342
2.72103
2.71479
2.70936
2.78035
2.7893
2.60553
2.60248
2.6068
2.60025
2.60769
2.61563
2.61653
2.60979
2.61736
2.61072
2.61468
2.61675
2.61341
2.61345
2.60866
2.61512
2.65149
2.65625
2.65316
2.66506
2.66426
2.66434
2.66013
2.66351
2.66472
2.66313
2.6603
2.66016
2.66415
2.70306
2.69616
2.69858
2.6713
2.67939
2.68012
2.67394
2.67702
2.67717
2.67665
2.66293
2.65314
2.66297
2.66396
2.68588
2.6919
2.67631
2.68004
2.68144
2.70031
2.69453
2.70267
2.69992
2.71197
2.69383
2.70826
2.72932
2.71348
2.73666
2.7171
2.72464
2.71377
2.71046
2.68606
2.69626
2.67863
2.70356
2.6678
2.67442
2.6687
2.7608
2.75531
2.71803
2.71879
2.72048
2.70962
2.73299
2.73434
2.72715
2.75812
2.75474
2.71094
2.70245
2.7063
2.69916
2.7007
2.69745
2.71629
2.71833
2.71535
2.7102
2.71067
2.70389
2.70741
2.72166
2.71816
2.72282
2.72354
2.73224
2.72903
2.79727
2.80576
2.8079
2.81034
2.80395
2.79797
2.80243
2.80838
2.79857
2.7853
2.73192
2.74338
2.74278
2.74858
2.80143
2.79132
2.79263
2.79855
2.79395
2.79156
2.69914
2.68736
2.6927
2.70706
2.76665
2.77353
2.72825
2.70726
2.70124
2.73408
2.75494
2.74496
2.74257
2.73613
2.72615
2.71662
2.7142
2.70796
2.71194
2.68719
2.66644
2.68973
2.68639
2.69275
2.70414
2.67474
2.67274
2.68951
2.66818
2.66504
2.6999
2.69865
2.69301
2.70467
2.70547
2.67494
2.67169
2.67315
2.68525
2.68346
2.68015
2.68259
2.67649
2.67694
2.69317
2.68621
2.69006
2.68196
2.66714
2.67385
2.66976
2.66838
2.66958
2.67207
2.67589
2.67411
2.67629
2.67167
2.68028
2.67682
2.67649
2.67312
2.67427
2.67374
2.6731
2.70587
2.70513
2.72014
2.72125
2.71476
2.70018
2.71575
2.71556
2.71402
2.72393
2.72243
2.7126
2.72094
2.7417
2.74959
2.75311
2.74147
2.72676
2.63477
2.63631
2.62698
2.62609
2.61743
2.62079
2.60968
2.60607
2.6162
2.62274
2.62425
2.60774
2.60726
2.60617
2.61082
2.61611
2.60179
2.60425
2.60825
2.67782
2.67847
2.68009
2.6854
2.71608
2.71297
2.71821
2.69291
2.68923
2.70729
2.685
2.69341
2.69073
2.68658
2.70081
2.70463
2.72072
2.71916
2.71431
2.70485
2.71079
2.70871
2.69843
2.70245
2.73475
2.71616
2.73176
2.72401
2.73916
2.72435
2.71974
2.71065
2.7149
2.71532
2.72089
2.79023
2.78081
2.78387
2.73984
2.74852
2.75352
2.75128
2.76304
2.75526
2.75147
2.76612
2.77439
2.74893
2.75123
2.77189
2.76937
2.75894
2.75498
2.75489
2.7692
2.76333
2.77956
2.77106
2.71352
2.70919
2.69902
2.6992
2.6872
2.69294
2.69655
2.69434
2.69029
2.70295
2.69947
2.68643
2.6841
2.68212
2.68124
2.66691
2.59329
2.59602
2.60129
2.60704
2.598
2.60129
2.5923
2.59267
2.59454
2.62291
2.62385
2.6115
2.62037
2.61855
2.61786
2.6099
2.61504
2.61616
2.61883
2.61192
2.62446
2.62296
2.61856
2.62613
2.62653
2.67766
2.67295
2.67529
2.67758
2.67145
2.6848
2.68293
2.68545
2.68075
2.67446
2.67868
2.67673
2.67077
2.67562
2.671
2.66986
2.67201
2.66895
2.67055
2.67505
2.67672
2.67149
2.67378
2.67152
2.82343
2.83283
2.81972
2.74575
2.76094
2.75658
2.76561
2.7998
2.79413
2.78051
2.79826
2.79929
2.78061
2.84215
2.83928
2.82977
2.81014
2.81187
2.81387
2.80271
2.79325
2.79985
2.7047
2.68753
2.69814
2.69331
2.70127
2.69584
2.72252
2.70663
2.72393
2.72752
2.68793
2.69295
2.67418
2.67624
2.67254
2.67942
2.68316
2.73747
2.73932
2.72536
2.7043
2.70562
2.71036
2.70317
2.69958
2.68639
2.6939
2.69421
2.69594
2.68684
2.67453
2.67274
2.77384
2.77756
2.78453
2.7823
2.72286
2.77511
2.77008
2.77208
2.76647
2.71917
2.72774
2.74544
2.74851
2.74452
2.72687
2.71879
2.76896
2.76188
2.76399
2.75093
2.75311
2.75227
2.75905
2.75046
2.73932
2.7468
2.75634
2.75537
2.7591
2.75826
2.66047
2.67142
2.665
2.67494
2.67967
2.67718
2.68487
2.68035
2.6905
2.68994
2.70281
2.69012
2.68738
2.67624
2.70851
2.7306
2.70472
2.70165
2.72261
2.72527
2.6574
2.6462
2.64316
2.64884
2.6387
2.65338
2.66249
2.66419
2.68256
2.68172
2.67067
2.66901
2.66117
2.66066
2.64986
2.65415
2.64246
2.6574
2.65973
2.64068
2.64231
2.67384
2.68208
2.67345
2.67071
2.66212
2.6725
2.66983
2.67731
2.68672
2.6498
2.63949
2.64843
2.6557
2.6547
2.64947
2.65139
2.65504
2.65892
2.65158
2.64527
2.67768
2.68035
2.66666
2.67067
2.66187
2.67347
2.66644
2.67723
2.68233
2.61036
2.60647
2.60555
2.6053
2.61102
2.61211
2.62882
2.62144
2.61055
2.60832
2.61408
2.6127
2.62038
2.61584
2.61105
2.60736
2.62734
2.63752
2.63895
2.60831
2.61858
2.61411
2.61442
2.62699
2.63413
2.61002
2.63129
2.61883
2.73916
2.73614
2.72192
2.71645
2.67774
2.68875
2.68207
2.6852
2.78497
2.79114
2.78572
2.77302
2.76866
2.76273
2.76047
2.73991
2.7681
2.75648
2.74539
2.74565
2.77436
2.78125
2.77118
2.76604
2.7663
2.77614
2.76412
2.76843
2.76646
2.76154
2.74023
2.73124
2.7513
2.75808
2.75367
2.81918
2.81761
2.80379
2.80468
2.79539
2.80237
2.7891
2.77731
2.78687
2.8019
2.79189
2.81035
2.77778
2.76797
2.76436
2.7877
2.77781
2.77307
2.75801
2.75086
2.74211
2.74165
2.76197
2.76907
2.59563
2.59916
2.59705
2.5963
2.59655
2.60171
2.60487
2.59655
2.59794
2.5983
2.59876
2.59707
2.84864
2.84974
2.84025
2.8313
2.8285
2.83935
2.84412
2.83661
2.84039
2.8471
2.84542
2.83932
2.83556
2.83239
2.83091
2.83187
2.83994
2.84112
2.82926
2.8376
2.82698
2.68108
2.68543
2.68066
2.68107
2.6833
2.60078
2.69867
2.69366
2.68998
2.69525
2.68392
2.68356
2.69312
2.69154
2.67809
2.68037
2.64804
2.64379
2.64656
2.6456
2.64081
2.63974
2.63441
2.63766
2.63879
2.63308
2.63304
2.63243
2.63165
2.63076
2.63635
2.63551
2.63786
2.64161
2.63765
2.64051
2.76265
2.64823
2.64931
2.65292
2.65233
2.6522
2.64707
2.64124
2.64042
2.64248
2.65786
2.6528
2.66063
2.65598
2.6558
2.65521
2.65569
2.68445
2.67719
2.6786
2.68261
2.68544
2.67836
2.68015
2.68362
2.67979
2.68822
2.69035
2.68632
2.68636
2.68757
2.68869
2.69126
2.69018
2.68963
2.68541
2.7072
2.71688
2.70575
2.70589
2.71094
2.73123
2.72609
2.73259
2.72381
2.72086
2.71635
2.7197
2.71726
2.65683
2.66033
2.66298
2.64757
2.63685
2.62807
2.63444
2.62322
2.62038
2.62237
2.63109
2.62762
2.64679
2.64339
2.6465
2.6398
2.64903
2.65924
2.65724
2.66256
2.76391
2.76542
2.75309
2.77069
2.76413
2.77475
2.76266
2.76112
2.75697
2.75273
2.75743
2.74611
2.75207
2.74739
2.73904
2.72184
2.72002
2.7196
2.74643
2.74498
2.73771
2.71723
2.72181
2.7778
2.75899
2.76316
2.77758
2.77239
2.76952
2.78794
2.61214
2.60795
2.61404
2.62351
2.60539
2.60975
2.60302
2.59831
2.59292
2.5907
2.59887
2.64411
2.65514
2.65718
2.65355
2.63012
2.63307
2.64151
2.63734
2.60819
2.60834
2.61152
2.61401
2.61023
2.7832
2.78591
2.77644
2.77374
2.78732
2.77987
2.7946
2.80074
2.78945
2.78552
2.78701
2.77977
2.78998
2.78212
2.76394
2.77152
2.76689
2.78529
2.78842
2.78117
2.78337
2.77676
2.77366
2.7895
2.78677
2.79019
2.79152
2.65749
2.65922
2.65856
2.66016
2.66161
2.66058
2.65645
2.65863
2.66664
2.66333
2.66159
2.65587
2.65196
2.65432
2.66584
2.65379
2.66014
2.66338
2.66127
2.66724
2.6561
2.65632
2.64426
2.6503
2.65207
2.64917
2.64914
2.65601
2.65008
2.64966
2.82257
2.81181
2.82624
2.6669
2.66802
2.67129
2.66952
2.67401
2.65808
2.66117
2.66296
2.66214
2.65121
2.65031
2.65482
2.66544
2.65114
2.6489
2.65462
2.65568
2.66441
2.65532
2.65998
2.82429
2.82432
2.81361
2.81635
2.81993
2.80532
2.79228
2.79058
2.80175
2.80377
2.78637
2.78823
2.77935
2.78705
2.7891
2.61686
2.61972
2.61522
2.61457
2.61424
2.61117
2.61822
2.61525
2.61292
2.63134
2.63008
2.631
2.64181
2.62548
2.62511
2.65056
2.64751
2.68757
2.69804
2.68836
2.67744
2.6709
2.6447
2.66843
2.65441
2.61686
2.62132
2.6212
2.61001
2.62528
2.62391
2.62313
2.61387
2.75031
2.73836
2.73362
2.72368
2.73577
2.73596
2.74204
2.72644
2.74101
2.74241
2.74184
2.61657
2.61858
2.60783
2.61352
2.61373
2.62163
2.61873
2.62212
2.65926
2.66538
2.65941
2.6505
2.64664
2.6453
2.66035
2.65199
2.6394
2.64695
2.64367
2.65727
2.65825
2.65222
2.67173
2.65725
2.68704
2.67435
2.65915
2.6772
2.66823
2.67358
2.66727
2.66094
2.6553
2.73028
2.75412
2.73786
2.74087
2.73276
2.76412
2.76705
2.75527
2.70203
2.69984
2.70935
2.70343
2.69923
2.71252
2.71778
2.71689
2.70551
2.65982
2.6576
2.65229
2.6632
2.6561
2.6548
2.662
2.66492
2.65151
2.64413
2.65627
2.6704
2.65599
2.65582
2.65731
2.66241
2.65956
2.65681
2.65842
2.66748
2.65524
2.6608
2.64191
2.63679
2.63553
2.6363
2.63901
2.64167
2.64278
2.64295
2.75325
2.75118
2.75366
2.76085
2.75351
2.74227
2.75282
2.64456
2.64042
2.64112
2.63878
2.64127
2.64244
2.62763
2.63346
2.6297
2.63292
2.637
2.63111
2.6365
2.63688
2.6363
2.62929
2.62847
2.63282
2.63467
2.62901
2.63375
2.62694
2.62838
2.63683
2.63756
2.63903
2.63715
2.63707
2.63901
2.67651
2.67846
2.68328
2.68033
2.68041
2.67829
2.6778
2.67921
2.8308
2.83263
2.82639
2.83084
2.83931
2.83319
2.82129
2.81351
2.82519
2.81503
2.8125
2.82755
2.82854
2.8276
2.83045
2.82049
2.81814
2.82828
2.83806
2.83546
2.8292
2.82244
2.82383
2.81833
2.82309
2.82954
2.83113
2.82436
2.82322
2.81622
2.81721
2.81578
2.84862
2.83585
2.84274
2.83392
2.85185
2.84158
2.84518
2.84609
2.84606
2.70334
2.70542
2.7009
2.76745
2.75456
2.77055
2.77382
2.75702
2.77688
2.78335
2.77319
2.768
2.75956
2.75325
2.76296
2.76698
2.73193
2.756
2.7626
2.76795
2.75854
2.74022
2.8126
2.81272
2.80082
2.80441
2.79991
2.80186
2.80118
2.79173
2.78858
2.78754
2.79779
2.79732
2.80172
2.80747
2.83258
2.83567
2.84045
2.82301
2.81321
2.81532
2.81215
2.81741
2.81222
2.82194
2.80592
2.81345
2.82662
2.81893
2.83091
2.83359
2.82762
2.83382
2.83084
2.75234
2.76309
2.76614
2.75795
2.75768
2.75216
2.76777
2.77272
2.77937
2.76233
2.76485
2.75417
2.76355
2.77374
2.76705
2.75527
2.78798
2.79985
2.79157
2.78983
2.78515
2.67859
2.65631
2.64803
2.66153
2.67238
2.67389
2.74893
2.74852
2.74565
2.72165
2.72169
2.72254
2.73489
2.72949
2.62165
2.62824
2.63376
2.63148
2.63138
2.62683
2.64245
2.63756
2.61279
2.61691
2.61355
2.61717
2.61823
2.61974
2.61605
2.6298
2.6264
2.62171
2.63631
2.60503
2.6044
2.60614
2.60979
2.61624
2.61015
2.62289
2.5903
2.6075
2.63958
2.6518
2.65426
2.64968
2.6387
2.63773
2.65311
2.67171
2.6637
2.67265
2.67485
2.67048
2.66451
2.65861
2.65539
2.67788
2.66146
2.65936
2.67941
2.6745
2.6629
2.66592
2.66125
2.65863
2.65264
2.68012
2.69291
2.67967
2.68458
2.6856
2.6957
2.69693
2.69588
2.68775
2.78076
2.76991
2.77702
2.77891
2.77564
2.78494
2.71647
2.71041
2.7148
2.69916
2.69404
2.69695
2.70648
2.70663
2.71198
2.71994
2.70815
2.71775
2.77844
2.77736
2.77092
2.76821
2.78171
2.77677
2.77612
2.77095
2.76979
2.77539
2.76638
2.77256
2.76688
2.76377
2.76762
2.7008
2.70073
2.70925
2.71224
2.71184
2.72274
2.71813
2.66109
2.65511
2.64961
2.66166
2.65291
2.65518
2.65935
2.65174
2.65927
2.65975
2.66696
2.81976
2.83071
2.81401
2.81487
2.82681
2.82073
2.82786
2.84212
2.8384
2.81972
2.8168
2.82009
2.84146
2.8335
2.83461
2.8419
2.81902
2.82255
2.80208
2.79943
2.80961
2.8119
2.79438
2.80435
2.80489
2.79525
2.78964
2.79135
2.60793
2.61002
2.60853
2.61403
2.60768
2.60538
2.60695
2.68485
2.68568
2.63324
2.62917
2.62857
2.62513
2.64271
2.6348
2.61056
2.60683
2.61058
2.60548
2.61586
2.60053
2.60728
2.60929
2.61004
2.60547
2.60316
2.606
2.60835
2.60698
2.59504
2.60266
2.60376
2.60181
2.60182
2.59623
2.59927
2.59866
2.6015
2.60256
2.59686
2.59658
2.60291
2.60157
2.60057
2.68166
2.69397
2.6861
2.68051
2.69482
2.69753
2.69661
2.69601
2.69167
2.68792
2.61307
2.60731
2.60426
2.61104
2.61011
2.61132
2.60711
2.60109
2.60821
2.60307
2.61099
2.60681
2.61095
2.60961
2.59998
2.60033
2.60281
2.60296
2.60405
2.59956
2.60302
2.59733
2.60104
2.60038
2.61715
2.62207
2.62473
2.60748
2.61137
2.6125
2.62377
2.62018
2.61546
2.61104
2.60705
2.63926
2.62983
2.63241
2.63964
2.63668
2.63543
2.63575
2.64301
2.63774
2.63811
2.63285
2.62114
2.62331
2.61917
2.61957
2.62544
2.62336
2.61703
2.62229
2.72251
2.72945
2.72666
2.74198
2.74109
2.7398
2.73497
2.74899
2.75103
2.75267
2.74713
2.73131
2.73952
2.75566
2.75044
2.74571
2.6661
2.66202
2.66353
2.66375
2.66895
2.66683
2.66372
2.66201
2.66083
2.667
2.6646
2.66439
2.6593
2.6594
2.66583
2.6671
2.76032
2.76702
2.76093
2.75888
2.76745
2.77095
2.77281
2.77019
2.80011
2.73163
2.74512
2.74654
2.73533
2.72681
2.7319
2.75585
2.75604
2.73572
2.72098
2.73659
2.72908
2.73087
2.71341
2.7141
2.71412
2.69552
2.69868
2.71274
2.70166
2.80794
2.81365
2.80443
2.79396
2.80799
2.80209
2.80175
2.81258
2.81433
2.81429
2.80794
2.80541
2.79778
2.79872
2.79815
2.73199
2.76217
2.73723
2.73808
2.75472
2.75012
2.73745
2.74376
2.74422
2.73935
2.72173
2.7249
2.74524
2.75023
2.73505
2.73098
2.75648
2.74273
2.786
2.78545
2.78684
2.78716
2.77718
2.76927
2.77774
2.79072
2.79231
2.77871
2.76409
2.75114
2.76311
2.66102
2.67684
2.68018
2.69454
2.69327
2.68702
2.66531
2.66406
2.68258
2.67626
2.66626
2.68972
2.69882
2.68456
2.68039
2.68039
2.67953
2.67701
2.67775
2.68313
2.68075
2.65612
2.65387
2.6553
2.65665
2.65946
2.65189
2.65565
2.65566
2.66107
2.66078
2.65651
2.65965
2.65984
2.66427
2.65629
2.65562
2.65377
2.65706
2.61092
2.60881
2.61088
2.60601
2.60995
2.60668
2.60536
2.61178
2.61483
2.61316
2.61602
2.70226
2.691
2.6977
2.75507
2.76401
2.75147
2.75945
2.76083
2.75089
2.78307
2.78663
2.79599
2.79484
2.79242
2.78966
2.78268
2.78129
2.77092
2.76336
2.78617
2.80213
2.79925
2.78781
2.8106
2.80556
2.8111
2.81254
2.80706
2.8167
2.81074
2.82568
2.83717
2.82887
2.84036
2.82747
2.84396
2.62211
2.62489
2.62699
2.63464
2.62803
2.62747
2.62258
2.62502
2.62234
2.62053
2.79083
2.77424
2.78872
2.78591
2.77206
2.77572
2.78595
2.76579
2.77063
2.77578
2.79764
2.7852
2.77393
2.78342
2.77274
2.80325
2.79499
2.7931
2.80517
2.80352
2.80557
2.79486
2.81328
2.82083
2.80874
2.80283
2.81559
2.82178
2.8101
2.82821
2.82753
2.81421
2.69826
2.72226
2.72145
2.7078
2.70501
2.72337
2.72026
2.70994
2.71213
2.71361
2.71347
2.70335
2.70566
2.69573
2.62106
2.61948
2.62185
2.6077
2.61479
2.6173
2.61028
2.60964
2.61685
2.61376
2.62162
2.62775
2.61766
2.61545
2.61877
2.61861
2.62208
2.62241
2.623
2.61954
2.617
2.61654
2.61822
2.61768
2.6229
2.62044
2.62278
2.61897
2.62029
2.61879
2.62001
2.62243
2.62214
2.6228
2.61663
2.61844
2.64178
2.63991
2.65898
2.65303
2.65281
2.63129
2.63429
2.6598
2.64798
2.65528
2.64748
2.67512
2.66382
2.68261
2.67737
2.68398
2.67473
2.67445
2.67988
2.68647
2.69237
2.69533
2.73864
2.73062
2.72961
2.73588
2.72682
2.73238
2.72242
2.72567
2.81555
2.80225
2.80788
2.80588
2.79085
2.8024
2.79561
2.63979
2.62847
2.62014
2.63236
2.62349
2.63748
2.62465
2.63962
2.64457
2.80157
2.8142
2.81188
2.81008
2.82088
2.81344
2.80774
2.80798
2.76175
2.76556
2.7591
2.76351
2.76787
2.7584
2.69885
2.67954
2.67719
2.69793
2.69921
2.70308
2.687
2.68388
2.72532
2.73433
2.7481
2.73557
2.75349
2.74327
2.79402
2.77798
2.7888
2.80077
2.79688
2.78754
2.80615
2.79037
2.80104
2.79594
2.80297
2.80473
2.79434
2.79188
2.78477
2.79002
2.79381
2.77802
2.76396
2.79721
2.78911
2.79655
2.79348
2.5844
2.58384
2.58091
2.57968
2.58399
2.75726
2.76398
2.76818
2.7525
2.76557
2.76708
2.76227
2.76428
2.75579
2.74863
2.74156
2.74573
2.77984
2.77968
2.77228
2.79369
2.76347
2.80171
2.79211
2.79164
2.78576
2.78064
2.79841
2.7954
2.78853
2.77335
2.77854
2.8005
2.82694
2.82129
2.83062
2.82153
2.82533
2.81713
2.82283
2.815
2.81434
2.82098
2.81478
2.82144
2.8321
2.81911
2.81792
2.82002
2.81984
2.83114
2.83416
2.82866
2.82831
2.82272
2.65121
2.65214
2.65286
2.64715
2.64677
2.64646
2.65318
2.6525
2.64868
2.64771
2.63106
2.63269
2.63123
2.63385
2.63367
2.63494
2.63995
2.63436
2.63635
2.63813
2.63355
2.70013
2.69631
2.71101
2.69511
2.7033
2.69446
2.71576
2.71971
2.71819
2.72102
2.73784
2.73271
2.72859
2.72694
2.71966
2.72317
2.73238
2.72991
2.74427
2.74344
2.83038
2.84232
2.839
2.84666
2.84145
2.83755
2.84511
2.84853
2.84168
2.85517
2.84213
2.84868
2.84272
2.84282
2.85696
2.85083
2.85054
2.85005
2.85062
2.84914
2.84702
2.85483
2.84492
2.77737
2.77633
2.77807
2.77085
2.7786
2.78074
2.77502
2.78588
2.78035
2.76875
2.77637
2.8449
2.83743
2.84392
2.84138
2.84305
2.84919
2.85255
2.84385
2.84033
2.83644
2.82987
2.83205
2.82794
2.83355
2.84151
2.84509
2.6716
2.67155
2.63041
2.6334
2.63156
2.62772
2.62311
2.62478
2.63619
2.63252
2.63867
2.64335
2.64352
2.64514
2.64019
2.63943
2.64104
2.6482
2.64627
2.64201
2.6413
2.63602
2.63538
2.63554
2.63412
2.63434
2.638
2.76144
2.65629
2.65213
2.63653
2.64192
2.65696
2.66248
2.65509
2.65142
2.65518
2.65464
2.64943
2.76324
2.75935
2.76131
2.76218
2.75117
2.74827
2.73654
2.75112
2.74582
2.74283
2.72218
2.73191
2.74367
2.74127
2.73519
2.75211
2.75662
2.74996
2.77987
2.77134
2.79386
2.77879
2.77663
2.76697
2.76932
2.76799
2.76255
2.76818
2.6692
2.6677
2.66794
2.67332
2.67466
2.67017
2.66288
2.66369
2.66751
2.66334
2.66172
2.66208
2.66394
2.69917
2.70507
2.74089
2.73704
2.71489
2.71891
2.72731
2.73572
2.75192
2.73917
2.71852
2.72385
2.74154
2.72726
2.75077
2.75185
2.73153
2.72838
2.67542
2.67054
2.60352
2.6048
2.601
2.74165
2.75019
2.73799
2.72618
2.73675
2.74999
2.74586
2.7543
2.72922
2.7253
2.7498
2.76346
2.74869
2.68298
2.665
2.67172
2.66591
2.67291
2.67025
2.66628
2.66968
2.66746
2.66345
2.58637
2.5808
2.59901
2.59377
2.60274
2.60385
2.60386
2.60293
2.6138
2.61413
2.67105
2.67365
2.7103
2.71707
2.73026
2.72684
2.69958
2.70869
2.70779
2.69032
2.69395
2.71008
2.70844
2.71232
2.71265
2.69883
2.69605
2.70941
2.67823
2.68225
2.6766
2.66531
2.69011
2.68466
2.68134
2.68646
2.68034
2.67214
2.6873
2.67766
2.68702
2.68772
2.68973
2.69594
2.6776
2.67678
2.76821
2.77701
2.76775
2.76493
2.7583
2.76976
2.76489
2.77044
2.77522
2.75796
2.76619
2.7721
2.7636
2.76399
2.76257
2.74718
2.7544
2.72765
2.72145
2.73139
2.73978
2.73056
2.71753
2.70913
2.72858
2.73642
2.74416
2.73432
2.72911
2.7201
2.60876
2.60716
2.60452
2.72967
2.72714
2.70853
2.70698
2.71055
2.70664
2.72942
2.7361
2.68807
2.68117
2.7001
2.77626
2.76868
2.75192
2.75343
2.75129
2.76598
2.77054
2.76929
2.77962
2.77682
2.72924
2.73431
2.75432
2.75941
2.74999
2.74455
2.75562
2.75541
2.7562
2.76946
2.76809
2.77199
2.7661
2.77336
2.76884
2.76451
2.76544
2.59624
2.5973
2.82923
2.67483
2.67507
2.6822
2.68244
2.68188
2.67465
2.67969
2.68994
2.69074
2.6851
2.69716
2.70654
2.6952
2.69565
2.694
2.69169
2.69859
2.68729
2.69234
2.69994
2.64884
2.64851
2.6408
2.64394
2.64743
2.64714
2.64759
2.63641
2.64204
2.68808
2.68767
2.67955
2.68574
2.68691
2.6869
2.6916
2.68697
2.69162
2.68287
2.67762
2.68626
2.67783
2.68468
2.71295
2.70908
2.63908
2.6321
2.62402
2.63205
2.6387
2.63542
2.63373
2.63759
2.63809
2.63073
2.62975
2.70568
2.70218
2.71939
2.71389
2.78289
2.78507
2.78438
2.78269
2.79098
2.76992
2.78488
2.78555
2.77418
2.78603
2.78682
2.77859
2.78118
2.77763
2.78221
2.6559
2.65778
2.67126
2.67647
2.67966
2.67196
2.67683
2.67767
2.67715
2.66205
2.6663
2.6634
2.66504
2.66211
2.66173
2.66736
2.66147
2.6551
2.65434
2.65431
2.6533
2.64291
2.65135
2.6663
2.67079
2.66732
2.66518
2.66696
2.66699
2.6711
2.67191
2.66998
2.64228
2.65139
2.65399
2.65267
2.6519
2.64921
2.65088
2.64534
2.65045
2.65228
2.65345
2.65494
2.65399
2.79507
2.7811
2.71743
2.72138
2.71931
2.722
2.70614
2.70363
2.71628
2.72414
2.72071
2.71087
2.71895
2.71575
2.68301
2.68387
2.69107
2.68849
2.69785
2.69999
2.70444
2.70271
2.70609
2.71592
2.72397
2.72501
2.74332
2.7308
2.64135
2.64356
2.64434
2.64917
2.64893
2.6447
2.64441
2.64159
2.64427
2.64701
2.65131
2.65123
2.64784
2.64826
2.67993
2.68033
2.68446
2.68216
2.6785
2.68348
2.6881
2.68659
2.68167
2.67992
2.68333
2.68266
2.68581
2.68977
2.82311
2.82256
2.82671
2.82264
2.81981
2.829
2.83625
2.82611
2.8286
2.83832
2.83879
2.8402
2.76329
2.76173
2.75392
2.80153
2.79623
2.78533
2.79351
2.7791
2.79323
2.80592
2.80598
2.80306
2.79302
2.78611
2.79585
2.79516
2.80501
2.81167
2.81381
2.82698
2.73119
2.73407
2.748
2.749
2.74538
2.75219
2.74658
2.75011
2.75644
2.68139
2.67281
2.70534
2.71353