/*--------------------------------*- C++ -*----------------------------------*\
| =========                 |                                                 |
| \\      /  F ield         | OpenFOAM: The Open Source CFD Toolbox           |
|  \\    /   O peration     | Version:  v1612+                                |
|   \\  /    A nd           | Web:      www.OpenFOAM.com                      |
|    \\/     M anipulation  |                                                 |
\*---------------------------------------------------------------------------*/
FoamFile
{
    version     2.0;
    format      ascii;
    class       volVectorField;
    location    "200";
    object      U;
}
// * * * * * * * * * * * * * * * * * * * * * * * * * * * * * * * * * * * * * //

dimensions      [0 1 -1 0 0 0 0];

internalField   nonuniform List<vector> 
18941
(
(-0.595816 0.435712 -0.657721)
(-0.638849 0.0972468 -0.627627)
(-0.601402 0.188778 -0.416633)
(-0.567623 0.172275 -0.416792)
(-0.613821 0.207035 -0.446444)
(-0.579626 0.182822 -0.430668)
(-0.564668 0.174868 -0.324568)
(-0.531918 0.151917 -0.312115)
(-0.555221 0.174574 -0.333631)
(-0.526459 0.149867 -0.323591)
(-0.537057 0.1531 -0.348)
(-0.608584 0.203772 -0.420496)
(-0.587993 0.197061 -0.422228)
(-0.538983 0.163701 -0.268708)
(-0.555961 0.176583 -0.283814)
(-0.559592 0.173123 -0.304315)
(-0.571892 0.191213 -0.302817)
(-0.552106 0.175613 -0.288011)
(-0.578172 0.198289 -0.313988)
(-0.387708 0.0487808 -0.191387)
(-0.357989 0.053824 -0.148117)
(-0.4962 0.0899297 -0.291133)
(-0.468424 0.0849748 -0.269302)
(-0.416891 0.0484781 -0.206879)
(-0.409935 0.0593355 -0.206077)
(-0.379594 0.0595307 -0.180043)
(-0.401464 0.0624745 -0.166641)
(-0.377487 0.0567685 -0.153557)
(-0.48715 0.091367 -0.241671)
(-0.453558 0.0725122 -0.181904)
(-0.449558 0.0780786 -0.22772)
(-0.453889 0.0726064 -0.170464)
(-0.494165 0.0964423 -0.232431)
(-0.428078 0.0736033 -0.152133)
(-0.376694 0.067268 -0.140023)
(-0.486799 0.0930298 -0.26489)
(-0.476668 0.0863998 -0.260203)
(-0.445599 0.0749412 -0.1763)
(-0.412163 0.070677 -0.154826)
(-0.480768 0.0901835 -0.211004)
(-0.406442 0.0672566 -0.176649)
(-0.591702 0.508257 -0.598019)
(-0.601545 0.50457 -0.615588)
(-0.640935 0.494444 -0.624737)
(-0.63009 0.498208 -0.607457)
(-0.621858 0.480387 -0.627019)
(-0.61645 0.480198 -0.604602)
(-0.567324 0.532552 -0.558207)
(-0.577769 0.497774 -0.608648)
(-0.542406 0.493783 -0.556078)
(-0.579978 0.494479 -0.582165)
(-0.545924 0.497253 -0.558693)
(-0.584653 0.490191 -0.594524)
(-0.612536 0.491062 -0.588909)
(-0.552824 0.542433 -0.543233)
(-0.599472 0.51419 -0.573749)
(-0.519407 0.526208 -0.518186)
(-0.553648 0.525432 -0.565861)
(-0.53532 0.51413 -0.539671)
(-0.519326 0.494142 -0.53963)
(-0.573327 0.529602 -0.572172)
(-0.525602 0.355069 -0.236244)
(-0.581243 0.269819 -0.338941)
(-0.575988 0.268968 -0.323495)
(-0.558329 0.317772 -0.231244)
(-0.560863 0.34032 -0.205474)
(-0.548515 0.384938 -0.276391)
(-0.576842 0.364389 -0.325054)
(-0.510879 0.368927 -0.226338)
(-0.523225 0.378618 -0.214393)
(-0.599868 0.312695 -0.340444)
(-0.579637 0.354503 -0.35065)
(-0.591659 0.29024 -0.340605)
(-0.578605 0.301028 -0.355264)
(-0.56523 0.290883 -0.256391)
(-0.551174 0.344841 -0.217094)
(-0.560913 0.36161 -0.266743)
(-0.573546 0.332569 -0.31535)
(-0.561598 0.333126 -0.242066)
(-0.561798 0.355766 -0.283458)
(-0.874273 0.244168 -0.75363)
(-0.902065 0.22056 -0.775808)
(-0.929088 0.216952 -0.784112)
(-0.927085 0.248761 -0.760213)
(-0.91014 0.265836 -0.762385)
(-0.93132 0.245703 -0.772925)
(-0.912369 0.245998 -0.765219)
(-0.915161 0.254455 -0.740186)
(-0.932109 0.264484 -0.752037)
(-0.918497 0.276712 -0.756731)
(-0.899631 0.245864 -0.767355)
(-0.92072 0.263193 -0.764782)
(-0.901931 0.252619 -0.762054)
(-0.899572 0.250441 -0.775252)
(-0.902011 0.266278 -0.774175)
(-0.916726 0.263133 -0.785104)
(-0.429216 0.129833 -0.125873)
(-0.402154 0.130137 -0.0997891)
(-0.456089 0.127999 -0.162143)
(-0.429409 0.132827 -0.135383)
(-0.46819 0.138999 -0.169289)
(-0.491444 0.141882 -0.201276)
(-0.436348 0.175856 -0.117284)
(-0.405518 0.153162 -0.0936841)
(-0.404701 0.146124 -0.104105)
(-0.443493 0.164948 -0.138253)
(-0.466 0.160916 -0.186303)
(-0.472187 0.140265 -0.196143)
(-0.423946 0.167637 -0.118499)
(-0.484228 0.167273 -0.185033)
(-0.484453 0.1505 -0.18304)
(-0.453139 0.166863 -0.151686)
(-0.56209 0.504864 -0.562102)
(-0.539711 0.507345 -0.550828)
(-0.545176 0.51361 -0.540945)
(-0.514359 0.503637 -0.521022)
(-0.576794 0.481108 -0.542531)
(-0.52791 0.520262 -0.487908)
(-0.592951 0.485806 -0.587836)
(-0.590424 0.479366 -0.581921)
(-0.575222 0.494932 -0.518007)
(-0.542216 0.520393 -0.480973)
(-0.553179 0.530695 -0.487693)
(-0.52721 0.534653 -0.467235)
(-0.535054 0.535582 -0.489424)
(-0.498911 0.538092 -0.451308)
(-0.507308 0.520684 -0.495479)
(-0.588713 0.497985 -0.516181)
(-0.568163 0.527798 -0.547978)
(-0.615337 0.497898 -0.564736)
(-0.601393 0.335116 -0.188822)
(-0.605335 0.355077 -0.203954)
(-0.54744 0.352984 -0.119853)
(-0.570962 0.351892 -0.133757)
(-0.609635 0.361901 -0.236714)
(-0.621666 0.383727 -0.26788)
(-0.576886 0.379496 -0.142546)
(-0.547065 0.351458 -0.113861)
(-0.507083 0.348011 -0.0891783)
(-0.582703 0.393897 -0.162886)
(-0.617326 0.407663 -0.265508)
(-0.54869 0.41525 -0.148072)
(-0.583221 0.435495 -0.186854)
(-0.556222 0.443292 -0.179402)
(-0.512786 0.383329 -0.116151)
(-0.541033 0.392515 -0.133652)
(-0.520879 0.367095 -0.108224)
(-0.565777 0.427717 -0.191563)
(-0.435261 0.181287 -0.358813)
(-0.465309 0.170747 -0.372029)
(-0.408811 0.185599 -0.330799)
(-0.455509 0.176471 -0.360463)
(-0.374284 0.149317 -0.289814)
(-0.378235 0.143362 -0.296777)
(-0.364766 0.144241 -0.278868)
(-0.39152 0.143719 -0.286861)
(-0.402478 0.150011 -0.300072)
(-0.58288 0.463093 -0.488265)
(-0.584094 0.468504 -0.489562)
(-0.500877 0.490385 -0.455608)
(-0.469042 0.493004 -0.417425)
(-0.504469 0.489989 -0.495853)
(-0.45766 0.48525 -0.426787)
(-0.595683 0.468894 -0.523511)
(-0.539954 0.471651 -0.504494)
(-0.56573 0.463703 -0.497309)
(-0.57428 0.443041 -0.52613)
(-0.520264 0.495831 -0.446811)
(-0.487544 0.503951 -0.423705)
(-0.514916 0.492767 -0.499003)
(-0.566139 0.495595 -0.550223)
(-0.532854 0.505814 -0.492594)
(-0.582682 0.442859 -0.544937)
(-0.883999 0.0565472 -0.857173)
(-0.877163 0.0454997 -0.837523)
(-0.860718 0.0156679 -0.80759)
(-0.851833 0.0233939 -0.797878)
(-0.856404 0.0286164 -0.789175)
(-0.92066 0.0535544 -0.855928)
(-0.862772 0.0406398 -0.839637)
(-0.884438 0.0522734 -0.857372)
(-0.86747 0.0234562 -0.814756)
(-0.910991 0.0344999 -0.857254)
(-0.845596 0.0325047 -0.806879)
(-0.89629 0.0534776 -0.845914)
(-0.857902 0.0364862 -0.823756)
(-0.92308 0.0361035 -0.86842)
(-0.914937 0.0363769 -0.861465)
(-0.923375 0.0437863 -0.852886)
(-0.937843 0.0458158 -0.874579)
(-0.889514 0.0368318 -0.834614)
(-0.872343 0.051419 -0.856133)
(-0.827458 0.233929 -0.784441)
(-0.853677 0.204055 -0.787033)
(-0.795162 0.221369 -0.794)
(-0.773376 0.231687 -0.777556)
(-0.873233 0.208067 -0.81293)
(-0.829434 0.220212 -0.799287)
(-0.824368 0.223437 -0.804167)
(-0.819068 0.247176 -0.791877)
(-0.85852 0.181371 -0.782174)
(-0.820428 0.196849 -0.767329)
(-0.787404 0.212557 -0.734109)
(-0.811795 0.174142 -0.745605)
(-0.783044 0.229244 -0.794778)
(-0.788452 0.240686 -0.789013)
(-0.886947 0.192913 -0.806498)
(-0.775884 0.227068 -0.747069)
(-0.755189 0.20522 -0.748461)
(-0.786594 0.232104 -0.795794)
(-0.823925 0.158125 -0.788977)
(-0.769561 0.219526 -0.798929)
(-0.765711 0.228674 -0.771634)
(-0.801394 0.222913 -0.817417)
(-0.781871 0.283253 -0.76126)
(-0.753334 0.288979 -0.73866)
(-0.715409 0.294893 -0.703832)
(-0.780689 0.282054 -0.781912)
(-0.698889 0.300462 -0.739543)
(-0.688879 0.297869 -0.7274)
(-0.716656 0.315422 -0.743241)
(-0.751913 0.292352 -0.766653)
(-0.777078 0.280296 -0.792077)
(-0.776716 0.266745 -0.799782)
(-0.768371 0.308587 -0.774091)
(-0.76051 0.308274 -0.75759)
(-0.706165 0.328394 -0.725992)
(-0.686236 0.32232 -0.725079)
(-0.73459 0.287912 -0.741081)
(-0.723422 0.310596 -0.757496)
(-0.731062 0.291947 -0.761564)
(-0.679959 0.336352 -0.735667)
(-0.643857 0.371707 -0.711343)
(-0.723019 0.333063 -0.743778)
(-0.668182 0.340612 -0.725111)
(-0.746253 0.321644 -0.758952)
(-0.711252 0.31641 -0.751892)
(-0.677193 0.323863 -0.738371)
(-0.721519 0.0379061 -0.754663)
(-0.676394 0.0874004 -0.750118)
(-0.70312 0.0798358 -0.742753)
(-0.678237 0.0905019 -0.740678)
(-0.696294 0.0547996 -0.710783)
(-0.653851 0.0754017 -0.67328)
(-0.733999 0.0331515 -0.746306)
(-0.683263 0.0636064 -0.693287)
(-0.654176 0.0987186 -0.754683)
(-0.671242 0.060858 -0.732349)
(-0.658689 0.0772318 -0.718012)
(-0.622209 0.104621 -0.633887)
(-0.616619 0.0945424 -0.647939)
(-0.638383 0.0951132 -0.728704)
(-0.715459 0.0488431 -0.757219)
(-0.630567 0.107012 -0.686145)
(-0.627082 0.302297 -0.52508)
(-0.633716 0.285063 -0.531576)
(-0.612986 0.361113 -0.510309)
(-0.613379 0.339632 -0.510336)
(-0.644409 0.327214 -0.568572)
(-0.635761 0.286388 -0.532177)
(-0.6031 0.353985 -0.516692)
(-0.597342 0.350632 -0.504624)
(-0.657917 0.265832 -0.577011)
(-0.635863 0.304084 -0.56693)
(-0.645128 0.334935 -0.574342)
(-0.610123 0.320709 -0.544026)
(-0.609414 0.293381 -0.516498)
(-0.649125 0.324079 -0.604968)
(-0.635894 0.311857 -0.571769)
(-0.60949 0.367742 -0.544284)
(-0.620556 0.357469 -0.554583)
(-0.650643 0.267188 -0.586139)
(-0.650898 0.307945 -0.597371)
(-0.640894 0.335643 -0.596211)
(-0.630001 0.3577 -0.572823)
(-0.589688 0.150698 -0.517641)
(-0.561709 0.207579 -0.455848)
(-0.579704 0.180764 -0.490137)
(-0.55649 0.228608 -0.446593)
(-0.570245 0.162525 -0.501549)
(-0.556602 0.221678 -0.444819)
(-0.545622 0.260067 -0.454389)
(-0.551964 0.255436 -0.44971)
(-0.567211 0.232773 -0.544804)
(-0.578114 0.211109 -0.542089)
(-0.542214 0.273317 -0.476927)
(-0.546882 0.246117 -0.497284)
(-0.550388 0.233915 -0.446377)
(-0.55565 0.253289 -0.505542)
(-0.556199 0.25373 -0.471699)
(-0.586401 0.198084 -0.497589)
(-0.591901 0.162421 -0.534536)
(-0.626637 0.347824 -0.437639)
(-0.638338 0.445065 -0.382473)
(-0.62943 0.394913 -0.383774)
(-0.64658 0.467872 -0.321814)
(-0.660328 0.416498 -0.294011)
(-0.636772 0.377283 -0.355337)
(-0.609306 0.29167 -0.344061)
(-0.634528 0.325228 -0.333902)
(-0.850144 -0.0289367 -0.833376)
(-0.860312 -0.0318674 -0.842728)
(-0.851092 -0.0204814 -0.856802)
(-0.84719 -0.0107998 -0.838412)
(-0.786971 -0.0296508 -0.776718)
(-0.820642 -0.0281869 -0.802454)
(-0.804877 -0.00594953 -0.815264)
(-0.764542 -0.0145455 -0.792908)
(-0.784853 -0.00954619 -0.790559)
(-0.71434 -0.010927 -0.732469)
(-0.711568 -0.00307101 -0.714711)
(-0.695641 -0.00515861 -0.691358)
(-0.711672 -0.00208347 -0.727047)
(-0.797792 -0.0027697 -0.789265)
(-0.747471 -0.00631454 -0.743826)
(-0.760902 -0.0180128 -0.744595)
(-0.797838 -0.00785246 -0.780087)
(-0.866368 -0.0163545 -0.837991)
(-0.766821 0.00269478 -0.780622)
(-0.734691 0.00170389 -0.835922)
(-0.703287 0.0110477 -0.788954)
(-0.812702 -0.00185631 -0.87232)
(-0.753452 0.0033453 -0.832042)
(-0.771428 0.00221171 -0.862404)
(-0.710823 0.00581223 -0.80914)
(-0.668154 0.0277969 -0.741627)
(-0.752023 0.0131579 -0.799658)
(-0.808399 0.018595 -0.861626)
(-0.791298 -0.00447678 -0.864444)
(-0.795159 0.00997337 -0.869656)
(-0.724677 0.0491816 -0.765608)
(-0.727419 0.0253779 -0.794144)
(-0.708561 0.0154897 -0.795271)
(-0.715319 0.0343193 -0.774247)
(-0.825907 0.00179224 -0.875404)
(-0.787857 0.0226616 -0.827226)
(-0.785766 0.0405207 -0.820089)
(-0.625661 0.301012 -0.290245)
(-0.632069 0.328484 -0.318869)
(-0.617719 0.257356 -0.2808)
(-0.610955 0.244857 -0.313814)
(-0.618548 0.249437 -0.254637)
(-0.611486 0.230524 -0.324737)
(-0.631638 0.311897 -0.275976)
(-0.617921 0.26408 -0.350242)
(-0.621018 0.266137 -0.255751)
(-0.624806 0.27767 -0.281734)
(-0.615663 0.246528 -0.33087)
(-0.633997 0.342281 -0.340663)
(-0.628747 0.318142 -0.303428)
(-0.628789 0.279074 -0.274286)
(-0.623217 0.298979 -0.313103)
(-0.612932 0.276115 -0.370071)
(-0.837395 0.335811 -0.68281)
(-0.837075 0.349771 -0.677847)
(-0.845797 0.323819 -0.677328)
(-0.873628 0.358481 -0.710178)
(-0.895374 0.365263 -0.717587)
(-0.872498 0.345913 -0.684385)
(-0.86136 0.322338 -0.71147)
(-0.82965 0.302466 -0.696797)
(-0.836797 0.322721 -0.691974)
(-0.884674 0.339906 -0.696297)
(-0.892932 0.342567 -0.728294)
(-0.848441 0.332781 -0.712334)
(-0.818118 0.297646 -0.691634)
(-0.539297 0.253425 -0.198665)
(-0.54153 0.250309 -0.193168)
(-0.538113 0.242101 -0.191104)
(-0.547514 0.234079 -0.200996)
(-0.509991 0.248832 -0.152437)
(-0.49336 0.251124 -0.132828)
(-0.489387 0.237792 -0.129684)
(-0.472301 0.229844 -0.114428)
(-0.484298 0.228761 -0.107059)
(-0.458944 0.219849 -0.0957185)
(-0.487267 0.200247 -0.121882)
(-0.453047 0.199329 -0.0870674)
(-0.542155 0.213379 -0.206709)
(-0.547174 0.205622 -0.220699)
(-0.476931 0.227415 -0.125136)
(-0.502551 0.23997 -0.144942)
(-0.50858 0.216211 -0.133778)
(-0.503885 0.197265 -0.140206)
(-0.472834 0.204981 -0.107562)
(-0.549238 0.225534 -0.190812)
(-0.558937 0.229454 -0.444286)
(-0.540779 0.243903 -0.450487)
(-0.452196 0.214524 -0.376863)
(-0.45431 0.30662 -0.334479)
(-0.588689 0.301798 -0.435675)
(-0.3923 0.22841 -0.317426)
(-0.370602 0.238808 -0.29991)
(-0.3548 0.250289 -0.290216)
(-0.431181 0.260386 -0.352163)
(-0.482065 0.281165 -0.377144)
(-0.645218 0.306624 -0.505286)
(-0.510999 0.303656 -0.38755)
(-0.558328 0.297435 -0.430914)
(-0.385118 0.236785 -0.311055)
(-0.371971 0.249003 -0.298057)
(-0.490315 0.214466 -0.408701)
(-0.445244 0.280074 -0.352157)
(-0.406683 0.273412 -0.318784)
(-0.442483 0.288564 -0.343598)
(-0.386384 0.281917 -0.30476)
(-0.492378 0.226154 -0.405232)
(-0.573739 0.278035 -0.468945)
(-0.596093 0.271525 -0.489444)
(-0.631503 0.482322 -0.526919)
(-0.636986 0.494236 -0.575508)
(-0.663556 0.450733 -0.569206)
(-0.634416 0.462663 -0.525264)
(-0.622157 0.515806 -0.51427)
(-0.612057 0.552727 -0.512318)
(-0.658185 0.423261 -0.571776)
(-0.64526 0.458926 -0.546442)
(-0.661508 0.410327 -0.581476)
(-0.664622 0.436138 -0.596611)
(-0.6333 0.521988 -0.511857)
(-0.617787 0.514154 -0.509751)
(-0.628319 0.539166 -0.553578)
(-0.674775 0.451349 -0.601864)
(-0.649424 0.466759 -0.539708)
(-0.64072 0.44876 -0.535836)
(-0.645872 0.464969 -0.534382)
(-0.631689 0.578233 -0.553428)
(-0.630296 0.537196 -0.532632)
(-0.652325 0.518292 -0.600538)
(-0.558854 0.477201 -0.581284)
(-0.548949 0.480481 -0.562969)
(-0.537404 0.514416 -0.514838)
(-0.604306 0.440102 -0.542685)
(-0.611057 0.399181 -0.564315)
(-0.619414 0.449735 -0.616029)
(-0.62878 0.4477 -0.613695)
(-0.599581 0.417726 -0.568774)
(-0.596718 0.429338 -0.546068)
(-0.528043 0.484321 -0.554124)
(-0.51362 0.489657 -0.530581)
(-0.545993 0.500603 -0.563549)
(-0.592078 0.447315 -0.569479)
(-0.517111 0.50754 -0.484887)
(-0.496756 0.49895 -0.488165)
(-0.598634 0.447099 -0.599201)
(-0.552286 0.483507 -0.57192)
(-0.585449 0.124309 -0.385942)
(-0.578892 0.148196 -0.33761)
(-0.560241 0.163121 -0.246052)
(-0.565411 0.142181 -0.298128)
(-0.546307 0.152441 -0.237168)
(-0.544935 0.138306 -0.21302)
(-0.514849 0.102683 -0.19297)
(-0.528908 0.0999743 -0.255117)
(-0.500168 0.127253 -0.174839)
(-0.530333 0.10665 -0.277494)
(-0.483439 0.105118 -0.182828)
(-0.503982 0.116175 -0.178204)
(-0.754296 0.0702777 -0.72246)
(-0.738577 0.065613 -0.710958)
(-0.762817 0.065519 -0.731711)
(-0.756789 0.058865 -0.734173)
(-0.801107 0.0360393 -0.790072)
(-0.88014 0.0494592 -0.848568)
(-0.78154 0.0669966 -0.743474)
(-0.787152 0.0438225 -0.755988)
(-0.857077 0.0470765 -0.825679)
(-0.814778 0.0426911 -0.789822)
(-0.855049 0.0663282 -0.854348)
(-0.881822 0.0573358 -0.845669)
(-0.826701 0.0788454 -0.812974)
(-0.789588 0.0822336 -0.760254)
(-0.816079 0.081388 -0.783279)
(-0.830603 0.0580314 -0.796283)
(-0.872436 0.071527 -0.827709)
(-0.880886 0.0566194 -0.831644)
(-0.515447 0.290856 -0.467757)
(-0.508273 0.326393 -0.462998)
(-0.522533 0.25458 -0.483759)
(-0.535617 0.261182 -0.50792)
(-0.482678 0.334185 -0.358046)
(-0.523356 0.329373 -0.388321)
(-0.510773 0.311628 -0.384583)
(-0.479539 0.319411 -0.387028)
(-0.543235 0.249206 -0.465527)
(-0.856818 0.0294813 -0.774792)
(-0.864402 0.038477 -0.80056)
(-0.84559 0.0193746 -0.786202)
(-0.927184 0.0482732 -0.865355)
(-0.896447 0.037667 -0.846743)
(-0.851048 0.0234455 -0.803441)
(-0.921994 0.0405793 -0.880854)
(-0.544867 0.150471 -0.695997)
(-0.541909 0.15573 -0.682861)
(-0.551122 0.171434 -0.679917)
(-0.482709 0.195993 -0.656008)
(-0.558602 0.131361 -0.71726)
(-0.559487 0.139581 -0.708511)
(-0.488257 0.184124 -0.68377)
(-0.532783 0.163652 -0.700867)
(-0.528339 0.189987 -0.662999)
(-0.469684 0.219314 -0.643391)
(-0.452074 0.208955 -0.640618)
(-0.570525 0.132198 -0.719769)
(-0.497443 0.158364 -0.706618)
(-0.482455 0.157997 -0.686973)
(-0.449099 0.222094 -0.637065)
(-0.444058 0.217132 -0.64087)
(-0.474062 0.165655 -0.685221)
(-0.441663 0.200518 -0.643649)
(-0.547104 0.193976 -0.336278)
(-0.555056 0.158697 -0.375982)
(-0.565261 0.179044 -0.362283)
(-0.563464 0.21923 -0.324678)
(-0.561166 0.217341 -0.342901)
(-0.562593 0.189077 -0.380284)
(-0.575926 0.187222 -0.375311)
(-0.56996 0.214822 -0.35981)
(-0.610152 0.120439 -0.499476)
(-0.5939 0.218479 -0.484799)
(-0.602129 0.153162 -0.478502)
(-0.580689 0.23022 -0.475376)
(-0.603357 0.165163 -0.530945)
(-0.59653 0.161197 -0.4947)
(-0.592118 0.177567 -0.494841)
(-0.581687 0.172873 -0.487162)
(-0.569927 0.230547 -0.388486)
(-0.56494 0.218536 -0.403639)
(-0.578641 0.249337 -0.41387)
(-0.575806 0.225143 -0.471202)
(-0.566396 0.258279 -0.380194)
(-0.644539 0.0486721 -0.670683)
(-0.614548 0.0527362 -0.636402)
(-0.584133 0.0498458 -0.596675)
(-0.631331 0.0558583 -0.643084)
(-0.833368 0.0127435 -0.852047)
(-0.845977 0.0153971 -0.858987)
(-0.645378 0.0493648 -0.671887)
(-0.64902 0.0497783 -0.68446)
(-0.744567 0.0549081 -0.765142)
(-0.688443 0.0646619 -0.729795)
(-0.84185 0.0255696 -0.856481)
(-0.828694 0.036124 -0.843372)
(-0.739144 0.0602376 -0.779974)
(-0.690193 0.0500945 -0.73557)
(-0.762784 0.0484818 -0.814396)
(-0.796471 0.110271 -0.72309)
(-0.779442 0.112602 -0.706626)
(-0.684257 0.106162 -0.618904)
(-0.575388 0.0837719 -0.495007)
(-0.562064 0.087612 -0.498562)
(-0.757198 0.111212 -0.687614)
(-0.667206 0.0786395 -0.580434)
(-0.573034 0.0729953 -0.483207)
(-0.721099 0.08903 -0.636865)
(-0.679331 0.0746143 -0.617084)
(-0.59253 0.0718063 -0.524039)
(-0.719059 0.100378 -0.656028)
(-0.883383 0.200783 -0.815962)
(-0.856757 0.20894 -0.807292)
(-0.894004 0.163198 -0.815302)
(-0.889097 0.176013 -0.813161)
(-0.872462 0.188537 -0.812349)
(-0.849175 0.207913 -0.800458)
(-0.839251 0.169944 -0.796864)
(-0.857949 0.167389 -0.809042)
(-0.876531 0.185945 -0.82669)
(-0.780931 0.207676 -0.806855)
(-0.779202 0.228578 -0.786212)
(-0.84478 0.184563 -0.816172)
(-0.833191 0.195326 -0.804112)
(-0.799224 0.195729 -0.802761)
(-0.771796 0.2084 -0.78289)
(-0.840835 0.176103 -0.80583)
(-0.793548 0.213663 -0.777296)
(-0.589476 0.284353 -0.704571)
(-0.620207 0.241435 -0.737867)
(-0.535948 0.307109 -0.67944)
(-0.508761 0.305146 -0.660919)
(-0.64283 0.244263 -0.750178)
(-0.611011 0.265944 -0.728079)
(-0.558015 0.274857 -0.70619)
(-0.592715 0.263795 -0.730182)
(-0.558103 0.261671 -0.711487)
(-0.521295 0.308466 -0.666933)
(-0.484826 0.301248 -0.635357)
(-0.604822 0.295511 -0.70284)
(-0.528613 0.28166 -0.687106)
(-0.53155 0.292643 -0.684557)
(-0.566167 0.275275 -0.704997)
(-0.51939 0.271448 -0.651421)
(-0.564459 0.287746 -0.696211)
(-0.506018 0.282512 -0.658398)
(-0.506551 0.371181 -0.172349)
(-0.481321 0.379881 -0.149618)
(-0.52064 0.345723 -0.175936)
(-0.530635 0.343626 -0.184241)
(-0.578573 0.386317 -0.331577)
(-0.588843 0.356924 -0.324448)
(-0.494736 0.404623 -0.203408)
(-0.478912 0.387066 -0.180826)
(-0.514895 0.364102 -0.166504)
(-0.524715 0.379985 -0.211386)
(-0.566012 0.338154 -0.225234)
(-0.564088 0.333523 -0.24675)
(-0.558368 0.400627 -0.280801)
(-0.570568 0.366082 -0.299879)
(-0.578078 0.392709 -0.300346)
(-0.527316 0.427603 -0.254017)
(-0.541125 0.426103 -0.245854)
(-0.591094 0.381538 -0.309821)
(-0.59455 0.34794 -0.313307)
(-0.510906 0.421644 -0.205918)
(-0.559174 0.364949 -0.257059)
(-0.582908 0.358385 -0.265173)
(-0.579747 0.333081 -0.260394)
(-0.533702 0.397249 -0.194218)
(-0.715871 0.327365 -0.72357)
(-0.714783 0.343938 -0.747508)
(-0.729836 0.294964 -0.712217)
(-0.740186 0.312968 -0.731716)
(-0.810575 0.246601 -0.760978)
(-0.805754 0.27392 -0.777662)
(-0.793013 0.300529 -0.779248)
(-0.820624 0.266479 -0.784585)
(-0.780333 0.245967 -0.725446)
(-0.813918 0.261364 -0.762696)
(-0.525118 0.450112 -0.219411)
(-0.488902 0.449614 -0.197996)
(-0.547092 0.459191 -0.248809)
(-0.519781 0.46899 -0.233948)
(-0.535764 0.451519 -0.24553)
(-0.514074 0.451626 -0.239341)
(-0.488641 0.460287 -0.22417)
(-0.530273 0.485125 -0.30154)
(-0.540744 0.464058 -0.268318)
(-0.590209 0.448221 -0.30979)
(-0.520016 0.48353 -0.290106)
(-0.484638 0.469627 -0.249519)
(-0.585493 0.42972 -0.296545)
(-0.573181 0.451046 -0.345408)
(-0.575122 0.445978 -0.315033)
(-0.546742 0.494292 -0.301102)
(-0.520305 0.487983 -0.291741)
(-0.538578 0.494091 -0.315614)
(-0.739276 0.268107 -0.724382)
(-0.751193 0.259465 -0.755532)
(-0.828674 0.271821 -0.79839)
(-0.848444 0.248446 -0.775308)
(-0.853844 0.209739 -0.794738)
(-0.836423 0.22802 -0.808995)
(-0.807021 0.250726 -0.774656)
(-0.850411 0.233375 -0.787907)
(-0.830333 0.232838 -0.777427)
(-0.858271 0.231707 -0.795108)
(-0.852379 0.261916 -0.795261)
(-0.783299 0.249376 -0.785563)
(-0.704852 0.0518252 -0.722113)
(-0.761823 0.0337321 -0.756799)
(-0.785755 0.0344524 -0.793643)
(-0.781274 0.03698 -0.790218)
(-0.696033 0.0380433 -0.687827)
(-0.809325 0.0231788 -0.807019)
(-0.776433 0.0337373 -0.803056)
(-0.751136 0.0551786 -0.7829)
(-0.758145 0.0165134 -0.775914)
(-0.765023 0.0277144 -0.780551)
(-0.36427 0.145358 -0.166929)
(-0.359067 0.14435 -0.149432)
(-0.373253 0.157239 -0.18792)
(-0.371041 0.162672 -0.174263)
(-0.394571 0.161521 -0.205148)
(-0.380236 0.166483 -0.188307)
(-0.43125 0.117117 -0.243349)
(-0.456944 0.121775 -0.276238)
(-0.452242 0.111854 -0.282124)
(-0.457685 0.112914 -0.299486)
(-0.396472 0.125594 -0.199392)
(-0.353016 0.157651 -0.153138)
(-0.410909 0.168096 -0.208024)
(-0.411684 0.123797 -0.191146)
(-0.386805 0.127716 -0.162614)
(-0.42323 0.148361 -0.252968)
(-0.429375 0.158184 -0.239479)
(-0.38477 0.16897 -0.178904)
(-0.454268 0.129758 -0.265281)
(-0.456713 0.140513 -0.282121)
(-0.398423 0.150063 -0.181465)
(-0.574463 0.475037 -0.386006)
(-0.591989 0.466061 -0.414786)
(-0.54422 0.485522 -0.348395)
(-0.528467 0.510351 -0.311338)
(-0.575251 0.474565 -0.467765)
(-0.523967 0.503243 -0.417735)
(-0.579517 0.497103 -0.448589)
(-0.544232 0.512606 -0.427321)
(-0.592104 0.49566 -0.437327)
(-0.570812 0.507586 -0.40479)
(-0.594483 0.477265 -0.422857)
(-0.581746 0.477104 -0.432573)
(-0.522591 0.513404 -0.336006)
(-0.503234 0.515275 -0.388731)
(-0.567736 0.499994 -0.408576)
(-0.520867 0.51007 -0.377064)
(-0.5149 0.510334 -0.36972)
(-0.50468 0.514262 -0.369949)
(-0.505782 0.515085 -0.346736)
(-0.488445 0.522532 -0.309685)
(-0.524535 0.526364 -0.392912)
(-0.487027 0.515657 -0.34423)
(-0.746209 0.010792 -0.784241)
(-0.733227 0.0233413 -0.771139)
(-0.752301 0.0195831 -0.799205)
(-0.782027 -0.00534733 -0.825712)
(-0.794611 -0.0108332 -0.824124)
(-0.773923 0.0113413 -0.805742)
(-0.870594 -0.00142332 -0.863104)
(-0.882568 -0.0029691 -0.894408)
(-0.873485 -0.0204091 -0.872788)
(-0.771978 0.0242554 -0.833634)
(-0.851755 -0.00137635 -0.860979)
(-0.851499 -0.0125638 -0.873894)
(-0.81226 0.0160185 -0.852592)
(-0.822821 -0.00204844 -0.863479)
(-0.565733 0.0237349 -0.564218)
(-0.516831 0.026455 -0.496182)
(-0.494122 0.0250967 -0.471951)
(-0.456272 0.0198764 -0.40884)
(-0.528428 0.0194976 -0.521293)
(-0.48613 0.0221562 -0.444742)
(-0.472932 0.0279011 -0.412515)
(-0.584595 0.0157031 -0.591362)
(-0.562645 0.0156772 -0.549822)
(-0.552502 0.0146303 -0.544271)
(-0.551306 0.0165154 -0.539982)
(-0.546718 0.0220913 -0.511122)
(-0.500924 0.0264753 -0.444397)
(-0.48409 0.0194286 -0.455858)
(-0.48565 0.0221965 -0.447202)
(-0.443346 0.0248877 -0.351123)
(-0.543182 0.0212322 -0.505783)
(-0.478991 0.0191262 -0.408915)
(-0.47623 0.0158629 -0.413737)
(-0.472285 0.0228958 -0.400839)
(-0.890337 0.157714 -0.771646)
(-0.880078 0.165012 -0.76604)
(-0.833543 0.178424 -0.730005)
(-0.834585 0.190508 -0.743432)
(-0.853635 0.133167 -0.761257)
(-0.910897 0.132341 -0.806149)
(-0.817407 0.176497 -0.722407)
(-0.820232 0.169567 -0.724217)
(-0.88974 0.164702 -0.77826)
(-0.904839 0.14898 -0.790313)
(-0.87549 0.140116 -0.768854)
(-0.877893 0.139456 -0.782893)
(-0.857409 0.144569 -0.760516)
(-0.839185 0.15408 -0.735585)
(-0.800741 0.14768 -0.702081)
(-0.819229 0.141747 -0.723423)
(-0.775552 0.148425 -0.696983)
(-0.893208 0.144254 -0.784336)
(-0.86282 0.162585 -0.775842)
(-0.861624 0.162788 -0.773325)
(-0.66912 0.241434 -0.55355)
(-0.651971 0.247067 -0.547461)
(-0.617256 0.266438 -0.45979)
(-0.631434 0.273166 -0.481808)
(-0.724835 0.252999 -0.62415)
(-0.676392 0.231938 -0.555205)
(-0.608876 0.234738 -0.478465)
(-0.617717 0.22226 -0.476707)
(-0.638976 0.296226 -0.457635)
(-0.62318 0.280646 -0.443557)
(-0.64996 0.242492 -0.480048)
(-0.699175 0.268045 -0.593723)
(-0.605609 0.21189 -0.488606)
(-0.680493 0.248192 -0.5628)
(-0.614544 0.213127 -0.473219)
(-0.654861 0.268307 -0.477652)
(-0.648018 0.316894 -0.489654)
(-0.638036 0.266574 -0.535169)
(-0.606018 0.281675 -0.168634)
(-0.615917 0.286729 -0.16636)
(-0.636411 0.341945 -0.222383)
(-0.638624 0.339418 -0.20846)
(-0.603324 0.235805 -0.224659)
(-0.593732 0.261384 -0.168651)
(-0.596388 0.235867 -0.177748)
(-0.616329 0.297597 -0.166962)
(-0.635337 0.319422 -0.256494)
(-0.616711 0.255645 -0.242394)
(-0.829609 -0.00999437 -0.837308)
(-0.782794 0.00733341 -0.834717)
(-0.798844 0.00110243 -0.853278)
(-0.811711 -0.0049133 -0.846026)
(-0.832377 -0.00978302 -0.8471)
(-0.846825 0.00829594 -0.857814)
(-0.808579 0.0130576 -0.839638)
(-0.879367 -0.00834632 -0.865252)
(-0.869692 -0.000845545 -0.862762)
(-0.798354 -0.0143395 -0.786301)
(-0.788013 -0.00133586 -0.806938)
(-0.796295 0.00328263 -0.793606)
(-0.760568 -0.00854913 -0.75961)
(-0.705488 0.00571245 -0.700636)
(-0.689395 0.0334361 -0.677006)
(-0.730876 -0.00589043 -0.745781)
(-0.754004 -0.00716951 -0.776656)
(-0.62767 0.022573 -0.642)
(-0.627578 0.047623 -0.649902)
(-0.67782 0.00552688 -0.662186)
(-0.621142 0.0301688 -0.609813)
(-0.637958 0.0210497 -0.641561)
(-0.680444 0.0186568 -0.700324)
(-0.65227 0.0261633 -0.680142)
(-0.646268 0.0327469 -0.672916)
(-0.63768 0.0343786 -0.644637)
(-0.648898 0.0492284 -0.663832)
(-0.902248 0.0919962 -0.825105)
(-0.779284 0.0984457 -0.708456)
(-0.838842 0.0922202 -0.770782)
(-0.855642 0.0926864 -0.771118)
(-0.858768 0.105583 -0.758754)
(-0.849205 0.111694 -0.761761)
(-0.826327 0.0919097 -0.737737)
(-0.835836 0.0822719 -0.753674)
(-0.872746 0.0745683 -0.781426)
(-0.892452 0.0760595 -0.808978)
(-0.849801 0.0943737 -0.765999)
(-0.821708 0.0809629 -0.745155)
(-0.855476 0.0942936 -0.76631)
(-0.879392 0.0825227 -0.781359)
(-0.614372 0.355621 -0.463271)
(-0.606983 0.382773 -0.450901)
(-0.607295 0.33632 -0.413252)
(-0.622983 0.323906 -0.476223)
(-0.605688 0.355217 -0.485798)
(-0.617906 0.368795 -0.45581)
(-0.619813 0.383037 -0.484834)
(-0.619593 0.319634 -0.498819)
(-0.637475 0.360726 -0.550583)
(-0.62535 0.348704 -0.430417)
(-0.613788 0.320962 -0.487994)
(-0.617824 0.258537 -0.475684)
(-0.616831 0.261826 -0.478778)
(-0.618555 0.267212 -0.493616)
(-0.586096 0.0775545 -0.421599)
(-0.648716 0.0878659 -0.516693)
(-0.64893 0.0997667 -0.520999)
(-0.62948 0.0935208 -0.489773)
(-0.585377 0.0853482 -0.441954)
(-0.55429 0.0748369 -0.384718)
(-0.554342 0.0886449 -0.402864)
(-0.7027 0.0876225 -0.595681)
(-0.656037 0.0827677 -0.551122)
(-0.701901 0.0936282 -0.623983)
(-0.697917 0.0841292 -0.619983)
(-0.714819 0.0967233 -0.632194)
(-0.726865 0.108994 -0.640989)
(-0.653343 0.108572 -0.50775)
(-0.700061 0.118858 -0.557697)
(-0.680017 0.115297 -0.573006)
(-0.624137 0.100715 -0.487676)
(-0.68891 0.0817739 -0.591106)
(-0.639742 0.0834453 -0.518276)
(-0.703023 0.096676 -0.610992)
(-0.484353 0.0827156 -0.32673)
(-0.491213 0.0859471 -0.344612)
(-0.454616 0.121007 -0.252441)
(-0.483886 0.0884054 -0.366095)
(-0.505124 0.0631284 -0.409104)
(-0.511081 0.0623603 -0.38239)
(-0.425359 0.0903607 -0.244698)
(-0.409037 0.108923 -0.207633)
(-0.521023 0.0567918 -0.413744)
(-0.538634 0.0596551 -0.435085)
(-0.465115 0.0810558 -0.329868)
(-0.497893 0.0691663 -0.370933)
(-0.466096 0.0778557 -0.345941)
(-0.608205 0.448384 -0.45122)
(-0.594974 0.472075 -0.465476)
(-0.589592 0.470298 -0.489742)
(-0.577437 0.472439 -0.448503)
(-0.609498 0.437024 -0.509251)
(-0.611209 0.398691 -0.479946)
(-0.599605 0.397909 -0.488701)
(-0.59861 0.440471 -0.508388)
(-0.583325 0.454182 -0.425659)
(-0.604392 0.404161 -0.469117)
(-0.454727 0.0703055 -0.192784)
(-0.440772 0.0789559 -0.164949)
(-0.456071 0.0730354 -0.191197)
(-0.460055 0.0588639 -0.203134)
(-0.456664 0.0857222 -0.176084)
(-0.468274 0.0805321 -0.187243)
(-0.463896 0.070031 -0.191846)
(-0.467608 0.0699333 -0.208255)
(-0.462812 0.0880545 -0.194277)
(-0.51374 0.105072 -0.270636)
(-0.498813 0.0874169 -0.250062)
(-0.480205 0.0524806 -0.259028)
(-0.516736 0.0615091 -0.306547)
(-0.554732 0.0967349 -0.371179)
(-0.555737 0.0725666 -0.383866)
(-0.540114 0.0720649 -0.330679)
(-0.561837 0.0952775 -0.390259)
(-0.57255 0.085676 -0.39283)
(-0.503457 0.100137 -0.227862)
(-0.530219 0.104591 -0.30344)
(-0.463666 0.144493 -0.335482)
(-0.449782 0.161551 -0.338527)
(-0.456328 0.135699 -0.272791)
(-0.439918 0.140734 -0.296812)
(-0.431001 0.133405 -0.248759)
(-0.382149 0.133482 -0.232401)
(-0.412586 0.143021 -0.277513)
(-0.370364 0.138005 -0.240396)
(-0.611217 0.301249 -0.232765)
(-0.592112 0.270657 -0.182322)
(-0.605769 0.251951 -0.294641)
(-0.621058 0.250539 -0.287098)
(-0.605833 0.252172 -0.290751)
(-0.608727 0.30067 -0.199179)
(-0.607718 0.263639 -0.232905)
(-0.599331 0.242722 -0.212762)
(-0.608273 0.277688 -0.227316)
(-0.619722 0.309888 -0.235326)
(-0.585544 0.233127 -0.17791)
(-0.608839 0.238947 -0.233776)
(-0.541869 0.243922 -0.0995312)
(-0.545518 0.233053 -0.123567)
(-0.539588 0.263519 -0.113372)
(-0.568175 0.269824 -0.148113)
(-0.564599 0.307605 -0.133534)
(-0.517547 0.248049 -0.101961)
(-0.608949 0.310504 -0.181099)
(-0.582391 0.228325 -0.167965)