/*--------------------------------*- C++ -*----------------------------------*\
| =========                 |                                                 |
| \\      /  F ield         | OpenFOAM: The Open Source CFD Toolbox           |
|  \\    /   O peration     | Version:  v1612+                                |
|   \\  /    A nd           | Web:      www.OpenFOAM.com                      |
|    \\/     M anipulation  |                                                 |
\*---------------------------------------------------------------------------*/
FoamFile
{
    version     2.0;
    format      ascii;
    class       volScalarField;
    location    "200";
    object      p;
}
// * * * * * * * * * * * * * * * * * * * * * * * * * * * * * * * * * * * * * //

dimensions      [0 2 -2 0 0 0 0];

internalField   nonuniform List<scalar> 
16940
(
2.73446
2.71794
2.67735
2.75559
2.75994
2.74393
2.75226
2.74778
2.76105
2.75989
2.76988
2.75579
2.75449
2.76509
2.7709
2.77447
2.77401
2.76538
2.75828
2.76109
2.76715
2.7361
2.74731
2.75436
2.75545
2.73648
2.74645
2.74555
2.73919
2.74674
2.754
2.74523
2.74291
2.75214
2.74845
2.64648
2.64179
2.64085
2.63762
2.64414
2.63908
2.63667
2.6359
2.65037
2.64717
2.77402
2.77586
2.77721
2.76786
2.77929
2.78071
2.77759
2.77747
2.77932
2.76517
2.77473
2.7705
2.78191
2.78239
2.77057
2.77641
2.77178
2.77823
2.65892
2.654
2.6504
2.65447
2.6563
2.6575
2.65283
2.65338
2.65782
2.65983
2.65619
2.65955
2.64709
2.66146
2.64895
2.6593
2.65915
2.65314
2.64979
2.65117
2.66428
2.65869
2.65905
2.66061
2.60158
2.60799
2.61322
2.60955
2.60364
2.60244
2.6086
2.60131
2.61094
2.61682
2.61287
2.60086
2.6054
2.60421
2.60468
2.60782
2.60881
2.61233
2.71484
2.71339
2.71638
2.7251
2.7214
2.71835
2.71196
2.71491
2.71713
2.72367
2.71256
2.71414
2.71037
2.7258
2.71467
2.71594
2.71541
2.71947
2.72427
2.70689
2.70395
2.69757
2.70264
2.70963
2.70685
2.70792
2.69524
2.70367
2.69546
2.71512
2.72029
2.70762
2.70835
2.70634
2.70826
2.70838
2.70091
2.75339
2.74684
2.73759
2.74326
2.75259
2.76028
2.75923
2.7619
2.74436
2.74947
2.7593
2.75855
2.7463
2.75567
2.75869
2.75064
2.7497
2.75834
2.68976
2.67825
2.6947
2.66196
2.67134
2.68039
2.68235
2.66773
2.65665
2.67544
2.6572
2.66693
2.80529
2.80176
2.79803
2.80214
2.7998
2.79241
2.79858
2.79559
2.80255
2.79891
2.80162
2.79519
2.79452
2.7247
2.7361
2.7308
2.72346
2.73337
2.7432
2.73533
2.74749
2.7495
2.73939
2.72361
2.73739
2.73199
2.72896
2.72682
2.72626
2.71904
2.71513
2.72363
2.72027
2.72926
2.72534
2.72063
2.72213
2.73326
2.73536
2.7274
2.72634
2.72899
2.73054
2.73423
2.73797
2.7
2.69769
2.71828
2.72256
2.72508
2.7272
2.70396
2.70953
2.70269
2.70621
2.72248
2.72353
2.71954
2.71444
2.71479
2.71754
2.71353
2.77294
2.76359
2.77572
2.78
2.77179
2.76556
2.7794
2.77821
2.77352
2.77737
2.77148
2.78096
2.77215
2.77857
2.70757
2.71388
2.70824
2.70923
2.70826
2.70805
2.71025
2.71153
2.70976
2.71465
2.72243
2.71878
2.71726
2.71682
2.72432
2.71693
2.72179
2.72569
2.67828
2.68438
2.69161
2.67835
2.69266
2.69796
2.69045
2.68297
2.70435
2.68199
2.68839
2.69654
2.70343
2.70366
2.69091
2.70857
2.77676
2.77532
2.76028
2.75937
2.77442
2.76364
2.76358
2.75904
2.76769
2.7666
2.66344
2.65683
2.65325
2.65525
2.6576
2.67602
2.67321
2.65908
2.66151
2.67199
2.67019
2.6554
2.66787
2.67312
2.65832
2.66818
2.66265
2.67253
2.66633
2.78089
2.77823
2.77667
2.77472
2.7691
2.7759
2.76561
2.76867
2.77064
2.76806
2.76998
2.76377
2.76878
2.76665
2.77083
2.76251
2.76478
2.76234
2.7564
2.75792
2.7526
2.75185
2.76439
2.75852
2.7684
2.75891
2.75123
2.76507
2.7629
2.76862
2.76542
2.75946
2.76655
2.76959
2.7678
2.62376
2.63306
2.63248
2.62624
2.62212
2.62897
2.63119
2.62701
2.62302
2.62144
2.61598
2.61595
2.62395
2.62127
2.62044
2.62025
2.61591
2.61779
2.67279
2.6733
2.67558
2.67417
2.66662
2.66961
2.67641
2.66866
2.66009
2.65788
2.65609
2.66223
2.67561
2.66419
2.60691
2.60676
2.61655
2.61079
2.61548
2.60742
2.619
2.61177
2.60302
2.62267
2.7234
2.71867
2.72638
2.72217
2.72859
2.72505
2.72898
2.72724
2.72944
2.73433
2.7292
2.73287
2.73085
2.73427
2.73273
2.73872
2.63318
2.64081
2.65336
2.6501
2.63629
2.63908
2.64636
2.64573
2.63819
2.64611
2.64439
2.65037
2.64064
2.63779
2.64048
2.64255
2.64323
2.63605
2.64865
2.64821
2.65351
2.64658
2.6401
2.6441
2.64974
2.65194
2.64615
2.65542
2.64497
2.65395
2.64165
2.65962
2.66415
2.65432
2.66306
2.65443
2.66028
2.66038
2.64976
2.66658
2.66738
2.76115
2.75888
2.76174
2.75511
2.76287
2.77479
2.76853
2.79236
2.7944
2.78851
2.79285
2.79433
2.78912
2.79112
2.78219
2.78589
2.78862
2.78478
2.7821
2.79488
2.79144
2.79037
2.78937
2.78534
2.78663
2.79017
2.79289
2.71559
2.71558
2.71487
2.70715
2.71334
2.71807
2.70835
2.70954
2.70478
2.70422
2.71235
2.69771
2.71477
2.70694
2.70073
2.69628
2.636
2.63628
2.62941
2.65325
2.6392
2.63946
2.65566
2.65432
2.64042
2.64301
2.64035
2.65315
2.63541
2.63404
2.6349
2.63453
2.64721
2.6346
2.63146
2.65719
2.77027
2.7685
2.7706
2.77095
2.7626
2.77225
2.7665
2.76407
2.76943
2.76896
2.7573
2.75698
2.75913
2.75641
2.76632
2.76223
2.76787
2.76754
2.76925
2.7615
2.75573
2.76322
2.71925
2.71845
2.71149
2.72445
2.72021
2.71772
2.72668
2.72628
2.72729
2.7172
2.72493
2.70999
2.70973
2.70893
2.71085
2.7096
2.72739
2.72139
2.71085
2.71175
2.71075
2.71618
2.71335
2.7262
2.71449
2.70896
2.71817
2.70544
2.69969
2.71265
2.71399
2.70709
2.69331
2.70255
2.71448
2.69329
2.70692
2.70111
2.71307
2.71664
2.71567
2.72121
2.71213
2.71575
2.701
2.70134
2.7149
2.70484
2.70683
2.70433
2.70514
2.69671
2.70015
2.70882
2.71336
2.71286
2.70663
2.71861
2.71727
2.69937
2.70221
2.71231
2.7098
2.7164
2.71995
2.69405
2.7021
2.70937
2.7
2.70939
2.70182
2.70891
2.71706
2.71247
2.70335
2.71122
2.71589
2.71511
2.7224
2.70342
2.69378
2.70925
2.70562
2.70329
2.69199
2.7073
2.75363
2.74725
2.76252
2.75646
2.76203
2.75905
2.7564
2.75981
2.74406
2.74816
2.74983
2.74161
2.74149
2.75721
2.75109
2.75543
2.75323
2.7528
2.74791
2.756
2.75365
2.7105
2.71395
2.72208
2.72
2.72339
2.72237
2.71417
2.71795
2.71158
2.73618
2.73048
2.73128
2.71883
2.71573
2.73811
2.72619
2.74185
2.75801
2.75662
2.75797
2.76576
2.7545
2.77071
2.76354
2.75881
2.76112
2.76313
2.74968
2.7483
2.76083
2.75265
2.76098
2.75887
2.77543
2.75904
2.73653
2.74499
2.74073
2.73958
2.73513
2.74597
2.74092
2.74956
2.73398
2.74814
2.75724
2.75539
2.75807
2.74917
2.76901
2.78275
2.78163
2.7758
2.77934
2.77715
2.78009
2.76939
2.77065
2.76355
2.76624
2.76285
2.76529
2.76592
2.75769
2.76632
2.77338
2.76652
2.77062
2.76966
2.76754
2.7633
2.76694
2.7728
2.78394
2.77997
2.78159
2.78687
2.79002
2.7899
2.7876
2.78802
2.79576
2.78851
2.79316
2.79199
2.79298
2.79193
2.79357
2.79726
2.78466
2.78895
2.79701
2.79141
2.77977
2.78056
2.78167
2.78612
2.78419
2.78557
2.78383
2.77588
2.77554
2.77351
2.77494
2.77882
2.78692
2.77656
2.77191
2.77164
2.77435
2.78108
2.77473
2.7747
2.64471
2.6424
2.64248
2.64344
2.64752
2.64173
2.65752
2.65302
2.64847
2.63952
2.64228
2.65099
2.64716
2.74006
2.73711
2.74796
2.74347
2.71012
2.70801
2.7269
2.73036
2.74314
2.74193
2.74404
2.72057
2.71558
2.71759
2.72719
2.73
2.73403
2.73009
2.73814
2.7395
2.7212
2.72348
2.7412
2.74259
2.73166
2.73919
2.72605
2.72141
2.73921
2.72844
2.72712
2.74472
2.74479
2.72483
2.73368
2.72464
2.73234
2.72746
2.73196
2.73458
2.75462
2.75558
2.76281
2.76279
2.75828
2.75804
2.74785
2.75405
2.74309
2.75613
2.74613
2.75154
2.75781
2.74912
2.75451
2.62193
2.60532
2.61663
2.60895
2.61088
2.61413
2.61206
2.61559
2.61187
2.62262
2.62299
2.61328
2.62536
2.62532
2.62401
2.62222
2.73964
2.7383
2.74545
2.74816
2.75687
2.7497
2.74846
2.74238
2.7507
2.76121
2.75925
2.75846
2.76205
2.74695
2.75953
2.76457
2.75576
2.63435
2.63966
2.64041
2.63917
2.6345
2.64545
2.63567
2.63521
2.64354
2.64464
2.64816
2.63224
2.64683
2.62831
2.75966
2.75489
2.7625
2.75659
2.74689
2.75577
2.7476
2.74387
2.76333
2.75976
2.76335
2.75595
2.59118
2.58939
2.59211
2.58625
2.59175
2.59351
2.6017
2.60725
2.6067
2.60218
2.61842
2.61703
2.61148
2.64975
2.65103
2.61879
2.60982
2.60997
2.61099
2.62031
2.62807
2.62737
2.68863
2.67975
2.67975
2.7666
2.75784
2.75766
2.76623
2.62471
2.62053
2.61824
2.61407
2.71467
2.71702
2.75899
2.75734
2.69176
2.67534
2.67584
2.68366
2.67923
2.6413
2.63724
2.63255
2.62759
2.74867
2.74242
2.74147
2.76496
2.76323
2.7661
2.71498
2.70542
2.70329
2.74031
2.73603
2.72812
2.63675
2.63113
2.64024
2.63641
2.67007
2.67019
2.64457
2.64189
2.73345
2.73343
2.75711
2.7557
2.76008
2.63525
2.63877
2.63162
2.63369
2.76971
2.77005
2.7744
2.76952
2.69578
2.69047
2.77666
2.7787
2.73485
2.73361
2.64914
2.65637
2.65144
2.65387
2.7627
2.7637
2.71056
2.71043
2.64331
2.64592
2.65132
2.70621
2.70518
2.69713
2.67355
2.67069
2.76652
2.76013
2.75479
2.75667
2.68328
2.67387
2.67962
2.73839
2.7346
2.73595
2.77304
2.78005
2.77311
2.73718
2.73851
2.65635
2.66464
2.66275
2.71697
2.7172
2.67953
2.6858
2.68858
2.76636
2.7648
2.75912
2.78804
2.78531
2.67867
2.67596
2.67329
2.7413
2.74122
2.78175
2.78183
2.79034
2.7802
2.78723
2.6833
2.68119
2.69177
2.71422
2.71291
2.72858
2.72803
2.72185
2.79158
2.79168
2.77274
2.77338
2.7801
2.77915
2.69132
2.68953
2.68554
2.79329
2.79069
2.78882
2.78523
2.70665
2.7058
2.78289
2.7854
2.78026
2.74724
2.74612
2.73666
2.68852
2.69523
2.69221
2.80775
2.80322
2.80688
2.80896
2.80138
2.75971
2.75766
2.75947
2.76007
2.76152
2.7731
2.76894
2.7708
2.79553
2.80566
2.80486
2.80758
2.80889
2.80583
2.80383
2.75813
2.768
2.76471
2.7709
2.75669
2.78419
2.78509
2.77036
2.76845
2.77355
2.76534
2.77195
2.76598
2.7621
2.69742
2.69406
2.69466
2.70427
2.70785
2.70398
2.73562
2.73966
2.76812
2.77406
2.77473
2.74808
2.75782
2.75505
2.74762
2.69048
2.70496
2.69322
2.69378
2.70193
2.7051
2.7145
2.72138
2.71864
2.71155
2.71076
2.70025
2.70535
2.70634
2.7106
2.69163
2.7082
2.69852
2.70077
2.71516
2.7168
2.71637
2.70932
2.71136
2.80406
2.7996
2.80444
2.80596
2.80756
2.80041
2.79814
2.79755
2.80812
2.80453
2.8039
2.80253
2.80132
2.80912
2.80387
2.8072
2.80794
2.6899
2.67909
2.68342
2.69079
2.68972
2.68539
2.68752
2.691
2.69445
2.68434
2.69042
2.74278
2.74623
2.74346
2.73017
2.73118
2.73423
2.73973
2.71987
2.72791
2.75312
2.75162
2.75017
2.76908
2.77163
2.76357
2.77436
2.78901
2.79502
2.78896
2.77145
2.7665
2.76473
2.75905
2.75788
2.77542
2.77464
2.79719
2.79645
2.79609
2.7868
2.78375
2.78809
2.69311
2.70528
2.69587
2.69858
2.68833
2.69402
2.6989
2.70603
2.70686
2.70234
2.72232
2.73077
2.71307
2.70861
2.70884
2.71418
2.73068
2.72606
2.7178
2.71772
2.7174
2.79661
2.7925
2.79272
2.78431
2.77834
2.77719
2.78513
2.78315
2.78916
2.78254
2.77916
2.78249
2.78266
2.77473
2.7739
2.7778
2.77703
2.78587
2.78599
2.794
2.79428
2.79338
2.79001
2.68786
2.68561
2.66948
2.68667
2.68461
2.68661
2.67985
2.68553
2.69709
2.69366
2.68867
2.69318
2.69487
2.70128
2.68834
2.69619
2.6905
2.69643
2.75814
2.75889
2.7665
2.77193
2.7781
2.77421
2.77084
2.75754
2.76649
2.77607
2.75593
2.76792
2.77365
2.77438
2.76603
2.76465
2.76605
2.76472
2.76229
2.76082
2.75699
2.76515
2.76564
2.79809
2.79327
2.79454
2.79406
2.77892
2.78012
2.78853
2.77957
2.78398
2.78835
2.78678
2.7899
2.78894
2.78739
2.78638
2.79504
2.79174
2.791
2.78727
2.78409
2.78419
2.78615
2.79958
2.80066
2.79443
2.79992
2.8046
2.79607
2.79602
2.79483
2.80402
2.79864
2.7908
2.79051
2.78973
2.78613
2.78696
2.69738
2.70401
2.70399
2.71929
2.71975
2.71817
2.74357
2.73337
2.72289
2.72594
2.73522
2.72819
2.73515
2.72224
2.72332
2.72441
2.71985
2.74065
2.75684
2.74296
2.73678
2.73925
2.73772
2.69179
2.69231
2.72024
2.71441
2.71649
2.67186
2.67819
2.66766
2.68026
2.67317
2.68179
2.6792
2.68316
2.67862
2.6729
2.68139
2.77359
2.77451
2.77654
2.78513
2.79443
2.79144
2.78591
2.79711
2.79295
2.78346
2.78454
2.75755
2.76129
2.77461
2.77829
2.7683
2.78091
2.78081
2.76929
2.77415
2.76335
2.77141
2.77601
2.77064
2.7742
2.77653
2.78005
2.77805
2.70838
2.71607
2.70925
2.74744
2.73832
2.74292
2.73848
2.75224
2.73703
2.73254
2.72221
2.72302
2.73135
2.73555
2.72874
2.71811
2.72778
2.72735
2.72898
2.72983
2.72689
2.72471
2.71629
2.71506
2.74808
2.74819
2.75537
2.75872
2.75078
2.74952
2.75871
2.76069
2.75689
2.75023
2.74681
2.74944
2.74727
2.7452
2.75193
2.7485
2.66736
2.67209
2.67332
2.67377
2.66681
2.68134
2.674
2.67013
2.67786
2.6765
2.68195
2.66595
2.67124
2.68255
2.68078
2.67673
2.68796
2.69024
2.6901
2.67856
2.68254
2.77643
2.77951
2.77634
2.78651
2.78756
2.78443
2.78488
2.78592
2.78226
2.78837
2.77796
2.7785
2.78528
2.78151
2.79172
2.79111
2.78167
2.78667
2.78597
2.78948
2.7823
2.78219
2.78721
2.78192
2.78557
2.78364
2.74441
2.75341
2.75846
2.74557
2.74389
2.75012
2.74052
2.76048
2.75548
2.75382
2.75497
2.75691
2.75754
2.77049
2.76066
2.76181
2.75969
2.76189
2.75861
2.76762
2.77009
2.77443
2.77307
2.76963
2.76709
2.76798
2.69945
2.71252
2.69741
2.69523
2.71125
2.71081
2.69421
2.70067
2.68759
2.69798
2.70381
2.69998
2.69653
2.68949
2.68789
2.65926
2.6692
2.66755
2.676
2.68319
2.68362
2.68324
2.69257
2.69341
2.68583
2.67967
2.67495
2.67708
2.67828
2.67522
2.74326
2.7525
2.74426
2.75105
2.70647
2.70252
2.71305
2.70644
2.70182
2.74121
2.72595
2.72633
2.72285
2.65981
2.65396
2.66076
2.65442
2.65246
2.65584
2.64946
2.65781
2.65878
2.6596
2.65922
2.66658
2.6617
2.66658
2.65968
2.65749
2.66623
2.66755
2.66083
2.66155
2.65689
2.65975
2.67259
2.67536
2.71843
2.72827
2.72806
2.72977
2.72797
2.72681
2.7288
2.7275
2.77202
2.77435
2.75688
2.76662
2.76559
2.77275
2.76629
2.77114
2.77491
2.76781
2.77808
2.77841
2.76848
2.77228
2.76742
2.76973
2.77665
2.76897
2.77783
2.78657
2.79219
2.78422
2.78461
2.78253
2.77739
2.77549
2.77897
2.77897
2.68516
2.6981
2.70179
2.68913
2.7012
2.71243
2.70951
2.7252
2.72388
2.72558
2.71521
2.71066
2.72488
2.72652
2.73706
2.73189
2.74806
2.74254
2.73235
2.74007
2.73728
2.7391
2.73195
2.68127
2.68315
2.67663
2.66568
2.67848
2.67617
2.67522
2.67137
2.6602
2.66698
2.66985
2.66529
2.6587
2.66303
2.68839
2.69515
2.6912
2.75006
2.74835
2.7558
2.75328
2.65004
2.65729
2.64246
2.65989
2.67359
2.67663
2.67925
2.68419
2.67314
2.67782
2.68328
2.67709
2.67818
2.68438
2.66673
2.66978
2.66548
2.66982
2.66445
2.69099
2.67501
2.6811
2.68313
2.67675
2.68919
2.68889
2.69453
2.6908
2.69751
2.68021
2.68012
2.6839
2.68911
2.69637
2.69267
2.68458
2.68071
2.68002
2.67867
2.67275
2.67587
2.67464
2.67836
2.67797
2.70646
2.72355
2.70893
2.7054
2.69875
2.69314
2.69688
2.68531
2.63421
2.63676
2.64418
2.6563
2.64364
2.65202
2.65407
2.6515
2.65224
2.65353
2.65738
2.6565
2.65845
2.65787
2.65845
2.65853
2.65957
2.65985
2.64834
2.64927
2.64644
2.65472
2.65148
2.65548
2.65828
2.65561
2.74546
2.74566
2.74103
2.71089
2.70837
2.71569
2.70766
2.67921
2.68521
2.69404
2.7051
2.69607
2.68385
2.67143
2.69448
2.70556
2.76341
2.76267
2.77045
2.7594
2.75506
2.75859
2.76525
2.74904
2.75602
2.75374
2.75461
2.76808
2.76404
2.76007
2.75309
2.7492
2.75298
2.75596
2.75565
2.75485
2.64283
2.64944
2.64897
2.64583
2.65123
2.64366
2.64196
2.64188
2.64845
2.65049
2.66256
2.66725
2.67629
2.66464
2.65934
2.66985
2.66168
2.66537
2.65682
2.65349
2.66056
2.65978
2.70914
2.72172
2.72296
2.7099
2.70608
2.72232
2.72309
2.73445
2.73405
2.732
2.73741
2.73815
2.7337
2.74314
2.74795
2.7494
2.73914
2.73602
2.73402
2.73918
2.73642
2.72605
2.71933
2.7255
2.72636
2.72281
2.7246
2.7298
2.72745
2.74239
2.73209
2.73412
2.74276
2.74406
2.77966
2.7763
2.7712
2.77341
2.77235
2.768
2.76659
2.77439
2.77794
2.77892
2.77604
2.77575
2.77496
2.65833
2.65916
2.66612
2.69066
2.69321
2.69476
2.70576
2.70367
2.70574
2.7121
2.69147
2.69326
2.69833
2.69283
2.69395
2.69319
2.6917
2.70278
2.705
2.70574
2.7059
2.7597
2.76644
2.75693
2.75922
2.75787
2.76334
2.76673
2.77086
2.76286
2.76408
2.75864
2.76261
2.77239
2.77487
2.76222
2.62397
2.62644
2.63107
2.63096
2.62684
2.74518
2.74908
2.73503
2.74171
2.74434
2.7438
2.75307
2.75134
2.754
2.74653
2.75523
2.75059
2.74649
2.746
2.75472
2.7488
2.76683
2.77195
2.76955
2.77123
2.76702
2.76035
2.76408
2.75555
2.72056
2.73154
2.73623
2.62997
2.65236
2.65361
2.66301
2.66211
2.63848
2.638
2.63265
2.63791
2.63681
2.62551
2.62806
2.63557
2.63504
2.63324
2.62654
2.62684
2.62936
2.63424
2.71797
2.73155
2.73144
2.7202
2.70074
2.70122
2.74069
2.74522
2.73237
2.72703
2.72345
2.7389
2.73253
2.73976
2.73524
2.74083
2.73583
2.74671
2.74455
2.75122
2.70646
2.70357
2.70875
2.72012
2.72183
2.75909
2.7589
2.7496
2.75026
2.76186
2.7567
2.76446
2.76764
2.76012
2.75845
2.75658
2.75683
2.76106
2.75988
2.76712
2.76552
2.73918
2.74589
2.7415
2.7357
2.73596
2.73524
2.72676
2.73526
2.73596
2.73572
2.7392
2.74072
2.72871
2.72567
2.72997
2.72839
2.73756
2.73961
2.73374
2.7327
2.62468
2.61898
2.62288
2.62963
2.62521
2.63361
2.62409
2.63331
2.63512
2.62509
2.68482
2.69205
2.68172
2.67786
2.66102
2.67671
2.67663
2.69426
2.70368
2.68573
2.6869
2.6871
2.68777
2.68359
2.69306
2.67595
2.67871
2.65617
2.65973
2.63882
2.63823
2.65289
2.75261
2.72698
2.72366
2.71368
2.71794
2.73372
2.72559
2.60866
2.61041
2.6109
2.61545
2.61716
2.72072
2.72627
2.72978
2.72823
2.72137
2.72586
2.75348
2.75701
2.73901
2.7438
2.77027
2.76657
2.7643
2.77237
2.76531
2.76301
2.6382
2.65241
2.65459
2.65615
2.66468
2.66912
2.66918
2.68101
2.66608
2.66535
2.66094
2.61153
2.61781
2.6137
2.6171
2.62088
2.61597
2.61743
2.62532
2.62217
2.62459
2.62513
2.62905
2.62389
2.62108
2.62077
2.62862
2.62592
2.6442
2.63445
2.64833
2.62239
2.63623
2.63154
2.60048
2.60353
2.59734
2.60158
2.60886
2.60456
2.60328
2.61007
2.60789
2.60359
2.60956
2.61242
2.61014
2.60976
2.61788
2.61779
2.61662
2.6206
2.61199
2.61487
2.61704
2.618
2.62298
2.62366
2.62941
2.62359
2.6204
2.617
2.61908
2.6117
2.62218
2.62546
2.63038
2.61763
2.61598
2.62896
2.62687
2.61874
2.62803
2.64183
2.63828
2.63644
2.6409
2.63688
2.64138
2.65289
2.66772
2.66142
2.66516
2.65813
2.65613
2.66679
2.67208
2.66484
2.60313
2.60155
2.60928
2.61154
2.61857
2.61351
2.59448
2.59757
2.59601
2.60219
2.60453
2.5987
2.6021
2.62652
2.6325
2.62768
2.58358
2.59114
2.58836
2.59035
2.58263
2.59898
2.59567
2.59876
2.60516
2.59891
2.60348
2.60185
2.60346
2.6086
2.60745
2.61154
2.60708
2.60119
2.6053
2.60985
2.61009
2.60652
2.60619
2.60384
2.60451
2.60417
2.60559
2.59989
2.59093
2.58436
2.58923
2.58992
2.65188
2.63808
2.64581
2.65483
2.64318
2.63594
2.59807
2.5988
2.59239
2.59869
2.59471
2.59546
2.59597
2.60068
2.59114
2.5923
2.59602
2.59884
2.61685
2.62634
2.62898
2.6259
2.62067
2.6219
2.62518
2.62778
2.60115
2.60378
2.60852
2.61165
2.6095
2.61236
2.61252
2.61225
2.61677
2.60938
2.60271
2.60079
2.60458
2.6036
2.60704
2.60674
2.60675
2.61083
2.60434
2.59815
2.59651
2.62202
2.64757
2.65306
2.63049
2.63192
2.64405
2.63243
2.6353
2.62958
2.64136
2.63232
2.63229
2.63792
2.63408
2.62985
2.63316
2.64176
2.64081
2.62977
2.6282
2.6206
2.62098
2.62054
2.61763
2.61705
2.61131
2.61518
2.61435
2.71341
2.7228
2.71507
2.70242
2.68525
2.7032
2.69018
2.65565
2.65415
2.77296
2.7549
2.76499
2.76311
2.75894
2.7703
2.77061
2.74906
2.63577
2.63505
2.63928
2.64613
2.62233
2.64466
2.62755
2.61597
2.61719
2.63152
2.64392
2.64641
2.63435
2.6344
2.63173
2.63616
2.67148
2.67404
2.65675
2.65803
2.73487
2.73896
2.73407
2.77301
2.768
2.76405
2.76614
2.76037
2.76679
2.7642
2.75984
2.76106
2.77585
2.76961
2.76633
2.77307
2.76227
2.76406
2.76142
2.77463
2.76644
2.76537
2.76929
2.76458
2.71151
2.7063
2.71033
2.69556
2.695
2.69602
2.725
2.72351
2.72554
2.71843
2.72386
2.69181
2.70057
2.69847
2.69286
2.69373
2.69428
2.67239
2.67505
2.67379
2.67513
2.67463
2.62807
2.62194
2.62047
2.62079
2.62883
2.63188
2.63043
2.62314
2.62167
2.64677
2.64273
2.64076
2.63569
2.64048
2.63324
2.63059
2.64855
2.65028
2.64581
2.64093
2.66274
2.64488
2.65704
2.6543
2.64749
2.64323
2.64757
2.66482
2.66764
2.65537
2.61966
2.61934
2.62135
2.62485
2.62615
2.62713
2.62556
2.62823
2.61938
2.6184
2.62623
2.62087
2.6263
2.63487
2.63895
2.6376
2.63793
2.63473
2.74534
2.73699
2.74037
2.7511
2.74474
2.74389
2.73996
2.74518
2.74496
2.74395
2.74258
2.77668
2.77686
2.7709
2.76642
2.77374
2.76577
2.7602
2.75863
2.75802
2.76745
2.76053
2.76796
2.77209
2.64435
2.64476
2.64519
2.64164
2.64917
2.63955
2.64888
2.65254
2.64166
2.64054
2.66092
2.65365
2.65109
2.65554
2.6552
2.63152
2.63722
2.65101
2.64485
2.64065
2.64046
2.63822
2.65472
2.64465
2.64725
2.64835
2.6466
2.77914
2.77443
2.78448
2.77613
2.78074
2.77445
2.77035
2.77046
2.76927
2.77291
2.77871
2.77105
2.76997
2.76913
2.77411
2.77213
2.76487
2.76878
2.76766
2.76855
2.76395
2.7691
2.76943
2.77393
2.77394
2.77941
2.7826
2.78459
2.78954
2.78263
2.78094
2.77557
2.78093
2.78045
2.74673
2.75003
2.73946
2.74
2.75244
2.74106
2.74585
2.7456
2.72895
2.7292
2.73232
2.72608
2.72753
2.73662
2.72499
2.72492
2.73744
2.73899
2.74251
2.71885
2.72348
2.74507
2.74081
2.73307
2.72227
2.72974
2.73995
2.76741
2.75719
2.76128
2.74645
2.76926
2.76907
2.65647
2.63982
2.64877
2.65249
2.65191
2.64246
2.64254
2.64381
2.65134
2.65174
2.64907
2.67475
2.67634
2.68242
2.68444
2.66955
2.69737
2.69681
2.68882
2.6896
2.68558
2.6799
2.67369
2.66552
2.66389
2.67025
2.67075
2.669
2.67435
2.6728
2.67949
2.67561
2.67686
2.67801
2.6689
2.67565
2.65795
2.67138
2.68498
2.6829
2.68361
2.68482
2.69177
2.68322
2.68941
2.68806
2.68521
2.6983
2.69601
2.66043
2.65049
2.64925
2.65735
2.65682
2.64729
2.65761
2.65291
2.65447
2.65139
2.6548
2.65207
2.65761
2.75214
2.73959
2.73322
2.73271
2.74123
2.73139
2.7354
2.73489
2.73077
2.75306
2.76377
2.76645
2.7701
2.77084
2.76429
2.76031
2.75894
2.7563
2.76402
2.75932
2.6602
2.66415
2.66835
2.66644
2.66906
2.66719
2.66402
2.66678
2.64216
2.64522
2.65139
2.65078
2.65697
2.64721
2.64821
2.65042
2.65323
2.65268
2.65413
2.64779
2.65454
2.65309
2.74579
2.75328
2.75527
2.74732
2.74563
2.74503
2.74897
2.73728
2.73559
2.74182
2.74513
2.75007
2.74805
2.75146
2.74235
2.73818
2.74849
2.74841
2.75105
2.75465
2.75702
2.75278
2.75384
2.75142
2.77745
2.79119
2.78085
2.78828
2.79097
2.78318
2.78306
2.77448
2.77628
2.7812
2.77819
2.78225
2.78568
2.77997
2.7797
2.7861
2.78132
2.77461
2.77582
2.77639
2.76826
2.75717
2.75957
2.76193
2.76831
2.76852
2.69328
2.6915
2.7018
2.69369
2.69413
2.68737
2.69798
2.75735
2.76535
2.77004
2.75715
2.75303
2.75804
2.75032
2.7505
2.74705
2.74858
2.74443
2.73428
2.70548
2.69853
2.70667
2.71521
2.71431
2.70753
2.70263
2.70865
2.71063
2.70938
2.70031
2.70345
2.70837
2.69876
2.70978
2.7036
2.70258
2.69927
2.77131
2.77718
2.77455
2.7806
2.76647
2.76781
2.77947
2.77637
2.77161
2.77101
2.76921
2.76815
2.76763
2.76979
2.77439
2.77337
2.77371
2.77563
2.78152
2.7783
2.77819
2.77181
2.77722
2.78474
2.78148
2.78195
2.78647
2.7506
2.75391
2.75133
2.75815
2.75562
2.76461
2.76337
2.75485
2.75307
2.76617
2.76358
2.75716
2.76832
2.77202
2.79028
2.79831
2.79725
2.79274
2.8042
2.79435
2.79869
2.7896
2.79169
2.78968
2.75075
2.75826
2.75474
2.75541
2.75873
2.74433
2.73812
2.74726
2.73859
2.74039
2.74273
2.74888
2.74933
2.75806
2.76064
2.7566
2.76199
2.75649
2.74824
2.7585
2.76133
2.72683
2.72384
2.72265
2.72544
2.72218
2.72147
2.72971
2.7246
2.713
2.71389
2.71933
2.79958
2.79793
2.79796
2.80337
2.79977
2.79513
2.79562
2.79237
2.7937
2.79428
2.79238
2.78806
2.79461
2.79024
2.79792
2.79146
2.79265
2.79157
2.79204
2.79197
2.7955
2.78902
2.78974
2.78841
2.79787
2.79179
2.67974
2.67891
2.68377
2.68468
2.68786
2.68714
2.68958
2.68728
2.6814
2.67937
2.68616
2.69513
2.68732
2.68209
2.69335
2.67551
2.67729
2.67446
2.67846
2.67202
2.67561
2.68222
2.68238
2.68116
2.68217
2.67958
2.67838
2.78625
2.78746
2.78252
2.79122
2.78961
2.79058
2.78684
2.78394
2.79868
2.7926
2.79112
2.79442
2.79407
2.79195
2.79091
2.79726
2.79942
2.80235
2.80308
2.80351
2.79992
2.79899
2.79552
2.79462
2.79792
2.73136
2.73002
2.7312
2.7247
2.71716
2.72257
2.72048
2.71935
2.7201
2.71788
2.71854
2.71726
2.71968
2.71626
2.71013
2.72177
2.71286
2.70239
2.70099
2.71823
2.70004
2.70634
2.71564
2.69641
2.68883
2.69216
2.69663
2.78939
2.79545
2.79953
2.79754
2.79059
2.78691
2.79327
2.79964
2.79453
2.79323
2.80293
2.79442
2.78878
2.78802
2.7999
2.7968
2.80451
2.80488
2.79756
2.79161
2.79077
2.79262
2.78602
2.79323
2.79404
2.79447
2.73076
2.73973
2.73793
2.73212
2.73866
2.74452
2.74719
2.7502
2.7424
2.77748
2.77397
2.78386
2.78656
2.75025
2.75699
2.76527
2.75486
2.75937
2.72185
2.70839
2.71345
2.71211
2.70414
2.71827
2.72438
2.70464
2.70781
2.70118
2.71127
2.77235
2.77344
2.76263
2.76488
2.76404
2.76345
2.77833
2.8037
2.80314
2.80329
2.80364
2.80149
2.80005
2.80501
2.8052
2.80166
2.79616
2.78935
2.80347
2.79394
2.79715
2.80154
2.8024
2.80471
2.80796
2.80538
2.79695
2.79693
2.79721
2.79687
2.79398
2.79665
2.79579
2.78641
2.78706
2.79174
2.79396
2.78353
2.78387
2.78698
2.79619
2.78856
2.78428
2.74348
2.74387
2.74557
2.75472
2.7497
2.75069
2.74595
2.75366
2.75468
2.75633
2.77321
2.77602
2.77664
2.77686
2.77099
2.7742
2.7815
2.78157
2.77879
2.78231
2.77875
2.66173
2.66169
2.67238
2.67093
2.672
2.67681
2.68816
2.69453
2.68498
2.68678
2.68103
2.69011
2.67614
2.67707
2.682
2.68216
2.78981
2.78442
2.79182
2.79072
2.78005
2.7822
2.7776
2.78688
2.7833
2.78393
2.78128
2.78522
2.78677
2.77886
2.78082
2.77894
2.77236
2.77459
2.76277
2.7568
2.74872
2.75061
2.74578
2.75031
2.74064
2.7374
2.7341
2.75126
2.75714
2.74358
2.73676
2.71332
2.71532
2.7114
2.69768
2.69558
2.70779
2.69214
2.69426
2.69491
2.70501
2.69726
2.70372
2.74177
2.73339
2.74333
2.73075
2.74077
2.79642
2.79467
2.7991
2.79873
2.80549
2.80378
2.80425
2.80314
2.80188
2.80281
2.80053
2.76386
2.75783
2.75299
2.69844
2.69503
2.7057
2.7029
2.69754
2.70042
2.70575
2.70251
2.70005
2.70199
2.70069
2.69536
2.701
2.68785
2.69542
2.69556
2.69826
2.69431
2.69267
2.69157
2.69973
2.70688
2.69315
2.70471
2.69319
2.68997
2.77922
2.77451
2.77556
2.77895
2.78793
2.7739
2.78331
2.77898
2.7781
2.77936
2.78559
2.78295
2.72495
2.70026
2.69761
2.70284
2.7017
2.73003
2.71989
2.71805
2.7256
2.72418
2.73064
2.66349
2.66594
2.67041
2.66558
2.66724
2.67244
2.66694
2.67242
2.67249
2.67563
2.67243
2.67328
2.67241
2.73805
2.7326
2.72819
2.73474
2.73814
2.73451
2.73417
2.73225
2.73008
2.7409
2.73675
2.74093
2.7286
2.73436
2.7368
2.74206
2.73557
2.73821
2.73582
2.74143
2.73912
2.73884
2.72955
2.7215
2.66841
2.66323
2.66458
2.65939
2.66446
2.67198
2.67538
2.66752
2.67311
2.66786
2.66962
2.78388
2.79377
2.78668
2.78946
2.78857
2.78397
2.7873
2.78843
2.78714
2.79276
2.78875
2.70559
2.69899
2.69285
2.69754
2.70625
2.68875
2.69377
2.67995
2.68531
2.68536
2.70306
2.70112
2.68587
2.68596
2.68391
2.68032
2.69266
2.69072
2.71032
2.70589
2.698
2.70007
2.69604
2.68951
2.69932
2.69805
2.70718
2.70316
2.66596
2.66084
2.66735
2.77995
2.77749
2.72422
2.72875
2.73611
2.73106
2.73198
2.72329
2.72418
2.72103
2.71682
2.71449
2.71712
2.723
2.71459
2.69418
2.68546
2.68325
2.68627
2.67653
2.67959
2.67618
2.68054
2.68714
2.68099
2.67529
2.67708
2.67556
2.67996
2.65831
2.66162
2.66428
2.66318
2.66282
2.65965
2.66284
2.67282
2.66596
2.67571
2.67555
2.668
2.73331
2.71202
2.72422
2.73494
2.72802
2.72959
2.73647
2.72669
2.72596
2.72415
2.68464
2.68852
2.68711
2.68238
2.70473
2.71013
2.68941
2.69472
2.70661
2.69785
2.70499
2.71396
2.75474
2.75359
2.75594
2.76392
2.75793
2.75804
2.75676
2.74763
2.74665
2.7494
2.64302
2.63741
2.64038
2.63858
2.64584
2.64245
2.64646
2.64498
2.65028
2.66653
2.67653
2.67538
2.66028
2.66306
2.67346
2.67029
2.67535
2.66862
2.6678
2.72644
2.72501
2.72601
2.72426
2.72452
2.71876
2.71868
2.71915
2.72647
2.72748
2.71457
2.71707
2.7513
2.74725
2.76582
2.77442
2.66988
2.67852
2.69081
2.67918
2.6779
2.68305
2.68733
2.68777
2.68819
2.67921
2.70123
2.70205
2.69315
2.68526
2.69135
2.69425
2.69411
2.68996
2.75158
2.7576
2.74837
2.74795
2.74972
2.7536
2.76341
2.75704
2.74562
2.75799
2.76273
2.75514
2.73577
2.72828
2.73098
2.74186
2.73933
2.74272
2.73394
2.73588
2.73887
2.74432
2.73794
2.7349
2.6253
2.62368
2.7322
2.71702
2.71488
2.72313
2.70887
2.72063
2.71998
2.71598
2.72171
2.71993
2.72461
2.70801
2.71182
2.70738
2.70779
2.75033
2.74645
2.74096
2.7444
2.74422
2.73724
2.74056
2.72739
2.72727
2.72363
2.72205
2.71548
2.72032
2.7202
2.71927
2.72443
2.7034
2.70754
2.69069
2.70817
2.65048
2.66673
2.6591
2.65272
2.65167
2.6708
2.66695
2.67171
2.66514
2.66153
2.67439
2.67009
2.67395
2.66565
2.6646
2.65927
2.65944
2.66192
2.65234
2.65374
2.75828
2.76095
2.76347
2.76872
2.76406
2.75922
2.75398
2.75489
2.75594
2.76637
2.76023
2.75026
2.7544
2.73723
2.72729
2.72713
2.71157
2.70856
2.70913
2.70521
2.69461
2.69814
2.7163
2.72196
2.7258
2.71454
2.72114
2.70489
2.73566
2.73005
2.7365
2.73616
2.74732
2.73757
2.74809
2.73825
2.61295
2.60624
2.6354
2.63314
2.62986
2.65613
2.649
2.64627
2.63872
2.64711
2.64175
2.6398
2.6389
2.6515
2.65471
2.63406
2.64043
2.65325
2.6511
2.65749
2.66202
2.59545
2.60027
2.59989
2.59617
2.59528
2.59676
2.59057
2.59558
2.59277
2.59505
2.59085
2.59673
2.59889
2.60091
2.60337
2.61216
2.61183
2.60928
2.60516
2.61021
2.61628
2.6123
2.60912
2.60721
2.60915
2.61002
2.72961
2.75663
2.74735
2.60516
2.60237
2.59997
2.60549
2.60332
2.60242
2.59813
2.60309
2.60576
2.60809
2.60852
2.61543
2.6106
2.60562
2.60739
2.60944
2.60747
2.61858
2.61443
2.60948
2.60515
2.60913
2.6123
2.61575
2.61375
2.62055
2.62202
2.64166
2.61547
2.61691
2.61621
2.61334
2.61332
2.61283
2.60738
2.60761
2.61306
2.61573
2.60086
2.60465
2.66855
2.67809
2.69155
2.67642
2.71248
2.70116
2.687
2.69485
2.68876
2.68665
2.66949
2.67117
2.68006
2.6743
2.74772
2.75049
2.74773
2.65518
2.65802
2.65823
2.64999
2.66143
2.64613
2.64627
2.64114
2.63499
2.62792
2.6207
2.62729
2.62586
2.62852
2.62499
2.76447
2.76558
2.77264
2.76449
2.76855
2.76644
2.76696
2.76675
2.76343
2.76174
2.76118
2.75946
2.76073
2.70984
2.69747
2.70792
2.70347
2.6749
2.68339
2.69215
2.67531
2.67842
2.69148
2.69575
2.69375
2.68519
2.67767
2.67071
2.67709
2.63484
2.63475
2.63328
2.63176
2.63351
2.62962
2.62683
2.63205
2.63253
2.62525
2.62673
2.62857
2.63204
2.73822
2.75641
2.75113
2.75598
2.74224
2.73751
2.76238
2.75663
2.75851
2.76289
2.76488
2.66785
2.67882
2.67463
2.68172
2.6847
2.66437
2.66875
2.66867
2.69006
2.67863
2.67483
2.66915
2.65702
2.64723
2.75727
2.76203
2.76076
2.76703
2.76486
2.7633
2.76292
2.76672
2.76122
2.77202
2.77151
2.76849
2.76377
2.76792
2.7785
2.78009
2.77731
2.77374
2.77505
2.78639
2.78102
2.77898
2.778
2.77194
2.76627
2.74919
2.75138
2.75822
2.75244
2.76351
2.76295
2.76098
2.75784
2.65941
2.65058
2.65872
2.65206
2.65349
2.6551
2.6608
2.66622
2.64936
2.65877
2.66677
2.64535
2.64866
2.75025
2.73112
2.73823
2.74068
2.74097
2.77939
2.78597
2.78109
2.78406
2.7786
2.78279
2.7825
2.77945
2.78598
2.78346
2.69953
2.70129
2.70337
2.70874
2.69087
2.70902
2.70544