/*--------------------------------*- C++ -*----------------------------------*\
| =========                 |                                                 |
| \\      /  F ield         | OpenFOAM: The Open Source CFD Toolbox           |
|  \\    /   O peration     | Version:  v1612+                                |
|   \\  /    A nd           | Web:      www.OpenFOAM.com                      |
|    \\/     M anipulation  |                                                 |
\*---------------------------------------------------------------------------*/
FoamFile
{
    version     2.0;
    format      ascii;
    class       volScalarField;
    location    "166";
    object      p;
}
// * * * * * * * * * * * * * * * * * * * * * * * * * * * * * * * * * * * * * //

dimensions      [0 2 -2 0 0 0 0];

internalField   nonuniform List<scalar> 
17078
(
1.32271
1.65376
1.64512
1.65515
1.64856
1.65447
1.65695
1.64653
1.65992
1.64631
1.64993
1.63682
1.64461
1.65348
1.65158
1.64618
1.64353
1.65452
1.64525
1.64068
1.63793
1.63421
1.64476
1.6566
1.64439
1.63531
1.73628
1.72503
1.7254
1.73204
1.72947
1.7239
1.71831
1.70445
1.71362
1.71755
1.72115
1.69701
1.70258
1.70604
1.69442
1.68949
1.69277
1.70876
1.71932
1.71929
1.72025
1.67898
1.72535
1.67178
1.67756
1.66078
1.75376
1.70112
1.67583
1.74618
1.60041
1.64695
1.70426
1.73846
1.55205
1.57032
1.88278
1.87517
1.88029
1.88633
1.88231
1.89118
1.89459
1.88194
1.88638
1.88775
1.89215
1.89758
1.88323
1.89668
1.90016
1.89577
1.71698
1.71268
1.72597
1.70479
1.70357
1.68832
1.69181
1.73138
1.72123
1.70716
1.69137
1.70074
1.72413
1.69332
1.70407
1.70596
1.71736
1.85918
1.86836
1.86545
1.87308
1.87401
1.87173
1.87368
1.87311
1.87596
1.85894
1.84596
1.84306
1.83861
1.8556
1.86149
1.86442
1.86879
1.85248
1.86608
1.84991
1.85293
1.84242
1.62003
1.62925
1.63167
1.6356
1.61561
1.62687
1.66055
1.65748
1.67645
1.67851
1.66086
1.66394
1.6808
1.68685
1.66835
1.66952
1.67725
1.67017
1.68741
1.6893
1.68609
1.69808
1.70718
1.70956
1.69732
1.68591
1.69084
1.67607
1.66461
1.69294
1.68714
1.67557
1.67867
1.67517
1.68038
1.69072
1.68803
1.65702
1.6597
1.6599
1.67304
1.65059
1.65449
1.66493
1.65751
1.69327
1.64875
1.65108
1.66992
1.67005
1.65025
1.68895
1.67832
1.67823
1.68745
1.69026
1.69067
1.65765
1.62696
1.61063
1.62502
1.62312
1.62854
1.63014
1.58747
1.6043
1.58202
1.59216
1.59468
1.59218
1.60631
1.60859
1.60441
1.6154
1.66311
1.66827
1.67102
1.65557
1.65704
1.65321
1.65748
1.64533
1.66144
1.66973
1.66192
1.66688
1.64545
1.65452
1.66803
1.65838
1.65851
1.66296
1.63787
1.64116
1.65833
1.63551
1.63931
1.65377
1.66298
1.64765
1.65243
1.67678
1.85088
1.8679
1.85906
1.84958
1.87542
1.84221
1.85394
1.82824
1.83886
1.87808
1.86903
1.84722
1.85262
1.8482
1.86913
1.8768
1.86526
1.86515
1.84679
1.88617
1.90612
1.85201
1.87423
1.83092
1.85308
1.88357
1.89177
1.85288
1.89929
1.87067
1.87663
1.87495
1.71354
1.70788
1.69182
1.70186
1.72182
1.71869
1.72952
1.70169
1.72726
1.72462
1.70499
1.67667
1.71939
1.72628
1.71307
1.70197
1.70312
1.73354
1.7259
1.71803
1.90119
1.91507
1.91382
1.92256
1.9112
1.92266
1.90545
1.89552
1.87266
1.87205
1.90765
1.90136
1.89833
1.87002
1.89233
1.62513
1.62787
1.61481
1.62318
1.62189
1.61799
1.61943
1.62675
1.63379
1.60738
1.61575
1.62319
1.62575
1.61667
1.60273
1.62444
1.6132
1.65866
1.65542
1.66118
1.65701
1.64455
1.62992
1.63838
1.592
1.59529
1.63109
1.61854
1.63173
1.61953
1.60788
1.61026
1.61291
1.75123
1.75687
1.74556
1.74073
1.74648
1.75174
1.74359
1.74201
1.74333
1.73687
1.7151
1.71627
1.7265
1.67214
1.66539
1.66579
1.67032
1.67123
1.6754
1.67719
1.67217
1.67325
1.67936
1.69133
1.68834
1.66956
1.66272
1.67708
1.66734
1.68894
1.68476
1.69732
1.69874
1.67608
1.69072
1.69361
1.6886
1.57408
1.55147
1.53885
1.56648
1.53725
1.54356
1.58455
1.57613
1.56372
1.57432
1.56448
1.55276
1.5954
1.5614
1.57945
1.58276
1.58821
1.59053
1.55906
1.55393
1.58938
1.57857
1.74828
1.75125
1.75923
1.75888
1.73905
1.7235
1.73245
1.74445
1.72823
1.7345
1.74331
1.73311
1.7558
1.73245
1.74041
1.7587
1.7569
1.63163
1.62329
1.66145
1.70696
1.70264
1.72727
1.63731
1.68764
1.70884
1.73389
1.6323
1.7345
1.72333
1.70205
1.7467
1.66763
1.65206
1.63856
1.63349
1.62952
1.6132
1.62658
1.63386
1.62573
1.60512
1.61418
1.64451
1.62003
1.62323
1.62773
1.58717
1.59758
1.64531
1.63386
1.47405
1.48265
1.48147
1.50624
1.45358
1.47423
1.4946
1.45279
1.50254
1.53705
1.53326
1.47795
1.48619
1.50266
1.48976
1.48021
1.50418
1.51608
1.53514
1.5447
1.52976
1.53133
1.535
1.50408
1.51092
1.47801
1.51505
1.49344
1.53969
1.49807
1.5166
1.5135
1.53144
1.51805
1.54516
1.59945
1.59756
1.59743
1.51726
1.55587
1.57021
1.56326
1.58731
1.77447
1.76624
1.75725
1.75963
1.76055
1.77119
1.77495
1.7637
1.77507
1.76689
1.75205
1.75039
1.76055
1.69899
1.69034
1.70046
1.69634
1.69389
1.68912
1.69929
1.69529
1.68711
1.69302
1.70244
1.68724
1.69052
1.69278
1.68665
1.68548
1.68458
1.68465
1.69211
1.69031
1.68814
1.68264
1.6314
1.67142
1.63201
1.60863
1.66842
1.65706
1.64339
1.69449
1.61696
1.61157
1.57123
1.59764
1.63187
1.5931
1.59921
1.57547
1.56284
1.588
1.58208
1.58755
1.58955
1.52625
1.52104
1.57508
1.57939
1.55673
1.54038
1.58132
1.57212
1.5396
1.54121
1.55963
1.49427
1.47811
1.55791
1.54027
1.56306
1.54089
1.51592
1.49011
1.54184
1.55653
1.52882
1.51118
1.55415
1.54558
1.56444
1.56067
1.55822
1.55829
1.57598
1.57311
1.67413
1.68142
1.7174
1.69546
1.72713
1.71314
1.70356
1.67829
1.69045
1.73102
1.73154
1.7343
1.74239
1.72232
1.69453
1.73688
1.76739
1.74644
1.76969
1.77564
1.77908
1.76772
1.72765
1.73944
1.75296
1.7631
1.68917
1.71036
1.70848
1.69585
1.76527
1.7753
1.74131
1.73405
1.72886
1.74103
1.63584
1.63064
1.63687
1.63491
1.63136
1.62691
1.64892
1.64263
1.84406
1.86385
1.86831
1.82696
1.84751
1.8624
1.84207
1.8387
1.85366
1.84397
1.8301
1.86119
1.84584
1.83244
1.70088
1.68379
1.71742
1.69856
1.67768
1.67538
1.71545
1.68789
1.69837
1.70976
1.70075
1.73018
1.73043
1.71285
1.67339
1.70067
1.68483
1.69394
1.80999
1.8123
1.81575
1.82003
1.80803
1.80685
1.81424
1.81243
1.81727
1.82568
1.81123
1.81027
1.8198
1.82421
1.81073
1.82537
1.82062
1.66515
1.66347
1.61913
1.61883
1.65183
1.63768
1.66875
1.63578
1.6942
1.68102
1.68303
1.65379
1.67346
1.64093
1.65683
1.50147
1.49796
1.37656
1.46583
1.4407
1.5041
1.44633
1.39348
1.52832
1.52659
1.43672
1.39434
1.40071
1.48538
1.48675
1.43268
1.45008
1.6654
1.66976
1.67209
1.67302
1.67289
1.68077
1.68166
1.6848
1.68837
1.68071
1.68149
1.67628
1.67011
1.67343
1.68092
1.68838
1.60986
1.62371
1.67231
1.67343
1.68671
1.59493
1.60978
1.61252
1.64535
1.65637
1.65728
1.61614
1.62148
1.6154
1.62474
1.62179
1.6281
1.62131
1.63457
1.63448
1.63561
1.76114
1.76493
1.78053
1.76544
1.77465
1.74839
1.71932
1.71909
1.75149
1.71439
1.72511
1.76982
1.74409
1.71863
1.71443
1.74542
1.71103
1.79151
1.82431
1.81398
1.79166
1.82893
1.82468
1.80676
1.83645
1.83099
1.79566
1.81608
1.80346
1.56528
1.5553
1.58453
1.5882
1.54548
1.55672
1.54014
1.57039
1.56147
1.57674
1.5446
1.56701
1.5796
1.67327
1.62806
1.64503
1.67419
1.58145
1.55276
1.6231
1.62228
1.64943
1.56741
1.54133
1.69261
1.58295
1.67833
1.62871
1.60139
1.60407
1.57533
1.57853
1.59659
1.58838
1.59269
1.60531
1.6016
1.56066
1.58598
1.14082
1.1504
1.78539
1.78431
1.78212
1.77733
1.78056
1.77172
1.7715
1.76907
1.77279
1.7627
1.82083
1.84412
1.81553
1.84674
1.8343
1.66023
1.66586
1.66684
1.66383
1.67335
1.67849
1.66675
1.6556
1.65902
1.66036
1.66968
1.65459
1.66746
1.6711
1.66682
1.66067
1.66481
1.66989
1.6667
1.66926
1.66613
1.66982
1.66473
1.66783
1.66146
1.66671
1.75061
1.76324
1.73599
1.75106
1.74007
1.73371
1.75353
1.77843
1.76651
1.75662
1.75162
1.76354
1.74014
1.77817
1.77043
1.77202
1.77132
1.64813
1.6707
1.67594
1.65004
1.68494
1.68984
1.66363
1.66004
1.68846
1.67482
1.68677
1.6792
1.70029
1.69687
1.70944
1.80711
1.81154
1.79972
1.80078
1.77421
1.77512
1.81235
1.81904
1.80227
1.76901
1.76996
1.79137
1.81606
1.79639
1.80731
1.87886
1.87722
1.90742
1.9023
1.92084
1.92117
1.88189
1.87215
1.88022
1.8894
1.89076
1.89635
1.91417
1.93011
1.93144
1.88805
1.89431
1.89871
1.91597
1.90634
1.91308
1.9218
1.92546
1.91572
1.73243
1.72417
1.72275
1.73153
1.72306
1.71816
1.74123
1.74062
1.73636
1.7419
1.73317
1.74165
1.73265
1.74828
1.7441
1.74018
1.72845
1.72547
1.73582
1.57099
1.57037
1.57671
1.57637
1.52887
1.54547
1.50316
1.48772
1.48156
1.48131
1.52587
1.54012
1.54745
1.53129
1.55206
1.51325
1.51157
1.50045
1.53443
1.52983
1.84611
1.86012
1.86341
1.87018
1.88318
1.86349
1.88817
1.84024
1.851
1.85474
1.84997
1.85516
1.86058
1.86107
1.85824
1.85575
1.83145
1.82886
1.844
1.85289
1.84169
1.85548
1.85766
1.83012
1.84589
1.86049
1.83901
1.85402
1.86702
1.88976
1.89114
1.86169
1.87334
1.85086
1.85909
1.85011
1.8978
1.90301
1.90597
1.9165
1.93035
1.8765
1.90987
1.88898
1.85025
1.86827
1.88021
1.89732
1.92481
1.89126
1.91781
1.40003
1.37381
1.46182
1.41661
1.42569
1.44771
1.41006
1.42168
1.37534
1.34311
1.36322
1.34214
1.29913
1.31825
1.33369
1.41833
1.59536
1.603
1.62152
1.62294
1.60114
1.60891
1.58865
1.59629
1.60334
1.61316
1.61262
1.62146
1.61918
1.6259
1.58583
1.59392
1.59174
1.60337
1.61895
1.62991
1.6252
1.62767
1.62826
1.61402
1.61167
1.17353
1.14857
1.07092
1.07704
1.11617
1.07897
1.03598
1.09008
1.13465
1.10833
1.0621
1.04284
1.23182
1.18244
1.15845
1.05672
1.89931
1.89137
1.90794
1.90967
1.88403
1.91131
1.92639
1.91132
1.8988
1.92039
1.91543
1.92003
1.91019
1.91837
1.88784
1.89158
1.89838
1.90679
1.8977
1.90562
1.89107
1.64066
1.63801
1.62821
1.63663
1.61758
1.60762
1.11217
1.58614
1.59082
1.52892
1.51942
1.89813
1.89537
1.58892
1.57679
1.41479
1.40629
1.38123
1.44539
1.79648
1.79607
1.79239
1.79723
1.74607
1.74231
1.74263
1.47178
1.50522
1.5402
1.93366
1.94342
1.94787
1.93001
1.807
1.78131
1.77898
1.82178
1.62978
1.6329
1.64944
1.65599
1.6544
1.66518
1.71625
1.70893
1.47137
1.49162
1.46355
1.6608
1.65551
1.65598
1.64834
1.92057
1.91578
1.91969
1.61299
1.60814
1.7005
1.68924
1.67985
1.79041
1.78975
1.67052
1.66678
1.71633
1.71498
1.66748
1.67595
1.66076
1.20178
1.19816
1.28903
1.26192
1.70386
1.70549
1.87538
1.87826
1.87764
1.67988
1.67625
1.6307
1.62784
1.64002
1.18785
1.0988
1.1013
1.68376
1.6529
1.70032
1.72192
1.7459
1.74488
1.73588
1.73905
1.6977
1.69841
1.70297
1.30383
1.30167
1.30106
1.28536
1.32108
1.80003
1.80187
1.80858
1.80813
1.6346
1.62231
1.61632
1.85474
1.85938
1.86228
1.85462
1.85567
1.66518
1.77989
1.77935
1.7837
1.69426
1.70277
1.69788
1.69889
1.69929
1.2944
1.28374
1.32415
1.50378
1.51484
1.51668
1.06826
1.07729
1.74633
1.74671
1.75595
1.75731
1.59786
1.61548
1.61435
1.62582
1.6959
1.69275
1.76523
1.7689
1.76933
1.35776
1.38656
1.94784
1.94598
1.94871
1.10551
1.11572
1.23715
1.20626
1.2304
1.76979
1.7803
1.76749
1.78603
1.80224
1.81284
1.80899
1.90326
1.89685
1.89317
1.45673
1.45401
1.46613
1.44821
1.94964
1.94963
1.59801
1.59846
1.472
1.48163
1.4829
1.46253
1.43764
1.16368
1.27817
1.15749
1.14451
1.16966
1.47602
1.38788
1.37364
1.44251
1.39953
1.40509
1.31237
1.2858
1.26655
1.24883
1.74394
1.74193
1.73879
1.74235
1.74463
1.48052
1.46921
1.71843
1.71233
1.3029
1.37344
1.32601
1.29343
1.36007
1.30757
1.32123
1.3058
1.82631
1.83097
1.83136
1.66934
1.66948
1.67349
1.83879
1.83699
1.84487
1.84354
1.68489
1.68614
1.83484
1.83691
1.8352
1.83459
1.83892
1.67513
1.67482
1.72645
1.71006
1.74032
1.52121
1.49571
1.53053
1.54735
1.84891
1.84453
1.83813
1.59849
1.56761
1.59296
1.52583
1.76215
1.74416
1.76225
1.71487
1.69475
1.67338
1.58234
1.63391
1.61095
1.68043
1.6953
1.59527
1.59255
1.76554
1.7871
1.81182
1.74068
1.64351
1.32067
1.37724
1.28583
1.33277
1.91907
1.91482
1.90578
1.85351
1.86422
1.85901
1.89389
1.88553
1.76993
1.78176
1.87806
1.8682
1.81621
1.8336
1.80676
1.78649
1.87118
1.87695
1.8664
1.83709
1.858
1.85124
1.83434
1.82852
1.85201
1.84096
1.85566
1.85705
1.85109
1.8581
1.87215
1.87648
1.85767
1.89524
1.89512
1.88021
1.85357
1.86168
1.89191
1.86403
1.85773
1.62343
1.6027
1.58103
1.54882
1.53857
1.53187
1.61389
1.59322
1.61633
1.57341
1.55941
1.63058
1.49845
1.50136
1.52651
1.55623
1.53714
1.52089
1.55566
1.57489
1.37687
1.38977
1.32154
1.32328
1.43502
1.49717
1.74997
1.74335
1.77043
1.62889
1.66397
1.62372
1.60091
1.65822
1.6933
1.6416
1.79118
1.78461
1.77665
1.78554
1.76486
1.74785
1.73968
1.74694
1.74201
1.74873
1.75572
1.74073
1.74079
1.70769
1.68812
1.69188
1.68321
1.67827
1.67279
1.67847
1.67059
1.74943
1.77204
1.74764
1.71501
1.7197
1.75324
1.75278
1.76056
1.76604
1.73157
1.7335
1.69643
1.68723
1.68999
1.6825
1.69267
1.68671
1.68628
1.67952
1.69037
1.69308
1.66706
1.6667
1.66473
1.65191
1.65439
1.64735
1.64932
1.66403
1.66127
1.67673
1.67834
1.65921
1.65664
1.65533
1.66412
1.66766
1.66368
1.66653
1.66968
1.69856
1.69817
1.83515
1.84073
1.84095
1.8333
1.80994
1.81794
1.81851
1.81951
1.83462
1.84496
1.83992
1.84587
1.83805
1.83761
1.83591
1.83645
1.85858
1.88103
1.88285
1.88045
1.88283
1.8415
1.85128
1.85584
1.8537
1.86053
1.86325
1.79813
1.78499
1.79702
1.81636
1.79426
1.81802
1.82255
1.86657
1.87093
1.87243
1.84775
1.85412
1.85762
1.86648
1.85313
1.8106
1.81918
1.83716
1.83624
1.80631
1.80286
1.81786
1.80424
1.82739
1.83445
1.64689
1.65611
1.65904
1.64601
1.65584
1.67215
1.67666
1.68706
1.68289
1.69531
1.66523
1.65857
1.65841
1.6652
1.66563
1.65896
1.65555
1.68286
1.672
1.67332
1.67272
1.67521
1.67457
1.6805
1.68005
1.68662
1.6799
1.67119
1.68434
1.6797
1.6769
1.67674
1.67787
1.67329
1.67217
1.68029
1.67999
1.66836
1.66396
1.67105
1.66754
1.66834
1.85437
1.85624
1.84933
1.84597
1.81013
1.82139
1.82624
1.82699
1.82762
1.80046
1.80406
1.84831
1.85035
1.8494
1.82988
1.84208
1.84707
1.8344
1.82448
1.84014
1.84085
1.84331
1.84531
1.84173
1.84045
1.83918
1.83943
1.83398
1.83488
1.83606
1.83972
1.82711
1.82824
1.82049
1.82314
1.82811
1.82649
1.82831
1.82823
1.83172
1.81643
1.81615
1.82377
1.52882
1.48897
1.54981
1.14479
1.16215
1.13573
1.24095
1.26518
1.17124
1.22817
1.26115
1.29486
1.50273
1.47891
1.47024
1.39918
1.20079
1.14526
1.3803
1.20565
1.28029
1.17851
1.21106
1.27924
1.73412
1.74081
1.7347
1.72989
1.69082
1.73467
1.72991
1.72591
1.72621
1.7365
1.72293
1.72989
1.73947
1.73423
1.71577
1.71116
1.70696
1.70548
1.69496
1.68636
1.69546
1.51582
1.44218
1.44497
1.48974
1.48775
1.51318
1.56751
1.53911
1.5536
1.59957
1.55841
1.53293
1.54542
1.51362
1.52129
1.46722
1.48408
1.51991
1.51388
1.44576
1.47256
1.46882
1.39701
1.363
1.37981
1.39439
1.36352
1.74072
1.745
1.75046
1.74314
1.7475
1.73954
1.72765
1.72196
1.72502
1.73154
1.73572
1.73133
1.7291
1.73024
1.72706
1.3814
1.36807
1.33564
1.38733
1.34613
1.41137
1.44163
1.37442
1.35926
1.34133
1.32478
1.37757
1.38046
1.4041
1.40862
1.38959
1.40036
1.40769
1.32232
1.30508
1.32345
1.36318
1.39709
1.37295
1.3449
1.33116
1.33915
1.64859
1.61287
1.60333
1.53301
1.58848
1.52797
1.50321
1.494
1.56114
1.56534
1.50841
1.50132
1.50313
1.49319
1.48612
1.49785
1.51676
1.50991
1.5028
1.50645
1.6357
1.6078
1.60881
1.61751
1.6297
1.61543
1.6168
1.62614
1.63137
1.63402
1.90754
1.91742
1.91496
1.91773
1.92073
1.92754
1.92006
1.93836
1.94514
1.91849
1.93159
1.93439
1.94226
1.94158
1.91586
1.9409
1.93468
1.95634
1.95531
1.93554
1.94694
1.94103
1.95353
1.93796
1.92464
1.94313
1.93578
1.92892
1.92764
1.94156
1.92334
1.92238
1.9335
1.9269
1.84394
1.85866
1.86783
1.86219
1.86869
1.88029
1.89393
1.88618
1.90266
1.90382
1.89352
1.87714
1.87356
1.87937
1.87882
1.86546
1.86843
1.85644
1.72583
1.74525
1.75214
1.78186
1.77418
1.7555
1.75964
1.78339
1.76289
1.76484
1.83388
1.8424
1.8207
1.81805
1.82804
1.823
1.81288
1.80094
1.7843
1.81503
1.82792
1.83588
1.74786
1.7329
1.75825
1.74689
1.76128
1.7811
1.77119
1.77135
1.78564
1.78969
1.76462
1.74072
1.75037
1.75708
1.76178
1.76774
1.92182
1.93772
1.93627
1.93276
1.92285
1.92993
1.93607
1.93017
1.93293
1.93368
1.92151
1.94016
1.93981
1.95876
1.94301
1.95549
1.94599
1.95406
1.93925
1.3256
1.30227
1.25178
1.33367
1.30781
1.51463
1.4616
1.44689
1.52859
1.56617
1.551
1.57013
1.55291
1.54224
1.53687
1.55205
1.7765
1.77754
1.77479
1.75595
1.74538
1.76175
1.75991
1.76004
1.75828
1.76022
1.7582
1.75844
1.74538
1.75883
1.75805
1.7119
1.7129
1.71448
1.70565
1.70316
1.69468
1.6898
1.69048
1.69849
1.69195
1.6985
1.68273
1.69832
1.68582
1.7022
1.69868
1.69728
1.69185
1.68717
1.68724
1.68561
1.68426
1.65587
1.62722
1.64437
1.65484
1.62938
1.63867
1.59052
1.59145
1.59807
1.57181
1.59963
1.60704
1.63487
1.64485
1.64497
1.64536
1.63632
1.62897
1.64583
1.64791
1.63357
1.62939
1.63203
1.6268
1.63585
1.63777
1.59988
1.61107
1.61881
1.60919
1.56641
1.5688
1.58896
1.59433
1.58209
1.59659
1.57878
1.58752
1.75598
1.74607
1.74779
1.74669
1.75537
1.74892
1.55314
1.55005
1.53045
1.53705
1.53321
1.53218
1.48048
1.50575
1.48299
1.46921
1.45041
1.49797
1.52076
1.55227
1.55012
1.54501
1.54748
1.53819
1.70672
1.70984
1.71116
1.70011
1.69128
1.70054
1.69906
1.70497
1.69273
1.69673
1.69109
1.69394
1.78116
1.78782
1.79523
1.78116
1.79265
1.78536
1.79253
1.79438
1.79459
1.7976
1.74909
1.75516
1.77219
1.76071
1.76701
1.7564
1.75628
1.69948
1.70381
1.68338
1.68273
1.6694
1.71037
1.8828
1.88201
1.8836
1.64486
1.63561
1.62489
1.66017
1.66713
1.67468
1.56784
1.58455
1.5726
1.59287
1.60633
1.59849
1.60913
1.60731
1.69735
1.69934
1.69862
1.69333
1.69601
1.6915
1.69265
1.69065
1.70498
1.69734
1.70238
1.69878
1.72282
1.73153
1.73943
1.73785
1.73219
1.73969
1.73989
1.73845
1.74398
1.74532
1.74217
1.73941
1.74323
1.73404
1.74581
1.74762
1.72681
1.7363
1.7365
1.73163
1.71002
1.71707
1.70638
1.72357
1.71249
1.70407
1.70236
1.71267
1.81061
1.75819
1.79131
1.80854
1.68612
1.71372
1.64455
1.64851
1.63671
1.63614
1.62908
1.62823
1.68737
1.68854
1.70871
1.70616
1.64456
1.66208
1.65926
1.65929
1.64854
1.66419
1.6675
1.88988
1.89276
1.89297
1.89926
1.90014
1.89866
1.89101
1.89004
1.89213
1.88765
1.89618
1.88524
1.82776
1.83578
1.86104
1.84988
1.84399
1.71709
1.71232
1.69962
1.7052
1.7025
1.71602
1.70495
1.70103
1.70169
1.70078
1.73119
1.73394
1.72804
1.65297
1.65867
1.63684
1.65361
1.70943
1.71122
1.70657
1.6995
1.69853
1.70072
1.66561
1.66455
1.67105
1.66925
1.66435
1.66626
1.67578
1.66913
1.6768
1.68005
1.68024
1.6677
1.66772
1.68174
1.66814
1.68276
1.67287
1.66841
1.67762
1.6727
1.7795
1.78109
1.77258
1.77944
1.78441
1.68465
1.67445
1.66746
1.66454
1.59929
1.60709
1.62494
1.62615
1.61495
1.63097
1.62731
1.62118
1.65452
1.63678
1.62343
1.62412
1.62983
1.62676
1.57921
1.60847
1.59535
1.58652
1.59979
1.90977
1.90739
1.90552
1.90554
1.90538
1.90452
1.90461
1.65195
1.64963
1.64489
1.65007
1.66047
1.65544
1.6611
1.66147
1.6578
1.64502
1.64134
1.65911
1.66033
1.64901
1.65157
1.64619
1.64381
1.64553
1.65125
1.6518
1.65215
1.64001
1.64364
1.65733
1.6557
1.73316
1.73471
1.72687
1.68494
1.69151
1.66226
1.67535
1.67686
1.69232
1.70018
1.73364
1.72363
1.74338
1.74661
1.73369
1.73114
1.73558
1.72642
1.72589
1.64664
1.64933
1.64889
1.64686
1.64002
1.63869
1.63828
1.65695
1.65076
1.65566
1.65621
1.66273
1.84416
1.85539
1.82998
1.84668
1.72091
1.74776
1.69378
1.73525
1.74934
1.70582
1.7354
1.75833
1.7682
1.75304
1.7254
1.73043
1.85156
1.85847
1.84674
1.84475
1.84028
1.82067
1.84861
1.83346
1.82047
1.94639
1.93455
1.93193
1.93849
1.93286
1.94753
1.90234
1.90864
1.88767
1.9512
1.95812
1.95094
1.9464
1.95821
1.44211
1.50528
1.57422
1.43668
1.42326
1.56386
1.52164
1.457
1.49627
1.48591
1.58546
1.3873
1.63317
1.63396
1.62318
1.6004
1.61123
1.61401
1.59474
1.56956
1.41048
1.34626
1.51066
1.4408
1.39619
1.36621
1.40371
1.46825
1.44948
1.5071
1.80322
1.80158
1.79992
1.78421
1.78422
1.77248
1.78075
1.78405
1.78261
1.7838
1.77823
1.76766
1.77058
1.76166
1.76119
1.5639
1.57782
1.57478
1.56437
1.58025
1.50806
1.49135
1.47903
1.52361
1.54434
1.55991
1.51407
1.5077
1.49928
1.49442
1.311
1.3705
1.36834
1.33911
1.3844
1.30982
1.26458
1.58294
1.57693
1.56957
1.56516
1.55297
1.62865
1.61396
1.60743
1.64907
1.65571
1.89014
1.90302
1.90976
1.92117
1.9196
1.87297
1.85452
1.88276
1.87478
1.87259
1.87621
1.8763
1.90355
1.89968
1.90649
1.91851
1.91763
1.90985
1.90841
1.89615
1.8952
1.90323
1.57136
1.54918
1.56634
1.55625
1.45113
1.47036
1.49972
1.55227
1.5347
1.52597
1.57056
1.5738
1.55607
1.55872
1.52966
1.52352
1.66484
1.66174
1.65926
1.66313
1.66854
1.66131
1.65932
1.66015
1.66004
1.66084
1.66126
1.5796
1.55767
1.57105
1.55786
1.54997
1.58573
1.5751
1.56947
1.56057
1.58692
1.59786
1.88592
1.88232
1.86208
1.86106
1.84285
1.82203
1.81298
1.79444
1.84894
1.84798
1.86187
1.86128
1.87953
1.87289
1.89181
1.8886
1.87782
1.87665
1.9064
1.60779
1.59736
1.61231
1.60768
1.59975
1.60678
1.58411
1.56399
1.56571
1.56529
1.57637
1.58973
1.58827
1.59768
1.47097
1.47025
1.44844
1.47752
1.43863
1.4265
1.40184
1.46725
1.49419
1.43829
1.42863
1.41771
1.43289
1.53125
1.55917
1.56212
1.51426
1.53789
1.499
1.51331
1.53086
1.52661
1.54421
1.53331
1.54593
1.51914
1.49945
1.81408
1.81357
1.806
1.80687
1.81257
1.79689
1.7996
1.79713
1.80356
1.80147
1.80236
1.80296
1.80013
1.80078
1.80221
1.79973
1.80667
1.64014
1.64517
1.7161
1.72752
1.67428
1.94209
1.94032
1.95357
1.94342
1.95754
1.94904
1.95145
1.8546
1.80925
1.82096
1.80253
1.83419
1.85762
1.86975
1.85154
1.82585
1.8617
1.82699
1.88908
1.85445
1.88268
1.8632
1.85172
1.84881
1.88113
1.85451
1.88404
1.89451
1.89735
1.7948
1.7708
1.78912
1.7879
1.80124
1.81877
1.78118
1.77992
1.76773
1.78933
1.80819
1.82047
1.82651
1.78826
1.77324
1.63557
1.6678
1.69235
1.67261
1.5974
1.59911
1.59113
1.62274
1.6097
1.61359
1.57803
1.58753
1.74115
1.74672
1.74221
1.72757
1.74791
1.74326
1.73313
1.74913
1.74877
1.74643
1.74963
1.90151
1.89514
1.88532
1.89389
1.89683
1.89712
1.89877
1.92012
1.91397
1.91973
1.90949
1.91441
1.65401
1.64314
1.66087
1.66694
1.63118
1.67011
1.65529
1.64104
1.63924
1.63427
1.64362
1.72835
1.75869
1.75794
1.76672
1.7668
1.73661
1.76259
1.76424
1.74299
1.74598
1.7594
1.74796
1.75903
1.74242
1.75425
1.68801
1.68456
1.68593
1.71037
1.69888
1.71117
1.72022
1.68002
1.67263
1.70486
1.70223
1.66876
1.79559
1.81217
1.81498
1.82321
1.81588
1.8347
1.81742
1.81595
1.83503
1.82807
1.92353
1.92165
1.91404
1.89509
1.90065
1.89478
1.90992
1.90064
1.87717
1.87477
1.85637
1.84718
1.86648
1.88208
1.88884
1.8886
1.87717
1.88108
1.88191
1.88673
1.65729
1.65308
1.65935
1.66842
1.66871
1.65809
1.64717
1.6493
1.64798
1.66417
1.66676
1.62329
1.56763
1.60221
1.58627
1.57456
1.59236
1.59547
1.61185
1.61307
1.616
1.58484
1.61528
1.62026
1.66535
1.63416
1.65465
1.62369
1.61475
1.8424
1.85395
1.83765
1.81035
1.84728
1.84867
1.8215
1.84594
1.83748
1.77216
1.76689
1.76462
1.75607
1.76776
1.75719
1.75703
1.74015
1.87478
1.86188
1.87136
1.87363
1.86933
1.87676
1.87704
1.69274
1.70485
1.7015
1.69526
1.70121
1.70361
1.7058
1.69427
1.70362
1.7018
1.69807
1.69845
1.69653
1.69532
1.6959
1.70039
1.6939
1.69345
1.68743
1.68315
1.69004
1.75927
1.74294
1.75916
1.7615
1.75357
1.76578
1.76445
1.7641
1.75608
1.74484
1.74581
1.51848
1.53733
1.50752
1.50353
1.52235
1.54287
1.51167
1.51174
1.52677
1.52094
1.55798
1.56101
1.58941
1.56229
1.55535
1.60317
1.61919
1.25257
1.21907
1.22904
1.25343
1.14924
1.19988
1.18517
1.30478
1.35918
1.32384
1.93846
1.93588
1.9237
1.94141
1.92924
1.93407
1.93907
1.93471
1.71911
1.76395
1.74737
1.76789
1.73369
1.75023
1.75188
1.77524
1.7839
1.78526
1.78899
1.78608
1.80293
1.80836
1.81236
1.81782
1.80167
1.83312
1.82953
1.83782
1.83853
1.74395
1.73603
1.72048
1.73727
1.71402
1.71221
1.73469
1.73416
1.74396
1.74106
1.72777
1.75248
1.75944
1.64178
1.6892
1.71018
1.67967
1.66319
1.70804
1.72296
1.80023
1.78991
1.81717
1.82528
1.83798
1.82512
1.83305
1.9185
1.90344
1.90153
1.89544
1.92642
1.91766
1.92511
1.92539
1.92224
1.91932
1.90574
1.57638
1.55967
1.5486
1.56574
1.56128
1.54672
1.53926
1.5301
1.54131
1.54903
1.54876
1.55425
1.64261
1.61192
1.5916
1.59324
1.65625
1.60157
1.68618
1.73361
1.72949
1.73213
1.73276
1.73878
1.73092
1.73634
1.73102
1.72885
1.71913
1.71857
1.71062
1.70322
1.71774
1.71019
1.70463
1.68644
1.68882
1.69406
1.70701
1.69212
1.70188
1.70942
1.69223
1.69796
1.6817
1.68396
1.56032
1.52145
1.54026
1.58741
1.58367
1.45903
1.68955
1.68532
1.6847
1.685
1.67918
1.67885
1.67474
1.68329
1.67912
1.67705
1.68411
1.87226
1.88382
1.87291
1.87856
1.88596
1.88244
1.88538
1.88584
1.86687
1.86203
1.8351
1.82335
1.83344
1.83436
1.83117
1.82178
1.87267
1.87275
1.86988
1.8745
1.87313
1.87094
1.83431
1.82581
1.8338
1.83024
1.82098
1.83159
1.83521
1.79655
1.80436
1.79331
1.80606
1.80737
1.80905
1.81394
1.79225
1.80466
1.61661
1.63017
1.64927
1.63173
1.65509
1.61186
1.60301
1.61511
1.62406
1.63025
1.91526
1.90458
1.8933
1.9043
1.87541
1.87037
1.87949
1.89852
1.87946
1.93184
1.93111
1.93618
1.9315
1.93386
1.92123
1.90999
1.92362
1.91575
1.55351
1.50315
1.54086
1.54941
1.50617
1.48189
1.52984
1.42684
1.43668
1.18377
1.18043
1.20637
1.23053
1.23793
1.31484
1.23241
1.26289
1.2694
1.29172
1.31784
1.30424
1.20022
1.16265
1.50862
1.49842
1.47284
1.50208
1.42502
1.47276
1.43233
1.40747
1.38686
1.47984
1.40726
1.46166
1.43086
1.39204
1.70394
1.7435
1.78287
1.76263
1.82022
1.80165
1.82742
1.80887
1.77553
1.80011
1.81257
1.84727
1.84313
1.83491
1.83406
1.79561
1.76954
1.7888
1.78643
1.79702
1.79922
1.80179
1.79209
1.80144
1.78409
1.79402
1.78621
1.79981
1.79022
1.79107
1.79741
1.80115
1.79189
1.79387
1.8138
1.8149
1.81633
1.82112
1.81635
1.81803
1.7246
1.71317
1.71719
1.71707
1.7126
1.72341
1.71933
1.72465
1.72485
1.72705
1.72685
1.71456
1.7249
1.71137
1.71189
1.71054
1.64302
1.68364
1.66177
1.73578
1.73851
1.70859
1.68136
1.69675
1.66714
1.76206
1.78744
1.74599
1.72267
1.72486
1.71677
1.69192
1.67583
1.70719
1.72605
1.76612
1.73846
1.72057
1.79301
1.78654
1.76594
1.77572
1.79684
1.71528
1.73918
1.78243
1.74161
1.91504
1.90245
1.9127
1.91908
1.91409
1.91256
1.90415
1.90113
1.91443
1.90462
1.8747
1.87189
1.87142
1.86963
1.87023
1.87008
1.8613
1.84913
1.86391
1.86852
1.86357
1.86798
1.88322
1.8807
1.89027
1.88379
1.87373
1.88797
1.89655
1.88262
1.72905
1.72286
1.71768
1.69406
1.68215
1.74199
1.75583
1.89416
1.88212
1.90415
1.89923
1.90883
1.90429
1.90337
1.90279
1.88527
1.90417
1.90251
1.49109
1.55378
1.53592
1.47599
1.4577
1.49067
1.51267
1.54304
1.50653
1.54896
1.44812
1.42542
1.39874
1.40769
1.42324
1.26068
1.23599
1.2272
1.15653
1.24108
1.26329
1.31158
1.21363
1.20165
1.17662
1.2023
1.22731
1.39449
1.4394
1.41064
1.43736
1.46095
1.43817
1.47516
1.26203
1.26415
1.23485
1.28545
1.15225
1.14113
1.5443
1.55294
1.53363
1.49398
1.4858
1.51881
1.51723
1.50491
1.52473
1.46181
1.47983
1.4776
1.45168
1.44892
1.44191
1.46618
1.51267
1.46327
1.49688
1.50577
1.45637
1.50348
1.49604
1.46896
1.48172
1.35167
1.38423
1.35802
1.46368
1.36647
1.44342
1.43176
1.44723
1.38338
1.336
1.36485
1.22007
1.29599
1.28077
1.1914
1.27704
1.21353
1.37976
1.37266
1.67454
1.67842
1.69029
1.69358
1.68487
1.68019
1.69014
1.69331
1.69671
1.69532
1.69513
1.68432
1.68219
1.66218
1.67771
1.82147
1.81958
1.55686
1.56696
1.75359
1.75592
1.68023
1.66767
1.6745
1.67831
1.67494
1.66987
1.68039
1.68039
1.67932
1.67896
1.68044
1.68606
1.84083
1.83735
1.84136
1.8324
1.67089
1.66992
1.79082
1.8029
1.80913
1.80789
1.81468
1.81074
1.80629
1.77616
1.78769
1.78649
1.78398
1.81548
1.81902
1.80486
1.80477
1.37744
1.3666
1.46916
1.39138
1.45521
1.32529
1.3142
1.10272
1.19868
1.08586
1.11213
1.35627
1.29644
1.29739
1.66773
1.66633
1.65887
1.65575
1.65022
1.65606
1.67415
1.66183
1.65977
1.67838
1.68402
1.72825
1.71758
1.72804
1.70865
1.69417
1.69912
1.70223
1.70702
1.70749
1.69317
1.71021
1.70891
1.71765
1.72134
1.53159
1.53209
1.56328
1.55927
1.62148
1.61456
1.61706
1.62715
1.38234
1.33903
1.33751
1.32696
1.42407
1.40064
1.38384
1.39223
1.43113
1.33602
1.40219
1.61713
1.62932
1.6541
1.65504
1.64389
1.64738
1.64504
1.63887
1.90307
1.92082
1.90984
1.90985
1.91076
1.90113
1.9161
1.91329
1.85184
1.86439
1.75421
1.74568
1.86401
1.83547
1.86364
1.86742
1.87
1.86853
1.85393
1.85496
1.77056
1.7738
1.74909
1.78261
1.76067
1.76619
1.77943
1.76648
1.76254
1.76546
1.69205
1.7335
1.72549
1.70659
1.70994
1.70581
1.72886
1.72407
1.92952
1.9216
1.93865
1.93992
1.93613
1.93361
1.94715
1.93273
1.94272
1.92337
1.18291
1.22795
1.23544
1.30986
1.16394
1.21355
1.1638
1.3919
1.3626
1.40492
1.79228
1.79095
1.78085
1.78763
1.7855
1.7784
1.79303
1.72111
1.71413
1.72177
1.71031
1.64331
1.64683
1.68371
1.68912
1.68749
1.69428
1.68975
1.69755
1.69748
1.68981
1.69942
1.69144
1.70671
1.69638
1.69505
1.69699
1.69865
1.69965
1.78779
1.78158
1.78951
1.79221
1.77481
1.79313
1.78224
1.79464
1.79986
1.77575
1.77155
1.77399
1.7704
1.77713
1.77775
1.63931
1.67387
1.64549
1.64659
1.63361
1.63186
1.66498
1.65965
1.67673
1.66982
1.65124
1.67452
1.66614
1.5794
1.59494
1.56672
1.57585
1.58715
1.59226
1.54703
1.55119
1.522
1.51257
1.49944
1.53005
1.52372
1.68877
1.69322
1.68661
1.69317
1.69648
1.69592
1.69205
1.69862
1.70197
1.69966
1.6993
1.70168
1.71388
1.70127
1.69936
1.70638
1.69979
1.72211
1.69072
1.71666
1.71386
1.71132
1.71302
1.72119
1.72417
1.72465
1.72837
1.7284
1.72886
1.72793
1.73395
1.73575
1.70844
1.72521
1.71876
1.71946
1.71388
1.71516
1.71547
1.72328
1.72265
1.72254
1.7257
1.72485
1.7234
1.71387
1.70776
1.70755
1.72838
1.73056
1.76546
1.76092
1.77379
1.74401
1.72968
1.68495
1.69316
1.70978
1.69417
1.68654
1.70502
1.6947
1.7044
1.70731
1.71107
1.71039
1.7079
1.71338
1.91976
1.92277
1.92198
1.91043
1.91686
1.91157
1.91452
1.90693
1.91934
1.92667
1.86228
1.86828
1.87513
1.87584
1.85398
1.86201
1.86773
1.65615
1.69998
1.70663
1.70396
1.7077
1.71369
1.69858
1.69974
1.7054
1.70785
1.70993
1.7103
1.66594
1.66484
1.66124
1.66724
1.66457
1.67031
1.6619
1.65483
1.6626
1.66307
1.66736
1.67145
1.66995
1.67192
1.66826
1.67145
1.66842
1.67199
1.58808
1.57282
1.56585
1.5928
1.60183
1.61398
1.57017
1.57733
1.59402
1.60659
1.92076
1.91862
1.91823
1.90757
1.92339
1.92429
1.92482
1.90886
1.92253
1.91792
1.90647
1.91061
1.90861
1.64114
1.64596
1.6429
1.64185
1.64047
1.64106
1.64175
1.64224
1.64515
1.64388
1.63578
1.63795
1.81959
1.78356
1.83694
1.81447
1.80592
1.80705
1.82518
1.79151
1.77444
1.69653
1.71118
1.61387
1.57925
1.64653
1.68054
1.9167
1.90703
1.93943
1.94349
1.93742
1.93318
1.94716
1.93672
1.94986
1.94204
1.9453
1.93803
1.73201
1.6709
1.68757
1.72307
1.71903
1.70291
1.73487
1.69249
1.67829
1.71428
1.72887
1.68576
1.6567
1.5307
1.37927
1.27752
1.34597
1.32604
1.30686
1.38265
1.39372
1.28615
1.31491
1.62381
1.64456
1.60318
1.59814
1.62347
1.64046
1.63645
1.63752
1.64677
1.61421
1.5999
1.9123
1.93229
1.91627
1.88926
1.90231
1.89431
1.89535
1.90967
1.89847
1.86557
1.86524
1.85797
1.83875