/*--------------------------------*- C++ -*----------------------------------*\
| =========                 |                                                 |
| \\      /  F ield         | OpenFOAM: The Open Source CFD Toolbox           |
|  \\    /   O peration     | Version:  v1612+                                |
|   \\  /    A nd           | Web:      www.OpenFOAM.com                      |
|    \\/     M anipulation  |                                                 |
\*---------------------------------------------------------------------------*/
FoamFile
{
    version     2.0;
    format      ascii;
    class       surfaceScalarField;
    location    "100";
    object      phi;
}
// * * * * * * * * * * * * * * * * * * * * * * * * * * * * * * * * * * * * * //

dimensions      [0 3 -1 0 0 0 0];

internalField   nonuniform List<scalar> 
37300
(
-7.41512e-09
-2.96114e-09
2.79131e-09
7.58494e-09
2.47079e-09
7.28048e-09
-2.83125e-09
-6.92002e-09
6.90415e-09
6.27356e-09
-9.66224e-09
-3.51547e-09
-4.17676e-09
7.15656e-09
-7.6234e-09
4.64361e-09
-2.14026e-09
-6.11661e-09
6.80206e-09
1.45482e-09
-1.97464e-09
1.56371e-08
-6.28886e-09
-7.37361e-09
1.74617e-08
-9.23308e-09
-1.02033e-08
-1.39005e-09
-8.65993e-09
1.3258e-08
-3.20799e-09
-8.28444e-09
9.86622e-09
-2.97182e-09
-7.20371e-09
1.08133e-08
1.20275e-08
4.36856e-09
5.88946e-09
3.24416e-09
9.38146e-09
-2.06293e-08
8.00362e-09
1.00447e-08
9.04313e-09
-1.58436e-08
-9.38726e-09
-8.13024e-09
-1.19181e-08
1.3657e-08
-8.02768e-09
-1.17183e-08
-1.13942e-08
2.67178e-09
2.04408e-08
-7.69789e-09
6.02429e-09
9.89335e-09
4.34143e-09
7.79009e-09
-1.48048e-08
1.63961e-08
2.54034e-09
-6.00853e-09
-1.71611e-08
6.84974e-09
-2.46605e-09
-1.30436e-08
1.32395e-08
5.4703e-09
-1.18601e-08
9.3928e-09
-3.8512e-09
-5.46361e-09
3.46215e-09
-8.89827e-09
1.93601e-08
-6.01137e-09
7.00644e-09
1.78298e-09
-1.45111e-09
2.00375e-09
5.19122e-09
-4.27203e-09
-2.92294e-09
3.38818e-09
-1.36968e-09
-1.47503e-11
2.12654e-09
-7.23992e-10
3.78867e-09
1.0153e-09
4.49942e-09
-2.68033e-09
2.08335e-09
-8.28652e-09
8.8835e-09
-8.75057e-09
5.34624e-09
3.19038e-09
9.19486e-10
-8.3819e-09
7.00941e-09
-3.91076e-09
-3.61014e-09
-1.14687e-09
-3.52951e-09
-9.17033e-09
3.49184e-09
3.03489e-09
-5.60724e-09
2.27622e-09
-1.54053e-10
-3.0646e-09
4.95263e-09
6.59662e-09
-3.69135e-09
-7.32143e-09
4.41617e-09
4.87944e-09
-4.07858e-09
5.79576e-09
-1.02334e-08
-2.34102e-09
4.05176e-09
8.52269e-09
-3.7704e-09
-1.5836e-09
-2.35697e-10
4.51531e-09
-6.62064e-09
-7.26204e-09
1.20395e-09
1.26895e-08
-5.11204e-09
4.52323e-09
-1.21007e-08
7.80975e-09
4.61462e-09
2.65157e-10
-5.88809e-10
-1.17694e-08
7.24619e-09
7.54819e-09
-1.88842e-09
-1.58643e-09
-4.07334e-09
2.44224e-09
4.87024e-09
-8.36596e-09
7.10766e-09
3.70054e-09
1.00228e-08
6.77365e-10
-6.17694e-09
9.41743e-09
8.41513e-09
2.61257e-09
-6.89273e-09
-2.89704e-09
-4.79156e-09
-2.17289e-09
-1.29729e-08
-9.16467e-10
-2.43938e-09
1.63287e-08
-5.44722e-09
-8.09579e-09
5.70145e-10
-7.37428e-09
-1.64926e-09
8.10707e-09
-5.83263e-09
-5.80143e-09
4.25978e-09
-9.52146e-09
-1.7584e-09
1.21385e-08
-8.64163e-09
-1.15927e-08
-1.90172e-09
1.16008e-08
-4.81918e-10
-6.70332e-09
5.53598e-09
-9.24806e-09
6.92588e-09
-3.47925e-09
1.33734e-10
4.25977e-09
-1.3915e-08
4.19314e-09
-9.32882e-09
6.94518e-09
1.44983e-09
-1.22727e-09
3.30623e-10
-4.71248e-09
8.65574e-09
-4.13198e-09
7.76756e-10
-3.95981e-09
-1.05183e-08
5.79508e-09
8.68308e-09
-1.56656e-08
5.19657e-09
6.50922e-09
1.15091e-08
7.07586e-09
-1.07403e-08
-7.84464e-09
5.08593e-10
4.82177e-10
-1.12379e-08
2.64821e-09
3.68648e-09
2.01827e-08
-2.44869e-08
6.17746e-10
1.36194e-08
-1.48114e-08
4.87842e-09
-1.06301e-08
1.92533e-08
4.99625e-09
9.83707e-11
9.45425e-09
1.5146e-08
-1.046e-08
-2.91729e-08
8.43243e-10
-1.56865e-08
7.50854e-09
8.27636e-09
3.47029e-09
-4.67734e-09
-9.53326e-09
1.72341e-08
-6.88766e-09
-6.8761e-09
6.3373e-09
-3.41187e-10
7.34199e-09
-2.24793e-08
1.88351e-08
-1.83808e-08
9.48587e-09
6.4607e-09
-7.54502e-09
-3.92454e-09
5.00886e-09
-7.64129e-09
1.00637e-08
4.03826e-09
7.28616e-09
-1.28485e-09
-1.35463e-08
4.32161e-09
-4.67674e-09
-6.2741e-10
1.0194e-08
4.97141e-10
7.70342e-09
-1.21806e-10
-8.20903e-09
3.70731e-09
-9.72702e-09
4.73486e-09
1.47087e-09
-2.45734e-09
8.6899e-09
-1.44134e-09
1.31062e-08
-7.34271e-09
1.33981e-08
-1.73382e-09
9.90081e-09
-1.35362e-08
1.46711e-08
-4.80729e-09
-1.8862e-09
-7.97765e-09
-2.13628e-10
1.24274e-08
1.23792e-08
-7.28564e-09
2.88637e-09
-1.75344e-08
1.44344e-08
-1.46448e-08
1.60898e-08
-6.93192e-09
1.77672e-09
-8.17857e-09
-3.80339e-09
-8.27006e-09
2.22108e-08
-1.01374e-08
-1.32878e-08
-1.30882e-08
2.25726e-08
1.18101e-08
-1.33614e-08
-6.04412e-09
7.59541e-09
9.08737e-10
3.78536e-09
7.11599e-09
9.51381e-09
-3.39771e-09
1.21026e-09
-7.32634e-09
8.0276e-09
-3.53281e-10
1.83951e-09
-6.10405e-09
-3.49306e-09
6.3891e-09
-1.10617e-08
2.4916e-09
4.43511e-09
-1.48175e-08
-2.90546e-09
-1.35962e-08
-3.16286e-09
4.55756e-09
-3.8046e-10
-2.96683e-09
9.03809e-09
3.54706e-09
9.13597e-10
5.22601e-09
-9.11143e-09
6.45863e-09
-7.00704e-09
4.58461e-09
-1.30631e-08
7.25833e-10
1.26404e-08
8.45461e-09
-2.18209e-08
-1.87796e-08
1.1792e-08
7.71343e-09
1.24047e-08
-1.60812e-08
-1.5103e-08
-1.42135e-08
3.50053e-08
-2.07245e-08
-6.7282e-11
2.21118e-08
-1.06978e-08
-9.28734e-09
-2.1266e-09
2.05387e-08
-1.23823e-08
-2.88029e-09
1.02266e-09
1.42399e-08
-2.40005e-08
2.60504e-08
9.74203e-09
-9.30804e-09
-2.28776e-09
-3.90516e-09
-2.49899e-08
1.28138e-08
-9.23927e-09
-1.80094e-08
1.65509e-08
-1.15665e-08
-1.01239e-08
-2.47109e-08
3.76082e-09
-8.61067e-09
1.34545e-08
-8.60461e-09
1.36038e-08
-5.94045e-09
-3.90254e-09
-3.57145e-09
8.4619e-09
-1.35011e-08
-3.54066e-09
6.54895e-09
1.04462e-08
3.98393e-09
6.07923e-09
-3.05985e-09
-8.43131e-09
-5.96002e-09
1.74512e-08
-9.58535e-09
1.30744e-08
6.61605e-09
8.439e-09
1.09585e-08
-1.02829e-08
4.18532e-09
-1.34286e-08
-3.42028e-10
-1.20562e-08
7.81022e-09
-2.76161e-09
-2.20513e-09
-8.68846e-09
6.71236e-09
1.18922e-08
-6.21485e-09
4.83176e-09
-2.56175e-09
4.66779e-09
-1.05233e-09
2.0554e-09
1.133e-08
-1.23331e-08
9.66621e-09
-4.89832e-10
-6.24874e-09
-2.92764e-09
-3.55117e-09
5.54624e-09
7.67114e-09
-1.37013e-09
2.2727e-09
-1.07994e-08
9.8968e-09
7.35694e-09
1.16209e-09
-9.57137e-09
6.64664e-09
-6.59838e-10
7.51036e-09
4.48264e-09
-7.80184e-09
-4.19116e-09
-3.52885e-09
9.68566e-09
8.01e-09
-4.71782e-09
-9.54092e-09
2.10484e-09
2.354e-09
-3.92253e-09
3.66807e-10
-1.28014e-09
8.78992e-09
-1.96354e-09
-5.5524e-09
5.70844e-09
-1.43617e-09
4.0628e-09
1.92933e-09
4.0769e-10
2.16979e-09
-4.50685e-09
6.3798e-10
3.8324e-09
-2.54106e-09
-3.35202e-09
-2.17222e-09
3.93782e-09
-3.83095e-09
5.2417e-10
-4.52269e-11
4.59921e-10
-4.20199e-09
1.56918e-09
-3.91721e-09
2.2049e-09
-2.04192e-09
-1.52211e-09
2.42045e-09
-4.05468e-09
8.43125e-10
-9.27935e-10
1.10987e-09
-5.58215e-09
-1.99084e-09
-4.22072e-09
3.03586e-09
-2.85691e-09
4.80354e-11
2.50966e-09
-9.59977e-09
8.24301e-09
-1.15289e-09
-8.51368e-09
8.72151e-09
2.30183e-09
-5.38736e-09
-3.42127e-09
-7.91149e-10
-6.10943e-09
-7.79161e-09
5.33455e-09
4.29128e-09
-9.0431e-10
2.48057e-09
1.1097e-08
-2.23819e-09
3.53499e-09
-4.71806e-09
2.84137e-09
-1.1189e-08
2.87809e-09
-5.21093e-09
7.4727e-09
-5.13985e-09
-9.836e-09
9.3047e-09
3.37267e-09
-5.54583e-09
1.09045e-08
8.02048e-09
-7.32431e-09
2.83882e-09
4.31351e-09
2.12112e-09
-1.16456e-08
6.78816e-09
-3.53753e-09
-1.77727e-09
1.26877e-08
-7.37285e-09
1.01705e-08
-6.52251e-09
-7.18547e-09
-1.40747e-08
6.06874e-09
9.5094e-09
-1.50339e-09
3.30854e-09
-8.78606e-09
1.18863e-08
-6.40878e-09
-6.7205e-09
-2.95187e-09
1.29809e-08
-2.39194e-09
-1.21969e-08
5.14087e-10
1.41298e-09
1.21963e-09
-1.14187e-08
-7.85352e-09
2.54601e-09
-1.01282e-08
1.44197e-08
1.57417e-09
6.08657e-10
9.70347e-09
1.07776e-08
-1.19499e-08
2.22358e-09
5.75836e-09
5.77304e-09
-3.05233e-09
-8.47908e-09
5.82993e-09
2.4943e-10
-3.2101e-10
1.56222e-09
5.85474e-09
-1.64391e-09
6.65275e-09
7.39397e-10
3.78811e-09
1.3351e-09
-8.17555e-09
3.97926e-09
5.82845e-11
6.58331e-09
1.33298e-09
-2.06155e-09
5.06685e-09
4.57762e-09
-8.30937e-09
1.94065e-09
1.2726e-09
3.43953e-09
2.89535e-09
5.62862e-09
-4.78927e-09
7.72103e-09
-1.59877e-09
5.76645e-09
-5.48887e-09
1.23179e-10
3.81522e-09
4.08714e-11
4.73767e-09
-2.40067e-10
1.26886e-09
5.19791e-09
7.26079e-09
4.05041e-09
5.03259e-09
-4.50536e-09
4.14449e-09
2.91025e-11
1.88108e-09
3.20673e-09
-1.64117e-10
8.25739e-09
-3.57493e-09
3.34192e-09
4.37751e-09
1.21759e-09
5.05888e-09
1.28661e-08
-7.37147e-09
-1.14597e-08
5.96507e-09
5.64813e-10
2.3229e-09
9.97837e-09
3.00952e-09
1.22959e-08
-1.47406e-08
1.03942e-08
-9.62035e-09
2.05826e-09
-2.83209e-09
2.77272e-09
9.94435e-09
-1.60342e-08
-9.57571e-10
8.59105e-09
2.61744e-10
-6.79453e-09
-3.83787e-10
1.17476e-08
8.70221e-09
-7.63701e-09
4.5363e-09
-5.60149e-09
-9.14492e-09
1.17707e-08
1.78501e-09
-2.22772e-09
6.15275e-10
-6.5071e-09
-1.14553e-09
7.03734e-09
-1.24406e-09
7.7382e-09
-5.87887e-09
9.42431e-09
1.44298e-09
-8.07903e-09
-2.78826e-09
6.78039e-09
8.26273e-09
-5.61881e-09
4.0182e-09
-6.19039e-09
-4.4801e-09
6.65228e-09
-1.35261e-09
5.31831e-09
5.24979e-11
6.92292e-10
-4.19004e-10
-1.80371e-09
7.0933e-09
7.75306e-10
-6.0649e-09
-7.16197e-09
6.68032e-09
-1.32206e-09
5.01137e-10
5.44664e-09
-6.71135e-09
5.96843e-09
2.02356e-09
-7.97601e-10
-9.58769e-10
-3.78864e-09
-3.94933e-09
3.91829e-09
5.28315e-09
-1.87844e-11
-1.95799e-09
8.27444e-09
2.3979e-09
7.26584e-09
-9.07104e-09
-1.52787e-10
-1.12318e-09
-1.21434e-11
8.40116e-09
-7.95679e-10
7.94694e-09
1.11198e-10
4.92113e-09
-6.23848e-09
9.99184e-10
5.3505e-09
-6.15913e-09
4.01761e-09
-4.84071e-09
7.36127e-09
3.38704e-09
2.00073e-09
9.52189e-09
-6.13823e-09
3.37323e-12
-6.54672e-09
7.53376e-09
-1.61475e-09
-2.06078e-10
-9.08104e-09
1.20562e-08
1.54581e-08
-3.1784e-09
-7.62905e-09
-2.22149e-09
9.63266e-09
8.04695e-09
1.00806e-08
5.67275e-09
3.0378e-09
-7.94717e-09
1.01456e-08
7.43426e-09
1.98062e-09
-5.5401e-09
2.01104e-09
5.50968e-09
1.90014e-09
-8.98171e-09
2.16114e-09
4.92042e-09
-6.50044e-09
4.479e-09
3.92158e-09
-2.6269e-09
-6.82059e-10
6.78904e-09
-3.85131e-09
3.31467e-09
2.04416e-09
2.18535e-09
7.1074e-09
2.33276e-09
8.18079e-09
1.48598e-09
-7.70512e-09
-1.96163e-09
3.10487e-09
7.35169e-09
-2.27575e-09
-4.49569e-09
1.14279e-09
6.45778e-09
-3.0672e-09
5.75121e-11
-3.08442e-10
-1.07049e-08
-1.75597e-09
1.27693e-08
-6.61208e-09
-1.40148e-09
3.08471e-09
-9.8699e-09
9.45457e-09
-2.66936e-09
-5.55145e-09
9.77896e-09
-7.87582e-09
-5.07629e-09
7.40067e-09
-7.08396e-09
-1.14885e-09
3.57003e-10
-1.42934e-09
6.74314e-10
-9.94987e-09
-2.62716e-10
-7.7787e-09
4.37459e-09
7.41882e-10
-5.37918e-09
1.35999e-09
-5.2595e-11
3.70267e-09
-6.02403e-09
-4.76259e-09
-1.36259e-11
-1.05392e-08
-4.79585e-10
1.10587e-09
-6.38802e-09
-8.75899e-09
-3.87404e-09
4.85091e-09
5.87393e-09
-6.85077e-09
4.3697e-10
-4.21978e-09
-9.1225e-11
7.34606e-09
-9.46553e-09
2.00797e-09
1.11526e-10
-1.3602e-12
7.30145e-09
4.59864e-11
4.89652e-11
4.80059e-09
-3.7929e-09
2.32133e-11
3.81866e-09
-3.39229e-09
3.63537e-11
-5.57539e-09
5.63521e-09
-3.66137e-11
-3.43067e-10
-5.14178e-09
-9.05341e-11
-4.173e-09
-5.84763e-09
5.55102e-10
-9.07698e-09
-6.51073e-10
9.38499e-09
-3.52339e-10
-5.22697e-09
4.3752e-10
-3.86945e-09
1.24817e-10
-1.2766e-09
-1.19734e-08
1.26416e-09
-7.76774e-09
-4.60423e-09
1.99894e-09
-4.26023e-09
1.01132e-08
-6.15441e-09
3.01416e-10
1.3097e-08
-9.59386e-09
-7.76338e-09
-3.80384e-09
5.51463e-09
8.40245e-09
3.65859e-09
5.63459e-09
1.00598e-10
-5.70585e-09
-3.98861e-09
8.63116e-09
1.10078e-09
-3.94915e-09
-5.78278e-09
-4.89203e-09
-4.12826e-09
5.92e-09
3.10029e-09
3.36485e-10
-3.19557e-09
1.08302e-08
-2.12001e-09
3.31936e-09
-5.31039e-09
-2.90099e-09
5.877e-10
-4.99294e-09
4.92346e-09
-5.18213e-10
1.23198e-08
-7.19992e-09
-1.29718e-08
7.8519e-09
5.08254e-09
1.72862e-10
7.06437e-09
4.05634e-09
1.3352e-08
-1.23258e-08
5.09382e-09
-5.60951e-09
7.01167e-09
-6.49598e-09
1.24052e-08
-3.7197e-09
-3.59165e-09
5.50467e-10
1.21419e-08
-2.87165e-10
8.72055e-09
-8.50355e-09
3.33467e-10
9.16254e-09
-7.87906e-09
-2.43067e-09
1.14719e-09
8.2003e-09
-5.64848e-09
6.61072e-09
5.58681e-10
1.1698e-08
-4.07807e-09
1.33573e-08
-4.56594e-09
1.26297e-08
1.89078e-09
5.59396e-09
-1.30942e-08
7.16026e-09
-1.24694e-08
1.03479e-08
-6.90735e-09
-1.06696e-09
-4.24914e-10
-6.33691e-09
-3.78526e-10
-8.62202e-09
5.95483e-09
-1.5722e-08
-4.34328e-09
2.54665e-08
-5.40125e-09
-1.45281e-08
1.5337e-08
-1.65308e-08
-2.15266e-08
9.38287e-09
5.99115e-10
1.15447e-08
-1.88472e-08
-4.20375e-09
-4.75513e-09
2.7806e-08
-6.85069e-09
8.58071e-09
-2.05772e-08
5.5164e-10
-1.27191e-08
-4.61736e-09
1.67848e-08
2.0964e-08
-1.52372e-08
-5.17514e-09
9.48883e-09
-1.1096e-08
-1.11119e-08
-5.4272e-09
-6.61061e-09
1.18007e-08
-5.82218e-09
-2.05067e-08
1.4474e-08
-8.10049e-09
3.94834e-09
7.93697e-09
-1.77075e-08
8.94221e-09
2.78094e-08
8.22775e-10
-1.32952e-08
4.74604e-09
1.91681e-09
2.11466e-08
1.51004e-08
-4.96967e-09
2.07236e-08
3.75968e-09
-7.98023e-09
2.45001e-08
2.22323e-08
-1.63231e-08
-5.80579e-09
1.73738e-08
-2.20982e-09
1.41741e-09
1.21216e-08
-5.60207e-09
-4.87759e-09
2.33824e-08
-1.0438e-08
1.94935e-08
-1.09608e-08
4.80761e-11
1.06207e-08
2.92045e-10
-8.48249e-09
-1.36047e-09
-1.11785e-09
4.24976e-09
-1.36286e-08
-5.71141e-09
1.50902e-08
-7.359e-09
-5.19551e-10
1.21283e-08
1.14517e-10
-1.56384e-08
-5.10377e-10
-1.42912e-09
1.06975e-09
-1.32692e-08
-7.98742e-09
-8.007e-10
-2.41746e-09
-1.10561e-08
4.9911e-09
-1.42526e-08
4.31634e-10
1.3869e-08
-1.27075e-08
-2.90561e-09
-6.11535e-11
1.46866e-08
-1.32047e-08
-1.42068e-09
-1.14649e-08
-1.30374e-09
-1.42882e-08
-4.04029e-10
1.48067e-08
-7.12821e-10
-1.25056e-08
1.47142e-08
-1.47615e-09
-1.24414e-08
-1.22444e-08
-6.96616e-10
-7.0241e-10
5.92469e-09
8.52031e-09
-1.37426e-08
5.80242e-09
8.52158e-09
-1.50264e-08
-6.79875e-09
9.11775e-09
3.87289e-09
-6.19189e-09
2.06921e-10
8.42019e-09
-2.70242e-09
-2.14891e-09
8.15825e-09
3.62955e-09
-2.00811e-09
-8.99404e-09
5.74162e-09
6.88197e-09
-2.26089e-09
1.78716e-09
-2.37849e-09
8.63918e-09
7.64595e-09
-1.40156e-08
1.40974e-08
-7.72771e-09
-1.13874e-08
1.74243e-08
1.60906e-09
1.04959e-08
-3.76577e-09
-2.07457e-08
5.06289e-09
-5.95443e-09
3.5198e-09
-1.78716e-08
1.79546e-08
-3.60279e-09
-2.10987e-08
2.44937e-08
1.24764e-10
-3.15462e-09
-2.41979e-08
1.05608e-08
1.67917e-08
5.73313e-09
8.53655e-09
-3.62389e-09
-6.47664e-09
-4.84722e-09
-7.96146e-09
-1.54769e-08
-1.0469e-08
1.17349e-08
-2.12826e-08
5.78198e-09
-6.30745e-09
9.74934e-09
1.45127e-08
1.0767e-08
7.41924e-09
-5.31419e-09
-5.80137e-09
2.32382e-08
-1.21226e-08
1.01683e-08
-1.89116e-08
2.36711e-08
1.56169e-08
-7.50587e-09
-1.28375e-09
-2.01098e-09
-3.3281e-09
-1.68954e-08
1.89397e-08
-3.33963e-09
7.41417e-09
-7.99708e-09
-8.6834e-09
2.22584e-09
3.11793e-09
-2.60669e-09
-2.31414e-09
-3.76255e-09
-4.6139e-09
7.85949e-09
-5.85228e-09
-1.01235e-08
-1.13061e-09
1.68271e-09
4.27146e-09
-1.0347e-08
1.89882e-09
-8.31441e-09
2.4624e-09
-8.24464e-09
-2.36074e-08
2.2534e-08
9.31806e-09
-9.08537e-09
4.91757e-09
-4.07685e-09
-1.85156e-08
-1.91717e-08
1.40799e-08
-2.45718e-08
-3.02919e-09
-2.29969e-08
3.92328e-09
-9.81332e-11
-6.47614e-09
-8.23141e-09
-9.86424e-09
-1.32934e-08
-1.61796e-08
9.47795e-09
-1.42256e-08
1.30336e-10
-1.44021e-08
1.33176e-08
1.05625e-08
9.58248e-09
-1.41872e-08
-9.62091e-09
-5.50103e-09
6.81363e-10
-2.9954e-09
1.11369e-08
5.17618e-09
-1.22406e-08
7.87526e-09
-1.13573e-09
9.89182e-09
-1.75284e-08
8.23569e-09
-5.59385e-09
1.19533e-08
3.53238e-09
-1.45252e-08
1.75354e-08
-9.62087e-09
-9.99196e-10
4.32164e-09
5.1341e-09
-2.06585e-08
3.69705e-10
-1.02353e-08
-3.60829e-09
-8.26256e-09
4.3687e-10
4.44299e-09
-4.03929e-09
4.04634e-09
1.59752e-08
-1.44493e-08
-1.22899e-08
7.13297e-09
-3.54075e-10
6.03979e-10
-7.31369e-09
-5.75968e-09
-7.13294e-09
-5.35732e-09
-5.13582e-09
-1.22931e-08
1.05216e-08
4.35901e-09
6.83389e-09
-4.72154e-09
-7.0014e-09
4.95066e-09
5.55221e-09
-1.22613e-08
6.368e-09
-8.55029e-09
-6.48301e-09
2.27763e-09
1.15188e-08
-7.42844e-09
1.14986e-08
-4.96119e-09
-1.61518e-09
6.638e-09
5.05911e-09
4.82431e-09
-7.61858e-09
8.38594e-09
5.5476e-09
-4.47076e-09
8.12641e-09
-9.41533e-09
3.50388e-09
-1.44577e-08
7.99218e-09
-1.14897e-08
2.66659e-09
-1.66515e-08
2.19771e-08
-6.17301e-09
-1.21999e-08
2.10395e-08
2.27201e-08
-1.49904e-08
-6.65349e-10
-1.10184e-08
-1.02383e-08
8.33422e-09
7.58094e-09
-5.67685e-09
9.29705e-10
2.88109e-09
-1.40491e-08
-1.53271e-09
-6.66886e-10
1.3349e-08
-1.11493e-08
1.22594e-08
-1.38533e-09
-1.24067e-08
1.69891e-09
-1.32201e-09
7.57493e-09
-7.95182e-09
8.28147e-09
-7.24944e-09
1.02682e-08
1.08256e-09
-3.01657e-09
-1.6003e-09
-3.12704e-09
1.49956e-08
-4.86812e-09
1.4509e-08
3.70804e-09
1.08039e-08
-3.41263e-09
-1.46689e-08
-6.15088e-09
1.92195e-08
-2.78247e-09
-3.31323e-09
1.05877e-08
3.06466e-10
-8.38419e-09
-6.10481e-09
1.10252e-08
3.36103e-09
-1.8431e-09
-3.73342e-09
1.11941e-08
-1.70716e-09
1.00653e-08
5.58467e-09
-4.54103e-09
-8.17941e-09
1.84526e-08
-5.73214e-09
-9.2892e-09
-1.68384e-08
2.15866e-08
1.74479e-08
-2.23706e-09
-1.55584e-08
-1.72774e-08
2.46564e-08
-1.80577e-08
-6.7755e-10
3.17682e-09
-3.55973e-09
-2.78156e-08
2.54253e-08
5.95e-09
-2.27368e-08
1.11944e-09
-1.21066e-08
-5.44971e-09
-1.02593e-08
-1.7503e-08
-5.59339e-09
3.5953e-10
-1.35381e-08
-1.60715e-08
-2.06473e-08
3.13131e-09
1.42716e-08
-1.29664e-08
2.09271e-08
-9.48619e-09
4.47264e-09
1.92852e-08
-5.96212e-09
1.411e-08
-1.46701e-08
2.15356e-08
-1.23152e-08
3.75143e-09
6.28543e-09
-1.50065e-08
-1.632e-08
-1.34103e-08
1.10029e-08
-3.18593e-09
-2.0663e-08
-5.88476e-09
6.0873e-09
-8.69243e-09
1.43079e-08
-1.02036e-08
4.58814e-09
8.67633e-09
-9.7785e-09
-7.59025e-09
7.26882e-09
-8.04772e-09
-1.183e-09
1.96191e-09
-1.64524e-09
9.74438e-09
-8.30328e-10
-5.97112e-09
-9.21341e-09
7.13681e-09
7.19966e-09
1.13715e-09
1.25344e-09
-1.79053e-09
-3.46006e-09
2.8332e-09
-9.57677e-09
7.08561e-10
-1.39471e-08
7.72133e-09
3.11527e-09
-1.0128e-08
5.93127e-09
2.34012e-09
-5.5006e-10
1.33911e-08
5.16002e-09
-1.76143e-08
-9.36759e-10
1.10218e-09
1.681e-09
1.06079e-08
-2.91395e-09
8.46837e-09
1.45368e-08
-1.4085e-08
4.70823e-09
1.2725e-08
-8.30639e-10
8.01535e-09
-9.66224e-09
1.05466e-08
1.45574e-09
3.12053e-09
-9.6675e-09
-3.97966e-10
-1.40958e-08
-1.16498e-08
9.65531e-09
2.5723e-09
1.58477e-08
-8.0787e-10
-6.5972e-09
-8.44265e-09
8.83595e-09
5.82799e-09
1.52379e-08
-2.99019e-08
1.0972e-08
1.37117e-08
1.7217e-08
-2.64116e-09
-1.26113e-08
-1.96452e-09
-1.81727e-08
1.11092e-08
1.28915e-08
-4.20297e-09
-1.65457e-08
2.57595e-09
-1.03618e-08
8.92709e-09
3.82464e-09
3.03049e-09
-3.9785e-09
1.96899e-08
-6.78433e-09
-1.49438e-08
1.6963e-08
-4.66032e-09
-9.91709e-12
-1.8581e-08
3.64707e-09
-1.74778e-08
5.56725e-09
1.57352e-08
-5.42903e-09
1.08371e-08
-9.61103e-09
2.23682e-08
-2.78071e-08
9.67596e-09
-2.20776e-08
1.23915e-08
1.01934e-11
1.68067e-08
-6.94001e-09
-1.22742e-08
-2.66725e-09
2.18815e-08
-7.45484e-09
-2.07681e-08
9.52763e-09
-1.06742e-08
1.6137e-08
-1.32794e-09
-1.40323e-08
-1.15598e-09
7.44689e-09
9.84605e-09
-1.20963e-08
4.49347e-09
6.44685e-09
-1.70238e-09
-1.17219e-08
4.81473e-09
9.57734e-09
4.75269e-09
-8.10357e-10
-5.64471e-09
-5.20442e-09
5.48463e-09
-4.25499e-10
1.45292e-10
-1.91139e-10
-6.24056e-09
-4.90837e-09
4.08858e-09
5.31325e-09
-2.16878e-10
6.11985e-11
-2.38093e-09
6.54028e-11
6.40411e-09
6.57576e-10
1.77623e-09
-2.3374e-09
-3.85612e-09
6.25892e-09
-5.51937e-09
3.83955e-09
-5.53183e-09
5.54844e-09
-1.36654e-10
8.94572e-11
4.41911e-09
-5.42061e-09
4.18571e-09
-1.92106e-10
-3.90138e-09
-9.13993e-11
6.74563e-11
1.88799e-08
-1.55398e-08
-2.14405e-08
1.81004e-08
-2.25551e-08
1.7078e-08
1.56996e-08
-1.02225e-08
9.37054e-10
-4.61226e-09
3.13555e-09
-5.87925e-09
1.42751e-08
-1.15314e-08
-2.06137e-09
2.22749e-08
1.71757e-08
-1.51715e-08
-8.06191e-09
6.0577e-09
-2.93629e-09
1.42327e-08
2.17301e-09
-1.33492e-08
-2.91965e-09
-1.03804e-08
1.38729e-08
-1.3195e-09
-1.50575e-09
8.80166e-10
-1.49142e-08
-1.83758e-08
2.10226e-08
-1.43064e-08
-3.13236e-09
4.62247e-10
-1.71395e-08
1.46224e-09
-1.13804e-08
1.88616e-09
-1.37731e-08
9.99984e-09
-9.64942e-10
-1.24613e-08
-1.07285e-08
4.70638e-09
3.42619e-09
-1.45436e-08
1.59368e-08
-4.81945e-09
-1.02234e-08
1.4303e-08
-6.53425e-10
5.61456e-10
-1.17612e-09
-9.60872e-09
-9.33482e-10
-1.30486e-08
-1.38347e-09
7.49151e-09
-7.28416e-09
-3.97056e-10
1.20113e-08
-1.29977e-08
-1.1124e-08
4.12439e-09
9.86863e-09
-2.86898e-09
8.33332e-10
-1.23544e-08
-7.08361e-09
1.25838e-08
8.80285e-09
3.05852e-09
5.79471e-09
8.42832e-09
7.64486e-09
-4.06192e-09
1.37146e-08
2.20519e-09
-1.43159e-09
1.36152e-08
-1.31171e-08
-1.05263e-08
1.45457e-08
1.04916e-10
-1.11245e-08
9.64976e-09
7.02395e-09
1.72308e-08
2.82698e-10
-5.82001e-09
1.39259e-08
1.54389e-09
4.93205e-09
2.15719e-09
1.01415e-08
1.38634e-08
4.78329e-09
1.08829e-08
-5.91369e-09
-5.23444e-09
6.18448e-09
4.96365e-09
-5.92799e-09
1.98035e-11
-5.50754e-12
1.09687e-08
-1.17927e-08
-5.10394e-09
1.19739e-09
4.53687e-09
-3.93207e-09
9.28526e-09
8.31285e-10
-2.90181e-09
-1.98021e-09
-6.91072e-09
1.23561e-08
4.79733e-09
-2.58452e-09
-1.45689e-08
1.2254e-08
-4.2431e-09
4.34517e-09
6.01231e-09
-3.70566e-09
-7.23049e-09
4.92385e-09
1.99488e-09
4.15507e-09
-1.3763e-10
4.3267e-09
-3.55018e-09
-3.67833e-09
6.25622e-09
6.53639e-11
-6.26298e-09
5.55877e-09
-3.22787e-09
1.3043e-11
-1.07223e-08
5.29375e-09
6.62593e-09
-4.2443e-09
-8.45821e-09
-1.86091e-09
-8.00097e-09
1.24165e-08
-2.55461e-09
-5.83337e-09
-1.07508e-08
1.47233e-08
-5.24571e-09
-1.24362e-08
1.18485e-08
5.41178e-10
-7.79702e-09
-8.94883e-09
-3.74165e-10
-8.31939e-09
-1.61793e-09
-1.19866e-08
-3.01558e-09
-1.17e-08
-3.14501e-09
-1.18555e-09
1.28529e-08
-1.45127e-08
-1.00402e-08
4.84894e-09
-1.19913e-08
2.87317e-09
-3.97388e-09
-7.21869e-09
-6.59269e-09
-2.5208e-09
-1.09043e-08
-1.70112e-09
-2.33763e-09
-1.79481e-08
5.77303e-09
-2.23566e-09
-1.14795e-08
-1.54776e-08
1.11181e-08
6.94842e-09
-3.28469e-09
-1.47818e-08
1.02763e-08
4.23534e-10
4.18224e-10
-1.1583e-08
8.54888e-09
1.33104e-08
-6.56683e-09
1.9323e-09
6.24474e-09
2.3515e-09
-1.18809e-08
8.5522e-09
-6.25383e-09
3.94638e-09
8.36818e-09
6.07549e-10
-2.14632e-09
3.68377e-09
6.83074e-09
3.75676e-10
6.64891e-09
-9.1709e-09
-1.76779e-09
8.39583e-09
1.92084e-09
-8.65902e-09
4.16528e-09
2.72596e-09
8.35778e-09
-1.05763e-08
4.57001e-09
-5.3067e-09
8.57614e-09
-1.19285e-08
-1.8156e-09
4.86668e-09
2.09216e-08
-1.79035e-08
1.6666e-08
-1.9684e-08
8.52136e-10
1.66647e-08
3.40473e-09
1.41229e-08
-1.56045e-08
-1.39237e-08
1.54054e-08
-1.2934e-08
8.64979e-09
1.84071e-08
1.49622e-08
-5.77904e-09
6.25705e-09
-1.54402e-08
-2.77448e-08
4.06235e-09
1.96961e-08
2.65454e-09
-5.68466e-09
1.18862e-08
2.44746e-08
-2.5225e-09
-6.82496e-09
-5.16261e-09
2.08597e-08
-3.8109e-09
-1.34846e-08
9.91328e-09
-1.5913e-09
1.72429e-08
-1.09305e-08
-8.8349e-09
1.67014e-08
-1.29431e-08
8.0376e-11
6.48869e-09
-1.64956e-10
6.48481e-09
-1.45509e-10
-4.97163e-09
7.06486e-09
4.39157e-09
-7.04733e-09
1.77754e-09
1.61256e-09
3.65724e-09
5.61848e-10
-1.1205e-09
2.77779e-09
-3.90987e-09
2.68768e-09
6.15472e-09
5.88545e-09
-7.77501e-09
3.16203e-10
1.57336e-09
-1.0678e-10
8.67991e-09
7.55451e-09
-6.26571e-09
-7.26957e-10
3.85015e-09
5.31692e-09
-2.57693e-10
-4.73952e-09
8.16561e-09
-1.07472e-08
2.89776e-09
1.1909e-08
3.96617e-09
-8.45565e-09
-7.03869e-09
3.05362e-10
-3.6256e-09
-6.55219e-10
3.97546e-09
-2.57145e-09
3.09431e-09
-2.17505e-10
1.25006e-09
-5.52043e-09
2.65117e-09
1.6192e-09
-4.95506e-09
3.78551e-09
2.41962e-09
-2.5332e-10
5.68246e-10
3.8361e-10
1.75735e-09
-2.73178e-09
6.18222e-09
-2.32722e-09
-2.09765e-09
-1.2635e-09
5.94014e-09
1.50558e-09
1.45893e-09
-2.44874e-10
3.56819e-11
3.12168e-09
-1.53816e-09
4.46689e-09
-2.01159e-09
7.27308e-09
-6.47863e-09
1.1832e-09
4.82638e-09
3.97752e-09
1.9483e-09
4.38372e-09
7.76997e-10
-4.96664e-09
-1.18667e-08
9.99682e-09
6.83648e-09
6.09606e-09
-1.07722e-08
-2.90515e-10
-1.15416e-08
1.17312e-09
1.42133e-08
-3.84484e-09
-6.05652e-09
6.11012e-10
-1.21008e-08
3.13235e-09
-2.89823e-09
-9.67095e-09
-1.3202e-08
-2.95955e-09
1.41295e-08
-8.50803e-09
-2.98278e-09
5.43429e-09
2.00166e-08
-1.61609e-08
-1.5231e-08
1.13752e-08
4.45774e-09
5.32463e-10
2.34675e-09
-1.49405e-08
2.92281e-09
1.4982e-08
-1.34838e-08
2.83855e-09
-8.99982e-09
-9.43989e-09
-3.88243e-09
-1.55778e-09
1.39144e-08
-1.35117e-08
1.15512e-09
1.11196e-08
-1.2346e-08
-3.31426e-10
5.20982e-10
2.87692e-09
7.72173e-09
4.25427e-09
1.01811e-08
-1.08707e-09
-9.17903e-09
-2.07989e-09
4.64919e-09
-5.77528e-09
5.38036e-09
9.95638e-09
-1.22483e-08
-5.40093e-09
7.69282e-09
1.05923e-09
-1.22784e-08
4.30345e-09
1.08519e-08
-1.03533e-08
-3.01224e-09
9.38576e-09
-4.58321e-09
-1.39816e-08
-8.72881e-09
4.60285e-09
-1.02025e-08
1.55652e-08
-8.22315e-09
-1.38189e-09
-7.48217e-10
-8.59396e-09
1.29319e-08
-1.45404e-08
-1.06546e-08
5.36567e-09
-3.30501e-09
-2.41861e-09
1.23636e-08
-2.05996e-08
-7.97791e-09
1.09533e-09
-1.08954e-08
1.15936e-08
1.2399e-08
-1.30971e-08
-6.7491e-10
2.74453e-09
-1.29651e-08
3.1894e-10
-1.21704e-08
1.63305e-08
-4.4791e-09
-1.13062e-08
-3.83865e-09
1.54638e-08
1.03179e-08
2.61147e-09
-1.36043e-08
7.34491e-09
-9.19737e-09
1.32569e-08
1.90574e-09
-1.25511e-08
8.49936e-11
1.86567e-09
-2.83797e-09
2.17764e-08
1.2787e-08
-9.26159e-10
-9.95505e-09
1.09942e-08
1.87779e-09
1.16667e-08
-9.84829e-09
6.28184e-09
6.4869e-09
-1.10209e-09
1.76211e-08
1.0597e-09
1.28834e-08
4.87245e-09
-1.42531e-09
1.26165e-08
4.86451e-09
2.75781e-09
2.00126e-08
-5.14929e-09
1.7677e-08
-2.30262e-09
-6.89157e-09
-5.12431e-09
-9.88646e-10
1.30045e-08
-7.36114e-09
-4.93656e-09
5.40613e-09
8.4183e-09
1.26837e-09
-7.08188e-09
-2.6048e-09
1.20928e-08
3.3076e-09
-1.03062e-08
-5.09427e-09
1.15144e-08
8.92734e-09
-8.34888e-09
2.66249e-09
-1.60533e-09
-7.73214e-09
-4.49679e-09
7.10462e-09
-1.15434e-09
8.72956e-09
2.45992e-09
-7.02266e-09
-4.16681e-09
2.53972e-10
7.89413e-09
5.81452e-10
7.24153e-09
7.15365e-10
-7.70293e-09
8.33161e-09
1.57242e-09
-6.17762e-09
1.35206e-08
1.27295e-08
-6.96203e-09
-4.71285e-09
6.42936e-09
3.51991e-09
1.15477e-08
-1.54993e-08
9.14821e-09
-1.13056e-08
1.45388e-08
1.03341e-08
-9.38814e-09
-1.64452e-08
3.28884e-11
-1.00436e-09
2.5269e-09
-4.87434e-10
7.10876e-09
2.01504e-09
1.50507e-08
5.40995e-10
1.39644e-09
-1.13256e-08
3.77493e-09
6.0518e-09
-6.23638e-09
-3.59035e-09
5.47751e-09
-1.64213e-09
-6.04353e-11
-1.04347e-08
8.96478e-09
6.94743e-09
-2.20412e-09
-2.17878e-09
-1.05934e-08
1.92878e-09
8.17717e-09
-8.61515e-09
-4.18234e-09
6.90961e-09
1.07758e-09
-7.44619e-09
7.59175e-09
-6.49245e-10
6.08587e-10
-7.8273e-09
-5.30102e-10
-5.09769e-09
1.18035e-09
9.71321e-09
-7.25538e-09
2.60053e-10
9.01037e-09
1.62319e-09
-1.28682e-09
5.46038e-09
-4.9129e-09
3.90998e-09
-9.17285e-11
-5.34205e-09
6.78245e-09
1.91127e-10
-6.04194e-09
3.5159e-10
4.46132e-09
1.22905e-09
-6.21994e-09
3.90548e-09
-3.72748e-09
2.04852e-09
7.68463e-09
-7.48255e-09
-2.25059e-09
5.36458e-09
-3.37463e-09
5.85778e-11
1.79633e-09
-1.00841e-09
-8.38562e-09
7.5977e-09
6.30573e-09
1.30009e-09
-7.25422e-09
6.84268e-09
-1.41331e-08
-5.47428e-11
-5.62119e-10
8.30151e-09
-3.99995e-10
5.70984e-09
-9.35614e-09
-4.96357e-10
9.29039e-09
4.75243e-10
-6.85325e-09
-2.97813e-09
-6.69918e-11
-4.35661e-09
-4.94885e-09
4.85689e-09
4.55328e-09
-1.10694e-09
6.35798e-11
4.44289e-09
-1.39694e-09
-3.11294e-09
-3.86803e-11
-5.28733e-09
-1.71997e-09
6.39746e-09
1.39284e-09
-8.79871e-09
-3.13727e-09
2.68149e-09
3.02207e-10
-5.29143e-09
4.75911e-09
1.82016e-08
1.61196e-08
-1.75852e-08
3.97792e-09
1.54955e-08
-1.88822e-09
-3.92632e-09
4.70828e-09
-1.83789e-09
-2.83438e-09
2.57599e-08
3.23611e-09
1.96011e-08
-1.87313e-08
1.63251e-08
-9.57704e-10
3.36386e-09
-9.88852e-09
1.07756e-08
5.97641e-10
2.33473e-08
-1.95933e-08
-4.35168e-09
2.20354e-08
-1.52771e-08
2.66934e-09
2.55678e-09
1.0051e-08
-1.11489e-08
1.92965e-09
8.3103e-09
9.08939e-10
-1.92658e-09
-8.95101e-09
-2.71291e-10
-1.06698e-08
9.01455e-09
3.5849e-09
-1.34311e-09
-1.12533e-08
-2.69612e-09
-9.33829e-09
-3.24272e-09
-9.85466e-09
-6.08487e-09
6.98853e-09
-1.30538e-08
1.62034e-08
-5.84567e-09
-1.53664e-08
9.40167e-09
-1.26162e-08
-1.38897e-08
4.59377e-09
-5.58728e-10
4.57852e-09
2.1365e-09
-1.11781e-09
-5.59721e-09
3.36418e-09
1.24727e-09
-3.29327e-11
7.0167e-09
-5.71084e-09
6.04197e-09
4.3389e-09
4.64782e-09
9.72922e-11
-5.86292e-09
3.69313e-09
8.44531e-10
1.1016e-10
4.71844e-09
2.21958e-10
-5.84577e-10
8.08559e-09
-1.45904e-09
-6.54801e-09
6.29071e-09
1.10183e-09
-8.24125e-09
-1.48079e-09
5.61465e-09
-4.02944e-10
5.21287e-09
5.55087e-09
-9.38728e-09
-4.23394e-09
6.56048e-09
7.06076e-09
-1.53866e-09
-3.50718e-09
1.12327e-08
-5.51823e-09
-7.25315e-09
4.50707e-09
2.49171e-09
6.40275e-09
-3.41778e-09
-4.31402e-09
2.21584e-09
8.50093e-09
-7.85524e-09
-2.74532e-09
6.28654e-09
-9.85393e-09
-1.4191e-09
1.50032e-08
5.92411e-10
-8.2437e-09
-7.35193e-09
8.91988e-09
3.33805e-09
-2.47501e-09
1.12513e-08
1.20365e-08
-7.65626e-09
-4.43671e-09
5.64467e-11
1.61559e-08
-6.59442e-09
-5.16726e-09
-4.09426e-09
-5.36291e-09
-1.28042e-08
9.92346e-09
-5.27397e-09
-2.37025e-09
-8.31524e-09
-1.30071e-08
3.99647e-09
-3.65799e-09
3.84808e-09
-4.18657e-09
5.15178e-09
-4.80808e-10
-6.74496e-10
1.16085e-09
1.83616e-09
-6.655e-09
-4.22319e-09
4.06514e-09
5.30984e-09
-3.14964e-10
-6.01314e-11
-4.88582e-09
5.28151e-09
-8.76502e-10
3.34304e-09
-7.068e-09
4.14977e-09
2.68833e-09
-5.00194e-09
3.87738e-09
-4.25604e-11
-6.60851e-10
8.6979e-09
-4.69402e-09
6.37065e-09
-4.34317e-09
4.71071e-09
7.38446e-09
-3.39727e-09
6.12752e-09
3.8647e-09
9.94522e-10
4.05031e-09
1.32585e-09
2.6263e-09
5.75269e-09
2.46629e-10
8.5072e-09
6.08654e-09
-1.77477e-09
1.819e-09
-1.1819e-08
7.24138e-09
2.75859e-09
-1.00921e-08
6.79232e-09
5.11881e-09
-6.35553e-09
-3.65031e-09
5.18459e-10
9.48739e-09
7.34426e-10
-7.41092e-09
3.20973e-10
1.11613e-09
-4.03201e-09
-1.12943e-09
-6.24487e-09
-4.44467e-09
-5.75298e-09
-5.46858e-09
2.15344e-10
-5.46611e-09
9.05231e-09
-3.80154e-09
-3.8662e-09
1.1626e-08
-2.38947e-09
5.31559e-09
-1.17528e-09
5.72204e-10
-6.80785e-09
-6.33851e-09
-1.08164e-09
6.17328e-09
-2.34431e-09
-3.61363e-09
4.58726e-10
3.75641e-09
1.95815e-09
-2.41085e-09
3.07992e-09
-6.42204e-09
-1.10388e-08
2.2894e-09
-5.74278e-09