/*--------------------------------*- C++ -*----------------------------------*\
| =========                 |                                                 |
| \\      /  F ield         | OpenFOAM: The Open Source CFD Toolbox           |
|  \\    /   O peration     | Version:  v1612+                                |
|   \\  /    A nd           | Web:      www.OpenFOAM.com                      |
|    \\/     M anipulation  |                                                 |
\*---------------------------------------------------------------------------*/
FoamFile
{
    version     2.0;
    format      ascii;
    class       surfaceScalarField;
    location    "100";
    object      phi;
}
// * * * * * * * * * * * * * * * * * * * * * * * * * * * * * * * * * * * * * //

dimensions      [0 3 -1 0 0 0 0];

internalField   nonuniform List<scalar> 
37322
(
1.00172e-09
2.44402e-09
-9.1252e-09
5.67947e-09
8.56697e-09
-4.41576e-09
1.35958e-08
-1.7747e-08
-9.49425e-10
1.8644e-08
-9.12761e-09
-2.88011e-09
-4.16155e-09
-5.85461e-09
1.28963e-08
-2.63076e-09
-4.51376e-09
4.26441e-09
-4.06481e-09
-1.0303e-08
1.02062e-08
-7.62483e-09
9.2923e-10
2.76172e-09
4.72355e-09
-1.1901e-08
4.80603e-09
-6.722e-09
4.6777e-09
4.95663e-09
7.0914e-09
-7.32451e-09
5.31364e-09
-6.54473e-10
2.97439e-10
1.72132e-08
-6.21307e-10
-2.99612e-09
8.66168e-09
-4.80508e-09
-1.42909e-09
-9.4879e-09
5.06236e-09
-6.65018e-09
7.07327e-10
-6.80956e-09
-9.38454e-09
5.89105e-09
-6.10832e-09
1.38336e-08
5.72611e-09
8.16973e-09
-1.69964e-09
6.83319e-09
2.43777e-09
-3.16063e-09
2.7613e-10
-5.4632e-09
-4.73889e-09
-1.13111e-09
4.26474e-09
1.60526e-09
-2.7141e-09
2.83257e-09
-4.85735e-09
5.21009e-09
9.27762e-10
-8.85196e-09
3.69048e-09
3.88504e-10
2.23078e-09
-4.11223e-09
-1.90675e-09
3.78812e-09
-2.64417e-09
-3.88444e-10
5.26339e-09
-2.38006e-09
2.20646e-09
4.43833e-09
5.09868e-10
-5.73727e-11
4.09617e-09
1.85084e-09
-5.01924e-09
4.29843e-10
-3.97872e-09
-5.63344e-10
-2.29952e-09
8.51904e-11
-2.78228e-09
3.61191e-09
2.86082e-09
-2.66484e-09
1.74972e-09
-4.46694e-11
3.56772e-09
6.11833e-11
5.78938e-09
-5.44302e-10
-9.70743e-09
4.46235e-09
5.95413e-09
2.51349e-09
-7.46589e-09
7.94997e-09
-7.93936e-09
2.43341e-09
-6.33592e-09
2.31635e-09
4.26785e-09
-2.65381e-09
-3.33305e-09
-4.20672e-09
3.28706e-09
4.25271e-09
-5.52001e-10
-2.83649e-09
5.54218e-11
2.62774e-09
-3.1354e-09
-4.4375e-11
-3.78067e-09
-4.2094e-11
-3.83958e-10
-3.09015e-09
-3.52701e-09
-6.47556e-10
-2.29447e-09
6.22909e-09
3.1548e-09
-2.60358e-09
2.07651e-09
-2.04825e-09
4.55549e-09
-5.89398e-09
-1.46683e-09
5.06634e-09
-5.43444e-09
-5.01639e-10
-7.63587e-10
8.41373e-09
-1.83525e-10
-7.46663e-09
-5.75263e-10
5.08871e-09
-5.27706e-09
2.29884e-11
-3.73365e-09
5.59982e-10
-3.62715e-09
-5.95718e-09
2.44209e-09
1.74722e-09
7.3791e-10
4.20377e-09
-5.05799e-09
-4.21672e-09
-2.53039e-08
2.55358e-08
3.9848e-09
-2.23734e-09
-2.81174e-08
2.6138e-08
-3.25843e-08
1.92955e-08
1.28471e-09
1.20041e-08
-1.75005e-08
6.5105e-09
-2.15943e-08
-2.21501e-09
2.75165e-09
1.87588e-08
-3.00329e-08
2.55806e-08
2.56416e-08
-6.07462e-09
-3.24637e-08
1.28967e-08
6.14586e-10
7.52649e-09
5.75272e-09
-2.56145e-08
-5.44209e-09
1.26627e-08
3.75719e-09
4.71532e-09
-2.11351e-08
-2.36729e-08
1.50266e-08
9.93094e-09
6.52568e-09
-1.67666e-08
-1.3432e-08
-1.24056e-08
1.53905e-08
-2.33309e-10
-1.96091e-08
-2.75556e-09
-2.42232e-08
-2.54189e-08
1.05822e-08
-4.51979e-08
2.85411e-08
4.66821e-09
-2.83767e-08
-1.90598e-09
-1.61883e-08
3.4729e-09
1.73836e-08
-1.20777e-08
1.46987e-08
-1.1639e-09
-4.38808e-09
1.25197e-08
-3.03142e-08
-4.83249e-09
-9.3218e-09
2.96346e-09
1.09764e-08
-4.61798e-09
-1.95107e-09
3.8983e-09
-1.1269e-08
-7.45862e-09
1.16039e-08
-1.18176e-09
-1.09714e-08
1.56168e-09
4.60075e-09
4.09305e-09
-6.27714e-09
-2.41667e-09
6.45868e-09
-1.87091e-09
1.29754e-11
-2.49454e-09
3.18707e-12
-4.26991e-09
6.76125e-09
3.55716e-09
2.32441e-09
-1.98326e-09
1.03471e-08
4.18646e-09
1.4924e-08
-1.32273e-09
-1.99741e-09
-1.0927e-08
2.79608e-09
4.13908e-09
3.99187e-09
-8.80793e-09
-4.61365e-09
4.21391e-09
-1.61455e-09
1.49368e-09
4.57685e-09
6.09574e-09
-1.57282e-08
9.42718e-09
-5.30564e-09
1.16066e-08
1.45888e-08
-1.5393e-08
-3.94954e-09
7.70027e-09
7.09325e-09
-1.19974e-08
-1.57214e-08
3.13025e-09
2.20183e-08
-1.6656e-09
5.33012e-10
1.75134e-09
8.41961e-09
-5.59409e-09
3.42686e-09
7.0454e-09
-1.01073e-09
1.1927e-08
3.92622e-09
-3.00196e-09
-2.59928e-09
1.67501e-09
-2.46936e-09
1.36483e-09
5.03075e-09
-2.8563e-09
1.61548e-09
5.79631e-09
-7.32376e-10
-4.7425e-11
1.35147e-09
-3.01172e-09
-1.34172e-09
-1.28214e-09
1.64242e-10
-3.22402e-09
6.20432e-09
4.92213e-09
-5.70406e-09
-2.04558e-09
3.10622e-11
-1.16919e-09
-8.84016e-10
-5.46077e-10
1.88881e-09
-3.19648e-09
-2.29211e-09
-3.50013e-09
-9.52154e-10
1.9151e-08
1.03933e-08
-3.96249e-09
-1.98413e-08
5.77296e-09
8.05879e-09
6.00953e-09
2.21061e-09
-1.16586e-08
-8.42858e-09
1.05305e-08
3.67107e-09
-1.96483e-08
-4.81758e-09
1.60373e-08
-9.41965e-09
-8.01806e-09
-2.32755e-08
3.22805e-09
1.52299e-08
8.45346e-09
-7.73576e-09
-2.39932e-08
2.34123e-08
3.79997e-09
1.99329e-08
6.70746e-09
7.35109e-09
-4.33449e-09
1.43686e-08
-1.73852e-08
-4.14191e-09
1.42903e-08
-2.79734e-09
4.75585e-09
1.0339e-08
-1.94293e-08
1.0425e-08
-9.81108e-09
6.16414e-09
-3.50943e-09
1.17138e-08
1.17584e-08
8.69611e-09
1.10777e-08
-4.47202e-09
3.73327e-09
3.44815e-09
3.56316e-09
4.74709e-09
1.33251e-08
-1.49639e-08
5.08698e-09
-9.68691e-09
4.66667e-09
1.6098e-08
-1.0727e-08
1.14651e-08
7.09725e-09
-9.67813e-10
-2.43007e-09
-3.69936e-09
-2.79166e-09
6.86398e-09
3.02495e-09
-4.16524e-09
-1.85675e-09
5.1131e-09
9.0889e-10
6.14794e-09
-4.07088e-10
-9.90608e-09
-1.07041e-08
1.05764e-08
-1.72906e-09
6.66697e-09
-1.12231e-08
-1.66174e-09
-5.14202e-09
5.15909e-09
1.64468e-09
-4.6661e-09
3.04872e-09
-4.43505e-11
1.12115e-08
-7.06618e-09
4.64244e-09
-2.96014e-09
-4.11236e-09
1.79499e-09
5.57955e-11
4.36568e-09
-7.73291e-09
-7.43386e-09
8.49694e-09
9.51334e-09
-1.39592e-11
-7.52918e-10
-4.58982e-09
-5.66155e-10
-4.89024e-09
2.45219e-09
5.92983e-09
2.82945e-09
4.72774e-09
4.58844e-09
4.6299e-09
2.13811e-10
4.2319e-09
5.55711e-09
3.21656e-09
1.12102e-08
1.21762e-08
-9.31811e-10
1.87236e-08
4.22856e-09
-2.20204e-08
3.60609e-09
-2.15679e-08
1.703e-08
-1.64274e-08
1.80039e-08
-2.92133e-09
1.34476e-09
-1.6673e-08
2.17356e-09
2.32602e-09
1.21734e-08
3.92453e-09
-1.85203e-08
-2.07725e-09
1.1538e-08
-9.24183e-09
-1.22154e-09
1.0539e-08
-5.71135e-09
1.35105e-08
-1.05034e-08
2.66137e-08
-9.69546e-09
-4.88522e-09
-1.20331e-08
7.18605e-09
2.16012e-08
1.2456e-08
-1.09506e-08
1.20051e-08
-2.80971e-09
-3.68428e-09
2.44978e-08
-5.37669e-09
1.6996e-08
-1.44291e-08
-1.60832e-08
1.30325e-08
2.9735e-10
-1.76767e-08
2.53424e-08
-1.6973e-08
-1.32547e-08
2.88442e-08
1.01723e-08
1.11716e-08
-1.42235e-08
-7.12038e-09
7.76601e-10
1.23505e-08
-2.95485e-09
1.33516e-08
-8.61737e-09
4.29034e-11
-4.77714e-09
-3.00254e-09
8.15214e-09
8.20201e-09
-1.14897e-08
4.25935e-09
4.22779e-09
-1.24573e-08
-7.64975e-09
1.14273e-08
-7.26947e-09
-4.11494e-09
1.06497e-08
-1.43302e-09
2.21054e-09
-8.47726e-09
1.08988e-08
-1.6449e-09
-1.12289e-08
-4.5178e-09
-1.3212e-10
7.98252e-09
3.32115e-09
8.61866e-09
3.59974e-09
4.67815e-09
1.41237e-08
6.40539e-09
5.83649e-09
9.11481e-09
3.50915e-10
-7.14171e-09
1.82253e-08
1.05918e-08
-8.53996e-09
1.11571e-08
-4.72708e-10
-2.14441e-09
3.08119e-09
-9.73588e-09
-1.8853e-09
9.19713e-09
-6.97371e-09
8.57742e-10
1.37777e-09
-3.12159e-10
-3.12194e-09
8.76053e-09
3.55852e-09
7.10609e-10
2.40812e-08
-8.73846e-09
3.69e-09
-1.90328e-08
-2.10092e-09
2.3186e-08
1.1659e-08
-1.44081e-08
-5.98933e-09
2.20178e-10
9.33792e-09
1.17131e-09
-6.76727e-09
7.28107e-09
-1.77194e-09
6.44498e-10
-1.61648e-08
1.72922e-08
-1.35203e-08
-1.44541e-09
1.31938e-08
-1.25924e-08
3.63783e-09
2.96516e-09
-1.99675e-09
-4.60623e-09
5.27368e-10
3.91939e-09
-8.08898e-10
4.84751e-09
-3.8353e-09
-4.84829e-10
-2.50055e-09
2.86367e-09
3.55628e-09
5.21333e-10
-5.67096e-11
7.27633e-10
-1.73986e-09
5.85975e-09
-9.17191e-10
4.50849e-09
-2.84897e-09
4.93671e-09
-5.92301e-09
2.80708e-09
-7.65279e-09
-1.07051e-09
-2.51341e-09
2.66673e-09
1.07685e-10
-3.94057e-09
2.76238e-09
-5.91079e-09
4.27862e-09
-8.09971e-10
-1.64091e-10
3.3233e-09
-1.32619e-09
2.04118e-09
-2.65844e-09
4.91e-11
-3.59139e-09
1.03372e-09
-1.2172e-08
1.47297e-08
6.40323e-09
-1.10737e-09
-8.88724e-09
6.97022e-09
7.91406e-10
-1.35839e-09
-1.05842e-08
4.90901e-09
8.56902e-09
-2.8938e-09
-1.85243e-09
-7.69804e-09
7.19791e-09
-4.15922e-09
3.93154e-09
4.21489e-09
-5.06053e-09
5.72857e-10
2.72796e-10
-2.63861e-09
4.0378e-09
-6.06221e-09
4.66302e-09
1.69171e-09
-5.43767e-09
3.59446e-09
-1.86092e-09
-9.42128e-10
2.37667e-09
8.43002e-11
4.64587e-10
-2.92554e-09
3.7524e-09
3.13061e-09
-4.50634e-09
-3.85732e-09
6.83595e-09
1.93039e-09
4.32486e-09
-4.48557e-09
6.03775e-09
-4.80083e-09
2.51548e-09
5.51852e-10
-2.37364e-09
-7.57244e-09
6.35374e-09
3.59232e-09
-9.55953e-09
5.47516e-09
1.7107e-09
-6.91474e-09
2.99437e-09
-3.6521e-09
-3.42389e-09
-1.30504e-08
-4.17498e-09
4.54859e-09
5.98012e-09
1.89121e-09
-9.50328e-09
9.62479e-09
-2.01274e-09
-4.75724e-09
6.24014e-09
4.08295e-10
-5.98446e-09
9.71026e-10
2.56161e-10
-6.89065e-09
-8.59709e-09
-2.09592e-10
-5.58869e-09
9.67767e-10
9.16951e-09
-1.6109e-09
1.49735e-09
9.69608e-09
-1.25116e-08
1.2046e-09
-1.28263e-08
8.33318e-09
1.41892e-08
8.31741e-09
1.71475e-10
1.13589e-09
6.09697e-09
8.46058e-09
1.44838e-08
-1.01708e-08
-1.68247e-08
1.829e-09
-2.04853e-08
1.53979e-08
-5.66381e-09
6.72679e-09
2.05815e-10
-1.26882e-09
5.5829e-10
1.64944e-09
-7.87155e-09
6.7632e-10
6.7776e-09
-7.27143e-10
-4.62607e-09
5.13819e-09
1.64187e-10
-7.89502e-09
9.69051e-09
-1.58968e-09
2.76216e-09
-1.00989e-08
1.98083e-09
-4.95747e-09
4.26749e-09
-8.86618e-10
3.39671e-09
-4.75009e-09
3.44601e-09
5.57155e-09
3.12696e-10
7.53813e-11
9.66482e-09
2.35959e-10
-7.91995e-09
5.62029e-09
9.31824e-09
-5.27372e-09
-5.79894e-09
5.21238e-09
-5.57434e-09
6.1609e-09
1.34045e-10
5.38794e-09
3.41595e-09
-1.58817e-09
1.02465e-08
1.31264e-08
-1.01283e-08
-8.80088e-10
4.62398e-09
-6.84295e-09
1.06427e-08
5.40338e-09
8.32571e-09
-7.90331e-09
3.15423e-09
-3.57665e-09
8.70708e-09
7.49418e-10
-1.13082e-09
-7.56668e-10
-8.51427e-09
1.36762e-09
-3.03876e-10
4.93042e-09
7.99473e-09
-1.26213e-08
3.11691e-09
5.28629e-09
-1.48636e-09
5.75607e-09
-4.57221e-09
3.02492e-10
-9.57371e-09
1.62971e-09
-2.9278e-10
8.23676e-09
4.55919e-09
-5.88852e-09
-1.57042e-10
2.97139e-09
-7.98591e-09
-1.69527e-08
2.28565e-09
1.62968e-08
-7.87825e-09
1.74063e-09
1.1068e-08
-4.48463e-09
2.52298e-09
5.07856e-09
-1.65318e-09
3.22774e-10
4.70662e-09
4.36223e-09
5.73089e-09
-1.85637e-09
-1.66114e-08
-5.97022e-09
1.47033e-08
-2.98129e-09
7.24491e-09
-2.78931e-09
4.17024e-09
2.64132e-10
1.12364e-08
-4.21143e-09
6.6001e-09
-1.36251e-08
2.17522e-09
2.50614e-09
6.55498e-09
2.27711e-09
1.50476e-09
2.02848e-09
-5.81043e-09
9.33255e-11
-2.02768e-09
2.92886e-09
2.58692e-09
-4.01104e-09
5.17519e-09
-2.15301e-09
1.35088e-08
-5.23869e-10
-6.38484e-09
1.12245e-08
4.45946e-09
3.5107e-09
2.67092e-09
-4.15326e-09
6.32751e-09
-3.34069e-09
-1.04371e-09
4.47678e-09
1.74209e-09
1.61765e-09
-7.44565e-11
-1.78691e-09
2.95696e-09
5.15736e-09
9.75923e-10
-9.20387e-11
-9.62809e-10
-1.73353e-09
3.49208e-09
-7.9606e-10
-1.06403e-09
-1.9247e-09
2.02573e-09
-2.49382e-09
-3.03813e-10
5.05821e-09
9.97418e-11
-2.03572e-09
3.84109e-09
-3.11698e-10
-2.93961e-09
9.9362e-10
-8.97493e-11
9.97622e-09
-7.88313e-10
-5.00144e-09
9.76515e-09
3.63792e-09
-2.90567e-09
4.62041e-09
-2.50303e-09
-9.05087e-10
-2.06662e-09
3.21095e-11
-3.16144e-09
-1.60308e-10
2.92175e-09
-6.61014e-09
1.70514e-09
-4.18924e-09
-8.36054e-09
7.57912e-09
4.23819e-09
-3.45676e-09
-3.48849e-10
-4.40962e-09
-3.60207e-09
1.87592e-09
2.38197e-09
-5.7369e-09
1.479e-09
-5.17348e-09
-4.72915e-09
1.23639e-09
8.66625e-09
5.08354e-11
1.75919e-09
-6.98352e-09
-3.25549e-10
3.17552e-09
1.92413e-09
-2.99779e-09
-2.52932e-09
3.60298e-09
-2.35685e-09
5.51737e-09
3.77645e-09
-2.24938e-09
3.73877e-09
2.99188e-09
-4.34869e-09
4.2354e-09
-4.34172e-10
-6.24529e-11
-3.95573e-09
1.00877e-09
2.28989e-09
-3.99282e-09
1.37739e-09
-1.02689e-09
9.5991e-10
-3.38989e-09
-1.66324e-10
1.39849e-09
-1.61487e-09
-9.62823e-10
1.24249e-09
2.10394e-09
-7.48883e-11
1.12529e-10
1.03666e-08
9.35783e-10
-8.69909e-09
-2.60331e-09
-1.19816e-09
-3.16492e-10
1.18812e-08
-1.12446e-08
-1.8848e-09
1.19312e-08
-5.34047e-09
-5.41696e-09
-4.8713e-10
8.64859e-09
-6.44966e-09
-1.26316e-09
-1.23114e-09
9.56322e-09
2.75001e-10
4.17313e-09
3.371e-09
2.50432e-09
2.99004e-09
-5.21938e-09
-8.47e-09
-5.56956e-09
5.95215e-09
-5.98745e-09
-5.38167e-09
-3.87865e-10
4.45521e-09
-4.12172e-09
-8.44541e-10
3.73512e-09
3.32348e-10
-2.14667e-09
4.12865e-10
6.09104e-09
-3.17384e-09
2.26005e-09
4.10553e-09
-3.37554e-09
3.91186e-09
-1.31946e-09
2.97701e-09
-3.33563e-09
-1.21059e-09
6.58904e-11
-4.24834e-09
3.01593e-09
-2.93456e-09
2.59809e-09
-3.96215e-11
4.90515e-09
1.93059e-10
-7.85159e-09
2.75341e-09
-9.11466e-09
2.28389e-09
1.17359e-08
-2.78567e-09
-4.01938e-09
8.76151e-10
5.92891e-09
-4.2951e-09
1.70249e-09
-8.24773e-09
-6.39271e-09
5.52577e-09
-8.35876e-09
-7.74055e-09
3.44444e-09
3.07331e-09
-2.25418e-09
-4.26357e-09
1.09781e-09
2.39801e-09
-5.13777e-11
3.07355e-09
-2.36011e-09
-5.00854e-09
1.51982e-10
-3.88489e-09
7.04494e-09
3.53703e-09
-2.3471e-09
-9.5487e-09
-4.10018e-10
-2.44566e-09
-4.17787e-09
2.69098e-09
-1.51458e-09
-6.96139e-09
1.30011e-08
1.28689e-08
-1.46619e-08
-1.1208e-08
2.2407e-08
-2.26867e-09
-7.13727e-09
-1.36357e-08
1.56061e-08
2.04366e-08
-1.99361e-09
1.2268e-09
-1.44657e-09
-1.4982e-08
1.11341e-08
5.29451e-09
8.32697e-09
5.83258e-09
-8.58576e-09
1.43292e-08
7.58164e-09
3.49496e-09
3.06516e-09
-1.51459e-08
1.8295e-08
-2.97138e-08
-5.47017e-09
-1.17878e-08
2.596e-09
-7.64705e-09
3.02799e-09
8.11402e-09
2.08693e-09
-1.72026e-08
1.16062e-08
-9.90927e-09
2.686e-10
-1.32925e-08
2.22132e-09
-9.18331e-09
3.22767e-09
3.73433e-09
4.99961e-09
6.82173e-09
-9.6e-09
1.60231e-09
2.19119e-09
-3.71109e-09
-8.23565e-11
1.38276e-09
1.50134e-09
-1.28173e-09
-1.10924e-09
-3.40326e-09
4.53709e-09
-2.45509e-11
-1.01194e-09
-1.04798e-08
2.30844e-09
4.42427e-09
-9.56585e-10
1.53194e-09
-4.08711e-09
1.33653e-09
-1.94051e-09
4.46529e-11
-6.39014e-10
-4.18129e-09
-4.8839e-09
-2.5795e-09
5.52292e-09
-6.53484e-09
-3.77892e-09
2.28735e-09
-2.74555e-09
4.23711e-09
-4.75718e-10
-3.7423e-09
4.39083e-10
5.73936e-09
1.40788e-10
-6.35587e-09
2.99564e-09
-3.26232e-09
6.00604e-09
6.95801e-09
1.8331e-09
-2.85902e-09
-2.71638e-09
-8.87159e-10
-2.53075e-11
-2.49372e-10
-3.89696e-09
-2.2259e-09
-3.00011e-12
1.30331e-09
1.87542e-09
-3.2147e-09
-6.59486e-09
-2.35541e-09
5.73989e-09
3.21038e-09
2.85166e-09
-5.16721e-09
-4.27931e-09
6.36851e-09
3.49249e-09
-1.22164e-08
-2.57637e-09
3.20817e-09
5.10809e-09
3.47274e-10
-7.19814e-11
5.26387e-09
4.58311e-10
5.95596e-10
-6.31778e-09
8.25094e-09
-1.00204e-08
8.138e-09
4.07144e-09
9.44336e-09
3.0302e-09
4.23082e-09
-4.60062e-09
-2.66041e-09
3.52532e-09
-1.47846e-10
5.58678e-10
1.92542e-09
7.2403e-10
1.77404e-09
2.85607e-09
-2.34357e-09
6.04303e-09
4.11966e-09
5.69467e-10
5.30141e-09
1.46128e-08
-4.35926e-09
-4.58214e-09
-5.67139e-09
-2.29044e-09
-4.2013e-10
1.73234e-08
9.52365e-09
-8.81657e-09
-1.29978e-09
8.53299e-09
6.14545e-09
-5.80547e-09
-1.19585e-09
6.92116e-09
6.90666e-11
4.86024e-09
1.23293e-09
4.63245e-09
6.2414e-09
-3.34531e-09
2.39737e-09
-1.71469e-09
2.66262e-09
-3.13928e-09
4.16759e-10
-6.22803e-10
-1.5648e-09
5.5406e-11
6.55755e-09
-5.04818e-09
5.94847e-10
1.64364e-09
-3.8033e-09
-1.74491e-09
7.38389e-09
-5.58359e-09
3.55631e-09
-4.70637e-09
2.25206e-09
-3.74771e-09
-2.21562e-09
4.39338e-10
4.17364e-09
-1.80008e-09
1.21687e-12
2.19695e-09
2.64588e-09
-2.64096e-10
5.13457e-09
2.51339e-09
-5.24044e-09
3.36441e-09
1.61192e-09
1.80976e-09
-3.49389e-09
5.49449e-10
-9.74741e-11
2.32368e-09
5.00782e-09
-2.40646e-09
2.23821e-09
3.53265e-09
-4.72532e-11
5.00124e-09
9.64555e-10
4.35342e-09
-1.15826e-09
3.31457e-09
-2.65652e-11
2.15486e-09
3.15001e-09
-9.51446e-10
1.03914e-09
4.43027e-09
4.80747e-09
5.13154e-09
2.53028e-09
9.34662e-09
-2.34758e-09
8.37689e-09
6.34291e-09
6.65696e-09
9.85139e-09
-2.28513e-08
1.00944e-08
1.32289e-08
-1.69804e-08
-4.821e-09
-1.76349e-08
1.44536e-08
8.00234e-09
-1.65563e-08
1.05993e-08
1.13605e-09
9.74999e-09
-1.28069e-08
-1.4578e-08
-5.5829e-09
-1.22345e-09
-6.77793e-09
9.39519e-09
7.982e-09
5.95993e-09
-1.21099e-08
1.78832e-08
-1.8289e-09
-2.32051e-09
1.7128e-08
-1.57858e-09
1.20506e-08
-4.51972e-09
-9.86031e-09
9.64405e-09
1.46698e-08
1.11553e-08
-4.68758e-09
-4.75039e-10
4.85235e-09
-1.6346e-08
6.40453e-09
9.46649e-09
-1.53872e-08
-2.62482e-09
1.6028e-09
1.64092e-08
-7.36426e-09
-1.84285e-09
1.2001e-08
2.94776e-09
6.18393e-10
-9.40437e-09
-2.94776e-09
2.43531e-08
-1.24861e-08
6.0295e-09
-2.34312e-08
1.56102e-08
-1.35064e-08
2.13274e-08
-3.58691e-11
-2.51745e-08
1.77916e-09
-2.89584e-09
4.75898e-09
-1.86149e-08
3.12773e-08
1.48663e-09
1.97801e-08
3.37786e-09
-2.34621e-09
2.64546e-08
1.14748e-08
-3.55832e-08
8.67705e-10
-4.7916e-09
-1.44331e-08
1.8357e-08
2.53482e-08
-1.85012e-08
-3.71022e-09
-3.13683e-09
-5.28177e-09
8.5583e-09
2.20717e-08
2.56924e-08
-5.94397e-09
-1.88807e-08
1.80645e-08
8.72619e-09
-1.96741e-09
-1.15504e-08
-5.38171e-09
2.32015e-09
2.55826e-09
-2.8767e-09
-1.08895e-08
1.03199e-08
3.66134e-09
-1.59486e-08
6.8254e-09
5.85449e-09
-2.35996e-09
-1.60366e-08
1.66262e-08
1.43774e-08
-1.4967e-08
-1.28883e-08
1.91779e-08
-6.84498e-09
-1.76002e-08
1.33224e-08
-1.6506e-08
4.1112e-09
-1.60368e-08
1.06086e-08
-7.46014e-09
5.14083e-09
-1.59801e-08
2.19261e-09
8.64673e-09
-2.43729e-08
-3.52782e-09
1.88273e-08
9.07335e-09
7.19624e-09
-6.72655e-09
1.38595e-08
-1.07906e-08
2.02598e-08
-7.30786e-09
-2.16139e-09
-2.89906e-09
-6.95323e-10
1.41625e-08
4.97605e-09
-8.8501e-09
-1.02885e-08
1.35581e-08
2.54481e-09
-1.9404e-09
-8.81643e-10
-1.02429e-08
1.17862e-08
-6.6171e-10
1.38221e-08
-1.14565e-09
1.60152e-08
1.15601e-08
-1.2328e-09
-2.63425e-08
4.25308e-09
1.51926e-09
2.72815e-08
1.20058e-08
-2.77272e-08
2.25304e-08
9.00418e-09
1.99607e-08
5.69146e-09
-1.36464e-08
1.377e-08
1.06712e-08
-4.48047e-09
2.28452e-08
-6.44629e-09
-1.14228e-08
2.5923e-08
-7.34143e-09
1.06304e-08
1.05332e-08
5.90713e-09
-1.599e-08
2.77599e-08
-7.75366e-09
-1.43147e-08
7.4732e-09
1.11083e-08
-2.69407e-08
1.41261e-08
2.65847e-08
-3.04085e-09
3.85995e-09
-2.54418e-08
1.51934e-08
1.77216e-08
-3.01356e-08
1.65295e-09
-1.09416e-08
1.14881e-09
2.04232e-08
1.07082e-08
-9.8635e-09
1.48288e-08
-1.66753e-08
-2.17531e-08
3.04682e-08
9.50019e-09
-1.38574e-08
-2.19853e-08
-1.79919e-09
-2.03034e-08
7.78787e-09
5.34292e-09
-2.07885e-08
-5.56439e-09
3.52132e-08
-5.83262e-09
1.85768e-08
8.85372e-09
7.78263e-09
2.18344e-08
1.46884e-08
-2.42419e-08
7.5823e-09
3.20092e-08
-1.53495e-08
-2.92785e-08
4.02861e-10
4.63372e-09
-1.11012e-08
-2.0071e-08
1.89371e-09
1.08854e-08
-1.2827e-08
2.3445e-09
-3.278e-09
2.17457e-08
-5.20685e-09
-5.97206e-09
1.69726e-08
-5.79371e-09
-3.82077e-09
6.85944e-09
-8.24552e-09
-2.1236e-10
-1.64402e-08
1.28788e-08
3.77376e-09
1.37624e-08
-1.77908e-08
3.81611e-09
-9.5103e-09
-1.05401e-08
1.67724e-08
7.01791e-09
-2.76583e-09
4.49661e-09
3.73555e-09
-1.20529e-08
-1.25766e-08
1.57496e-09
2.57069e-09
8.22504e-11
-9.66295e-09
-7.33836e-09
-1.03702e-08
3.91366e-09
-1.30575e-08
9.45473e-09
-1.42754e-08
1.21087e-08
2.1499e-09
1.68134e-11
5.09875e-10
4.13826e-09
-1.89236e-08
-1.05123e-08
1.19455e-08
1.06755e-08
3.46958e-09
-1.3472e-08
8.04795e-09
-6.19012e-10
-1.11489e-08
3.71996e-09
1.36848e-09
-8.59641e-09
1.52759e-08
-1.46304e-08
1.41031e-08
2.67712e-09
3.58806e-09
-1.40802e-08
-8.53238e-09
-9.21502e-09
1.91159e-08
2.79409e-09
1.28401e-08
3.11745e-09
-1.2488e-08
1.87696e-09
-1.8577e-10
-9.34805e-09
2.62862e-09
1.4494e-08
-7.78846e-09
-1.53894e-09
6.42707e-09
3.60699e-09
2.8411e-08
-2.20105e-08
-6.79986e-09
3.99281e-10
6.43762e-09
1.23686e-09
2.07366e-08
-4.26844e-09
2.07093e-08
-1.42923e-08
-2.14855e-09
-1.82678e-08
-8.01117e-09
-5.15928e-09
6.83749e-09
-1.9946e-08
2.67083e-09
1.42015e-08
-2.20316e-08
6.14486e-09
1.36983e-08
-1.71724e-08
1.83101e-08
-2.90551e-10
-1.18747e-08
1.65145e-08
-1.77075e-08
-4.69611e-10
1.66261e-09
5.51471e-09
1.74374e-08
-1.95304e-08
-4.97692e-09
5.27152e-09
1.66746e-08
1.82137e-09
1.52698e-08
1.21885e-09
1.19766e-08
3.54308e-09
-1.3894e-08
-8.42024e-09
1.20655e-08
1.02487e-08
9.06203e-10
1.79538e-08
6.66945e-09
-1.26466e-08
4.31394e-09
5.21957e-09
4.51715e-09
-4.60788e-09
-1.29835e-08
-3.28832e-09
2.08686e-08
1.43338e-08
-3.14721e-09
9.88728e-09
8.76046e-09
1.18705e-08
8.26271e-10
-7.39535e-09
1.30685e-08
-6.4994e-09
-6.88484e-09
-5.17994e-09
1.28911e-08
6.19641e-09
-1.1135e-08
-2.45676e-09
-5.29507e-09
4.60663e-09
-5.08771e-09
-6.52446e-09
6.43223e-09
1.18514e-08
-8.94024e-11
6.23342e-09
-1.79954e-08
6.91069e-09
8.69789e-09
-1.09131e-08
6.68881e-09
5.61589e-09
-1.66184e-08
-1.06534e-08
2.70619e-10
-1.31476e-08
4.51529e-09
2.10784e-09
-1.02073e-08
1.33408e-08
5.04734e-09
-9.02124e-09
4.06494e-09
-9.10243e-09
-4.0353e-09
-6.59017e-10
-3.87596e-09
-5.85171e-09
1.03867e-08
-8.0727e-09
-1.88894e-09
5.64034e-09
4.32126e-09
-3.84898e-09
-4.88275e-09
-2.43393e-09
4.51859e-09
6.97884e-09
-9.06352e-09
3.57419e-09
7.47046e-09
-1.34786e-08
8.55472e-09
-7.88512e-09
3.01368e-09
-7.7592e-09
5.17644e-09
5.26821e-09
-2.68548e-09
-8.67569e-09
2.47676e-09
-1.56028e-09
-8.97747e-09
3.84634e-09
5.18935e-09
-3.39538e-09
-4.95027e-09
-1.12129e-09
1.15095e-08
-8.98929e-09
-1.30974e-08
4.48354e-09
1.03245e-08
8.8883e-10
-1.3046e-10
9.79043e-09
2.06532e-08
-2.12077e-08
1.0879e-08
-3.51405e-09
2.10923e-08
-1.66894e-08
7.30819e-09
1.3936e-08
-3.11609e-10
-4.07215e-09
-9.55234e-09
-7.47355e-09
1.1586e-08
9.82355e-09
1.1412e-08
1.33701e-09
-2.02226e-08
7.43731e-09
1.66022e-09
-1.83497e-08
9.25217e-09
6.8911e-09
-4.59851e-09
5.14471e-09
-1.98573e-08
3.68835e-09
1.22285e-08
3.94041e-09
-1.52968e-09
-1.14365e-08
9.49548e-09
5.60489e-09
4.73904e-09
1.63424e-08
2.79563e-08
-1.79248e-08
-1.15613e-08
1.93871e-08
-8.76763e-09
1.73369e-08
9.32213e-09
2.22935e-08
-7.57375e-09
-2.81163e-09
1.00737e-08
-1.4344e-08
8.43043e-09
9.64617e-09
-3.56025e-08
1.71887e-08
2.87651e-08
-1.47039e-08
1.02981e-08
-5.91854e-09
9.82669e-09
-1.42063e-08
-2.49586e-10
1.30201e-08
-2.4724e-09
5.68092e-09
1.03957e-09
-1.26391e-08
6.94618e-09
-1.51486e-09
2.03584e-10
7.52222e-09
5.29429e-09
5.88734e-09
4.14292e-09
7.63052e-09
2.48479e-10
-9.32834e-10
-5.33307e-09
-5.28358e-09
1.41021e-08
-3.48552e-09
-9.08887e-09
4.53641e-09
-7.80659e-10
-1.07255e-09
-9.27267e-09
-4.32244e-09
1.46676e-08
-3.99987e-09
8.81463e-09
9.86916e-09
7.79813e-09
8.52338e-09
-1.5282e-08
6.37063e-09
1.01606e-08
-8.73316e-09
7.38459e-09
-7.65487e-10
-8.82602e-10
1.33318e-10
1.00426e-08
-7.6453e-10
8.33828e-09
6.70912e-09
-7.24004e-09
-5.52397e-09
6.05488e-09
-9.77909e-10
9.791e-09
-2.10396e-09
-1.21935e-08
-1.4085e-09
6.36194e-09
-9.97673e-09
-3.27956e-10
7.48356e-09
2.82114e-09
-4.42496e-09
-6.96752e-09
1.41576e-09
-6.72863e-09
-3.21095e-09
8.96168e-09
-1.39267e-08
1.67413e-09
-1.14704e-09
-8.21129e-10
-1.02253e-08
1.56755e-08
-1.4217e-09
-1.54008e-08
-2.78338e-09
4.53216e-09
6.30347e-09
-7.80586e-09
-2.92256e-09
1.48996e-09
-1.19838e-09
-6.59028e-09
1.16714e-08
4.02205e-10
-1.34953e-08
9.41904e-09
-5.31004e-10
-8.60203e-09
-1.001e-08
-1.14072e-08
1.4097e-08
7.32019e-09
-1.81537e-08
-9.11381e-10
9.05511e-09
1.05714e-09
1.7709e-09
-2.09818e-08
1.91075e-09
-1.22608e-08
-1.19857e-10
1.03084e-08
3.90848e-09
7.14117e-09
-1.48663e-08
9.31512e-11
7.63197e-09
9.75171e-09
-7.13942e-09
4.52889e-09
-1.72772e-09
-2.2691e-09
2.12999e-09
-1.52254e-08
7.08789e-09
-1.52067e-08
9.79415e-10
1.1149e-08
-1.03413e-08
6.28022e-09
-3.91191e-09
1.31417e-08
2.28831e-09
-1.35192e-08
3.5448e-09
9.47702e-09
-7.58157e-11
-1.30009e-08
6.76215e-09
-1.6706e-08
-3.9743e-10
6.39504e-09
-1.44935e-08
1.78829e-09
5.13029e-09
-5.93186e-09
-9.86687e-10
8.8074e-09
-7.0741e-09
5.49858e-11
1.95383e-08
1.46789e-08
-1.21454e-08
2.81284e-10
-8.87043e-09
4.51043e-09
4.0787e-09
-6.18261e-09
3.36858e-09
3.09532e-09
1.18605e-08
-3.30525e-09
-3.42497e-09
-3.87454e-09
9.55246e-09
-1.78041e-10
5.11089e-09
1.00596e-08
-6.61884e-09
-9.37264e-09
7.02646e-09
-4.04096e-09
-4.79392e-09
1.81034e-08
6.22875e-09
3.67129e-09
1.07127e-08
2.24531e-09
3.12081e-09
-1.19849e-08
7.41893e-09
-9.15653e-09
3.98294e-09
-4.75675e-09
2.87599e-09
3.97238e-09
-7.91917e-09
8.28984e-09
3.3006e-09
5.56545e-09
-1.12795e-08
2.35291e-09
9.28003e-10
7.99856e-09
3.16713e-09
-3.28244e-09
-1.01978e-08
1.03131e-08
4.93365e-11
-8.16166e-09
-1.11886e-08
3.37349e-09
1.01681e-08
-3.05851e-09
-8.08078e-09
1.55805e-08
-1.29804e-09
-1.96962e-09
-1.23129e-08
-8.09027e-09
2.89047e-08
-5.2339e-09
1.00889e-08
-8.84814e-09
5.43818e-10
-1.78456e-09
-2.13452e-09
-1.22037e-08
1.12797e-08
1.02637e-08
-1.56807e-08
-1.72237e-08
1.92224e-08
1.43564e-08
-1.29408e-08
-7.19097e-10
-2.14823e-09
-5.82555e-10
-1.79503e-09
7.88052e-09
-2.95405e-09
-5.01134e-09
5.66062e-09
2.30474e-09
2.08125e-09
-3.59053e-11
-5.95928e-10
7.43961e-09
2.7222e-09
-9.56588e-09
9.68344e-10
5.58668e-09
-1.4157e-09
-1.73491e-09
6.92281e-09
-5.89057e-09
-1.36531e-09
5.52096e-09
-3.93928e-09
1.29946e-10
5.49833e-09
-7.45956e-09
-9.01455e-10
6.79582e-11
-3.11923e-09
-5.01813e-09
5.55563e-09
2.58171e-09
-4.99578e-09
1.90726e-09
-3.07151e-11
-4.21849e-09
-1.73348e-11
-7.82304e-10
-5.17546e-09
-4.03883e-09
-9.02334e-09
-8.91221e-09
7.66215e-09
1.02734e-08
-7.75426e-09
-1.28642e-09
-2.0906e-10
9.51025e-10
4.81367e-09
-4.89094e-09
5.93518e-10
4.08836e-09
-3.13987e-09
1.56194e-10
5.46052e-09
-6.41571e-09
-1.45898e-09
2.41416e-09
7.02282e-10
5.35176e-09
4.08153e-09
-3.59063e-09
-8.24515e-09
-8.01522e-10
-4.02916e-09
5.33025e-09
6.28166e-10
-9.54905e-09
2.15985e-09
-2.00507e-09
3.281e-09
2.72614e-09
-5.37896e-09
5.35657e-09
8.42695e-11
-2.25749e-09
-6.15481e-09
1.99659e-09
-4.07862e-11
5.08618e-09
-7.08586e-09
5.40719e-10
-9.15622e-11
5.88004e-09
8.52162e-09
4.00919e-09
-7.43786e-09
-3.87819e-09
2.90504e-08
-2.14373e-08
8.67003e-09
-1.62831e-08
2.68008e-08
-1.20031e-08
1.42526e-08
2.0508e-08
1.15922e-09
5.13353e-09
1.09664e-08
-1.35907e-08
2.31323e-08
2.19335e-08
-4.04329e-08
-2.93787e-09
1.47366e-08
-4.8062e-09
1.24818e-08
-2.03448e-09
-1.2566e-08
2.11862e-09
-1.44908e-08
4.71803e-09
2.22545e-08
-1.53201e-08
-1.20519e-09
-1.45594e-08
3.02438e-08
-1.82537e-08
4.85347e-09
3.47207e-09
1.26668e-08
-4.10827e-09
-1.20307e-08
1.73674e-08
-2.65783e-10
-1.36296e-08
7.54704e-10
3.91207e-10
8.5557e-10
-7.68792e-09
-1.89576e-09
-5.05483e-09
7.10215e-09
-8.98232e-10
-1.18445e-08
1.33289e-08
7.96586e-10
-1.05824e-08
8.45029e-09
-7.768e-09
1.8433e-10
3.55542e-09
-3.7217e-09
-1.80398e-11
4.77063e-09
-4.76742e-09
1.81124e-10
3.16633e-09
2.09918e-09
-8.50815e-09
3.24265e-09
6.34802e-09
-4.56949e-09
-9.81942e-10
6.79767e-10
-4.23636e-10
8.19415e-09
-2.81322e-10
7.30911e-09
-7.84453e-10
5.27376e-09
-5.51797e-10
3.32277e-09
-3.06338e-09
6.15571e-09
-2.74018e-09
-3.52134e-10
4.15087e-09
-4.04792e-09
2.51673e-09
-4.75837e-09
-2.52578e-09
-1.28435e-09
7.93807e-11
-7.22868e-09
-5.77287e-09
4.79744e-09
-2.90496e-09
3.28781e-09
-3.8425e-11
-2.74094e-09
-1.32429e-09
1.07559e-10
1.49177e-09
-4.21955e-09
-1.31626e-11
1.56679e-09
-6.03995e-09
2.19807e-09
1.57071e-09
-3.77956e-09
1.07447e-11
1.03686e-10
-3.0594e-09
4.11625e-10
1.48176e-09
1.31686e-09
-2.82501e-09
2.63718e-11
-1.21506e-09
7.32008e-11
1.66753e-09
-4.67837e-09
6.05887e-09
-7.08596e-09
9.98343e-10
2.86601e-11
-3.09347e-09
-1.58121e-09
1.90824e-10
-2.38085e-09
1.22411e-10
1.37681e-10
-6.39034e-09
-6.29093e-11
-2.76158e-12
-8.7761e-09
-7.17872e-12
-1.57598e-09
-1.61634e-09
7.93706e-11
-1.32827e-09
-1.8103e-09
-2.43905e-10
-1.69404e-09
-1.63271e-09
8.36485e-11
2.1005e-09
-4.18603e-09
2.08282e-09
2.71008e-12
-1.49506e-09
-9.07117e-10
-1.75626e-10
-1.23357e-09
-2.39593e-09
-8.51851e-12
1.87055e-09
1.59206e-09
-3.48018e-09
1.76294e-11
-1.08593e-09
-1.00123e-09
-2.84463e-10
-2.96506e-09
-1.95686e-09
-2.33434e-09
1.26217e-10
-1.55878e-09
1.41895e-10
-6.21133e-09
-2.03147e-09
1.11825e-10
-1.64491e-09
4.25452e-11
-3.39178e-09
-3.03582e-09
6.77212e-11
-2.78701e-09
-1.95758e-09
1.12434e-10
-1.29843e-09
-2.90656e-09
1.66148e-10
-3.71936e-09
2.39279e-09
2.81346e-11
-4.82483e-09
-8.68081e-11
1.80868e-09
-4.75871e-09
2.91005e-09
4.00071e-11
4.84335e-09
2.68255e-10
9.49681e-10
2.24727e-09
-3.19606e-09
-9.00551e-13
3.4279e-09
1.1987e-10
1.01646e-09
3.83254e-09
-4.73468e-09
-1.14319e-10
-3.89463e-09
4.89475e-09
1.63368e-11
-2.16258e-09
-2.58763e-09
4.75135e-09
-1.1179e-12
-5.08385e-09
3.18439e-09
-2.63113e-10
-5.4102e-10
-4.17692e-09
4.67131e-09
4.66142e-11
-5.19034e-09
4.6762e-09
-2.68843e-11
1.0866e-09
-5.20375e-09
-5.97884e-11
9.92484e-10
-4.19004e-09
3.21692e-09
-1.93442e-11
-3.07869e-09
2.32534e-11
1.31179e-09
-4.34302e-09
-4.74635e-11
3.44146e-09
-5.52121e-09
2.22773e-09
-1.47963e-10
-5.04533e-10
3.92516e-09
2.08492e-11
4.42009e-09
-4.86359e-09
-6.10182e-11
-6.13746e-10
-4.22311e-09
-2.05039e-11
-3.81591e-09
3.26726e-09
-6.50893e-11
-2.94048e-09
-1.89347e-09
-5.62833e-11
-1.98098e-09
5.51364e-09
-3.73212e-09
1.99471e-10
-4.87585e-09
-4.56065e-11
1.56941e-09
-5.56945e-09
4.18373e-09
-1.83697e-10
4.81125e-09
-3.25182e-09
9.95901e-12
-2.42186e-09
3.82604e-09
-1.47012e-09
6.59452e-11
-1.33525e-09
-2.31435e-09
3.66472e-09
-1.51185e-11
-3.64496e-09
-1.12149e-10
-5.58754e-09
6.70025e-09
-1.18165e-09
6.89425e-11
-2.09836e-10
-5.53883e-09
1.61142e-10
-5.32955e-09
1.11178e-10
7.33993e-10
-3.53225e-09
2.95646e-09
-1.58229e-10
-2.20506e-09
2.98896e-09
-4.99214e-11
-2.62965e-09
-3.22932e-09
5.77792e-09
8.10594e-11
-1.34719e-09
-3.08447e-09
4.36254e-09
6.91429e-11
-3.9236e-09
-5.32429e-11
-2.19044e-09
3.94141e-09
-1.67977e-09
-7.11944e-11
-2.55786e-09
5.29622e-09
2.86595e-10
-4.76135e-09
1.30634e-11
-3.21485e-09
-1.66431e-09
1.17828e-10
-2.25915e-09
-2.6753e-09
4.94407e-09
-9.63522e-12
3.18736e-09
-1.83134e-10
-5.01996e-09
2.48278e-09
-1.38143e-10
-1.51604e-09
-3.20039e-09
4.63458e-09
8.18526e-11
-4.80674e-09
3.35113e-09
-6.04307e-11
-5.06512e-09
3.74389e-09
1.46002e-09
-1.3879e-10
-1.39257e-09
-3.75192e-09
7.93442e-11