/*--------------------------------*- C++ -*----------------------------------*\
| =========                 |                                                 |
| \\      /  F ield         | OpenFOAM: The Open Source CFD Toolbox           |
|  \\    /   O peration     | Version:  v1612+                                |
|   \\  /    A nd           | Web:      www.OpenFOAM.com                      |
|    \\/     M anipulation  |                                                 |
\*---------------------------------------------------------------------------*/
FoamFile
{
    version     2.0;
    format      ascii;
    class       volVectorField;
    location    "100";
    object      U;
}
// * * * * * * * * * * * * * * * * * * * * * * * * * * * * * * * * * * * * * //

dimensions      [0 1 -1 0 0 0 0];

internalField   nonuniform List<vector> 
17018
(
(0.611217 0.760842 0.249812)
(0.59386 0.756141 0.245713)
(0.588876 0.744455 0.241521)
(0.519863 0.653712 0.219987)
(0.48173 0.619491 0.205824)
(0.502023 0.630546 0.205234)
(0.45601 0.585025 0.187813)
(0.543152 0.695474 0.227411)
(0.492072 0.632338 0.212544)
(0.50604 0.633888 0.211539)
(0.449285 0.566721 0.186324)
(0.591216 0.735424 0.246515)
(0.519185 0.651735 0.219902)
(0.590233 0.734691 0.240311)
(0.508204 0.635847 0.215258)
(0.544 0.685571 0.226015)
(0.602135 0.763172 0.247719)
(0.612168 0.765029 0.254304)
(0.53865 0.664266 0.219382)
(0.4997 0.625883 0.207694)
(0.485426 0.615234 0.204015)
(0.465322 0.592007 0.195)
(0.411651 0.513841 0.174429)
(0.365388 0.459632 0.147948)
(0.416992 0.515195 0.168012)
(0.44076 0.552874 0.191866)
(0.38754 0.486112 0.163277)
(0.373189 0.463406 0.157116)
(0.37461 0.458003 0.153174)
(0.314087 0.387288 0.123036)
(0.383776 0.46605 0.162125)
(0.373652 0.470698 0.158552)
(0.32128 0.404361 0.135798)
(0.406067 0.518627 0.186152)
(0.405315 0.497592 0.169409)
(0.431919 0.540162 0.18812)
(0.411076 0.499069 0.170367)
(0.328761 0.405125 0.141437)
(0.48961 0.614221 0.199534)
(0.591629 0.741019 0.243882)
(0.564031 0.712061 0.232011)
(0.537906 0.676304 0.222769)
(0.569298 0.712753 0.235468)
(0.397813 0.472596 0.149949)
(0.347074 0.424136 0.13259)
(0.343994 0.419229 0.125987)
(0.422305 0.513065 0.16479)
(0.38834 0.47224 0.150839)
(0.432084 0.525747 0.169578)
(0.361463 0.436715 0.139474)
(0.44352 0.530998 0.165371)
(0.489218 0.592909 0.19414)
(0.495172 0.599784 0.198331)
(0.505734 0.612193 0.193458)
(0.405159 0.490697 0.155839)
(0.385926 0.458427 0.141233)
(0.417268 0.496812 0.156666)
(0.485266 0.580153 0.185361)
(0.407436 0.499636 0.162635)
(0.485367 0.574025 0.183379)
(0.497021 0.598499 0.193451)
(0.75737 0.919242 0.306729)
(0.765921 0.937641 0.315555)
(0.721227 0.893405 0.297114)
(0.719933 0.889731 0.300953)
(0.729358 0.908172 0.3067)
(0.775127 0.958154 0.316922)
(0.726901 0.900706 0.30369)
(0.752711 0.941749 0.306673)
(0.746244 0.908525 0.301881)
(0.744924 0.901838 0.300266)
(0.636223 0.787483 0.263365)
(0.635292 0.772713 0.261971)
(0.674797 0.828721 0.274849)
(0.754059 0.918544 0.309745)
(0.759086 0.93657 0.313184)
(0.750518 0.922802 0.313629)
(0.748973 0.91498 0.306575)
(0.730441 0.894207 0.297959)
(0.63548 0.777064 0.257121)
(0.674341 0.815007 0.27372)
(0.74369 0.908338 0.303604)
(0.712378 0.871029 0.290085)
(0.514127 0.646243 0.219448)
(0.510664 0.638102 0.214331)
(0.565511 0.710356 0.241258)
(0.523739 0.653128 0.215584)
(0.378388 0.464228 0.154289)
(0.345556 0.423174 0.135925)
(0.37321 0.46766 0.163223)
(0.44813 0.555746 0.180919)
(0.498152 0.619207 0.206043)
(0.503719 0.631199 0.215127)
(0.423775 0.524479 0.175009)
(0.409181 0.507418 0.165951)
(0.425872 0.520478 0.175416)
(0.385957 0.477869 0.166559)
(0.564416 0.694031 0.229315)
(0.602939 0.738507 0.248076)
(0.415186 0.508255 0.168417)
(0.497257 0.616751 0.198823)
(0.592529 0.723611 0.242463)
(0.58934 0.720465 0.247829)
(0.394155 0.493434 0.162329)
(0.48805 0.616492 0.209012)
(0.497703 0.620065 0.203902)
(0.514118 0.636581 0.213585)
(0.42359 0.506059 0.162155)
(0.392167 0.470759 0.156275)
(0.395387 0.465295 0.149701)
(0.317054 0.393328 0.125029)
(0.372905 0.45347 0.138576)
(0.340602 0.418491 0.12739)
(0.438259 0.52742 0.169485)
(0.493936 0.601108 0.187056)
(0.35061 0.429758 0.134405)
(0.456892 0.556597 0.171286)
(0.387084 0.464098 0.147784)
(0.395359 0.483656 0.151845)
(0.654931 0.808435 0.267036)
(0.646152 0.786567 0.264341)
(0.584599 0.703839 0.231951)
(0.579404 0.706158 0.235006)
(0.580507 0.708574 0.234698)
(0.609466 0.751213 0.250654)
(0.58252 0.712544 0.238446)
(0.685542 0.84495 0.275462)
(0.677548 0.830601 0.279106)
(0.744151 0.915449 0.307018)
(0.711875 0.876278 0.29525)
(0.669586 0.811042 0.273202)
(0.714351 0.880096 0.290685)
(0.706402 0.874877 0.284934)
(0.732268 0.896867 0.293042)
(0.668788 0.806464 0.272227)
(0.70178 0.860474 0.286881)
(0.64998 0.798036 0.265234)
(0.702509 0.857337 0.284257)
(0.664877 0.806801 0.268353)
(0.700253 0.867165 0.28201)
(0.752082 0.920069 0.300358)
(0.423062 0.519369 0.176175)
(0.393242 0.486956 0.160618)
(0.534096 0.661555 0.216311)
(0.501762 0.606842 0.205517)
(0.57721 0.716991 0.241809)
(0.535259 0.668126 0.218613)
(0.420834 0.505951 0.175426)
(0.379897 0.471097 0.159726)
(0.530204 0.651053 0.217099)
(0.376675 0.468643 0.160828)
(0.359205 0.43866 0.151856)
(0.432977 0.541183 0.17994)
(0.541514 0.683639 0.220973)
(0.46793 0.588911 0.199875)
(0.411654 0.504382 0.16684)
(0.392736 0.490872 0.165362)
(0.536111 0.656744 0.224112)
(0.441158 0.543686 0.186151)
(0.349892 0.437405 0.14795)
(0.392403 0.468595 0.171565)
(0.538863 0.665389 0.213294)
(0.455402 0.561945 0.195182)
(0.689264 0.853954 0.264618)
(0.69837 0.856717 0.269056)
(0.706232 0.872176 0.275004)
(0.631723 0.780768 0.249758)
(0.649833 0.804187 0.259325)
(0.694536 0.853948 0.273296)
(0.649219 0.807919 0.254913)
(0.647103 0.801475 0.251237)
(0.676234 0.829619 0.263179)
(0.668736 0.831849 0.264783)
(0.636259 0.782495 0.246561)
(0.685582 0.853893 0.268339)
(0.652424 0.804079 0.257254)
(0.63926 0.793441 0.25695)
(0.612138 0.761137 0.245976)
(0.648231 0.802534 0.261387)
(0.733083 0.911161 0.289418)
(0.719159 0.904087 0.290861)
(0.586588 0.715477 0.236484)
(0.546264 0.665386 0.219359)
(0.613313 0.742238 0.245394)
(0.642527 0.779304 0.256313)
(0.636286 0.76951 0.250302)
(0.636022 0.769543 0.259756)
(0.555721 0.676229 0.223774)
(0.504373 0.627945 0.198302)
(0.508917 0.628041 0.203067)
(0.502203 0.634413 0.203527)
(0.574982 0.711534 0.238123)
(0.581527 0.721095 0.237056)
(0.573799 0.701041 0.221194)
(0.597632 0.742749 0.247554)
(0.475 0.583811 0.190958)
(0.578904 0.713531 0.231685)
(0.533377 0.655229 0.215726)
(0.495471 0.617589 0.205899)
(0.477994 0.597913 0.195496)
(0.522117 0.649517 0.213499)
(0.521366 0.646293 0.212502)
(0.516799 0.641144 0.213645)
(0.47617 0.585365 0.194437)
(0.656051 0.817129 0.275796)
(0.622276 0.778511 0.257732)
(0.592711 0.742448 0.245967)
(0.589044 0.740166 0.242817)
(0.533485 0.669717 0.215919)
(0.517752 0.649017 0.214865)
(0.642833 0.801293 0.269471)
(0.568895 0.722024 0.226296)
(0.605358 0.751464 0.23922)
(0.378109 0.439161 0.153913)
(0.418196 0.502243 0.176975)
(0.482038 0.577722 0.204404)
(0.372238 0.450086 0.15721)
(0.335051 0.390306 0.132993)
(0.475673 0.576825 0.196109)
(0.407944 0.491274 0.168152)
(0.491479 0.587998 0.208757)
(0.412465 0.490435 0.162114)
(0.375238 0.445995 0.155475)
(0.405553 0.486778 0.162055)
(0.470891 0.573201 0.201461)
(0.496535 0.594094 0.208232)
(0.415804 0.491002 0.17081)
(0.386041 0.471969 0.159185)
(0.345966 0.41293 0.143611)
(0.597149 0.717267 0.22713)
(0.530114 0.637021 0.198688)
(0.497846 0.599324 0.187296)
(0.607617 0.726839 0.230153)
(0.579048 0.694292 0.226158)
(0.545862 0.658347 0.211426)
(0.363691 0.440994 0.148632)
(0.429588 0.523086 0.16991)
(0.434373 0.537706 0.166832)
(0.429184 0.517162 0.171442)
(0.420205 0.507435 0.151527)
(0.404587 0.496693 0.161941)
(0.522479 0.63087 0.199483)
(0.506125 0.613136 0.193438)
(0.401852 0.496946 0.154658)
(0.467107 0.564988 0.182802)
(0.548071 0.659954 0.214723)
(0.562657 0.664262 0.223129)
(0.505842 0.612031 0.194786)
(0.568236 0.686838 0.22135)
(0.514693 0.620582 0.20143)
(0.488219 0.589715 0.192811)
(0.488302 0.586753 0.191279)
(0.495715 0.603275 0.190303)
(0.504749 0.61956 0.198815)
(0.475434 0.569905 0.172551)
(0.562501 0.673607 0.218932)
(0.608159 0.717463 0.234586)
(0.632614 0.759395 0.245679)
(0.619023 0.750333 0.238359)
(0.499226 0.609032 0.203122)
(0.492571 0.595729 0.196962)
(0.619865 0.749156 0.243824)
(0.600468 0.725291 0.238264)
(0.564398 0.677334 0.221043)
(0.54997 0.664047 0.21628)
(0.43581 0.527094 0.174595)
(0.429699 0.515257 0.172176)
(0.396763 0.47418 0.158475)
(0.391166 0.475005 0.159123)
(0.512973 0.617363 0.214138)
(0.514931 0.625615 0.215148)
(0.388564 0.46757 0.15513)
(0.453363 0.544456 0.181791)
(0.413724 0.507528 0.168474)
(0.349535 0.425546 0.141118)
(0.419076 0.506799 0.168169)
(0.402414 0.483618 0.162926)
(0.407726 0.480723 0.166834)
(0.36119 0.435802 0.147081)
(0.516981 0.62801 0.216465)
(0.414046 0.500086 0.17348)
(0.501729 0.611732 0.209445)
(0.417187 0.505419 0.171847)
(0.502789 0.610865 0.205479)
(0.491592 0.602495 0.204889)
(0.40645 0.488588 0.159214)
(0.407159 0.49405 0.15732)
(0.406389 0.493113 0.157854)
(0.474554 0.58049 0.179638)
(0.4353 0.528111 0.165745)
(0.365452 0.455819 0.143227)
(0.389922 0.465891 0.155126)
(0.360869 0.439564 0.153771)
(0.40093 0.489447 0.161349)
(0.491571 0.60729 0.192452)
(0.524044 0.639102 0.20457)
(0.396461 0.487163 0.160663)
(0.351658 0.423404 0.136345)
(0.383139 0.468853 0.155728)
(0.413682 0.502975 0.16203)
(0.546817 0.668572 0.219684)
(0.420185 0.504641 0.162424)
(0.394423 0.472869 0.150761)
(0.355362 0.429574 0.143637)
(0.47711 0.579523 0.187785)
(0.473877 0.582798 0.180598)
(0.41081 0.484246 0.161705)
(0.425145 0.508808 0.169772)
(0.385595 0.456624 0.151055)
(0.404993 0.487587 0.163361)
(0.482901 0.591768 0.189595)
(0.494531 0.596443 0.19623)
(0.374663 0.449052 0.150327)
(0.415304 0.505293 0.163806)
(0.368874 0.444931 0.142331)
(0.348052 0.417416 0.135268)
(0.376591 0.458395 0.153347)
(0.341832 0.409015 0.137872)
(0.351896 0.427575 0.141747)
(0.362668 0.434386 0.149486)
(0.327897 0.384244 0.126142)
(0.416677 0.505021 0.158576)
(0.335463 0.403859 0.13208)
(0.368841 0.454657 0.152074)
(0.303464 0.389251 0.130779)
(0.485444 0.599567 0.200495)
(0.493293 0.609671 0.206203)
(0.384583 0.476419 0.169518)
(0.321174 0.406927 0.133964)
(0.31711 0.394567 0.129807)
(0.384063 0.4784 0.157823)
(0.356343 0.446418 0.147159)
(0.501849 0.610098 0.20105)
(0.478634 0.582925 0.189555)
(0.401617 0.490705 0.172799)
(0.484091 0.582887 0.191545)
(0.502985 0.611485 0.209871)
(0.477073 0.57969 0.198318)
(0.381736 0.459465 0.162675)
(0.389989 0.476209 0.161209)
(0.397866 0.487165 0.162284)
(0.382784 0.463114 0.162888)
(0.403372 0.48685 0.166661)
(0.406012 0.496383 0.169176)
(0.397929 0.476539 0.162342)
(0.3709 0.447033 0.153282)
(0.332456 0.403835 0.145779)
(0.365168 0.439856 0.151487)
(0.373787 0.457942 0.159352)
(0.350765 0.428245 0.148915)
(0.352183 0.423151 0.148668)
(0.506994 0.638556 0.206654)
(0.503034 0.624049 0.208677)
(0.493824 0.620742 0.209364)
(0.520695 0.649043 0.215753)
(0.401324 0.500103 0.163142)
(0.413226 0.516738 0.160232)
(0.493076 0.616173 0.199588)
(0.412378 0.517003 0.171251)
(0.509813 0.643443 0.214086)
(0.474455 0.603229 0.196021)
(0.461175 0.593568 0.194887)
(0.363917 0.449312 0.147975)
(0.471636 0.591424 0.204182)
(0.485077 0.614008 0.193826)
(0.417731 0.515126 0.172269)
(0.362098 0.450447 0.155333)
(0.411855 0.510666 0.171798)
(0.389314 0.482916 0.152294)
(0.341732 0.420423 0.133743)
(0.39311 0.49105 0.157202)
(0.380953 0.467798 0.152252)
(0.331365 0.409185 0.138843)
(0.513327 0.622376 0.196037)
(0.500215 0.604269 0.194898)
(0.374483 0.451028 0.149089)
(0.412227 0.492716 0.1644)
(0.478734 0.575819 0.191393)
(0.513782 0.630338 0.200509)
(0.386406 0.456777 0.15821)
(0.353496 0.418217 0.140607)
(0.373653 0.457162 0.157828)
(0.340242 0.410116 0.139682)
(0.418871 0.496399 0.162559)
(0.459604 0.547858 0.183602)
(0.485275 0.554383 0.1823)
(0.395765 0.464587 0.157192)
(0.419203 0.495452 0.168938)
(0.410987 0.485198 0.170236)
(0.639401 0.770586 0.259441)
(0.690081 0.832447 0.283293)
(0.65436 0.786949 0.268928)
(0.584538 0.704829 0.24178)
(0.714527 0.869917 0.284966)
(0.668909 0.81472 0.271901)
(0.644464 0.778384 0.259306)
(0.639638 0.775628 0.25954)
(0.725051 0.879935 0.291599)
(0.667832 0.801007 0.272042)
(0.612661 0.742802 0.257293)
(0.659381 0.803272 0.271998)
(0.600633 0.72733 0.247165)
(0.613569 0.749855 0.257548)
(0.497697 0.628442 0.202885)
(0.49485 0.626224 0.196691)
(0.326276 0.419441 0.131263)
(0.357365 0.444223 0.140866)
(0.383135 0.477595 0.148918)
(0.480635 0.608025 0.194405)
(0.457878 0.575444 0.17979)
(0.347133 0.423823 0.139993)
(0.334638 0.410258 0.132024)
(0.355703 0.456058 0.140511)
(0.372557 0.467728 0.150246)
(0.406892 0.524024 0.161498)
(0.384604 0.466572 0.146948)
(0.41166 0.506801 0.15742)
(0.487389 0.576972 0.187253)
(0.479347 0.581727 0.181287)
(0.437785 0.527785 0.170682)
(0.380125 0.467954 0.144727)
(0.344216 0.420112 0.130347)
(0.489934 0.59301 0.183105)
(0.358924 0.438466 0.135215)
(0.395699 0.486631 0.148394)
(0.389003 0.472059 0.15062)
(0.438644 0.535352 0.174385)
(0.367102 0.456447 0.146941)
(0.50706 0.634117 0.206763)
(0.380049 0.48865 0.163552)
(0.303139 0.379049 0.12562)
(0.517263 0.622672 0.213816)
(0.515446 0.628975 0.201116)
(0.521155 0.634551 0.202958)
(0.383086 0.4622 0.142277)
(0.308673 0.3687 0.116251)
(0.403778 0.498738 0.166985)
(0.484078 0.585294 0.18799)
(0.439123 0.524586 0.177616)
(0.442065 0.543113 0.179657)
(0.386912 0.460512 0.156648)
(0.577117 0.703037 0.226514)
(0.565031 0.68694 0.2255)
(0.53347 0.646738 0.209144)
(0.517547 0.628811 0.201535)
(0.52746 0.647285 0.208291)
(0.513599 0.629709 0.203568)
(0.436453 0.530855 0.172635)
(0.397788 0.469109 0.151764)
(0.432809 0.520833 0.16677)
(0.398194 0.479261 0.158209)
(0.353701 0.427365 0.147696)
(0.46659 0.554592 0.185695)
(0.402981 0.467828 0.160091)
(0.477874 0.570309 0.190287)
(0.404039 0.494138 0.163211)
(0.380078 0.454453 0.150407)
(0.365305 0.447894 0.147852)
(0.32502 0.391788 0.136467)
(0.475032 0.570907 0.18965)
(0.463879 0.553362 0.183638)
(0.413729 0.498221 0.167664)
(0.391634 0.467746 0.153053)
(0.354379 0.423995 0.1422)
(0.477572 0.561479 0.187677)
(0.374359 0.454935 0.148992)
(0.34444 0.407904 0.133189)
(0.415728 0.505651 0.165908)
(0.366617 0.452288 0.162092)
(0.327671 0.405674 0.146079)
(0.394047 0.485433 0.16272)
(0.365889 0.449695 0.146542)
(0.379214 0.467806 0.15693)
(0.484923 0.600108 0.19828)
(0.425143 0.517258 0.169796)
(0.741139 0.901875 0.297616)
(0.75128 0.913055 0.293866)
(0.710921 0.874952 0.284957)
(0.702716 0.859479 0.280525)
(0.733464 0.895991 0.291825)
(0.711937 0.863589 0.283688)
(0.711837 0.871492 0.281212)
(0.787376 0.950406 0.310372)
(0.764284 0.928769 0.294317)
(0.741896 0.912339 0.295541)
(0.720895 0.874266 0.28688)
(0.743844 0.910262 0.295392)
(0.693244 0.835673 0.275717)
(0.699105 0.844237 0.272861)
(0.730404 0.894163 0.285668)
(0.787561 0.956456 0.302792)
(0.772178 0.93964 0.297491)
(0.738796 0.897924 0.286875)
(0.754958 0.943755 0.312349)
(0.738559 0.91783 0.308495)
(0.718853 0.893429 0.297862)
(0.721739 0.90575 0.304248)
(0.736954 0.916524 0.303853)
(0.696781 0.873705 0.292439)
(0.753969 0.948554 0.310811)
(0.785455 0.984771 0.316774)
(0.720621 0.900892 0.29821)
(0.73227 0.921768 0.299231)
(0.753613 0.91347 0.309718)
(0.684567 0.82611 0.275552)
(0.600009 0.718745 0.246268)
(0.673211 0.806248 0.282727)
(0.72027 0.872491 0.294096)
(0.734075 0.886876 0.290994)
(0.702654 0.846189 0.279087)
(0.669665 0.803718 0.275865)
(0.597161 0.722293 0.251709)
(0.646058 0.771355 0.272973)
(0.601396 0.721897 0.247681)
(0.596784 0.717076 0.250121)
(0.620005 0.72509 0.256353)
(0.691652 0.818935 0.27689)
(0.613014 0.732812 0.250828)
(0.627823 0.766159 0.256525)
(0.598966 0.704876 0.24445)
(0.717282 0.869528 0.28464)
(0.645578 0.786451 0.262465)
(0.660671 0.798435 0.26803)
(0.622199 0.759267 0.251071)
(0.61262 0.744914 0.245551)
(0.623654 0.767745 0.254926)
(0.625081 0.768662 0.258717)
(0.622182 0.753928 0.246886)
(0.595326 0.729074 0.240879)
(0.637021 0.778472 0.257138)
(0.655425 0.807268 0.26343)
(0.694925 0.834596 0.276957)
(0.684181 0.825147 0.271102)
(0.745123 0.896581 0.296497)
(0.740627 0.883874 0.293726)
(0.696435 0.853582 0.280786)
(0.663868 0.816823 0.275588)
(0.639919 0.783384 0.265892)
(0.673707 0.816948 0.269894)
(0.751494 0.911939 0.306389)
(0.690893 0.844519 0.283223)
(0.753488 0.90963 0.304268)
(0.758964 0.924114 0.307851)
(0.739786 0.899192 0.30212)
(0.756996 0.925142 0.309061)
(0.652558 0.791061 0.259208)
(0.665153 0.802377 0.257419)
(0.729825 0.893549 0.300126)
(0.740961 0.901999 0.302722)
(0.750422 0.910033 0.304192)
(0.658213 0.802038 0.265523)
(0.771921 0.948917 0.314707)
(0.771165 0.937228 0.310897)
(0.721355 0.872783 0.29165)
(0.755407 0.925374 0.31191)
(0.783879 0.957821 0.316906)
(0.758862 0.929311 0.312551)
(0.756648 0.929767 0.311902)
(0.751987 0.921149 0.290951)
(0.765426 0.936038 0.298535)
(0.759253 0.931388 0.296522)
(0.679861 0.835436 0.262248)
(0.705453 0.863593 0.272526)
(0.679983 0.82575 0.261711)
(0.666375 0.809779 0.258889)
(0.634821 0.772378 0.238429)
(0.662052 0.806589 0.255671)
(0.662628 0.807604 0.250511)
(0.7105 0.868647 0.272838)
(0.724542 0.886358 0.287958)
(0.73965 0.903846 0.2905)
(0.684308 0.83053 0.264235)
(0.624535 0.763233 0.238721)
(0.692212 0.839322 0.266729)
(0.631895 0.77679 0.239706)
(0.703426 0.863315 0.275249)
(0.736768 0.891128 0.294055)
(0.689947 0.83936 0.283551)
(0.691503 0.840868 0.290393)
(0.658643 0.814353 0.278183)
(0.66326 0.811242 0.275057)
(0.621872 0.763598 0.258773)
(0.668129 0.812626 0.26719)
(0.641829 0.77211 0.259114)
(0.665426 0.80846 0.271092)
(0.70278 0.857862 0.291198)
(0.656913 0.803431 0.275218)
(0.632807 0.774283 0.26569)
(0.608707 0.73632 0.252336)
(0.600248 0.731826 0.2526)
(0.654487 0.791214 0.26167)
(0.60163 0.733997 0.242238)
(0.732283 0.904915 0.291505)
(0.733527 0.901702 0.294757)
(0.639705 0.778034 0.261322)
(0.733338 0.905226 0.293627)
(0.714883 0.880762 0.283684)
(0.645545 0.796838 0.260326)
(0.59538 0.721334 0.232288)
(0.626603 0.774303 0.249226)
(0.727453 0.881029 0.295261)
(0.716799 0.862605 0.286629)
(0.719365 0.898038 0.288266)
(0.683807 0.842456 0.278232)
(0.611876 0.74847 0.24396)
(0.640864 0.778761 0.262808)
(0.612812 0.737119 0.243993)
(0.646849 0.78365 0.25937)
(0.582629 0.709946 0.228657)
(0.585751 0.716485 0.231626)
(0.65329 0.801691 0.264513)
(0.721147 0.875348 0.291674)
(0.666823 0.802238 0.260713)
(0.594915 0.730563 0.230196)
(0.570647 0.687385 0.222472)
(0.634014 0.767603 0.250688)
(0.672648 0.812058 0.267284)
(0.650589 0.786044 0.259352)
(0.685697 0.835851 0.276138)
(0.649375 0.786303 0.264011)
(0.578813 0.702382 0.228987)
(0.663702 0.805409 0.268262)
(0.706544 0.850663 0.28635)
(0.676669 0.821382 0.276088)
(0.666309 0.80968 0.268117)
(0.584721 0.704567 0.236607)
(0.596809 0.717772 0.237242)
(0.680539 0.823981 0.27762)
(0.638553 0.781738 0.25759)
(0.604675 0.732547 0.244721)
(0.583351 0.708724 0.23342)
(0.427135 0.513204 0.159502)
(0.403906 0.48561 0.155157)
(0.377981 0.469039 0.144083)
(0.520843 0.618797 0.204048)
(0.546555 0.655831 0.213197)
(0.451583 0.54266 0.168361)
(0.455739 0.544272 0.170252)
(0.488888 0.586535 0.192952)
(0.538479 0.64161 0.200255)
(0.512475 0.613401 0.198268)
(0.394211 0.472529 0.15114)
(0.537484 0.653447 0.214734)
(0.615656 0.745279 0.240047)
(0.598807 0.720738 0.231599)
(0.609071 0.726998 0.238366)
(0.513531 0.614778 0.20522)
(0.648895 0.781091 0.252729)
(0.618916 0.742262 0.242538)
(0.499645 0.592175 0.195428)
(0.627535 0.77608 0.248135)
(0.633593 0.792397 0.253789)
(0.615757 0.770826 0.246243)
(0.674485 0.83408 0.270229)
(0.632528 0.795944 0.25841)
(0.643816 0.806027 0.255703)
(0.65426 0.823935 0.264674)
(0.658091 0.824265 0.254264)
(0.623828 0.781982 0.241874)
(0.693781 0.86282 0.273247)
(0.731089 0.908394 0.291182)
(0.67358 0.844292 0.26562)
(0.693042 0.856408 0.275891)
(0.735607 0.912521 0.282978)
(0.727897 0.91229 0.281521)
(0.688206 0.863296 0.271836)
(0.578172 0.703948 0.234022)
(0.540076 0.656396 0.214502)
(0.527999 0.646888 0.219621)
(0.522677 0.642445 0.216889)
(0.565656 0.697376 0.233681)
(0.560752 0.689906 0.235991)
(0.481046 0.583023 0.187999)
(0.557551 0.68183 0.223333)
(0.550939 0.686934 0.22453)
(0.609521 0.747116 0.248153)
(0.597447 0.728779 0.242161)
(0.528987 0.647127 0.21368)
(0.58628 0.71913 0.238495)
(0.547344 0.67027 0.223204)
(0.489149 0.59733 0.192947)
(0.570283 0.702577 0.242044)
(0.555391 0.682469 0.23229)
(0.532599 0.656751 0.217933)
(0.588853 0.719431 0.229294)
(0.584636 0.718563 0.227807)
(0.564645 0.688422 0.219894)
(0.517654 0.636937 0.199898)
(0.502311 0.612223 0.194186)
(0.650188 0.792696 0.252735)
(0.641236 0.788585 0.248866)
(0.563912 0.68647 0.223329)
(0.649581 0.790276 0.253929)
(0.63556 0.777151 0.248114)
(0.509861 0.616205 0.198613)
(0.512692 0.623678 0.203161)
(0.512574 0.633334 0.197916)
(0.62634 0.751438 0.248414)
(0.635197 0.772664 0.243766)
(0.544432 0.655521 0.210216)
(0.615824 0.747614 0.238167)
(0.719561 0.892245 0.283012)
(0.724125 0.89 0.284793)
(0.740907 0.909211 0.288909)
(0.706959 0.883696 0.271291)
(0.718735 0.892386 0.284769)
(0.774688 0.95806 0.308049)
(0.764529 0.948864 0.306495)
(0.761071 0.942667 0.30448)
(0.764901 0.942559 0.304253)
(0.752116 0.936271 0.297847)
(0.761979 0.947359 0.303085)
(0.760747 0.946912 0.303743)
(0.732611 0.903185 0.285634)
(0.737173 0.915034 0.290233)
(0.762604 0.944392 0.300353)
(0.759551 0.941713 0.296938)
(0.755708 0.93932 0.299323)
(0.76406 0.948088 0.300452)
(0.429131 0.499662 0.169645)
(0.420562 0.501329 0.172894)
(0.612658 0.743335 0.252252)
(0.517571 0.62835 0.205935)
(0.459504 0.552132 0.183262)
(0.452309 0.533535 0.192694)
(0.456113 0.546085 0.187193)
(0.423313 0.499564 0.174527)
(0.446627 0.533426 0.180969)
(0.426017 0.519815 0.174359)
(0.630966 0.754402 0.256569)
(0.629993 0.738432 0.256953)
(0.502947 0.601803 0.209089)
(0.535038 0.642879 0.217151)
(0.546476 0.650669 0.217267)
(0.417295 0.509172 0.165942)
(0.538733 0.642174 0.227094)
(0.579814 0.691796 0.244769)
(0.528082 0.622052 0.211411)
(0.5013 0.604022 0.20151)
(0.581228 0.710254 0.23298)
(0.531745 0.645968 0.217294)
(0.545764 0.658365 0.216318)
(0.545315 0.664051 0.220011)
(0.630135 0.762816 0.252962)
(0.620249 0.751768 0.249577)
(0.600222 0.746336 0.260261)
(0.630749 0.759983 0.246761)
(0.696461 0.85556 0.261282)
(0.628539 0.777981 0.26519)
(0.629671 0.780144 0.26848)
(0.659021 0.812114 0.271034)
(0.489717 0.597863 0.197356)
(0.386289 0.494273 0.16324)
(0.362965 0.449783 0.144046)
(0.487287 0.617455 0.206838)
(0.401484 0.501662 0.164063)
(0.426889 0.531049 0.1745)
(0.37294 0.484316 0.159964)
(0.378211 0.475059 0.154273)
(0.348784 0.431185 0.146543)
(0.408585 0.517075 0.173667)
(0.372144 0.467629 0.150997)
(0.380719 0.470883 0.156099)
(0.360989 0.432008 0.151268)
(0.412193 0.497854 0.168248)
(0.384302 0.458075 0.160304)
(0.528595 0.648818 0.213282)
(0.464289 0.565126 0.18896)
(0.396571 0.489947 0.161327)
(0.377924 0.460327 0.151468)
(0.361519 0.440689 0.143787)
(0.418136 0.533748 0.174289)
(0.424325 0.524819 0.17785)
(0.524658 0.644176 0.216185)
(0.567122 0.70345 0.227362)
(0.412906 0.51876 0.166201)
(0.423101 0.521009 0.173215)
(0.384485 0.499159 0.154754)
(0.382662 0.495747 0.161182)
(0.394502 0.494008 0.162716)
(0.383978 0.482756 0.147365)
(0.486603 0.601534 0.196954)
(0.474972 0.573568 0.196255)
(0.494614 0.60091 0.199325)
(0.409655 0.51989 0.171426)
(0.4672 0.58707 0.191514)
(0.75534 0.917241 0.299429)
(0.752894 0.915989 0.297197)
(0.744095 0.907465 0.290533)
(0.748919 0.917443 0.297273)
(0.740413 0.896005 0.293786)
(0.74888 0.914375 0.297465)
(0.67074 0.819326 0.268016)
(0.660039 0.805891 0.260743)
(0.639493 0.768959 0.252448)
(0.701868 0.862202 0.278693)
(0.673159 0.823359 0.266472)
(0.667865 0.810521 0.266755)
(0.630654 0.762357 0.257205)
(0.735628 0.896218 0.290311)
(0.678907 0.816298 0.269359)
(0.681075 0.825157 0.269401)
(0.658706 0.801764 0.269168)
(0.628378 0.765585 0.247808)
(0.577622 0.713894 0.222939)
(0.52948 0.6501 0.205078)
(0.367986 0.443771 0.150546)
(0.397305 0.472141 0.166004)
(0.465131 0.54716 0.178357)
(0.459855 0.559215 0.195454)
(0.477465 0.593744 0.186224)
(0.465966 0.558281 0.188399)
(0.404562 0.474708 0.164233)
(0.393623 0.462078 0.155825)
(0.435786 0.517958 0.171695)
(0.399235 0.478694 0.157912)
(0.405754 0.487883 0.165248)
(0.3808 0.46024 0.155645)
(0.406801 0.490602 0.174221)
(0.424717 0.505668 0.164261)
(0.403952 0.483697 0.162896)
(0.357791 0.43831 0.14359)
(0.363958 0.436506 0.151276)
(0.367351 0.449617 0.142466)
(0.419672 0.509065 0.155124)
(0.372506 0.454465 0.143505)
(0.386732 0.467976 0.145672)
(0.362704 0.464379 0.143268)
(0.369911 0.448348 0.140173)
(0.368844 0.451397 0.138978)
(0.390907 0.477202 0.147959)
(0.396112 0.486412 0.157583)
(0.351465 0.434958 0.137635)
(0.379854 0.468294 0.147574)
(0.390425 0.482504 0.162257)
(0.411671 0.508138 0.161526)
(0.393308 0.478436 0.149787)
(0.345697 0.429069 0.136025)
(0.346316 0.42892 0.143189)
(0.35816 0.438575 0.14559)
(0.339914 0.42693 0.142978)
(0.317011 0.397723 0.134174)
(0.356736 0.435602 0.143408)
(0.349972 0.438959 0.14806)
(0.327231 0.407271 0.135251)
(0.377213 0.467341 0.155897)
(0.369707 0.460971 0.147001)
(0.339768 0.429528 0.144882)
(0.394442 0.490931 0.159907)
(0.346129 0.430156 0.134134)
(0.363592 0.458604 0.146173)
(0.348194 0.444379 0.139148)
(0.322603 0.392376 0.124105)
(0.328786 0.413689 0.134798)
(0.366054 0.443994 0.149561)
(0.351039 0.431704 0.149089)
(0.331388 0.409053 0.133882)
(0.36439 0.446153 0.14828)
(0.354202 0.432438 0.137351)
(0.348244 0.444628 0.1529)
(0.348586 0.433661 0.143419)
(0.351754 0.440382 0.147884)
(0.370996 0.451632 0.152722)
(0.333107 0.414567 0.1395)
(0.343512 0.425859 0.139555)
(0.360057 0.442791 0.143311)
(0.350415 0.425957 0.1367)
(0.33329 0.407302 0.131803)
(0.374496 0.453344 0.150217)
(0.367849 0.449483 0.152526)
(0.333954 0.411416 0.128324)
(0.340194 0.423098 0.135941)
(0.335566 0.428566 0.143654)
(0.336232 0.425129 0.13468)
(0.355197 0.438652 0.157078)
(0.381926 0.468331 0.154632)
(0.385483 0.472553 0.157611)
(0.34515 0.435593 0.142782)
(0.340115 0.42641 0.135956)
(0.349261 0.428266 0.146424)
(0.323491 0.399972 0.131441)
(0.346724 0.415053 0.140977)
(0.378315 0.449558 0.159646)
(0.397892 0.483476 0.163876)
(0.354878 0.43783 0.138399)
(0.334225 0.425041 0.138679)
(0.325025 0.413041 0.126716)
(0.336493 0.428292 0.135314)
(0.350869 0.431017 0.141543)
(0.35002 0.436985 0.139758)
(0.369559 0.436363 0.155496)
(0.362308 0.444127 0.143018)
(0.377882 0.46524 0.15575)
(0.391514 0.473529 0.157257)
(0.335955 0.408254 0.13476)
(0.343086 0.424392 0.143816)
(0.365298 0.450721 0.15023)
(0.33543 0.404078 0.125425)
(0.355661 0.432111 0.142102)
(0.353018 0.437954 0.141809)
(0.36808 0.460254 0.150918)
(0.351592 0.441419 0.153271)
(0.369525 0.433107 0.150301)
(0.358753 0.442361 0.140248)
(0.381917 0.45512 0.152646)
(0.345565 0.425467 0.145946)
(0.388924 0.46098 0.157083)
(0.372665 0.447737 0.15326)
(0.380971 0.460286 0.158108)
(0.344614 0.418394 0.14797)
(0.360169 0.427361 0.148456)
(0.325584 0.413129 0.140661)
(0.340911 0.432471 0.148482)
(0.341649 0.426993 0.145109)
(0.345599 0.422619 0.139217)
(0.336356 0.410857 0.132023)
(0.367048 0.440714 0.141559)
(0.366683 0.450342 0.142628)
(0.356569 0.431552 0.138293)
(0.333406 0.40202 0.134494)
(0.358707 0.432227 0.141655)
(0.314531 0.386702 0.132433)
(0.32367 0.397535 0.135934)
(0.367241 0.440418 0.144861)
(0.380065 0.442009 0.14968)
(0.327911 0.407857 0.142625)
(0.321108 0.397546 0.13067)
(0.343238 0.429151 0.149692)
(0.355057 0.445971 0.148512)
(0.364355 0.454012 0.146675)
(0.358408 0.43854 0.141612)
(0.403158 0.476373 0.156879)
(0.375395 0.451622 0.15281)
(0.391941 0.458917 0.162191)
(0.360867 0.445682 0.144684)
(0.363292 0.440641 0.138276)
(0.357947 0.43655 0.142246)
(0.357854 0.434969 0.134951)
(0.356107 0.427453 0.142168)
(0.391599 0.45852 0.16433)
(0.402668 0.489468 0.166027)
(0.365843 0.452271 0.144514)
(0.364926 0.45327 0.150717)
(0.372985 0.435656 0.149218)
(0.335007 0.39644 0.129962)
(0.369291 0.447387 0.146563)
(0.35343 0.422813 0.141999)
(0.353423 0.428643 0.140206)
(0.369938 0.437913 0.144062)
(0.3478 0.424478 0.144166)
(0.345711 0.423159 0.136523)
(0.336789 0.421648 0.14118)
(0.358823 0.426014 0.141787)
(0.384969 0.45851 0.150069)
(0.37177 0.449545 0.142112)
(0.379333 0.457771 0.151773)
(0.362027 0.432339 0.137016)
(0.365399 0.45392 0.14011)
(0.345598 0.424771 0.140447)
(0.35028 0.440421 0.145944)
(0.340418 0.421736 0.148189)
(0.361044 0.444367 0.146592)
(0.374118 0.449126 0.147903)
(0.361496 0.444151 0.154513)
(0.348926 0.418553 0.136806)
(0.337523 0.402964 0.129506)
(0.371467 0.432151 0.139772)
(0.365585 0.448042 0.155053)
(0.360292 0.435899 0.148409)
(0.36517 0.44716 0.149355)
(0.341337 0.40933 0.141059)
(0.344944 0.42415 0.136315)
(0.364397 0.437608 0.144253)
(0.34905 0.421821 0.134592)
(0.364425 0.436416 0.137806)
(0.352746 0.424118 0.136807)
(0.368962 0.450002 0.147955)
(0.380237 0.461262 0.151917)
(0.368604 0.450791 0.147019)
(0.379519 0.446702 0.141787)
(0.362485 0.437263 0.142907)
(0.416115 0.499424 0.152539)
(0.356009 0.438029 0.137086)
(0.348214 0.419052 0.12962)
(0.372394 0.455581 0.141885)
(0.355536 0.438577 0.130504)
(0.359381 0.450428 0.131804)
(0.370334 0.468729 0.146898)
(0.355796 0.439252 0.14101)
(0.362685 0.446216 0.156676)
(0.353437 0.44992 0.145153)
(0.388449 0.468348 0.15824)
(0.363231 0.45566 0.153301)
(0.374987 0.450093 0.147592)
(0.356445 0.425559 0.132342)
(0.321157 0.388476 0.121694)
(0.36338 0.431751 0.141196)
(0.350144 0.430421 0.130743)
(0.355814 0.438814 0.143681)
(0.378083 0.464318 0.137475)
(0.677147 0.837632 0.267051)
(0.630541 0.782128 0.251035)
(0.687968 0.848579 0.274187)
(0.683442 0.854936 0.27233)
(0.722092 0.903997 0.288552)
(0.726648 0.90055 0.290299)
(0.348444 0.423515 0.136212)
(0.364314 0.436717 0.13216)
(0.35803 0.439763 0.14416)
(0.364733 0.440758 0.143886)
(0.328709 0.394193 0.128512)
(0.356015 0.413014 0.143434)
(0.348831 0.420115 0.13729)
(0.358779 0.435003 0.145723)
(0.368578 0.466498 0.146063)
(0.341424 0.430584 0.143864)