/*--------------------------------*- C++ -*----------------------------------*\
| =========                 |                                                 |
| \\      /  F ield         | OpenFOAM: The Open Source CFD Toolbox           |
|  \\    /   O peration     | Version:  v1612+                                |
|   \\  /    A nd           | Web:      www.OpenFOAM.com                      |
|    \\/     M anipulation  |                                                 |
\*---------------------------------------------------------------------------*/
FoamFile
{
    version     2.0;
    format      ascii;
    class       volScalarField;
    location    "206";
    object      p;
}
// * * * * * * * * * * * * * * * * * * * * * * * * * * * * * * * * * * * * * //

dimensions      [0 2 -2 0 0 0 0];

internalField   nonuniform List<scalar> 
18757
(
2.95601
2.90691
2.97647
2.92644
2.93221
2.92231
2.92811
2.93374
2.93993
2.93951
2.93705
2.93277
2.94086
2.93447
2.94556
2.94533
2.9403
2.93733
2.94762
2.94437
2.90833
2.90155
2.91718
2.90667
2.92444
2.93079
2.90941
2.91398
2.92383
2.92826
2.91882
2.92944
2.93013
2.92376
2.91528
2.91987
2.92107
2.92067
2.89941
2.89624
2.8961
2.89267
2.89002
2.89481
2.89273
2.89791
2.90754
2.90739
2.90463
2.90412
2.90318
2.89961
2.90748
2.90858
2.91338
2.9293
2.9279
2.93115
2.93414
2.93047
2.93269
2.93567
2.93924
2.9428
2.9423
2.9304
2.93427
2.93351
2.93509
2.92398
2.93987
2.94091
2.94086
2.94004
2.93906
2.93614
2.93433
2.92817
2.89888
2.90465
2.894
2.89828
2.89731
2.89819
2.88699
2.88831
2.88382
2.9028
2.88591
2.88825
2.89456
2.89625
2.93476
2.93118
2.93017
2.92975
2.93021
2.92482
2.93034
2.93801
2.93268
2.92718
2.92881
2.9404
2.93831
2.9307
2.93081
2.93043
2.92896
2.93202
2.93588
2.94064
2.95894
2.95821
2.9632
2.96316
2.96052
2.9644
2.95748
2.95672
2.95903
2.95741
2.96148
2.95359
2.94669
2.96926
2.9516
2.95475
2.95959
2.95858
2.95572
2.95228
2.94634
2.94868
2.94436
2.95521
2.95281
2.95364
2.95521
2.95587
2.9577
2.94707
2.94665
2.95239
2.9518
2.95718
2.96009
2.9476
2.96157
2.90216
2.90378
2.90198
2.89371
2.88712
2.89261
2.90174
2.90192
2.91093
2.89362
2.88834
2.89926
2.90002
2.94078
2.94149
2.92956
2.93642
2.9339
2.93705
2.9339
2.93795
2.93935
2.9355
2.93849
2.9386
2.93731
2.94329
2.94058
2.93965
2.94733
2.93792
2.94352
2.94405
2.93571
2.94307
2.93725
2.92768
2.92967
2.93135
2.93146
2.92835
2.93461
2.94139
2.93964
2.93795
2.93528
2.93774
2.9376
2.93076
2.93321
2.93998
2.93336
2.93511
2.93577
2.88907
2.89252
2.88009
2.89632
2.89626
2.87362
2.87317
2.88372
2.88504
2.86955
2.87744
2.89001
2.88432
2.91708
2.91983
2.9201
2.92004
2.92336
2.92271
2.91822
2.91977
2.92218
2.92929
2.92904
2.92241
2.92541
2.9258
2.92771
2.91447
2.91891
2.92824
2.98142
2.98073
2.97849
2.97834
2.97992
2.9861
2.98961
2.98538
2.98475
2.97345
2.98034
2.97805
2.98971
2.98387
2.98322
2.98917
2.97777
2.97905
2.98077
2.97999
2.98042
2.98415
2.9493
2.95916
2.95991
2.9541
2.95859
2.96128
2.96568
2.95955
2.95641
2.97063
2.97785
2.96021
2.97087
2.95703
2.95833
2.963
2.96461
2.96488
2.9634
2.96051
2.96464
2.97277
2.92397
2.92747
2.91973
2.91942
2.91924
2.92027
2.92966
2.93239
2.92153
2.9231
2.92527
2.92599
2.9295
2.93456
2.92535
2.92505
2.87349
2.86964
2.8801
2.88153
2.89718
2.89728
2.87544
2.86673
2.89135
2.88996
2.89516
2.88657
2.88108
2.87196
2.87362
2.87363
2.87394
2.87467
2.832
2.83195
2.82802
2.83842
2.83231
2.82575
2.84803
2.83539
2.83746
2.8572
2.85094
2.86118
2.84763
2.85423
2.85023
2.87962
2.88166
2.88691
2.88335
2.88533
2.8814
2.87759
2.88719
2.88243
2.8911
2.89095
2.88415
2.89222
2.89218
2.89218
2.89075
2.88053
2.88827
2.88821
2.88354
2.94639
2.93331
2.94886
2.95345
2.93932
2.94243
2.93983
2.94487
2.93615
2.93876
2.93754
2.94851
2.95271
2.94862
2.93935
2.94565
2.94569
2.945
2.94708
2.95498
2.8793
2.88319
2.87059
2.87464
2.88211
2.89705
2.89177
2.87523
2.88895
2.89293
2.88344
2.90228
2.89627
2.90527
2.91008
2.89951
2.90366
2.8997
2.90063
2.88594
2.88444
2.87609
2.88036
2.89383
2.88952
2.88784
2.89695
2.96706
2.96679
2.95359
2.9671
2.96563
2.96494
2.96165
2.96721
2.9539
2.96296
2.96024
2.96292
2.968
2.95771
2.95544
2.9627
2.92321
2.91547
2.91021
2.91222
2.92199
2.92134
2.91828
2.92431
2.91629
2.91871
2.91554
2.91078
2.9142
2.9298
2.92891
2.92144
2.93388
2.93388
2.92216
2.93819
2.93717
2.93435
2.93185
2.9253
2.93856
2.93174
2.93433
2.93757
2.93331
2.92815
2.93528
2.93272
2.93263
2.92467
2.92627
2.93978
2.92505
2.92306
2.92189
2.91729
2.92291
2.92111
2.93023
2.93097
2.93848
2.92461
2.92371
2.92093
2.93367
2.93631
2.93457
2.93034
2.93027
2.9519
2.9512
2.95755
2.95769
2.95294
2.95018
2.90438
2.89003
2.90175
2.88933
2.88933
2.89022
2.8962
2.90743
2.8865
2.89205
2.90025
2.895
2.89665
2.90179
2.90312
2.85971
2.88254
2.8711
2.8766
2.88398
2.88887
2.87801
2.88359
2.84525
2.84449
2.81739
2.81371
2.82701
2.83665
2.84428
2.84661
2.84189
2.83816
2.83564
2.81353
2.81103
2.81813
2.82127
2.81614
2.83488
2.8328
2.8313
2.82402
2.83281
2.81951
2.81107
2.98407
2.98338
2.98721
2.98035
2.98321
2.98074
2.98485
2.97834
2.97791
2.98099
2.98163
2.98007
2.97764
2.97711
2.90897
2.90396
2.90847
2.90656
2.91178
2.9051
2.90111
2.89653
2.89532
2.8857
2.88935
2.90576
2.90032
2.90745
2.91599
2.89643
2.9137
2.91274
2.91896
2.91389
2.90284
2.90841
2.90768
2.90524
2.90995
2.90396
2.90629
2.90042
2.90858
2.90515
2.9101
2.91562
2.90949
2.91541
2.91388
2.91643
2.8618
2.85881
2.86752
2.85602
2.86497
2.8682
2.86473
2.86461
2.871
2.86693
2.87534
2.86406
2.85464
2.85822
2.86197
2.85834
2.86788
2.87472
2.877
2.85713
2.87119
2.96305
2.96775
2.96684
2.97218
2.97926
2.97798
2.97055
2.97494
2.97967
2.96769
2.97915
2.97727
2.97445
2.97121
2.97072
2.92903
2.92975
2.9217
2.92412
2.93212
2.92862
2.93268
2.92815
2.92087
2.92066
2.9181
2.91477
2.91055
2.92826
2.91315
2.91218
2.92237
2.91978
2.91145
2.9064
2.92007
2.94295
2.94679
2.94268
2.93964
2.93813
2.94226
2.93111
2.92488
2.93066
2.93425
2.93498
2.8687
2.87327
2.8632
2.85695
2.86237
2.87099
2.87247
2.86489
2.86735
2.85949
2.85431
2.8635
2.87352
2.8722
2.8694
2.86388
2.86211
2.87137
2.86939
2.86346
2.86236
2.86656
2.93858
2.94456
2.94155
2.93856
2.94639
2.9434
2.94363
2.93976
2.94253
2.94383
2.94456
2.93902
2.94155
2.94702
2.93887
2.93529
2.92993
2.92938
2.93461
2.9331
2.93589
2.93206
2.93767
2.93348
2.92887
2.92411
2.92361
2.92683
2.92368
2.92378
2.92492
2.9457
2.94818
2.9539
2.95668
2.95506
2.95405
2.94975
2.94434
2.93487
2.955
2.95306
2.94549
2.94135
2.95581
2.94484
2.93868
2.93835
2.93801
2.94034
2.93751
2.94618
2.94553
2.89358
2.89311
2.89095
2.89476
2.88976
2.88264
2.8906
2.88408
2.91288
2.91202
2.92379
2.91791
2.914
2.90918
2.9246
2.91688
2.92229
2.92884
2.93126
2.91821
2.91754
2.90433
2.92444
2.9193
2.90096
2.9042
2.89589
2.89678
2.92056
2.92613
2.92131
2.91022
2.90744
2.90005
2.91339
2.92559
2.92572
2.91432
2.92879
2.92253
2.91713
2.82012
2.83475
2.84725
2.85558
2.83897
2.83695
2.82568
2.82327
2.85076
2.84957
2.82908
2.83679
2.8422
2.84228
2.82982
2.85276
2.83961
2.84002
2.85295
2.95202
2.95189
2.94989
2.94886
2.95779
2.95478
2.9544
2.94371
2.95162
2.96695
2.96414
2.96742
2.97024
2.96758
2.96696
2.96787
2.9697
2.96684
2.93329
2.9363
2.93108
2.93461
2.93364
2.93882
2.93222
2.9437
2.94879
2.9484
2.94398
2.94463
2.94725
2.93986
2.94232
2.94255
2.98147
2.98671
2.98555
2.98223
2.98094
2.98582
2.97827
2.98051
2.97887
2.97905
2.97446
2.97671
2.98589
2.97493
2.97517
2.96298
2.96803
2.97325
2.98263
2.98034
2.97586
2.97244
2.96751
2.96798
2.96508
2.97105
2.97376
2.97388
2.96635
2.9621
2.9616
2.96354
2.904
2.90228
2.89167
2.89303
2.89703
2.89862
2.89599
2.88829
2.8924
2.88554
2.89177
2.90233
2.8936
2.89185
2.95168
2.94512
2.95814
2.95417
2.94121
2.93824
2.94601
2.94293
2.94539
2.95288
2.95065
2.9499
2.94611
2.9526
2.94597
2.9385
2.9359
2.93649
2.94188
2.94874
2.95345
2.9462
2.95191
2.9581
2.94472
2.95638
2.95269
2.94517
2.95942
2.95298
2.96009
2.95127
2.96452
2.85549
2.85017
2.8502
2.85222
2.8502
2.85102
2.85038
2.85374
2.8546
2.84703
2.84041
2.84435
2.85018
2.84914
2.8466
2.85157
2.85124
2.848
2.87777
2.87549
2.87645
2.87305
2.87482
2.85241
2.8625
2.86851
2.86584
2.8599
2.86203
2.85467
2.85283
2.86721
2.85473
2.85362
2.94602
2.94552
2.94774
2.9479
2.93328
2.94043
2.94893
2.92545
2.93135
2.93054
2.93723
2.93866
2.93796
2.92158
2.92817
2.92682
2.93975
2.9243
2.93242
2.93159
2.92856
2.94198
2.9469
2.9502
2.94461
2.93786
2.9368
2.93624
2.93774
2.93172
2.92961
2.93743
2.92312
2.92932
2.93556
2.9309
2.92695
2.92437
2.91987
2.92343
2.92995
2.93394
2.93063
2.92731
2.92633
2.93587
2.9279
2.93292
2.9375
2.93533
2.82275
2.81787
2.83067
2.82498
2.84251
2.84145
2.81331
2.81563
2.81803
2.82727
2.84052
2.84135
2.83621
2.83631
2.82065
2.81676
2.82592
2.8384
2.82957
2.82839
2.88885
2.88927
2.88753
2.89004
2.88417
2.8834
2.88233
2.87244
2.87415
2.88075
2.87002
2.86482
2.86745
2.94839
2.94671
2.94222
2.93714
2.95179
2.94633
2.94164
2.9528
2.95062
2.9492
2.95189
2.94229
2.94141
2.94528
2.94355
2.94556
2.79613
2.79766
2.79871
2.79855
2.79147
2.80844
2.80488
2.79959
2.8023
2.8002
2.80716
2.95932
2.95972
2.95776
2.96012
2.96856
2.95687
2.95247
2.95006
2.94731
2.95461
2.95863
2.96014
2.9602
2.96459
2.96084
2.96166
2.95454
2.95763
2.92232
2.91162
2.90907
2.91407
2.92143
2.92886
2.92912
2.88774
2.88813
2.94205
2.93789
2.9388
2.82093
2.82185
2.92828
2.92803
2.89369
2.89513
2.88801
2.83032
2.8282
2.81254
2.82259
2.81999
2.9498
2.95081
2.7976
2.79973
2.79267
2.95407
2.95478
2.81279
2.81407
2.92406
2.93805
2.93366
2.93436
2.88082
2.87495
2.88055
2.80855
2.80366
2.95057
2.87315
2.88404
2.88594
2.94933
2.94775
2.84034
2.8397
2.84293
2.96458
2.96661
2.91855
2.91718
2.91214
2.86995
2.86989
2.81633
2.82072
2.94409
2.93875
2.94039
2.8255
2.81688
2.90169
2.89808
2.83298
2.83235
2.86861
2.86831
2.94652
2.93219
2.93399
2.97034
2.97056
2.97522
2.94993
2.95649
2.95511
2.95982
2.87129
2.87307
2.87069
2.9665
2.97336
2.96918
2.90665
2.89873
2.8953
2.90518
2.91075
2.93874
2.93465
2.84278
2.84758
2.84916
2.92847
2.92699
2.98073
2.97714
2.97693
2.88438
2.88802
2.88863
2.96
2.96381
2.96728
2.97136
2.97223
2.97157
2.92392
2.9239
2.91622
2.87312
2.8726
2.89799
2.8951
2.89678
2.89924
2.88961
2.89424
2.8908
2.97808
2.97976
2.92431
2.93349
2.94068
2.96495
2.96302
2.9603
2.95663
2.94096
2.9455
2.94713
2.97956
2.98288
2.89667
2.89855
2.89031
2.98073
2.97991
2.92601
2.92339
2.92232
2.94592
2.94519
2.93553
2.9886
2.98664
2.94549
2.93939
2.94059
2.93627
2.92522
2.91935
2.92108
2.94569
2.9367
2.93787
2.96839
2.97053
2.96523
2.96555
2.97359
2.97897
2.97728
2.97229
2.97992
2.98137
2.91016
2.91396
2.9729
2.97216
2.96002
2.97953
2.97664
2.98042
2.97506
2.97514
2.97562
2.97594
2.94355
2.93929
2.93704
2.93125
2.93428
2.95814
2.95823
2.98927
2.99223
2.97936
2.97695
2.97309
2.97365
2.97438
2.95888
2.95057
2.9571
2.95278
2.98969
2.99124
2.99483
2.98152
2.98714
2.9844
2.98102
2.9943
2.99718
2.98968
2.95463
2.95283
2.99545
2.99313
2.98923
2.98698
2.9921
2.96421
2.97258
2.9811
2.98238
2.9838
2.99211
2.99225
2.98966
2.99828
2.99621
2.9848
2.98895
2.98728
2.98797
2.9955
2.99908
2.99887
2.99053
2.99262
2.97671
2.98161
2.97976
2.97865
2.98223
2.98384
2.98865
2.98192
2.98322
2.98639
2.98361
2.9856
2.98398
2.984
2.98437
2.97519
2.97811
2.93588
2.94275
2.93431
2.95037
2.94896
2.94346
2.94616
2.94272
2.96323
2.96472
2.96105
2.9737
2.97506
2.93342
2.94446
2.95343
2.94665
2.98982
2.98639
2.99459
2.98974
2.98855
2.99226
2.99162
2.99557
2.98753
2.98768
2.98658
2.99274
2.99071
2.99816
2.98881
2.99694
2.99134
2.98699
2.98398
2.99544
2.99521
2.9889
2.99723
2.99432
2.99234
2.99359
2.98981
2.98868
2.99391
2.99073
2.98711
2.98776
2.98773
2.98611
2.93966
2.94315
2.94701
2.94643
2.95015
2.95272
2.96193
2.95931
2.95355
2.95441
2.94958
2.95037
2.94511
2.94713
2.94385
2.98563
2.98798
2.99517
2.98994
2.99062
2.9838
2.98803
2.98819
2.99196
2.9879
2.98931
2.99139
2.99166
2.99394
2.99158
2.99198
2.99275
2.98999
2.99929
2.99149
2.9839
2.99098
2.99279
2.98892
2.98483
2.98591
2.99121
2.98619
2.98601
2.98248
2.98301
2.98635
2.97571
2.97876
2.97587
2.97774
2.98242
2.98433
2.98099
2.98267
2.98633
2.98586
2.98499
2.9855
2.99154
2.9871
2.98597
2.98728
2.98663
2.98725
2.95928
2.95317
2.96352
2.96574
2.95713
2.96764
2.93454
2.9361
2.94272
2.95155
2.95442
2.95407
2.94517
2.94456
2.9451
2.94005
2.9456
2.97373
2.97587
2.9709
2.97526
2.97623
2.9732
2.97094
2.96917
2.96794
2.97309
2.97185
2.96772
2.97294
2.97016
2.97129
2.98496
2.99074
2.98389
2.98248
2.99596
2.99231
2.95229
2.95783
2.95587
2.94739
2.95345
2.95717
2.96378
2.96232
2.95964
2.96074
2.96584
2.96548
2.90845
2.92265
2.92048
2.92126
2.92417
2.9328
2.92989
2.93267
2.9272
2.92978
2.92497
2.92816
2.93152
2.9382
2.93821
2.94006
2.93475
2.93026
2.93389
2.95103
2.95011
2.94403
2.94295
2.9418
2.94236
2.93936
2.9368
2.92768
2.92495
2.93735
2.9354
2.93358
2.93723
2.94535
2.95191
2.9512
2.94823
2.98111
2.98228
2.97966
2.97803
2.9805
2.98282
2.98245
2.98047
2.97602
2.97682
2.9876
2.98736
2.97351
2.97333
2.98205
2.97655
2.97325
2.96846
2.97183
2.96835
2.9754
2.9807
2.96894
2.98459
2.97868
2.91074
2.91478
2.90725
2.89966
2.9079
2.90852
2.90498
2.91069
2.91401
2.92336
2.92318
2.92239
2.91841
2.91465
2.91057
2.90734
2.91699
2.91726
2.92809
2.92133
2.92857
2.91622
2.9154
2.94031
2.92618
2.93301
2.92829
2.97736
2.97829
2.97446
2.98297
2.98022
2.97905
2.97791
2.9782
2.98524
2.98803
2.96781
2.96778
2.97215
2.97077
2.96939
2.96813
2.97547
2.9765
2.97344
2.9703
2.96888
2.97665
2.97217
2.96418
2.96825
2.96703
2.96836
2.96829
2.97136
2.97005
2.96825
2.9689
2.95537
2.95984
2.95674
2.96363
2.9615
2.9533
2.95678
2.96144
2.9632
2.95953
2.95647
2.95908
2.96225
2.96437
2.96287
2.96741
2.96719
2.92221
2.91501
2.92479
2.93221
2.92735
2.92981
2.92954
2.95243
2.95227
2.9564
2.95161
2.95681
2.94521
2.95706
2.94599
2.91644
2.92156
2.9184
2.91659
2.91415
2.93337
2.92647
2.932
2.92855
2.93419
2.9349
2.92494
2.92797
2.93385
2.93616
2.93164
2.92551
2.92992
2.93305
2.93475
2.92829
2.92776
2.9461
2.94439
2.94628
2.93911
2.94337
2.94667
2.93988
2.9387
2.93919
2.93955
2.93973
2.94541
2.94446
2.94041
2.93713
2.9753
2.9776
2.98363
2.98225
2.98914
2.98303
2.98694
2.98205
2.98848
2.98573
2.98848
2.99722
2.98877
2.98846
2.98644
2.99454
2.90846
2.91181
2.91801
2.93283
2.93818
2.92442
2.91847
2.92212
2.91698
2.92654
2.93148
2.92438
2.932
2.91901
2.9235
2.95689
2.95043
2.94729
2.96272
2.95758
2.96658
2.95647
2.95071
2.9566
2.95362
2.91219
2.91305
2.91537
2.9112
2.91332
2.90771
2.90382
2.90248
2.91479
2.91652
2.91231
2.97147
2.97234
2.97483
2.97991
2.9714
2.97846
2.9738
2.98531
2.97986
2.97486
2.97582
2.97333
2.97113
2.96974
2.97602
2.97243
2.97745
2.9699
2.97336
2.97638
2.97748
2.88492
2.87928
2.88322
2.89037
2.89574
2.88719
2.89493
2.89774
2.88974
2.89529
2.89402
2.89016
2.90029
2.89214
2.89468
2.92112
2.9136
2.90091
2.90269
2.89937
2.90662
2.90452
2.90517
2.90455
2.90016
2.89876
2.90363
2.91126
2.91618
2.91603
2.91269
2.91275
2.90129
2.89999
2.97375
2.97426
2.98152
2.98325
2.98625
2.98074
2.9766
2.97536
2.97179
2.97821
2.97974
2.97779
2.987
2.97594
2.98094
2.97799
2.97093
2.97896
2.97846
2.97601
2.95038
2.95489
2.95493
2.95234
2.94828
2.94608
2.94714
2.94217
2.94143
2.93387
2.94102
2.93985
2.94038
2.93978
2.93373
2.93054
2.95861
2.95711
2.95226
2.95461
2.96497
2.96098
2.96012
2.96555
2.97032
2.96938
2.96965
2.87648
2.87279
2.88293
2.95193
2.95243
2.9426
2.92158
2.9393
2.94433
2.92294
2.90505
2.90679
2.92378
2.92082
2.91394
2.91534
2.89362
2.89407
2.94547
2.95793
2.95163
2.97147
2.9739
2.97799
2.97756
2.97219
2.97236
2.97255
2.97507
2.98361
2.98264
2.97828
2.97918
2.98519
2.88103
2.87677
2.88178
2.88151
2.90409
2.90019
2.89366
2.9024
2.90281
2.90785
2.90554
2.90456
2.89883
2.88353
2.88938
2.88802
2.88423
2.88626
2.85467
2.86619
2.87312
2.87079
2.87546
2.88338
2.88862
2.89672
2.89549
2.88315
2.88241
2.89285
2.89296
2.88281
2.88137
2.88083
2.86486
2.87298
2.87416
2.8711
2.87149
2.86813
2.90939
2.90785
2.91499
2.91135
2.91797
2.91415
2.91641
2.91862
2.9181
2.93325
2.93432
2.93786
2.93416
2.9344
2.93792
2.92853
2.92499
2.92208
2.92521
2.92569
2.92001
2.92929
2.92838
2.929
2.92823
2.93045
2.93247
2.92143
2.92302
2.96587
2.97035
2.96865
2.96053
2.95879
2.95312
2.94494
2.97288
2.97001
2.97873
2.9785
2.97565
2.95129
2.9584
2.96114
2.964
2.95882
2.97232
2.96545
2.97114
2.96371
2.97668
2.97257
2.97558
2.9703
2.96888
2.96502
2.8877
2.88034
2.88631
2.87693
2.86951
2.88085
2.87874
2.87665
2.87383
2.87423
2.86645
2.87999
2.87561
2.88001
2.87758
2.8817
2.88341
2.87487
2.87339
2.90536
2.90911
2.91201
2.90017
2.89357
2.97209
2.97386
2.97203
2.97793
2.9852
2.9741
2.9784
2.96757
2.96758
2.97863
2.97471
2.9113
2.91787
2.9207
2.9283
2.92489
2.92523
2.94199
2.94505
2.83913
2.84383
2.84616
2.86082
2.86324
2.85279
2.85036
2.8549
2.86287
2.83778
2.83916
2.84447
2.83896
2.84756
2.85682
2.84972
2.85684
2.85319
2.85211
2.8472
2.84789
2.85821
2.85123
2.85452
2.84781
2.85064
2.93519
2.9424
2.94396
2.91805
2.93774
2.93332
2.96155
2.96029
2.95337
2.94935
2.9615
2.95453
2.94538
2.94705
2.94228
2.93642
2.94409
2.95608
2.95501
2.94378
2.94172
2.94533
2.94741
2.95287
2.94126
2.94332
2.86561
2.85768
2.86531
2.88137
2.88561
2.86958
2.88543
2.89328
2.89554
2.90172
2.90257
2.91124
2.89968
2.89626
2.91424
2.9129
2.89228
2.89613
2.91168
2.90923
2.90316
2.90143
2.90262
2.90433
2.91307
2.91618
2.91165
2.91319
2.96998
2.96354
2.96957
2.84983
2.85891
2.8565
2.8725
2.86979
2.86793
2.85945
2.85856
2.8647
2.86738
2.88673
2.89572
2.89328
2.88485
2.87745
2.87844
2.87893
2.88018
2.88788
2.8949
2.96455
2.96634
2.9591
2.95716
2.96317
2.95454
2.95552
2.94514
2.94171
2.95102
2.94701
2.9504
2.935
2.9363
2.92945
2.94081
2.94524
2.95482
2.95279
2.94734
2.95243
2.95113
2.96963
2.96933
2.97221
2.96298
2.97104
2.96977
2.9676
2.97735
2.97087
2.96724
2.97207
2.97113
2.89073
2.90821
2.88821
2.88445
2.91095
2.92465
2.93797
2.93396
2.92676
2.93325
2.93755
2.93563
2.93721
2.93021
2.92535
2.92043
2.91484
2.91765
2.92281
2.92114
2.94198
2.93214
2.93465
2.95533
2.94201
2.95792
2.94084
2.93557
2.82731
2.834
2.84777
2.85972
2.84376
2.85175
2.88482
2.88105
2.88617
2.87857
2.87702
2.82626
2.83098
2.83404
2.82521
2.82782
2.83491
2.91777
2.92208
2.91608
2.87999
2.88166
2.90617
2.9048
2.89908
2.90834
2.91051
2.8905
2.8921
2.89058
2.8947
2.89852
2.81459
2.80497
2.81826
2.83702
2.82426
2.83918
2.83798
2.83154
2.83139
2.94037
2.93375
2.93701
2.93502
2.92887
2.93542
2.93471
2.92695
2.92505
2.93351
2.93159
2.93222
2.93715
2.93329
2.93363
2.83249
2.83888
2.83169
2.83563
2.83154
2.81159
2.82533
2.82233
2.83065
2.83282
2.82506
2.82223
2.82499
2.82749
2.8054
2.80945
2.80583
2.8153
2.8166
2.81089
2.81052
2.81926
2.8213
2.81483
2.82246
2.81969
2.81777
2.82407
2.90656
2.89295
2.90535
2.9014
2.91169
2.9156
2.88825
2.8867
2.88973
2.8996
2.8964
2.88046
2.87563
2.83133
2.83772
2.82872
2.83668
2.8406
2.83789
2.92065
2.92337
2.92391
2.90351
2.90303
2.9005
2.90121
2.90595
2.91068
2.91325
2.91374
2.91495
2.91931
2.91594
2.9097
2.90949
2.90632
2.9116
2.9076
2.96127
2.96347
2.95963
2.95549
2.9493
2.95955
2.95315
2.94737
2.95169
2.96389
2.9623
2.96429
2.97016
2.96264
2.95728
2.96521
2.96388
2.96846
2.96216
2.83881
2.83112
2.83744
2.83509
2.82743
2.8315
2.83309
2.8394
2.83334
2.83436
2.80771
2.82742
2.82171
2.82975
2.84424
2.84692
2.85153
2.84729
2.84976
2.85468
2.85989
2.85243
2.85086
2.92673
2.93179
2.92929
2.89766
2.89743
2.90667
2.85361
2.85976
2.86424
2.85044
2.86032
2.84867
2.85542
2.86638
2.86746
2.85876
2.86393
2.88391
2.86904
2.94612
2.94709
2.95024
2.95897
2.95597
2.95826
2.95769
2.79393
2.79458
2.80597
2.79574
2.79899
2.80505
2.80947
2.79989
2.80186
2.80747
2.80585
2.80222
2.7999
2.8069
2.81036
2.82242
2.81989
2.81494
2.82502
2.83644
2.81212
2.82531
2.83115
2.81335
2.81706
2.82689
2.81389
2.86261
2.86563
2.85653
2.86463
2.85386
2.85715
2.8554
2.88068
2.87824
2.88012
2.87205
2.86396
2.86544
2.8621
2.85631
2.85898
2.86819
2.87447
2.92703
2.93575
2.94364
2.93985
2.9326
2.93088
2.92019
2.91931
2.92553
2.91881
2.79439
2.80555
2.80451
2.79887
2.7976
2.82194
2.81071
2.81013
2.81325
2.81489
2.80237
2.80575
2.80489
2.80964
2.81246
2.79077
2.80654
2.8243
2.81919
2.8211
2.82728
2.82468
2.82438
2.81847
2.81967
2.82698
2.82643
2.84002
2.82846
2.83419
2.8304
2.82601
2.93859
2.93307
2.95963
2.95632
2.95485
2.95479
2.95961
2.96066
2.95161
2.95496
2.95731
2.95883
2.96445
2.95812
2.95219
2.95739
2.78998
2.78782
2.78806
2.7954
2.78969
2.78853
2.79597
2.81316
2.80183
2.8179
2.80851
2.81899
2.81207
2.81114
2.7993
2.79768
2.81684
2.81018
2.80446
2.80958
2.8036
2.80271
2.79539
2.79458
2.78689
2.79326
2.79427
2.79888
2.79648
2.79204
2.78996
2.7952
2.93778
2.94023
2.94453
2.94465
2.94733
2.93817
2.93748
2.93235
2.94422
2.9412
2.93703
2.93976
2.93513
2.94501
2.93823
2.94485
2.94476
2.83252
2.83829
2.83335
2.82412
2.82085
2.88417
2.88703
2.88276
2.88998
2.9084
2.90943
2.90638
2.89988
2.89811
2.90189
2.89913
2.91175
2.90675
2.89563
2.90036
2.90252
2.89501
2.88124
2.87923
2.87948
2.88234
2.88782
2.92605
2.93341
2.92478
2.92838
2.92659
2.92622
2.93147
2.92654
2.9263
2.93243
2.92637
2.92825
2.91896
2.92196
2.92168
2.92153
2.92248
2.92039
2.91726
2.91263
2.91352
2.9102
2.92215
2.91769
2.91913
2.921
2.92038
2.87738
2.87472
2.85804
2.80892
2.81281
2.82019
2.81977
2.81809
2.8066
2.9284
2.93796
2.92917
2.93951
2.91759
2.9087
2.92386
2.92257
2.91055
2.93095
2.92306
2.92135
2.92216
2.92515
2.92458
2.92106
2.92602
2.91437
2.91372
2.90822
2.93911
2.92874
2.94815
2.94888
2.95024
2.94545
2.93391
2.94424
2.94396
2.94949
2.93443
2.93854
2.92266
2.80816
2.80513
2.89959
2.89514
2.88948
2.89093
2.90155
2.8998
2.89001
2.88613
2.89158
2.89123
2.88044
2.87871
2.92305
2.92581
2.93092
2.93097
2.91492
2.92141
2.91354
2.91234
2.91386
2.91799
2.91922
2.91574
2.91955
2.93026
2.9221
2.92137
2.93722
2.92786
2.92308
2.92638
2.92248
2.86143
2.85189
2.85195
2.84575
2.90731
2.91151
2.9042
2.90404
2.88192
2.88912
2.88038
2.86937
2.8835
2.90886
2.92695
2.93417
2.92891
2.93514
2.92922
2.93676
2.9213
2.92485
2.92246
2.92634
2.92195
2.91246
2.91311
2.91923
2.92535
2.91977
2.91734
2.91681
2.92259
2.9243
2.92327
2.91779
2.92242
2.92132
2.92058
2.92197
2.93566
2.93046
2.93219
2.93774
2.93067
2.9057
2.91429
2.91744
2.91652
2.91675
2.90993
2.90783
2.91967
2.91777
2.91543
2.91554
2.90785
2.89566
2.90463
2.90324
2.89914
2.90343
2.81845
2.8152
2.81876
2.80633
2.80958
2.81002
2.81033
2.8265
2.82704
2.82967
2.82181
2.82486
2.81025
2.82489
2.81615
2.8145
2.82127
2.82259
2.82008
2.81693
2.81117
2.81549
2.8077
2.80649
2.8932
2.89982
2.88984
2.91962
2.90523
2.89361
2.87936
2.89412
2.90566
2.9064
2.9095
2.89373
2.88832
2.88383
2.89072
2.88785
2.90325
2.90666
2.89342
2.88138
2.86967
2.87191
2.85818
2.86123
2.86424
2.87231
2.87416
2.86196
2.90494
2.90009
2.90898
2.90535
2.91071
2.90775
2.91907
2.91733
2.91387
2.91548
2.9159
2.90844
2.90576
2.90566
2.91345
2.91069
2.91854
2.91336
2.91536
2.91739
2.91702
2.80664
2.82626
2.81076
2.80426
2.80892
2.81014
2.809
2.80218
2.80413
2.78984
2.78904
2.93368
2.94679
2.94396
2.9467
2.93493
2.9424
2.93179
2.94819
2.94977
2.91709
2.91611
2.92501
2.91987
2.92189
2.91788
2.91557
2.91188
2.9077
2.91708
2.91279
2.92511
2.84891
2.85278
2.84801
2.84948
2.83793
2.82862
2.836
2.83568
2.83661
2.84343
2.84104
2.85923
2.85423
2.84309
2.84512
2.85164
2.85761
2.85278
2.85019
2.96431
2.95944
2.95805
2.95798
2.88485
2.86816
2.87392
2.85932
2.87315
2.8819
2.85848
2.91873
2.9244
2.92019
2.91212
2.92029
2.9176
2.9247
2.9298
2.93504
2.92522
2.90896
2.90268
2.91581
2.90157
2.9408
2.92649
2.92769
2.90732
2.92045
2.916
2.8555
2.8593
2.84565
2.84446
2.84847
2.85147
2.85255
2.85303
2.85342
2.87359
2.87636
2.88491
2.87049
2.87068
2.86132
2.86487
2.86253
2.86089
2.89266
2.89936
2.89439
2.89479
2.88644
2.88171
2.89648
2.89747
2.93231
2.928
2.93012
2.93049
2.93264
2.9176
2.91756
2.92443
2.92386
2.92593
2.92397
2.92273
2.88974
2.91105
2.89951
2.89397
2.91263
2.91058
2.91321
2.92029
2.90064
2.89029
2.89458
2.91969
2.9164
2.89966
2.88756
2.8872
2.89404
2.89575
2.89395
2.89622
2.8931
2.89136
2.89205
2.88618
2.88515
2.89539
2.89883
2.8924
2.89894
2.89291
2.8884
2.88283
2.88968
2.88559
2.88706
2.88466
2.86295
2.85998
2.86534
2.85755
2.8586
2.87018
2.86646
2.8665
2.86822
2.93119
2.9297
2.9215
2.91984
2.91781
2.92116
2.92297
2.86415
2.85307
2.86495
2.87189
2.86062
2.86812
2.85409
2.84956
2.85781
2.85248
2.86865
2.87906
2.85499
2.84667
2.84809
2.9366
2.94174
2.94177
2.94273
2.93568
2.93701
2.93568
2.95223
2.94303
2.95228
2.9538
2.94626
2.94607
2.94775
2.95424
2.96211
2.95515
2.95156
2.94859
2.9524
2.95408
2.9551
2.951
2.95283
2.95345
2.9467
2.95058
2.9518
2.94808
2.94315
2.94338
2.94342
2.96902
2.96099
2.97069
2.96409
2.95904
2.9643
2.96273
2.96368
2.96427
2.95547
2.9573
2.95254
2.9528
2.8726
2.86983
2.87253
2.88303
2.88941
2.88887
2.89584
2.8809
2.88808
2.88867
2.89219
2.84499
2.83608
2.848
2.8469
2.86063
2.84871
2.85468
2.83506
2.87033
2.86241
2.86055
2.85807
2.85656
2.8676
2.86843
2.86981
2.86015
2.84775
2.85528
2.85123
2.8649
2.86387
2.86908
2.85517
2.8551
2.86314
2.85844
2.84571
2.85327
2.84119
2.8385
2.84201
2.84575
2.84843
2.83837
2.84622
2.8341
2.84479
2.93472
2.92911
2.92969
2.93607
2.94358
2.93285
2.93194
2.9378
2.94039
2.93915
2.94408
2.94074
2.95028
2.9514
2.94274
2.94655
2.951
2.94825
2.94845
2.94934
2.91438
2.91739
2.91825
2.92253
2.91429
2.91628
2.91551
2.9183
2.91989
2.96024
2.96025
2.96028
2.95641
2.95533
2.95381
2.9464
2.95784
2.95241
2.9559
2.95202
2.89354
2.89167
2.8881
2.89753
2.87638
2.88345
2.87694
2.88626
2.88079
2.88223
2.87434
2.88002
2.87596
2.87035
2.86579
2.85981
2.85704
2.86757
2.86762
2.86188
2.86089
2.8599
2.86006
2.86206
2.84697
2.85337
2.87783
2.87479
2.87065
2.87972
2.86954
2.87006
2.86494
2.87984
2.87184
2.97774
2.98002
2.98127
2.98025
2.98389
2.97615
2.97625
2.98496
2.98626
2.98105
2.97663
2.97037
2.96878
2.96153
2.96665
2.95818
2.91523
2.91734
2.90878
2.90484
2.90567
2.90319
2.93261
2.9436
2.94463
2.94062
2.94623
2.91509
2.9364
2.94176
2.9468
2.9454
2.94734
2.91937
2.93109
2.87041
2.85989
2.84752
2.85031
2.84696
2.85668
2.85635
2.86139
2.8612
2.87064
2.85487
2.85581
2.8676
2.87832
2.86377
2.87439
2.96467
2.96449
2.97057
2.97374
2.96864
2.96766
2.96414
2.95227
2.94956
2.95037
2.96024
2.96012
2.95447
2.95525
2.9563
2.95387
2.95447
2.94913
2.95125
2.94943
2.94847
2.94827
2.94924
2.94787
2.94593
2.94412
2.9509
2.95242
2.94252
2.94186
2.95799
2.95819
2.96083
2.96099
2.95772
2.96549
2.95694
2.95452
2.95552
2.96513
2.96068
2.9615
2.96261
2.91153
2.90772
2.91087
2.90817
2.90422
2.90146
2.90331
2.9014
2.90474
2.98131
2.98158
2.97914
2.97633
2.98183
2.97786
2.98185
2.98072
2.98984
2.98439
2.97896
2.97374
2.9794
2.97837
2.98299
2.97871
2.97395
2.97358
2.96997
2.96938
2.96654
2.89425
2.89604
2.88912
2.89229
2.89636
2.90262
2.88772
2.88523
2.98188
2.97204
2.97746
2.97134
2.97803
2.96748
2.95783
2.95539
2.95928
2.96821
2.96184
2.95916
2.9644
2.97266
2.96785
2.92033
2.90272
2.9129
2.91312
2.91225
2.92089
2.90732
2.92068
2.90281
2.89886
2.90586
2.90125
2.92584
2.93526
2.92644
2.9314
2.93373
2.93456
2.92997
2.93232
2.94773
2.94483
2.93675
2.93578
2.98488
2.99131
2.98786
2.98757
2.98497
2.98155
2.98889
2.99184
2.9825
2.98661
2.98128
2.98298
2.98342
2.98958
2.99179
2.99036
2.98639
2.98514
2.98511
2.98153
2.99409
2.9932
2.99094
2.98343
2.97818
2.98506
2.98253
2.97823
2.98028
2.98845
2.98339
2.98029
2.98551
2.96819
2.96446
2.9642
2.9668
2.96843
2.97362
2.97189
2.97199
2.97549
2.97712
2.97077
2.97564
2.97475
2.97643
2.97793
2.97464
2.97963
2.97668
2.97872
2.97798
2.98312
2.97837
2.98033
2.98045
2.98201
2.96096
2.96975
2.96769
2.97219
2.97478
2.97102
2.97858
2.97894
2.97729
2.99803
2.99665
2.99379
2.98451
2.99214
2.98207
2.97917
2.97373
2.97386
2.97512
2.97883
2.98087
2.97888
2.97756
2.95691
2.96296
2.94942
2.91671
2.911
2.92092
2.92748
2.91554
2.92346
2.92525
2.91746
2.91996
2.92609
2.92168
2.92108
2.92391
2.98753
2.98411
2.98707
2.98605
2.97558
2.97927
2.98493
2.9722
2.98086
2.98115
2.9818
2.97893
2.9773
2.97709
2.95881
2.96256
2.95378
2.96387
2.96033
2.96462
2.96015
2.96078
2.96318
2.95714
2.96428
2.96482
2.96138
2.88189
2.882
2.88037
2.88422
2.88613
2.88657
2.87594
2.87446
2.87267
2.87297
2.86897
2.8676
2.87669
2.87056
2.96678
2.96408
2.961
2.96204
2.96294
2.96326
2.96496
2.96991
2.83937
2.84397
2.83961
2.84287
2.83432
2.83647
2.84346
2.8479
2.8444
2.84728
2.85454
2.84912
2.8333
2.83866
2.83702
2.90911
2.90114
2.90669
2.90934
2.90532
2.91081
2.9008
2.91418
2.90877
2.91473
2.91379
2.91793
2.90261
2.9001
2.9034
2.89841
2.95304
2.95547
2.9534
2.95702
2.96155
2.95552
2.95631
2.89265
2.89817
2.91107
2.90579
2.89537
2.89382
2.88692
2.88523
2.88974
2.91343
2.97765
2.96956
2.97321
2.97614
2.9773
2.98174
2.99509
2.98708
2.98735
2.99023
2.99729
2.98308
2.9932
2.99383
2.99991
2.99845
2.99244
2.99176
2.99103
2.98249
2.98332
2.98091
2.98085
2.98422
2.98784
2.9854
2.98525
2.98625
2.98721
2.9894
2.95775
2.96294
2.9605
2.96165
2.96539
2.96679
2.98674
2.95233
2.94776
2.95121
2.94722
2.94606
2.94661
2.9444
2.94839
2.95166
2.95264
2.95162
2.95348
2.95793
2.96277
2.95833
2.95664
2.95154
2.99444
2.97749
2.98541
2.9912
2.99545
2.99279
2.99082
2.98713
2.99499
2.98749
2.99504
2.99678
2.99501
2.99403
2.99668
2.98936
2.99039
2.98158
2.98101
2.9862
2.98123
2.97728
2.99156
2.98904
2.99314
2.98828
2.98333
2.98309
2.96599
2.96639
2.96889
2.97075
2.968
2.97282
2.96847
2.96397
2.96218
2.96718
2.96084
2.96588
2.94435
2.95339
2.9508
2.94547
2.94478
2.95229
2.94804
2.94861
2.94298
2.94232
2.95062
2.95607
2.97915
2.98232
2.98198
2.97854
2.98383
2.97419
2.97632
2.98701
2.98238
2.97814
2.98899
2.99031
2.98464
2.98417
2.97762
2.97547
2.98466
2.98597
2.96544
2.97701
2.9714
2.97263
2.92195
2.92729
2.91547
2.92
2.924
2.97788
2.98158
2.9757
2.98287
2.97678
2.98415
2.97733
2.97886
2.98585
2.98497
2.97611
2.97855
2.98352
2.98346
2.96063
2.95745
2.96275
2.95824
2.95684
2.96818
2.97225
2.96327
2.95838
2.96466
2.97059
2.95809
2.9498
2.95231
2.96273
2.95095
2.96312
2.9474
2.94454
2.9479
2.93418
2.94359
2.94612
2.94341
2.93939
2.94108
2.93913
2.93753
2.93567
2.94081
2.94102
2.94504
2.93038
2.92618
2.92728
2.92834
2.92374
2.91548
2.92764
2.93106
2.92433
2.9239
2.92217
2.92346
2.95224
2.94512
2.9535
2.94679
2.94832
2.94718
2.95064
2.95012
2.94983
2.95554
2.95448
2.95032
2.95276
2.95148
2.94535
2.94426
2.94903
2.94856
2.9528
2.95268
2.95199
2.9459
2.94835
2.94464
2.93727
2.94719
2.94011
2.94865
2.94573
2.946
2.94401
2.94012
2.94063