/*--------------------------------*- C++ -*----------------------------------*\
| =========                 |                                                 |
| \\      /  F ield         | OpenFOAM: The Open Source CFD Toolbox           |
|  \\    /   O peration     | Version:  v1612+                                |
|   \\  /    A nd           | Web:      www.OpenFOAM.com                      |
|    \\/     M anipulation  |                                                 |
\*---------------------------------------------------------------------------*/
FoamFile
{
    version     2.0;
    format      ascii;
    class       volVectorField;
    location    "100";
    object      U;
}
// * * * * * * * * * * * * * * * * * * * * * * * * * * * * * * * * * * * * * //

dimensions      [0 1 -1 0 0 0 0];

internalField   nonuniform List<vector> 
16798
(
(-0.363055 0.431826 -0.800666)
(-0.220417 0.243412 -0.462653)
(-0.228197 0.272067 -0.509436)
(-0.211925 0.266959 -0.476818)
(-0.247728 0.302702 -0.559893)
(-0.237558 0.290113 -0.525259)
(-0.226348 0.280458 -0.505653)
(-0.246074 0.299467 -0.554335)
(-0.294801 0.361757 -0.652977)
(-0.23127 0.267522 -0.515511)
(-0.22595 0.263757 -0.496254)
(-0.293707 0.355261 -0.643305)
(-0.291344 0.348539 -0.661416)
(-0.289664 0.353072 -0.663975)
(-0.331826 0.403183 -0.764557)
(-0.307543 0.377322 -0.718951)
(-0.349976 0.413101 -0.777237)
(-0.323029 0.385046 -0.722108)
(-0.298441 0.357459 -0.681079)
(-0.279079 0.337658 -0.636959)
(-0.30797 0.371175 -0.707773)
(-0.288239 0.351105 -0.66102)
(-0.309631 0.376735 -0.708712)
(-0.353264 0.423233 -0.803265)
(-0.321321 0.39209 -0.736829)
(-0.312566 0.380859 -0.714671)
(-0.322798 0.394131 -0.734281)
(-0.348349 0.419426 -0.794124)
(-0.363896 0.434029 -0.815717)
(-0.361909 0.433811 -0.812102)
(-0.319519 0.385357 -0.724653)
(-0.3354 0.402833 -0.743212)
(-0.289127 0.351102 -0.652344)
(-0.339661 0.413671 -0.767335)
(-0.321823 0.390649 -0.727071)
(-0.300115 0.367048 -0.67744)
(-0.293976 0.359851 -0.672795)
(-0.371519 0.447979 -0.833955)
(-0.36426 0.450784 -0.818703)
(-0.331619 0.38173 -0.714515)
(-0.274924 0.361946 -0.653095)
(-0.325418 0.391461 -0.730095)
(-0.301986 0.366134 -0.677479)
(-0.370517 0.441068 -0.840962)
(-0.370472 0.447647 -0.830353)
(-0.295081 0.364952 -0.67378)
(-0.291375 0.363239 -0.659575)
(-0.373024 0.45136 -0.848772)
(-0.28498 0.343018 -0.622726)
(-0.244611 0.293092 -0.544414)
(-0.25051 0.304931 -0.564178)
(-0.229565 0.272139 -0.50378)
(-0.237771 0.28708 -0.536584)
(-0.212106 0.253909 -0.465223)
(-0.325685 0.391017 -0.727856)
(-0.32758 0.392186 -0.734734)
(-0.256618 0.305269 -0.579203)
(-0.317686 0.384325 -0.722539)
(-0.325688 0.382569 -0.713389)
(-0.253718 0.304145 -0.581)
(-0.269445 0.312143 -0.595278)
(-0.24401 0.288696 -0.54861)
(-0.221257 0.264597 -0.505534)
(-0.240107 0.28852 -0.540752)
(-0.230075 0.267672 -0.504572)
(-0.229935 0.269116 -0.519001)
(-0.301967 0.371676 -0.697078)
(-0.254252 0.309621 -0.575311)
(-0.307169 0.37074 -0.690734)
(-0.317054 0.383871 -0.719489)
(-0.258703 0.298587 -0.567796)
(-0.252306 0.308084 -0.571283)
(-0.232011 0.281532 -0.526483)
(-0.222297 0.27217 -0.508791)
(-0.256009 0.300415 -0.576589)
(-0.231497 0.271965 -0.52882)
(-0.246139 0.293338 -0.555301)
(-0.222678 0.263591 -0.510479)
(-0.247167 0.293102 -0.567249)
(-0.272084 0.331827 -0.626406)
(-0.310982 0.353501 -0.675586)
(-0.299072 0.358388 -0.678769)
(-0.211711 0.249739 -0.473264)
(-0.232056 0.269236 -0.509395)
(-0.295243 0.3367 -0.652566)
(-0.300656 0.35717 -0.679351)
(-0.293842 0.335675 -0.65572)
(-0.283109 0.339015 -0.654218)
(-0.210981 0.255227 -0.476442)
(-0.239983 0.28137 -0.543338)
(-0.251511 0.290072 -0.557259)
(-0.221153 0.267867 -0.511052)
(-0.305701 0.380318 -0.699774)
(-0.310494 0.388561 -0.711464)
(-0.330697 0.403671 -0.751163)
(-0.303929 0.376413 -0.695587)
(-0.353332 0.430696 -0.802007)
(-0.322664 0.391183 -0.730258)
(-0.249735 0.306392 -0.570928)
(-0.342995 0.418955 -0.784322)
(-0.313397 0.386092 -0.715472)
(-0.350783 0.423729 -0.793725)
(-0.303427 0.373751 -0.693262)
(-0.28221 0.351675 -0.651298)
(-0.242107 0.27834 -0.518365)
(-0.265818 0.306622 -0.567529)
(-0.284879 0.338588 -0.641308)
(-0.278532 0.33098 -0.626903)
(-0.255842 0.288391 -0.548788)
(-0.23348 0.280029 -0.519336)
(-0.215665 0.245858 -0.470149)
(-0.228456 0.265555 -0.508913)
(-0.226285 0.274286 -0.499254)
(-0.294919 0.351409 -0.655355)
(-0.29818 0.351646 -0.660828)
(-0.252268 0.288863 -0.549187)
(-0.257596 0.301725 -0.567616)
(-0.211028 0.240799 -0.46267)
(-0.307344 0.370755 -0.690696)
(-0.25413 0.306787 -0.574957)
(-0.234706 0.280135 -0.525594)
(-0.267071 0.309451 -0.594174)
(-0.304478 0.368995 -0.683139)
(-0.339641 0.421107 -0.77466)
(-0.40923 0.488745 -0.913216)
(-0.399209 0.4621 -0.869908)
(-0.350545 0.423907 -0.799362)
(-0.312845 0.379257 -0.704408)
(-0.316886 0.371021 -0.699554)
(-0.313868 0.393436 -0.710848)
(-0.337437 0.418435 -0.786112)
(-0.356616 0.420831 -0.787027)
(-0.390598 0.457993 -0.864845)
(-0.387051 0.478196 -0.881429)
(-0.38253 0.47295 -0.878253)
(-0.336801 0.409608 -0.780757)
(-0.350659 0.43242 -0.809975)
(-0.320591 0.381725 -0.721812)
(-0.306893 0.366485 -0.69512)
(-0.382073 0.471168 -0.866994)
(-0.398652 0.483098 -0.904671)
(-0.380157 0.460951 -0.846282)
(-0.437898 0.550778 -0.987791)
(-0.42164 0.510605 -0.939943)
(-0.42841 0.530312 -0.960148)
(-0.438534 0.536591 -0.977807)
(-0.423318 0.516122 -0.939635)
(-0.448057 0.554871 -1.00498)
(-0.467566 0.56907 -1.03744)
(-0.415052 0.511248 -0.931268)
(-0.427384 0.528873 -0.960271)
(-0.449976 0.559504 -1.01016)
(-0.406902 0.498195 -0.907804)
(-0.407974 0.496271 -0.90435)
(-0.449156 0.550182 -1.00184)
(-0.451826 0.554767 -1.00557)
(-0.447523 0.54544 -0.994223)
(-0.456812 0.557294 -1.02031)
(-0.431032 0.523428 -0.951839)
(-0.414498 0.502003 -0.914027)
(-0.458092 0.544242 -1.02202)
(-0.456237 0.538963 -1.01181)
(-0.425139 0.509207 -0.965777)
(-0.419052 0.497046 -0.932539)
(-0.420191 0.503763 -0.938483)
(-0.393965 0.470773 -0.867908)
(-0.403992 0.494982 -0.914517)
(-0.409549 0.489338 -0.918916)
(-0.393672 0.46495 -0.864771)
(-0.411244 0.489114 -0.922238)
(-0.400962 0.476239 -0.907755)
(-0.398174 0.470091 -0.897502)
(-0.403981 0.488865 -0.912944)
(-0.400689 0.481634 -0.893998)
(-0.384831 0.474752 -0.868547)
(-0.450153 0.564479 -1.01604)
(-0.460981 0.573264 -1.03771)
(-0.43451 0.541306 -0.972596)
(-0.439047 0.551096 -0.986389)
(-0.452758 0.560506 -1.01175)
(-0.461413 0.570871 -1.03393)
(-0.464938 0.576294 -1.04125)
(-0.447044 0.561884 -1.00137)
(-0.454654 0.561334 -1.01061)
(-0.469998 0.588288 -1.05921)
(-0.433668 0.523929 -0.95945)
(-0.415478 0.516785 -0.930184)
(-0.399105 0.496117 -0.912339)
(-0.40107 0.504818 -0.906281)
(-0.423436 0.520478 -0.951545)
(-0.399479 0.491708 -0.899)
(-0.410479 0.505079 -0.921323)
(-0.392747 0.485845 -0.886356)
(-0.400685 0.502791 -0.906416)
(-0.402033 0.486127 -0.884659)
(-0.407343 0.504648 -0.918727)
(-0.416136 0.516539 -0.940046)
(-0.356237 0.439468 -0.793999)
(-0.376638 0.466261 -0.834972)
(-0.431186 0.530883 -0.96904)
(-0.426724 0.523355 -0.954328)
(-0.418158 0.521472 -0.947733)
(-0.410801 0.498776 -0.913965)
(-0.427785 0.525473 -0.958323)
(-0.409908 0.500872 -0.893936)
(-0.343325 0.435666 -0.795064)
(-0.377172 0.464508 -0.83363)
(-0.417563 0.490723 -0.92681)
(-0.376906 0.440274 -0.83123)
(-0.372312 0.432648 -0.813715)
(-0.43786 0.519293 -0.975234)
(-0.439176 0.528743 -0.982041)
(-0.393514 0.467958 -0.876429)
(-0.442087 0.514939 -0.976365)
(-0.430063 0.510721 -0.961122)
(-0.402854 0.475063 -0.892964)
(-0.378044 0.445977 -0.841313)
(-0.437531 0.507961 -0.96872)
(-0.432532 0.512723 -0.956839)
(-0.456703 0.526129 -0.989223)
(-0.376423 0.436003 -0.827409)
(-0.371884 0.43313 -0.822318)
(-0.38157 0.44361 -0.836455)
(-0.368569 0.435337 -0.819138)
(-0.400996 0.473473 -0.887732)
(-0.442776 0.537057 -0.989074)
(-0.445999 0.540949 -0.993759)
(-0.438955 0.537674 -0.987837)
(-0.430533 0.521014 -0.972958)
(-0.434307 0.531701 -0.974925)
(-0.43852 0.540588 -0.982472)
(-0.462648 0.562806 -1.03522)
(-0.46349 0.562564 -1.03998)
(-0.437803 0.536192 -0.989525)
(-0.426249 0.524182 -0.9645)
(-0.455554 0.555483 -1.02287)
(-0.441663 0.534841 -0.98811)
(-0.449048 0.550447 -1.00978)
(-0.448938 0.550176 -1.01219)
(-0.392472 0.467241 -0.887442)
(-0.411782 0.484079 -0.916629)
(-0.441356 0.516572 -0.976274)
(-0.403995 0.476303 -0.902143)
(-0.427929 0.515588 -0.961463)
(-0.417631 0.48942 -0.932479)
(-0.442474 0.524636 -0.985876)
(-0.401621 0.473087 -0.890126)
(-0.387444 0.460703 -0.877006)
(-0.369837 0.441988 -0.841391)
(-0.413115 0.490403 -0.920516)
(-0.397956 0.468098 -0.883663)
(-0.430228 0.514261 -0.964634)
(-0.412991 0.486117 -0.915014)
(-0.440248 0.524174 -0.977362)
(-0.336876 0.4162 -0.760897)
(-0.347545 0.416029 -0.764094)
(-0.411314 0.494392 -0.905041)
(-0.351898 0.426947 -0.763605)
(-0.383187 0.452543 -0.837537)
(-0.373052 0.448492 -0.818865)
(-0.400293 0.476963 -0.880708)
(-0.392523 0.480129 -0.872527)
(-0.372826 0.456653 -0.84202)
(-0.412878 0.507201 -0.924428)
(-0.433009 0.529729 -0.958799)
(-0.396162 0.481054 -0.889716)
(-0.398147 0.491324 -0.893674)
(-0.369513 0.460066 -0.83764)
(-0.370106 0.451549 -0.82451)
(-0.434005 0.52701 -0.958493)
(-0.402845 0.494346 -0.895076)
(-0.399519 0.499961 -0.903115)
(-0.414898 0.513494 -0.934609)
(-0.373229 0.457387 -0.83243)
(-0.403038 0.496909 -0.902926)
(-0.43164 0.526577 -0.969299)
(-0.421315 0.517818 -0.943787)
(-0.378574 0.472369 -0.84759)
(-0.429105 0.533046 -0.970253)
(-0.37889 0.472484 -0.868573)
(-0.415307 0.504743 -0.933992)
(-0.381406 0.477048 -0.874416)
(-0.372303 0.451662 -0.834613)
(-0.432706 0.517145 -0.964908)
(-0.365507 0.440684 -0.817439)
(-0.377165 0.455511 -0.838936)
(-0.416444 0.518805 -0.936644)
(-0.410125 0.508174 -0.914001)
(-0.403368 0.499141 -0.903712)
(-0.416398 0.512962 -0.926206)
(-0.365313 0.453856 -0.814846)
(-0.386195 0.467784 -0.839989)
(-0.311244 0.3767 -0.683882)
(-0.315824 0.395402 -0.702111)
(-0.408909 0.518915 -0.922544)
(-0.375763 0.463358 -0.834205)
(-0.370474 0.464505 -0.833211)
(-0.357989 0.434466 -0.782537)
(-0.328618 0.416021 -0.739877)
(-0.340329 0.413516 -0.735535)
(-0.31875 0.402509 -0.714674)
(-0.323468 0.402365 -0.713098)
(-0.350752 0.452918 -0.800842)
(-0.347048 0.440455 -0.785179)
(-0.34259 0.434569 -0.76762)
(-0.359195 0.429684 -0.790732)
(-0.414133 0.509288 -0.935942)
(-0.461533 0.550916 -1.00949)
(-0.439426 0.526663 -0.966426)
(-0.43912 0.524116 -0.973109)
(-0.436602 0.525777 -0.968472)
(-0.374372 0.449833 -0.829295)
(-0.391969 0.470846 -0.858728)
(-0.399724 0.483998 -0.879624)
(-0.401365 0.494741 -0.913671)
(-0.367717 0.44076 -0.809439)
(-0.399179 0.482757 -0.889753)
(-0.440321 0.528626 -0.968284)
(-0.42856 0.520735 -0.955398)
(-0.358452 0.436078 -0.79986)
(-0.424369 0.520561 -0.951363)
(-0.383043 0.457025 -0.841902)
(-0.390926 0.473286 -0.868266)
(-0.423589 0.51341 -0.945515)
(-0.33163 0.400317 -0.732591)
(-0.324943 0.394645 -0.713878)
(-0.418684 0.488916 -0.911466)
(-0.394513 0.469209 -0.857825)
(-0.336564 0.402022 -0.72538)
(-0.332467 0.393714 -0.732061)
(-0.348161 0.411341 -0.753648)
(-0.419995 0.496208 -0.921002)
(-0.408757 0.486696 -0.899665)
(-0.392731 0.468658 -0.864753)
(-0.411854 0.488644 -0.901884)
(-0.369662 0.449091 -0.826776)
(-0.332571 0.403343 -0.72706)
(-0.347105 0.407828 -0.754055)
(-0.392968 0.474487 -0.864169)
(-0.386505 0.463089 -0.855667)
(-0.347213 0.420948 -0.764233)
(-0.355964 0.433134 -0.789902)
(-0.337916 0.406333 -0.754184)
(-0.342804 0.409461 -0.763692)
(-0.408942 0.499108 -0.902193)
(-0.394645 0.475012 -0.876175)
(-0.33835 0.402354 -0.753958)
(-0.382703 0.468286 -0.863007)
(-0.362194 0.440023 -0.80342)
(-0.322995 0.39075 -0.717964)
(-0.311089 0.377897 -0.697359)
(-0.296005 0.357675 -0.667164)
(-0.351391 0.420125 -0.790364)
(-0.331817 0.403761 -0.742176)
(-0.359651 0.434873 -0.799784)
(-0.356579 0.432837 -0.795113)
(-0.320906 0.402142 -0.749667)
(-0.32247 0.406911 -0.742057)
(-0.364764 0.446697 -0.814541)
(-0.299437 0.365584 -0.668695)
(-0.33279 0.416703 -0.757568)
(-0.308838 0.377305 -0.691678)
(-0.323479 0.405382 -0.745774)
(-0.313797 0.381007 -0.708279)
(-0.267842 0.320004 -0.598591)
(-0.322895 0.40888 -0.752372)
(-0.291006 0.363926 -0.665888)
(-0.281612 0.350315 -0.65774)
(-0.229181 0.269975 -0.501993)
(-0.25271 0.306215 -0.561759)
(-0.213029 0.257775 -0.477447)
(-0.197832 0.22325 -0.430083)
(-0.298321 0.348935 -0.654982)
(-0.302003 0.342361 -0.649844)
(-0.248922 0.293703 -0.544692)
(-0.22773 0.272023 -0.501132)
(-0.259601 0.299421 -0.559809)
(-0.236318 0.282604 -0.526768)
(-0.300582 0.345917 -0.645955)
(-0.296643 0.352301 -0.652126)
(-0.2183 0.254506 -0.481196)
(-0.21171 0.241 -0.464984)
(-0.249783 0.293656 -0.543135)
(-0.225716 0.268515 -0.489428)
(-0.205202 0.247873 -0.456128)
(-0.218609 0.258811 -0.496146)
(-0.299609 0.349436 -0.657773)
(-0.351286 0.423082 -0.773393)
(-0.343468 0.413299 -0.756791)
(-0.30722 0.360015 -0.65394)
(-0.338978 0.400202 -0.727759)
(-0.303276 0.367041 -0.655026)
(-0.321825 0.398465 -0.709829)
(-0.342282 0.415556 -0.736407)
(-0.302513 0.369591 -0.672689)
(-0.280375 0.348108 -0.621508)
(-0.272413 0.332651 -0.582172)
(-0.298453 0.367763 -0.65347)
(-0.310798 0.365583 -0.675798)
(-0.274857 0.329734 -0.582173)
(-0.286442 0.337058 -0.61148)
(-0.27592 0.326475 -0.595298)
(-0.314897 0.376704 -0.681597)
(-0.294854 0.348665 -0.63239)
(-0.232667 0.297329 -0.528134)
(-0.219769 0.272416 -0.485819)
(-0.271056 0.331987 -0.58191)
(-0.265884 0.33178 -0.580621)
(-0.299584 0.369471 -0.646739)
(-0.292176 0.353863 -0.621264)
(-0.297383 0.374668 -0.660349)
(-0.30799 0.381864 -0.681338)
(-0.297102 0.361078 -0.641188)
(-0.213518 0.273943 -0.485306)
(-0.19698 0.245322 -0.447406)
(-0.20635 0.258458 -0.457194)
(-0.227491 0.285623 -0.510564)
(-0.282137 0.362577 -0.645496)
(-0.289643 0.355144 -0.63242)
(-0.297178 0.368137 -0.654687)
(-0.222305 0.277636 -0.486304)
(-0.210569 0.254908 -0.454194)
(-0.219316 0.282665 -0.50043)
(-0.21297 0.26886 -0.478108)
(-0.273145 0.347136 -0.620033)
(-0.212172 0.265983 -0.466833)
(-0.228147 0.288487 -0.506554)
(-0.227244 0.280402 -0.502041)
(-0.342028 0.38364 -0.755853)
(-0.322158 0.37771 -0.713837)
(-0.323686 0.380628 -0.721682)
(-0.286214 0.3467 -0.652734)
(-0.333633 0.394282 -0.74668)
(-0.305703 0.362532 -0.702412)
(-0.373683 0.435377 -0.845236)
(-0.316633 0.372964 -0.718567)
(-0.37718 0.449897 -0.857493)
(-0.351747 0.406302 -0.787824)
(-0.344161 0.408604 -0.785574)
(-0.323637 0.383291 -0.73728)
(-0.312624 0.363096 -0.706749)
(-0.345906 0.413077 -0.783516)
(-0.260742 0.322407 -0.589996)
(-0.323381 0.38732 -0.714204)
(-0.323936 0.395654 -0.723895)
(-0.281734 0.338834 -0.638424)
(-0.300199 0.359451 -0.667285)
(-0.358588 0.431978 -0.783833)
(-0.365333 0.44975 -0.806888)
(-0.310625 0.35829 -0.666651)
(-0.28431 0.350733 -0.652363)
(-0.288569 0.352999 -0.664447)
(-0.287923 0.348685 -0.652783)
(-0.30655 0.374929 -0.680877)
(-0.345392 0.420366 -0.765586)
(-0.357106 0.436044 -0.79789)
(-0.363888 0.438129 -0.799235)
(-0.301474 0.370278 -0.684019)
(-0.310526 0.366836 -0.687204)
(-0.29749 0.359587 -0.676075)
(-0.298351 0.349364 -0.661081)
(-0.309505 0.374469 -0.689975)
(-0.317004 0.384005 -0.717574)
(-0.257073 0.309056 -0.59696)
(-0.224091 0.270141 -0.500065)
(-0.306484 0.362927 -0.686967)
(-0.244656 0.297311 -0.562405)
(-0.266143 0.309202 -0.593642)
(-0.317817 0.377508 -0.701108)
(-0.228848 0.278824 -0.522007)
(-0.225479 0.259094 -0.472829)
(-0.24289 0.285801 -0.543546)
(-0.237617 0.273835 -0.526017)
(-0.272063 0.326733 -0.612847)
(-0.232517 0.274062 -0.513204)
(-0.22473 0.254129 -0.488897)
(-0.311995 0.387549 -0.713571)
(-0.323314 0.395509 -0.723827)
(-0.335639 0.414519 -0.762985)
(-0.282738 0.342657 -0.630287)
(-0.310817 0.366017 -0.68873)
(-0.290687 0.354103 -0.658494)
(-0.273569 0.329091 -0.624868)
(-0.297427 0.361898 -0.662958)
(-0.268907 0.330177 -0.610773)
(-0.363158 0.428664 -0.80496)
(-0.314712 0.368059 -0.705046)
(-0.348723 0.419652 -0.785024)
(-0.291082 0.349117 -0.668667)
(-0.290269 0.346952 -0.65374)
(-0.262095 0.32626 -0.604481)
(-0.282693 0.339603 -0.633136)
(-0.305997 0.368787 -0.680209)
(-0.352144 0.424774 -0.78814)
(-0.307287 0.366513 -0.683392)
(-0.30418 0.350666 -0.68036)
(-0.29351 0.335976 -0.651253)
(-0.268754 0.307418 -0.59883)
(-0.333417 0.390114 -0.733034)
(-0.312014 0.362958 -0.691743)
(-0.318596 0.373273 -0.709949)
(-0.236993 0.279377 -0.523877)
(-0.221344 0.260145 -0.48814)
(-0.250554 0.295299 -0.560691)
(-0.261072 0.30193 -0.588329)
(-0.315863 0.377769 -0.706265)
(-0.28002 0.321916 -0.623182)
(-0.285155 0.333577 -0.633717)
(-0.292064 0.346349 -0.658285)
(-0.23212 0.277919 -0.521605)
(-0.222826 0.269103 -0.512775)
(-0.25746 0.295496 -0.566711)
(-0.241888 0.283196 -0.53927)
(-0.208733 0.243188 -0.466092)
(-0.268089 0.331816 -0.592675)
(-0.239286 0.296331 -0.539348)
(-0.27782 0.332649 -0.609662)
(-0.223657 0.282667 -0.502296)
(-0.223329 0.279214 -0.499382)
(-0.20303 0.247087 -0.43523)
(-0.312699 0.374006 -0.684105)
(-0.31692 0.380922 -0.698771)
(-0.223465 0.268547 -0.476147)
(-0.281815 0.343808 -0.626124)
(-0.233944 0.293272 -0.52589)
(-0.245936 0.300308 -0.543961)
(-0.25298 0.309785 -0.564222)
(-0.315808 0.374132 -0.695328)
(-0.308272 0.370377 -0.690083)
(-0.221415 0.25931 -0.469117)
(-0.19915 0.240682 -0.432394)
(-0.222578 0.265055 -0.483778)
(-0.21347 0.259359 -0.468941)
(-0.231009 0.284823 -0.506696)
(-0.202135 0.257891 -0.457038)
(-0.228647 0.27834 -0.507473)
(-0.253788 0.310929 -0.571455)
(-0.241003 0.296301 -0.524804)
(-0.302854 0.364838 -0.701054)
(-0.326581 0.393569 -0.748097)
(-0.333924 0.404006 -0.759323)
(-0.322721 0.38432 -0.733777)
(-0.31311 0.374014 -0.717048)
(-0.241178 0.291491 -0.537756)
(-0.242091 0.295364 -0.556585)
(-0.252059 0.306027 -0.58877)
(-0.226988 0.274836 -0.526292)
(-0.247408 0.289686 -0.561092)
(-0.261461 0.304078 -0.58455)
(-0.223949 0.261332 -0.508978)
(-0.259751 0.300055 -0.589955)
(-0.234388 0.280799 -0.536379)
(-0.216684 0.26432 -0.489298)
(-0.406772 0.491564 -0.918795)
(-0.38755 0.470384 -0.880458)
(-0.393927 0.464052 -0.880531)
(-0.381856 0.463326 -0.866235)
(-0.431457 0.530212 -0.982923)
(-0.410854 0.492574 -0.926785)
(-0.39599 0.477262 -0.899076)
(-0.430807 0.518701 -0.966835)
(-0.419599 0.511823 -0.951596)
(-0.402535 0.481135 -0.907604)
(-0.348866 0.426863 -0.786768)
(-0.350697 0.422982 -0.792121)
(-0.377346 0.457023 -0.853408)
(-0.3525 0.420956 -0.795063)
(-0.346386 0.410901 -0.761419)
(-0.385074 0.46034 -0.864477)
(-0.378416 0.45262 -0.848414)
(-0.418706 0.507652 -0.938382)
(-0.414986 0.507796 -0.946005)
(-0.365351 0.442951 -0.819789)
(-0.380384 0.45403 -0.862301)
(-0.367371 0.440955 -0.833692)
(-0.409054 0.492115 -0.923291)
(-0.379173 0.451412 -0.84565)
(-0.370222 0.443719 -0.833435)
(-0.394478 0.477751 -0.891928)
(-0.382392 0.451562 -0.854929)
(-0.397748 0.471123 -0.884855)
(-0.382703 0.459795 -0.859142)
(-0.249363 0.284917 -0.538556)
(-0.224419 0.266047 -0.497107)
(-0.236964 0.278542 -0.523225)
(-0.254319 0.286865 -0.549054)
(-0.311198 0.378186 -0.678755)
(-0.302608 0.381156 -0.689982)
(-0.309013 0.370586 -0.670263)
(-0.33224 0.39218 -0.717345)
(-0.267016 0.319222 -0.583695)
(-0.25941 0.296677 -0.56388)
(-0.260115 0.310955 -0.573191)
(-0.321407 0.388288 -0.708821)
(-0.241156 0.283331 -0.519831)
(-0.25568 0.308122 -0.559578)
(-0.240926 0.280776 -0.51619)
(-0.242792 0.288413 -0.546408)
(-0.225953 0.271801 -0.494298)
(-0.253134 0.301479 -0.546808)
(-0.315637 0.39025 -0.70248)
(-0.224013 0.285146 -0.499314)
(-0.202266 0.247669 -0.444769)
(-0.293575 0.366836 -0.655223)
(-0.26019 0.32118 -0.56895)
(-0.283859 0.34964 -0.617044)
(-0.225343 0.282133 -0.495106)
(-0.209219 0.259336 -0.459956)
(-0.234358 0.294144 -0.51587)
(-0.217141 0.26235 -0.468667)
(-0.193573 0.238685 -0.42309)
(-0.220698 0.283664 -0.499511)
(-0.284547 0.318723 -0.638605)
(-0.231606 0.27405 -0.52026)
(-0.382838 0.452184 -0.858178)
(-0.390047 0.452795 -0.865766)
(-0.315368 0.371621 -0.707734)
(-0.318356 0.387017 -0.736767)
(-0.254303 0.299823 -0.577064)
(-0.289589 0.327245 -0.637799)
(-0.258997 0.306748 -0.596062)
(-0.262916 0.328739 -0.599509)
(-0.255981 0.307392 -0.598483)
(-0.375646 0.446125 -0.843832)
(-0.376901 0.437795 -0.84778)
(-0.32254 0.395647 -0.754819)
(-0.272562 0.32415 -0.617598)
(-0.333073 0.398686 -0.743773)
(-0.317028 0.388144 -0.728958)
(-0.339208 0.407142 -0.787373)
(-0.309598 0.377257 -0.679116)
(-0.332024 0.386147 -0.725872)
(-0.263121 0.314105 -0.589731)
(-0.319518 0.395496 -0.722985)
(-0.266476 0.32329 -0.599658)
(-0.234373 0.268248 -0.502119)
(-0.319392 0.383705 -0.709654)
(-0.307824 0.365233 -0.675499)
(-0.264936 0.308115 -0.598288)
(-0.25114 0.297116 -0.559151)
(-0.322216 0.383194 -0.71926)
(-0.246671 0.29691 -0.544233)
(-0.221326 0.263528 -0.474853)
(-0.331363 0.39278 -0.720512)
(-0.246069 0.296456 -0.546788)
(-0.234121 0.288195 -0.530526)
(-0.264327 0.330356 -0.599668)
(-0.309433 0.371623 -0.689559)
(-0.252274 0.30572 -0.562398)
(-0.305651 0.365502 -0.677787)
(-0.288306 0.346003 -0.629665)
(-0.273725 0.333521 -0.603663)
(-0.34392 0.411054 -0.7534)
(-0.336056 0.398128 -0.734501)
(-0.404597 0.488573 -0.897446)
(-0.381258 0.464255 -0.842232)
(-0.33558 0.394116 -0.723937)
(-0.338041 0.400668 -0.731475)
(-0.389089 0.479927 -0.874126)
(-0.3991 0.492312 -0.891116)
(-0.374021 0.459051 -0.825169)
(-0.305355 0.370249 -0.681153)
(-0.28799 0.348862 -0.654258)
(-0.340828 0.416294 -0.744978)
(-0.300003 0.367389 -0.681581)
(-0.319129 0.387338 -0.693163)
(-0.261115 0.319177 -0.57849)
(-0.269562 0.330471 -0.60701)
(-0.25021 0.304346 -0.55935)
(-0.227054 0.272852 -0.502419)
(-0.252688 0.300929 -0.541012)
(-0.243502 0.289896 -0.537626)
(-0.320631 0.391094 -0.712193)
(-0.317867 0.377174 -0.703129)
(-0.332393 0.403946 -0.72572)
(-0.23486 0.287507 -0.5253)
(-0.270261 0.325911 -0.592924)
(-0.333711 0.399193 -0.713094)
(-0.257722 0.316568 -0.575227)
(-0.293379 0.368288 -0.660432)
(-0.299752 0.376325 -0.684766)
(-0.297897 0.376565 -0.688461)
(-0.283957 0.356208 -0.657885)
(-0.290032 0.353504 -0.635732)
(-0.282127 0.35726 -0.634714)
(-0.242914 0.302728 -0.537405)
(-0.205724 0.262457 -0.484489)
(-0.21365 0.275334 -0.49733)
(-0.193924 0.237571 -0.437568)
(-0.200029 0.240664 -0.43976)
(-0.225314 0.274736 -0.500595)
(-0.221512 0.273071 -0.489992)
(-0.229527 0.29603 -0.537899)
(-0.272405 0.337726 -0.618832)
(-0.258277 0.330934 -0.60161)
(-0.243909 0.30692 -0.541943)
(-0.351521 0.424988 -0.790984)
(-0.338481 0.406934 -0.763567)
(-0.350498 0.410337 -0.773591)
(-0.354512 0.416915 -0.78364)
(-0.304596 0.373771 -0.702376)
(-0.324497 0.387638 -0.725615)
(-0.308693 0.365722 -0.684149)
(-0.35658 0.436121 -0.791707)
(-0.34143 0.413755 -0.779394)
(-0.320038 0.38262 -0.715137)
(-0.338199 0.406099 -0.759621)
(-0.368617 0.437593 -0.822372)
(-0.330331 0.393937 -0.737411)
(-0.35612 0.426575 -0.786951)
(-0.371299 0.440715 -0.815199)
(-0.35236 0.439177 -0.816279)
(-0.307806 0.367755 -0.683249)
(-0.33247 0.396925 -0.748932)
(-0.304732 0.347877 -0.6599)
(-0.313596 0.370929 -0.692003)
(-0.310675 0.360749 -0.671868)
(-0.328397 0.386644 -0.725182)
(-0.350554 0.414712 -0.77313)
(-0.317897 0.387077 -0.715351)
(-0.329921 0.400634 -0.741205)
(-0.327619 0.399173 -0.733469)
(-0.307984 0.377235 -0.690982)
(-0.277145 0.34365 -0.636308)
(-0.313256 0.380746 -0.698927)
(-0.31749 0.387449 -0.71156)
(-0.231528 0.268521 -0.512692)
(-0.23385 0.289032 -0.532789)
(-0.290413 0.356141 -0.653617)
(-0.292182 0.354096 -0.651658)
(-0.311818 0.385492 -0.704507)
(-0.292175 0.356436 -0.652944)
(-0.227527 0.286749 -0.518835)
(-0.210234 0.252309 -0.470388)
(-0.221677 0.273506 -0.514267)
(-0.229815 0.283337 -0.524949)
(-0.20876 0.261831 -0.47362)
(-0.24582 0.290344 -0.546968)
(-0.239843 0.296706 -0.548677)
(-0.227052 0.275494 -0.51437)
(-0.241221 0.287924 -0.536483)
(-0.324502 0.383252 -0.715113)
(-0.338961 0.405752 -0.75388)
(-0.347971 0.411941 -0.764164)
(-0.328045 0.391719 -0.730541)
(-0.383218 0.452889 -0.841052)
(-0.389478 0.466091 -0.859511)
(-0.322663 0.388096 -0.711813)
(-0.306817 0.363144 -0.680605)
(-0.340359 0.404885 -0.75132)
(-0.324854 0.389633 -0.728685)
(-0.32005 0.378809 -0.703813)
(-0.331219 0.390657 -0.729622)
(-0.374608 0.447329 -0.836398)
(-0.330545 0.399862 -0.744422)
(-0.337418 0.398019 -0.757129)
(-0.374047 0.449956 -0.843838)
(-0.373673 0.453067 -0.84866)
(-0.370815 0.446173 -0.844458)
(-0.378921 0.451232 -0.848624)
(-0.339956 0.407433 -0.772638)
(-0.322473 0.371716 -0.719319)
(-0.346158 0.419939 -0.784017)
(-0.342085 0.406149 -0.766088)
(-0.383225 0.460078 -0.859832)
(-0.325508 0.385742 -0.73218)
(-0.325824 0.387485 -0.737374)
(-0.32007 0.371265 -0.705988)
(-0.337446 0.40282 -0.755123)
(-0.310727 0.381599 -0.71313)
(-0.372086 0.445376 -0.828337)
(-0.326044 0.391337 -0.727483)
(-0.329706 0.397141 -0.741338)
(-0.29505 0.354214 -0.660088)
(-0.30899 0.37452 -0.702546)
(-0.305047 0.360246 -0.665409)
(-0.318767 0.376725 -0.701396)
(-0.352758 0.425969 -0.795246)
(-0.303237 0.378311 -0.689508)
(-0.347987 0.418929 -0.776874)
(-0.323665 0.394243 -0.727169)
(-0.315178 0.385469 -0.708007)
(-0.288591 0.354669 -0.649253)
(-0.293404 0.360704 -0.656228)
(-0.315739 0.377875 -0.698923)
(-0.348706 0.431613 -0.807291)
(-0.304841 0.368976 -0.682118)
(-0.324322 0.389465 -0.723848)
(-0.282333 0.341754 -0.634185)
(-0.329139 0.397004 -0.734756)
(-0.306576 0.365993 -0.680964)
(-0.233375 0.280319 -0.525867)
(-0.222906 0.276993 -0.51426)
(-0.227001 0.275908 -0.521518)
(-0.281776 0.338585 -0.624669)
(-0.226955 0.270146 -0.509249)
(-0.215762 0.263286 -0.487908)
(-0.296513 0.350972 -0.663165)
(-0.301289 0.359282 -0.664154)
(-0.248772 0.298099 -0.549664)
(-0.207949 0.25884 -0.483845)
(-0.224756 0.276645 -0.49334)
(-0.195336 0.233771 -0.449303)
(-0.255018 0.301073 -0.550952)
(-0.206726 0.257389 -0.463208)
(-0.215432 0.264625 -0.484775)
(-0.189719 0.236684 -0.442565)
(-0.287241 0.336659 -0.641713)
(-0.249131 0.305453 -0.558851)
(-0.232241 0.282376 -0.514222)
(-0.21433 0.25525 -0.472034)
(-0.314622 0.400119 -0.726852)
(-0.29375 0.365822 -0.669961)
(-0.238892 0.294674 -0.533198)
(-0.25117 0.298549 -0.556122)
(-0.288127 0.349331 -0.650996)
(-0.240185 0.287673 -0.53311)
(-0.230518 0.271242 -0.504111)
(-0.304593 0.345525 -0.666789)
(-0.310599 0.38348 -0.708257)
(-0.314272 0.386642 -0.693691)
(-0.225469 0.271352 -0.495111)
(-0.239449 0.290426 -0.533403)
(-0.21707 0.270224 -0.491992)
(-0.256575 0.29832 -0.563608)
(-0.246926 0.294235 -0.53563)
(-0.234841 0.284199 -0.512732)
(-0.233204 0.282163 -0.530264)
(-0.202858 0.25384 -0.468454)
(-0.236781 0.280199 -0.528108)
(-0.249878 0.313445 -0.571153)
(-0.247151 0.307357 -0.549066)
(-0.252767 0.291716 -0.556155)
(-0.228916 0.281011 -0.519721)
(-0.250478 0.301905 -0.565246)
(-0.30297 0.370078 -0.688868)
(-0.281032 0.338164 -0.625358)
(-0.289742 0.353985 -0.653505)
(-0.300697 0.368154 -0.669373)
(-0.246312 0.306098 -0.563426)
(-0.27632 0.341992 -0.629808)
(-0.323309 0.404142 -0.743834)
(-0.290401 0.359447 -0.663379)
(-0.287673 0.352529 -0.657581)
(-0.303158 0.373264 -0.69348)
(-0.359087 0.436508 -0.802582)
(-0.35252 0.407414 -0.783114)
(-0.265764 0.320451 -0.602113)
(-0.269209 0.326303 -0.611624)
(-0.258021 0.300138 -0.570036)
(-0.391802 0.479023 -0.883145)
(-0.361695 0.443368 -0.815534)
(-0.300268 0.374348 -0.700243)
(-0.318846 0.377815 -0.716563)
(-0.297045 0.367314 -0.682517)
(-0.315953 0.377384 -0.699923)
(-0.381514 0.453154 -0.863157)
(-0.375761 0.458206 -0.853116)
(-0.288944 0.364198 -0.673273)
(-0.322362 0.393291 -0.737013)
(-0.285742 0.355591 -0.646751)
(-0.322537 0.387951 -0.728603)
(-0.220149 0.283572 -0.518989)
(-0.233216 0.292221 -0.532477)
(-0.292758 0.357988 -0.671614)
(-0.22548 0.295086 -0.530691)
(-0.220205 0.287951 -0.510306)
(-0.208903 0.271786 -0.492088)
(-0.287081 0.348758 -0.648884)
(-0.243556 0.305054 -0.559061)
(-0.224629 0.276929 -0.511982)
(-0.249698 0.309107 -0.575013)
(-0.293565 0.368152 -0.680915)
(-0.319406 0.399409 -0.727639)
(-0.347872 0.429696 -0.782867)
(-0.310829 0.382454 -0.702091)
(-0.201925 0.253002 -0.457574)
(-0.253678 0.314589 -0.58956)
(-0.30237 0.364771 -0.683427)
(-0.329815 0.405216 -0.739656)
(-0.246897 0.309744 -0.56404)
(-0.237131 0.296907 -0.538575)
(-0.208717 0.256113 -0.474061)
(-0.192752 0.249439 -0.453795)
(-0.213576 0.251601 -0.460123)
(-0.20692 0.2528 -0.466182)
(-0.212242 0.249454 -0.476212)
(-0.204578 0.234835 -0.441533)
(-0.210614 0.249848 -0.458732)
(-0.224927 0.282094 -0.511039)
(-0.213246 0.263438 -0.482282)
(-0.222759 0.2803 -0.507133)
(-0.20456 0.250767 -0.462799)
(-0.212926 0.25983 -0.477088)
(-0.238701 0.279145 -0.52451)
(-0.245117 0.285682 -0.532971)
(-0.218304 0.270303 -0.497258)
(-0.215483 0.262302 -0.478512)
(-0.218436 0.272347 -0.500243)
(-0.196877 0.241586 -0.443284)
(-0.20675 0.258861 -0.458744)
(-0.208353 0.245257 -0.458275)
(-0.204408 0.234958 -0.438472)
(-0.214151 0.257089 -0.471985)
(-0.203693 0.24846 -0.445203)
(-0.21483 0.259541 -0.471412)
(-0.206591 0.250856 -0.465631)
(-0.22663 0.271286 -0.496386)
(-0.208214 0.250181 -0.454364)
(-0.203817 0.238716 -0.444298)
(-0.198294 0.238445 -0.452905)
(-0.199634 0.254042 -0.472591)
(-0.197225 0.243691 -0.467499)
(-0.224377 0.271665 -0.500945)
(-0.222408 0.273832 -0.497129)
(-0.221473 0.270934 -0.497567)
(-0.23315 0.270346 -0.510908)
(-0.216263 0.274434 -0.491216)
(-0.214014 0.26979 -0.499593)
(-0.206594 0.256745 -0.473198)
(-0.21161 0.255941 -0.482138)
(-0.210456 0.262832 -0.475694)
(-0.207862 0.266267 -0.488953)
(-0.210355 0.262406 -0.480513)
(-0.213679 0.256644 -0.474295)
(-0.209847 0.254393 -0.461798)
(-0.202849 0.248827 -0.464251)
(-0.208899 0.250357 -0.466319)
(-0.230394 0.266417 -0.501622)
(-0.218963 0.262978 -0.489825)
(-0.217924 0.249978 -0.470858)
(-0.219506 0.260832 -0.489097)
(-0.211355 0.254324 -0.476896)
(-0.202381 0.245007 -0.460051)
(-0.23127 0.285468 -0.541624)
(-0.22411 0.262591 -0.495736)
(-0.215986 0.273142 -0.488999)
(-0.225422 0.26648 -0.494984)
(-0.205894 0.255893 -0.458403)
(-0.200622 0.24535 -0.453647)
(-0.189887 0.231282 -0.441227)
(-0.197632 0.241137 -0.458439)
(-0.21086 0.250321 -0.463039)
(-0.221934 0.258203 -0.492842)
(-0.198646 0.249957 -0.45393)
(-0.197811 0.240937 -0.449623)
(-0.207693 0.247813 -0.457468)
(-0.214817 0.256262 -0.475664)
(-0.215028 0.259289 -0.486606)
(-0.22099 0.265486 -0.505738)