/*--------------------------------*- C++ -*----------------------------------*\
| =========                 |                                                 |
| \\      /  F ield         | OpenFOAM: The Open Source CFD Toolbox           |
|  \\    /   O peration     | Version:  v1612+                                |
|   \\  /    A nd           | Web:      www.OpenFOAM.com                      |
|    \\/     M anipulation  |                                                 |
\*---------------------------------------------------------------------------*/
FoamFile
{
    version     2.0;
    format      ascii;
    class       volScalarField;
    location    "150";
    object      p;
}
// * * * * * * * * * * * * * * * * * * * * * * * * * * * * * * * * * * * * * //

dimensions      [0 2 -2 0 0 0 0];

internalField   nonuniform List<scalar> 
16958
(
2.83714
2.90119
2.92098
2.88143
2.9116
2.9006
2.90112
2.90386
2.9019
2.89647
2.90474
2.90481
2.90255
2.91064
2.90843
2.90389
2.90402
2.90412
2.91128
2.91067
2.91198
2.90555
2.90661
2.9064
2.90198
2.87379
2.87722
2.88222
2.8789
2.87635
2.87434
2.8744
2.87623
2.87334
2.87786
2.8773
2.8795
2.87987
2.87255
2.8674
2.87132
2.87344
2.87493
2.87459
2.8859
2.89519
2.89709
2.88866
2.88958
2.89648
2.89582
2.89302
2.89309
2.89487
2.88858
2.88931
2.89676
2.89735
2.8927
2.89969
2.85816
2.86143
2.84964
2.85334
2.85675
2.85102
2.85237
2.86524
2.85982
2.85476
2.85545
2.86613
2.86567
2.8625
2.86465
2.86333
2.86965
2.86378
2.86729
2.86227
2.85886
2.88714
2.88287
2.87843
2.87901
2.87979
2.8795
2.87884
2.88443
2.88794
2.88811
2.88495
2.8808
2.87698
2.87824
2.88135
2.88098
2.88095
2.89149
2.87808
2.87931
2.8796
2.88647
2.88771
2.88863
2.88185
2.88729
2.879
2.87468
2.87732
2.88184
2.87652
2.87559
2.88017
2.87098
2.87319
2.88372
2.8807
2.8775
2.87961
2.87669
2.87309
2.91442
2.91301
2.915
2.91823
2.91881
2.92353
2.92531
2.91077
2.92022
2.92315
2.91756
2.91348
2.91147
2.91664
2.9168
2.91941
2.91997
2.92146
2.9241
2.92356
2.89073
2.89396
2.89555
2.89883
2.89763
2.89467
2.89049
2.89217
2.898
2.90106
2.89376
2.89649
2.90556
2.89645
2.89679
2.89666
2.8997
2.90178
2.89841
2.89696
2.89781
2.89398
2.89624
2.8972
2.89783
2.89928
2.90007
2.90176
2.90051
2.90164
2.8991
2.89839
2.90119
2.88777
2.89029
2.8918
2.88666
2.8861
2.89145
2.89077
2.88656
2.88732
2.8874
2.88782
2.93156
2.93067
2.9265
2.93046
2.92844
2.93043
2.8459
2.84233
2.83932
2.83413
2.84003
2.84423
2.84152
2.83676
2.84528
2.84721
2.85225
2.84581
2.84407
2.83634
2.84134
2.83276
2.94042
2.93958
2.93516
2.93634
2.94517
2.94594
2.94668
2.94231
2.93748
2.95022
2.94017
2.84372
2.84528
2.84408
2.84673
2.84864
2.84163
2.83921
2.89458
2.89644
2.89569
2.89786
2.89548
2.89137
2.88582
2.89149
2.889
2.89691
2.89311
2.89358
2.89611
2.89354
2.89797
2.89447
2.89543
2.86971
2.86936
2.86818
2.87138
2.86797
2.87269
2.86878
2.86705
2.86843
2.86191
2.86795
2.87089
2.86435
2.86772
2.86761
2.8586
2.86741
2.86303
2.87041
2.86379
2.95893
2.96131
2.95765
2.95293
2.94535
2.9522
2.95036
2.94581
2.94865
2.88005
2.88175
2.88646
2.88518
2.8832
2.88228
2.88003
2.88739
2.88311
2.88069
2.88406
2.88462
2.88704
2.88423
2.88791
2.91972
2.91989
2.92341
2.91941
2.92148
2.9231
2.92254
2.9201
2.91965
2.91626
2.91967
2.92066
2.91758
2.92566
2.92624
2.92127
2.92491
2.8699
2.86725
2.85949
2.8664
2.86648
2.86918
2.86162
2.86472
2.89044
2.89818
2.88493
2.89129
2.89161
2.88781
2.89602
2.89743
2.9008
2.90087
2.89933
2.89763
2.89569
2.89801
2.8944
2.90387
2.89779
2.89773
2.89397
2.89581
2.84535
2.84557
2.84494
2.83954
2.84283
2.83646
2.83994
2.83994
2.84131
2.84
2.85203
2.83858
2.84108
2.83956
2.83779
2.82838
2.83991
2.84138
2.84376
2.82938
2.83702
2.88442
2.88335
2.88507
2.88314
2.88037
2.88514
2.88265
2.88303
2.88075
2.88482
2.88504
2.8851
2.87976
2.88473
2.87962
2.8804
2.88633
2.92948
2.92739
2.92928
2.92972
2.92926
2.92837
2.93195
2.85505
2.85654
2.85932
2.86069
2.86183
2.86224
2.85814
2.85942
2.85949
2.86506
2.86596
2.86664
2.86884
2.8611
2.85977
2.86039
2.86806
2.86519
2.86549
2.86433
2.91224
2.91166
2.9105
2.90693
2.90883
2.90686
2.91136
2.91195
2.90943
2.90831
2.90644
2.90579
2.90391
2.9097
2.90581
2.90524
2.90953
2.90627
2.90724
2.90736
2.91361
2.90711
2.91266
2.9156
2.90474
2.91117
2.90571
2.90575
2.90778
2.90765
2.90441
2.90288
2.90397
2.90774
2.90305
2.90592
2.90456
2.90951
2.90696
2.90183
2.86279
2.86354
2.85932
2.85922
2.85963
2.85912
2.86339
2.86177
2.85774
2.85855
2.85553
2.85449
2.85592
2.8608
2.86086
2.85913
2.8548
2.85941
2.85606
2.85408
2.85441
2.84912
2.85261
2.85342
2.85224
2.85018
2.90659
2.91288
2.91343
2.9184
2.91463
2.9138
2.91755
2.91864
2.90514
2.90893
2.913
2.91084
2.90316
2.91735
2.9076
2.91256
2.84458
2.84766
2.84824
2.85603
2.85635
2.85296
2.85808
2.8427
2.85288
2.84603
2.85155
2.84743
2.8455
2.84268
2.91514
2.91399
2.92
2.91634
2.916
2.91119
2.92057
2.92157
2.92357
2.91829
2.92414
2.91702
2.91955
2.91895
2.91989
2.9207
2.91927
2.9219
2.92738
2.92849
2.92544
2.93052
2.92114
2.91679
2.91869
2.92026
2.91686
2.926
2.9207
2.91779
2.9195
2.89207
2.88928
2.89226
2.89468
2.88867
2.88454
2.88331
2.88872
2.88656
2.88169
2.88451
2.89212
2.88768
2.88416
2.89146
2.89177
2.89736
2.88945
2.87013
2.87128
2.86764
2.87078
2.86706
2.87394
2.87329
2.87365
2.86761
2.86551
2.87443
2.8772
2.87215
2.87412
2.8715
2.87161
2.87906
2.87975
2.88247
2.88208
2.87633
2.87301
2.91992
2.91925
2.92054
2.91421
2.91656
2.91748
2.9169
2.91483
2.91374
2.91877
2.91575
2.91623
2.91347
2.91905
2.91293
2.96116
2.96708
2.97174
2.96407
2.95719
2.95932
2.95301
2.95321
2.95329
2.94946
2.95465
2.96621
2.95344
2.95975
2.86598
2.86507
2.85917
2.86634
2.86545
2.86695
2.8634
2.8612
2.86401
2.86066
2.8668
2.86604
2.86102
2.86328
2.86216
2.86183
2.85841
2.86556
2.86935
2.86943
2.87515
2.87521
2.88192
2.87611
2.86921
2.86854
2.87122
2.86679
2.87325
2.86801
2.87006
2.87037
2.86742
2.87147
2.87624
2.8748
2.88173
2.86783
2.87399
2.87966
2.87037
2.87352
2.87995
2.87907
2.90221
2.89712
2.90463
2.90387
2.90286
2.90615
2.90159
2.90215
2.90229
2.90336
2.90064
2.90421
2.90299
2.90507
2.91006
2.91573
2.90161
2.90637
2.91481
2.91567
2.91538
2.91033
2.96139
2.96286
2.9619
2.95616
2.95206
2.95587
2.95396
2.9574
2.96505
2.95289
2.95667
2.94809
2.94928
2.9532
2.95332
2.951
2.9555
2.95159
2.96136
2.95892
2.96011
2.88256
2.8841
2.87211
2.88071
2.8735
2.87777
2.88208
2.8841
2.87929
2.88765
2.88865
2.88554
2.88605
2.88671
2.8936
2.89411
2.87849
2.89795
2.89757
2.88755
2.89444
2.89663
2.89135
2.89118
2.88702
2.87
2.8658
2.86272
2.86815
2.87654
2.87238
2.87029
2.86762
2.86689
2.86653
2.86512
2.86691
2.87383
2.87164
2.87
2.87128
2.8689
2.87382
2.87665
2.87332
2.86844
2.86789
2.86789
2.86938
2.8679
2.86796
2.86755
2.86551
2.86718
2.86418
2.86626
2.86355
2.8623
2.86298
2.86383
2.8635
2.86657
2.86623
2.86362
2.86478
2.86311
2.86818
2.86577
2.86321
2.8595
2.8638
2.86424
2.86272
2.86577
2.86047
2.86479
2.86759
2.87216
2.86661
2.86313
2.86978
2.8754
2.86835
2.86927
2.91441
2.91165
2.90881
2.91355
2.90975
2.91283
2.91202
2.91482
2.91252
2.91172
2.91016
2.91469
2.90872
2.9138
2.90837
2.8604
2.8681
2.86817
2.86996
2.86672
2.85957
2.86693
2.86476
2.86969
2.8676
2.87306
2.86385
2.86796
2.86707
2.86958
2.90219
2.90212
2.90373
2.89476
2.89466
2.90086
2.89979
2.89023
2.89337
2.89702
2.89403
2.89601
2.89704
2.90425
2.90227
2.89126
2.89183
2.89621
2.92545
2.9256
2.92519
2.92832
2.92672
2.92782
2.92633
2.92203
2.92602
2.88271
2.88141
2.88525
2.88148
2.88298
2.88511
2.88229
2.88119
2.88451
2.88115
2.88081
2.88149
2.88256
2.88433
2.88197
2.88377
2.88345
2.88379
2.89194
2.8907
2.85999
2.86079
2.85193
2.90468
2.91052
2.84332
2.83505
2.85093
2.83905
2.95114
2.94962
2.82866
2.82979
2.91386
2.91117
2.91405
2.89711
2.89477
2.89474
2.9278
2.92634
2.92924
2.86361
2.86254
2.87234
2.86621
2.86457
2.86969
2.86373
2.90904
2.91612
2.91736
2.91231
2.86078
2.86065
2.86547
2.93298
2.93647
2.86302
2.86567
2.93454
2.93443
2.85929
2.85735
2.85925
2.84613
2.84654
2.91916
2.91797
2.89891
2.90037
2.89777
2.89727
2.91875
2.91943
2.92255
2.9155
2.8712
2.8655
2.86667
2.86527
2.8618
2.88326
2.88541
2.88089
2.88172
2.92618
2.91739
2.92096
2.86487
2.86568
2.86361
2.85954
2.8956
2.89855
2.89271
2.88595
2.88558
2.89707
2.89609
2.88702
2.89033
2.88959
2.88481
2.95931
2.95773
2.90907
2.9137
2.91452
2.90585
2.91051
2.90963
2.91163
2.90875
2.87418
2.87871
2.87488
2.88226
2.87762
2.87394
2.88766
2.87144
2.87797
2.89489
2.89404
2.90646
2.90464
2.93638
2.92978
2.9307
2.92365
2.93891
2.92738
2.92576
2.87739
2.8709
2.87006
2.88793
2.88501
2.87861
2.87739
2.8782
2.8851
2.88565
2.87313
2.87603
2.87299
2.89175
2.8997
2.9018
2.90182
2.91086
2.91473
2.91829
2.88812
2.88982
2.86618
2.86635
2.91456
2.91571
2.9214
2.85445
2.85568
2.89215
2.89309
2.92257
2.92282
2.92552
2.9164
2.91863
2.90855
2.92402
2.89021
2.89054
2.85321
2.84858
2.85247
2.85019
2.84091
2.84228
2.94944
2.94655
2.94352
2.95589
2.95215
2.95074
2.97415
2.97378
2.97789
2.90586
2.90693
2.90546
2.85302
2.84702
2.87162
2.87123
2.8855
2.88665
2.90317
2.90402
2.93056
2.92402
2.92519
2.92907
2.92834
2.92679
2.92744
2.92954
2.93015
2.93057
2.92693
2.93421
2.93383
2.93089
2.92932
2.92106
2.91898
2.92889
2.92132
2.9231
2.92945
2.93093
2.92719
2.89936
2.90712
2.89869
2.89489
2.90218
2.89399
2.90039
2.90076
2.90447
2.90397
2.91317
2.90406
2.90424
2.90023
2.90577
2.90435
2.90642
2.90499
2.89984
2.89259
2.9018
2.90238
2.89705
2.90872
2.89983
2.90139
2.89755
2.89448
2.90045
2.89195
2.88783
2.88754
2.88683
2.88183
2.88698
2.88453
2.88103
2.87295
2.87851
2.87572
2.87003
2.86917
2.87051
2.86706
2.86385
2.87086
2.8712
2.86866
2.87517
2.86883
2.8707
2.87696
2.87192
2.87369
2.86511
2.87407
2.87104
2.86542
2.86671
2.85689
2.86089
2.85871
2.91057
2.90912
2.90417
2.90324
2.90878
2.90776
2.90637
2.91241
2.9121
2.90436
2.90654
2.90786
2.9102
2.90672
2.90589
2.90133
2.89878
2.89926
2.90354
2.90254
2.89941
2.89961
2.89706
2.90574
2.90302
2.9002
2.90013
2.95914
2.96222
2.96772
2.96368
2.96279
2.96083
2.96109
2.97403
2.96467
2.97348
2.95666
2.95934
2.95391
2.94568
2.93103
2.94675
2.94355
2.93877
2.9547
2.95663
2.96034
2.94288
2.94671
2.94348
2.9468
2.9439
2.94432
2.93962
2.94645
2.94343
2.96441
2.95329
2.95648
2.96034
2.95894
2.95186
2.93032
2.93564
2.93332
2.93604
2.94401
2.93573
2.96223
2.9533
2.95128
2.95509
2.95215
2.94645
2.93794
2.95229
2.93418
2.94017
2.95176
2.94827
2.94878
2.9414
2.84892
2.84663
2.84086
2.84676
2.84505
2.85371
2.8603
2.85301
2.84851
2.8559
2.84369
2.84377
2.84657
2.84788
2.8446
2.84409
2.83535
2.83373
2.84239
2.8375
2.84126
2.86528
2.85757
2.8521
2.86471
2.85996
2.85734
2.86014
2.85494
2.86637
2.8616
2.89194
2.88743
2.89005
2.88628
2.88213
2.88426
2.88467
2.89687
2.89523
2.89116
2.89216
2.88905
2.89835
2.87599
2.87767
2.88597
2.8846
2.886
2.882
2.88182
2.887
2.88596
2.88398
2.88591
2.88921
2.89067
2.89487
2.89165
2.88707
2.88868
2.88936
2.88466
2.88713
2.90311
2.90365
2.91225
2.91861
2.92013
2.91696
2.93371
2.9305
2.92514
2.92497
2.91954
2.90809
2.91783
2.92151
2.9188
2.90958
2.90874
2.9143
2.90947
2.91847
2.91806
2.92674
2.92859
2.91904
2.92011
2.92229
2.92063
2.92123
2.92277
2.92144
2.9233
2.92741
2.92631
2.9252
2.92463
2.92452
2.82439
2.89354
2.89241
2.90128
2.89774
2.89214
2.89375
2.89154
2.89208
2.89237
2.88951
2.8928
2.88959
2.88856
2.88864
2.89049
2.8851
2.88603
2.88561
2.88764
2.88764
2.89106
2.88815
2.88619
2.89297
2.88833
2.88945
2.8912
2.89344
2.89245
2.84658
2.84837
2.84072
2.85576
2.85769
2.85722
2.85812
2.85712
2.85613
2.85503
2.86009
2.8579
2.92014
2.92692
2.9248
2.91942
2.92105
2.92039
2.9169
2.91873
2.9098
2.92136
2.91606
2.90811
2.9142
2.87794
2.87136
2.87311
2.86351
2.87031
2.87648
2.86782
2.86514
2.86845
2.87006
2.85461
2.85992
2.85473
2.86421
2.8597
2.87058
2.86406
2.86617
2.86066
2.85956
2.85776
2.86347
2.86662
2.88264
2.8693
2.86845
2.86766
2.87645
2.87349
2.88157
2.88541
2.88233
2.89179
2.88253
2.88547
2.88699
2.89129
2.89649
2.88618
2.88952
2.8869
2.8855
2.89565
2.88744
2.88713
2.88626
2.88142
2.87895
2.88002
2.88096
2.88749
2.91877
2.92252
2.91956
2.9155
2.92076
2.91705
2.91875
2.91801
2.91416
2.91125
2.90666
2.91225
2.91151
2.91887
2.92012
2.91737
2.91362
2.91478
2.91201
2.91373
2.91458
2.9011
2.89968
2.90391
2.89832
2.90248
2.90273
2.90657
2.89959
2.89915
2.89934
2.87615
2.87344
2.87603
2.8751
2.86599
2.86329
2.86259
2.8707
2.86746
2.87026
2.8717
2.87194
2.86866
2.87103
2.87759
2.88048
2.87684
2.874
2.89166
2.88765
2.89188
2.87766
2.8791
2.87628
2.89249
2.89577
2.89356
2.89558
2.89351
2.88946
2.88755
2.88363
2.87849
2.88848
2.8893
2.88962
2.88624
2.88605
2.87877
2.87394
2.87374
2.8802
2.88166
2.88063
2.87827
2.87973
2.87901
2.87171
2.8731
2.87634
2.8771
2.87496
2.87341
2.87478
2.88313
2.88086
2.87877
2.87476
2.87225
2.87455
2.87429
2.87286
2.87728
2.8812
2.87631
2.87555
2.88291
2.87543
2.87789
2.87357
2.87456
2.87332
2.89258
2.88978
2.89344
2.87599
2.88532
2.88122
2.88933
2.88844
2.89107
2.88719
2.87848
2.88337
2.87456
2.87607
2.88488
2.88585
2.88374
2.87851
2.88095
2.88093
2.87593
2.87458
2.86659
2.87414
2.86838
2.86389
2.87084
2.8769
2.87017
2.87206
2.85125
2.84921
2.85399
2.8445
2.84129
2.83741
2.92766
2.93076
2.92511
2.92855
2.92738
2.93323
2.9224
2.92248
2.9246
2.92557
2.92295
2.93255
2.93193
2.92968
2.93419
2.93503
2.93122
2.9271
2.93299
2.92187
2.91839
2.92187
2.92818
2.92722
2.9186
2.91668
2.90428
2.90075
2.90238
2.89592
2.90828
2.9096
2.90739
2.89361
2.89557
2.9013
2.90306
2.89262
2.90091
2.90111
2.89144
2.89252
2.90713
2.90119
2.90673
2.90559
2.89538
2.89021
2.89258
2.88955
2.88795
2.90129
2.89637
2.90151
2.90486
2.89183
2.88493
2.89352
2.90156
2.89797
2.89249
2.89049
2.89049
2.88544
2.89125
2.90132
2.89319
2.89381
2.89466
2.89597
2.88953
2.89197
2.89238
2.89568
2.89593
2.89372
2.88914
2.89149
2.87306
2.8696
2.87957
2.87865
2.87016
2.86873
2.87934
2.87248
2.87585
2.87491
2.88801
2.89071
2.87478
2.87351
2.89127
2.88536
2.8816
2.88181
2.8876
2.88589
2.89114
2.89147
2.88494
2.88253
2.88469
2.88699
2.88764
2.88879
2.8902
2.88914
2.8779
2.86885
2.87262
2.87774
2.87105
2.86427
2.86796
2.87456
2.87549
2.86735
2.86781
2.88134
2.88441
2.88117
2.88172
2.87983
2.87025
2.86844
2.87319
2.87571
2.87196
2.87157
2.8733
2.87775
2.87462
2.87449
2.87686
2.87989
2.86604
2.86803
2.87452
2.88272
2.87882
2.87892
2.88185
2.88193
2.87848
2.87946
2.87538
2.87818
2.87647
2.87474
2.87746
2.87586
2.91819
2.91841
2.91637
2.91409
2.91257
2.91176
2.9099
2.91428
2.91217
2.91521
2.91268
2.91279
2.91385
2.90325
2.90703
2.90624
2.90431
2.90222
2.90199
2.90404
2.90913
2.90074
2.91233
2.90812
2.91055
2.91365
2.90741
2.91197
2.90466
2.90307
2.9058
2.89698
2.90572
2.907
2.90956
2.9073
2.90926
2.90305
2.91291
2.90968
2.91032
2.91797
2.91753
2.91421
2.90808
2.91703
2.91472
2.91803
2.91265
2.91172
2.91245
2.90918
2.91284
2.90122
2.90616
2.90623
2.89605
2.91821
2.91639
2.91103
2.91111
2.90796
2.90829
2.90963
2.90683
2.90597
2.951
2.9519
2.94327
2.95792
2.94892
2.9501
2.96274
2.96461
2.8537
2.85156
2.85877
2.85124
2.84851
2.88222
2.88405
2.88075
2.88508
2.88035
2.89512
2.89329
2.888
2.88846
2.88922
2.89892
2.89997
2.89404
2.89582
2.9021
2.8975
2.90025
2.89333
2.8949
2.89667
2.89225
2.8928
2.89165
2.89632
2.89317
2.89531
2.85845
2.90153
2.90056
2.90239
2.90575
2.89235
2.89334
2.89463
2.89438
2.89995
2.89373
2.89553
2.89392
2.89753
2.89725
2.86446
2.86646
2.86394
2.86957
2.8689
2.86629
2.87019
2.86628
2.86662
2.858
2.86292
2.86331
2.85801
2.85928
2.91696
2.9177
2.91457
2.91037
2.91892
2.92198
2.93085
2.91947
2.91818
2.91681
2.92214
2.92224
2.92386
2.92068
2.91455
2.91539
2.91523
2.9159
2.91485
2.91567
2.91256
2.87969
2.87982
2.87652
2.88741
2.87705
2.87929
2.87771
2.87958
2.88511
2.88214
2.87206
2.88243
2.87417
2.87114
2.87148
2.88507
2.88685
2.87846
2.87726
2.87637
2.88045
2.88094
2.87809
2.87695
2.88443
2.8832
2.88348
2.88367
2.88325
2.88318
2.87884
2.877
2.87829
2.88185
2.87797
2.87783
2.87527
2.87629
2.86026
2.85801
2.86288
2.86193
2.86104
2.85732
2.8672
2.86438
2.86926
2.87104
2.87089
2.86282
2.86118
2.86014
2.86435
2.83795
2.82934
2.82485
2.83041
2.87343
2.87727
2.87921
2.88337
2.87784
2.87712
2.87316
2.88129
2.87365
2.87253
2.87321
2.86958
2.8768
2.87377
2.87399
2.9204
2.92432
2.9215
2.91114
2.92083
2.9189
2.91497
2.91447
2.91356
2.91651
2.91348
2.91418
2.91471
2.89278
2.89285
2.89073
2.89555
2.89527
2.8897
2.8904
2.89459
2.89978
2.89888
2.90124
2.90272
2.90135
2.91476
2.90397
2.90414
2.91691
2.91216
2.91248
2.92195
2.91852
2.91981
2.92006
2.92304
2.84186
2.85644
2.85505
2.85619
2.85909
2.84951
2.84615
2.84987
2.8543
2.84386
2.84172
2.8307
2.83745
2.84234
2.84993
2.8552
2.84808
2.85098
2.84942
2.83913
2.84369
2.842
2.84735
2.84186
2.84278
2.84521
2.84513
2.85056
2.84544
2.84539
2.84961
2.85696
2.85422
2.85388
2.8507
2.8485
2.85416
2.85096
2.85117
2.85543
2.84858
2.84924
2.84677
2.84736
2.85354
2.83765
2.85184
2.85112
2.84457
2.84528
2.83743
2.84782
2.86161
2.86544
2.86402
2.86172
2.85464
2.85286
2.85075
2.84471
2.85199
2.85044
2.84779
2.85334
2.8561
2.85016
2.85198
2.86351
2.85725
2.85815
2.8629
2.85679
2.85685
2.85307
2.93807
2.94081
2.94266
2.95417
2.95185
2.94165
2.93721
2.93025
2.92963
2.93294
2.93374
2.93814
2.93541
2.85754
2.86446
2.85408
2.84855
2.8633
2.86181
2.85882
2.86179
2.86007
2.86046
2.86829
2.86221
2.86188
2.94431
2.93952
2.9325
2.94465
2.94371
2.94566
2.95168
2.95049
2.9438
2.93706
2.93643
2.93191
2.93462
2.94324
2.93684
2.93507
2.93817
2.85378
2.86019
2.85703
2.85532
2.90415
2.90469
2.90475
2.92909
2.92113
2.913
2.92209
2.92442
2.86127
2.86502
2.86446
2.85898
2.85801
2.85785
2.85365
2.86173
2.86211
2.86297
2.86353
2.87207
2.87019
2.86841
2.86765
2.87139
2.87209
2.8722
2.8568
2.85734
2.85933
2.86876
2.86615
2.8678
2.86954
2.87181
2.86614
2.86812
2.86277
2.86809
2.8647
2.8635
2.8624
2.87223
2.86647
2.87234
2.87127
2.86149
2.86313
2.86265
2.8618
2.86524
2.8678
2.86479
2.85985
2.86416
2.85927
2.85946
2.85212
2.85067
2.8526
2.92699
2.92256
2.92923
2.92946
2.93207
2.93242
2.92798
2.92595
2.9193
2.92213
2.92159
2.92221
2.92193
2.92019
2.90806
2.90516
2.90339
2.9036
2.89588
2.90685
2.90095
2.88671
2.88127
2.89058
2.89179
2.88759
2.88048
2.89303
2.90011
2.88573
2.88706
2.89688
2.89602
2.91777
2.91393
2.9159
2.91018
2.90438
2.91028
2.90925
2.91142
2.90814
2.90949
2.91094
2.91387
2.90944
2.91003
2.91049
2.91223
2.91305
2.91068
2.91096
2.83415
2.83701
2.84334
2.83886
2.83214
2.83245
2.83279
2.82704
2.8301
2.83618
2.83412
2.82999
2.95003
2.94259
2.94667
2.9504
2.94265
2.95664
2.95905
2.96068
2.95401
2.95792
2.95123
2.94796
2.95351
2.94023
2.94533
2.8499
2.84878
2.84976
2.84752
2.83744
2.83915
2.90125
2.90619
2.90607
2.89952
2.89751
2.90345
2.9047
2.91051
2.90181
2.90848
2.90659
2.90304
2.90285
2.85803
2.84945
2.85281
2.86007
2.85676
2.85529
2.86287
2.86205
2.85864
2.8589
2.85879
2.8668
2.86371
2.85627
2.85987
2.86543
2.85959
2.86176
2.85695
2.86546
2.86001
2.8582
2.85915
2.85984
2.8594
2.85543
2.85317
2.85395
2.8878
2.88554
2.88595
2.88822
2.88625
2.88194
2.87779
2.8812
2.88476
2.88154
2.85544
2.85162
2.85749
2.85183
2.84855
2.94625
2.9423
2.94661
2.94929
2.94935
2.94055
2.93686
2.93116
2.93323
2.90715
2.90388
2.90592
2.91911
2.91891
2.91486
2.91449
2.91472
2.91263
2.91462
2.9161
2.9164
2.94083
2.9371
2.93608
2.92981
2.93107
2.932
2.93516
2.93505
2.859
2.86096
2.86181
2.85787
2.85734
2.86124
2.85956
2.85634
2.85725
2.86104
2.85943
2.85963
2.86003
2.85538
2.84852
2.86111
2.85791
2.85248
2.84848
2.85121
2.85953
2.85269
2.86584
2.86817
2.86833
2.85978
2.86008
2.85957
2.85966
2.86524
2.87323
2.87247
2.8676
2.86242
2.86815
2.86437
2.84363
2.85373
2.86056
2.85811
2.86336
2.86057
2.86292
2.86184
2.85839
2.85447
2.86107
2.85037
2.85282
2.85627
2.84909
2.85683
2.85357
2.85325
2.85921
2.85266
2.85229
2.8554
2.8549
2.8609
2.86948
2.86619
2.86201
2.85867
2.86209
2.85978
2.86515
2.86393
2.85597
2.86069
2.8593
2.86244
2.85668
2.85072
2.86601
2.85738
2.85982
2.86048
2.85726
2.86
2.82376
2.83012
2.83372
2.82293
2.8267
2.83759
2.83617
2.83525
2.89385
2.89651
2.89581
2.89805
2.89741
2.89917
2.89839
2.89942
2.89586
2.87964
2.8743
2.88078
2.85976
2.86636
2.86277
2.86586
2.86164
2.86874
2.86739
2.82936
2.83288
2.83403
2.83084
2.82758
2.82712
2.81978
2.83085
2.82665
2.83002
2.83244
2.83709
2.83905
2.84538
2.83614
2.84135
2.83911
2.8545
2.86066
2.85986
2.85662
2.85985
2.86003
2.85765
2.85679
2.85136
2.85146
2.85833
2.85721
2.87393
2.87105
2.87129
2.88177
2.87626
2.87914
2.87634
2.85163
2.85006
2.85487
2.84849
2.95081
2.94774
2.95088
2.95234
2.94809
2.95016
2.95059
2.89424
2.89482
2.89622
2.90246
2.89615
2.9013
2.89736
2.89982
2.90223
2.89725
2.89758
2.90788
2.90987
2.90872
2.90441
2.91086
2.91179
2.9095
2.90969
2.90955
2.90819
2.90673
2.91041
2.90888
2.90783
2.86689
2.86761
2.87308
2.87234
2.87415
2.87422
2.87277
2.87259
2.87029
2.87111
2.8716
2.87166
2.86236
2.86265
2.86335
2.86661
2.86556
2.86435
2.86564
2.86256
2.86482
2.88153
2.87969
2.87227
2.88026
2.88777
2.87332
2.87475
2.87382
2.88237
2.88794
2.87632
2.88274
2.87696
2.88452
2.89581
2.89795
2.88554
2.90033
2.89897
2.89741
2.89556
2.90166
2.89782
2.88639
2.87125
2.87405
2.87953
2.88262
2.88073
2.8865
2.88002
2.87649
2.88173
2.88179
2.885
2.89532
2.89757
2.89851
2.89691
2.89823
2.84916
2.8439
2.83898
2.84755
2.84402
2.84231
2.84285
2.8414
2.84945
2.85256
2.84908
2.85151
2.84949
2.8504
2.85789
2.85544
2.86117
2.84744
2.84705
2.85685
2.85402
2.86373
2.86142
2.86566
2.86658
2.86275
2.85973
2.8625
2.85698
2.86812
2.86056
2.86007
2.86151
2.86136
2.87265
2.87205
2.87522
2.87219
2.88038
2.87482
2.87409
2.87854
2.8791
2.88624
2.87994
2.88679
2.88496
2.89232
2.89767
2.8971
2.8846
2.87832
2.88616
2.88838
2.88665
2.87095
2.87311
2.87229
2.87379
2.87317
2.87265
2.90426
2.9099
2.90873
2.91179
2.9147
2.91246
2.90977
2.9064
2.9042
2.90747
2.90671
2.90604
2.91393
2.91151
2.91337
2.90674
2.91742
2.91036
2.91893
2.91455
2.9158
2.91412
2.90987
2.92088
2.92444
2.91971
2.91936
2.92299
2.91938
2.88655
2.88362
2.88043
2.87947
2.88606
2.87899
2.88172
2.88396
2.88011
2.88187
2.88689
2.84321
2.83495
2.8361
2.83793
2.84395
2.83711
2.83342
2.88559
2.88651
2.88866
2.89063
2.89015
2.89091
2.89269
2.88956
2.89101
2.89788
2.89327
2.89102
2.89126
2.88841
2.88601
2.88943
2.89432
2.8919
2.83977
2.83863
2.83032
2.83744
2.84472
2.83903
2.84165
2.83474
2.92014
2.92667
2.92063
2.92423
2.92338
2.92213
2.92223
2.9224
2.9225
2.90592
2.90749
2.90727
2.89823
2.91032
2.91033
2.90587
2.9063
2.90288
2.90423
2.91218
2.91572
2.92183
2.91131
2.91661
2.91523
2.91674
2.89168
2.89325
2.89429
2.89159
2.8899
2.89311
2.90097
2.89556
2.89175
2.89424
2.89888
2.89739
2.96957
2.9561
2.95759
2.96839
2.96161
2.9562
2.95865
2.96804
2.97607
2.96933
2.96775
2.97479
2.97289
2.96212
2.97297
2.96784
2.94547
2.95091
2.95361
2.9441
2.94804
2.95657
2.95458
2.95252
2.9435
2.95704
2.95328
2.96363
2.95899
2.96065
2.95762
2.96297
2.96308
2.96586
2.96391
2.96783
2.95317
2.95242
2.96104
2.95759
2.96897
2.9763
2.97879
2.98038
2.97823
2.96879
2.97414
2.97169
2.9551
2.96396
2.96391
2.95533
2.95893
2.95395
2.95273
2.95435
2.96453
2.96239
2.96538
2.96337
2.94875
2.95359
2.94708
2.95505
2.94731
2.95582
2.94946
2.94586
2.9538
2.95553
2.95313
2.95291
2.94383
2.95242
2.95651
2.9648
2.95398
2.95035
2.89601
2.89716
2.90033
2.89687
2.89906
2.89811
2.89836
2.89863
2.90461
2.90497
2.90694
2.90696
2.90723
2.90745
2.90688
2.84667
2.84989
2.85104
2.84557
2.85382
2.85183
2.85492
2.84919
2.85044
2.85456
2.85842
2.85204
2.84797
2.85375
2.85097
2.85288
2.85439
2.85416
2.85359
2.87811
2.88445
2.87732
2.87898
2.87404
2.87689
2.88532
2.8829
2.88048
2.87658
2.87625
2.92852
2.92718
2.92422
2.93163
2.92504
2.92207
2.92059
2.92462
2.92483
2.92098
2.92443
2.92459
2.92167
2.92435
2.92944
2.92622
2.92964
2.92674
2.92582
2.92544
2.9273
2.9281
2.92662
2.92565
2.92977
2.93068
2.93118
2.92856
2.92407
2.92869
2.92812
2.9292
2.92943
2.92637
2.92781
2.92282
2.92223
2.92413
2.9223
2.92697
2.92864
2.92825
2.93032
2.92831
2.92239
2.92369
2.9267
2.92948
2.90672
2.90417
2.90746
2.90266
2.90507
2.90759
2.90763
2.90581
2.90683
2.85432
2.84832
2.85038
2.85128
2.85351
2.84734
2.85323
2.85523
2.87242
2.87684
2.88103
2.8674
2.87022
2.87409
2.88118
2.88334
2.87079
2.86335
2.86126
2.86717
2.87363
2.87289
2.92264
2.92263
2.92004
2.91995
2.92059
2.91869
2.92285
2.92059
2.91744
2.92021
2.91865
2.86528
2.86692
2.86625
2.86895
2.87143
2.87049
2.86881
2.86664
2.8702
2.88503
2.88239
2.88022
2.88676
2.88747
2.89052
2.88241
2.85642
2.85033
2.84678
2.85138
2.85549
2.84578
2.84649
2.85546
2.85653
2.85323
2.84918
2.91382
2.91487
2.91029
2.92116
2.92154
2.91772
2.91963
2.92361
2.91837
2.92493
2.92048
2.92175
2.91927
2.91521
2.91626
2.91464
2.90067
2.9031
2.9068
2.90386
2.9025
2.90338
2.89645
2.8978
2.89354
2.89176
2.89753
2.90455
2.89505
2.89687
2.86084
2.8622
2.84815
2.8485
2.84984
2.84708
2.84979
2.84848
2.94226
2.95006
2.94713
2.94154
2.94129
2.93046
2.93335
2.9318
2.9332
2.93486
2.93175
2.95177
2.95178
2.95332
2.87149
2.86701
2.86606
2.85986
2.87068
2.86508
2.85781
2.86832
2.86727
2.86738
2.86728
2.86337
2.83447
2.84173
2.83662
2.84496
2.83117
2.84454
2.83833
2.83562
2.83042
2.88649
2.87454
2.89293
2.89473
2.89541
2.8968
2.89394
2.89454
2.88951
2.89833
2.89941
2.90019
2.92092
2.92257
2.92416
2.92524
2.919
2.92637
2.92588
2.91912
2.9212
2.92016
2.91599
2.93085
2.92725
2.92975
2.92011
2.92138
2.8939
2.89187
2.88955
2.88985
2.88573
2.89037
2.88814
2.88621
2.88665
2.88713
2.88556
2.87967
2.88405
2.8874
2.88865
2.90934
2.8696
2.86819
2.87698
2.86598
2.88143
2.87235
2.87438
2.87572
2.87238
2.88325
2.86418
2.86224
2.86663
2.86528
2.86628
2.86505
2.88094
2.88362
2.87926
2.88375
2.87898
2.87247
2.8825
2.88492
2.88372
2.91671
2.91504
2.91908
2.91246
2.91398
2.91069
2.92023
2.9185
2.91615
2.87736
2.88025
2.88546
2.88097
2.88281
2.88296
2.87862
2.88017
2.8831
2.88255
2.88291
2.88166
2.87973
2.88059
2.87934
2.91597
2.9224
2.92169
2.91951
2.92044
2.92201
2.91794
2.92402
2.9237
2.89366
2.89224
2.89038
2.88782
2.8854
2.88786
2.88743
2.89483
2.88913
2.89534
2.89035
2.88756
2.88933
2.89288
2.8811
2.88084
2.87082
2.88161
2.88267
2.87644
2.87688
2.88063
2.88208
2.87708
2.87962
2.87701
2.90254
2.90161
2.89813
2.90334
2.89882
2.90524
2.9047
2.90708
2.89475
2.90662
2.89691
2.89549
2.89715
2.91111
2.90707
2.91008
2.8982
2.89448
2.90327
2.90638
2.90843
2.90691
2.90723
2.91119
2.90023
2.89903
2.92732
2.92649
2.92588
2.9181
2.90789
2.91947
2.91819
2.90917
2.91334
2.91764
2.92274
2.91827
2.92087
2.91609
2.90522
2.90965
2.9099
2.91466
2.92065
2.91096
2.90304
2.91564
2.91838
2.91396
2.91415
2.9049
2.9074
2.85059
2.85074
2.84884
2.8502
2.88102
2.88009
2.88405
2.88451
2.88401
2.88431
2.87995
2.8863
2.88279
2.87633
2.88806
2.88221
2.88765
2.88598
2.89262
2.8839
2.89013
2.88224
2.88839
2.89493
2.89154
2.89059
2.89218
2.89148
2.89637
2.89715
2.89493
2.89542
2.89337
2.89263
2.89397
2.89839
2.89738
2.89388
2.89484
2.873
2.87418
2.87337
2.87581
2.8748
2.87411
2.87308
2.87452
2.86748
2.86699
2.87031
2.87092
2.87039
2.86457
2.87184
2.92213
2.92769
2.93312
2.9338
2.92401
2.92817
2.92423
2.8637
2.87418
2.87378
2.86617
2.86018
2.86402
2.86582
2.86383
2.85465
2.85748
2.87045
2.86639
2.87622
2.87516
2.87079
2.86806
2.87011
2.86836
2.87997
2.87755
2.88326
2.88527
2.88567
2.88854
2.87577
2.88014
2.87804
2.87911
2.88839
2.88478
2.90179
2.91648
2.90971
2.91113
2.90245
2.90861
2.91074
2.9133
2.91361
2.90033
2.90092
2.89375
2.90953
2.91096
2.92336
2.92023
2.91561
2.91428
2.91534
2.91368
2.91705
2.84469
2.84357
2.84471
2.84154
2.84267
2.84464
2.84946
2.84259
2.84535
2.8505
2.8472
2.84977
2.84965
2.85011
2.84084
2.85085
2.85042
2.85127
2.93596
2.93354
2.93907
2.93354
2.94322
2.93675
2.94187
2.94214
2.94208
2.94236
2.9394
2.93227
2.9243
2.92515
2.93358
2.93093
2.93491
2.93052
2.93025
2.85399
2.86005
2.8555
2.85476
2.86093
2.85419
2.85603
2.85054
2.84736
2.86011
2.86133
2.85273
2.85782
2.86116
2.8573
2.85964
2.86032
2.90733
2.91001
2.91555
2.91303
2.8542
2.85487
2.85272
2.85417
2.85644
2.85839
2.86099
2.86179
2.85753
2.84864
2.8604
2.86353
2.8662
2.86508
2.87047
2.86023
2.86191
2.86462
2.86955
2.86582
2.86592
2.86538
2.89984
2.90367
2.89623
2.90023
2.89898
2.90552
2.90167
2.90283
2.90166
2.90456
2.90158
2.90454
2.91338
2.91416
2.91509
2.91865
2.91812
2.91781
2.91741
2.91395
2.91427
2.91555
2.9157
2.91446
2.91642
2.92522
2.92913
2.92564
2.92891
2.92652
2.93759
2.93363
2.92517
2.92961
2.93842
2.93662
2.93681
2.93589
2.9296
2.92836
2.93151
2.93533
2.93184
2.9411
2.93737
2.94454
2.93992
2.94059
2.93594
2.85031
2.84197
2.84968
2.84167
2.84091
2.84207
2.84133
2.8439
2.84512
2.93148
2.9283
2.93093
2.92808
2.92823
2.92541
2.93772
2.93534
2.89665
2.90129
2.84536
2.85026
2.84874
2.85032
2.86029
2.85658
2.85395
2.85445
2.88826
2.88616
2.8926
2.84772
2.84294
2.84795
2.85022
2.85168
2.85405
2.85381
2.85393
2.85449
2.85542
2.85248
2.85594
2.90251
2.90594
2.90096
2.90943
2.90588
2.90228
2.90736
2.90735
2.93097
2.93051
2.85525
2.85954
2.85865
2.86493
2.86581
2.86035
2.86266
2.86409
2.84948
2.85393
2.85125
2.85178
2.85507
2.8926
2.8916
2.89478
2.89827
2.89697
2.89519
2.89642
2.89337
2.89491
2.87753
2.87679
2.87222
2.87739
2.87087
2.8709
2.87337
2.87415
2.84928
2.86017
2.85147
2.85838
2.85577
2.85572
2.85756
2.85595
2.85566
2.85176
2.85753
2.85619
2.85401
2.85382
2.85104
2.85804
2.85653
2.85504
2.85722
2.85806
2.85653
2.85005
2.84877
2.84963
2.86177
2.864
2.86435
2.86754
2.86762
2.86557
2.86651
2.86917
2.86913
2.86981
2.87031
2.86194
2.86374
2.86946
2.86301
2.86778
2.86312
2.86497
2.86438
2.86904
2.86866
2.86279
2.86873
2.86589
2.86631
2.86797
2.86735
2.88489
2.88286
2.88701
2.88285
2.88763
2.88953
2.89228
2.89014
2.88838
2.8936
2.88751
2.89032
2.86333
2.8616
2.85971
2.86086
2.86081
2.86513
2.86354
2.86013
2.87072
2.8699
2.86575
2.86735
2.86822
2.86832
2.86975
2.86667
2.87693
2.87162
2.90244
2.90038
2.91942
2.91964
2.91753
2.92057
2.92668
2.92424
2.92428
2.9197
2.92028
2.91922
2.83542
2.8298
2.8267
2.88552
2.88414
2.88839
2.88881
2.88552
2.88566
2.88618
2.84276
2.84951
2.85267
2.85133
2.84337
2.84893
2.84147
2.84619
2.83888
2.84649
2.92093
2.91509
2.92165
2.92626
2.92499
2.92661
2.92274
2.92127
2.90872
2.90449
2.90462
2.90481
2.94354
2.94025
2.94703
2.94743
2.90476
2.89933
2.90274
2.90498
2.9042
2.89845
2.89984
2.90182
2.90196
2.90097
2.90285
2.90274
2.90532
2.87483
2.87394
2.87803
2.8747
2.87409
2.88099
2.87732
2.87592
2.88074
2.8827
2.88313
2.88201
2.88483
2.88635
2.88203
2.9199
2.92708
2.92722
2.92699
2.92832