/*--------------------------------*- C++ -*----------------------------------*\
| =========                 |                                                 |
| \\      /  F ield         | OpenFOAM: The Open Source CFD Toolbox           |
|  \\    /   O peration     | Version:  v1612+                                |
|   \\  /    A nd           | Web:      www.OpenFOAM.com                      |
|    \\/     M anipulation  |                                                 |
\*---------------------------------------------------------------------------*/
FoamFile
{
    version     2.0;
    format      ascii;
    class       volScalarField;
    location    "100";
    object      p;
}
// * * * * * * * * * * * * * * * * * * * * * * * * * * * * * * * * * * * * * //

dimensions      [0 2 -2 0 0 0 0];

internalField   nonuniform List<scalar> 
18964
(
3.81041
3.74667
3.79435
3.78912
3.78723
3.78685
3.79193
3.78715
3.79221
3.78113
3.78289
3.78394
3.784
3.78531
3.78246
3.78664
3.78786
3.78608
3.7817
3.78615
3.78949
3.79133
3.78606
3.79006
3.77531
3.77068
3.77409
3.77164
3.77361
3.77365
3.76784
3.77054
3.77195
3.7717
3.77179
3.76819
3.76986
3.77248
3.76604
3.76502
3.77436
3.81238
3.81296
3.81627
3.81214
3.82064
3.81646
3.81995
3.81415
3.82119
3.81463
3.81881
3.81888
3.81179
3.8154
3.81506
3.81528
3.81957
3.82071
3.82229
3.81598
3.8156
3.81877
3.7751
3.77062
3.76895
3.77193
3.77028
3.77102
3.77872
3.77007
3.77112
3.77057
3.77215
3.77548
3.77301
3.77659
3.76711
3.76742
3.77076
3.77436
3.77054
3.77093
3.77603
3.77715
3.76956
3.76706
3.76964
3.76659
3.76612
3.76719
3.76726
3.76558
3.76744
3.77184
3.76999
3.76198
3.77294
3.76428
3.77444
3.77424
3.77615
3.77558
3.77634
3.77422
3.77751
3.77542
3.77277
3.77347
3.77707
3.771
3.77211
3.77953
3.77345
3.77136
3.77
3.77056
3.77168
3.77197
3.7676
3.77096
3.77317
3.77117
3.77104
3.77352
3.77066
3.76993
3.77252
3.76937
3.77463
3.77741
3.77067
3.77299
3.77178
3.76991
3.81488
3.81436
3.81288
3.81294
3.81002
3.81069
3.8124
3.80968
3.80894
3.8083
3.80589
3.81309
3.80886
3.80429
3.81154
3.81532
3.81342
3.81468
3.81333
3.81289
3.81257
3.8111
3.75872
3.7497
3.75588
3.75327
3.75444
3.75284
3.75536
3.75642
3.75844
3.7554
3.75393
3.7484
3.7498
3.75817
3.75174
3.75268
3.75179
3.7533
3.75419
3.75534
3.75678
3.75811
3.75416
3.75299
3.75491
3.75453
3.75583
3.75639
3.76138
3.75709
3.75366
3.75656
3.75449
3.75995
3.76067
3.75836
3.75456
3.80999
3.8093
3.81273
3.81518
3.8146
3.81899
3.81501
3.81902
3.81375
3.81568
3.81359
3.76092
3.75533
3.75938
3.75649
3.7592
3.75616
3.75578
3.76071
3.75804
3.75135
3.75631
3.75896
3.76381
3.76265
3.75891
3.75785
3.81058
3.80382
3.80405
3.81211
3.81087
3.81759
3.80876
3.80576
3.80731
3.80581
3.80568
3.8093
3.80727
3.80631
3.80594
3.81047
3.78948
3.78087
3.78833
3.77983
3.77964
3.78114
3.78614
3.78191
3.78748
3.78229
3.78477
3.78431
3.78771
3.78689
3.78442
3.75398
3.75506
3.75524
3.75319
3.75365
3.75305
3.75148
3.75537
3.75459
3.75385
3.75069
3.74969
3.75486
3.75334
3.75629
3.75823
3.75527
3.749
3.75267
3.75782
3.75462
3.75046
3.74902
3.74404
3.75105
3.75262
3.74944
3.74766
3.74778
3.75302
3.74615
3.7477
3.7525
3.74722
3.75199
3.75212
3.77241
3.77415
3.77303
3.77531
3.7753
3.77523
3.77402
3.77501
3.77266
3.77371
3.77777
3.77973
3.77791
3.78089
3.77985
3.78388
3.78685
3.78128
3.78707
3.78375
3.77474
3.7801
3.78342
3.78338
3.79027
3.78799
3.78545
3.78689
3.78545
3.76083
3.76112
3.76592
3.76345
3.75627
3.7608
3.75759
3.76124
3.75235
3.76034
3.75745
3.76313
3.75978
3.75915
3.75819
3.75704
3.75773
3.8098
3.81153
3.80955
3.81113
3.81035
3.81347
3.81256
3.81037
3.8107
3.80383
3.81326
3.81075
3.8104
3.80919
3.81057
3.76566
3.76792
3.7659
3.76998
3.76739
3.76643
3.76672
3.76699
3.76957
3.77227
3.7714
3.75017
3.75303
3.75195
3.74786
3.75141
3.75325
3.75331
3.75104
3.75534
3.75455
3.74714
3.75095
3.75054
3.75187
3.74725
3.76118
3.75933
3.75784
3.75733
3.75593
3.75941
3.75906
3.75842
3.75506
3.75756
3.75883
3.75737
3.75557
3.7548
3.75969
3.76159
3.75467
3.75558
3.75439
3.78207
3.77497
3.77952
3.78784
3.78827
3.78107
3.77904
3.78019
3.78377
3.78407
3.78623
3.78205
3.78221
3.78803
3.78237
3.78696
3.78901
3.78695
3.7846
3.78299
3.77437
3.77522
3.77223
3.774
3.77371
3.77576
3.77872
3.77232
3.77486
3.77595
3.7769
3.77713
3.77562
3.77459
3.77764
3.80131
3.80121
3.80551
3.80228
3.79781
3.80427
3.7963
3.79633
3.79676
3.79653
3.80029
3.79865
3.80153
3.79768
3.79685
3.79537
3.79752
3.80016
3.79469
3.79808
3.76271
3.76626
3.76471
3.75933
3.76311
3.76753
3.76897
3.76451
3.76469
3.76522
3.76389
3.76713
3.7696
3.76237
3.76105
3.76329
3.76551
3.76638
3.76406
3.76758
3.76465
3.7637
3.76651
3.76213
3.76033
3.76047
3.75228
3.75606
3.75485
3.75514
3.75481
3.75189
3.75257
3.74984
3.75558
3.76059
3.76063
3.75865
3.75622
3.76055
3.75259
3.75166
3.7535
3.75631
3.75664
3.79881
3.80058
3.79821
3.79765
3.7945
3.78976
3.79193
3.79339
3.79766
3.79711
3.79013
3.79512
3.78816
3.7934
3.7887
3.79175
3.79182
3.79101
3.79227
3.79502
3.79123
3.80058
3.79645
3.79631
3.79192
3.79146
3.79922
3.79785
3.79559
3.79871
3.7914
3.79474
3.79824
3.80041
3.80026
3.79411
3.79583
3.76263
3.76059
3.76883
3.76282
3.7605
3.76618
3.76344
3.76123
3.76304
3.76189
3.76255
3.80908
3.81584
3.80729
3.80766
3.81231
3.81538
3.80752
3.80781
3.81008
3.81082
3.80907
3.80928
3.80764
3.80531
3.80011
3.80605
3.79893
3.80656
3.76012
3.76017
3.76085
3.75905
3.75834
3.75653
3.76479
3.7577
3.7584
3.75713
3.76092
3.76544
3.76286
3.76504
3.76647
3.75941
3.76278
3.76331
3.76021
3.76682
3.7623
3.76185
3.78295
3.7856
3.78736
3.78082
3.78809
3.79167
3.78279
3.78386
3.78561
3.78503
3.78527
3.78125
3.78148
3.79184
3.78668
3.78675
3.7869
3.78477
3.78391
3.79272
3.78253
3.78669
3.79027
3.784
3.76184
3.7691
3.76656
3.76464
3.77038
3.76362
3.7637
3.77028
3.76391
3.77248
3.76396
3.77013
3.77217
3.76525
3.76924
3.77052
3.76483
3.79548
3.79296
3.79774
3.79346
3.7951
3.78868
3.78942
3.78609
3.78486
3.78904
3.78927
3.79629
3.7877
3.78643
3.79108
3.78909
3.7902
3.79203
3.80375
3.79801
3.803
3.8051
3.79556
3.80249
3.80577
3.8108
3.80654
3.80243
3.80326
3.80842
3.79823
3.80685
3.80846
3.8106
3.80722
3.79505
3.79445
3.79558
3.79895
3.80191
3.80014
3.79699
3.79728
3.79739
3.79566
3.7994
3.79929
3.79985
3.79799
3.7938
3.79443
3.79537
3.79645
3.79881
3.79917
3.79826
3.80204
3.80546
3.80074
3.80407
3.79918
3.80388
3.8029
3.80593
3.80366
3.79999
3.80395
3.80323
3.80322
3.80152
3.80149
3.79889
3.80953
3.80656
3.80102
3.80364
3.80379
3.80528
3.80101
3.79591
3.79681
3.79661
3.79978
3.79625
3.80217
3.80012
3.79889
3.7978
3.79807
3.79771
3.80067
3.80018
3.7994
3.79723
3.79832
3.79681
3.79111
3.78292
3.7795
3.7829
3.78377
3.77961
3.77819
3.78327
3.78539
3.78155
3.77991
3.78292
3.78619
3.77673
3.77279
3.77768
3.77484
3.77472
3.77635
3.77992
3.77512
3.77658
3.77625
3.77837
3.77931
3.76397
3.75897
3.75545
3.75762
3.76744
3.7604
3.76275
3.76428
3.768
3.75924
3.75935
3.76499
3.76514
3.76417
3.76512
3.76399
3.76453
3.76417
3.80537
3.80537
3.80872
3.80854
3.80736
3.8112
3.79961
3.80332
3.8039
3.80825
3.80962
3.80169
3.80439
3.81231
3.81107
3.80448
3.80993
3.74927
3.74436
3.7479
3.75023
3.74457
3.74329
3.75172
3.77163
3.77821
3.7794
3.78388
3.77592
3.77808
3.77614
3.77902
3.77643
3.77292
3.7747
3.77477
3.77386
3.78024
3.77685
3.77756
3.77717
3.78209
3.78197
3.78006
3.78067
3.7803
3.77723
3.78001
3.78532
3.78415
3.78381
3.78175
3.78496
3.78513
3.78223
3.77996
3.78217
3.78613
3.78559
3.7819
3.786
3.80128
3.81017
3.80632
3.80485
3.80506
3.80296
3.80399
3.80817
3.80948
3.80632
3.8046
3.80116
3.80381
3.80135
3.80615
3.80613
3.81069
3.80643
3.8079
3.80685
3.80802
3.80455
3.80543
3.80764
3.80721
3.8055
3.80453
3.80049
3.80276
3.8031
3.80487
3.80212
3.79689
3.79716
3.79386
3.80334
3.79356
3.80047
3.79144
3.79237
3.7877
3.79146
3.79278
3.79472
3.79478
3.79394
3.79133
3.79284
3.79356
3.79724
3.79605
3.80063
3.79634
3.79095
3.78595
3.79454
3.79496
3.78753
3.79084
3.79121
3.79671
3.79748
3.80185
3.79742
3.79709
3.79594
3.79523
3.79848
3.79717
3.79649
3.79725
3.79773
3.79364
3.78785
3.79862
3.797
3.7941
3.77538
3.77722
3.78322
3.78148
3.77876
3.77917
3.78163
3.78465
3.78025
3.78191
3.78214
3.77948
3.7834
3.77929
3.78316
3.78893
3.78748
3.78861
3.78845
3.79396
3.78347
3.79336
3.78499
3.78551
3.78636
3.78505
3.79009
3.78465
3.79101
3.7849
3.78915
3.76575
3.76526
3.76889
3.75847
3.764
3.76238
3.76727
3.76669
3.76821
3.7701
3.76523
3.76783
3.76678
3.77047
3.76429
3.75957
3.76007
3.76149
3.76284
3.7614
3.77057
3.76744
3.81761
3.81339
3.81917
3.81587
3.81752
3.81112
3.81807
3.81666
3.81676
3.80978
3.8082
3.80759
3.81056
3.81249
3.81048
3.78318
3.78414
3.78707
3.78408
3.78289
3.78592
3.78499
3.78801
3.78914
3.78903
3.79066
3.78759
3.7896
3.7869
3.78611
3.78962
3.79025
3.79304
3.79014
3.78648
3.75767
3.76235
3.7614
3.75967
3.75661
3.75972
3.76066
3.75429
3.76122
3.75724
3.75949
3.75697
3.75816
3.76276
3.75947
3.75779
3.75541
3.79441
3.79767
3.79498
3.79647
3.79199
3.79634
3.7963
3.79832
3.79189
3.79495
3.79099
3.78986
3.79893
3.79278
3.79663
3.79378
3.79729
3.7947
3.78956
3.78954
3.79319
3.79321
3.79129
3.79701
3.75205
3.74927
3.7549
3.75323
3.74871
3.74882
3.75252
3.75488
3.75594
3.74958
3.75775
3.75433
3.75786
3.73781
3.74109
3.74506
3.74052
3.74173
3.73838
3.74055
3.73941
3.74073
3.74718
3.74209
3.74374
3.74051
3.74866
3.74346
3.75036
3.74471
3.75001
3.74694
3.7505
3.74721
3.74438
3.74308
3.7489
3.74324
3.74801
3.7434
3.7492
3.74537
3.74753
3.75226
3.74128
3.74867
3.74815
3.75731
3.75156
3.75809
3.75365
3.75202
3.75355
3.74924
3.74668
3.7593
3.75371
3.75724
3.75794
3.75871
3.75267
3.75278
3.75175
3.75242
3.7575
3.75391
3.75209
3.75689
3.75209
3.75214
3.75799
3.75552
3.75638
3.75407
3.7559
3.75807
3.76206
3.76365
3.75873
3.7634
3.75898
3.75779
3.75605
3.76822
3.76388
3.75964
3.76018
3.76584
3.76178
3.76485
3.76342
3.75965
3.76632
3.77172
3.76906
3.77061
3.76586
3.76504
3.76508
3.76555
3.76668
3.76541
3.76172
3.76678
3.76957
3.76474
3.76674
3.77109
3.77047
3.76792
3.7651
3.77651
3.77062
3.76956
3.77613
3.7772
3.77066
3.77012
3.77003
3.772
3.77704
3.7713
3.77807
3.77211
3.77159
3.77475
3.77328
3.77507
3.77478
3.77229
3.77412
3.76993
3.77384
3.77836
3.77609
3.78412
3.77721
3.77984
3.78071
3.77158
3.7815
3.77986
3.77751
3.77811
3.77948
3.77941
3.78492
3.77879
3.77726
3.7827
3.78184
3.78634
3.7839
3.78907
3.78373
3.78598
3.79164
3.79503
3.79003
3.78632
3.78815
3.78455
3.78787
3.78782
3.78681
3.78774
3.78675
3.7863
3.7912
3.79386
3.78354
3.79135
3.7901
3.79572
3.79314
3.79088
3.78894
3.79239
3.79588
3.79965
3.79801
3.80152
3.7976
3.79724
3.79897
3.79292
3.79398
3.79377
3.80057
3.7997
3.80293
3.7965
3.79956
3.80649
3.80221
3.80888
3.80508
3.80344
3.80175
3.80772
3.8022
3.80305
3.79938
3.80084
3.80658
3.80257
3.81081
3.80499
3.80566
3.81077
3.80882
3.8049
3.81029
3.80688
3.80785
3.81164
3.80452
3.80865
3.8102
3.8156
3.80614
3.80559
3.81359
3.81492
3.81929
3.81612
3.8139
3.81576
3.81073
3.81363
3.8199
3.81879
3.82154
3.81404
3.81435
3.81404
3.81267
3.81382
3.81552
3.80916
3.81405
3.81015
3.81832
3.81699
3.81635
3.8198
3.81581
3.81031
3.80775
3.8187
3.81519
3.8146
3.81137
3.80965
3.81185
3.81649
3.81406
3.816
3.81456
3.81029
3.81528
3.81526
3.81943
3.8124
3.81778
3.81514
3.82075
3.81782
3.81464
3.81364
3.81646
3.81913
3.81681
3.8137
3.82114
3.81534
3.81568
3.81606
3.8154
3.82197
3.81648
3.81965
3.80483
3.81014
3.80277
3.80684
3.81107
3.80921
3.81272
3.81151
3.80865
3.8074
3.81357
3.80857
3.816
3.81384
3.8211
3.81634
3.81307
3.81414
3.81903
3.81701
3.81762
3.81784
3.8104
3.81307
3.81393
3.81142
3.81103
3.81765
3.81231
3.81131
3.81129
3.80972
3.81175
3.81369
3.81064
3.81383
3.82292
3.81403
3.81557
3.813
3.82048
3.82088
3.81117
3.81436
3.80803
3.80686
3.81514
3.81215
3.81202
3.81296
3.81528
3.81277
3.8165
3.81168
3.81591
3.81932
3.81414
3.81359
3.81887
3.81555
3.8024
3.80768
3.80208
3.81249
3.80728
3.81295
3.80765
3.81004
3.80657
3.81098
3.80912
3.81192
3.80982
3.81211
3.80888
3.80693
3.8059
3.81136
3.80768
3.80786
3.80648
3.80719
3.80981
3.80409
3.80595
3.80472
3.81212
3.80317
3.81519
3.81247
3.81355
3.8118
3.80979
3.80789
3.80442
3.81463
3.80688
3.81105
3.8126
3.81043
3.81424
3.80907
3.81362
3.808
3.80091
3.80925
3.80913
3.80999
3.8091
3.81053
3.80757
3.81226
3.81153
3.82022
3.81244
3.81064
3.80169
3.80937
3.81239
3.80549
3.80782
3.80901
3.80856
3.80442
3.8057
3.81356
3.81009
3.81248
3.81284
3.81654
3.81121
3.81048
3.80917
3.80867
3.8105
3.80905
3.81087
3.81127
3.81071
3.80661
3.80674
3.81078
3.80407
3.807
3.80236
3.81075
3.80661
3.80668
3.8043
3.80632
3.8034
3.81424
3.81004
3.80688
3.80618
3.8057
3.81206
3.81454
3.80303
3.80843
3.8025
3.80435
3.80345
3.8051
3.8134
3.81354
3.79613
3.80531
3.80475
3.80407
3.80075
3.79317
3.80319
3.79954
3.80089
3.80581
3.80283
3.8017
3.80818
3.80036
3.80471
3.80165
3.80875
3.80186
3.80122
3.80845
3.80307
3.79342
3.79489
3.8021
3.7965
3.79493
3.80368
3.80123
3.79963
3.79703
3.79328
3.79792
3.79818
3.80687
3.80489
3.80458
3.80475
3.79647
3.79836
3.80427
3.8074
3.80315
3.80173
3.7973
3.79058
3.79393
3.80281
3.80282
3.802
3.79907
3.80645
3.80205
3.80773
3.80575
3.80142
3.80195
3.79809
3.80094
3.79284
3.79796
3.79268
3.79623
3.80307
3.79967
3.80342
3.80268
3.81098
3.80458
3.80981
3.80992
3.80709
3.80909
3.80492
3.80488
3.80721
3.80158
3.79893
3.80935
3.80204
3.80232
3.79915
3.80029
3.79755
3.80838
3.79185
3.79252
3.7983
3.78731
3.79638
3.79645
3.8007
3.79474
3.79845
3.791
3.79639
3.79366
3.79095
3.79368
3.79503
3.80075
3.79763
3.79876
3.79487
3.79943
3.8037
3.80169
3.80123
3.79414
3.79274
3.79766
3.79528
3.79886
3.79539
3.79275
3.79569
3.8015
3.80416
3.80184
3.7993
3.7973
3.80298
3.797
3.79849
3.79891
3.80017
3.8002
3.79602
3.78771
3.78744
3.79789
3.79418
3.79779
3.78945
3.79182
3.79897
3.79915
3.79632
3.79631
3.79361
3.79744
3.79769
3.79552
3.7922
3.79716
3.79397
3.79417
3.79725
3.79377
3.79526
3.78771
3.79409
3.79316
3.79395
3.79804
3.79841
3.78889
3.79083
3.79686
3.7963
3.7935
3.79584
3.7993
3.80239
3.80145
3.78834
3.78753
3.79386
3.7962
3.78791
3.78768
3.79297
3.79672
3.79836
3.79441
3.79259
3.79495
3.79408
3.79442
3.79647
3.79098
3.79432
3.79218
3.79154
3.80203
3.80009
3.79856
3.8011
3.80288
3.7996
3.799
3.8039
3.80254
3.7936
3.79611
3.79782
3.79536
3.79131
3.78996
3.78391
3.78469
3.79089
3.79174
3.79272
3.7936
3.79537
3.80454
3.79628
3.79559
3.79687
3.79892
3.7936
3.78877
3.79333
3.79419
3.78736
3.78869
3.78511
3.79231
3.78873
3.78704
3.79077
3.78751
3.78973
3.79002
3.78905
3.79239
3.78975
3.78189
3.78075
3.7816
3.7846
3.79084
3.79114
3.78901
3.78458
3.78754
3.786
3.78731
3.78863
3.78327
3.78395
3.78621
3.79398
3.79998
3.79572
3.79129
3.79259
3.79003
3.79707
3.7999
3.79715
3.79785
3.79638
3.79092
3.79367
3.79456
3.78534
3.79706
3.79042
3.79553
3.79295
3.79402
3.79375
3.77478
3.78545
3.78215
3.78554
3.7886
3.78468
3.78542
3.7839
3.78272
3.78542
3.78599
3.79177
3.78853
3.79065
3.78603
3.79075
3.79402
3.78871
3.7837
3.7853
3.78866
3.78899
3.79415
3.78984
3.78622
3.78673
3.78954
3.79165
3.79216
3.79
3.78894
3.78702
3.78019
3.78961
3.77613
3.78509
3.77922
3.78121
3.78623
3.78871
3.78548
3.78076
3.78216
3.78349
3.78608
3.77731
3.77808
3.77694
3.77789
3.78488
3.78504
3.78854
3.78449
3.7872
3.78693
3.78557
3.78409
3.78808
3.79306
3.78512
3.78718
3.78866
3.79368
3.79537
3.79775
3.79395
3.78803
3.78824
3.77958
3.7855
3.78392
3.78835
3.78754
3.78299
3.79257
3.78915
3.78588
3.79056
3.78921
3.78531
3.78547
3.78999
3.78606
3.78528
3.782
3.78965
3.78878
3.78908
3.78262
3.79109
3.78729
3.79343
3.79248
3.79271
3.77755
3.78374
3.78074
3.77982
3.77574
3.78304
3.77948
3.78031
3.78327
3.78331
3.78058
3.77965
3.78542
3.78412
3.78589
3.78316
3.78192
3.78498
3.78492
3.77842
3.7804
3.78517
3.78214
3.78393
3.78467
3.78095
3.77698
3.78391
3.78741
3.78498
3.78641
3.79362
3.7897
3.79003
3.788
3.79025
3.77916
3.78518
3.78324
3.7872
3.78812
3.77728
3.78568
3.78475
3.78538
3.78549
3.78391
3.77816
3.77966
3.78153
3.7826
3.78178
3.77898
3.78708
3.78165
3.77172
3.78113
3.78186
3.77741
3.78039
3.77876
3.78022
3.77532
3.77879
3.77717
3.78723
3.77959
3.78074
3.77892
3.77726
3.77592
3.77129
3.77292
3.78012
3.77361
3.77656
3.77526
3.78341
3.78406
3.78163
3.77517
3.78103
3.77497
3.78205
3.78166
3.78309
3.78481
3.78459
3.77961
3.77824
3.77969
3.77891
3.78354
3.77583
3.77896
3.78326
3.77394
3.77745
3.77311
3.77927
3.77733
3.77696
3.77829
3.78746
3.78804
3.79055
3.7844
3.7808
3.78035
3.77403
3.77594
3.78576
3.78361
3.78183
3.7898
3.7844
3.78346
3.78115
3.78043
3.77835
3.7829
3.77324
3.78578
3.78906
3.77815
3.77349
3.7744
3.77723
3.77575
3.78366
3.78295
3.77847
3.78041
3.76793
3.7757
3.77681
3.77952
3.77356
3.77382
3.77769
3.77506
3.77408
3.77284
3.77604
3.77987
3.77405
3.77614
3.77366
3.77027
3.78004
3.78053
3.77482
3.77451
3.77687
3.78555
3.78396
3.77765
3.77299
3.77312
3.78318
3.7842
3.77987
3.77551
3.77638
3.77978
3.78076
3.7729
3.77036
3.7779
3.77498
3.77332
3.77283
3.77969
3.77234
3.77503
3.77893
3.77843
3.78107
3.77712
3.77372
3.77309
3.78007
3.77875
3.77998
3.77793
3.76677
3.77475
3.77291
3.77263
3.76638
3.76429
3.77004
3.77553
3.77411
3.77389
3.77553
3.77568
3.76755
3.7702
3.77764
3.7731
3.77641
3.77647
3.77471
3.77871
3.7756
3.77615
3.77888
3.77096
3.77126
3.77743
3.77696
3.77412
3.77619
3.77956
3.77403
3.78063
3.77258
3.77829
3.77862
3.77108
3.77271
3.77107
3.76874
3.77742
3.77522
3.77255
3.77175
3.77435
3.76664
3.76978
3.7697
3.77595
3.77186
3.77372
3.77405
3.77289
3.7682
3.76791
3.7707
3.77135
3.77154
3.76996
3.77301
3.77539
3.77897
3.77277
3.77132
3.77012
3.77174
3.77141
3.77293
3.77847
3.77828
3.7732
3.77667
3.77248
3.77813
3.77494
3.78194
3.77716
3.78014
3.77663
3.77844
3.77728
3.77823
3.77706
3.7811
3.77662
3.77554
3.77489
3.77752
3.77715
3.7769
3.77871
3.77443
3.78756
3.78311
3.78051
3.78173
3.77621
3.77205
3.76751
3.76405
3.77242
3.76958
3.77372
3.76915
3.76907
3.76857
3.78211
3.77556
3.77895
3.77365
3.77305
3.78191
3.77762
3.77024
3.77412
3.77353
3.76699
3.77133
3.76988
3.7714
3.77386
3.76974
3.76747
3.77591
3.77367
3.7752
3.7723
3.77476
3.77333
3.77191
3.7742
3.7733
3.77454
3.7721
3.77857
3.77637
3.77353
3.77994
3.77791
3.76787
3.77347
3.76879
3.76651
3.77172
3.76976
3.76862
3.76392
3.76592
3.76619
3.77124
3.76677
3.76532
3.76565
3.77336
3.77062
3.77096
3.77556
3.77289
3.77314
3.77143
3.77413
3.75621
3.76468
3.75911
3.76221
3.76199
3.76701
3.76256
3.7614
3.76573
3.76228
3.76133
3.76364
3.77251
3.76609
3.77078
3.77427
3.76565
3.76758
3.76689
3.76472
3.76406
3.76929
3.76635
3.76776
3.76311
3.77313
3.77021
3.76785
3.7685
3.76133
3.75718
3.76181
3.76496
3.76427
3.7622
3.76993
3.76877
3.77096
3.77449
3.76477
3.76946
3.76144
3.7642
3.75923
3.7696
3.76538
3.76608
3.76702
3.75793
3.76403
3.76254
3.76212
3.76211
3.7635
3.75897
3.76307
3.7655
3.76494
3.76543
3.76502
3.77122
3.76625
3.75754
3.7663
3.76131
3.77083
3.76482
3.75801
3.75847
3.7668
3.76818
3.76237
3.75463
3.76512
3.76366
3.76715
3.76739
3.76584
3.76552
3.76769
3.76736
3.76704
3.76692
3.76746
3.76409
3.76134
3.76194
3.76299
3.76484
3.76606
3.76327
3.76507
3.76867
3.77282
3.77004
3.7669
3.76332
3.7683
3.76332
3.76646
3.76011
3.76866
3.76445
3.7654
3.76759
3.76019
3.76556
3.76653
3.77119
3.76752
3.76368
3.76668
3.76777
3.7638
3.76056
3.76457
3.76505
3.77272
3.76729
3.76992
3.76707
3.77121
3.77151
3.76411
3.763
3.76411
3.76571
3.77643
3.7492
3.75768
3.75786
3.75801
3.76146
3.75559
3.75796
3.75612
3.75521
3.75924
3.75796
3.76678
3.76371
3.75966
3.76839
3.7649
3.76348
3.75925
3.76118
3.76627
3.76141
3.75965
3.75475
3.76087
3.76532
3.76555
3.7642
3.76553
3.7693
3.76484
3.76901
3.76731
3.75392
3.75587
3.76241
3.75823
3.75854
3.76369
3.75745
3.76269
3.76947
3.76591
3.76448
3.75782
3.75626
3.75193
3.75974
3.75328
3.76427
3.75616
3.75833
3.76241
3.76567
3.76108
3.76275
3.76116
3.75584
3.75686
3.75531
3.7576
3.75866
3.76403
3.76238
3.75556
3.75564
3.76335
3.76529
3.76782
3.76613
3.76061
3.75912
3.75718
3.75556
3.75443
3.75842
3.7541
3.75316
3.76224
3.75927
3.75751
3.76365
3.76201
3.76161
3.76197
3.75878
3.76025
3.76726
3.76422
3.75544
3.76002
3.76269
3.75636
3.75401
3.75664
3.75917
3.76201
3.76138
3.76178
3.76667
3.77039
3.77353
3.76332
3.76432
3.75868
3.76172
3.75803
3.75472
3.75412
3.75713
3.75449
3.7523
3.75367
3.75783
3.75353
3.75236
3.74713
3.75396
3.75402
3.75953
3.75419
3.75571
3.75341
3.7592
3.75598
3.75126
3.75458
3.76346
3.75881
3.75178
3.75059
3.75608
3.75197
3.74956
3.74093
3.74536
3.75126
3.74622
3.75352
3.7478
3.75373
3.74887
3.74705
3.75752
3.75677
3.75303
3.75279
3.74523
3.74626
3.75064
3.75142
3.75721
3.75897
3.75073
3.75179
3.75607
3.75485
3.75582
3.75373
3.75423
3.75077
3.75078
3.74848
3.74462
3.75188
3.75534
3.75979
3.75607
3.7533
3.75276
3.75333
3.75498
3.75913
3.75605
3.76104
3.75584
3.75823
3.75492
3.74533
3.75595
3.75673
3.7533
3.75255
3.75017
3.75922
3.75482
3.75322
3.75525
3.76097
3.75542
3.75326
3.75677
3.74361
3.7511
3.7429
3.74968
3.74783
3.74819
3.75435
3.75142
3.74899
3.74834
3.7557
3.75022
3.74861
3.74903
3.75068
3.75202
3.74698
3.74822
3.75247
3.75057
3.74862
3.7565
3.7526
3.74953
3.74375
3.75225
3.75032
3.76
3.75522
3.74952
3.75262
3.74514
3.7508
3.75526
3.7483
3.75212
3.75016
3.7473
3.75265
3.76018
3.75558
3.752
3.74783
3.7534
3.75379
3.74903
3.75425
3.7491
3.74974
3.74739
3.758
3.75735
3.75705
3.76295
3.7605
3.75731
3.75623
3.75666
3.75217
3.75883
3.76026
3.74648
3.75189
3.74903
3.75083
3.74273
3.74494
3.7529
3.7462
3.75268
3.7473
3.74891
3.75068
3.74279
3.74742
3.74394
3.74434
3.74517
3.74672
3.74387
3.7426
3.74377
3.74825
3.75097
3.74349
3.74189
3.74229
3.7394
3.74376
3.74322
3.74729
3.74306
3.74485
3.74644
3.74214
3.75568
3.74914
3.74964
3.74902
3.75027
3.74826
3.74636
3.746
3.75015
3.74479
3.74443
3.74111
3.74552
3.74658
3.74575
3.74175
3.7477
3.74658
3.74117
3.7425
3.74199
3.74815
3.74387
3.73908
3.742
3.7404
3.73778
3.74915
3.74276
3.75323
3.75328
3.75048
3.74714
3.74526
3.74162
3.74095
3.73858
3.74345
3.74419
3.74589
3.73974
3.74282
3.74266
3.74161
3.74252
3.7423
3.74083
3.74707
3.74967
3.74283
3.74636
3.74548
3.75074
3.74818
3.74657
3.74364
3.75157
3.75019
3.75248
3.75148
3.75379
3.75078
3.7483
3.74885
3.73896
3.73991
3.74116
3.73843
3.74258
3.74297
3.73678
3.74724
3.74941
3.74562
3.74463
3.74594
3.74396
3.74508
3.74473
3.74964
3.75387
3.74431
3.74669
3.74279
3.74187
3.74679
3.74742
3.74363
3.74703
3.74115
3.74528
3.74619
3.74773
3.74961
3.74595
3.74169
3.74774
3.75285
3.75023
3.74974
3.75327
3.75043
3.75451
3.75391
3.75227
3.75418
3.74852
3.75431
3.74805
3.74839
3.75182
3.75748
3.7584
3.74279
3.74425
3.74717
3.74569
3.74586
3.74636
3.74432
3.74598
3.75115
3.75128
3.7547
3.75176
3.7541
3.74951
3.75758
3.7557
3.75279
3.75525
3.75218
3.75588
3.7549
3.75884
3.75384
3.7599
3.76251
3.75975
3.76333
3.76229
3.75667
3.75788
3.76226
3.75231
3.75518
3.75127
3.75141
3.75253
3.75239
3.74566
3.74371
3.7503
3.75088
3.75244
3.74717
3.7495
3.7505
3.75176
3.74923
3.74303
3.75261
3.75324
3.75469
3.74494
3.74291
3.74345
3.73846
3.75123
3.75262
3.75139
3.74709
3.7496
3.75132
3.75381
3.76175
3.75643
3.76162
3.75669
3.75542
3.75656
3.7543
3.75889
3.76001
3.75573
3.75419
3.753
3.75379
3.74705
3.74722
3.74631
3.75079
3.74982
3.74985
3.75273
3.74325
3.74409
3.75054
3.7505
3.75557
3.75083
3.75872
3.75554
3.74955
3.75891
3.75151
3.75482
3.75617
3.75495
3.75345
3.76415
3.75561
3.75764
3.75057
3.75394
3.75643
3.76231
3.76105
3.76182
3.76029
3.75738
3.76408
3.75503
3.75851
3.75611
3.7558
3.75
3.75259
3.76047
3.75661
3.75683
3.75741
3.76167
3.75702
3.75903
3.75467
3.75016
3.74318
3.74456
3.74426
3.74603
3.75508
3.75507
3.74753
3.75672
3.75595
3.76007
3.76128
3.76144
3.76155
3.76089
3.76037
3.75431
3.75145
3.75252
3.75331
3.76083
3.76309
3.76236
3.75717
3.7494
3.75341
3.75047
3.75308
3.7479
3.74693
3.75391
3.7506
3.75504
3.75352
3.76385
3.76303
3.76379
3.76698
3.76165
3.76403
3.76634
3.76539
3.76128
3.76039
3.76073
3.75805
3.76087
3.7635
3.76055
3.76236
3.76316
3.76046
3.77068
3.76525
3.76682
3.76072
3.76145
3.76629
3.76367
3.75766
3.76314
3.77744
3.77836
3.77703
3.77555
3.77214
3.76496
3.76717
3.76572
3.76369
3.75239
3.75883
3.7572
3.76173
3.75801
3.76028
3.75751
3.75335
3.7602
3.75553
3.75614
3.75559
3.75915
3.76538
3.76392
3.76537
3.76787
3.76328
3.76273
3.76519
3.76592
3.76514
3.7646
3.76893
3.76722
3.76715
3.7547
3.75667
3.75673
3.76285
3.7569
3.75689
3.75665
3.77655
3.76707
3.76854
3.7714
3.76904
3.76853
3.76904
3.77222
3.77138
3.77496
3.76901
3.76952
3.77094
3.77038
3.76955
3.76901
3.77406
3.77182
3.7695
3.77326
3.76541
3.76866
3.76919
3.77276
3.77139
3.77785
3.77656
3.77451
3.7806
3.77321
3.77453
3.77185
3.77638
3.76882
3.77878
3.77806
3.77041
3.7721
3.77165
3.77354
3.77154
3.76885
3.77491
3.77258
3.77016
3.77048
3.7748
3.77104
3.76696
3.7729
3.77049
3.76508
3.76869
3.77556
3.77131
3.76579
3.77076
3.76215
3.76072
3.76069
3.76543
3.76542
3.76381
3.7671
3.76867
3.776
3.77573
3.77102
3.7718
3.77677
3.77574
3.77093
3.7735
3.77705
3.77497
3.77507
3.77179
3.77141
3.7774
3.76835
3.77088
3.7708
3.76755
3.77845
3.77654
3.77563
3.77364
3.77856
3.79851
3.80034
3.79361
3.79111
3.80177
3.79804
3.79173
3.79413
3.79079
3.78951
3.79937
3.79449
3.78213
3.78134
3.77835
3.78692
3.77521
3.77969
3.78089
3.78813
3.78436
3.78172
3.78386
3.78376
3.78335
3.78275
3.78035
3.78347
3.79277
3.78891
3.78542
3.78545
3.7877
3.78452
3.78257
3.79421
3.79033
3.79107
3.78882
3.79104
3.79106
3.79084
3.7743
3.78077
3.7773
3.77686
3.77837
3.78077
3.77415
3.77579
3.77462
3.77904
3.78594
3.78593
3.7943
3.78912
3.78442
3.78206
3.78551
3.78333
3.78558
3.79489
3.79315
3.79789
3.79792
3.79628
3.79508
3.79444
3.79151
3.79063
3.79151
3.78759
3.79453
3.79257
3.79864
3.79712
3.78773
3.79201
3.7928
3.8006
3.79134
3.79313
3.79403
3.79511
3.79431
3.78776
3.78561
3.78533
3.78618
3.7866
3.79132
3.78862
3.78865
3.79095
3.79171
3.78931
3.78429
3.79017
3.78651
3.78559
3.78584
3.7818
3.7814
3.78378
3.78798
3.78946
3.78823
3.78594
3.78135
3.7997
3.79568
3.79161
3.79987
3.80011
3.79631
3.79705
3.78394
3.78717
3.79067
3.78531
3.791
3.78905
3.78858
3.78425
3.79509
3.79126
3.79202
3.79275
3.79252
3.79017
3.79052
3.78784
3.78314
3.79098
3.7919
3.79022
3.78842
3.78786
3.7998
3.80107
3.78809
3.78915
3.79639
3.79473
3.79484
3.7851
3.79492
3.79304
3.80425
3.80199
3.80842
3.80402
3.79924
3.80093
3.80365
3.80505
3.78969
3.78528
3.7878
3.79204
3.79095
3.7907
3.79876
3.8011
3.80162
3.79782
3.80539
3.80094
3.79862
3.79881
3.7983
3.80156
3.80282
3.80163
3.79927
3.79968
3.80489
3.79772
3.79725
3.80029
3.79931
3.80777
3.80013
3.79978
3.80413
3.80419
3.7968
3.7949
3.80069
3.80349
3.79923
3.79876
3.80361
3.79891
3.79903
3.80429
3.80257
3.80268
3.7974
3.80076
3.79612
3.79323
3.79598
3.79798
3.80024
3.80396
3.8026
3.79795
3.80172
3.79552
3.79489
3.79477
3.79763
3.79824
3.7915
3.79504
3.79511
3.79011
3.7958
3.79643
3.79963
3.80082
3.79688
3.79582
3.79344
3.80149
3.79569
3.79999
3.80125
3.80198
3.80103
3.79992
3.79984
3.80145
3.80002
3.80194
3.80132
3.80798
3.80823
3.80815
3.80788
3.81301
3.80274
3.81065
3.79772
3.80048
3.79903
3.79958
3.80507
3.80048
3.80332
3.80701
3.80923
3.80615
3.80538
3.80635
3.80309
3.80272
3.80123
3.80069
3.80043
3.80065
3.81115
3.81039
3.80338
3.81414
3.80895
3.8059
3.80666
3.80565
3.81662
3.81178
3.80788
3.81227
3.80463
3.81667
3.81503
3.81346
3.80699
3.8093
3.81189
3.81351
3.81816
3.81435
3.8113
3.80901
3.81154
3.81021
3.81315
3.81117
3.81519
3.81541
3.8136
3.81108
3.8161
3.81228
3.81655
3.81634
3.80664
3.80981
3.80747
3.80246
3.80355
3.80652
3.80599
3.80892
3.81023
3.81911
3.80979
3.80864
3.80022
3.80165
3.80389
3.80424
3.80522
3.80393
3.80378
3.80339
3.8037
3.79835
3.79417
3.80562
3.80734
3.80563
3.80024
3.79933
3.81375
3.81322
3.80605
3.81221
3.81658
3.81518
3.81306
3.8096
3.81106
3.81007
3.81346
3.81015
3.81352
3.81027
3.80875
3.80824
3.80755
3.80658
3.81116
3.80512
3.80494
3.8051
3.80576
3.81228
3.80668
3.80251
3.80906
3.81247
3.80617
3.80873
3.80549
3.80749
3.81036
3.81041
3.81127
3.81465
3.81338
3.81372
3.81211
3.81639
3.81335
3.81495
3.81535
3.81383
3.82026
3.82295
3.82012
3.81788
3.82374
3.82327
3.81876
3.82293
3.8204
3.81787
3.81585
3.81025
3.81581
3.81548
3.81441
3.81429
3.8106
3.82211
3.81838
3.82136
3.81622
3.81369
3.81781
3.80918
3.81965
3.8151
3.8143
3.81348
3.81278
3.8201
3.81847
3.81088
3.81778
3.81699
3.82043
3.81579
3.80848
3.76769
3.76777
3.76706
3.76619
3.7642
3.77289
3.76987
3.77295
3.7651
3.76727
3.76599
3.77201
3.77167
3.74613
3.74964
3.75155
3.75461
3.75679
3.74001
3.74102
3.74043
3.73934
3.73669
3.74398
3.73919
3.7416
3.80894
3.81521
3.81262
3.81392
3.81079
3.81055
3.80956
3.80633
3.80754
3.80743
3.80989
3.81489
3.81313
3.81431
3.81766
3.81335
3.81626
3.81764
3.81203
3.8139
3.81218
3.81947
3.82069
3.81435
3.81645
3.81394
3.81171
3.81799
3.81911
3.81265
3.81736
3.81208
3.80777
3.81411
3.81507
3.8185
3.81431
3.81603
3.81606
3.81538
3.81402
3.8062
3.80749
3.8098
3.81029
3.81265
3.81595
3.81142
3.81216
3.80905
3.81341
3.81203
3.82269
3.82026
3.81211
3.81654
3.82011
3.82045
3.81355
3.81451
3.81416
3.81387
3.8134
3.81017
3.81565
3.81644
3.80837
3.81289
3.80596
3.81351
3.81204
3.81017
3.8104
3.80467
3.80582
3.81193
3.80984
3.80611
3.8141
3.81242
3.81784
3.8129
3.81714
3.81975
3.81183
3.8162
3.81356
3.81542
3.81763
3.81
3.81394
3.81608
3.81221
3.81366
3.81287
3.81681
3.815
3.80979
3.80669
3.81537
3.81
3.8154
3.81604
3.81294
3.81643
3.8119
3.81426
3.8131
3.80714
3.80921
3.80921
3.80491
3.7998
3.80834
3.8103
3.81301
3.82141
3.81716
3.82025
3.81477
3.79934
3.80279
3.80126
3.79919
3.80671
3.8052
3.80698
3.80376
3.80277
3.80741
3.80179
3.80437
3.80501
3.80759
3.8038
3.80895
3.81059
3.81041
3.80726
3.80571
3.81221
3.80898
3.81303
3.81081
3.81233
3.80887
3.81123
3.80994
3.8051
3.80865
3.79888
3.79493
3.80895
3.80612
3.80408
3.80719
3.80577
3.80595
3.80493
3.80393
3.81011
3.80579
3.80168
3.80062
3.80854
3.80663
3.79805
3.79446
3.7913
3.80137
3.79869
3.79751
3.79453
3.79545
3.80252
3.79777
3.79961
3.79829
3.80372
3.8026
3.80693
3.80243
3.80295
3.79925
3.79824
3.80444
3.80082
3.79989
3.80159
3.8043
3.81028
3.81227
3.80836
3.80596
3.80383
3.80609
3.80765
3.80981
3.80669
3.80499
3.8061
3.8113
3.80854
3.79748
3.7976
3.80082
3.79793
3.79577
3.79711
3.80153
3.80271
3.80384
3.80578
3.80311
3.80348
3.80014
3.80058
3.8046
3.81008
3.80784
3.80045
3.80257
3.80524
3.80639
3.79221
3.79665
3.79677
3.79394
3.79956
3.80442
3.79522
3.79562
3.797
3.79557
3.7991
3.79956
3.80596
3.80353
3.80012
3.8069
3.80847
3.79614