/*--------------------------------*- C++ -*----------------------------------*\
| =========                 |                                                 |
| \\      /  F ield         | OpenFOAM: The Open Source CFD Toolbox           |
|  \\    /   O peration     | Version:  v1612+                                |
|   \\  /    A nd           | Web:      www.OpenFOAM.com                      |
|    \\/     M anipulation  |                                                 |
\*---------------------------------------------------------------------------*/
FoamFile
{
    version     2.0;
    format      ascii;
    class       volVectorField;
    location    "150";
    object      U;
}
// * * * * * * * * * * * * * * * * * * * * * * * * * * * * * * * * * * * * * //

dimensions      [0 1 -1 0 0 0 0];

internalField   nonuniform List<vector> 
18899
(
(0.159494 0.67057 0.379363)
(0.0571055 0.695331 0.421013)
(-0.173124 0.75089 0.478797)
(-0.175603 0.761831 0.474767)
(-0.14201 0.797917 0.461232)
(-0.155123 0.791087 0.469347)
(-0.133255 0.784516 0.46699)
(-0.194126 0.760918 0.47825)
(-0.177433 0.755419 0.480961)
(-0.163661 0.771167 0.468842)
(-0.174963 0.784235 0.481534)
(-0.177157 0.769328 0.475561)
(-0.157646 0.778304 0.465167)
(-0.175764 0.79483 0.484532)
(-0.14313 0.777223 0.46076)
(-0.19021 0.791127 0.483481)
(-0.19558 0.787408 0.481155)
(0.0258371 0.635712 0.481603)
(0.03145 0.61509 0.473838)
(0.0207039 0.64849 0.497358)
(0.0161846 0.623622 0.494537)
(0.0241601 0.602365 0.472851)
(0.024661 0.673668 0.494991)
(0.0414644 0.632724 0.47244)
(0.0465062 0.602684 0.457904)
(-0.0149757 0.713342 0.509367)
(0.00254743 0.652451 0.523824)
(0.0115992 0.708959 0.501597)
(0.0237018 0.679338 0.500033)
(0.0326879 0.630052 0.488701)
(-0.00871752 0.699087 0.53068)
(0.00839649 0.709713 0.523108)
(0.00551223 0.670499 0.523813)
(0.0100314 0.633443 0.498221)
(-0.0125763 0.713849 0.520682)
(-0.0575033 0.758189 0.466143)
(-0.0501985 0.752728 0.472653)
(-0.0498583 0.763137 0.466136)
(-0.0263508 0.794278 0.427342)
(-0.065911 0.74864 0.491918)
(-0.05881 0.762649 0.459585)
(-0.042559 0.749084 0.490028)
(-0.0298549 0.773882 0.457535)
(-0.0474436 0.743525 0.498895)
(-0.0339703 0.77905 0.457662)
(-0.0394185 0.757021 0.477232)
(-0.0231705 0.766862 0.492958)
(-0.0234031 0.797644 0.426497)
(-0.0260001 0.77552 0.482772)
(-0.0263736 0.750485 0.495051)
(-0.0274143 0.753471 0.512087)
(-0.0143408 0.811222 0.418355)
(-0.0168963 0.791958 0.463058)
(0.176361 0.733638 0.510191)
(0.181354 0.715396 0.483377)
(0.206785 0.645865 0.436386)
(0.17604 0.715265 0.486263)
(0.179711 0.719308 0.490487)
(0.210569 0.61491 0.410285)
(0.207884 0.655735 0.440579)
(0.210826 0.619316 0.407335)
(0.216259 0.562899 0.375491)
(0.217102 0.636967 0.444891)
(0.217065 0.592461 0.410791)
(0.210024 0.665517 0.467078)
(0.184737 0.715097 0.498875)
(0.215155 0.590209 0.400103)
(0.0570968 0.335362 0.296341)
(0.0576551 0.297057 0.269209)
(0.0532162 0.311314 0.275514)
(0.0470135 0.267404 0.240555)
(0.0389659 0.387733 0.30287)
(0.0492672 0.339921 0.27704)
(0.0481933 0.401373 0.32621)
(0.0431183 0.263114 0.229078)
(0.0448592 0.41204 0.322936)
(0.0376379 0.409392 0.303208)
(0.0464911 0.297341 0.247738)
(0.0498932 0.327549 0.278648)
(0.0398045 0.320799 0.243346)
(0.0382649 0.418459 0.314946)
(0.0396763 0.416867 0.321055)
(0.0375338 0.338445 0.259445)
(0.0389558 0.257644 0.221301)
(0.0370008 0.358676 0.267508)
(0.0382954 0.303479 0.239416)
(-0.0920787 0.686638 0.385767)
(-0.070482 0.659073 0.373331)
(-0.174953 0.747603 0.485855)
(-0.183831 0.729399 0.504337)
(-0.16186 0.715028 0.479243)
(-0.160525 0.730954 0.48817)
(-0.108068 0.676152 0.411652)
(-0.124965 0.68948 0.437068)
(-0.200365 0.73236 0.505804)
(-0.180453 0.717574 0.496095)
(-0.172963 0.748794 0.476818)
(-0.18259 0.755627 0.473296)
(-0.126283 0.737966 0.439369)
(-0.115751 0.694133 0.418066)
(-0.121036 0.671334 0.421272)
(-0.0962992 0.656821 0.378635)
(-0.141478 0.68839 0.421834)
(-0.134429 0.683627 0.431479)
(-0.0847362 0.682799 0.386164)
(-0.0589433 0.647764 0.354936)
(-0.136331 0.688367 0.411084)
(-0.103171 0.675671 0.396463)
(-0.0922324 0.71149 0.508119)
(-0.103444 0.715743 0.51528)
(-0.106732 0.730853 0.536737)
(-0.082759 0.66079 0.446164)
(-0.0935855 0.667936 0.450321)
(-0.0860772 0.630537 0.410055)
(-0.0612858 0.61895 0.393638)
(-0.066336 0.583498 0.370532)
(-0.0541937 0.54408 0.339116)
(-0.0504046 0.521334 0.304375)
(-0.0890396 0.626618 0.39928)
(-0.0747294 0.599078 0.378435)
(-0.04737 0.549426 0.323161)
(-0.0763547 0.619853 0.391777)
(-0.0703656 0.810306 0.564768)
(-0.0758706 0.805491 0.562093)
(-0.0235852 0.806566 0.507896)
(-0.0265798 0.808405 0.504558)
(-0.02696 0.80528 0.513059)
(-0.0379622 0.813944 0.508899)
(-0.0481286 0.760473 0.49276)
(-0.0567419 0.75532 0.501518)
(-0.073049 0.789567 0.54478)
(-0.076357 0.796776 0.546764)
(-0.0701514 0.794192 0.565138)
(-0.0447687 0.803565 0.553397)
(-0.0663604 0.810028 0.535159)
(-0.0366964 0.801026 0.520719)
(-0.0347616 0.801496 0.504657)
(-0.0701401 0.819535 0.517046)
(-0.0460553 0.781954 0.524502)
(-0.0551626 0.77356 0.492099)
(-0.0636022 0.760153 0.510036)
(-0.0590276 0.799003 0.557768)
(-0.0362635 0.804333 0.567321)
(0.0168067 0.6971 0.382068)
(0.0594027 0.629607 0.337504)
(0.0257099 0.705791 0.385505)
(0.0404153 0.691149 0.37592)
(-0.0486508 0.767861 0.439358)
(-0.0483657 0.770825 0.436404)
(-0.0209164 0.749734 0.427613)
(0.0130827 0.687773 0.377662)
(-0.0512031 0.759727 0.442556)
(-0.0453946 0.75866 0.45277)
(0.000716907 0.752212 0.410344)
(-0.0154286 0.752294 0.426581)
(-0.0444866 0.77182 0.425099)
(-0.0112425 0.757932 0.413699)
(-0.0461446 0.771088 0.445706)
(-0.010713 0.711445 0.403031)
(0.0400344 0.671856 0.361831)
(0.0430391 0.689022 0.371662)
(0.0480996 0.672128 0.368886)
(0.0627934 0.640495 0.343298)
(-0.0192935 0.771616 0.418821)
(-0.0817891 0.675235 0.551358)
(-0.0745588 0.706611 0.533688)
(-0.0823959 0.732142 0.483001)
(-0.0994035 0.679946 0.54307)
(-0.0810626 0.718785 0.496194)
(-0.0799473 0.744102 0.464324)
(-0.0796795 0.724826 0.501579)
(-0.0828649 0.701889 0.525665)
(-0.0855897 0.691878 0.551684)
(-0.139863 0.695766 0.388037)
(-0.142684 0.668917 0.410132)
(-0.101203 0.70179 0.495607)
(-0.105506 0.68474 0.533709)
(-0.155528 0.669998 0.499438)
(-0.142465 0.679182 0.45824)
(-0.115046 0.675034 0.545607)
(-0.111225 0.712922 0.383461)
(-0.0980722 0.7175 0.395905)
(-0.134079 0.678835 0.523662)
(0.157226 0.688067 0.523548)
(0.157869 0.650008 0.504726)
(0.144105 0.700055 0.529115)
(0.142486 0.68069 0.518658)
(0.160089 0.679198 0.512994)
(0.159913 0.724276 0.540228)
(0.14778 0.718396 0.538849)
(0.142663 0.702059 0.528038)
(0.138676 0.707131 0.531988)
(0.145271 0.732148 0.547058)
(0.152661 0.717282 0.534171)
(0.150248 0.753278 0.547522)
(0.133952 0.771647 0.556609)
(0.133931 0.779409 0.55252)
(0.130732 0.768707 0.553551)
(0.140467 0.761987 0.545768)
(-0.118828 0.82836 0.493505)
(-0.116943 0.818068 0.488612)
(-0.103127 0.807519 0.494304)
(-0.119968 0.776728 0.499101)
(-0.100305 0.775683 0.513066)
(-0.0892831 0.817373 0.507384)
(-0.0732331 0.788288 0.50857)
(-0.109517 0.837207 0.514217)
(-0.0769615 0.764697 0.488867)
(-0.118511 0.81427 0.523216)
(-0.120942 0.773498 0.445869)
(-0.130756 0.789328 0.458133)
(-0.0574608 0.779785 0.451227)
(-0.139135 0.806288 0.493904)
(-0.118452 0.799005 0.491991)
(-0.0899163 0.764202 0.414157)
(-0.113091 0.758545 0.424047)
(-0.0864767 0.752876 0.428091)
(-0.1125 0.784004 0.456356)
(0.146116 0.864265 0.532167)
(0.155005 0.838829 0.540504)
(0.148294 0.878363 0.54276)
(0.151722 0.860101 0.54764)
(0.147972 0.874964 0.550222)
(0.148099 0.875647 0.554744)
(0.170337 0.849161 0.542905)
(0.121616 0.82741 0.54612)
(0.141023 0.784135 0.544905)
(0.11392 0.840954 0.533792)
(0.12685 0.847821 0.545447)
(0.121468 0.83829 0.551043)
(0.129409 0.842238 0.557662)
(0.152603 0.799451 0.54377)
(0.155304 0.865418 0.561531)
(0.133594 0.816442 0.557992)
(0.168252 0.808929 0.545249)
(0.152568 0.839694 0.555148)
(-0.00368023 0.791149 0.412786)
(0.00158348 0.786756 0.419569)
(-0.0221207 0.806262 0.427059)
(-0.0221649 0.805539 0.412709)
(-0.018522 0.799587 0.423859)
(-0.001661 0.766042 0.413317)
(0.000270007 0.773776 0.423366)
(0.0109305 0.758777 0.415113)
(-0.0243783 0.793192 0.422124)
(-0.0273327 0.80312 0.42086)
(-0.0207936 0.767394 0.431345)
(-0.0140432 0.772249 0.41632)
(-0.0352957 0.790602 0.424452)
(-0.0394334 0.778709 0.433019)
(-0.0283937 0.788114 0.43497)
(-0.0892367 0.739992 0.415269)
(-0.0883263 0.727024 0.459043)
(-0.119495 0.723826 0.416714)
(-0.0992812 0.762082 0.376152)
(-0.093027 0.74144 0.399942)
(-0.0938406 0.726823 0.434265)
(-0.142804 0.710421 0.487424)
(-0.155447 0.707512 0.502376)
(-0.113874 0.695964 0.473514)
(-0.0999096 0.695649 0.486698)
(-0.118367 0.73425 0.415172)
(-0.118491 0.711971 0.461257)
(-0.118994 0.70996 0.41313)
(-0.115271 0.739495 0.372167)
(-0.131555 0.703792 0.48305)
(-0.180009 0.70563 0.492999)
(-0.151384 0.71828 0.486004)
(-0.134154 0.691713 0.460377)
(-0.0562328 0.785256 0.549402)
(-0.0564492 0.800119 0.554822)
(-0.0507854 0.744924 0.514143)
(-0.0678394 0.731874 0.515277)
(-0.0642043 0.79429 0.576522)
(-0.0745434 0.733471 0.519631)
(-0.0869898 0.755271 0.552134)
(-0.0957123 0.741467 0.54259)
(-0.0945546 0.794311 0.582002)
(-0.0801021 0.793926 0.585184)
(-0.0977991 0.800375 0.58693)
(-0.0861495 0.777239 0.568925)
(-0.115726 0.721401 0.507024)
(-0.0991988 0.708603 0.51231)
(-0.0961143 0.706193 0.508376)
(-0.0785421 0.641587 0.430438)
(-0.0895248 0.704706 0.501476)
(-0.0733021 0.675311 0.472803)
(-0.074704 0.65505 0.448622)
(-0.0640991 0.633344 0.424468)
(-0.0706731 0.67644 0.438955)
(-0.0680447 0.635566 0.398372)
(-0.0545836 0.647226 0.423866)
(-0.105861 0.706297 0.501668)
(-0.0901893 0.706168 0.498096)
(-0.0652522 0.669315 0.446362)
(-0.0588166 0.651684 0.413216)
(-0.0500464 0.617884 0.382884)
(-0.0486148 0.617484 0.38977)
(0.0684494 0.832531 0.457779)
(0.0654389 0.82855 0.46745)
(0.0674668 0.816007 0.454168)
(0.0614819 0.806775 0.440322)
(0.0687141 0.846414 0.428085)
(0.0669069 0.842365 0.425092)
(0.0576845 0.786471 0.463156)
(0.0646321 0.779827 0.463706)
(0.0608335 0.810426 0.469057)
(0.059575 0.803264 0.470004)
(0.0687011 0.743357 0.441271)
(0.0620148 0.772939 0.470727)
(-0.175118 0.749811 0.483609)
(-0.182887 0.749629 0.48612)
(-0.140051 0.744499 0.431274)
(-0.153127 0.744113 0.461112)
(-0.199386 0.746907 0.484391)
(-0.158995 0.773953 0.465465)
(-0.158084 0.783013 0.461037)
(-0.1768 0.806638 0.480897)
(-0.214299 0.791747 0.48516)
(-0.148064 0.771435 0.449949)
(-0.159185 0.784856 0.482188)
(-0.167664 0.75133 0.458591)
(-0.151113 0.752138 0.428452)
(-0.208894 0.777268 0.481967)
(0.120955 0.50065 0.444829)
(0.137606 0.506061 0.449477)
(0.107593 0.58247 0.475333)
(0.0934977 0.562187 0.462676)
(0.11148 0.603208 0.485559)
(0.0897785 0.592032 0.469418)
(0.0953328 0.586069 0.464328)
(0.12344 0.610888 0.488902)
(0.102071 0.474496 0.413447)
(0.0941981 0.427918 0.390221)
(0.0879398 0.477071 0.41226)
(0.0810603 0.474112 0.404964)
(0.0788127 0.52656 0.430086)
(0.123714 0.519324 0.444322)
(0.11468 0.456127 0.412485)
(-0.0598732 0.761273 0.449477)
(-0.0565113 0.780373 0.421887)
(-0.0610748 0.750061 0.475421)
(-0.0364619 0.744695 0.494923)
(-0.0710179 0.755358 0.46627)
(-0.069265 0.770696 0.421362)
(-0.0383728 0.812717 0.393978)
(-0.0523579 0.797581 0.41248)
(-0.0448039 0.798824 0.43415)
(-0.0525453 0.738405 0.490844)
(-0.0566566 0.797137 0.391598)
(-0.037409 0.778442 0.471457)
(0.0501189 0.670973 0.509436)
(0.0550824 0.663477 0.498879)
(0.0520481 0.64415 0.482198)
(0.05827 0.631552 0.468067)
(0.0650482 0.683167 0.49837)
(0.0426207 0.751334 0.533482)
(0.0354446 0.74267 0.533104)
(0.0767792 0.660753 0.474238)
(0.0756042 0.625731 0.461239)
(0.0770244 0.696704 0.496425)
(0.0763054 0.660724 0.476838)
(0.0769677 0.651546 0.470807)
(0.0492743 0.692482 0.508549)
(0.0556796 0.743244 0.511609)
(0.061733 0.673934 0.484206)
(0.0608741 0.662514 0.486458)
(0.0369518 0.74175 0.511757)
(0.0141939 0.798364 0.43102)
(-0.011463 0.756711 0.441065)
(0.00047802 0.741946 0.439659)
(-0.0213313 0.76398 0.457676)
(-0.00140042 0.738169 0.470801)
(-0.00489917 0.770471 0.483198)
(0.00334098 0.769216 0.448208)
(0.00377613 0.765909 0.452614)
(-0.0121958 0.747958 0.470964)
(0.00482579 0.726989 0.448667)
(0.00628834 0.748921 0.444172)
(0.0108898 0.72319 0.428333)
(0.111535 0.80873 0.548892)
(0.112077 0.784593 0.548577)
(0.101793 0.828775 0.535896)
(0.0971744 0.805741 0.539853)
(0.0908785 0.866869 0.502821)
(0.0987002 0.866244 0.503154)
(0.11661 0.831513 0.544988)
(0.0901281 0.862777 0.498082)
(0.0960399 0.859155 0.506196)
(0.124268 0.815115 0.560301)
(0.113811 0.793629 0.551569)
(0.101028 0.820407 0.533835)
(0.115542 0.823966 0.556999)
(0.114725 0.831538 0.547038)
(0.108171 0.805357 0.551186)
(0.10595 0.470736 0.342464)
(0.0892493 0.521381 0.376364)
(0.111564 0.434414 0.33219)
(0.092823 0.499723 0.368429)
(0.101953 0.495682 0.368091)
(0.109629 0.436647 0.334419)
(0.102809 0.525426 0.384283)
(0.119502 0.485302 0.363523)
(0.137405 0.445167 0.336403)
(0.0689698 0.718022 0.430038)
(0.0892426 0.697314 0.415671)
(0.0699993 0.635638 0.428279)
(0.12989 0.546673 0.386768)
(0.125387 0.56635 0.380373)
(0.120744 0.587504 0.377695)
(0.0549247 0.655984 0.431448)
(0.0719911 0.72311 0.436658)
(0.0657772 0.721535 0.440964)
(0.0825537 0.67288 0.425877)
(0.11936 0.507954 0.358077)
(-0.0582935 0.755779 0.503931)
(-0.0573177 0.769671 0.499614)
(0.0070831 0.69148 0.414088)
(0.0279174 0.678113 0.384653)
(-0.0665964 0.781405 0.501587)
(0.0198518 0.716414 0.425322)
(0.032423 0.682256 0.383806)
(-0.0234759 0.751078 0.477597)
(-0.0211842 0.726159 0.458713)
(-0.0162799 0.697116 0.425647)
(-0.00562395 0.73834 0.447302)
(-0.06644 0.752307 0.498636)
(-0.0314577 0.725514 0.468556)
(-0.0294692 0.707705 0.444509)
(0.0156221 0.655929 0.357928)
(0.0214555 0.653369 0.364447)
(-0.0011284 0.701819 0.387424)
(-0.0098434 0.713728 0.394138)
(0.0427926 0.642461 0.36184)
(0.0651232 0.608479 0.3445)
(-0.0348609 0.730197 0.402828)
(-0.053958 0.765721 0.421716)
(-0.0361717 0.74493 0.414173)
(-0.0399287 0.743821 0.41557)
(0.020272 0.671801 0.367938)
(0.0550401 0.622605 0.330184)
(0.0220043 0.693755 0.373108)
(0.0368174 0.663889 0.362825)
(-0.0350546 0.746678 0.417777)
(0.00828409 0.70916 0.396717)
(0.0378995 0.665794 0.359438)
(-0.0441381 0.796476 0.431993)
(-0.0417014 0.79651 0.413303)
(-0.0480728 0.787502 0.426313)
(-0.0600282 0.794195 0.43013)
(-0.0703018 0.771509 0.433679)
(-0.0867937 0.769554 0.444793)
(-0.0619649 0.784056 0.433312)
(-0.04654 0.768046 0.426426)
(-0.0445261 0.782496 0.428603)
(-0.0736653 0.762115 0.452197)
(-0.0746437 0.763182 0.442629)
(-0.0832074 0.786685 0.44213)
(-0.0778575 0.774189 0.437266)
(-0.0923689 0.79597 0.448097)
(0.191374 0.564974 0.435198)
(0.204009 0.505091 0.41557)
(0.172376 0.5299 0.419486)
(0.137694 0.647734 0.464092)
(0.161054 0.462415 0.400087)
(0.157899 0.449301 0.388083)
(0.140036 0.606174 0.452079)
(0.139247 0.655254 0.471128)
(0.18071 0.457016 0.39276)
(0.196592 0.449564 0.387124)
(0.175035 0.467621 0.381872)
(0.174547 0.41891 0.360803)
(0.144057 0.62946 0.447808)
(0.180516 0.540994 0.416343)
(0.157406 0.632463 0.45377)
(0.165002 0.647553 0.448865)
(0.186874 0.556545 0.422432)
(0.196024 0.528777 0.410143)
(0.186886 0.477184 0.387031)
(-0.0945939 0.64128 0.54371)
(-0.108891 0.619231 0.532968)
(-0.0832328 0.611516 0.511782)
(-0.0851976 0.597016 0.491694)
(-0.102051 0.658717 0.568408)
(-0.112803 0.652894 0.560171)
(-0.098925 0.601735 0.503792)
(-0.0733638 0.642763 0.542507)
(-0.0827768 0.663363 0.566685)
(-0.0719786 0.618508 0.495105)
(-0.0717658 0.592985 0.473226)
(-0.105287 0.670412 0.567285)
(-0.1206 0.660753 0.553592)
(-0.0939973 0.616839 0.502308)
(-0.0808134 0.639317 0.522938)
(-0.107111 0.627847 0.523072)
(0.125719 0.702824 0.525218)
(0.123209 0.71945 0.53032)
(0.108989 0.810446 0.550055)
(0.118869 0.796393 0.546615)
(0.118294 0.80036 0.563254)
(0.116092 0.725918 0.534524)
(0.122688 0.790609 0.538978)
(0.10251 0.812497 0.549332)
(0.126643 0.698807 0.521695)
(0.133019 0.682789 0.511545)
(0.134739 0.721856 0.533087)
(0.134822 0.670579 0.514837)
(0.112033 0.804639 0.559163)
(0.12523 0.77733 0.54813)
(0.116286 0.798423 0.569199)
(0.13013 0.735586 0.536548)
(-0.2127 0.659714 0.568012)
(-0.175959 0.645395 0.515892)
(-0.16466 0.641559 0.51048)
(-0.142134 0.611749 0.547412)
(-0.121013 0.575233 0.495216)
(-0.173892 0.64837 0.578692)
(-0.194161 0.65582 0.562994)
(-0.140119 0.617787 0.498206)
(-0.129493 0.60809 0.536481)
(-0.136267 0.628591 0.565828)
(-0.127344 0.6285 0.532793)
(-0.14736 0.652624 0.561533)
(-0.148246 0.653706 0.577334)
(-0.168191 0.62212 0.507729)
(-0.142423 0.607672 0.48637)
(-0.144153 0.592063 0.500762)
(0.0276931 0.598639 0.421394)
(0.0328929 0.581877 0.396831)
(0.0216278 0.600889 0.426308)
(0.0188558 0.571924 0.405841)
(0.0209511 0.701756 0.519748)
(0.0213157 0.681652 0.509338)
(0.0133092 0.646835 0.474772)
(0.039488 0.598815 0.456315)
(0.0516806 0.541142 0.415727)
(0.0348721 0.667372 0.494751)
(0.0289398 0.663077 0.496349)
(0.0286959 0.553137 0.388102)
(0.0290243 0.521777 0.370702)
(0.01454 0.663269 0.49782)
(0.0420776 0.543391 0.412538)
(0.0273049 0.475244 0.35576)
(0.025802 0.602261 0.446915)
(0.0238503 0.504622 0.372139)
(0.0194159 0.614584 0.44849)
(0.0253596 0.524895 0.384254)
(0.0322815 0.568375 0.421041)
(-0.0562089 0.718681 0.528088)
(-0.0656667 0.714345 0.511151)
(-0.0299325 0.597434 0.376858)
(-0.0354299 0.650593 0.444011)
(-0.0312634 0.640862 0.437765)
(-0.0242027 0.563049 0.3587)
(-0.0710262 0.745203 0.532074)
(-0.0587504 0.730354 0.542001)
(-0.0387238 0.648814 0.440977)
(-0.0395569 0.698867 0.484026)
(-0.0350275 0.743596 0.539816)
(-0.0540821 0.740823 0.545152)
(-0.0379253 0.670006 0.451853)
(-0.0363864 0.639 0.409154)
(-0.0369844 0.613122 0.401039)
(-0.0621282 0.727595 0.528524)
(-0.0488779 0.692032 0.485379)
(-0.0312097 0.592776 0.375748)
(-0.0510854 0.688498 0.47309)
(-0.0502096 0.668852 0.44782)
(-0.157241 0.727589 0.286759)
(-0.130099 0.734275 0.298041)
(-0.195794 0.739309 0.33739)
(-0.261336 0.769058 0.368106)
(-0.143698 0.741122 0.267635)
(-0.104063 0.750575 0.341072)
(-0.126326 0.726806 0.309062)
(-0.0766255 0.754771 0.313922)
(-0.0903693 0.72426 0.336785)
(-0.200544 0.770914 0.31873)
(-0.10368 0.705404 0.405471)
(-0.172085 0.755688 0.393559)
(-0.114915 0.752321 0.308488)
(-0.149035 0.765925 0.382178)
(-0.148633 0.775131 0.358212)
(-0.126175 0.742596 0.288674)
(-0.163515 0.75806 0.37495)
(-0.117272 0.758719 0.299026)
(-0.136922 0.75671 0.315324)
(-0.194882 0.755609 0.347315)
(0.0570405 0.864293 0.507686)
(0.0574179 0.842262 0.497252)
(0.0848165 0.859818 0.515452)
(0.105343 0.869533 0.514024)
(0.0844326 0.848153 0.529643)
(0.06285 0.85678 0.50889)
(0.0297541 0.889293 0.484034)
(0.0385471 0.874567 0.491836)
(0.0905944 0.880926 0.50336)
(0.0863244 0.884092 0.485747)
(0.0752587 0.885186 0.497936)
(0.0992897 0.865306 0.504764)
(0.0933097 0.852468 0.524672)
(0.0654534 0.897915 0.474832)
(0.0607872 0.898359 0.473484)
(0.116433 0.854504 0.529639)
(0.110287 0.868595 0.525955)
(0.0629399 0.855824 0.51359)
(0.0698852 0.839344 0.51378)
(0.0401086 0.866802 0.492452)
(0.0824097 0.848794 0.518765)
(0.0898337 0.840016 0.523728)
(-0.0281247 0.784681 0.396661)
(-0.0258647 0.798468 0.368406)
(-0.0424235 0.781992 0.399924)
(-0.0170149 0.769354 0.403913)
(-0.0361526 0.771791 0.367357)
(-0.0403078 0.819649 0.334647)
(-0.0337755 0.774891 0.402473)
(-0.0953241 0.762548 0.404362)
(-0.0708541 0.769492 0.386307)
(-0.0731341 0.778989 0.371136)
(-0.0774567 0.754378 0.416202)
(-0.0454232 0.783737 0.369316)
(-0.0448781 0.773995 0.403166)
(-0.0594153 0.780796 0.401033)
(-0.0678441 0.789133 0.369232)
(-0.0227799 0.737623 0.419891)
(-0.0584632 0.766485 0.364852)
(-0.0447402 0.765596 0.355676)
(-0.0521054 0.818537 0.322904)
(-0.0814297 0.808509 0.314775)
(-0.0949545 0.721467 0.463475)
(-0.0960681 0.721585 0.462866)
(-0.105714 0.728312 0.38288)
(-0.0956054 0.74344 0.43383)
(-0.102941 0.720038 0.457715)
(-0.123487 0.691805 0.355032)
(-0.0797154 0.743084 0.403368)
(-0.107402 0.742615 0.33186)
(0.145755 0.811809 0.469481)
(0.136658 0.832467 0.46936)
(0.117498 0.849134 0.47044)
(0.127934 0.838949 0.475422)
(0.138931 0.830283 0.472406)
(0.139572 0.828488 0.481824)
(0.125819 0.854794 0.467294)
(0.147779 0.815828 0.480688)
(0.132936 0.848721 0.484555)
(0.123088 0.864862 0.485817)
(0.130225 0.852748 0.48734)
(0.13467 0.836188 0.484544)
(0.133929 0.850943 0.482607)
(0.123822 0.851814 0.471593)
(0.122509 0.857212 0.470371)
(-0.225417 0.760561 0.551042)
(-0.196182 0.75011 0.571079)
(-0.173362 0.751422 0.582177)
(-0.207134 0.765196 0.543558)
(-0.219127 0.755496 0.560305)
(-0.198 0.736359 0.555737)
(-0.225588 0.774042 0.519447)
(-0.199359 0.751468 0.600044)
(-0.149856 0.747028 0.53662)
(-0.161335 0.746083 0.50797)
(-0.190622 0.767666 0.562419)
(-0.162114 0.75607 0.577496)
(-0.135493 0.71325 0.478136)
(-0.163758 0.744281 0.486154)
(-0.190396 0.734768 0.507448)
(-0.163949 0.720711 0.487037)
(-0.202783 0.727565 0.518798)
(-0.20413 0.737822 0.509018)
(-0.181508 0.727596 0.551222)
(-0.217161 0.742403 0.552306)
(-0.175732 0.758125 0.568387)
(-0.158284 0.725342 0.49724)
(-0.183593 0.754646 0.568169)
(-0.161199 0.72641 0.518994)
(0.170133 0.736827 0.514816)
(0.166532 0.757221 0.531106)
(0.157374 0.759736 0.518679)
(0.149649 0.757679 0.533359)
(0.107886 0.786184 0.558753)
(0.0916246 0.787064 0.547438)
(0.168562 0.757064 0.531133)
(0.154833 0.766949 0.539655)
(0.0924149 0.811365 0.570947)
(0.174885 0.734991 0.509299)
(0.153485 0.742503 0.501987)
(0.168187 0.740954 0.508125)
(0.161816 0.744236 0.494334)
(0.146853 0.772517 0.530653)
(0.132804 0.766409 0.515891)
(0.0767068 0.778812 0.535701)
(0.0544011 0.787784 0.545175)
(0.0694161 0.790236 0.553458)
(0.0606605 0.778533 0.551146)
(0.134533 0.740674 0.490824)
(0.153441 0.757776 0.53288)
(0.0959625 0.807383 0.558121)
(0.0831352 0.802335 0.546982)
(0.0805215 0.785796 0.535137)
(0.0842312 0.770008 0.527341)
(0.0817918 0.810016 0.555705)
(0.00773104 0.661364 0.438453)
(0.0172502 0.646026 0.433375)
(0.00263701 0.686269 0.464702)
(0.00637945 0.650454 0.451828)
(0.0182428 0.63089 0.440719)
(0.0184881 0.664821 0.43966)
(0.0186132 0.699051 0.47023)
(0.0140369 0.691466 0.495335)
(0.0104755 0.722954 0.508997)
(0.00685095 0.731231 0.51685)
(0.0127903 0.735263 0.524141)
(0.0114759 0.741838 0.518684)
(0.0273243 0.68564 0.475584)
(0.0258253 0.66265 0.457441)
(0.135338 0.838395 0.565778)
(0.128529 0.845884 0.562266)
(0.112608 0.894737 0.519316)
(0.107682 0.897209 0.511416)
(0.118472 0.850721 0.538285)
(0.138206 0.838016 0.556687)
(0.126506 0.8441 0.550931)
(0.124099 0.84563 0.555132)
(0.132258 0.851907 0.56491)
(0.13314 0.853373 0.568775)
(0.113036 0.886404 0.52015)
(0.107512 0.891443 0.515353)
(0.112439 0.892901 0.52068)
(0.0936397 0.898021 0.503711)
(0.10327 0.899024 0.50742)
(0.113946 0.868578 0.54205)
(0.125691 0.855601 0.554469)
(0.125007 0.856764 0.560106)
(0.112981 0.889453 0.507618)
(0.121917 0.882894 0.515894)
(-0.028475 0.632002 0.538223)
(-0.0128306 0.606037 0.513698)
(-0.0166623 0.623767 0.510481)
(-0.0272701 0.640682 0.520557)
(-0.0115416 0.629698 0.503489)
(-0.0729885 0.714608 0.536835)
(-0.0310346 0.69416 0.54186)
(-0.00367416 0.609753 0.475125)
(-0.0869313 0.69696 0.422973)
(-0.0560573 0.691055 0.471523)
(-0.0643318 0.640516 0.428724)
(-0.11002 0.629482 0.547606)
(-0.102182 0.666947 0.577564)
(-0.10877 0.671154 0.582904)
(-0.123034 0.646909 0.584516)
(-0.110428 0.616905 0.535507)
(-0.112043 0.584021 0.503131)
(-0.100917 0.658151 0.570539)
(-0.118322 0.659251 0.588345)
(-0.137418 0.669674 0.572729)
(-0.119523 0.614429 0.522953)
(-0.0937404 0.625461 0.539465)
(-0.261453 0.727035 0.373345)
(-0.266157 0.715631 0.380206)
(-0.183526 0.629766 0.325798)
(-0.227045 0.695584 0.301734)
(-0.258193 0.732503 0.396883)
(-0.258465 0.710151 0.402306)
(-0.215638 0.68835 0.322991)
(-0.215426 0.676599 0.314759)
(-0.169819 0.632824 0.319547)
(-0.19942 0.673374 0.345374)
(-0.217869 0.675119 0.364919)
(-0.231989 0.706429 0.349654)
(-0.252931 0.63604 0.354085)
(-0.277619 0.654611 0.364326)
(-0.199545 0.62662 0.354189)
(-0.245712 0.680051 0.372325)
(-0.246015 0.661676 0.373818)
(-0.224724 0.642704 0.348154)
(-0.110979 0.667449 0.51657)
(-0.118584 0.663131 0.506222)
(-0.0928668 0.653511 0.517064)
(-0.116631 0.662562 0.517857)
(-0.123664 0.695956 0.546577)
(-0.102995 0.683442 0.549445)
(-0.165036 0.72251 0.502602)
(-0.122565 0.697616 0.524407)
(-0.136224 0.698493 0.550429)
(-0.127793 0.673651 0.565492)
(-0.179952 0.711844 0.512795)
(-0.175038 0.719293 0.507737)
(-0.144699 0.709967 0.502571)
(-0.125384 0.689912 0.509713)
(-0.145721 0.685328 0.498193)
(-0.130136 0.705121 0.523579)
(-0.146429 0.683341 0.549617)
(-0.176605 0.71268 0.517627)
(-0.152526 0.71133 0.523229)
(-0.186266 0.701555 0.53079)
(-0.155478 0.70716 0.52796)
(-0.149334 0.704642 0.531507)
(0.0617308 0.766615 0.489339)
(0.102204 0.758864 0.478266)
(0.124545 0.756006 0.488331)
(0.138957 0.721808 0.454334)
(0.097034 0.765734 0.483707)
(0.0539879 0.794076 0.503681)
(0.0678376 0.765338 0.490782)
(0.0961796 0.755764 0.486647)
(0.0955621 0.764136 0.471187)
(0.105846 0.773555 0.505744)
(0.12226 0.753448 0.487959)
(-0.000411728 0.814882 0.519043)
(0.0361454 0.801533 0.516804)
(0.0221059 0.805606 0.511636)
(0.0387463 0.807377 0.524915)
(-0.0110044 0.692207 0.447087)
(-0.0273442 0.71273 0.436751)
(-0.0366273 0.726013 0.454815)
(-0.0257781 0.717922 0.468614)
(-0.0084713 0.687537 0.413003)
(-0.00128879 0.682604 0.418527)
(0.00996108 0.66321 0.381083)
(0.00591859 0.689057 0.440543)
(0.00399506 0.694046 0.438271)
(-0.0191959 0.728767 0.467011)
(-0.00840175 0.705631 0.416446)
(0.00978547 0.672402 0.394996)
(0.149358 0.789475 0.507723)
(0.145832 0.734506 0.489071)
(0.144353 0.78215 0.514402)
(0.147683 0.8148 0.523879)
(0.128653 0.822968 0.55904)
(0.127842 0.774454 0.528961)
(0.137412 0.845463 0.529185)
(0.135462 0.859013 0.545686)
(0.141741 0.798504 0.514225)
(0.133542 0.777437 0.527967)
(0.132013 0.718314 0.494699)
(0.132554 0.754383 0.503526)
(0.137762 0.739418 0.497499)
(0.129723 0.799473 0.53849)
(0.122831 0.86733 0.538757)
(0.136469 0.796819 0.520021)
(0.134459 0.814494 0.540448)
(0.122488 0.849617 0.544108)
(0.124998 0.841728 0.552092)
(0.127252 0.862499 0.56019)
(0.134502 0.841202 0.54134)
(0.129399 0.841816 0.563558)
(0.133339 0.828402 0.575497)
(0.153646 0.810482 0.581092)
(0.130694 0.828775 0.574988)
(0.140013 0.8234 0.580564)
(0.106123 0.876255 0.527847)
(0.128133 0.839397 0.56721)
(0.113901 0.870997 0.538843)
(0.139967 0.821341 0.572355)
(0.117281 0.880443 0.536328)
(0.124598 0.855874 0.565834)
(0.146121 0.830749 0.583889)
(0.148003 0.823708 0.587322)
(0.148057 0.820833 0.586096)
(0.140705 0.826794 0.579573)
(0.113373 0.857606 0.547413)
(0.136394 0.841337 0.572143)
(0.11647 0.863877 0.54761)
(0.0266653 0.653477 0.474568)
(0.0233432 0.661414 0.499538)
(0.029474 0.555482 0.418793)
(0.0330328 0.576958 0.423654)
(0.0308844 0.603357 0.418889)
(0.0356194 0.507034 0.367928)
(0.0356863 0.545852 0.37687)
(0.247952 0.665712 0.476337)
(0.249066 0.602125 0.434128)
(0.24636 0.702528 0.482402)
(0.238595 0.613212 0.456833)
(0.245311 0.539906 0.40768)
(0.225731 0.739992 0.516172)
(0.244357 0.683668 0.461582)
(0.239943 0.611715 0.427813)
(0.240001 0.565016 0.409909)
(0.254368 0.574554 0.43402)
(0.238412 0.580274 0.421164)
(0.220707 0.700087 0.489945)
(0.225827 0.767137 0.505369)
(0.235219 0.627508 0.439161)
(0.233747 0.669007 0.474258)
(0.235843 0.658703 0.480679)
(0.220676 0.735517 0.507863)
(0.211658 0.721978 0.517398)
(0.24461 0.679937 0.465385)
(-0.000191471 0.851009 0.447254)
(0.0334756 0.839227 0.466499)
(0.0374086 0.818203 0.478002)
(0.0876629 0.796945 0.506215)
(0.0703408 0.799304 0.496782)
(0.0173385 0.837718 0.461204)
(0.0336051 0.828416 0.468588)
(0.0149501 0.828073 0.468326)
(0.0029658 0.812455 0.478524)
(0.0795414 0.775261 0.482556)
(0.0340545 0.806073 0.465095)
(0.00468635 0.82811 0.459661)
(0.0687132 0.804055 0.504624)
(0.0759159 0.780497 0.479154)
(0.0887186 0.800133 0.505162)
(0.11004 0.767872 0.48843)
(0.0596377 0.78114 0.481969)
(0.0106549 0.798668 0.468504)
(0.088354 0.761714 0.482836)
(0.050875 0.785807 0.47777)
(0.187905 0.732916 0.454479)
(0.174667 0.705313 0.438103)
(0.170268 0.740688 0.45444)
(0.181401 0.746401 0.459758)
(0.177394 0.748689 0.466555)
(0.142677 0.854211 0.515916)
(0.1399 0.84771 0.505954)
(0.154059 0.827941 0.507387)
(0.163342 0.804046 0.48751)
(0.160818 0.739044 0.457508)
(0.165924 0.699254 0.443066)
(0.142926 0.828781 0.501828)
(0.155492 0.743406 0.458153)
(0.146402 0.760592 0.472163)
(0.158981 0.762428 0.466068)
(0.188825 0.731553 0.515776)
(0.177349 0.741366 0.529356)
(0.223583 0.649859 0.473739)
(0.216046 0.709251 0.508562)
(0.210793 0.67684 0.484169)
(0.177457 0.717817 0.49993)
(0.223659 0.633967 0.458567)
(0.213159 0.559144 0.40167)
(0.216454 0.569897 0.3967)
(0.212774 0.631068 0.426542)
(0.20901 0.661464 0.442888)
(0.210967 0.66694 0.472973)
(0.210416 0.657009 0.448754)
(-0.0205789 0.751171 0.533549)
(-0.0227954 0.76712 0.536252)
(-0.0106096 0.740901 0.497218)
(0.0124015 0.617753 0.450569)
(0.00266264 0.584611 0.40419)
(0.00629534 0.597674 0.429751)
(-0.00271916 0.578446 0.390682)
(0.00659034 0.672966 0.456296)
(-0.00340789 0.631836 0.429674)
(-0.0134702 0.682173 0.469645)
(-0.0241513 0.660158 0.450937)
(0.00195481 0.778155 0.511146)
(0.00246387 0.751007 0.503599)
(0.0125518 0.689836 0.472555)
(-0.00757957 0.656806 0.455738)
(-0.0171335 0.659166 0.455404)
(0.0107704 0.75668 0.504127)
(-0.0165697 0.769167 0.536716)
(0.132485 0.781624 0.53946)
(0.140055 0.766658 0.529058)
(0.183378 0.706562 0.506343)
(0.168069 0.726401 0.520482)
(0.117621 0.804655 0.538717)
(0.138508 0.790822 0.544043)
(0.16972 0.711561 0.518669)
(0.171059 0.671747 0.495808)
(0.16966 0.684008 0.517671)
(0.143652 0.755423 0.537707)
(0.166996 0.632403 0.480227)
(0.154204 0.675475 0.502281)
(0.161947 0.655922 0.496508)
(0.0687818 0.826822 0.51795)
(0.0579485 0.831983 0.502242)
(0.0552989 0.788153 0.538993)
(0.0596362 0.836044 0.502308)
(0.066425 0.80565 0.514508)
(0.0738603 0.809009 0.544528)
(0.0736597 0.776642 0.548699)
(0.0429794 0.784304 0.531548)
(0.04857 0.783319 0.535767)
(0.0890751 0.771302 0.545348)
(0.0518978 0.767016 0.532361)