/*--------------------------------*- C++ -*----------------------------------*\
| =========                 |                                                 |
| \\      /  F ield         | OpenFOAM: The Open Source CFD Toolbox           |
|  \\    /   O peration     | Version:  v1612+                                |
|   \\  /    A nd           | Web:      www.OpenFOAM.com                      |
|    \\/     M anipulation  |                                                 |
\*---------------------------------------------------------------------------*/
FoamFile
{
    version     2.0;
    format      ascii;
    class       volVectorField;
    location    "150";
    object      wallShearStress;
}
// * * * * * * * * * * * * * * * * * * * * * * * * * * * * * * * * * * * * * //

dimensions      [0 2 -2 0 0 0 0];

internalField   uniform (0 0 0);

boundaryField
{
    WALL
    {
        type            calculated;
        value           nonuniform List<vector> 
1663
(
(-0.00553108 -0.0213474 -0.00657307)
(-0.00611037 -0.0204732 -0.00756756)
(-0.00750981 -0.0159263 -0.00648273)
(-0.00730892 -0.016764 -0.00653731)
(-0.00279725 -0.00577318 -0.0072398)
(-0.00314835 -0.00542787 -0.00715301)
(-0.0017837 -0.0146307 -0.0142759)
(-0.00355654 -0.0159805 -0.0154244)
(-0.00136495 -0.00654371 -0.00530385)
(-0.00137306 -0.00519161 -0.00503478)
(-0.0018875 -0.00642258 -0.00730211)
(-0.00368685 -0.00600382 -0.00824859)
(-0.00289683 -0.0059385 -0.00762007)
(-0.0074847 -0.00749885 -0.00953675)
(-0.00972788 -0.00899849 -0.00990022)
(-0.00803349 -0.0182953 -0.0108512)
(-0.00735198 -0.0194116 -0.0112191)
(-0.0105534 -0.0161489 -0.0048135)
(-0.0102992 -0.0146815 -0.00468126)
(-0.00559933 -0.0188257 -0.00305941)
(-0.00643817 -0.0178559 -0.00288031)
(-0.0057533 -0.0185246 -0.00478347)
(-0.00834412 -0.016935 -0.00318644)
(-0.0059101 -0.0168273 -0.00629229)
(-0.0071541 -0.0169219 -0.00606361)
(-0.00210289 -0.00546894 -0.00635623)
(-0.00150453 -0.00576469 -0.00589517)
(-0.00129823 -0.00559991 -0.00568999)
(-0.000599006 -0.00713162 -0.00611919)
(-0.010751 -0.00878452 -0.00710589)
(-0.00847813 -0.00688272 -0.00755344)
(-0.00522981 -0.00677851 -0.00824692)
(-0.00696158 -0.00739409 -0.00811392)
(-0.00545068 -0.0189093 -0.011804)
(-0.00662417 -0.0183135 -0.0109759)
(-0.00362827 -0.0149203 -0.0140843)
(-0.00263791 -0.0151719 -0.0136302)
(-0.00286539 -0.0161613 -0.0148768)
(-0.00148588 -0.0158185 -0.01431)
(-0.0054708 -0.01726 -0.0153744)
(-0.0065712 -0.0178524 -0.0158984)
(-0.00873026 -0.0194229 -0.0149251)
(-0.00896556 -0.0185132 -0.0140742)
(-0.00523581 -0.0176499 -0.00837557)
(-0.00524159 -0.0191763 -0.00729538)
(-0.00170712 -0.00831365 -0.0055651)
(-0.00188055 -0.00887583 -0.00515597)
(-0.00176785 -0.00791707 -0.00547764)
(-0.00184456 -0.00834251 -0.00561018)
(-0.00299596 -0.00967057 -0.0058678)
(-0.00355971 -0.0105801 -0.00595992)
(-0.00529514 -0.0137426 -0.00591336)
(-0.00713616 -0.0150983 -0.00650749)
(-0.00822045 -0.01985 -0.00663384)
(-0.00959762 -0.0206736 -0.00817526)
(-0.0061683 -0.00743557 -0.00990788)
(-0.00817559 -0.00891787 -0.0108878)
(-0.00851435 -0.0133642 -0.0123142)
(-0.0090526 -0.0146454 -0.0137861)
(-0.00218194 -0.0135336 -0.00455087)
(-0.00199592 -0.0110572 -0.00409721)
(-0.00405309 -0.0130895 -0.00475893)
(-0.0039198 -0.0145323 -0.00551177)
(-0.00532273 -0.0165429 -0.00807211)
(-0.00795577 -0.0173989 -0.00839662)
(-0.000410854 -0.00998045 -0.00471756)
(-0.000355542 -0.0099208 -0.00417654)
(-0.00086222 -0.0110308 -0.00410279)
(-0.00061361 -0.0120697 -0.00388962)
(-0.000449255 -0.00875702 -0.00469895)
(-0.000202056 -0.00883096 -0.00502915)
(-0.00910771 -0.0182248 -0.00960159)
(-0.00948815 -0.019028 -0.0088855)
(-0.00947893 -0.0199221 -0.00894492)
(-0.00966833 -0.0192312 -0.0104601)
(-0.0098936 -0.0200331 -0.0103281)
(-0.00891686 -0.0195715 -0.00965276)
(-0.00102855 -0.015786 -0.0146395)
(-0.00298801 -0.0160277 -0.0150913)
(-0.00442334 -0.0168343 -0.00957486)
(-0.00568933 -0.0157877 -0.00762165)
(-0.00670064 -0.0168883 -0.00848985)
(-0.00483251 -0.0169593 -0.0092833)
(-0.00536345 -0.0178094 -0.00977834)
(-0.00596407 -0.0171636 -0.00921803)
(-0.0104302 -0.00901603 -0.00809838)
(-0.0114753 -0.0102943 -0.00716215)
(-0.0103852 -0.00890398 -0.00796687)
(-0.0103994 -0.00980944 -0.0070141)
(-0.0113963 -0.010501 -0.0068964)
(-0.0109567 -0.00989344 -0.00785147)
(-0.00590904 -0.0126023 -0.00813431)
(-0.00532386 -0.0113129 -0.00700113)
(0.00285308 -0.0127971 -0.00626952)
(0.00349652 -0.0147659 -0.00612818)
(0.00242749 -0.0116412 -0.00676483)
(-0.00202339 -0.00559044 -0.00638834)
(-0.00167381 -0.0055537 -0.00606723)
(-0.00273296 -0.00501282 -0.00653112)
(-0.00147224 -0.00579507 -0.0056234)
(-0.00237567 -0.00531194 -0.00652739)
(-0.00185524 -0.00562238 -0.0061534)
(-0.00207454 -0.0190403 -0.0080298)
(-0.00201309 -0.0185603 -0.00829788)
(-0.00252263 -0.0184335 -0.00795257)
(-0.00287436 -0.0179417 -0.00708269)
(-0.00335443 -0.018939 -0.00652735)
(-0.00266008 -0.0190622 -0.0072122)
(-0.00794893 -0.00714053 -0.00879638)
(-0.00743201 -0.00699819 -0.00933822)
(-0.00835276 -0.00742188 -0.00931074)
(-0.00727422 -0.00726136 -0.00947676)
(-0.00910916 -0.00828129 -0.00930959)
(-0.00908627 -0.00802274 -0.00898955)
(-0.0086107 -0.0160045 -0.00714157)
(-0.00939082 -0.0151645 -0.00702926)
(-0.00937373 -0.0136843 -0.00625273)
(-0.00874159 -0.0154331 -0.00696428)
(-0.0101654 -0.0142697 -0.00749931)
(-0.00972585 -0.0150863 -0.00762139)
(-0.00273254 -0.00668128 -0.0076529)
(-0.0036132 -0.00639373 -0.00745649)
(-0.0012184 -0.00717062 -0.00762154)
(0.0020817 -0.0162293 -0.0137219)
(0.00269316 -0.0178082 -0.0105798)
(0.00251547 -0.0165555 -0.010011)
(0.00253465 -0.0179844 -0.0126599)
(0.00309722 -0.0169218 -0.0108071)
(0.00191573 -0.0160243 -0.0120167)
(-0.00256533 -0.0181985 -0.014508)
(-0.00182352 -0.0189345 -0.0140747)
(-0.0021713 -0.0184469 -0.0143819)
(-0.00215584 -0.0171945 -0.01389)
(-0.00318851 -0.0184722 -0.015171)
(-0.00296789 -0.0186543 -0.0152633)
(-0.00595258 -0.0217724 -0.00765094)
(-0.00486062 -0.0209265 -0.00563939)
(-0.00413644 -0.0207098 -0.00617514)
(-0.00436172 -0.0207842 -0.00681043)
(-0.00522883 -0.019536 -0.0066208)
(-0.00537528 -0.0214609 -0.00640643)
(-0.0059144 -0.0206305 -0.00765399)
(-0.0055608 -0.0195971 -0.00623683)
(0.000115977 -0.0197351 -0.00364653)
(0.00118077 -0.0209851 -0.00463071)
(0.000225947 -0.0192366 -0.00499229)
(-0.00138971 -0.0218007 -0.00483802)
(-0.000261699 -0.0225705 -0.00546934)
(-0.000675567 -0.0195841 -0.00409531)
(-0.00216289 -0.0165513 -0.0126464)
(-0.00181677 -0.0172179 -0.0119821)
(-0.00303006 -0.0189424 -0.0149736)
(-0.00223997 -0.0184444 -0.0135574)
(-0.00175879 -0.0173841 -0.0118111)
(-0.00206786 -0.019007 -0.0125739)
(-0.00173906 -0.0169412 -0.0128637)
(-0.00897586 -0.0142562 -0.013523)
(-0.00881853 -0.0137979 -0.0119727)
(-0.00852644 -0.0139733 -0.0138225)
(-0.00856314 -0.014738 -0.0147518)
(-0.0078478 -0.0139761 -0.0145972)
(-0.00865176 -0.0146063 -0.0140593)
(-0.00901771 -0.0154667 -0.0153582)
(-0.00833516 -0.0146104 -0.0146123)
(-0.00922914 -0.0155639 -0.014044)
(-0.00881297 -0.0152159 -0.0144844)
(-0.00625823 -0.0150563 -0.0165675)
(-0.00658793 -0.0167551 -0.0187101)
(-0.00514032 -0.0149665 -0.0156678)
(-0.00594598 -0.0155299 -0.0159187)
(-0.0058114 -0.0149611 -0.0165169)
(-0.00497479 -0.0179235 -0.0170076)
(-0.00481071 -0.01671 -0.0164707)
(-0.0088166 -0.0114085 -0.0105173)
(-0.00818254 -0.0103475 -0.0104873)
(-0.00840348 -0.0107999 -0.0111101)
(-0.00857372 -0.0129273 -0.0106483)
(-0.00951141 -0.0130275 -0.0112853)
(-0.00827934 -0.0117743 -0.0110773)
(0.00100432 -0.0195445 -0.00656516)
(0.00194054 -0.0178746 -0.00609312)
(0.0022531 -0.0178837 -0.00886009)
(0.000734637 -0.0195058 -0.00558861)
(0.00196894 -0.0183825 -0.00750799)
(0.000923973 -0.0196686 -0.00666567)
(-0.00253632 -0.0177761 -0.0142879)
(-0.00313662 -0.0171908 -0.0145928)
(-0.00189852 -0.0173585 -0.0130443)
(-0.0016579 -0.0180159 -0.013147)
(-0.00181569 -0.0177941 -0.0134824)
(-0.00262316 -0.0180314 -0.0139541)
(-0.000584963 -0.0168579 -0.012357)
(-0.000720583 -0.0181751 -0.0130712)
(-0.000693606 -0.0187977 -0.0141259)
(-0.000592118 -0.0189931 -0.0128956)
(-0.0013031 -0.0173373 -0.0142751)
(-0.000750858 -0.015571 -0.0116748)
(-0.00957138 -0.0165895 -0.00918465)
(-0.00829658 -0.0159272 -0.00778124)
(-0.00824676 -0.015386 -0.00761196)
(-0.00882289 -0.0165889 -0.00863443)
(-0.00885999 -0.0169734 -0.00915859)
(-0.00921438 -0.0158136 -0.009146)
(-0.00977191 -0.0159147 -0.0110614)
(-0.0103038 -0.0167226 -0.0119073)
(-0.00994756 -0.0162253 -0.0102153)
(-0.00984913 -0.0174077 -0.0114992)
(-0.00988656 -0.016423 -0.010608)
(-0.00976635 -0.0173693 -0.00876039)
(-0.0105791 -0.0181544 -0.0105583)
(-0.00989882 -0.0173568 -0.0104458)
(-0.00988077 -0.0179216 -0.00956397)
(-0.0100657 -0.0182019 -0.0101274)
(-0.00953135 -0.0177356 -0.00887777)
(-0.00699593 -0.0188103 -0.00598152)
(-0.00782451 -0.0184636 -0.00597366)
(-0.00903463 -0.0191392 -0.00726002)
(-0.00827083 -0.0189451 -0.00661332)
(-0.00670195 -0.0186115 -0.00592338)
(-0.00631805 -0.0192227 -0.00588757)
(-0.00827749 -0.0182595 -0.00758809)
(-0.0095038 -0.0197024 -0.0086148)
(-0.00918174 -0.0188147 -0.0073667)
(-0.00870581 -0.0195425 -0.00738462)
(-0.00971551 -0.0192751 -0.00899)
(-0.00950532 -0.0182956 -0.00794377)
(-0.00484895 -0.0132623 -0.00648204)
(-0.00441626 -0.0125161 -0.00621398)
(-0.00503929 -0.0124231 -0.00602451)
(-0.00404353 -0.0116625 -0.00549001)
(-0.00363822 -0.0113853 -0.00574655)
(-0.00525752 -0.012507 -0.00591281)
(-0.00430259 -0.010866 -0.00658514)
(-0.00381502 -0.0109472 -0.00641811)
(-0.00439125 -0.0113002 -0.00651777)
(-0.00386259 -0.0105138 -0.00628794)
(-0.00481041 -0.0113285 -0.00694785)
(-0.00531446 -0.0121071 -0.00697385)
(-0.00233803 -0.00975052 -0.00512372)
(-0.00291921 -0.0104403 -0.00563155)
(-0.00247316 -0.00919161 -0.00526959)
(-0.00258286 -0.0104676 -0.00570679)
(-0.00180473 -0.0135729 -0.0043312)
(-0.00276034 -0.0140642 -0.00471849)
(-0.00141877 -0.0123971 -0.00355918)
(-0.00198465 -0.0119964 -0.00427373)
(-0.0013368 -0.0114812 -0.00438183)
(-0.00151255 -0.0105437 -0.00435776)
(-0.00169269 -0.00969907 -0.00501761)
(-0.0018089 -0.00954459 -0.00484255)
(-0.00246931 -0.0111315 -0.00499506)
(-0.00223471 -0.0103103 -0.00490413)
(-0.00269989 -0.0110328 -0.00487704)
(-0.00203419 -0.0104289 -0.00484296)
(-0.00309936 -0.0124938 -0.00530894)
(-0.00420718 -0.013963 -0.00598638)
(-0.00466196 -0.0146968 -0.00549874)
(-0.00492298 -0.0141931 -0.00608585)
(-0.00562865 -0.0154785 -0.00581058)
(-0.0039672 -0.0126799 -0.00453912)
(-0.00410363 -0.0156239 -0.00480591)
(-0.00483209 -0.0168098 -0.00544421)
(-0.0032493 -0.0146855 -0.00441722)
(-0.00329226 -0.0155097 -0.00429105)
(-0.00505295 -0.0182051 -0.00495591)
(-0.00418039 -0.0156729 -0.00356481)
(-0.000245012 -0.0147872 -0.00398271)
(-0.00122064 -0.0149735 -0.00384322)
(-0.000259305 -0.0120467 -0.00385813)
(0.0002164 -0.0135573 -0.00408353)
(-0.000804006 -0.0172943 -0.00401929)
(-0.000633839 -0.0132761 -0.00364623)
(0.00152874 -0.0184413 -0.00392754)
(0.00278521 -0.0176978 -0.00543191)
(0.00205292 -0.0175547 -0.00392763)
(0.00285229 -0.0184947 -0.00560031)
(0.00364253 -0.0187335 -0.00581538)
(0.00221165 -0.0199413 -0.00528908)
(-0.00716921 -0.0192392 -0.0079422)
(-0.00831463 -0.0185463 -0.00807774)
(-0.00855739 -0.020708 -0.00816206)
(-0.00737006 -0.0200499 -0.00729096)
(-0.0079914 -0.0201107 -0.00714628)
(-0.00801149 -0.0183441 -0.00810576)
(-0.00313337 -0.0216499 -0.00396368)
(-0.00421757 -0.0209393 -0.00521047)
(-0.00475742 -0.0219921 -0.00513214)
(-0.0024173 -0.0211337 -0.00474599)
(-0.00334294 -0.0215888 -0.00513728)
(-0.00342976 -0.0238153 -0.00615096)
(-0.0067357 -0.0215468 -0.00653843)
(-0.00571161 -0.0214488 -0.00537503)
(-0.00683834 -0.0207035 -0.00623375)
(-0.00575821 -0.0221945 -0.00644275)
(-0.0064385 -0.0213623 -0.00626277)
(-0.00557921 -0.0202386 -0.00539836)
(-0.0086252 -0.017919 -0.0149501)
(-0.00944352 -0.018508 -0.0140175)
(-0.00975081 -0.0176236 -0.0134738)
(-0.00855898 -0.0173039 -0.0144049)
(-0.00953066 -0.0186019 -0.014642)
(-0.00899625 -0.0185586 -0.0146805)
(-0.00720814 -0.0172057 -0.0161587)
(-0.0064549 -0.0173952 -0.0162152)
(-0.0058102 -0.0180073 -0.0162684)
(-0.00736405 -0.016827 -0.0158405)
(-0.00693609 -0.0188519 -0.0167866)
(-0.00597107 -0.0173516 -0.0160738)
(-0.00821475 -0.0183025 -0.0152861)
(-0.0064838 -0.0184105 -0.0155854)
(-0.00783534 -0.0185311 -0.0156307)
(-0.00715806 -0.0175761 -0.0150938)
(-0.0070225 -0.0178501 -0.0156158)
(-0.00604954 -0.0188196 -0.0161877)
(-0.0047959 -0.0186791 -0.0161362)
(-0.0042656 -0.0191301 -0.015788)
(-0.00603587 -0.0191665 -0.0162658)
(-0.00555586 -0.0183361 -0.0160463)
(-0.00458093 -0.0169887 -0.0147219)
(-0.0038636 -0.0179378 -0.0154954)
(-0.00384127 -0.0172907 -0.0150203)
(-0.0042783 -0.0178819 -0.0157351)
(-0.00504063 -0.0178936 -0.0156211)
(-0.00490826 -0.0183658 -0.0157425)
(-0.00737311 -0.0175755 -0.0143615)
(-0.00744914 -0.0174258 -0.0137827)
(-0.00828195 -0.0182626 -0.0133306)
(-0.00828389 -0.0178746 -0.0130347)
(-0.00817617 -0.0174383 -0.013435)
(-0.006788 -0.0181242 -0.0145649)
(-0.00525907 -0.0161973 -0.0141436)
(-0.00366888 -0.0157342 -0.0143236)
(-0.00554525 -0.0169531 -0.0147101)
(-0.00451214 -0.0163898 -0.014829)
(-0.00579973 -0.0160285 -0.0139054)
(-0.00439945 -0.0156364 -0.0140769)
(4.02807e-05 -0.0156015 -0.0126959)
(0.000440391 -0.0155476 -0.0124791)
(0.000493896 -0.0158877 -0.0114845)
(-0.000239865 -0.0160106 -0.0124721)
(0.000812862 -0.016152 -0.0112608)
(-0.00067053 -0.0151855 -0.0128336)
(-0.00163301 -0.0152263 -0.0141671)
(-0.0021235 -0.0153506 -0.0135014)
(-0.00371026 -0.0167209 -0.0145915)
(-0.00112661 -0.0155864 -0.0139671)
(-0.00147283 -0.015086 -0.0139548)
(0.000281287 -0.00841605 -0.00459791)
(-0.000160909 -0.00747259 -0.00501521)
(-0.000424993 -0.00667999 -0.00464203)
(0.000226499 -0.00965958 -0.00469747)
(-5.63078e-05 -0.00909153 -0.0041003)
(-0.00012687 -0.00771663 -0.00408386)
(-0.00120038 -0.00683347 -0.00709676)
(-0.00157337 -0.00626488 -0.00685073)
(-0.000779548 -0.0068457 -0.00656809)
(-0.000504491 -0.00738103 -0.00698252)
(-0.00215652 -0.00653726 -0.00736863)
(-0.0023353 -0.00590994 -0.00704569)
(0.000767858 -0.00870592 -0.00589221)
(0.000940239 -0.00930825 -0.0067546)
(0.0015797 -0.0108942 -0.00588776)
(0.00139183 -0.0105974 -0.00582719)
(0.00184445 -0.0113035 -0.00611207)
(0.00142622 -0.00983522 -0.00650445)
(-0.00389196 -0.0182699 -0.00876178)
(-0.00450662 -0.0171865 -0.00730702)
(-0.00387112 -0.0180161 -0.0090018)
(-0.00408454 -0.0174241 -0.00809153)
(-0.00431178 -0.0177827 -0.00841364)
(-0.0052248 -0.0183567 -0.00790933)
(-0.00337577 -0.0175519 -0.0110121)
(-0.00375054 -0.0176717 -0.00998919)
(-0.00310587 -0.0172821 -0.0111278)
(-0.00312526 -0.0164986 -0.0103894)
(-0.00355928 -0.0170006 -0.00983538)
(-0.00336038 -0.0173328 -0.0110162)
(-0.00277308 -0.0172595 -0.0121027)
(-0.00271063 -0.0165381 -0.0114022)
(-0.00219653 -0.0176513 -0.0128116)
(-0.00335833 -0.0178953 -0.014828)
(-0.00373765 -0.0196041 -0.0141538)
(-0.0116673 -0.011734 -0.00696445)
(-0.0102935 -0.0136315 -0.00685373)
(-0.0117105 -0.0110824 -0.00760097)
(-0.0109769 -0.0119429 -0.00713142)
(-0.0117598 -0.0135766 -0.0071117)
(-0.011428 -0.0107847 -0.0073235)
(-0.00678192 -0.0166146 -0.00761466)
(-0.00691325 -0.016243 -0.00695056)
(-0.00802269 -0.0149751 -0.00669921)
(-0.00542937 -0.0156983 -0.00769328)
(-0.0102631 -0.0127727 -0.0097427)
(-0.0102996 -0.0130286 -0.0100292)
(-0.0101632 -0.0142744 -0.00955521)
(-0.00983696 -0.0141407 -0.00933303)
(-0.0103425 -0.0133286 -0.00940375)
(-0.0104626 -0.0153823 -0.0111013)
(-0.00338045 -0.0166781 -0.0143743)
(-0.00406328 -0.0169629 -0.0140318)
(-0.00268595 -0.0143608 -0.0140951)
(-0.00490975 -0.0181263 -0.0169272)
(-0.00463599 -0.0191418 -0.0168049)
(-0.00444418 -0.0196189 -0.0153155)
(-0.00328149 -0.0176672 -0.0162226)
(-0.00631458 -0.0195507 -0.0116537)
(-0.00494777 -0.0185837 -0.0123717)
(-0.00542582 -0.019364 -0.0123465)
(-0.00585413 -0.0199177 -0.0125649)
(-0.00631784 -0.0193127 -0.011643)
(-0.00593798 -0.0190971 -0.0120215)
(-0.00914909 -0.0188125 -0.0116744)
(-0.00856594 -0.0188904 -0.0114682)
(-0.00817303 -0.0175755 -0.0103717)
(-0.00748009 -0.0193452 -0.0114921)
(-0.00762963 -0.0196492 -0.0120813)
(-0.00619579 -0.0168965 -0.00913166)
(-0.00648272 -0.0177769 -0.00961947)
(-0.00515593 -0.0172269 -0.0099045)
(-0.00698482 -0.0176264 -0.00932942)
(-0.00532104 -0.0177261 -0.0100901)
(-0.00609553 -0.0179049 -0.0100444)
(-0.00969126 -0.0151396 -0.00992985)
(-0.00946484 -0.0168681 -0.0106152)
(-0.00981865 -0.0154959 -0.0101108)
(-0.00906838 -0.0168069 -0.0107335)
(-0.00958781 -0.0174963 -0.0103145)
(-0.00841951 -0.017025 -0.0100942)
(-0.00789313 -0.0165971 -0.00911738)
(-0.00865399 -0.016543 -0.00926712)
(-0.00797505 -0.0163651 -0.00890604)
(-0.00922697 -0.0152715 -0.00883838)
(-0.0090377 -0.0152512 -0.00899844)
(-0.00868235 -0.0172551 -0.0101687)
(-0.00385629 -0.0178041 -0.0116705)
(-0.00457987 -0.0184021 -0.0111491)
(-0.00445009 -0.0184582 -0.0127451)
(-0.00363089 -0.0168018 -0.0115278)
(-0.00448425 -0.0172008 -0.0112136)
(-0.00539464 -0.0182242 -0.0111738)
(-0.00350067 -0.0164811 -0.0137133)
(-0.00389224 -0.0183191 -0.0141745)
(-0.00353685 -0.01744 -0.0131608)
(-0.00303307 -0.0162442 -0.0121562)
(-0.00390254 -0.0180417 -0.0131244)
(-0.00366671 -0.0181282 -0.0132999)
(-0.010794 -0.012591 -0.00578192)
(-0.0102788 -0.0137647 -0.00548903)
(-0.0109747 -0.014055 -0.00594221)
(-0.0112883 -0.0130089 -0.00646051)
(-0.0112961 -0.011793 -0.0059778)
(-0.0111794 -0.0123388 -0.00677428)
(-0.00874025 -0.0159313 -0.00615212)
(-0.00958393 -0.0156154 -0.00673705)
(-0.010241 -0.0151063 -0.00663787)
(-0.00944148 -0.0141855 -0.00519524)
(-0.00921922 -0.0158248 -0.00624381)
(-0.00818825 -0.0153737 -0.00616503)
(-0.00847141 -0.0163399 -0.00629005)
(-0.00671849 -0.0166964 -0.00661618)
(-0.0103554 -0.00974003 -0.0072542)
(-0.010316 -0.00911534 -0.00691336)
(-0.00804337 -0.00714358 -0.00751004)
(-0.00807696 -0.00790617 -0.00777457)
(-0.00912356 -0.00824022 -0.00713818)
(-0.00960102 -0.00862717 -0.00787169)
(-0.007976 -0.00610308 -0.00770445)
(-0.00621716 -0.00548072 -0.00719453)
(-0.00627526 -0.00637269 -0.00770107)
(-0.00890819 -0.00657368 -0.00745171)
(-0.00198389 -0.0056081 -0.00634361)
(-0.00254173 -0.00520096 -0.00652949)
(-0.0012606 -0.00508533 -0.00533024)
(-0.00247551 -0.0048807 -0.00609775)
(-0.00194062 -0.00512678 -0.00599814)
(-0.00537048 -0.00518995 -0.00747375)
(-0.00674764 -0.00582686 -0.00790407)
(-0.0065429 -0.00558536 -0.00758284)
(-0.00534756 -0.00503342 -0.00720401)
(-0.00442198 -0.00515029 -0.00725124)
(-0.00423429 -0.00474369 -0.00693746)
(-0.0098914 -0.00868367 -0.00897566)
(-0.010374 -0.00927854 -0.00845127)
(-0.00992407 -0.00809373 -0.00855712)
(-0.00895427 -0.0073248 -0.00863338)
(-0.00904513 -0.00762493 -0.00881206)
(-0.0105197 -0.00898808 -0.00825233)
(-0.00353813 -0.00544354 -0.00727622)
(-0.00533634 -0.00617261 -0.00863897)
(-0.00512355 -0.0059076 -0.00797486)
(-0.00339679 -0.00543938 -0.00700833)
(-0.00400843 -0.00532751 -0.00726196)
(-0.00411935 -0.00567178 -0.00762799)
(-0.00151009 -0.020327 -0.0083541)
(-0.00117297 -0.0197808 -0.00932088)
(-0.00163202 -0.0202527 -0.00893798)
(-0.0023621 -0.019806 -0.00743648)
(-0.00247498 -0.0198498 -0.00713033)
(-0.00181322 -0.0195091 -0.00738711)
(-0.00474685 -0.017927 -0.00559514)
(-0.0059695 -0.017896 -0.00553832)
(-0.00552682 -0.018041 -0.00549149)
(-0.00620636 -0.0181918 -0.00586471)
(-0.00474835 -0.0182202 -0.00570428)
(-0.00521618 -0.0188631 -0.00622123)
(-0.00158867 -0.0182103 -0.00962616)
(-0.00180109 -0.0176943 -0.00941876)
(-0.00127887 -0.0175231 -0.0104311)
(-0.0010747 -0.0171728 -0.0100137)
(-0.00207846 -0.0186034 -0.00919587)
(-0.00177893 -0.018146 -0.0101274)
(-0.00293624 -0.0178195 -0.00961088)
(-0.0023546 -0.0174313 -0.0107913)
(-0.00290627 -0.0181088 -0.0105629)
(-0.00241694 -0.0182097 -0.0107662)
(-0.00247396 -0.0174834 -0.0092036)
(-0.00296862 -0.0179573 -0.00902678)
(-0.0116993 -0.0121086 -0.00540634)
(-0.0118055 -0.0113755 -0.00583708)
(-0.0114984 -0.0116016 -0.00629569)
(-0.0116691 -0.0142396 -0.00521155)
(-0.0115039 -0.014002 -0.00488138)
(-0.0117556 -0.01261 -0.00548581)
(-0.0101402 -0.0113369 -0.00654807)
(-0.0100957 -0.00927652 -0.0069413)
(-0.0110846 -0.0108688 -0.0059167)
(-0.00992693 -0.00982631 -0.00673607)
(-0.0105775 -0.0104617 -0.00671467)
(-0.000559509 -0.0179834 -0.00439319)
(-0.00163054 -0.0183836 -0.00425772)
(-0.00162847 -0.0176821 -0.00431603)
(0.000296298 -0.0184464 -0.00631619)
(8.22658e-05 -0.0192776 -0.00616045)
(-0.0010226 -0.0180931 -0.0052363)
(-0.00788465 -0.0175362 -0.00235515)
(-0.00777301 -0.0185764 -0.00311082)
(-0.00906281 -0.0187086 -0.00367477)
(-0.0067559 -0.0199921 -0.0034853)
(-0.00829319 -0.0179454 -0.00326842)
(-0.0063895 -0.0194938 -0.00309576)
(-0.00417316 -0.0195906 -0.00682427)
(-0.00322333 -0.0192427 -0.00660471)
(-0.00558536 -0.0189988 -0.00467761)
(-0.00499429 -0.0202104 -0.00555136)
(-0.00530618 -0.0183205 -0.00503844)
(-0.00398671 -0.0201836 -0.0060209)
(-0.00521303 -0.0182648 -0.0026666)
(-0.00404818 -0.0188575 -0.00361666)
(-0.00653584 -0.0187426 -0.00321183)
(-0.00630806 -0.0188821 -0.00325081)
(-0.00423024 -0.0189678 -0.0033324)
(-0.0106546 -0.0165556 -0.00405799)
(-0.00995588 -0.0160668 -0.00423301)
(-0.0117887 -0.0141508 -0.00482167)
(-0.0112274 -0.0143814 -0.00478347)
(-0.0110698 -0.0153967 -0.00456957)
(-0.0110822 -0.0148311 -0.00395666)
(-0.00730767 -0.0189845 -0.00497333)
(-0.0086978 -0.0168117 -0.00462414)
(-0.00835008 -0.0180377 -0.00487523)
(-0.00855937 -0.0177857 -0.00393856)
(-0.0099972 -0.0172723 -0.00409817)
(-0.00670212 -0.00753815 -0.00977985)
(-0.00664461 -0.00790696 -0.00992607)
(-0.00780566 -0.0083754 -0.0103849)
(-0.0075297 -0.00803229 -0.00988643)
(-0.00573139 -0.00678973 -0.00917328)
(-0.00577889 -0.00705025 -0.00936494)
(-0.00940172 -0.0142718 -0.0105535)
(-0.00973963 -0.0160106 -0.0109219)
(-0.00910927 -0.0163766 -0.0104335)
(-0.0102798 -0.017144 -0.0110666)
(-0.00990706 -0.0148311 -0.0107752)
(-0.00930197 -0.0158847 -0.010875)
(-0.00946601 -0.0120003 -0.0102906)
(-0.00972148 -0.0122566 -0.01069)
(-0.0100976 -0.0137297 -0.0103069)
(-0.00979413 -0.0137569 -0.010345)
(-0.0102385 -0.0135801 -0.0109882)
(-0.0100247 -0.0134738 -0.0107361)
(-0.00605084 -0.00728647 -0.00964623)
(-0.0045342 -0.00654952 -0.00880998)
(-0.00514766 -0.00677949 -0.00916216)
(-0.00436071 -0.00653037 -0.00855599)
(-0.0052557 -0.00714478 -0.00934424)
(-0.00114895 -0.0070809 -0.00499868)
(-0.00103567 -0.00644478 -0.00538047)
(-0.00122101 -0.00609517 -0.0052754)
(-0.00079856 -0.00819969 -0.00462516)
(-0.00121886 -0.0058488 -0.00556017)
(-0.000842951 -0.00726234 -0.00480834)
(-0.00312855 -0.00533256 -0.00717957)
(-0.00381651 -0.00582368 -0.00762628)
(-0.00273155 -0.00545577 -0.00705235)
(-0.00393474 -0.00588338 -0.00806503)
(-0.00468875 -0.00571501 -0.00811374)
(-0.00532094 -0.00656343 -0.00899646)
(-0.00563646 -0.00638563 -0.00893682)
(-0.00441076 -0.00505423 -0.00790634)
(0.00117238 -0.0133169 -0.00561517)
(0.0010531 -0.0114793 -0.00499737)
(0.00167481 -0.0137452 -0.00522134)
(0.000838948 -0.014406 -0.00443377)
(0.00171084 -0.0168774 -0.00569999)
(-0.00971658 -0.0178027 -0.0135593)
(-0.010286 -0.0187416 -0.0140931)
(-0.0102907 -0.0182103 -0.0130072)
(-0.00991186 -0.0175913 -0.0119316)
(-0.0107563 -0.0185855 -0.0124432)
(-0.0101066 -0.0179001 -0.0129622)
(-0.0100411 -0.0165767 -0.0155663)
(-0.00892455 -0.0149067 -0.0146474)
(-0.00940865 -0.0154222 -0.0139011)
(-0.00899079 -0.0159343 -0.0148291)
(-0.00896104 -0.0153223 -0.0152017)
(-0.0095206 -0.0147065 -0.0135551)
(-0.00889994 -0.0151858 -0.0149298)
(-0.00870582 -0.0175498 -0.0165035)
(-0.00770621 -0.0163845 -0.0162019)
(-0.00741925 -0.015739 -0.0154082)
(-0.00796056 -0.0171381 -0.0156466)
(-0.00134472 -0.00595692 -0.00585729)
(-0.00113977 -0.00642138 -0.00522123)
(-0.00123918 -0.00588907 -0.00532892)
(-0.00113911 -0.005788 -0.00508962)
(-0.00130278 -0.00662037 -0.00606875)
(-0.00137604 -0.00604899 -0.00577228)
(-0.00652707 -0.0164591 -0.0164329)
(-0.00559604 -0.0169196 -0.0161166)
(-0.00499738 -0.0161138 -0.0156024)
(-0.00611392 -0.016749 -0.0162909)
(-0.00630301 -0.0162432 -0.0158604)
(-0.00458922 -0.0170835 -0.0150687)
(-0.00232831 -0.00541045 -0.00670456)
(-0.00235109 -0.00556083 -0.00681353)
(-0.00326557 -0.00579603 -0.00788394)
(-0.00325506 -0.00573784 -0.00800287)
(-0.00301942 -0.0060978 -0.00803917)
(-0.00269622 -0.00549407 -0.00725111)
(-0.00183228 -0.00548244 -0.00647581)
(-0.0021487 -0.00551641 -0.00690383)
(-0.00191769 -0.0053102 -0.0065012)
(-0.0020944 -0.00560732 -0.00698707)
(-0.00159937 -0.00634787 -0.00605644)
(-0.00172229 -0.00547927 -0.00596728)
(-0.0015426 -0.0078169 -0.00547738)
(-0.00152162 -0.00770376 -0.00546664)
(-0.00144744 -0.00713704 -0.00544524)
(-0.00152155 -0.00691613 -0.00552659)
(-0.00150192 -0.00686007 -0.00604944)
(-0.00147382 -0.00760767 -0.00544901)
(-0.00671209 -0.0129428 -0.00900603)
(-0.00719522 -0.0125694 -0.00933553)
(-0.00789159 -0.0129829 -0.0100779)
(-0.00233844 -0.00837486 -0.00534818)
(-0.00194741 -0.00878551 -0.00598424)
(-0.00225548 -0.00890021 -0.00602325)
(-0.00293976 -0.00953323 -0.00591599)
(-0.0027078 -0.00934672 -0.00592536)
(-0.00156024 -0.00682495 -0.00534195)
(-0.00122236 -0.00633651 -0.00585033)
(-0.00147606 -0.00699365 -0.00616246)
(-0.00194665 -0.00760158 -0.00529984)
(0.00160252 -0.016501 -0.0138734)
(-0.00032617 -0.0143853 -0.0137828)
(0.000596876 -0.0156449 -0.0134528)
(-0.00825569 -0.018543 -0.0106473)
(-0.00826155 -0.0184413 -0.0115517)
(-0.00804044 -0.0180816 -0.00960151)
(-0.00764129 -0.0177495 -0.0102241)
(-0.00828014 -0.0180364 -0.0111282)
(-0.00829163 -0.0182023 -0.00970241)
(-0.00943182 -0.0192139 -0.0129964)
(-0.00909299 -0.0177273 -0.0116656)
(-0.0100002 -0.0186042 -0.0114401)
(-0.00975595 -0.0192886 -0.0133383)
(-0.0097007 -0.0185577 -0.0109747)
(-0.0094721 -0.0201173 -0.0125302)
(-0.0078538 -0.0152135 -0.0157966)
(-0.00719151 -0.0157911 -0.0162712)
(-0.00709533 -0.0138801 -0.0149415)
(-0.00715231 -0.0151467 -0.0161722)
(-0.00841772 -0.0157231 -0.0162364)
(-0.00758997 -0.0147611 -0.0159946)
(-0.00777449 -0.0198296 -0.00613662)
(-0.008055 -0.0206396 -0.00710723)
(-0.00599317 -0.0170088 -0.0146126)
(-0.0052284 -0.015667 -0.0145567)
(-0.00557227 -0.0151946 -0.0132907)
(-0.00611892 -0.0152336 -0.01284)
(-0.00462316 -0.0151275 -0.0144586)
(-0.00467919 -0.0155177 -0.0143135)
(-0.0027104 -0.0156784 -0.0148729)
(-0.000271722 -0.0153069 -0.0139743)
(-0.00183036 -0.0151856 -0.0145585)
(-0.0013949 -0.0155627 -0.0147011)
(-0.00189434 -0.00769031 -0.00540307)
(-0.0022638 -0.0061681 -0.00694142)
(-0.00195369 -0.00553059 -0.00663871)
(-0.00173478 -0.00604275 -0.00672052)
(-0.00598893 -0.0124736 -0.00791301)
(-0.00739336 -0.0140954 -0.00891997)
(-0.00714933 -0.0133387 -0.00896655)
(-0.00647466 -0.0120166 -0.00796189)
(-0.00673199 -0.0124687 -0.00817457)
(-0.00819853 -0.0140202 -0.0099218)
(-0.00135222 -0.00570238 -0.00500602)
(-0.00127411 -0.00514675 -0.00563905)
(-0.00145633 -0.00615281 -0.00608628)
(-0.00122915 -0.0058922 -0.00545012)
(-0.00156731 -0.00654395 -0.00597725)
(-0.00158316 -0.00562143 -0.00591119)
(-0.00128368 -0.00589965 -0.00542803)
(-0.00125814 -0.00617793 -0.00530224)
(-0.00123629 -0.00601318 -0.00509308)
(-0.00125807 -0.00667059 -0.00613021)
(-0.00140199 -0.00657022 -0.00578226)
(-0.00134077 -0.00647915 -0.00536404)
(-0.00123001 -0.00614558 -0.00544691)
(-0.00259266 -0.00571074 -0.00737715)
(-0.00530404 -0.0163779 -0.0166367)
(-0.0037809 -0.0169206 -0.0148815)
(-0.00455286 -0.0165377 -0.0161895)
(-0.00490732 -0.01774 -0.0174708)
(-0.00817358 -0.0142337 -0.0101204)
(-0.00107318 -0.00833598 -0.00495646)
(-0.00904395 -0.0162131 -0.0145296)
(-0.00907018 -0.0160467 -0.0150395)
(-0.00960275 -0.0167216 -0.0153182)
(-0.00977086 -0.0170524 -0.013862)
(-0.00964707 -0.0182953 -0.0155648)
(-0.0100879 -0.0162121 -0.012393)
(-0.00894636 -0.01498 -0.011714)
(-0.00975041 -0.0149025 -0.0121944)
(-0.0100376 -0.0161824 -0.0135993)
(0.00189962 -0.0131596 -0.00576696)
(0.00287939 -0.0146587 -0.00595412)
(0.00253055 -0.0149515 -0.00534045)
(-0.00171885 -0.00568896 -0.0056074)
(-0.00144003 -0.00585806 -0.00547116)
(-0.00164697 -0.00589604 -0.00579936)
(-0.00141563 -0.00673195 -0.00562827)
(-0.000898011 -0.00768822 -0.00498433)
(-0.00223315 -0.00538323 -0.00636942)
(-0.00244849 -0.00565214 -0.00690788)
(-0.00235506 -0.00556828 -0.00658242)
(-0.000906747 -0.00690579 -0.00478673)
(-0.000865732 -0.00629202 -0.00437233)
(-0.00111718 -0.00589754 -0.00467149)
(-0.00381145 -0.00598692 -0.0081966)
(-0.00331669 -0.00596434 -0.00757169)
(-0.00285414 -0.00622892 -0.00719964)
(-0.0035831 -0.00617626 -0.00812327)
(-0.00379676 -0.0066955 -0.0087561)
(-0.00417608 -0.00655365 -0.00904651)
(-0.00423381 -0.00701265 -0.00889268)
(-0.00304294 -0.00576031 -0.00770414)
(-0.00432106 -0.00601879 -0.00854455)
(-0.0103838 -0.0114566 -0.0110081)
(-0.0104123 -0.0115449 -0.0104272)
(-0.0107195 -0.0135709 -0.0111923)
(-0.00915719 -0.0111225 -0.0103191)
(-0.0100439 -0.0159241 -0.0112786)
(-0.00912199 -0.0132847 -0.0103843)
(-0.00524011 -0.00686663 -0.00937296)
(-0.00947495 -0.0102043 -0.0108281)
(-0.00936049 -0.010143 -0.0104981)
(-0.00861342 -0.00911462 -0.0105788)
(-0.00868642 -0.00905766 -0.0104113)
(-0.00481538 -0.00716055 -0.00918759)
(-0.00482759 -0.00718658 -0.00942216)
(-0.0090642 -0.0171515 -0.0105582)
(-0.00976646 -0.0173725 -0.00482161)
(-0.00666777 -0.0180694 -0.005132)
(-0.00768215 -0.0170992 -0.00220516)
(-0.00887847 -0.0180435 -0.00343304)
(-0.00601125 -0.0192412 -0.00218333)
(-0.00514428 -0.019754 -0.00304256)
(-0.00307861 -0.0185301 -0.00442835)
(-0.00304185 -0.0185478 -0.00415554)
(-0.00227355 -0.0197583 -0.0044674)
(-0.00978153 -0.0159466 -0.00286718)
(-0.00965459 -0.0160995 -0.00315669)
(-0.00980148 -0.0171104 -0.00370247)
(-0.0104178 -0.0159388 -0.00378192)
(-0.0107413 -0.0157345 -0.00375495)
(-0.0112422 -0.0151611 -0.00438583)
(-0.0110261 -0.0140859 -0.00383257)
(-0.0107303 -0.012256 -0.00584522)
(-0.0109796 -0.010345 -0.00666066)
(-0.00316948 -0.0183533 -0.011511)
(-0.0040771 -0.0177797 -0.00701147)
(-0.00314625 -0.0174141 -0.00821527)
(-0.00345974 -0.0180136 -0.00808463)
(-0.00237238 -0.0178136 -0.00906182)