/*--------------------------------*- C++ -*----------------------------------*\
| =========                 |                                                 |
| \\      /  F ield         | OpenFOAM: The Open Source CFD Toolbox           |
|  \\    /   O peration     | Version:  v1612+                                |
|   \\  /    A nd           | Web:      www.OpenFOAM.com                      |
|    \\/     M anipulation  |                                                 |
\*---------------------------------------------------------------------------*/
FoamFile
{
    version     2.0;
    format      ascii;
    class       volScalarField;
    location    "100";
    object      p;
}
// * * * * * * * * * * * * * * * * * * * * * * * * * * * * * * * * * * * * * //

dimensions      [0 2 -2 0 0 0 0];

internalField   nonuniform List<scalar> 
17021
(
1.14264
0.940989
1.10165
1.02138
1.11387
1.03756
1.09601
1.08907
1.09185
1.08124
1.09083
1.08285
1.06731
1.08149
1.06455
1.06277
1.06167
1.06387
1.06891
1.0715
1.08721
1.09232
1.06848
1.08105
1.08728
1.09536
1.09243
1.09852
1.10001
1.10099
1.11028
1.10622
1.09486
1.07604
1.08894
1.10372
1.09681
1.08818
1.09161
1.10163
1.09442
1.09825
1.12429
1.11525
1.11773
1.10577
1.10843
1.12131
1.12175
1.09807
1.09701
1.1251
1.12364
1.12795
1.10031
1.1066
1.1099
1.10527
1.1103
1.11879
1.12158
1.1267
1.1224
1.10402
1.09896
1.10301
1.10424
1.11227
1.12174
1.12424
1.09921
1.10514
1.10191
1.11915
1.10158
1.1093
1.11632
1.11328
1.1151
1.10818
1.1058
1.10659
1.12033
1.09923
1.10342
1.08774
1.10659
1.10345
1.10966
1.10744
1.11308
0.98264
0.988149
0.988095
1.01811
1.00977
0.992559
0.989818
0.998834
0.992409
0.991019
0.991861
1.02081
1.01848
1.01313
1.0033
1.00926
0.998469
1.09743
1.10553
1.0964
1.09045
1.10494
1.10688
1.10538
1.07785
1.0892
1.08359
1.07879
1.09468
1.07973
1.08783
1.08784
1.08078
1.07178
1.08951
1.09238
1.07801
1.09342
1.05259
1.05401
1.04069
1.0452
1.02803
1.04803
1.03722
1.0484
1.04243
1.05475
1.06554
1.06993
1.04816
1.05347
1.05571
1.04027
1.08546
1.08111
1.09011
1.09347
1.06646
1.06553
1.09344
1.07428
1.08744
1.09717
1.10509
1.08758
1.08558
1.07308
1.08115
1.0691
1.07881
1.09832
1.12688
1.11721
1.12785
1.12177
1.11231
1.11376
1.0937
1.09149
1.09766
1.08152
1.09374
1.08593
1.0968
1.08183
1.09486
1.08616
1.08119
1.07656
1.08678
1.09173
1.08371
1.09093
1.0859
1.10474
1.09763
1.09032
1.08737
1.10617
1.10765
1.09777
1.11055
1.10797
1.1034
1.10222
1.1116
1.10577
1.10496
1.10849
1.11208
1.11228
1.11612
1.11786
1.1102
1.11912
1.10941
1.10999
1.11307
1.12086
1.11452
1.12098
1.11087
1.11746
1.11938
1.12007
1.02957
1.0362
1.03218
1.0327
1.0496
1.03633
1.05308
1.03452
1.03128
1.0292
1.02325
1.04353
1.05559
1.01706
1.0138
1.02115
1.021
1.02424
1.07765
1.06855
1.06535
1.07615
1.06979
1.07516
1.05761
1.04368
1.04335
1.04364
1.06703
1.07188
1.06263
1.06002
1.04408
1.04983
1.05451
1.0618
1.07088
1.06677
1.07366
1.06993
1.07616
1.10094
1.09563
1.05976
1.05938
1.07237
1.08533
1.07679
1.09001
1.10241
1.07281
1.09438
1.04429
1.05124
1.05241
1.05939
1.05621
1.05725
1.06447
1.05667
1.06138
1.05159
1.05987
1.0776
1.08021
1.06231
1.06025
1.00357
1.00032
1.0009
1.00543
0.992795
1.00487
1.00608
0.993861
1.00962
1.01258
1.00239
1.01356
1.02425
1.02361
1.01999
1.0171
1.07526
1.07795
1.08695
1.08327
1.0654
1.07978
1.08282
1.09354
1.08902
1.10459
1.10291
1.0933
1.08602
1.08353
1.09793
1.08881
1.09035
1.0974
1.08839
1.09307
1.08494
1.07936
1.09322
0.962645
0.960766
0.947206
0.947134
0.959754
0.961684
0.959429
0.957186
0.95178
0.951767
0.95006
0.969383
0.960142
1.045
1.0485
1.03982
1.04121
1.05593
1.05231
1.06044
1.06407
1.04573
1.03512
1.04038
1.04713
1.0553
1.02606
1.03763
1.04122
1.02774
1.03051
1.02826
1.03536
1.03863
1.09957
1.10668
1.10859
1.11831
1.08937
1.09311
1.1138
1.11075
1.12192
1.1288
1.10655
1.11603
1.10959
1.11457
1.11957
1.10493
1.10214
1.11277
1.1157
1.12241
1.00034
0.997241
0.989439
0.999305
1.01379
1.00458
1.01202
1.01687
1.0084
1.01057
1.02141
1.00867
1.01947
0.998396
1.01945
0.993591
0.982689
0.976663
0.984219
0.911899
0.906051
0.916297
0.912635
0.923883
0.915966
0.922747
0.916998
0.920422
0.918701
0.920706
1.10568
1.1107
1.10921
1.11303
1.10145
1.09809
1.09828
1.11193
1.10995
1.09698
1.10285
1.10977
1.02418
1.03591
1.03036
1.02503
1.02583
1.03111
1.01965
1.02535
1.03509
1.04478
1.03532
1.0428
1.04749
1.07809
1.08134
1.07876
1.0788
1.08531
1.08207
1.08509
1.07862
1.08346
1.08339
1.08934
1.09859
0.972326
0.960755
0.972029
0.973384
0.978311
0.97521
0.969053
0.979973
0.969173
0.978475
0.968915
0.968853
0.960984
0.956418
0.970662
0.961266
0.966841
0.960894
1.07079
1.06315
1.08694
1.09088
1.08837
1.08004
1.07205
1.0725
1.06224
1.06566
1.06289
1.07061
1.08563
1.08523
1.07508
1.06644
1.07176
1.06883
1.02983
1.03428
1.02036
1.03307
1.03739
1.04179
1.03518
1.03081
1.02425
1.03321
1.00556
1.04534
1.02055
1.05445
1.05689
1.06796
1.04952
1.03911
1.03121
1.0404
1.05764
1.03746
1.0827
1.06705
1.07259
1.07729
1.0827
1.07615
1.08123
1.07555
1.08684
1.07072
1.07964
1.07849
1.08034
1.06517
1.08799
1.08215
1.0704
0.980707
0.970207
0.96424
0.974599
0.969167
0.967672
0.983289
0.991376
0.977707
0.984552
0.989325
1.00687
1.00588
0.980087
0.983845
0.998176
0.99003
1.00126
0.98832
1.11542
1.11153
1.11519
1.09724
1.1003
1.10635
1.1171
1.11183
1.11872
1.1151
1.11926
1.1168
1.11485
1.11695
1.12069
1.11175
1.12117
1.10423
1.11229
1.10274
0.97461
0.973332
0.97189
0.98336
0.982107
0.989799
1.0033
1.00337
0.995028
0.990631
0.99045
0.980894
0.979548
0.988133
0.985323
0.97997
0.996299
0.988472
1.00639
0.997921
0.997198
0.984253
0.996483
0.991975
1.06446
1.06022
1.06537
1.05978
1.07178
1.08351
1.08477
1.08889
1.08765
1.07773
1.08193
1.0568
1.05313
1.06746
1.06033
1.06491
1.05938
1.08008
1.08545
1.07972
1.05896
1.07182
0.982921
0.979904
0.977621
0.981891
0.983007
0.992707
0.992367
0.970258
0.976963
1.00461
0.983681
0.975799
0.970622
0.985079
0.981142
0.988339
0.993761
0.989635
0.99169
0.969742
0.98278
0.984536
0.992703
0.991756
0.952024
0.959156
0.954098
0.964307
0.97877
0.986022
0.982499
0.962917
1.00108
1.07575
1.07311
1.09633
1.10048
1.09267
1.09111
1.10756
1.09913
1.10583
1.0878
1.08626
1.08919
1.09643
1.08217
1.08627
1.09964
1.09653
1.10449
1.08987
1.09614
1.08569
1.04448
1.04791
1.05354
1.04691
1.03972
1.02608
1.03275
1.06252
1.04214
1.05791
1.05249
1.06431
1.01808
1.04587
1.05286
1.05541
1.03611
1.03691
1.02839
1.05561
1.05085
1.07935
1.0599
1.0766
1.08512
1.08879
1.06849
1.07113
1.08133
1.08975
1.07953
0.959089
0.954451
0.961442
0.963583
0.97669
0.975089
0.973723
0.971209
0.956765
0.964614
0.970127
0.960854
0.96058
1.02632
1.03025
1.03294
1.0346
1.0238
1.03153
1.04658
1.06589
1.07091
1.02975
1.04317
1.04096
1.06239
1.003
1.00151
1.01811
1.01237
1.02242
1.02513
1.02043
1.01035
1.00684
1.00734
1.02723
1.01496
1.00708
1.02657
1.01094
1.0099
1.01492
1.01133
1.01044
1.00264
1.00564
0.999602
0.998513
1.00513
1.0062
1.00154
0.996355
1.00419
0.99437
0.995519
0.997255
0.999377
0.993574
0.99489
0.996608
1.0076
1.01084
1.0046
0.999807
1.00697
0.997095
1.01013
1.01274
1.00189
1.0172
1.01106
1.01495
1.02137
1.00302
1.02234
0.951595
0.956585
0.950042
0.943074
0.94252
0.949834
0.944811
0.948291
0.939568
0.962176
0.956608
0.955126
0.951015
0.933152
0.949107
0.943796
0.941775
1.08376
1.07927
1.09034
1.08753
1.10036
1.1002
1.10448
1.10599
1.09251
1.10233
1.07419
1.07677
1.09953
1.08994
1.09751
1.09277
1.09389
1.08294
1.09588
1.08149
1.06312
1.06178
1.05782
1.06112
1.03978
1.04717
1.06454
1.0465
1.04039
1.04029
1.04589
1.0418
1.06026
1.05866
1.05381
1.08431
1.09239
1.07877
1.06663
1.08225
1.08412
1.05311
1.05971
1.07397
1.06268
1.06816
1.06406
1.06186
1.05344
1.06195
1.0693
1.02985
1.03814
1.03646
1.0295
1.03364
1.03181
1.05261
1.04026
1.05483
1.06676
1.06276
1.05686
1.05821
1.04787
1.07017
1.05169
1.05283
1.06495
1.07006
0.990307
0.991841
0.991074
0.982297
0.970643
0.966862
0.981669
0.975318
0.97097
0.980804
1.03474
1.03669
1.04078
1.03571
1.05134
1.01921
1.02887
1.04736
1.05102
1.02061
1.00528
1.03124
1.00861
1.01348
1.01901
1.01976
1.01409
1.02557
0.995463
1.01071
0.994404
1.0107
1.00433
1.01007
0.999622
1.01313
1.00895
1.01942
1.00628
0.993955
0.991583
0.994584
1.00177
1.1211
1.12068
1.11836
1.11474
1.13345
1.12217
1.123
1.12693
1.12172
1.11726
1.10619
1.10176
1.10847
1.11029
1.11614
1.12271
1.11837
1.12386
1.10908
1.11091
1.11257
1.1156
1.09795
1.11262
1.11067
1.10745
1.13062
1.13697
1.13891
1.12481
1.13622
1.14608
1.13049
1.12373
1.11824
1.12896
1.14099
1.13731
1.1409
1.10863
1.1073
1.12385
1.12618
1.13428
1.11142
1.11279
1.1105
1.10203
1.10472
1.1092
0.989015
0.992207
0.985196
0.981731
0.990562
0.990713
0.98899
1.00396
0.992827
0.988136
0.985825
0.996786
0.997223
0.9981
0.991265
1.08144
1.07457
1.09229
1.08738
1.07188
1.08265
1.07854
1.07593
1.07318
1.09212
1.08562
1.09195
1.08216
1.08525
1.09758
1.09709
1.09185
1.09593
1.11602
1.12427
1.09474
1.10631
1.11
1.10923
1.11788
1.10505
1.10555
1.10305
1.12342
1.12725
1.10564
1.11704
1.12129
1.11895
1.05303
1.05001
1.06875
1.06505
1.05766
1.05826
1.05815
1.04763
1.06145
1.06244
1.07532
1.07476
1.07332
1.06568
1.06209
1.05985
1.07638
1.06961
1.06936
1.06703
1.08263
1.0908
1.08561
1.10098
1.09479
1.0798
1.08114
1.09378
1.10322
1.07559
1.10877
1.08748
1.08979
1.09628
1.09007
1.10538
1.11153
1.11121
1.11224
1.09494
1.08517
1.09153
1.10498
1.10267
1.10596
1.09035
1.0879
1.0964
1.10687
1.09962
1.12011
1.10139
1.09553
1.10457
1.10785
1.11762
1.12454
1.11334
1.11447
1.11392
1.10814
1.11514
1.11317
1.11264
1.11569
1.1097
1.11543
1.10658
1.11283
1.1077
1.10558
1.10536
1.10894
1.09529
1.09183
1.0885
1.10711
1.10263
1.07821
1.07161
1.06851
1.06993
1.07209
1.06783
1.06385
1.05051
1.05558
1.06439
1.06162
1.06796
1.06298
1.06493
0.903596
0.907673
0.904268
0.900369
0.912964
0.914003
0.91043
0.909737
0.928627
0.911686
0.927109
0.923223
0.9207
0.929437
0.916144
0.931931
0.92505
0.926146
0.945386
0.945147
0.948037
0.946506
0.937031
0.949423
0.952378
0.945637
1.07894
1.0969
1.07995
1.07902
1.10257
1.09484
1.07663
1.08928
1.10465
1.07701
1.09567
1.08927
1.10353
1.11071
1.10059
1.10039
1.10436
1.0923
1.10899
1.10724
1.14107
1.14534
1.13386
1.14125
1.14982
1.13924
1.14082
1.13224
1.11989
1.11888
1.1334
1.14193
1.13223
1.13591
1.14128
1.13666
1.1379
1.13622
1.09496
1.08917
1.08345
1.087
1.09233
1.08732
1.09701
1.09396
1.09714
1.09819
1.09489
1.09698
1.0969
1.02905
1.02516
1.03194
1.03978
1.03702
1.03451
1.03775
1.03025
1.02563
0.962962
0.955152
0.962989
1.093
1.08823
1.08144
1.09083
1.08332
1.07334
1.08064
1.11122
1.10781
1.10313
1.13267
1.13429
1.13472
1.07171
1.07313
1.06838
1.06894
1.04167
1.04373
0.990843
0.987654
1.15231
1.15157
1.14503
1.14066
0.958763
0.96853
0.962332
1.11653
1.11099
1.12139
1.11913
1.06299
1.06782
1.12875
1.13856
1.13762
1.13528
0.928844
0.939716
0.923737
1.00065
0.991381
1.01564
1.00708
0.937784
0.934039
0.939197
1.0741
1.05833
1.0574
1.14743
1.14716
1.1524
1.0925
1.08284
1.11876
1.11868
1.11392
1.12779
1.12717
1.13173
1.13543
1.12995
1.13272
1.07668
1.0712
1.12188
1.11725
1.08002
1.08357
1.04189
1.03694
1.12264
1.12403
0.909298
0.90691
1.10528
1.09169
1.05071
1.05486
1.13564
1.13169
1.13489
1.14474
1.14751
1.14435
1.13137
1.13427
1.12992
1.12522
1.10446
1.10144
1.11214
1.1137
1.11956
1.12333
1.00312
1.00478
1.01232
1.02003
1.0141
1.01805
1.06793
1.08048
1.07691
0.988405
0.985455
0.996683
1.08187
1.0759
1.07669
1.14397
1.14113
1.11925
1.11486
1.12391
1.12312
1.04855
1.04723
1.05319
1.02223
1.02016
0.942142
1.09551
1.09298
1.04774
1.04158
1.00313
1.01345
1.00878
1.14556
1.14851
1.14962
1.13655
1.13146
1.12721
1.11303
1.10701
1.11477
1.10944
1.14468
1.15204
1.14941
1.14728
0.946253
0.943036
1.06633
1.0602
1.12293
1.11969
1.12442
1.12435
1.08343
1.07865
1.12279
1.12655
0.968566
0.966419
0.96918
1.10054
1.09426
1.1223
1.12036
1.12407
1.08219
1.07588
1.07799
0.923709
0.925845
0.931085
1.1054
1.10368
1.10942
0.996702
0.991831
0.91108
0.914672
0.963574
0.956139
0.953799
0.940409
0.981808
0.977541
1.04405
1.04182
1.03198
1.02454
1.02625
1.02997
1.02997
1.04118
1.01096
1.00969
1.03601
1.04082
0.964258
0.969762
0.974726
0.975281
0.958694
0.975976
0.988047
1.00912
0.997938
1.02135
1.00978
1.00651
1.01835
1.02896
0.985887
0.980925
0.981173
1.00645
1.00008
0.984862
0.991912
1.09122
1.08869
1.09352
1.07974
1.08576
1.08674
1.08748
1.09225
1.11955
1.12319
1.12313
1.11386
1.11125
1.11794
1.11476
1.10714
1.1171
1.12173
1.11478
1.11554
1.11605
1.11651
1.11595
1.10577
1.11147
1.11398
1.10433
1.10181
1.11096
1.10268
1.09758
1.10964
1.10505
1.10384
0.924307
0.919339
0.933374
0.940898
0.943059
0.932078
0.93541
0.935823
0.941164
0.934545
0.936463
0.930832
0.937088
0.916158
0.918082
0.924943
1.04595
1.05398
1.0481
1.09699
1.08934
1.09297
1.07895
1.05504
1.05732
1.10061
1.09531
1.07851
1.08483
1.08134
1.09183
1.08655
1.07127
1.0757
1.08433
1.08255
1.08429
1.06746
1.06733
1.12978
1.12848
1.11777
1.13568
1.12779
1.11858
1.10428
1.10695
1.11304
1.1105
1.11049
1.132
1.13203
1.1349
1.1279
1.11758
1.12191
1.12521
1.12713
1.11388
1.12491
1.11288
1.12339
1.05477
1.05955
1.09206
1.10656
1.1019
1.12198
1.11417
1.11905
1.111
1.10463
1.11144
1.07977
1.0788
1.08519
1.08926
1.06808
1.06489
1.0977
1.09754
1.09362
1.10051
1.10599
1.08881
1.08735
0.991573
0.989314
0.969866
0.976638
0.973159
0.987605
0.958815
0.970057
0.965372
0.966533
0.960384
0.961964
0.970327
0.967437
0.966627
0.965165
0.962921
0.970034
0.989199
0.982609
0.980236
0.983532
0.982292
0.984658
0.991542
0.980776
0.978944
0.984275
0.973574
0.974166
0.974486
0.982861
0.986713
1.14593
1.14587
1.13876
1.12811
1.13277
1.12995
1.13171
1.13124
1.12747
1.12081
1.10709
1.12133
1.11806
1.09956
1.09688
1.0935
1.08929
1.12919
1.12241
1.1117
1.1231
1.11304
1.11939
1.11516
1.12029
1.12796
1.11241
1.1212
1.12488
1.11439
1.12459
1.1195
1.11161
1.12307
1.11699
1.04643
1.05433
1.05419
1.05451
1.07133
1.07013
1.08208
1.07017
1.06689
1.06082
1.05933
1.06164
1.06455
1.04327
1.04168
1.03002
0.949749
0.941288
0.940061
0.941193
1.15124
1.14746
1.1491
1.14866
1.14655
1.1442
1.14332
1.1384
1.14087
1.13854
1.14764
1.14194
1.14942
1.15191
1.15119
1.14464
1.1521
1.14706
1.15049
1.14155
1.14882
1.12506
1.12407
1.12281
1.12406
1.12808
1.13187
1.12932
1.13232
1.12659
1.11964
1.09209
1.09719
1.0989
1.10299
1.10952
1.11386
1.10678
1.10452
1.09622
1.10723
1.10484
1.11142
1.11233
1.09996
1.11525
1.13258
1.13678
1.1354
1.12328
1.136
1.11826
1.11163
1.11034
1.13297
1.13413
1.13082
1.12601
1.14439
1.14087
1.13695
1.13511
1.14345
1.14364
1.14435
1.14759
1.15015
1.14449
1.14746
1.1428
1.15409
1.14848
1.14236
1.15083
1.14055
1.14465
1.14291
1.14424
1.14662
1.14181
0.988697
0.985649
0.981027
0.987244
0.997894
1.02829
1.01823
1.01242
1.01563
1.02617
1.01614
1.03088
0.991748
0.994494
0.996358
0.992086
0.991947
0.98227
1.0143
1.0132
1.00044
1.00102
0.998654
1.02994
1.02144
1.04222
1.03025
1.03623
1.01297
1.01316
1.01902
1.02054
1.02698
1.02813
1.02866
1.0348
1.03971
1.02941
1.02726
1.01943
1.04186
1.0447
1.05963
1.0674
1.07533
1.07631
1.05904
1.05853
1.04173
1.036
1.03273
1.03601
1.03523
1.04408
1.0491
1.04476
1.0416
1.03804
1.05
1.1016
1.09628
1.09133
1.09753
1.08234
1.07954
0.946028
0.948517
0.948911
0.946669
0.951611
0.953374
0.942759
0.950582
0.936662
0.943632
0.954481
0.952454
0.949164
0.944074
0.948704
0.953069
0.949975
0.939548
0.945614
0.944114
0.939557
0.952507
0.95052
0.902397
0.907045
0.900287
0.902874
1.01233
1.01482
1.00031
1.00498
1.02821
1.04741
1.0509
1.03995
1.0359
1.03166
1.03598
1.03192
1.0006
1.00711
1.01961
1.0043
1.00099
1.0018
0.997657
1.03333
1.03146
1.02474
1.04541
1.03376
1.03259
1.04843
1.0147
1.02077
1.02073
1.02472
1.12109
1.12225
1.1125
1.11214
1.10465
1.11039
1.09956
1.11186
1.10894
0.899949
0.902516
1.14495
1.14526
1.13779
1.1354
1.13735
1.13783
1.13944
1.14156
1.13809
1.13651
1.14348
1.1427
1.13599
1.13449
1.1368
1.13066
1.13358
1.14217
1.13781
1.14326
1.13531
1.06793
1.08144
1.06986
1.06465
1.07333
1.08189
1.08165
1.08536
1.0706
1.07199
1.1096
1.11427
1.10606
1.07848
1.08415
1.07904
1.08965
1.09528
1.08911
1.08551
1.09444
1.1016
1.08651
1.09642
1.09014
1.1019
1.09232
1.08545
1.08461
1.08366
1.08744
1.01824
1.03042
1.07518
1.04993
1.05559
1.06623
1.05558
0.994268
0.99502
0.99601
0.993602
1.00523
1.01158
0.974791
0.976178
0.983818
0.978164
0.974258
0.986627
0.97663
0.980461
1.06688
1.06551
1.06807
1.05465
1.03599
1.03093
1.04539
1.03932
1.02829
1.02999
1.02403
1.03637
1.03758
1.01166
1.01281
0.992824
0.990471
1.00489
1.02009
1.0021
1.03309
1.02526
1.0217
1.00493
1.00695
1.0094
1.00662
0.998656
1.0046
1.00628
1.01362
1.00653
1.00318
1.00666
0.995507
1.00641
1.00857
1.00109
1.00251
0.98718
0.998641
0.991678
0.997957
0.990441
1.00152
1.12714
1.11591
1.11537
1.11856
1.10699
1.11893
1.11829
1.1129
1.12503
1.11784
1.06323
1.07622
1.08125
1.06748
1.09178
1.09994
1.10613
1.09069
1.10682
1.10278
1.1038
1.09551
1.10899
1.10931
1.10945
1.09835
1.09397
1.11015
1.13386
1.13478
1.13303
1.1241
1.11451
1.1126
1.10723
1.12228
1.12878
1.12587
1.11479
1.12039
1.13181
1.11717
1.13039
1.12577
1.12626
1.13169
1.125
1.12418
1.11992
1.1214
1.1029
1.10997
1.12512
1.13698
1.14256
1.13552
1.11048
1.11435
1.13096
1.11912
1.13162
1.1327
1.12466
1.14037
1.14378
1.13478
1.13527
1.1226
1.12954
1.1362
1.13147
1.12973
1.12299
1.12948
1.13528
1.12152
1.1332
1.13145
1.13679
1.13634
1.13158
1.13365
1.11901
1.12185
1.12191
1.1214
1.12524
1.13345
1.13863
1.14579
1.13331
1.1306
1.12155
1.13383
1.13058
1.15054
1.14932
1.14764
1.15181
1.14855
1.14551
1.1357
1.12929
1.13855
1.12996
1.14039
1.14042
1.13675
1.13625
1.13102
1.14106
1.14201
1.14443
1.15539
1.15328
1.14472
1.15477
1.14356
1.14755
1.15049
1.14853
1.06005
1.05016
1.13647
1.13214
1.13273
1.12759
1.12355
1.13077
1.12528
1.117
1.1225
1.12318
1.12737
1.1123
1.12804
1.12314
1.12861
1.14273
1.14025
1.14347
1.14169
1.13269
1.13581
1.13528
1.10579
1.12194
1.1204
1.1011
1.12329
1.12559
1.11756
1.12409
1.12424
1.10764
1.10688
1.10459
1.11245
1.11065
1.04588
1.04675
1.04371
1.05796
1.07204
1.06283
1.05692
1.04848
1.048
1.06101
1.04844
1.06816
1.08278
1.07795
1.08954
1.08995
1.09147
1.09963
1.07943
1.10817
1.11451
1.09137
1.09422
1.09964
0.909434
0.908814
0.908372
0.906069
0.913011
0.912115
0.912928
0.917449
0.911332
0.908903
0.908812
0.903625
0.901818
1.01538
1.06233
1.05871
1.04864
1.04882
1.06707
1.05942
1.04719
1.04376
1.03319
1.0451
1.04868
1.04988
1.05678
1.06484
1.05888
1.0363
1.05835
1.06082
1.06513
1.13303
1.13001
1.12993
1.1299
1.1241
1.13488
1.128
1.1302
1.13862
1.12629
1.13112
1.12487
1.12364
1.12944
1.12458
1.133
1.11676
1.12219
1.12773
1.12266
1.10298
1.10665
1.09918
1.1046
1.09438
1.11185
1.11039
1.11066
1.10558
1.11424
1.11114
1.11337
1.07414
1.09415
1.08671
1.07737
1.09374
1.07286
1.08063
1.09213
1.0942
1.08403
1.08346
1.08342
1.07623
1.07915
1.08856
1.0979
1.09968
1.12583
1.13227
1.12512
1.13476
1.12833
1.13564
1.13697
1.12583
1.10255
1.11951
1.1205
1.12189
1.11619
1.10661
1.10291
1.10476
1.1003
1.12228
1.12329
1.12038
1.11526
1.11164
1.12399
1.11169
1.12393
1.11985
1.10883
1.10763
1.10343
1.11382
1.10741
1.10836
1.10076
1.10594
1.10688
1.0905
1.09741
1.09498
1.05487
1.06294
1.10528
1.10492
1.10366
1.1012
1.1061
1.0813
1.08898
1.1129
1.10735
1.09675
1.09194
1.07435
1.07156
1.05578
1.07975
1.07798
1.09204
1.10599
1.09316
1.07963
1.08633
1.07642
1.14391
1.13072
1.14183
1.12881
1.14175
1.1472
1.14588
1.15173
1.13904
1.13543
1.14583
1.15195
1.14543
1.1554
1.15155
1.14423
1.14071
1.14719
1.15207
1.14833
1.14825
1.14101
1.14841
1.14304
1.14507
1.13984
1.05346
1.04813
1.05327
1.04357
1.0441
1.0421
1.02268
1.01949
1.00448
0.944622
0.945624
0.938585
0.938426
0.941766
0.945665
0.944068
0.960363
0.959177
0.947231
0.949682
0.947405
0.948731
0.954279
0.960724
0.960759
0.959772
0.941799
0.947123
0.948599
0.946701
1.04133
1.03334
1.04648
1.02911
1.04006
1.03507
1.02877
1.02874
1.03685
1.02985
1.02282
1.00556
1.01472
1.01404
1.01804
1.01563
1.02315
1.02245
1.01652
0.989899
0.992624
0.993975
0.990346
1.00236
1.00581
1.00569
0.996604
0.981252
0.975173
0.983513
0.981594
0.973944
0.973419
1.02205
1.0235
1.01361
1.015
0.957284
0.951288
0.943098
0.947887
0.957702
0.937741
0.941728
0.941336
0.947468
1.13342
1.13237
1.13297
1.1241
1.14491
1.13472
1.12049
1.12837
1.12636
1.12267
1.13784
1.05377
1.05858
1.06327
1.0455
1.0408
1.05956
1.06376
1.0395
1.04592
1.06434
1.06427
1.05749
1.06825
1.06662
1.05718
1.07562
1.08234
1.06944
1.0677
1.06238
1.05137
1.05003
1.06314
1.05701
1.03673
1.05572
1.0615
1.0369
1.03615
1.13548
1.13286
1.12261
1.1151
1.12079
1.11211
1.10985
1.09229
1.11394
1.15729
1.15772
1.14167
1.14191
0.951002
0.953414
0.951926
0.951128
0.950007
0.960058
0.957958
0.94913
0.951968
0.959455
0.953495
0.953882
0.957356
0.9617
0.981551
0.976919
0.977485
0.970923
0.978218
0.968212
0.981306
0.972145
0.960318
0.961208
1.147
1.14734
1.14112
1.13914
1.13369
1.14706
1.13809
1.14839
1.14142
1.12805
1.14236
1.13215
1.1316
1.12509
1.14314
1.13267
1.12843
1.13849
1.13774
1.1334
1.1452
1.14138
1.10245
1.09641
1.10176
1.09202
1.08947
1.08767
1.10323
1.10382
1.08993
1.08677
1.16041
1.14785
1.15403
1.14797
1.16036
1.15276
1.14468
1.15374
0.995891
1.01207
0.996072
0.99693
1.00185
0.990539
0.991806
0.991894
0.979262
0.981469
1.04802
1.0407
1.04751
1.04011
1.08476
1.08828
1.09065
1.08419
1.14046
1.13503
1.12579
1.1399
1.13355
1.08867
1.08413
1.09027
1.09659
1.10722
1.0963
1.0886
1.07954
1.07119
1.06197
1.06257
1.06753
1.09785
1.10095
1.09553
1.08694
1.09698
1.08992
1.10301
1.0989
1.09688
1.09964
1.08611
1.10024
1.09305
1.09011
1.08761
1.10879
1.09828
1.10011
1.09424
1.0923
1.07316
1.07565
1.06913
1.07165
1.05762
1.0556
1.06098
1.0702
1.01946
1.0479
1.03252
1.03237
1.04352
1.05254
1.06183
1.06385
1.07789
1.13167
1.1448
1.14086
1.12989
1.12933
1.14414
1.1387
1.13434
1.02946
1.02893
1.04099
1.02533
1.02625
1.01967
1.03952
1.03517
1.03901
1.02399
1.03345
1.04108
1.03607
1.02662
1.02712
1.02859
1.03448
1.02925
1.02384
1.02723
1.02589
1.02294
0.995443
0.989491
0.989429
0.999063
1.00105
0.998125
0.987866
0.990567
1.0151
1.00417
1.00387
0.989198
1.00044
0.998803
0.995404
0.998832
1.0269
1.03109
1.03397
1.0195
1.03311
1.04285
1.015
1.01773
0.993908
1.00258
1.00005
0.994042
0.982355
0.981592
0.988234
0.989677
1.15109
1.10972
1.1302
1.12979
1.13494
1.12914
1.1162
1.12084
1.12345
1.12613
1.12744
1.12966
1.13505
1.13177
1.12974
1.1204
1.12692
1.13276
1.12115
1.12135
1.12246
1.137
1.13617
1.12789
1.1151
1.11658
1.1184
1.12363
1.13464
1.13025
0.948598
0.951566
0.9565
0.958539
1.04774
1.0367
1.02508
1.02333
1.05526
1.05104
1.04564
1.04525
1.03748
0.990157
1.00195
0.963151
0.9772
0.978553
0.967133
0.92142
0.932281
0.934377
0.925534
0.918131
0.916298
0.929044
0.933171
1.02055
1.01047
1.00468
1.01348
1.01156
0.996399
0.996048
1.03915
1.03815
1.04553
1.01681
1.02006
1.14603
1.13853
1.15095
1.14401
1.13654
1.14156
1.13409
1.14727
1.13544
1.13411
1.14007
1.15855
1.14739
1.15021
1.15827
1.15566
1.15242
1.14665
1.14555
1.14507
1.14665
1.14636
1.05866
1.07961
1.07647
1.06331
1.08432
1.08319
1.07694
1.08585
1.08527
1.06422
1.06816
1.06607
1.06991
1.06836
1.06987
1.06995
1.06105
1.0632
1.00458
1.01559
1.01843
1.00112
0.992813
0.99923
1.02184
1.01264
1.0794
1.08721
1.08676
1.0645
1.08187
1.07348
1.07795
1.07819
1.0745
1.08119
1.08072
1.08883
1.07703
1.06843
1.08966
1.08975
1.09062
1.09272
1.01137
1.01269
1.01137
1.02676
1.0141
1.00308
1.00518
1.01417
1.0016
0.999795
1.07797
1.07357
1.08878
1.08264
1.09105
1.09364
1.09988
1.09278
1.07929
1.074
1.02753
1.03373
1.0407
1.04178
1.02286
1.02313
1.13702
1.1443
1.13827
1.13402
1.14423
1.13809
1.13891
1.14048
1.14854
1.14366
1.13469
1.14787
1.13887
1.14468
1.13094
1.13773
1.14258
1.13489
1.13187
1.13165
1.1437
1.14521
1.1355
1.14722
1.14893
1.14227
1.14417
1.14441
1.14312
1.14273
1.11661
1.11631
1.11607
1.11443
1.12444
1.11766
1.11096
1.11626
1.13756
1.13477
1.12795
1.12057
1.13144
1.12723
1.12163
1.13496
1.12187
1.12257
1.12366
1.12925
1.12786
1.12047
1.11784
1.12662
1.12343
1.09616
1.08936
1.10394
1.09569
1.09805
1.07269
1.07083
1.08639
1.08127
1.08773
1.07987
1.07031
1.06758
1.13457
1.1205
1.13581
1.12958
1.1279
1.1293
1.1178
1.12137
1.1309
1.12512
1.11871
1.12022
0.985272
0.990181
0.994227
0.990552
0.995669
0.994087
1.0059
1.0096
0.997253
1.00222
1.08925
1.09377
1.07973
1.07616
1.07826
1.07866
1.09148
1.08678
1.07208
1.07167
1.07599
1.07351
0.966414
0.970888
0.968071
0.977118
0.972796
0.977827
0.974987
0.970406
0.978947
1.01961
1.02197
1.02072
1.01789
1.00924
1.02056
1.02051
1.01243
1.01268
1.09332
1.0928
1.08355
1.08911
1.08367
1.12992
1.13193
1.13824
1.13192
1.13683
1.13608
1.14375
1.06242
1.05727
1.06662
1.07403
1.06647
1.06947
1.03799
1.03293
1.03045
1.04111
1.05295
1.0512
1.04512
1.04585
1.03257
1.03148
1.01451
1.02722
1.01988
1.01132
1.03087
1.02264
1.02683
1.02259
1.01414
1.0312
1.03504
1.12659
1.12744
1.12154
1.12997
1.13529
1.12889
1.12748
1.14224
1.13168
1.13508
1.12704
1.12797
1.1332
1.10612
1.11564
1.11721
1.1148
1.12441
1.11772
1.11725
1.10691
1.10382
1.11256
1.12488
1.12992
1.12815
1.12699
1.11417
1.11736
1.11829
1.13001
1.13061
1.12256
1.11988
1.11226
0.935936
0.936324
0.935347
0.9441
0.943887
0.934876
0.939551
0.93325
0.94383
1.09698
1.10843
1.09945
1.09613
1.10836
1.10563
1.0998
1.09397
1.09043
1.11383
1.10609
1.10188
1.11506
1.10997
1.12804
1.13795
1.13776
1.13311
1.12923
1.13862
1.13519
1.13834
1.13725
1.13293
1.10617
1.10694
1.0993
1.10506
1.1167
1.11962
1.10707
1.10442
1.11609
1.12032
1.12366
1.12156
1.11829
1.10662
1.11018
1.10988
1.10844
1.10151
1.11553
1.10562
1.10384
1.11445
1.11088
1.11586
1.1044
1.09723
1.10901
1.10062
1.1007
1.12073
1.11768
1.08257
1.09278
1.06905
1.09123
1.0741
1.08088
1.07593
1.0889
1.10096
1.09401
1.0888
1.08064
1.06226
1.05492
1.07213
1.0697
1.06988
1.07193
1.07101
0.914406
0.916864
0.917826
0.924527
0.927979
0.915804
0.920356
0.917401
0.913714
0.91617
0.923047
0.909497
0.919677
0.911831
0.919156
0.925655
0.915316
0.916137
0.912841
1.03101
1.03891
1.02639
1.02677
1.04692
1.04825
1.03098
1.03114
1.02211
1.03493
1.0204
1.01169
1.02223
1.02184
1.03068
1.04389
1.02719
1.03569
1.03727
1.02759
0.983775
0.967972
0.986659
0.933278
0.923426
0.926525
0.943193
0.949947
0.932147
0.929517
0.939545
0.939779
0.944863
1.04057
1.04441
1.05077
1.05335
1.05941
1.06299
1.06765
1.04664
1.04109
1.05665
1.06759
1.05991
1.06024
1.06502
1.09322
1.10199
1.10122
1.10555
1.09092
1.11491
1.11528
1.10691
1.11467
1.10467
1.11129
1.12148
1.11635
1.1285
1.11374
1.10525
1.10969
1.12419
1.12467
1.1311
1.13441
1.11542
1.12041
1.11259
1.12544
1.12294
1.11729
1.11752
1.12578
1.13135
1.13177
1.12927
1.1368
1.13559
1.14187
1.13089
1.13968
1.13165
0.986674
0.986146
0.984253
0.987635
0.978342
0.978187
0.967224
0.967314
0.968558
0.963428
0.958854
0.954943
1.04181
1.03802
1.04725
1.05685
1.05728
1.03413
1.05004
1.06049
1.04337
1.03161
1.03659
1.03769
1.07085
1.06286
0.99492
1.00175
1.00485
0.975188
0.975612
1.00904
0.981626
0.972806
1.11603
0.979864
0.971301
0.963848
0.960758
0.961537
0.959875
0.969508
0.973276
0.977014
0.970374
0.963134
0.983383
0.978315
1.12521
1.12417
1.13311
1.12591
1.1386
1.13172
1.13887
1.12509
1.131
1.12695
1.13202
1.0421
1.04345
1.05793
1.06627
1.06458
1.05619
1.05369
1.04224
1.06009
1.06098
1.02806
1.04785
1.04488
0.981314
0.996957
0.982158
0.982586
0.986477
1.01459
0.996618
1.01256
1.09142
1.11205
1.09203
1.09286
1.09923
1.10656
1.10683
1.1004
1.11398
1.13177
1.11986
1.11592
1.11627
1.11469
1.12668
1.13037
1.12636
1.11947
1.12159
1.12246
1.11979
1.12471
1.12266
1.03564
1.03661
1.03426
1.07109
1.0593
1.07094
1.07794
1.08788
1.1151
1.08878
1.10278
1.09705
1.09992
1.09319
1.10516
1.09189
1.10933
1.106
1.10288
1.11303
1.12263
1.12248
1.12694
1.11964
1.13077
1.12414
1.09491
1.10607
1.10767
0.99807
1.00781
1.00301
1.01119
1.00499
1.02026
1.00672
1.00381
1.01836
1.01929
1.02566
1.02216
1.02659
0.97731
0.980343
0.985101
0.983223
0.958708
0.946553
0.958221
0.939021
0.952768
0.953481
0.944604
0.9449
0.953527
0.956364
0.943865
0.945543
1.13297
1.13049
1.11376
1.1163
1.10699
1.09967
1.11579
1.11451
1.06327
1.05941
1.06228
1.09784
1.10011
1.1105
1.12383
1.12799
1.12091
1.12357
1.11309
1.11902
1.13562
1.13568
1.13867
1.13613
1.13898
1.13726
1.14734
1.13632
1.13961
1.13718
1.14623
1.13898
1.14211
1.13702
1.13624
1.13047
0.996629
1.00696
1.03061
1.01679
1.00769
1.02426
1.01534
1.02011
1.02442
1.06062
1.07265
1.06781
1.0763
1.08749
1.08417
1.08589
1.07703
1.06993
1.08237
1.10323
1.09502
1.09793
1.0963
1.08154
1.09763
1.09505
1.09075
1.08184
1.09604
1.0887
0.953354
0.952815
0.954167
0.97474
0.989108
0.980188
0.964315
0.976705
0.966221
0.964829
0.968478
0.968587
1.00014
1.01467
1.00334
1.01325
1.02616
1.02136
1.00042
0.999389
1.00541
0.996815
0.997719
1.10938
1.10437
1.10704
1.12259
1.11193
1.11495
1.11927
1.11682
1.09362
1.09851
1.10046
1.09802
1.10349
1.10448
0.907858
0.909878
0.902448
0.90569
0.910014
0.902437
0.901374
1.12636
1.12327
1.12107
1.12327
0.99662
0.980662
0.984078
0.987885
0.994171
0.993189
0.975471
0.990452
0.988151
0.994905
0.976976
0.96289
0.975937
0.974692
0.964913
0.963947
0.967146
1.08661
1.09736
1.08377
1.09903
1.10075
1.08296
1.06983
1.07527
1.08348
1.08453
1.08962
1.09018
1.08133
1.07486
1.09025
1.07644
1.07622
1.06691
0.920885
0.917469
1.10011
1.10944
1.1065
1.1164
1.10902
1.11226
1.12262
1.11454
1.11854
1.1173
1.12874
1.12388
1.12249
1.10907
1.10336
1.10222
1.1086
1.11089
1.10628
1.09765
1.11352
1.11682
1.11603
1.10846
1.11043
1.12386
1.11865
1.14507
1.13025
1.12806
1.13416
1.13991
1.13674
1.1376
1.13971
1.13417
1.15025
1.13619
1.11177
1.12611
1.1262
1.12654
1.12887
1.12747
1.13308
1.13749
1.12724
1.12012
1.13138
1.12644
1.11088
1.1113
1.11384
1.13171
1.13485
1.13109
1.13229
1.1388
1.13184
1.13895
1.1389
1.13655
1.13945
1.03094
1.06253
1.04863
1.11529
1.11363
1.11639
1.12136
1.11066
1.11322
1.10443
0.915851
0.9218
0.920093
0.916325
0.9193
0.930528
0.929522
0.918339
0.934123
0.936753
0.933684
0.927811
0.923572
0.928514
0.932225
0.916004
0.917788
1.07981
1.06683
1.07034
1.07479
1.06965
1.06819
1.07926
1.0881
1.09204
1.08771
1.08556
1.09119
1.0465
1.02492
1.04103
1.08071
1.08818
1.08286
1.09714
1.08915
1.09986
1.09645
1.07688
1.07868
1.07259
1.13069
1.13595
1.13623
1.14207
1.13284
1.13688
1.13677
1.13596
1.14021
1.13931
1.13884
1.13795
1.13647
1.12145
1.11414
1.11644
1.11832
1.11903
1.12008
1.11604
1.12187
1.1255
1.12271
1.1239
1.10147