/*--------------------------------*- C++ -*----------------------------------*\
| =========                 |                                                 |
| \\      /  F ield         | OpenFOAM: The Open Source CFD Toolbox           |
|  \\    /   O peration     | Version:  v1612+                                |
|   \\  /    A nd           | Web:      www.OpenFOAM.com                      |
|    \\/     M anipulation  |                                                 |
\*---------------------------------------------------------------------------*/
FoamFile
{
    version     2.0;
    format      ascii;
    class       surfaceScalarField;
    location    "100";
    object      phi;
}
// * * * * * * * * * * * * * * * * * * * * * * * * * * * * * * * * * * * * * //

dimensions      [0 3 -1 0 0 0 0];

internalField   nonuniform List<scalar> 
37389
(
-1.24971e-08
4.98955e-09
1.22978e-08
2.30394e-09
-5.71723e-09
-5.02234e-09
8.43548e-09
1.5755e-09
5.00173e-09
-4.22485e-10
6.45566e-09
-9.39487e-10
-5.09369e-09
-4.38087e-09
7.50301e-09
2.8484e-09
-5.97057e-09
-9.07297e-09
-7.87089e-09
5.66047e-09
1.12834e-08
-6.0497e-10
7.88435e-09
-1.49099e-09
-5.78856e-09
-7.21367e-09
2.06723e-10
-6.27727e-10
7.63432e-09
-1.32915e-08
-1.06929e-08
1.67706e-08
1.79858e-09
1.08766e-08
-1.0643e-08
-2.03217e-09
-1.21485e-09
-1.28122e-08
1.40988e-09
1.2617e-08
1.73584e-08
-1.23359e-08
-3.22401e-09
1.8137e-08
-4.7149e-09
3.93638e-09
9.42835e-09
9.53815e-09
-8.29604e-10
3.72054e-09
-1.94001e-08
8.9305e-09
6.74882e-09
-1.2588e-08
9.80868e-09
6.49969e-09
-2.16166e-09
-5.87039e-09
-4.55603e-09
-9.61e-09
-1.19516e-08
-3.44825e-09
1.19756e-08
6.38322e-09
5.49074e-09
8.81633e-09
-6.02365e-09
-8.28369e-09
6.59049e-09
-8.93104e-10
8.22615e-10
1.89447e-09
-8.58776e-09
6.41307e-09
3.22578e-09
6.76759e-09
6.23591e-09
2.24597e-10
5.22741e-09
-6.07987e-09
-6.61036e-09
5.94171e-09
5.08122e-09
6.92572e-09
-8.03962e-09
-3.96756e-09
1.05452e-09
-2.39092e-09
6.41724e-09
-7.28899e-10
8.70904e-09
1.26888e-09
4.2124e-09
-2.5413e-10
7.35985e-09
-7.17745e-10
-5.37333e-09
-6.09515e-09
-1.93907e-10
5.55995e-09
3.72524e-09
-1.10119e-09
9.56917e-09
-1.21937e-08
1.47668e-08
-1.34326e-08
6.20528e-09
-1.00326e-08
-4.89937e-09
6.16406e-09
-7.97311e-09
6.67788e-09
-1.28256e-09
-1.25562e-08
5.86559e-09
-9.57451e-09
3.39251e-09
-2.9009e-09
-2.88777e-09
-4.8871e-09
-7.58835e-09
-5.36114e-09
2.487e-09
2.50409e-09
3.70078e-10
1.65643e-09
-1.93247e-09
-5.08508e-09
-5.10657e-10
-4.11315e-09
6.28024e-09
2.18217e-09
-3.699e-10
6.95966e-09
-8.77188e-09
7.546e-09
-5.8745e-09
-1.45564e-09
5.18192e-09
-5.65874e-09
5.64802e-09
-7.47353e-09
1.74021e-10
7.43646e-09
-6.50831e-10
8.07805e-09
-3.57955e-10
-3.06286e-09
4.80907e-09
7.408e-10
-2.1974e-09
5.87322e-09
1.9722e-09
-7.83126e-11
2.57054e-09
5.23399e-10
4.98414e-09
1.64276e-09
8.36422e-09
-1.56981e-09
5.57908e-10
5.82099e-09
4.37962e-09
-5.42601e-09
8.07388e-09
-1.51925e-08
1.19495e-09
2.70521e-09
1.12923e-08
-2.77687e-09
-1.69313e-08
4.51568e-09
1.17253e-08
-1.66506e-08
2.14839e-09
1.09184e-08
7.16401e-09
-6.35704e-09
1.23855e-08
6.22779e-09
-1.22515e-08
-6.36172e-09
7.63645e-09
-4.25743e-10
5.17473e-09
-6.82883e-09
7.31982e-09
7.14547e-09
-5.44942e-10
-5.6117e-11
2.54675e-09
9.56655e-09
-7.96091e-10
-8.15318e-09
-8.67401e-09
-8.77269e-09
-1.12106e-08
6.48601e-09
4.29886e-09
-1.63918e-09
-1.60103e-09
1.056e-08
-6.37054e-09
3.35102e-09
9.64348e-09
-6.62397e-09
-2.70586e-09
-1.31897e-09
-6.54059e-09
-4.52675e-09
-9.04374e-09
2.93813e-09
7.12246e-09
6.41657e-09
3.22652e-09
9.12224e-09
8.07333e-09
-5.87311e-09
6.81882e-09
-6.25253e-09
-1.65493e-10
1.30818e-10
3.3198e-11
1.56312e-09
1.01204e-08
-3.95774e-09
-7.72567e-09
-4.06744e-09
1.01052e-08
-4.47444e-09
-1.9703e-09
8.17845e-09
3.75994e-09
4.45886e-09
1.97873e-09
7.05191e-09
-5.39626e-10
6.6428e-09
7.44773e-09
7.07911e-09
-7.83332e-09
1.08452e-08
6.34909e-09
-1.93023e-08
2.18817e-09
8.09135e-09
9.02273e-09
-3.55456e-09
-8.97312e-09
-6.77475e-09
-7.86832e-09
1.56113e-08
-1.12976e-08
-1.91522e-09
8.76807e-09
-1.47211e-08
8.28588e-09
-1.48912e-08
4.69001e-09
1.91769e-08
-7.20943e-09
3.64386e-09
8.85943e-09
-1.56563e-10
-6.84255e-09
-9.13322e-09
-5.41324e-09
1.43897e-08
-1.53456e-08
1.43036e-08
3.27863e-09
-4.64985e-09
-1.39745e-08
7.52096e-09
-5.96221e-09
-3.56717e-09
1.57e-08
-4.61199e-09
1.09614e-08
-6.24277e-09
9.65619e-10
-1.51625e-08
8.78345e-09
9.82296e-09
-9.22521e-10
5.06379e-09
1.01364e-08
-1.10199e-08
-4.18025e-09
9.52964e-09
-4.50677e-09
4.09252e-11
-3.68003e-09
7.00843e-09
6.20123e-09
2.9694e-09
3.48695e-09
-1.12591e-08
3.80916e-09
-3.57001e-09
-6.27817e-09
8.62091e-09
3.25285e-09
-5.5956e-09
-1.78152e-09
-3.89988e-09
-5.96774e-10
8.31399e-09
2.85893e-09
-8.20356e-09
4.0921e-09
-4.5729e-09
7.48922e-09
-4.46813e-09
-1.43e-09
9.99022e-09
-3.80522e-09
7.65108e-09
1.69374e-09
2.3543e-09
-4.90882e-09
1.36104e-08
-5.03011e-09
-3.67144e-09
5.53352e-09
-8.03648e-09
-2.40585e-09
-5.71707e-09
-5.479e-09
9.76612e-09
2.25004e-09
4.79004e-09
-1.08454e-08
-1.03619e-08
6.89478e-09
-7.3666e-09
3.58136e-09
8.93339e-09
-5.18135e-09
3.4896e-10
2.89949e-09
1.91579e-09
-3.14854e-09
2.7401e-09
-3.20991e-09
3.61834e-09
2.30318e-09
-5.57725e-09
1.25532e-10
3.32914e-09
-4.98818e-09
4.65809e-09
-2.99903e-09
-1.80919e-09
7.87843e-09
6.49361e-09
4.35496e-09
-8.30785e-09
-2.54073e-09
3.30922e-09
-8.8384e-09
7.5725e-10
4.77189e-09
7.99362e-09
-2.85472e-09
-3.72914e-09
-2.25454e-09
-4.72897e-09
2.04398e-09
-6.04368e-09
3.59101e-09
2.13237e-09
-6.17291e-09
-2.00318e-09
-3.67507e-09
2.30176e-10
2.55713e-09
3.19187e-09
-7.71127e-09
1.96226e-09
-6.4705e-09
3.49112e-09
-3.97431e-09
-2.07747e-09
8.39612e-10
-1.03439e-08
-9.64663e-09
3.7475e-09
1.62427e-08
2.24208e-09
-1.96036e-08
7.01717e-09
-2.03946e-08
-4.89477e-09
1.56427e-08
-5.63146e-09
-6.68825e-09
-8.07498e-09
-1.27497e-08
-6.21681e-09
2.27139e-08
9.44269e-09
-1.99507e-08
-1.27851e-08
-1.24498e-08
-6.21296e-09
-2.53614e-08
2.53572e-08
8.56981e-10
-1.76378e-08
1.05676e-08
-1.0379e-08
6.34114e-09
-9.96471e-09
-7.1026e-09
3.14401e-09
-1.21047e-08
-8.67751e-09
-1.56948e-08
-6.52264e-09
5.09336e-09
9.18755e-09
-2.51978e-10
-1.40294e-08
9.76362e-10
-7.9879e-09
-1.0773e-08
4.26567e-09
2.94137e-09
-9.57122e-09
6.37767e-09
-6.04703e-09
7.17909e-09
-7.12387e-09
1.01504e-08
4.85422e-09
-5.76634e-09
8.45307e-09
-3.12277e-09
1.5156e-08
5.65517e-09
1.46879e-09
8.88162e-09
7.55765e-09
6.98701e-09
1.3069e-09
7.68358e-09
-1.5978e-08
1.13941e-08
2.20815e-09
-6.61556e-09
-5.283e-09
-8.06114e-09
7.29697e-09
-2.4233e-09
-1.15033e-08
5.93848e-09
3.68768e-09
-4.57433e-09
-1.41405e-08
9.14346e-09
-1.21493e-08
-4.86253e-10
6.02547e-09
9.05467e-09
-1.37737e-08
-3.91574e-09
5.30297e-09
-9.12265e-09
4.58395e-09
-9.66985e-09
-4.14242e-09
-5.4327e-09
-8.17579e-09
1.22595e-08
1.34896e-09
-4.85446e-09
5.20425e-09
-5.78253e-09
-6.62759e-09
9.78335e-09
3.54853e-09
-1.50306e-08
-3.48215e-09
4.59481e-09
1.11469e-08
1.46175e-08
3.67459e-09
-8.50872e-09
3.44804e-09
7.68732e-09
6.32662e-09
1.20296e-09
-2.32536e-09
1.39032e-08
-2.98173e-09
-1.29818e-08
1.0181e-08
6.24887e-09
-5.28422e-09
-4.02303e-09
-8.51957e-09
6.78389e-09
-4.82753e-09
-6.72612e-09
-6.12378e-10
1.21659e-08
-6.9813e-09
-5.7023e-09
7.85593e-09
1.33131e-09
-1.63923e-08
3.85538e-09
1.12055e-08
-1.8629e-08
1.29789e-08
-5.71477e-09
-7.48151e-09
6.46999e-09
-1.43721e-08
2.95492e-09
-4.57896e-09
-5.09616e-09
-6.71729e-09
-8.89822e-09
-1.43098e-08
-3.66331e-09
-5.89854e-09
8.94936e-09
-7.97504e-09
8.1671e-09
-2.5044e-09
-9.61264e-09
4.14179e-09
-9.1489e-09
5.34945e-09
1.29482e-09
5.85718e-09
-1.27484e-08
-7.48109e-09
-2.93691e-09
1.31244e-09
7.06419e-09
-5.66278e-09
-1.02998e-08
-7.03292e-09
1.34863e-09
5.54711e-09
3.91726e-09
-1.51273e-08
6.1014e-09
-7.58737e-09
6.21751e-09
7.98975e-09
-1.02902e-08
-1.02388e-09
-1.90762e-09
-6.71896e-09
-3.85535e-09
3.30614e-09
7.68865e-09
-2.61124e-09
8.96327e-10
-1.69284e-09
-2.34239e-10
1.03666e-08
-8.43992e-09
-1.51803e-09
8.41767e-09
-8.59285e-09
7.69429e-10
8.95484e-09
-1.12427e-08
1.18309e-08
-1.12959e-08
6.65062e-09
7.7399e-09
-5.97313e-09
-2.55354e-08
-8.69163e-09
1.07078e-08
2.35186e-08
-1.76391e-08
1.54622e-09
-4.09097e-09
7.93672e-09
2.80457e-09
5.57919e-09
6.96185e-10
1.38909e-08
-2.25756e-08
8.33671e-10
4.36505e-09
-1.57041e-08
1.65598e-09
2.47556e-08
-6.41823e-09
1.08597e-08
7.96412e-09
-6.99328e-09
1.23136e-08
4.12512e-09
-4.88317e-09
3.64016e-09
1.35564e-08
3.91439e-09
1.32328e-08
3.1812e-09
-5.33614e-09
5.96573e-09
-3.8106e-09
4.77666e-09
-1.0417e-09
-5.53658e-10
2.74207e-09
1.0081e-09
-9.08621e-09
9.63479e-10
1.18217e-09
3.82065e-09
1.72412e-09
4.01599e-09
-7.56175e-09
3.40971e-09
5.33448e-09
5.11598e-09
-9.93558e-09
8.75746e-09
-3.08912e-09
-4.82864e-10
-5.18529e-09
-1.43294e-08
1.06075e-08
1.24796e-08
-1.23026e-08
4.54105e-09
2.79248e-09
-6.32535e-09
4.04337e-09
-5.44034e-10
-5.05203e-09
2.34483e-09
4.43136e-09
-5.71477e-10
-4.3716e-10
-3.63983e-10
1.12746e-08
-8.56558e-09
1.36534e-08
-4.6794e-09
6.98907e-09
6.18003e-09
8.83483e-09
-4.84145e-09
-1.01735e-08
1.1945e-08
-3.57944e-10
-5.40705e-09
9.18729e-09
1.15925e-08
-8.17447e-09
-5.02318e-09
-2.04781e-11
1.32177e-08
2.03471e-09
-1.02225e-09
-5.13661e-09
2.14798e-09
2.66475e-09
-7.58707e-09
1.26819e-08
-7.75988e-09
-4.79624e-09
1.10849e-08
-3.62404e-09
1.37189e-08
-7.34687e-09
-6.7301e-09
1.44594e-08
-9.66737e-09
8.9269e-09
-7.06507e-09
2.1504e-08
2.80953e-09
-1.32105e-08
2.81383e-09
-6.82818e-09
-2.32707e-09
8.27538e-09
3.69785e-09
6.65703e-09
1.13336e-08
-5.74026e-09
-1.52607e-08
7.9664e-09
-6.46104e-09
-2.7388e-09
6.74054e-10
8.52578e-09
-7.77342e-09
-2.17092e-09
3.48323e-09
6.35147e-09
-6.93912e-09
-7.18581e-09
4.76033e-09
-1.14769e-09
5.32218e-09
-7.84878e-09
3.55625e-10
-1.2921e-09
7.28827e-09
-9.98021e-09
1.18585e-08
-3.17044e-09
6.19653e-09
-1.15686e-09
4.8433e-09
-9.88309e-09
1.18454e-09
5.90024e-09
-8.88309e-10
-7.77828e-09
2.02366e-09
4.49078e-09
-1.3426e-08
-5.19167e-10
-5.56284e-09
-3.89834e-09
-5.11368e-09
9.08523e-09
2.02024e-09
-2.73988e-09
7.17021e-11
-9.88737e-09
-3.64658e-09
-1.52694e-09
-1.12471e-08
2.88668e-09
-6.18296e-09
-7.63875e-09
-9.50526e-09
1.79528e-09
-1.34297e-08
-9.11509e-09
-5.69704e-09
-8.89269e-09
6.95096e-09
-1.36684e-08
-1.53393e-09
-4.51393e-09
-2.16768e-09
-6.74812e-09
-9.07986e-09
-9.92513e-09
5.33656e-09
-3.2063e-09
-1.60287e-08
-5.49761e-09
-5.74995e-09
-5.5682e-09
-3.52827e-09
2.03836e-10
-9.18486e-09
-6.30849e-09
-1.16138e-08
2.12338e-09
2.44084e-09
-1.72609e-08
-1.22416e-08
9.06403e-09
-1.11858e-09
-1.55341e-08
7.58873e-09
1.87487e-08
5.23273e-09
-1.49174e-08
6.90928e-09
3.42415e-09
8.41534e-09
-2.34033e-08
1.74816e-08
1.28311e-08
-5.50578e-09
-1.26647e-08
1.28849e-08
-5.83751e-09
-1.25531e-08
-6.38093e-10
3.95088e-09
-7.55662e-09
4.24384e-09
1.60186e-09
1.2452e-08
-5.74422e-09
-8.30963e-09
9.08823e-09
-4.52757e-09
-2.9588e-09
1.10833e-08
4.20855e-09
-2.83987e-09
1.32871e-08
6.8845e-09
2.04467e-09
4.95239e-09
5.88793e-09
7.49651e-09
1.20298e-08
6.09846e-09
-1.30544e-08
3.54772e-09
5.04521e-09
4.69418e-09
9.22192e-09
-6.06948e-09
1.79998e-09
1.20912e-08
-1.17369e-08
7.13232e-09
5.72809e-09
-9.31262e-09
1.50265e-08
-9.71198e-09
-1.10597e-09
7.92936e-09
1.21423e-08
3.11688e-09
1.40344e-08
1.77457e-08
-3.69026e-09
1.17559e-09
-1.07688e-11
-4.09292e-09
2.92808e-09
-5.01622e-09
1.74323e-09
4.44858e-09
-3.38924e-09
-9.45059e-10
7.09867e-10
3.62439e-09
1.16876e-10
-3.0689e-09
-4.37234e-10
-1.21873e-09
5.13007e-09
1.86679e-09
-5.77815e-09
3.01181e-09
-4.24133e-09
-1.16543e-09
5.81105e-10
5.71439e-09
2.29895e-09
-4.52585e-10
-2.72089e-09
2.71862e-09
-9.42791e-10
-3.05064e-10
6.14591e-09
-5.20449e-09
-2.31567e-10
6.49534e-09
-4.64208e-09
1.35033e-11
5.7518e-09
-8.715e-10
1.615e-09
-3.06898e-09
-1.69258e-09
2.07291e-09
2.68867e-09
-6.17679e-09
3.23086e-09
-1.23077e-10
-9.42605e-09
8.68096e-09
2.82318e-09
-2.07813e-09
-1.48141e-09
-1.30708e-08
5.1262e-09
-7.04627e-09
7.71472e-09
1.97035e-09
-2.63883e-09
3.25852e-09
-1.17862e-08
2.83282e-09
7.7675e-09
-2.8856e-09
-3.51576e-09
1.71781e-10
5.18668e-09
8.88257e-10
-5.06076e-09
2.38082e-09
4.75282e-09
-1.87004e-09
4.01301e-11
2.36412e-10
1.04149e-08
3.46276e-09
-3.72e-09
-5.95177e-09
-7.41976e-11
8.40676e-09
-3.94048e-09
-6.63429e-09
4.62293e-09
-5.66278e-09
-1.47777e-10
-5.19549e-09
7.83267e-09
7.11534e-09
-9.75253e-09
5.97324e-10
-2.18693e-09
-3.60591e-09
1.02417e-08
-2.48325e-09
-3.46954e-09
-2.56744e-09
-5.66957e-09
-8.06039e-09
-5.75545e-09
2.8234e-09
1.09924e-08
-9.24814e-09
4.5841e-10
7.2934e-10
-7.85283e-09
7.85462e-09
1.15639e-09
-1.15816e-09
6.52675e-09
-6.32467e-09
-8.05489e-09
-4.56875e-09
-3.58253e-09
2.3958e-09
-8.17829e-09
-5.6386e-09
6.99174e-09
-7.2759e-09
7.42581e-10
-1.76189e-09
1.1577e-08
-3.64714e-09
4.22587e-09
2.65509e-09
2.24508e-10
-6.91123e-09
-1.1069e-10
1.36177e-10
-7.71248e-09
1.25165e-09
1.2667e-09
-8.04175e-09
-5.67087e-09
-3.5237e-09
7.43267e-09
-3.35707e-09
3.41287e-10
7.14902e-09
-6.24182e-09
3.59505e-10
5.22492e-10
3.04396e-09
-6.98937e-09
3.98817e-09
-2.52135e-09
3.24861e-09
-7.71662e-09
-5.95168e-09
7.32739e-11
-3.81073e-09
1.15014e-08
3.0528e-09
-1.07436e-08
1.19463e-08
-1.46992e-08
-1.05793e-09
-5.28454e-09
1.32259e-08
4.00482e-09
6.87435e-09
-6.57491e-10
6.86562e-09
-1.06609e-08
9.12817e-09
-5.33297e-09
1.3195e-08
5.44838e-10
4.5476e-09
1.54963e-08
-1.49626e-08
-5.08143e-09
1.15023e-09
9.96249e-09
-6.56527e-09
-6.45793e-09
3.05933e-09
1.17937e-08
6.4297e-10
1.05732e-08
2.4486e-09
8.5428e-10
-1.48248e-09
-4.57952e-10
1.99945e-09
-2.56568e-09
1.23596e-08
-1.92086e-08
-8.72134e-10
1.75145e-08
8.37288e-09
-9.23742e-09
-1.83443e-08
2.64143e-10
7.23636e-09
1.20074e-08
-1.04915e-09
-2.86361e-09
-5.4374e-09
-5.06749e-09
-3.841e-09
1.19967e-09
4.2053e-09
-3.63483e-09
-1.77023e-09
-3.03685e-09
-3.49422e-10
-4.8097e-09
-7.21174e-09
-1.22585e-09
-2.21789e-09
4.08274e-09
-2.86579e-09
-4.85178e-09
1.62176e-09
-5.75879e-10
-5.738e-09
-2.7914e-09
1.53122e-09
-7.45076e-09
3.0538e-09
-9.01653e-09
-5.32886e-09
2.29509e-09
5.38806e-09
-2.08762e-09
1.16081e-11
5.96724e-10
3.05568e-09
-7.55225e-09
-5.31867e-09
3.34751e-09
-1.1647e-10
4.99976e-09
-9.58433e-09
-5.90503e-09
5.30318e-10
8.95611e-09
-6.00453e-09
2.01528e-09
3.01022e-09
-5.27321e-09
4.24805e-09
-4.35872e-09
3.45817e-09
7.07346e-09
2.70941e-10
-1.27574e-09
-1.07754e-09
3.88784e-09
4.76751e-09
-1.39964e-09
-7.2557e-09
2.79619e-09
1.01793e-09
-5.1012e-09
1.28703e-09
3.51751e-09
3.3692e-09
-4.09054e-09
5.5314e-09
-1.81621e-09
-1.97707e-10
2.65151e-09
4.4555e-10
7.90828e-10
-2.68984e-09
-6.65367e-10
6.00672e-09
-4.09189e-09
1.8476e-09
-3.73071e-09
5.17022e-09
-3.7077e-10
9.25519e-12
3.29381e-09
-4.35335e-09
-4.58091e-09
8.57362e-09
-2.77591e-09
2.3898e-10
1.47128e-10
-3.13346e-09
-7.19552e-10
4.18682e-09
-3.33843e-10
3.49331e-09
7.12895e-10
-7.33971e-09
4.90982e-09
-2.13612e-09
4.25516e-09
5.64027e-10
9.06359e-11
1.10243e-09
-1.82684e-09
-2.86951e-09
3.59401e-09
-2.24764e-09
-1.40212e-09
4.75219e-09
-3.5674e-09
-5.07074e-10
-4.90007e-09
7.7531e-09
1.51461e-09
-2.22784e-09
-3.53352e-09
1.22808e-09
2.78222e-09
-5.60284e-09
7.29448e-10
3.14384e-09
-5.17607e-09
6.93722e-09
-4.905e-09
5.04285e-09
-1.34035e-09
-5.58672e-10
-2.68494e-09
3.78211e-09
4.09785e-09
-5.19503e-09
3.29268e-09
-1.11537e-08
9.967e-09
6.38738e-09
-1.30617e-08
1.83205e-10
-3.15195e-11
9.81536e-09
-7.10056e-09
5.45484e-09
6.68856e-09
1.98698e-11
3.0253e-09
-5.83514e-10
9.24614e-13
-3.32049e-09
9.70694e-09
2.41556e-09
-8.30201e-10
7.58482e-09
-9.17021e-09
5.26754e-10
7.92579e-09
-6.03696e-09
-1.70083e-09
1.84308e-09
-5.52187e-09
5.3796e-09
-7.53318e-09
5.0021e-09
6.18392e-09
-2.08517e-09
7.82471e-09
2.06913e-09
-3.41841e-09
-4.27445e-10
-3.30222e-09
-2.0423e-09
-2.51698e-09
7.86149e-09
-1.95076e-09
-5.97387e-09
4.62233e-09
-9.38667e-09
7.09363e-09
4.48697e-09
-2.19403e-09
-1.41427e-09
-7.48501e-11
-7.38159e-09
7.0666e-09
7.40864e-09
-7.37206e-10
-8.05865e-09
-4.76476e-09
-3.54171e-09
6.26418e-09
-8.63859e-09
1.92302e-09
-8.55093e-09
-4.14431e-09
5.00886e-09
7.68631e-09
7.1645e-09
-6.08173e-09
-9.63378e-09
8.9719e-10
2.12292e-09
-2.18402e-09
4.67589e-09
-1.06948e-09
6.0029e-09
-7.88843e-09
1.34083e-09
-8.08523e-09
3.00847e-09
5.78791e-09
1.63627e-09
3.09595e-09
-1.80023e-08
9.25281e-09
5.65397e-09
6.03376e-09
-1.68296e-08
1.38919e-08
-2.98679e-09
-1.36629e-08
5.74919e-09
1.09007e-08
6.30236e-09
-1.02769e-08
9.87744e-10
-6.14501e-09
1.14875e-08
6.91433e-10
-1.07443e-09
3.01959e-09
4.35732e-09
-3.10586e-09
-1.19314e-08
-1.79212e-09
-1.34921e-08
-7.61598e-09
5.3257e-09
9.46969e-09
-1.19131e-08
-2.8822e-09
-7.26874e-09
2.31762e-09
-5.27058e-09
1.07744e-09
-9.72973e-09
2.51039e-09
-1.32354e-08
-5.52727e-09
1.36319e-08
3.13294e-09
-9.03673e-11
-1.66741e-08
-2.73092e-09
4.43143e-09
-1.31645e-08
8.88807e-09
1.54581e-09
3.62188e-09
1.7057e-09
-4.47063e-09
-9.14811e-09
-1.39291e-09
-4.16998e-09
-1.77965e-08
-7.48079e-09
6.63918e-09
-5.25173e-09
2.5254e-09
-5.29623e-09
7.5608e-09
-2.44184e-09
1.1862e-08
-1.13405e-08
-5.597e-09
1.44956e-08
-1.34796e-08
5.0385e-09
1.44175e-08
-1.03977e-08
-9.04996e-09
-5.79432e-09
6.73213e-09
-6.3294e-09
-9.52281e-09
1.02552e-08
-1.58427e-08
2.17922e-09
7.33393e-09
-2.09827e-08
5.6656e-09
9.70612e-12
-7.0017e-09
-8.85072e-09
-9.46117e-09
-1.15118e-08
-2.1131e-09
7.77315e-09
7.45254e-09
-1.73388e-08
-9.49508e-09
1.02665e-08
1.27861e-08
-1.51495e-08
9.81585e-09
2.78854e-09
6.49138e-09
3.50616e-09
8.97461e-09
-1.20916e-08
-1.41024e-08
-7.21068e-09
8.10368e-09
1.32092e-08
-1.96439e-08
-1.04329e-08
1.59744e-08
-1.35244e-08
-9.10054e-09
2.98097e-09
6.79039e-09
-8.08069e-09
-1.22342e-08
2.20592e-08
-4.80363e-10
-1.47886e-08
4.93154e-09
9.917e-09
1.03082e-08
2.42397e-09
-2.08129e-08
1.04411e-08
-9.23342e-09
2.55406e-08
-8.39233e-09
-1.76286e-08
1.34556e-08
1.70165e-08
1.42594e-08
-2.02278e-08
2.34361e-08
1.04311e-08
-1.96076e-08
6.52988e-09
8.71873e-09
8.18758e-09
-1.68074e-08
6.87569e-09
7.7448e-09
2.18676e-09
1.59813e-09
-7.96449e-09
8.04389e-09
1.19416e-08
1.94938e-08
-7.4646e-09
1.33213e-08
1.79735e-08
-5.00677e-09
-4.923e-09
2.4039e-09
-6.52296e-09
3.86467e-09
-6.24039e-09
7.92643e-09
-8.88204e-09
2.39754e-09
2.43911e-10
-1.35275e-08
-5.84387e-09
9.24498e-09
-5.78246e-09
-1.69901e-08
1.25994e-09
2.14117e-09
-5.96326e-09
-9.16163e-09
6.24274e-09
-2.694e-09
-7.95159e-09
4.12247e-09
-9.66557e-09
1.00822e-09
6.28408e-09
5.72907e-09
-1.51948e-09
-1.04939e-08
6.44051e-09
3.28736e-09
-3.44392e-09
-2.51184e-10
4.33474e-10
-2.84578e-09
-5.31029e-09
7.72239e-09
-3.55176e-10
-8.27031e-09
-5.36306e-10
-9.08957e-09
-9.31231e-10
5.12042e-09
5.04361e-09
-4.43509e-09
-6.81815e-10
5.41707e-09
-1.2719e-08
-2.79328e-09
-1.00509e-08
5.40721e-09
-1.96688e-09
-1.48416e-08
1.25591e-08
-8.41083e-09
1.06935e-08
-1.71866e-09
1.29119e-08
-1.06254e-08
-5.67808e-10
-1.38547e-08
-2.70552e-09
6.08966e-09
-1.90037e-10
7.01226e-09
2.78053e-09
1.58683e-08
-5.17923e-09
-1.31022e-08
2.1062e-08
-1.589e-08
-5.94483e-09
1.66555e-08
2.53917e-09
-1.73031e-08
-1.12593e-09
-1.36405e-08
3.07775e-09
3.81493e-09
1.89352e-09
4.58607e-09
-1.02944e-08
5.72221e-09
1.41683e-08
-1.60754e-08
1.76664e-08
-2.37378e-09
-9.57033e-09
4.75229e-09
4.50331e-09
5.04621e-09
6.83943e-09
-9.99207e-09
-5.33441e-10
1.34546e-08
-7.87499e-09
-9.38905e-09
-1.48476e-08
8.71268e-09
-1.70051e-08
8.11691e-09
-7.19694e-09
-7.30917e-09
-2.79697e-09
-1.00337e-08
1.08006e-08
-6.74805e-09
5.80879e-09
-2.97965e-09
1.12018e-08
-7.71044e-09
2.16293e-09
-3.11555e-09
1.34159e-08
3.52512e-09
-1.38258e-08
2.02666e-10
-1.50426e-08
1.17243e-08
4.71739e-09
3.3753e-10
8.36069e-09
-1.09772e-08
1.10172e-08
4.67719e-09
6.84366e-10
-8.13643e-09
-1.59715e-09
1.15587e-08
-9.27706e-09
8.9227e-09
-1.94866e-09
-8.57113e-09
2.86185e-09
1.11441e-08
-2.44707e-09
1.18246e-08
-4.00734e-11
1.29506e-08
1.27632e-09
-3.0829e-09
3.21448e-09
2.01908e-09
7.71696e-09
1.3153e-08
4.17433e-09
-3.88611e-09
-1.34413e-08
1.38738e-08
1.27914e-08
-1.35124e-08
-1.24999e-08
3.53416e-09
1.21802e-08
-2.06433e-10
-1.45772e-08
-6.18853e-09
3.17345e-09
1.75922e-08
-9.44829e-09
-9.54596e-10
-1.52358e-08
1.10664e-08
-5.68173e-09
2.27058e-09
1.16632e-08
-1.34092e-08
2.05814e-08
-3.46685e-09
8.46672e-09
1.10298e-08
-1.68344e-08
-2.66218e-09
1.05504e-08
-7.14305e-09
5.05923e-09
-9.51058e-09
9.13325e-09
1.09276e-08
8.61003e-10
6.58127e-10
-1.16344e-08
1.22161e-09
1.12738e-08
-1.03243e-11
-1.62221e-08
2.12207e-08
-4.98805e-09
1.55811e-08
-1.20091e-08
-3.58224e-09
9.32438e-09
5.44521e-09
-2.19126e-08
-3.62172e-09
-9.06604e-09
-4.14658e-09
1.56927e-08
1.69299e-09
-1.70263e-08
-3.59484e-10
2.61324e-09
-6.42609e-09
-1.24092e-08
-3.57477e-10
-1.52742e-08
-5.36783e-10
1.61684e-08
-9.34358e-11
9.06032e-09
-9.11634e-09
-3.54456e-09
7.55473e-09
-1.23617e-08
-4.3093e-09
-3.86874e-09
1.83694e-08
6.72029e-09
1.05119e-08
1.20056e-09
-5.57909e-09
1.17989e-08
-9.84155e-09
-1.8954e-09
-2.56929e-10
1.22933e-08
-4.45166e-09
-8.43327e-09
-1.2555e-08
4.55134e-09
1.64371e-08
1.25413e-08
-2.6052e-09
3.11157e-09
-2.94694e-09
1.06853e-09
-1.20004e-08
-1.36425e-09
-1.02098e-08
-1.42418e-08
1.10499e-08
7.18054e-09
-1.87985e-08
-7.44381e-09
-7.93045e-09
-7.62511e-09
9.87884e-09
-3.5057e-09
7.54139e-09
1.10948e-08
1.40961e-08
-1.57345e-08
-9.45649e-09
2.43768e-09
-2.13811e-08
5.25457e-09
-1.52065e-08
4.98185e-09
6.97047e-09
3.25416e-09
-6.26848e-09
-1.6714e-08
7.77593e-09
-4.22716e-09
-3.01293e-09
7.67232e-09
-4.32213e-10
5.40904e-09
-5.51049e-09
-4.1257e-09
-9.53913e-09
7.62115e-09
-1.09502e-09
-3.93459e-10
-1.54142e-08
8.24996e-10
5.89804e-09
9.49235e-10
1.17244e-08
5.46098e-10
-6.86148e-09
1.08692e-08
1.68026e-09
5.28372e-09
-8.58444e-09
-1.40845e-09
4.70911e-09
-6.7428e-09
1.32912e-09
1.06973e-08
6.16356e-09
6.43945e-09
-9.58538e-09
3.68144e-09
-2.22589e-09
6.20095e-09
-1.0718e-08
-1.50384e-08
4.22807e-09
5.12012e-09
6.94145e-09
9.75278e-09
-5.19658e-09
-4.01008e-09
8.22659e-09
1.23954e-08
-5.01712e-09
1.14663e-08
1.80101e-09
-9.13829e-09
-7.97177e-10
-5.10299e-09
1.89396e-08
-2.95249e-09
-9.9893e-09
-5.99767e-09
-5.85454e-09
5.7831e-09
1.90111e-08
-1.03413e-08
1.2663e-08
-5.27407e-09
1.72229e-08
-1.33268e-08
-1.3885e-08
-8.21638e-10
1.219e-08
-1.69572e-08
-4.14874e-09
7.20209e-09
1.39038e-08
1.55421e-09
-5.92497e-09
-1.25865e-08
2.49126e-09
-3.7501e-09
-9.08239e-09
-1.02042e-08
-1.38493e-09
1.73722e-08
-5.48434e-09
7.94313e-09
1.04148e-08
-4.16626e-10
-7.50682e-09
-1.0757e-09
6.00617e-09
7.44871e-09
-1.2419e-08
1.15992e-09
-1.82367e-08
8.35885e-09
-2.8895e-09
-5.88583e-09
2.7782e-09
4.50496e-09
-8.41717e-09
1.42344e-08
-5.33889e-09
-1.52403e-09
3.83104e-09
-1.4702e-08
1.20309e-08
9.33806e-09
-8.39649e-09
6.77737e-09
2.41285e-09
6.17023e-09
7.31193e-09
-5.79589e-09
4.49971e-09
1.06392e-08
9.35165e-10
-4.16567e-09
7.30005e-09
5.4957e-09
-1.10449e-08
-1.75083e-09
3.43244e-10
1.05028e-08
-8.17441e-09
3.0403e-09
4.38667e-09
7.59331e-09
4.87864e-09
1.25417e-08
9.60848e-09
5.0989e-09
-1.24513e-08
3.96931e-09
3.38313e-09
-8.35983e-09
7.86482e-09
5.59389e-09
8.12796e-10
-8.31982e-09
1.01519e-09
6.4917e-09
2.6309e-09
7.31502e-09
3.91788e-09
2.33284e-09
-8.91286e-09
2.65054e-09
-8.10876e-09
9.37613e-09
-2.66576e-09
1.15463e-08
-6.22989e-09
6.56715e-09
-6.9001e-09
-1.01243e-10
-7.62826e-09
-6.30377e-10
-1.00628e-09
7.20768e-09
5.80371e-09
-9.04212e-09
-1.23466e-09
-2.02593e-09
-2.2958e-09
-1.3587e-08
-7.21525e-10
-3.80048e-09
1.81089e-08
-4.84653e-09
-1.19825e-08
3.24204e-09
-7.26662e-09
-3.64111e-09
1.01862e-08
-1.20727e-08
-4.05518e-11
-1.90083e-08
-3.45675e-09
1.86647e-08
-1.67515e-08
-1.42394e-08
-2.0254e-09
5.69621e-09
1.16638e-08
-4.45928e-09
8.81806e-09
-1.60642e-08
1.14343e-08
9.99341e-09
-5.36354e-09
8.20291e-09
-1.26035e-08
5.95206e-09
8.86655e-10
-1.08365e-08
8.02346e-09
1.68484e-09
-1.02335e-08
1.52647e-09
-8.33541e-09
1.06758e-08
-3.86689e-09
5.41818e-09
-7.60709e-09
1.16825e-08
-9.49347e-09
6.9158e-09
6.20437e-09
-1.98535e-08
6.7333e-09
1.43853e-08
-8.03926e-09
-4.81955e-09
-6.70729e-09
1.01501e-08
1.97541e-09
7.42451e-09
8.37636e-09
-8.88502e-09
-1.0015e-08
-6.57515e-09
8.25462e-09
-5.8645e-10
5.81053e-09
-1.5239e-08
9.69602e-09
7.18412e-09
3.62066e-09
4.19125e-09
-1.06941e-08
1.26253e-09
4.73864e-09
-5.45635e-09
-5.44765e-10
-1.69038e-08
1.36316e-09
3.1394e-08
-1.58535e-08
-1.07028e-08
-2.39977e-08
6.38269e-09
-1.82703e-08
-3.41098e-09
1.52986e-08
4.60882e-09
1.14699e-08
-1.63062e-08
5.01688e-09
1.31108e-08
3.45212e-09
1.0064e-08
-2.48136e-09
-1.10347e-08
7.37959e-09
1.51623e-11
-3.94263e-09
-2.927e-09
9.15311e-09
1.1535e-09
-1.03045e-08
7.94617e-09
-5.68559e-10
7.8829e-09
-8.12333e-09
4.50705e-09
-1.90683e-08
1.53424e-08
-7.81163e-10
1.05761e-08
-6.05387e-09
-2.90527e-09
-4.6932e-09
4.29409e-10
6.76557e-09
-8.99405e-09
1.79923e-09
1.15784e-08
4.19355e-09
-2.73442e-09
6.41379e-09
4.26692e-09
3.026e-09
2.12264e-09
-8.79082e-09
9.21057e-09
5.99406e-09
4.24279e-10
-6.20171e-11
7.11089e-09
2.68081e-09
-1.64565e-09
4.89033e-09
3.86634e-09
-8.6905e-09
2.53872e-09
4.50623e-09
-4.57018e-09
7.45824e-09
6.74524e-09
-7.39217e-10
-9.38973e-11
7.26345e-09
-1.22566e-08
5.29039e-09
-9.29078e-09
-5.95873e-09
9.95913e-09
9.56921e-09
8.58424e-09
7.56023e-10
-1.59155e-08
6.37855e-09
-1.66122e-09
-8.65254e-09
3.30697e-09
-1.03354e-08
1.0187e-08
-3.15858e-09
3.94741e-10
8.06511e-09
-1.76446e-08
-1.29689e-08
-1.79908e-10
5.86421e-09
7.28462e-09
4.04836e-09
5.71878e-09
-1.0876e-08
1.21035e-09
3.94678e-09
-5.75811e-09
1.35314e-08
-4.9785e-09
-2.79478e-09
7.77748e-09
-7.8168e-09
1.10941e-08
-2.74262e-09
-5.74054e-10
-2.45143e-09
9.79568e-09
-5.04036e-09
1.15661e-08
-7.28542e-09
-6.73213e-09
1.84592e-09
8.5138e-09
7.34355e-10
1.18247e-08
3.55267e-09
4.91365e-09
5.83178e-09
-9.49821e-10
-1.03457e-09
1.17262e-08
-1.3397e-08
9.19677e-09
1.33476e-09
-1.29946e-09
7.40029e-09
5.62551e-09
6.25705e-09
4.26819e-09
5.03534e-09
7.88313e-09
-4.40467e-09
-3.18382e-11
-5.65709e-09
1.30892e-08
1.12605e-08
8.4533e-09
1.01954e-08
3.20559e-10
-7.49889e-10
3.63481e-09
3.745e-09
2.81564e-09
8.73631e-09
-1.37349e-10
-8.2784e-09
7.429e-09
4.94212e-09
1.0877e-10
-5.09094e-09
4.93739e-09
4.47823e-11
-7.19667e-09
7.16808e-09
-1.74465e-09
-3.07819e-09
-2.68102e-10
-2.43238e-09
-6.50895e-09
9.15677e-10
3.24594e-11
4.68436e-09
-5.6325e-09
1.94442e-09
2.27733e-09
7.15635e-10
-7.60217e-09
5.46681e-09
5.88036e-09
-4.32807e-10
-7.91925e-09
-1.26499e-09
4.62455e-09
-3.81291e-09
4.53395e-10
-3.98847e-09
1.17297e-09
3.73116e-09
-2.31042e-09
2.66363e-10
4.61914e-09
-5.00716e-09
9.62126e-10
6.4993e-09
-4.85903e-09
5.30019e-11
5.97899e-09
-2.55032e-09
6.48191e-09
1.46373e-10
-2.74597e-09
-3.47897e-09
6.07846e-09
-4.41725e-09
9.26275e-09
-4.69919e-09
1.12631e-09
4.99277e-09
-8.86512e-09
-1.10259e-08
7.73504e-09
-1.46955e-08
5.70952e-09
-2.48836e-09
1.14741e-08
1.67447e-09
-8.56178e-09
-7.8084e-09
6.71261e-09
2.52922e-09
2.08353e-11
1.23055e-08
-4.39915e-09
-6.23176e-09
2.29984e-10
1.7785e-08
3.66756e-09
-7.23664e-09
-1.27082e-08
3.09208e-09
7.12761e-09
-4.31735e-09
-4.72335e-09
6.16e-09
4.82004e-09
-4.26738e-09
2.98018e-09
7.9256e-09
-7.81375e-09
9.37013e-09
9.06268e-09
-2.33805e-09
-4.69524e-11
1.41852e-08
-8.99276e-09
3.87021e-09
-2.33076e-09
6.68457e-09
9.83102e-09
-1.49583e-08
3.71149e-09
8.91579e-09
1.5131e-08
-3.9406e-09
-1.35285e-08
-1.99821e-09
3.31134e-09
-1.38545e-08
1.48438e-08
-4.3008e-09
-1.03921e-08
1.45831e-08
-8.79887e-10
-5.43615e-09
-8.9852e-10
1.22602e-08
-6.96582e-09
9.77857e-09
-6.01958e-09
-6.1845e-10
-1.92558e-08
7.73849e-09
7.44249e-09
1.53557e-08
-1.83848e-08
1.54921e-08
-2.19816e-10
-1.32419e-08
-2.03059e-09
1.20221e-08
-9.29119e-09
1.27612e-08
-1.50734e-08
-1.42439e-08
1.32365e-08
1.60807e-08
-1.04844e-08
-4.809e-09
-2.19156e-08
-8.26268e-10
8.49774e-09
-1.4452e-08
-1.79479e-08
-1.40343e-09
2.23523e-08
1.89382e-08
-1.12077e-08
-2.09723e-08
2.30015e-09
-6.20404e-10
-5.3481e-10
-1.29675e-08
1.41229e-08
1.36442e-08
-2.289e-09
-8.39658e-09
2.02296e-08
-1.41572e-08
8.54918e-09
4.78175e-09
-6.53419e-09
-2.20751e-08
1.79201e-08
-3.19042e-09
-1.08552e-09
-5.04836e-10
-1.12377e-08
-9.32809e-09
-5.17135e-09
5.32397e-09
7.00838e-09
-3.1452e-09
-8.03287e-09
-4.8973e-09
-4.44311e-09
-8.99648e-09
7.35678e-09
-2.11746e-09
-9.6824e-09
8.70589e-10
-3.50582e-09
-1.49569e-08
-2.24883e-09
7.81671e-09
-9.30526e-09
-4.7811e-09
9.02552e-09
-1.82521e-08
7.10916e-09
-1.49806e-08
7.68936e-09
5.04239e-09
-1.52604e-08
9.5941e-09
-1.14751e-08
1.94213e-08
7.05924e-09
-1.83157e-08
-8.16553e-09
-1.79221e-10
7.48949e-09
1.21108e-08
-4.30391e-10
-2.6573e-09
-7.7969e-09
1.08845e-08
-8.85761e-09
9.27091e-09
5.13504e-09
-1.45855e-08
-2.57556e-09
-1.04898e-08
2.01245e-08
8.02107e-09
-1.00356e-08
9.69972e-12
1.46425e-09
-9.35098e-09
5.03056e-10
8.46106e-09
1.36149e-08
-2.36346e-08
1.55851e-09
-9.07715e-09
-2.3014e-09
-7.21967e-09
5.47008e-09
5.7631e-09
-4.01355e-09
4.60091e-09
-1.14578e-08
-3.62885e-10
-6.98023e-09
1.52031e-08
-2.75298e-09
-1.00033e-08
7.62393e-09
8.86419e-09
1.03284e-08
-3.98965e-09
1.28228e-08
-1.17672e-08
8.57096e-09
1.33868e-10
-2.94177e-09
-4.62022e-10
3.57548e-09
9.70914e-09
2.5971e-09
7.26908e-09
3.88658e-09
8.12487e-09
-7.04929e-09
-4.96227e-09
-3.66696e-09
-8.15348e-09
3.73662e-10
1.14466e-08
-7.98068e-09
7.88919e-09
-6.99677e-09
2.42141e-09
7.17227e-09
3.19433e-09
-8.24673e-09
-2.92841e-09
-4.93631e-09
-2.29049e-11
-3.29824e-09
-1.062e-09
3.44563e-09
-2.5711e-10
-4.04407e-09
6.12484e-09
6.4279e-09
-8.50878e-09
7.31899e-10
1.81594e-09
-6.59208e-09
2.30604e-09
8.91988e-09
3.23831e-09
6.42336e-09
-6.41849e-09
-3.24319e-09
6.30724e-09
-2.84221e-09
-2.26678e-10
2.16012e-09
-1.33979e-09
5.48691e-09
1.28447e-09
7.29913e-09
6.02521e-09
-2.82297e-09
-3.17085e-09
-3.14346e-11
3.50325e-09
-3.20248e-10
6.32227e-09
-3.01671e-09
2.92526e-09
-6.23083e-09
3.76071e-09
-2.61404e-10
-4.65306e-09
6.38799e-09
2.46542e-09
-9.69155e-09
-4.24937e-10
-1.18263e-09
1.12991e-08
-3.00544e-09
-6.56472e-09
-1.21369e-10
1.07742e-08
-2.49656e-09
-1.12831e-08
-1.59821e-09
1.19475e-08
-8.62902e-10
3.02646e-09
-6.29721e-09
7.37245e-09
2.68551e-09
6.60209e-10
-4.03215e-09
3.18113e-09
-3.21167e-09
6.11906e-09
-8.13447e-09
-4.54931e-09
6.22089e-09
-8.77199e-10
6.72095e-09
-7.44191e-09
5.6324e-09
5.21475e-09
5.05802e-09
-7.80734e-09
2.61418e-10
4.56731e-09
-9.28e-09
9.77071e-09
-5.21667e-09
1.04442e-08
-6.39278e-09
2.24463e-09
-2.1953e-09