/*--------------------------------*- C++ -*----------------------------------*\
| =========                 |                                                 |
| \\      /  F ield         | OpenFOAM: The Open Source CFD Toolbox           |
|  \\    /   O peration     | Version:  v1612+                                |
|   \\  /    A nd           | Web:      www.OpenFOAM.com                      |
|    \\/     M anipulation  |                                                 |
\*---------------------------------------------------------------------------*/
FoamFile
{
    version     2.0;
    format      ascii;
    class       volScalarField;
    location    "100";
    object      p;
}
// * * * * * * * * * * * * * * * * * * * * * * * * * * * * * * * * * * * * * //

dimensions      [0 2 -2 0 0 0 0];

internalField   nonuniform List<scalar> 
16925
(
1.85734
1.7395
1.73801
1.72449
1.73297
1.72041
1.72918
1.73182
1.738
1.72766
1.73191
1.72649
1.71417
1.72805
1.71948
1.72163
1.71542
1.7219
1.7166
1.74373
1.78214
1.78302
1.79355
1.80113
1.81991
1.78238
1.78198
1.79186
1.81063
1.80227
1.79572
1.79965
1.80123
1.80346
1.80102
1.74008
1.73991
1.72947
1.72712
1.74054
1.74755
1.75031
1.74679
1.73338
1.73211
1.7397
1.74408
1.7556
1.75957
1.74218
1.73413
1.74514
1.72205
1.70947
1.72083
1.71301
1.71011
1.70451
1.71294
1.71595
1.72321
1.70846
1.86221
1.86901
1.86475
1.85759
1.87184
1.86705
1.86163
1.87485
1.85984
1.88364
1.88516
1.86929
1.85301
1.86736
1.74606
1.74531
1.74568
1.7452
1.75245
1.75286
1.75346
1.75873
1.7775
1.77984
1.76598
1.77209
1.77645
1.77134
1.79663
1.80595
1.79575
1.79476
1.79007
1.79038
1.76631
1.79641
1.80639
1.78908
1.79918
1.81297
1.80908
1.79163
1.66885
1.66222
1.66413
1.66298
1.66625
1.66909
1.6706
1.66472
1.66666
1.66937
1.66844
1.66268
1.65416
1.66387
1.67175
1.66868
1.67402
1.67415
1.67039
1.66746
1.66768
1.67154
1.66361
1.66723
1.6598
1.65864
1.66771
1.66603
1.66844
1.66631
1.67076
1.67462
1.67402
1.67287
1.67324
1.67459
1.67128
1.67588
1.67282
1.67531
1.67434
1.84536
1.85406
1.84233
1.83833
1.85283
1.8648
1.84239
1.8454
1.86211
1.86172
1.86603
1.82872
1.82796
1.83604
1.85644
1.85561
1.84727
1.82882
1.84814
1.86161
1.85789
1.84721
1.84612
1.86886
1.8675
1.84601
1.85513
1.85352
1.86873
1.8732
1.87377
1.87271
1.86282
1.85522
1.8698
1.86885
1.87521
1.87491
1.88117
1.79008
1.78495
1.79524
1.80399
1.79852
1.76585
1.76944
1.79781
1.78661
1.77873
1.77583
1.78434
1.79412
1.79347
1.8075
1.78947
1.78667
1.79097
1.70244
1.70063
1.70241
1.6997
1.70112
1.6995
1.69745
1.70399
1.70188
1.69768
1.69702
1.69936
1.70292
1.68048
1.68558
1.67067
1.67419
1.67801
1.67471
1.67277
1.68942
1.68571
1.67918
1.68062
1.69069
1.6796
1.67785
1.68026
1.67414
1.67437
1.67431
1.67755
1.67566
1.6766
1.67462
1.67507
1.67515
1.68033
1.67584
1.67651
1.67661
1.67928
1.6761
1.67716
1.67823
1.69192
1.69683
1.69272
1.6889
1.69787
1.69686
1.69352
1.68801
1.68669
1.68691
1.69475
1.69415
1.70424
1.69832
1.69402
1.70486
1.69627
1.81749
1.82335
1.8537
1.86149
1.82714
1.83481
1.84
1.82867
1.8144
1.81965
1.84871
1.83966
1.84399
1.8445
1.83166
1.83492
1.75101
1.74819
1.74328
1.75103
1.74431
1.73437
1.74057
1.74343
1.73396
1.73867
1.73019
1.729
1.72753
1.73295
1.73598
1.7017
1.70158
1.69593
1.69393
1.69821
1.70001
1.69929
1.68439
1.69206
1.6926
1.68509
1.68782
1.68263
1.68292
1.73573
1.7326
1.7376
1.73817
1.73875
1.7321
1.73586
1.74418
1.74106
1.73024
1.7355
1.7332
1.733
1.73451
1.7429
1.74019
1.7396
1.74255
1.7397
1.68016
1.6771
1.67716
1.67673
1.67314
1.67702
1.67678
1.67758
1.67749
1.67582
1.67351
1.67643
1.67527
1.67562
1.67899
1.6777
1.67673
1.67659
1.68429
1.69191
1.67674
1.68184
1.68162
1.68491
1.66892
1.6759
1.68072
1.68147
1.67731
1.68101
1.67615
1.68058
1.67782
1.67333
1.67774
1.67024
1.67375
1.67812
1.67862
1.67411
1.66851
1.75128
1.75133
1.75236
1.75379
1.7544
1.75153
1.74995
1.74902
1.71763
1.72121
1.7167
1.74344
1.72276
1.74318
1.71243
1.75074
1.74447
1.75341
1.73587
1.72905
1.7178
1.74685
1.7381
1.68519
1.6871
1.68259
1.68579
1.68485
1.68467
1.68838
1.68619
1.69078
1.688
1.6829
1.6843
1.6836
1.6847
1.6833
1.68402
1.68376
1.68322
1.68714
1.68217
1.68426
1.68129
1.70595
1.7046
1.70501
1.70553
1.7088
1.70833
1.70525
1.70481
1.70373
1.69746
1.70515
1.69905
1.69957
1.69517
1.69567
1.68268
1.70079
1.69327
1.69945
1.6857
1.67844
1.68223
1.68955
1.7035
1.68988
1.70068
1.70044
1.70018
1.69628
1.69094
1.68978
1.68679
1.68755
1.68952
1.70104
1.68536
1.69382
1.68827
1.6879
1.68782
1.69543
1.73789
1.74835
1.73115
1.73575
1.72887
1.75236
1.7405
1.73885
1.73739
1.74934
1.73795
1.74706
1.74049
1.74908
1.74889
1.74711
1.75459
1.75119
1.75337
1.75256
1.73123
1.73959
1.74523
1.75423
1.751
1.73345
1.73493
1.73027
1.74711
1.73844
1.74106
1.74783
1.72777
1.72717
1.73081
1.73312
1.73295
1.73234
1.73131
1.72761
1.73301
1.72998
1.73334
1.73236
1.7291
1.77558
1.77352
1.77323
1.76741
1.77038
1.76515
1.77557
1.75696
1.75362
1.7583
1.76656
1.75591
1.7503
1.73772
1.746
1.74898
1.74916
1.7661
1.75137
1.77866
1.77782
1.75792
1.76671
1.79323
1.75906
1.76943
1.79925
1.78178
1.7835
1.7908
1.80666
1.79011
1.79142
1.80075
1.73499
1.77214
1.74474
1.76655
1.73509
1.75882
1.74434
1.76135
1.75117
1.74647
1.75756
1.76088
1.77158
1.7568
1.7766
1.77754
1.77537
1.77049
1.76778
1.66421
1.66601
1.67899
1.66941
1.67073
1.66867
1.67521
1.66259
1.66936
1.6758
1.67692
1.67079
1.67149
1.65981
1.66962
1.67074
1.66626
1.66571
1.674
1.66961
1.66949
1.84854
1.84549
1.86199
1.86069
1.83918
1.83757
1.85462
1.85349
1.86479
1.85105
1.85678
1.8656
1.87389
1.86726
1.85316
1.85745
1.85703
1.86393
1.85683
1.86606
1.8353
1.84411
1.85525
1.84843
1.84603
1.85375
1.84088
1.83478
1.83208
1.84604
1.78952
1.78469
1.8066
1.80299
1.80463
1.79069
1.81656
1.81211
1.81176
1.79808
1.8127
1.81631
1.79744
1.79189
1.816
1.82677
1.80088
1.79824
1.80938
1.8171
1.82378
1.8338
1.81568
1.83424
1.80598
1.78657
1.80684
1.80901
1.81791
1.79431
1.8027
1.79833
1.81146
1.81267
1.79415
1.81093
1.78854
1.7976
1.81925
1.81876
1.79958
1.80602
1.81516
1.81814
1.79709
1.80823
1.80488
1.81576
1.82533
1.82462
1.80596
1.81224
1.80123
1.80691
1.75049
1.76097
1.76944
1.75764
1.76043
1.75706
1.74828
1.76333
1.74258
1.74853
1.74042
1.74737
1.74518
1.75484
1.7486
1.74339
1.74461
1.73751
1.73553
1.74468
1.82544
1.82491
1.78884
1.78493
1.79912
1.80783
1.8117
1.81274
1.80938
1.7984
1.69737
1.69494
1.68149
1.68604
1.68947
1.69177
1.69684
1.68813
1.68833
1.68526
1.68843
1.68747
1.69251
1.76995
1.74661
1.75697
1.78528
1.78432
1.77286
1.76346
1.77769
1.78307
1.78678
1.75399
1.75812
1.75627
1.76757
1.78165
1.76283
1.75782
1.75742
1.77202
1.75512
1.76256
1.77243
1.75367
1.75219
1.76536
1.77407
1.78198
1.76185
1.76816
1.75613
1.78648
1.79744
1.77538
1.79397
1.68269
1.68348
1.68434
1.68247
1.66608
1.6767
1.67231
1.67347
1.67587
1.67933
1.66569
1.70715
1.70683
1.70771
1.70232
1.7053
1.70782
1.70748
1.70638
1.706
1.7077
1.70509
1.71143
1.71036
1.70233
1.71142
1.70446
1.70941
1.71382
1.71487
1.71009
1.70821
1.71026
1.69566
1.68916
1.71585
1.7142
1.70339
1.69622
1.70404
1.71353
1.71696
1.68974
1.69652
1.70679
1.69333
1.69482
1.71181
1.70902
1.7161
1.69917
1.70444
1.703
1.65909
1.65616
1.66084
1.65779
1.67145
1.66153
1.65373
1.65987
1.66505
1.66295
1.66665
1.66118
1.66099
1.66631
1.66438
1.6625
1.66121
1.65563
1.66506
1.66579
1.66345
1.65727
1.65591
1.66637
1.73326
1.73169
1.72924
1.73179
1.73014
1.73243
1.73284
1.73148
1.72504
1.73076
1.72991
1.72698
1.72689
1.72504
1.72439
1.72541
1.72863
1.73205
1.67608
1.66928
1.6744
1.67016
1.67907
1.67858
1.6752
1.67666
1.66866
1.66866
1.66366
1.669
1.67135
1.67035
1.67501
1.67675
1.67287
1.68356
1.6781
1.68453
1.68015
1.68525
1.68534
1.68486
1.68237
1.68526
1.68334
1.68185
1.68137
1.68402
1.68299
1.68518
1.68215
1.68245
1.6822
1.6858
1.68545
1.67825
1.67935
1.67658
1.68061
1.67339
1.6747
1.67616
1.67314
1.6749
1.66991
1.67369
1.67772
1.67825
1.67818
1.67759
1.64906
1.65022
1.6694
1.66556
1.67748
1.67613
1.67405
1.66745
1.66641
1.66775
1.66944
1.71142
1.70707
1.65803
1.66409
1.70046
1.69474
1.69146
1.67935
1.67886
1.6816
1.67513
1.67539
1.71372
1.71294
1.72172
1.67196
1.66461
1.67064
1.69438
1.69448
1.68346
1.6834
1.75284
1.74452
1.7515
1.67778
1.67597
1.6779
1.71262
1.70771
1.71632
1.67608
1.67534
1.68759
1.69214
1.68031
1.69237
1.69349
1.68861
1.68832
1.75724
1.76263
1.7642
1.77919
1.77613
1.76683
1.68772
1.68786
1.73727
1.73624
1.69868
1.69625
1.69773
1.6963
1.70291
1.70508
1.72429
1.7225
1.71398
1.71519
1.70043
1.69957
1.69682
1.69355
1.69028
1.69236
1.69616
1.82201
1.80909
1.81337
1.70707
1.70805
1.78758
1.79014
1.7509
1.74899
1.69757
1.69805
1.70039
1.74356
1.75104
1.75063
1.82516
1.82444
1.71722
1.71017
1.71353
1.70757
1.71155
1.70872
1.70796
1.70472
1.71473
1.70893
1.70857
1.8182
1.82527
1.83661
1.81802
1.72687
1.72306
1.71826
1.71642
1.7793
1.78251
1.77154
1.72045
1.71762
1.71721
1.74603
1.74172
1.84634
1.84795
1.78259
1.7705
1.78532
1.77104
1.79236
1.79631
1.81198
1.73641
1.73471
1.71544
1.72219
1.72634
1.72684
1.72508
1.72437
1.72195
1.71917
1.72112
1.80523
1.81553
1.79257
1.86208
1.86724
1.86149
1.84874
1.85532
1.78925
1.80279
1.80265
1.7347
1.73446
1.73685
1.73308
1.73336
1.85024
1.85124
1.76152
1.87765
1.88472
1.88259
1.82602
1.82699
1.84024
1.8441
1.7515
1.7592
1.74681
1.74914
1.73853
1.73892
1.77923
1.78988
1.7766
1.79039
1.74736
1.74641
1.75508
1.76378
1.75132
1.75077
1.74168
1.79735
1.79543
1.86821
1.88498
1.88521
1.88028
1.87308
1.89023
1.88858
1.87301
1.88002
1.73058
1.73546
1.73721
1.74095
1.74193
1.74761
1.74988
1.74157
1.74459
1.74516
1.74734
1.73878
1.74429
1.74553
1.74749
1.73936
1.74302
1.74224
1.7434
1.74565
1.75009
1.74901
1.74965
1.74926
1.7508
1.75018
1.75384
1.75188
1.77387
1.76989
1.77944
1.77143
1.77126
1.82711
1.82679
1.83594
1.8418
1.83195
1.73599
1.72932
1.73885
1.75054
1.74475
1.7458
1.73336
1.73742
1.73569
1.73773
1.74434
1.74056
1.74464
1.7445
1.74096
1.73903
1.7366
1.73872
1.73949
1.74215
1.74128
1.7444
1.73776
1.73814
1.74134
1.74252
1.75884
1.74701
1.74703
1.75232
1.86424
1.86112
1.86633
1.85599
1.84652
1.85891
1.84335
1.80577
1.80717
1.82352
1.81516
1.82602
1.81961
1.80021
1.79716
1.82816
1.84893
1.83674
1.84963
1.83343
1.8557
1.85359
1.83422
1.8298
1.83861
1.82753
1.83009
1.81667
1.83742
1.82773
1.78509
1.77952
1.79383
1.79524
1.78466
1.80485
1.79522
1.79605
1.80211
1.81142
1.8171
1.80615
1.81182
1.80982
1.79995
1.87521
1.86722
1.87182
1.87676
1.8713
1.87757
1.86581
1.88286
1.8748
1.87144
1.85435
1.87129
1.88092
1.88308
1.87472
1.87814
1.87421
1.87774
1.8723
1.88268
1.88048
1.75536
1.75284
1.74714
1.73087
1.71971
1.74402
1.73494
1.74167
1.74499
1.74098
1.74444
1.74498
1.84087
1.84668
1.83768
1.85359
1.83983
1.72313
1.724
1.73024
1.72684
1.72576
1.72774
1.7304
1.73384
1.73539
1.73318
1.73461
1.72833
1.73237
1.72942
1.73056
1.72617
1.72646
1.72956
1.7321
1.73448
1.73243
1.73092
1.73066
1.73182
1.82594
1.82775
1.81269
1.81025
1.79359
1.77967
1.78249
1.78865
1.78011
1.78924
1.80053
1.86521
1.86521
1.8518
1.86919
1.83216
1.83192
1.83416
1.83876
1.81992
1.8184
1.82609
1.8166
1.83938
1.83156
1.8338
1.84431
1.84195
1.86498
1.85684
1.85615
1.86554
1.86551
1.87514
1.86548
1.85691
1.85439
1.85143
1.85384
1.85876
1.84726
1.86765
1.85768
1.8765
1.87208
1.87039
1.85174
1.84073
1.85401
1.84998
1.84512
1.84586
1.83812
1.82511
1.79136
1.79932
1.8114
1.80267
1.77852
1.75035
1.78657
1.79175
1.77815
1.83816
1.82858
1.82036
1.81177
1.81931
1.83471
1.84002
1.83854
1.83117
1.83539
1.71753
1.72266
1.71986
1.72037
1.71326
1.7113
1.71782
1.71441
1.71606
1.71411
1.71633
1.7166
1.70893
1.71084
1.72068
1.71939
1.71839
1.71736
1.72009
1.72047
1.72173
1.72105
1.71915
1.72034
1.72452
1.72345
1.72702
1.73028
1.72893
1.72069
1.70665
1.71266
1.71884
1.71735
1.7289
1.73405
1.73895
1.73631
1.7356
1.746
1.74188
1.72023
1.72091
1.72669
1.72833
1.72503
1.71873
1.71655
1.71892
1.71446
1.71997
1.71839
1.74972
1.75842
1.74526
1.75492
1.76058
1.7258
1.71938
1.73163
1.73061
1.73961
1.73403
1.73566
1.73904
1.74836
1.73767
1.73554
1.74064
1.73563
1.72665
1.7238
1.73296
1.73364
1.73839
1.73923
1.73155
1.73418
1.73171
1.7327
1.73362
1.73639
1.7312
1.72764
1.72631
1.72556
1.75257
1.75496
1.76411
1.7878
1.77757
1.79525
1.78848
1.77576
1.7711
1.81529
1.82314
1.81803
1.77434
1.79074
1.77242
1.78423
1.77526
1.79516
1.79943
1.79093
1.74608
1.76069
1.76043
1.75542
1.76418
1.76445
1.77189
1.77062
1.76149
1.81115
1.79753
1.8009
1.80937
1.80087
1.79241
1.78764
1.77831
1.77833
1.83521
1.8304
1.84896
1.84856
1.85944
1.84743
1.83238
1.83903
1.85136
1.8461
1.83208
1.84669
1.84891
1.83712
1.84496
1.84037
1.85838
1.85905
1.84842
1.84984
1.84089
1.84031
1.84175
1.84424
1.85085
1.85301
1.72748
1.71469
1.71654
1.73063
1.71948
1.72233
1.7326
1.72953
1.7257
1.71243
1.71727
1.71771
1.71742
1.71711
1.71243
1.71117
1.71314
1.71563
1.71264
1.71696
1.72411
1.72708
1.71783
1.71883
1.72154
1.71932
1.71841
1.71723
1.7199
1.77596
1.76505
1.76667
1.76321
1.79702
1.77364
1.77546
1.7918
1.80755
1.78737
1.78471
1.71673
1.73392
1.71648
1.73458
1.71849
1.70974
1.7112
1.71896
1.71361
1.81579
1.82887
1.82988
1.8346
1.82083
1.81545
1.81322
1.81196
1.81912
1.82736
1.83484
1.82775
1.82956
1.8321
1.69976
1.70031
1.70225
1.70738
1.70964
1.70238
1.69999
1.70923
1.70555
1.70778
1.70019
1.70344
1.71856
1.71695
1.71629
1.71401
1.71314
1.71022
1.71156
1.7185
1.71877
1.71944
1.71756
1.69997
1.69978
1.70447
1.70694
1.70473
1.7061
1.70635
1.70396
1.70407
1.71158
1.70686
1.70598
1.70602
1.71351
1.71284
1.71103
1.71332
1.7134
1.70729
1.70848
1.70203
1.70375
1.69955
1.70539
1.7024
1.69838
1.70224
1.70615
1.71484
1.71154
1.71022
1.70242
1.70537
1.71565
1.78993
1.80325
1.80372
1.81686
1.81648
1.79916
1.79922
1.8077
1.82428
1.83553
1.82495
1.81929
1.83194
1.82847
1.81257
1.81592
1.83456
1.81961
1.8133
1.83593
1.83318
1.72846
1.73872
1.74187
1.74481
1.73935
1.76099
1.74535
1.75983
1.74744
1.74674
1.73861
1.73365
1.73726
1.73527
1.73211
1.77466
1.7693
1.76491
1.78153
1.78333
1.76627
1.76168
1.77253
1.75505
1.75368
1.75432
1.77391
1.77154
1.7735
1.77353
1.75715
1.74653
1.76357
1.75911
1.69088
1.68851
1.69301
1.69615
1.68943
1.69489
1.75724
1.75072
1.75078
1.74135
1.77706
1.7481
1.76814
1.75899
1.77424
1.75801
1.75945
1.76513
1.75573
1.74338
1.73072
1.73239
1.72663
1.74197
1.74598
1.74668
1.75287
1.78636
1.80018
1.79675
1.78903
1.75511
1.76994
1.77045
1.74869
1.74164
1.75885
1.76554
1.76168
1.81421
1.81496
1.82074
1.81256
1.79083
1.80827
1.80861
1.8033
1.79403
1.80104
1.79539
1.71642
1.71212
1.71659
1.70636
1.70728
1.77836
1.78982
1.79037
1.80377
1.79301
1.80029
1.80189
1.79598
1.78061
1.8078
1.81075
1.80937
1.81022
1.80493
1.79904
1.79352
1.79227
1.78638
1.79666
1.79228
1.70492
1.72216
1.71255
1.72494
1.70681
1.70363
1.71748
1.71563
1.69012
1.69483
1.70013
1.69276
1.69397
1.69965
1.69745
1.68196
1.68487
1.69269
1.68886
1.68422
1.68746
1.68994
1.69137
1.69702
1.69424
1.70417
1.70645
1.69855
1.68858
1.6982
1.70912
1.7031
1.71627
1.70389
1.70423
1.71024
1.71416
1.6967
1.69946
1.69711
1.69728
1.69754
1.70739
1.7067
1.71921
1.71615
1.71933
1.72831
1.72008
1.72188
1.7135
1.72591
1.72022
1.72342
1.72008
1.71608
1.75404
1.71357
1.74835
1.73548
1.73969
1.72813
1.71915
1.71615
1.7062
1.72869
1.71973
1.72878
1.69958
1.73046
1.72664
1.72242
1.71151
1.70839
1.7087
1.6971
1.69456
1.69068
1.69293
1.69049
1.68351
1.69606
1.70442
1.68826
1.68923
1.68593
1.68511
1.69728
1.68757
1.68931
1.69638
1.69384
1.69457
1.69675
1.69671
1.69696
1.70854
1.70876
1.70155
1.7072
1.70404
1.69954
1.73892
1.73579
1.74794
1.75336
1.74493
1.7443
1.76457
1.76376
1.75338
1.74963
1.74173
1.72099
1.73545
1.7295
1.73973
1.74737
1.7408
1.73536
1.72696
1.74896
1.74869
1.67587
1.68168
1.68127
1.68576
1.68188
1.68989
1.69286
1.68765
1.68765
1.68651
1.68694
1.68683
1.68791
1.76526
1.77381
1.7738
1.78128
1.77354
1.75307
1.74771
1.74164
1.7851
1.77428
1.78516
1.79203
1.78326
1.77888
1.77767
1.77203
1.78581
1.79303
1.78098
1.7855
1.72114
1.71768
1.73356
1.72913
1.73642
1.73932
1.73455
1.73851
1.74078
1.74623
1.73423
1.77306
1.7624
1.77289
1.76833
1.77414
1.77376
1.75849
1.77567
1.6842
1.68664
1.68832
1.69292
1.68655
1.68812
1.68303
1.6839
1.68611
1.68333
1.6958
1.69192
1.69014
1.69637
1.69721
1.69673
1.69777
1.69198
1.68989
1.68967
1.69063
1.68754
1.68418
1.68537
1.68653
1.68981
1.68396
1.68557
1.68781
1.68847
1.69077
1.68349
1.67984
1.69121
1.66962
1.66584
1.6772
1.6736
1.67403
1.67639
1.67402
1.72115
1.72531
1.72168
1.72195
1.71016
1.70509
1.70667
1.7041
1.70293
1.69939
1.70236
1.69487
1.70972
1.70093
1.69622
1.68858
1.70753
1.68953
1.68775
1.68383
1.68175
1.67731
1.67885
1.67836
1.67457
1.67414
1.67411
1.67467
1.67511
1.67835
1.67163
1.67213
1.67387
1.71222
1.70986
1.71251
1.70148
1.71809
1.70225
1.69092
1.6993
1.70286
1.69775
1.67219
1.67207
1.67474
1.6706
1.67631
1.67627
1.67923
1.6824
1.67763
1.6779
1.67892
1.67956
1.67457
1.67612
1.67537
1.6767
1.7217
1.72639
1.72589
1.73332
1.74755
1.75172
1.74807
1.7441
1.77013
1.75892
1.74396
1.74379
1.7571
1.7621
1.75635
1.75383
1.74861
1.74243
1.74751
1.75738
1.74451
1.74895
1.75919
1.75467
1.77072
1.75443
1.77263
1.75987
1.7672
1.76286
1.67559
1.67932
1.67826
1.67966
1.684
1.68124
1.67962
1.68573
1.68443
1.68069
1.67622
1.6779
1.67882
1.68093
1.68223
1.6911
1.69371
1.68503
1.72725
1.72115
1.71848
1.72557
1.68271
1.67721
1.68851
1.69063
1.67584
1.6657
1.66686
1.67626
1.68602
1.68231
1.68063
1.68428
1.69136
1.66279
1.66784
1.66222
1.66499
1.66737
1.66926
1.66122
1.66793
1.66379
1.69397
1.69226
1.68349
1.69542
1.69749
1.70153
1.71977
1.73786
1.73299
1.71469
1.71687
1.71979
1.73092
1.71752
1.734
1.73162
1.74062
1.73945
1.70995
1.70171
1.69724
1.69624
1.68762
1.71187
1.70965
1.70902
1.67356
1.67283
1.67623
1.67395
1.67426
1.67934
1.67728
1.67487
1.67537
1.68077
1.68115
1.68219
1.67681
1.66995
1.67154
1.67835
1.67486
1.67965
1.67867
1.67665
1.67611
1.69346
1.69608
1.70237
1.70224
1.7031
1.6946
1.69684
1.69751
1.68092
1.68959
1.68622
1.69073
1.69057
1.66086
1.65661
1.65396
1.65909
1.66215
1.65297
1.65469
1.65747
1.65273
1.65617
1.65533
1.65825
1.65968
1.66656
1.69305
1.70589
1.69574
1.69783
1.69036
1.68494
1.68093
1.68571
1.68104
1.68697
1.68106
1.72728
1.72343
1.69758
1.69234
1.70177
1.69081
1.68817
1.70143
1.7013
1.67261
1.66949
1.664
1.66604
1.66958
1.67642
1.66959
1.66414
1.66908
1.66556
1.66721
1.67465
1.672
1.67226
1.67767
1.67623
1.6763
1.67588
1.67315
1.67418
1.67619
1.64954
1.6508
1.66548
1.67486
1.66636
1.66723
1.67223
1.66039
1.66294
1.65108
1.65275
1.66276
1.65589
1.66027
1.66347
1.66408
1.66727
1.67045
1.6673
1.66879
1.66979
1.66369
1.66619
1.66042
1.66079
1.67238
1.66542
1.67651
1.66953
1.66879
1.67046
1.66486
1.67706
1.67308
1.66101
1.66417
1.67392
1.66742
1.6564
1.65916
1.65804
1.66281
1.66625
1.65688
1.66117
1.65761
1.65496
1.64028
1.64433
1.65199
1.65037
1.63844
1.6318
1.63896
1.63557
1.66257
1.65689
1.65298
1.66442
1.66046
1.66272
1.6583
1.64642
1.66503
1.66232
1.65498
1.63095
1.63364
1.63538
1.63656
1.63743
1.63904
1.66411
1.66628
1.67452
1.6628
1.67263
1.67497
1.67412
1.67076
1.67308
1.67203
1.67204
1.68275
1.6794
1.67932
1.68037
1.65151
1.64594
1.66359
1.67248
1.66302
1.66502
1.66699
1.65897
1.72836
1.7257
1.73058
1.73107
1.72242
1.74653
1.73939
1.69448
1.68351
1.67467
1.67193
1.68505
1.68304
1.6811
1.68021
1.65214
1.65398
1.65584
1.66184
1.65873
1.71878
1.72825
1.71721
1.7085
1.69393
1.68045
1.68595
1.6862
1.67701
1.66648
1.68872
1.68612
1.68288
1.66608
1.68156
1.66768
1.67876
1.68572
1.67595
1.67933
1.68549
1.68839
1.66739
1.6642
1.67422
1.67469
1.70784
1.70013
1.72186
1.72654
1.72486
1.72115
1.71288
1.71956
1.71587
1.71323
1.71681
1.71751
1.71262
1.68234
1.68362
1.68407
1.68549
1.67561
1.67175
1.67421
1.67947
1.66945
1.66304
1.65442
1.67461
1.68399
1.68439
1.65585
1.6636
1.684
1.66245
1.67589
1.67858
1.67636
1.67592
1.67361
1.67626
1.6694
1.66957
1.66334
1.6657
1.66643
1.66402
1.67125
1.65768
1.66724
1.67228
1.72687
1.72441
1.71907
1.72836
1.72999
1.72187
1.7021
1.69825
1.69199
1.7091
1.70782
1.69264
1.6878
1.70354
1.69447
1.73202
1.74152
1.73831
1.74835
1.74529
1.747
1.7432
1.74226
1.75162
1.73221
1.73554
1.72508
1.72397
1.7277
1.72468
1.73522
1.73324
1.6784
1.68042
1.68306
1.6777
1.68074
1.6776
1.67854
1.68081
1.66965
1.67029
1.67416
1.6755
1.67319
1.67092
1.67355
1.67552
1.67244
1.67742
1.68391
1.68323
1.67972
1.68101
1.68158
1.67904
1.68302
1.67594
1.67476
1.67595
1.67271
1.67708
1.67603
1.67581
1.67673
1.67529
1.67398
1.67129
1.67063
1.66915
1.66795
1.67443
1.67383
1.67023
1.67107
1.66711
1.67156
1.66799
1.67014
1.6711
1.66823
1.66715
1.68768
1.69174
1.68441
1.70635
1.70057
1.68863
1.69398
1.69225
1.70546
1.69603
1.69643
1.70087
1.66796
1.66855
1.66691
1.67323
1.6657
1.67062
1.67228
1.67245
1.67248
1.67263
1.67809
1.67128
1.68957
1.68514
1.68881
1.68763
1.68992
1.68955
1.69133
1.68526
1.68817
1.68577
1.69054
1.69051
1.6901
1.68297
1.67955
1.68361
1.68056
1.68841
1.6873
1.78402
1.78169
1.78391
1.77723
1.76829
1.75068
1.74545
1.74995
1.75343
1.75726
1.7492
1.77525
1.76132
1.7479
1.76138
1.76013
1.7502
1.77659
1.75753
1.76666
1.7618
1.765
1.74576
1.76145
1.76034
1.76294
1.75126
1.74901
1.74829
1.76722
1.76278
1.74553
1.76944
1.76372
1.75359
1.75613
1.76148
1.6933
1.68876
1.6896
1.68974
1.68874
1.69092
1.69064
1.69241
1.69226
1.68762
1.68717
1.68576
1.68258
1.68419
1.68704
1.69026
1.69182
1.6896
1.73145
1.73302
1.74166
1.73461
1.72201
1.73458
1.73344
1.71344
1.70051
1.70912
1.71676
1.70913
1.73958
1.74288
1.73345
1.73219
1.71611
1.71231
1.6949
1.69312
1.70254
1.70095
1.69663
1.69752
1.69339
1.69633
1.70247
1.70206
1.68459
1.68583
1.67932
1.67683
1.67466
1.68547
1.68348
1.67797
1.68451
1.67889
1.68121
1.67917
1.67426
1.68196
1.68093
1.66896
1.67096
1.66896
1.67511
1.73982
1.74358
1.73953
1.73564
1.73048
1.73955
1.72923
1.72523
1.71518
1.72396
1.71857
1.70817
1.72536
1.71357
1.70953
1.71923
1.72164
1.70198
1.71246
1.69738
1.72594
1.71268
1.70448
1.69807
1.70627
1.69362
1.6972
1.69777
1.69272
1.69092
1.68858
1.69359
1.69213
1.78683
1.78263
1.77448
1.79345
1.75093
1.7621
1.77402
1.76289
1.81651
1.80307
1.8299
1.80249
1.81618
1.80216
1.83929
1.82664
1.83329
1.82126
1.82678
1.82972
1.80233
1.81024
1.81344
1.81815
1.81354
1.79902
1.80221
1.81348
1.80126
1.80859
1.80392
1.78967
1.7943
1.78472
1.79106
1.77375
1.78707
1.79772
1.81752
1.80956
1.80034
1.80252
1.79997
1.80674
1.81885
1.81285
1.80382
1.78822
1.77907
1.79119
1.70167
1.6921
1.69331
1.68893
1.69732
1.69394
1.69449
1.68774
1.68989
1.70231
1.70718
1.70298
1.70939
1.7066
1.70688
1.70177
1.70272
1.70367
1.69374
1.69766
1.69467
1.69377
1.69332
1.69315
1.69591
1.69205
1.70559
1.70777
1.7039
1.70137
1.70757
1.70947
1.70642
1.70283
1.81049
1.8047
1.80401
1.81063
1.80586
1.77768
1.79026
1.79416
1.79779
1.7941
1.78995
1.78154
1.77941
1.79829
1.80175
1.80088
1.80343
1.80196
1.71774
1.72961
1.7318
1.72637
1.71468
1.71363
1.71317
1.71727
1.71565
1.71756
1.71651
1.71381
1.71572
1.71547
1.71202
1.71319
1.71554
1.71317
1.71378
1.70805
1.71032
1.70806
1.70659
1.71295
1.71411
1.71533
1.71428
1.71456
1.71653
1.70826
1.71248
1.81631
1.82683
1.83077
1.82239
1.82514
1.83171
1.82679
1.81854
1.82842
1.827
1.83893
1.84312
1.83012
1.8277
1.82385
1.82359
1.83596
1.82591
1.84808
1.8392
1.83935
1.8358
1.79387
1.78693
1.78668
1.7968
1.81533
1.80569
1.81621
1.80213
1.7857
1.77172
1.79644
1.786
1.77911
1.79349
1.80599
1.80197
1.80449
1.79297
1.80597
1.80204
1.7965
1.77058
1.7804
1.79231
1.77902
1.81513
1.81741
1.82774
1.81541
1.8276
1.81462
1.83954
1.81533
1.80674
1.79659
1.79092
1.80995
1.80636
1.79463
1.76382
1.76731
1.75499
1.75413
1.75085
1.71688
1.73327
1.72037
1.71955
1.73493
1.73868
1.74902
1.72425
1.72115
1.71992
1.71671
1.74988
1.76451
1.76538
1.77201
1.77288
1.75329
1.74416
1.73346
1.739
1.73416
1.72753
1.73722
1.73688
1.72981
1.73031
1.72672
1.72269
1.72249
1.72078
1.72487
1.72143
1.71995
1.72394
1.72215
1.71891
1.72118
1.71433
1.71278
1.7171
1.71703
1.71124
1.71129
1.7076
1.71012
1.70712
1.70926
1.71309
1.71487
1.7267
1.7262
1.72647
1.86389
1.85946
1.85804
1.86827
1.85704
1.84929
1.8452
1.86415
1.85075
1.85553
1.84573
1.84852
1.86222
1.85516
1.86841
1.85693
1.85301
1.86734
1.85941
1.84725
1.85602
1.75877
1.7481
1.77586
1.76807
1.76923
1.7555
1.75524
1.75099
1.74846
1.77909
1.78098
1.77772
1.77365
1.82083
1.82613
1.82689
1.82636
1.81808
1.82261
1.82395
1.81125
1.81738
1.80576
1.81058
1.87072
1.87377
1.86345
1.87816
1.85929
1.86932
1.87502
1.88601
1.87779
1.87534
1.8653
1.87042
1.86262
1.84605
1.86854
1.8587
1.85112
1.84346
1.83931
1.84946
1.83981
1.86144
1.77281
1.77841
1.77946
1.78619
1.77777
1.73808
1.73547
1.73554
1.73502
1.7365
1.74691
1.75147
1.74775
1.7445
1.74812
1.75162
1.7906
1.7817
1.79263
1.80708
1.79811
1.80153
1.79403
1.80942
1.81165
1.73187
1.73411
1.88576
1.87796
1.88748
1.88008
1.8897
1.88169
1.83916
1.83565
1.83135
1.81901
1.83144
1.81094
1.83214
1.82916
1.82862
1.79737
1.81306
1.80666
1.81601
1.83785
1.83894
1.6966
1.69171
1.69458
1.69636
1.69426
1.6974
1.69281
1.69287
1.69526
1.70095
1.69986
1.70347
1.69961
1.69954
1.78108
1.78267
1.77752
1.77448
1.77182
1.78909
1.78943
1.78119
1.77054
1.79038
1.78241
1.77649
1.76862
1.78997
1.78258
1.78945
1.79358
1.78156
1.7879
1.66118
1.66705
1.6721
1.67243
1.66422
1.66693
1.6729
1.66746
1.67007
1.67466
1.67299
1.66882
1.67113
1.66458
1.65602
1.66286
1.67073
1.68333
1.66986
1.66167
1.67268
1.66844
1.66894
1.67088
1.66859
1.67015
1.66815
1.65443
1.63261
1.64477
1.63728
1.64649
1.6495
1.65333
1.65639
1.64873
1.65319
1.64312
1.63564
1.74129
1.73891
1.73706
1.73798
1.73719
1.74405
1.74297
1.74333
1.86774
1.77175
1.76655
1.75455
1.77137
1.75256
1.75299
1.75647
1.75808
1.76285
1.76141
1.76829
1.77954
1.75526
1.77347
1.78321
1.77437
1.76196
1.73948
1.74247
1.74651
1.7495
1.747
1.74555
1.75028
1.74438
1.74929
1.73002
1.7352
1.73644
1.74267
1.74036
1.73847
1.73729
1.81705
1.80515
1.82274
1.8207
1.84022
1.84917
1.83346
1.81282
1.79142
1.78242
1.78613
1.78814
1.79367
1.7883
1.77535
1.79688
1.77578
1.77735
1.77428
1.78199
1.74464
1.73831
1.73285
1.73501
1.73538
1.73223
1.7307
1.72419
1.72747
1.72765
1.72915
1.72089
1.72582
1.72575
1.72552
1.72587
1.72566
1.72542
1.74085
1.73978
1.74228
1.74145
1.73766
1.73341
1.73676
1.73631
1.73618
1.73675
1.73413
1.734
1.73614
1.80826
1.82898
1.81449
1.82639
1.83303
1.82754
1.82794
1.8064
1.80469
1.80954
1.83001
1.81766
1.81782
1.85226
1.85509
1.84729
1.85929
1.8478
1.84974
1.85577
1.8554
1.84229
1.83439
1.83464
1.84873
1.85279
1.85357
1.85279
1.85121
1.8465
1.84865
1.84085
1.85445
1.83567
1.84058
1.8308
1.81983
1.80738
1.8165
1.83083
1.83346
1.82646
1.81805
1.83391
1.83872
1.8309
1.83481
1.83868
1.82854
1.83993
1.75072
1.74216
1.75383
1.72767
1.73003
1.74901
1.74406
1.74545
1.74867
1.74045
1.7331
1.73799
1.73594
1.74164
1.74393
1.77013
1.72474
1.73395
1.72737
1.74173
1.73245
1.72378
1.72601
1.73179
1.74122
1.73623
1.72631
1.81106
1.81571
1.81603
1.82216
1.81913
1.82076
1.70797
1.70808
1.69393
1.69144
1.69352
1.70236
1.70248
1.69587
1.69519
1.70045
1.69454
1.70301
1.70056
1.70343
1.69703
1.6984
1.71342
1.71074
1.71395
1.71246
1.71665
1.7143
1.72068
1.71947
1.72155
1.7225
1.72661
1.72286
1.72312
1.72557
1.72605
1.7217
1.76113
1.74823
1.76557
1.74385
1.74327
1.73573
1.74051
1.75239
1.74372
1.74121
1.69236
1.69108
1.6963
1.68951
1.69572
1.69367
1.69508
1.69175
1.69324
1.69463
1.69405
1.69666
1.69724
1.77631
1.77498
1.77552
1.77852
1.78286
1.77584
1.75655
1.78429
1.77041
1.7813
1.77962
1.76843
1.76737
1.78479
1.78526
1.77284
1.69045
1.6771
1.70806
1.7064
1.70847
1.71054
1.70756
1.71161
1.69907
1.70695
1.70206
1.70046
1.70175
1.7072
1.70583
1.70108
1.69901
1.69821
1.70225
1.70564
1.6786
1.68212
1.68227
1.67922
1.6807
1.67501
1.67797
1.68851
1.6876
1.69096
1.68496
1.69001
1.69058
1.69696
1.7208
1.69938
1.70945
1.69527
1.69891
1.697
1.69053
1.70622
1.7016
1.70765
1.70836
1.70416
1.71921
1.72557
1.73061
1.72751
1.72258
1.73108
1.72873
1.72372
1.7196
1.70595
1.71193
1.71929
1.68908
1.68909
1.68149
1.69776
1.69662
1.7418
1.74126
1.75372
1.74943
1.74121
1.74945
1.7519
1.73522
1.73318
1.74075
1.73635
1.7336
1.74377
1.74707
1.6809
1.68404
1.68624
1.67804
1.67906
1.67927
1.67889
1.68427
1.68416
1.67885
1.67693
1.68016
1.67807
1.68019
1.67725
1.67687
1.67791
1.67817
1.67856
1.67842
1.67797
1.6783
1.68671
1.68687
1.68231
1.66856
1.68252
1.68945
1.68814
1.68093
1.678
1.674
1.67963
1.67934
1.66603
1.68047
1.67658
1.66922
1.72063
1.71655
1.72961
1.70656
1.69519
1.70559
1.70342
1.70826
1.71089
1.71081
1.70479
1.69529
1.69016
1.70223
1.7
1.6947
1.69253
1.68344
1.67254
1.67727
1.68076
1.68038
1.68504
1.69143
1.6865
1.67856
1.67938
1.68723
1.68626
1.67324
1.6721
1.66949
1.68004
1.68002
1.67233
1.67151
1.69492
1.69887
1.71015
1.71891
1.72146
1.71512
1.71144
1.70728
1.7187
1.71452
1.69151
1.68771
1.6887
1.65385
1.65601
1.64924
1.6694
1.66748
1.66623
1.65507
1.65864
1.66155
1.66045
1.6593
1.65738
1.66972
1.67591
1.67027
1.66118
1.65093
1.65834
1.65748
1.66987
1.66741
1.74303
1.73816
1.73264
1.71942
1.73231
1.71997
1.73924
1.73395
1.72303
1.73158
1.72541
1.73442
1.73463
1.73206
1.73749
1.70324
1.70176
1.69824
1.71156
1.71897
1.7104
1.71114
1.70679
1.70622
1.72
1.71106
1.69876
1.71227
1.70143
1.67264
1.67748
1.67185
1.68953
1.67501
1.68667
1.68869
1.69619
1.69879
1.69548
1.67861
1.68107
1.68097
1.66569
1.67174
1.67195
1.67518
1.67386
1.67334
1.67465
1.67468
1.65521
1.64573
1.64522
1.64854
1.64816
1.64006
1.66672
1.66351
1.67164
1.64334
1.63954
1.64907
1.64606
1.64574
1.64722
1.65273
1.64123
1.64916
1.64337
1.63852
1.63901
1.63826
1.63411
1.63559
1.63612
1.63816
1.66042
1.65186
1.66357
1.65927
1.66407
1.65648
1.66341
1.66151
1.64966
1.64498
1.65761
1.67645
1.67826
1.67225
1.6661
1.66437
1.65996
1.66578
1.66402
1.68421
1.68318
1.67977
1.67192
1.66986
1.67883
1.67843
1.67181
1.665
1.67859
1.67167
1.69168
1.68656
1.69624
1.70556
1.71335
1.68884
1.69196
1.68712
1.70865
1.71516
1.71972
1.72424
1.72641
1.74238
1.72901
1.7275
1.73473
1.74106
1.73726
1.7293
1.68439
1.68002
1.68208
1.68325
1.68613
1.68414
1.68718
1.68381
1.68097
1.68588
1.68541
1.68381
1.68646
1.68412
1.6694
1.67515
1.67921
1.67918
1.67982
1.68032
1.682
1.6769
1.68189
1.68805
1.68475
1.68427
1.68272
1.67876
1.68168
1.68163
1.68142
1.68147
1.67862
1.67415
1.671
1.67795
1.67138
1.67301
1.69376
1.68906
1.68258
1.68775
1.679
1.73285
1.73133
1.72998
1.72133
1.73603
1.72758
1.71888
1.77208
1.75609
1.75148
1.74512
1.77083
1.76754
1.7578