/*--------------------------------*- C++ -*----------------------------------*\
| =========                 |                                                 |
| \\      /  F ield         | OpenFOAM: The Open Source CFD Toolbox           |
|  \\    /   O peration     | Version:  v1612+                                |
|   \\  /    A nd           | Web:      www.OpenFOAM.com                      |
|    \\/     M anipulation  |                                                 |
\*---------------------------------------------------------------------------*/
FoamFile
{
    version     2.0;
    format      ascii;
    class       volVectorField;
    location    "100";
    object      U;
}
// * * * * * * * * * * * * * * * * * * * * * * * * * * * * * * * * * * * * * //

dimensions      [0 1 -1 0 0 0 0];

internalField   nonuniform List<vector> 
16925
(
(0.164825 -0.2919 -1.04258)
(0.373756 -0.471892 -0.919552)
(0.352091 -0.438173 -0.938892)
(0.311971 -0.431384 -0.927039)
(0.348284 -0.44931 -0.949887)
(0.347674 -0.493503 -0.764942)
(0.398722 -0.489876 -0.753844)
(0.390888 -0.487484 -0.769214)
(0.388025 -0.477161 -0.854567)
(0.321384 -0.447499 -0.903139)
(0.401812 -0.479564 -0.844415)
(0.405162 -0.483103 -0.812251)
(0.347774 -0.466001 -0.897271)
(0.373812 -0.470249 -0.9026)
(0.335667 -0.480163 -0.890806)
(0.318938 -0.458375 -0.90432)
(0.327765 -0.489703 -0.829875)
(0.321194 -0.478108 -0.852456)
(0.364015 -0.500194 -0.855925)
(0.399138 -0.483329 -0.826511)
(0.14723 -0.165633 -0.859323)
(0.149527 -0.162757 -0.848183)
(0.163515 -0.204478 -0.916922)
(0.17683 -0.209674 -0.939022)
(0.190016 -0.221997 -0.958601)
(0.144622 -0.155134 -0.864979)
(0.151815 -0.167054 -0.8744)
(0.167658 -0.18603 -0.89686)
(0.190352 -0.21093 -0.97987)
(0.167432 -0.173792 -0.920831)
(0.216529 -0.212354 -1.00479)
(0.217966 -0.22945 -0.984062)
(0.18031 -0.178997 -0.924948)
(0.220118 -0.210949 -1.00447)
(0.204644 -0.196297 -0.987059)
(0.254675 -0.467913 -0.991783)
(0.264672 -0.47061 -0.981515)
(0.229873 -0.50922 -0.893465)
(0.232859 -0.511842 -0.92456)
(0.254873 -0.469335 -0.986642)
(0.233209 -0.487486 -0.962381)
(0.23625 -0.483127 -0.940081)
(0.245382 -0.470669 -0.956181)
(0.239279 -0.506194 -0.944904)
(0.25547 -0.499767 -0.985509)
(0.230445 -0.496452 -0.913086)
(0.226841 -0.497224 -0.873765)
(0.257957 -0.492287 -0.915774)
(0.246886 -0.485591 -0.930077)
(0.25763 -0.488658 -0.952571)
(0.239405 -0.495247 -0.93116)
(0.226555 -0.489746 -0.886785)
(0.244408 -0.454958 -0.999355)
(0.249324 -0.453403 -0.984275)
(0.261944 -0.506595 -1.0144)
(0.263951 -0.493802 -0.997287)
(0.233475 -0.390844 -0.92658)
(0.254312 -0.426213 -0.945056)
(0.256083 -0.470801 -0.966757)
(0.263027 -0.496124 -0.978837)
(0.26366 -0.455863 -0.981431)
(0.236761 -0.426172 -0.935564)
(0.1627 -0.294441 -1.02014)
(0.154534 -0.313911 -0.979702)
(0.158967 -0.301562 -1.01562)
(0.162647 -0.2957 -1.02486)
(0.15279 -0.285969 -1.00705)
(0.167684 -0.279279 -1.06904)
(0.170364 -0.269899 -1.04525)
(0.16866 -0.276036 -1.07472)
(0.155943 -0.26208 -1.08832)
(0.164391 -0.284041 -1.05519)
(0.167789 -0.25576 -1.07124)
(0.157516 -0.230522 -1.10535)
(0.165736 -0.24975 -1.06094)
(0.150253 -0.279341 -1.06768)
(0.390983 -0.462925 -0.736967)
(0.384515 -0.478505 -0.688357)
(0.407076 -0.465502 -0.815649)
(0.41347 -0.480033 -0.773561)
(0.416077 -0.465021 -0.827671)
(0.388288 -0.464572 -0.720892)
(0.409035 -0.460408 -0.779105)
(0.394478 -0.468882 -0.72051)
(0.248326 -0.325343 -0.994709)
(0.224878 -0.313532 -0.95051)
(0.202784 -0.296684 -0.927627)
(0.221628 -0.295175 -0.977172)
(0.218324 -0.31452 -0.971418)
(0.190241 -0.288557 -0.922553)
(0.258595 -0.331524 -0.979602)
(0.296433 -0.355663 -1.03469)
(0.27175 -0.370213 -1.04802)
(0.268134 -0.374164 -1.03619)
(0.239546 -0.292768 -0.99075)
(0.246979 -0.313702 -0.990787)
(0.1852 -0.283453 -0.842499)
(0.250204 -0.365522 -1.03689)
(0.255443 -0.356392 -1.03692)
(0.257586 -0.375058 -1.03358)
(0.271468 -0.382974 -1.027)
(0.277523 -0.349803 -1.04405)
(0.27147 -0.340181 -1.04129)
(0.253189 -0.364698 -1.02459)
(0.134858 -0.371839 -0.65998)
(0.140182 -0.365605 -0.654723)
(0.119497 -0.314622 -0.636068)
(0.107779 -0.381297 -0.602634)
(0.0979331 -0.322268 -0.587411)
(0.175279 -0.370742 -0.765241)
(0.142291 -0.372515 -0.687967)
(0.188735 -0.371998 -0.759747)
(0.194997 -0.37957 -0.787204)
(0.195629 -0.38906 -0.78528)
(0.176773 -0.438451 -0.683146)
(0.135925 -0.406466 -0.663266)
(0.20698 -0.415742 -0.799246)
(0.207441 -0.423718 -0.772625)
(0.134612 -0.265229 -0.673353)
(0.129124 -0.267192 -0.689925)
(0.134726 -0.304553 -0.686434)
(0.115659 -0.296845 -0.631369)
(0.127257 -0.256389 -0.64879)
(0.134569 -0.266202 -0.668182)
(0.10788 -0.378993 -0.584795)
(0.11253 -0.375477 -0.589863)
(0.134123 -0.396229 -0.630279)
(0.138754 -0.42097 -0.652327)
(0.195121 -0.426218 -0.759681)
(0.171727 -0.446298 -0.693964)
(0.121274 -0.265354 -0.604142)
(0.0956978 -0.299451 -0.556843)
(0.103889 -0.344324 -0.581909)
(0.12959 -0.414606 -0.644563)
(0.107145 -0.30032 -0.604283)
(0.113507 -0.179889 -0.373619)
(0.0915422 -0.166224 -0.324211)
(0.137415 -0.173712 -0.39229)
(0.124934 -0.173829 -0.382085)
(0.0895726 -0.156095 -0.305975)
(0.117923 -0.160547 -0.341175)
(0.110246 -0.157921 -0.327484)
(0.0997578 -0.155942 -0.318289)
(0.0947652 -0.151102 -0.299963)
(0.106255 -0.163671 -0.335118)
(0.18479 -0.324467 -1.02531)
(0.192925 -0.328172 -1.01807)
(0.193763 -0.34078 -1.01075)
(0.198024 -0.331031 -1.01148)
(0.180416 -0.300043 -1.02872)
(0.188388 -0.313547 -0.99006)
(0.195162 -0.332177 -1.00619)
(0.187894 -0.332522 -0.960065)
(0.180933 -0.309278 -0.990482)
(0.1879 -0.299412 -1.03697)
(0.188362 -0.30253 -0.991042)
(0.198856 -0.313202 -1.03602)
(0.197329 -0.302359 -1.04147)
(0.204808 -0.298402 -1.04766)
(0.19707 -0.300316 -1.0334)
(0.199463 -0.299469 -1.04948)
(0.188316 -0.307757 -1.06297)
(0.198598 -0.288746 -1.05072)
(0.204807 -0.312584 -1.05261)
(0.225978 -0.222282 -1.09378)
(0.238117 -0.21738 -1.09093)
(0.232814 -0.204006 -1.10772)
(0.229301 -0.187708 -1.09462)
(0.258433 -0.224627 -1.07984)
(0.253358 -0.220732 -1.05713)
(0.238526 -0.198196 -1.0969)
(0.225332 -0.203652 -1.10154)
(0.227153 -0.181124 -1.09369)
(0.245814 -0.209911 -1.08038)
(0.280457 -0.193766 -1.06783)
(0.283079 -0.215668 -1.10379)
(0.256433 -0.21305 -1.06849)
(0.274125 -0.218509 -1.02335)
(0.284587 -0.213657 -1.07494)
(0.260581 -0.200352 -1.04897)
(0.292656 -0.207773 -1.08098)
(0.285983 -0.19602 -1.01842)
(0.265056 -0.212051 -1.00608)
(0.26603 -0.203536 -1.02246)
(0.216502 -0.352555 -0.996414)
(0.227337 -0.374 -1.00932)
(0.232957 -0.373897 -0.978512)
(0.219067 -0.410549 -0.976417)
(0.218977 -0.407796 -0.939653)
(0.259834 -0.439302 -0.907882)
(0.252149 -0.408043 -0.965272)
(0.232144 -0.410796 -0.967673)
(0.249241 -0.434113 -0.940564)
(0.237596 -0.389352 -1.005)
(0.257762 -0.426561 -0.919361)
(0.242141 -0.427527 -0.906034)
(0.23588 -0.403336 -1.00241)
(0.223833 -0.427082 -0.943446)
(0.222246 -0.422971 -0.921829)
(0.221479 -0.430793 -0.909242)
(0.246079 -0.434161 -0.856554)
(0.225273 -0.43711 -0.863289)
(0.145195 -0.119032 -0.393763)
(0.135414 -0.120317 -0.37435)
(0.151408 -0.112455 -0.388383)
(0.135503 -0.115746 -0.350476)
(0.169814 -0.129773 -0.460987)
(0.168509 -0.121207 -0.415085)
(0.139337 -0.117114 -0.365536)
(0.169743 -0.12268 -0.472194)
(0.183049 -0.119636 -0.449403)
(0.173069 -0.132543 -0.428589)
(0.175469 -0.126829 -0.413069)
(0.193268 -0.130449 -0.45288)
(0.191979 -0.120346 -0.501185)
(0.345374 -0.479405 -0.73123)
(0.34218 -0.478501 -0.712631)
(0.350481 -0.453348 -0.803859)
(0.345109 -0.441939 -0.850424)
(0.332721 -0.483893 -0.695896)
(0.306073 -0.453261 -0.648103)
(0.363277 -0.490219 -0.732368)
(0.357132 -0.476534 -0.775593)
(0.330555 -0.470445 -0.720031)
(0.310788 -0.476137 -0.86726)
(0.33241 -0.481912 -0.843627)
(0.339104 -0.474833 -0.844102)
(0.310814 -0.488057 -0.721349)
(0.330373 -0.473706 -0.851471)
(0.326191 -0.49345 -0.765355)
(0.118225 -0.159453 -0.32406)
(0.0939518 -0.148934 -0.285899)
(0.107865 -0.165221 -0.33719)
(0.0991276 -0.169248 -0.347177)
(0.0945521 -0.163277 -0.334963)
(0.0882376 -0.160342 -0.317129)
(0.084073 -0.143265 -0.27961)
(0.132031 -0.168432 -0.377338)
(0.133899 -0.178053 -0.398175)
(0.132465 -0.182088 -0.412687)
(0.123024 -0.183266 -0.398342)
(0.0960686 -0.148938 -0.308802)
(0.123467 -0.157571 -0.363543)
(0.140382 -0.167991 -0.384011)
(0.155702 -0.177124 -0.425691)
(0.150446 -0.175122 -0.430742)
(0.11077 -0.153794 -0.332624)
(0.286788 -0.535601 -0.677644)
(0.276694 -0.525557 -0.633196)
(0.33465 -0.544019 -0.685151)
(0.322265 -0.544024 -0.637337)
(0.279721 -0.532283 -0.634801)
(0.267697 -0.506476 -0.551121)
(0.29142 -0.532773 -0.668664)
(0.305115 -0.516699 -0.778117)
(0.309844 -0.506948 -0.818997)
(0.298911 -0.515842 -0.791415)
(0.33406 -0.540756 -0.640616)
(0.301298 -0.528252 -0.590352)
(0.316096 -0.532232 -0.627122)
(0.333825 -0.537077 -0.685694)
(0.320534 -0.518685 -0.791758)
(0.333035 -0.535093 -0.655209)
(0.342468 -0.540496 -0.68646)
(0.219351 -0.330461 -1.03089)
(0.214632 -0.332829 -1.03509)
(0.214884 -0.313289 -1.02094)
(0.213699 -0.317774 -1.00074)
(0.222628 -0.313559 -1.05947)
(0.209908 -0.344481 -1.00698)
(0.205258 -0.344949 -0.994473)
(0.219216 -0.352745 -1.01716)
(0.217486 -0.307134 -1.06351)
(0.213711 -0.289191 -1.04734)
(0.197423 -0.325262 -0.965963)
(0.208401 -0.348854 -0.993773)
(0.196354 -0.344617 -0.939951)
(0.224668 -0.317946 -1.02108)
(0.217333 -0.309768 -1.04941)
(0.23072 -0.311046 -1.04128)
(0.308201 -0.422699 -0.845451)
(0.310996 -0.426625 -0.811341)
(0.310292 -0.425722 -0.8507)
(0.304949 -0.415799 -0.861054)
(0.317182 -0.420398 -0.831196)
(0.32298 -0.425504 -0.792632)
(0.322028 -0.418958 -0.759378)
(0.289936 -0.389632 -0.896663)
(0.355709 -0.401007 -0.788573)
(0.33827 -0.398117 -0.755951)
(0.3481 -0.408176 -0.837125)
(0.331523 -0.359091 -0.862457)
(0.324913 -0.377314 -0.868768)
(0.354436 -0.395552 -0.823594)
(0.33509 -0.404576 -0.800687)
(0.209766 -0.178283 -0.719782)
(0.217329 -0.213778 -0.758926)
(0.228653 -0.26602 -0.794404)
(0.268813 -0.231921 -0.786972)
(0.201326 -0.192541 -0.748986)
(0.189075 -0.212477 -0.746098)
(0.237764 -0.223555 -0.775027)
(0.271998 -0.280784 -0.798863)
(0.256992 -0.294183 -0.812627)
(0.202175 -0.238957 -0.762524)
(0.208276 -0.222117 -0.762852)
(0.244547 -0.297466 -0.811186)
(0.321688 -0.292667 -0.789235)
(0.261275 -0.256248 -0.77935)
(0.19499 -0.0347431 -0.506128)
(0.161886 -0.03445 -0.494152)
(0.144265 -0.0363006 -0.469736)
(0.123987 -0.032389 -0.51272)
(0.135049 -0.0263719 -0.476238)
(0.138839 -0.0346319 -0.534685)
(0.179883 -0.0351496 -0.468067)
(0.130834 -0.0228755 -0.525777)
(0.140088 -0.0227692 -0.467448)
(0.137583 -0.0360666 -0.595658)
(0.159336 -0.0328511 -0.600977)
(0.181013 -0.0350376 -0.596667)
(0.203363 -0.0355105 -0.50613)
(0.203362 -0.0298996 -0.546956)
(0.161866 -0.0154243 -0.479272)
(0.184389 -0.022616 -0.494474)
(0.202729 -0.0251942 -0.509378)
(0.181943 -0.0107079 -0.52434)
(0.159952 -0.0169955 -0.545275)
(0.0868055 -0.336059 -0.515602)
(0.0982651 -0.373268 -0.551879)
(0.126071 -0.395882 -0.635849)
(0.126868 -0.407046 -0.620954)
(0.105713 -0.373023 -0.572909)
(0.130547 -0.376765 -0.663101)
(0.139385 -0.372426 -0.674197)
(0.106714 -0.385569 -0.591819)
(0.0797897 -0.320834 -0.506141)
(0.0901538 -0.328262 -0.537579)
(0.083761 -0.302538 -0.526137)
(0.101824 -0.314635 -0.592883)
(0.0996165 -0.336663 -0.616844)
(0.096504 -0.273523 -0.580701)
(0.0855973 -0.321824 -0.525957)
(0.100742 -0.368118 -0.588991)
(0.0925907 -0.295086 -0.524328)
(0.0818729 -0.287616 -0.515853)
(0.164736 -0.259577 -0.780755)
(0.18936 -0.28634 -0.811314)
(0.193146 -0.296294 -0.818621)
(0.204078 -0.310205 -0.809781)
(0.211087 -0.355115 -0.843231)
(0.139644 -0.224896 -0.723815)
(0.189777 -0.293393 -0.783152)
(0.165443 -0.290814 -0.768818)
(0.139149 -0.227337 -0.745289)
(0.137104 -0.208247 -0.723947)
(0.150812 -0.241347 -0.749981)
(0.14529 -0.24132 -0.747682)
(0.195449 -0.296918 -0.829839)
(0.13843 -0.211156 -0.713574)
(0.142717 -0.232573 -0.73243)
(0.150215 -0.234285 -0.739267)
(0.141444 -0.222259 -0.726806)
(0.145453 -0.215439 -0.714794)
(0.137683 -0.201255 -0.698955)
(0.192322 -0.297662 -0.801623)
(0.14766 -0.231631 -0.732881)
(0.137236 -0.221294 -0.705734)
(0.144632 -0.221081 -0.720001)
(0.0459461 0.00523358 -0.535082)
(0.0486127 -0.00500883 -0.523663)
(0.0565665 -0.0100883 -0.575139)
(0.0841387 -0.018266 -0.554779)
(0.0965936 -0.0118165 -0.536031)
(0.0721656 -0.00685139 -0.515162)
(0.115432 -0.0102418 -0.562134)
(0.14892 -0.0134874 -0.5502)
(0.321831 -0.462097 -0.88933)
(0.322172 -0.478377 -0.875432)
(0.292922 -0.456565 -0.882144)
(0.35582 -0.459509 -0.850822)
(0.309779 -0.452951 -0.898462)
(0.334213 -0.443466 -0.893521)
(0.286456 -0.397429 -0.938532)
(0.365646 -0.452657 -0.895716)
(0.313496 -0.4329 -0.953374)
(0.360033 -0.42892 -0.911731)
(0.279555 -0.389179 -0.915563)
(0.279629 -0.36386 -0.949381)
(0.305667 -0.395256 -0.949704)
(0.390584 -0.442137 -0.960853)
(0.347287 -0.420049 -0.937592)
(0.066016 -0.207909 -0.351501)
(0.120317 -0.190352 -0.41918)
(0.110878 -0.190718 -0.40085)
(0.0898139 -0.176606 -0.35417)
(0.0632998 -0.213959 -0.349775)
(0.0598253 -0.191617 -0.313031)
(0.0881873 -0.218114 -0.422363)
(0.0717394 -0.207311 -0.366249)
(0.106743 -0.209329 -0.444068)
(0.075857 -0.177838 -0.326659)
(0.0804534 -0.169236 -0.322346)
(0.0682987 -0.165665 -0.295639)
(0.0738788 -0.215364 -0.368562)
(0.10791 -0.210067 -0.451503)
(0.107622 -0.19688 -0.418226)
(0.0947184 -0.221071 -0.44022)
(0.0938056 -0.215853 -0.415665)
(0.0637501 -0.173554 -0.286329)
(0.0691843 -0.170632 -0.30162)
(0.0667168 -0.193393 -0.328515)
(0.0974959 -0.205064 -0.411571)
(0.0827398 -0.186986 -0.345987)
(0.099202 -0.229773 -0.656325)
(0.0997006 -0.213716 -0.641626)
(0.0912335 -0.204652 -0.568243)
(0.0684628 -0.233658 -0.556232)
(0.119228 -0.282542 -0.701434)
(0.102728 -0.193641 -0.525257)
(0.0957124 -0.220165 -0.542872)
(0.0907309 -0.269027 -0.61679)
(0.0955983 -0.283853 -0.598764)
(0.0904412 -0.287353 -0.601451)
(0.0993972 -0.170295 -0.554211)
(0.0991895 -0.216575 -0.572802)
(0.0996519 -0.199886 -0.551753)
(0.102366 -0.264797 -0.658999)
(0.0944627 -0.220298 -0.503486)
(0.221866 -0.440528 -0.785611)
(0.122654 -0.245391 -0.732862)
(0.120236 -0.278235 -0.729957)
(0.127049 -0.255202 -0.723678)
(0.177062 -0.43366 -0.743302)
(0.202963 -0.444567 -0.808894)
(0.229331 -0.397484 -0.857668)
(0.210831 -0.408957 -0.798253)
(0.177873 -0.357186 -0.846762)
(0.118058 -0.2864 -0.67126)
(0.125879 -0.269137 -0.727264)
(0.159079 -0.317253 -0.802503)
(0.130437 -0.240565 -0.728737)
(0.144884 -0.306756 -0.794153)
(0.213751 -0.386023 -0.842687)
(0.173915 -0.30021 -0.805847)
(0.171972 -0.399453 -0.732064)
(0.188009 -0.466151 -0.739159)
(0.170318 -0.322962 -0.798624)
(0.218895 -0.391579 -0.846189)
(0.204838 -0.384371 -0.794197)
(0.19861 -0.439869 -0.73158)
(0.153411 -0.377899 -0.69334)
(0.128219 -0.283158 -0.732843)
(0.21121 -0.431466 -0.78598)
(0.142684 -0.33154 -0.736061)
(0.101259 -0.139823 -0.802353)
(0.102045 -0.132599 -0.823664)
(0.0736225 -0.109521 -0.718765)
(0.0746687 -0.0942156 -0.698266)
(0.0843892 -0.121997 -0.723333)
(0.0905482 -0.102398 -0.736134)
(0.0706901 -0.0913734 -0.681456)
(0.121942 -0.146763 -0.846854)
(0.0910255 -0.117185 -0.789429)
(0.0900799 -0.120409 -0.728385)
(0.0828025 -0.112912 -0.693353)
(0.0780915 -0.0960033 -0.72605)
(0.06786 -0.0804371 -0.659257)
(0.116335 -0.13374 -0.853194)
(0.102851 -0.101413 -0.808708)
(0.126128 -0.138529 -0.851112)
(0.102175 -0.11286 -0.796633)
(0.114095 -0.126692 -0.800933)
(0.225552 -0.249084 -0.947188)
(0.223552 -0.241286 -0.944705)
(0.18426 -0.265827 -0.901474)
(0.194654 -0.287487 -0.915389)
(0.215371 -0.261521 -0.927177)
(0.179625 -0.19043 -0.930427)
(0.220198 -0.256306 -0.939234)
(0.158564 -0.237843 -0.874954)
(0.130852 -0.218869 -0.850268)
(0.11371 -0.189106 -0.830764)
(0.165945 -0.177187 -0.925576)
(0.195233 -0.225226 -0.936184)
(0.0966849 -0.133489 -0.812921)
(0.12433 -0.146543 -0.862621)
(0.0792487 -0.0992589 -0.492208)
(0.0652131 -0.117651 -0.483601)
(0.0711755 -0.11861 -0.513849)
(0.0764334 -0.0779627 -0.536663)
(0.0674154 -0.10685 -0.633264)
(0.0658358 -0.150109 -0.658335)
(0.0689128 -0.0926048 -0.559559)
(0.0694868 -0.146697 -0.547671)
(0.0698382 -0.15775 -0.594906)
(0.0762809 -0.0933407 -0.563626)
(0.0631441 -0.116253 -0.636643)
(0.068466 -0.126056 -0.664723)
(0.0682772 -0.142662 -0.58078)
(0.360765 -0.421396 -0.911467)
(0.367467 -0.420457 -0.940546)
(0.351964 -0.421012 -0.959578)
(0.376503 -0.423717 -0.928226)
(0.333654 -0.417357 -0.990714)
(0.338488 -0.418628 -0.995312)
(0.360137 -0.423553 -0.954927)
(0.340056 -0.428197 -1.0031)
(0.31015 -0.420852 -1.02256)
(0.364976 -0.438003 -0.98215)
(0.367248 -0.44605 -0.984585)
(0.317572 -0.404195 -1.01125)
(0.297459 -0.381622 -1.00225)
(0.295487 -0.390204 -0.995702)
(0.298812 -0.389313 -0.999842)
(0.305356 -0.394557 -0.994071)
(0.311241 -0.393386 -1.01555)
(0.350946 -0.42323 -0.993467)
(0.314237 -0.416694 -1.03302)
(0.277535 -0.355222 -1.02783)
(0.281521 -0.36065 -1.02388)
(0.266725 -0.335356 -0.980633)
(0.284031 -0.354341 -0.98029)
(0.305039 -0.37923 -1.02999)
(0.237065 -0.305503 -0.955205)
(0.258293 -0.326932 -0.99713)
(0.327902 -0.379173 -1.04059)
(0.342053 -0.383448 -1.04533)
(0.328535 -0.381234 -1.02313)
(0.32553 -0.339923 -1.02358)
(0.334137 -0.366151 -1.02342)
(0.299284 -0.356521 -1.03337)
(0.312562 -0.351769 -1.03618)
(0.3154 -0.357255 -1.0468)
(0.232834 -0.270227 -0.958902)
(0.273468 -0.31367 -0.971952)
(0.238635 -0.298178 -0.960918)
(0.271553 -0.321586 -0.969744)
(0.185496 -0.23013 -0.926719)
(0.223401 -0.237389 -0.962537)
(0.242069 -0.272942 -0.958888)
(0.246335 -0.252267 -0.96948)
(0.235625 -0.249738 -0.951396)
(0.202673 -0.222709 -0.922608)
(0.263965 -0.298472 -0.982187)
(0.293148 -0.333312 -0.997269)
(0.184303 -0.209771 -0.901028)
(0.17717 -0.185719 -0.91354)
(0.24011 -0.253278 -0.99538)
(0.236368 -0.256176 -0.961363)
(0.245974 -0.254342 -0.999894)
(0.257421 -0.264906 -1.01367)
(0.236066 -0.227693 -0.970784)
(0.319449 -0.442448 -0.624828)
(0.333725 -0.442048 -0.648709)
(0.317338 -0.485541 -0.698583)
(0.291383 -0.456225 -0.62662)
(0.332688 -0.427291 -0.618826)
(0.309652 -0.442911 -0.599941)
(0.31914 -0.463561 -0.647341)
(0.322376 -0.465316 -0.663484)
(0.312401 -0.487214 -0.676158)
(0.332215 -0.497157 -0.720197)
(0.334711 -0.489024 -0.745762)
(0.324993 -0.476711 -0.676423)
(0.336363 -0.453882 -0.781025)
(0.338997 -0.460328 -0.777453)
(0.336142 -0.493915 -0.812726)
(0.346822 -0.469149 -0.815009)
(0.332047 -0.446097 -0.658058)
(0.339297 -0.484407 -0.834558)
(0.333004 -0.456199 -0.863937)
(0.329398 -0.465342 -0.830749)
(0.346626 -0.450618 -0.797464)
(0.166547 -0.320917 -1.03958)
(0.170367 -0.322316 -1.05453)
(0.171643 -0.261987 -1.0525)
(0.176952 -0.276764 -1.06539)
(0.181622 -0.313306 -1.03488)
(0.182796 -0.302676 -1.04559)
(0.172305 -0.269407 -1.05994)
(0.17454 -0.327392 -1.02156)
(0.173584 -0.281007 -1.05985)
(0.174222 -0.296313 -1.03401)
(0.163149 -0.307927 -1.01717)
(0.172407 -0.317219 -0.976815)
(0.166796 -0.29587 -1.01292)
(0.1682 -0.30475 -0.982139)
(0.168084 -0.180278 -1.09002)
(0.163985 -0.162297 -1.10253)
(0.179508 -0.19142 -1.11283)
(0.17449 -0.181406 -1.09623)
(0.174714 -0.154638 -1.10137)
(0.193619 -0.177481 -1.10569)
(0.119635 -0.131495 -0.935207)
(0.143758 -0.168592 -0.995458)
(0.15147 -0.144673 -1.05442)
(0.187286 -0.147236 -1.0786)
(0.184726 -0.14653 -1.06832)
(0.187031 -0.172716 -1.10544)
(0.134061 -0.109259 -0.991131)
(0.140189 -0.10054 -0.964748)
(0.140745 -0.119105 -0.970734)
(0.174173 -0.175842 -1.09159)
(0.195239 -0.144492 -1.02854)
(0.189533 -0.131656 -1.02973)
(0.20209 -0.14375 -1.04045)
(0.177991 -0.110429 -1.04102)
(0.286695 -0.220783 -1.07598)
(0.251573 -0.199795 -1.06985)
(0.262934 -0.171518 -1.08318)
(0.263708 -0.175766 -1.09154)
(0.253443 -0.171429 -1.10302)
(0.280442 -0.201081 -1.07344)
(0.288065 -0.296106 -1.04237)
(0.320457 -0.311293 -1.05223)
(0.263651 -0.270109 -1.04095)
(0.234205 -0.252657 -1.00928)
(0.295325 -0.297285 -1.06991)
(0.318569 -0.318482 -1.06251)
(0.241861 -0.247086 -1.03051)
(0.232621 -0.245069 -0.990214)
(0.306807 -0.294856 -1.05088)
(0.27563 -0.286199 -1.06177)
(0.289379 -0.290009 -1.09039)
(0.302789 -0.29331 -1.06008)
(0.321233 -0.297908 -1.0613)
(0.317767 -0.300683 -1.04335)
(0.241843 -0.364318 -1.03446)
(0.237781 -0.393034 -1.0013)
(0.218385 -0.392451 -0.959553)
(0.227347 -0.416035 -0.952256)
(0.227969 -0.397737 -0.941253)
(0.216938 -0.335556 -0.986238)
(0.228434 -0.331531 -1.04394)
(0.228714 -0.408988 -0.945779)
(0.215361 -0.396161 -0.920639)
(0.233343 -0.391962 -0.996329)
(0.242898 -0.351998 -1.0496)
(0.244158 -0.362275 -1.04456)
(0.237316 -0.394842 -1.00648)
(0.233519 -0.407923 -0.967841)
(0.22299 -0.380556 -0.975034)
(0.230438 -0.373047 -0.994942)
(0.260649 -0.389759 -1.07672)
(0.235703 -0.401678 -1.01835)
(0.225132 -0.376945 -0.980592)
(0.218404 -0.390419 -0.94355)
(0.31249 -0.254691 -1.051)
(0.316782 -0.26416 -1.06028)
(0.280521 -0.24925 -1.06712)
(0.353697 -0.274948 -0.984812)
(0.345145 -0.273833 -0.970902)
(0.324009 -0.262918 -0.984993)
(0.294975 -0.248866 -1.07145)
(0.29345 -0.231907 -1.09813)
(0.31293 -0.258109 -1.02585)
(0.275755 -0.240399 -1.03352)
(0.256425 -0.470128 -0.918707)
(0.257438 -0.467482 -0.902467)
(0.248782 -0.464606 -0.904156)
(0.252735 -0.469639 -0.86308)
(0.253959 -0.43795 -0.965739)
(0.263526 -0.442537 -0.959712)
(0.259034 -0.460321 -0.882628)
(0.253044 -0.44918 -0.922487)
(0.261029 -0.475687 -0.844635)
(0.259921 -0.472551 -0.81866)
(0.287768 -0.466164 -0.849997)
(0.274045 -0.46397 -0.809254)
(0.255301 -0.403704 -0.943761)
(0.262802 -0.432767 -0.956036)
(0.259325 -0.427851 -0.958248)
(0.272924 -0.465781 -0.848238)
(0.291875 -0.457379 -0.879766)
(0.285786 -0.464327 -0.897752)
(0.278635 -0.425226 -0.948049)
(0.275233 -0.418646 -0.941723)
(0.296586 -0.333739 -1.01906)
(0.305621 -0.331509 -1.02051)
(0.210803 -0.285445 -0.945825)
(0.216549 -0.282596 -0.967479)
(0.292696 -0.350203 -1.02226)
(0.310395 -0.348415 -1.05558)
(0.308304 -0.335498 -1.07598)
(0.28433 -0.325284 -1.06169)
(0.263241 -0.333888 -1.04855)
(0.299148 -0.330684 -1.05466)
(0.235992 -0.145974 -0.57204)
(0.288193 -0.167885 -0.605472)
(0.25619 -0.172054 -0.533979)
(0.292997 -0.190941 -0.602678)
(0.232565 -0.155778 -0.550785)
(0.215409 -0.153435 -0.524375)
(0.226291 -0.149148 -0.539086)
(0.258374 -0.158428 -0.601879)
(0.266445 -0.176918 -0.568146)
(0.283517 -0.184613 -0.60517)
(0.237712 -0.165008 -0.533291)
(0.220556 -0.156602 -0.492795)
(0.234812 -0.155171 -0.508498)
(0.219338 -0.332912 -0.917171)
(0.25534 -0.340221 -0.917718)
(0.265065 -0.346399 -0.897584)
(0.257552 -0.416253 -0.91491)
(0.246232 -0.412807 -0.902443)
(0.251904 -0.377362 -0.947962)
(0.251195 -0.373302 -0.961627)
(0.237932 -0.35282 -0.951235)
(0.250934 -0.413808 -0.917103)
(0.252977 -0.405914 -0.911318)
(0.261885 -0.36203 -0.923091)
(0.303454 -0.382035 -0.867567)
(0.312284 -0.405389 -0.846097)
(0.262929 -0.42005 -0.929869)
(0.245352 -0.399152 -0.935999)
(0.301311 -0.421387 -0.815036)
(0.297263 -0.402364 -0.846225)
(0.273379 -0.432753 -0.88105)
(0.271709 -0.425617 -0.847073)
(0.294602 -0.404089 -0.865315)
(0.262003 -0.426697 -0.875702)
(0.279179 -0.425072 -0.847231)
(0.189983 -0.233697 -0.903828)
(0.170785 -0.215818 -0.880056)
(0.252095 -0.280223 -0.98906)
(0.194666 -0.244805 -0.950255)
(0.239844 -0.270125 -1.00567)
(0.224486 -0.270001 -0.970765)
(0.173216 -0.21722 -0.892794)
(0.179488 -0.237858 -0.895508)
(0.267911 -0.297725 -1.0031)
(0.230432 -0.278358 -0.985584)
(0.235509 -0.290107 -0.986352)
(0.257288 -0.308306 -1.02033)
(0.31097 -0.513173 -1.05533)
(0.297591 -0.485756 -1.03783)
(0.284403 -0.509925 -1.02978)
(0.293841 -0.512624 -1.03345)
(0.277071 -0.515752 -1.0391)
(0.28076 -0.52479 -1.03741)
(0.255735 -0.490618 -1.01097)
(0.263032 -0.514661 -1.0187)
(0.241641 -0.43374 -0.964843)
(0.264139 -0.479494 -1.02054)
(0.244748 -0.432328 -0.983032)
(0.0595854 -0.161324 -0.359062)
(0.0500646 -0.163387 -0.33263)
(0.0816907 -0.16157 -0.389867)
(0.0670048 -0.169413 -0.363536)
(0.0683073 -0.214542 -0.410489)
(0.0779697 -0.20716 -0.454352)
(0.0774531 -0.256401 -0.473406)
(0.0736781 -0.264679 -0.429906)
(0.056399 -0.208327 -0.356391)
(0.077935 -0.24076 -0.540321)
(0.079068 -0.243492 -0.546878)
(0.0576059 -0.175734 -0.347328)
(0.0562586 -0.172063 -0.339912)
(0.0832274 -0.172967 -0.407028)
(0.0921722 -0.176401 -0.453736)
(0.0542989 -0.175313 -0.317296)
(0.0664791 -0.217347 -0.403515)
(0.0769574 -0.278742 -0.489893)
(0.0884853 -0.281349 -0.550488)
(0.0845147 -0.204975 -0.516569)
(0.0766741 -0.178807 -0.430007)
(0.0621301 -0.177625 -0.392445)
(0.26154 -0.508842 -1.00685)
(0.260626 -0.522179 -1.01829)
(0.253878 -0.513758 -0.959303)
(0.265934 -0.511386 -0.970199)
(0.250463 -0.530013 -0.977867)
(0.249599 -0.537375 -0.969032)
(0.258089 -0.491307 -0.99819)
(0.25346 -0.507105 -0.959945)
(0.238399 -0.507023 -0.92342)
(0.258601 -0.521333 -1.01529)
(0.252737 -0.485784 -1.01563)
(0.226888 -0.525053 -0.885889)
(0.239967 -0.544798 -0.913472)
(0.264668 -0.53675 -0.990608)
(0.246432 -0.52536 -0.989823)
(0.232662 -0.523946 -0.91846)
(0.236251 -0.5343 -0.902496)
(0.242638 -0.549399 -0.931118)
(0.240486 -0.533155 -0.924455)
(0.232551 -0.539993 -0.897614)
(0.251018 -0.289146 -0.463497)
(0.240277 -0.264193 -0.450164)
(0.300882 -0.342984 -0.618848)
(0.317232 -0.372051 -0.648497)
(0.327768 -0.36698 -0.713544)
(0.310885 -0.334969 -0.659851)
(0.283448 -0.325026 -0.519365)
(0.221097 -0.266145 -0.416311)
(0.244449 -0.265842 -0.465724)
(0.22225 -0.267057 -0.423992)
(0.329229 -0.374631 -0.678982)
(0.327455 -0.381883 -0.677487)
(0.273715 -0.269766 -0.547551)
(0.290928 -0.299073 -0.61151)
(0.261187 -0.253036 -0.468805)
(0.315973 -0.345938 -0.628116)
(0.27872 -0.29783 -0.550395)
(0.334093 -0.386371 -0.661579)
(0.347623 -0.389586 -0.731054)
(0.260815 -0.265997 -0.49178)
(0.283884 -0.310794 -0.502214)
(0.289892 -0.35086 -0.540184)
(0.259518 -0.307293 -0.4828)
(0.260762 -0.306352 -0.481634)
(0.212067 -0.043176 -0.450329)
(0.212431 -0.0500966 -0.423316)
(0.269161 -0.0712551 -0.512666)
(0.248817 -0.0745583 -0.46882)
(0.206224 -0.0499822 -0.444455)
(0.205737 -0.0441544 -0.463204)
(0.222743 -0.0459459 -0.448241)
(0.296621 -0.0815907 -0.545527)
(0.293241 -0.0674408 -0.560527)
(0.248149 -0.0624087 -0.499927)
(0.244432 -0.0452506 -0.449191)
(0.284695 -0.0640066 -0.540718)
(0.25128 -0.0367392 -0.54657)
(0.227739 -0.0383393 -0.560437)
(0.24768 -0.059539 -0.585311)
(0.263583 -0.061128 -0.567386)
(0.226221 -0.0490966 -0.534824)
(0.240172 -0.0452223 -0.526178)
(0.284854 -0.273635 -0.750841)
(0.293829 -0.249679 -0.697685)
(0.235946 -0.22811 -0.721574)
(0.253098 -0.235995 -0.746546)
(0.258366 -0.225159 -0.676276)
(0.280568 -0.254784 -0.719267)
(0.219003 -0.217076 -0.67582)
(0.300975 -0.311801 -0.752974)
(0.29839 -0.286865 -0.729447)
(0.249312 -0.220267 -0.647764)
(0.22361 -0.221912 -0.669888)
(0.297126 -0.306491 -0.77189)
(0.303181 -0.315065 -0.763703)
(0.296222 -0.292507 -0.713507)
(0.262809 -0.229185 -0.649084)
(0.286793 -0.259411 -0.645835)
(0.304166 -0.275413 -0.664319)
(0.305884 -0.237094 -0.54891)
(0.252631 -0.200287 -0.463235)
(0.323457 -0.239585 -0.680363)
(0.316148 -0.214519 -0.660636)
(0.269374 -0.198035 -0.484458)
(0.321479 -0.22709 -0.570147)
(0.236064 -0.167517 -0.461422)
(0.223184 -0.174416 -0.426628)
(0.253442 -0.187243 -0.458893)
(0.295509 -0.230054 -0.524278)
(0.320559 -0.241887 -0.575682)
(0.327713 -0.257974 -0.662805)
(0.338581 -0.249583 -0.696424)
(0.297627 -0.215841 -0.608176)
(0.255977 -0.175654 -0.499203)
(0.233294 -0.173431 -0.467832)
(0.239143 -0.180046 -0.45528)
(0.284202 -0.215701 -0.522104)
(0.258586 -0.178228 -0.556024)
(0.322262 -0.229656 -0.650446)
(0.0702275 -0.267873 -0.379911)
(0.0651205 -0.26338 -0.387429)
(0.0684254 -0.251502 -0.399043)
(0.0751312 -0.294667 -0.441368)
(0.0763861 -0.271011 -0.45666)
(0.0950575 -0.258555 -0.477562)
(0.101643 -0.257454 -0.52347)
(0.097516 -0.267899 -0.554984)
(0.084927 -0.24955 -0.435383)
(0.0863211 -0.306108 -0.532958)
(0.0799469 -0.32938 -0.517714)
(0.0847176 -0.263195 -0.457514)
(0.0934633 -0.288963 -0.562827)
(0.103951 -0.245112 -0.504427)
(0.0923057 -0.257323 -0.466533)
(0.323476 -0.548118 -0.655267)
(0.29589 -0.538098 -0.619856)
(0.199219 -0.504209 -0.536172)
(0.226398 -0.524089 -0.568388)
(0.357997 -0.483551 -0.912051)
(0.364666 -0.482848 -0.896356)
(0.0552388 -0.24167 -0.355527)
(0.223272 -0.55302 -0.854836)
(0.225189 -0.558793 -0.845731)
(0.14662 -0.181973 -0.34017)
(0.143009 -0.167362 -0.330726)
(0.386612 -0.482812 -0.87298)
(0.370419 -0.467457 -0.855809)
(0.256035 -0.51903 -0.662997)
(0.270828 -0.512038 -0.677538)
(0.301784 -0.533112 -0.620293)
(0.338085 -0.536574 -0.626443)
(0.329571 -0.530328 -0.611815)
(0.111495 -0.393439 -0.450824)
(0.0996239 -0.378874 -0.425734)
(0.112782 -0.414188 -0.485967)
(0.0735638 -0.153508 -0.281279)
(0.0762825 -0.157051 -0.285927)
(0.252851 -0.502636 -0.914085)
(0.263362 -0.499074 -0.918272)
(0.278085 -0.497022 -0.951454)
(0.327624 -0.412032 -0.594541)
(0.283318 -0.357843 -0.511478)
(0.291962 -0.35198 -0.521515)
(0.245827 -0.552829 -0.782842)
(0.233007 -0.552589 -0.839768)
(0.0599348 -0.22761 -0.335543)
(0.0567445 -0.214611 -0.323627)
(0.377905 -0.442988 -0.872261)
(0.364808 -0.437249 -0.853263)
(0.354983 -0.439097 -0.903213)
(0.151667 -0.155214 -0.360634)
(0.123048 -0.151957 -0.319607)
(0.122863 -0.15537 -0.327192)
(0.303926 -0.510384 -0.600459)
(0.315852 -0.502568 -0.612141)
(0.347169 -0.509859 -0.680564)
(0.280514 -0.263048 -0.497261)
(0.303041 -0.300852 -0.526593)
(0.271437 -0.509927 -0.69189)
(0.301401 -0.510658 -0.721562)
(0.299245 -0.497159 -0.669282)
(0.134993 -0.405756 -0.502537)
(0.116856 -0.395283 -0.487899)
(0.0706578 -0.170139 -0.300832)
(0.0655933 -0.179935 -0.309898)
(0.402987 -0.464264 -0.809244)
(0.41638 -0.454462 -0.816966)
(0.266894 -0.442409 -0.961573)
(0.296357 -0.438835 -0.963328)
(0.269132 -0.442028 -0.938486)
(0.295031 -0.43697 -0.92079)
(0.140917 -0.139789 -0.35748)
(0.134383 -0.138778 -0.34905)
(0.233646 -0.510075 -0.828343)
(0.220512 -0.499164 -0.83547)
(0.063488 -0.219163 -0.364892)
(0.0647073 -0.231322 -0.351593)
(0.0625859 -0.270125 -0.398732)
(0.317561 -0.474817 -0.705638)
(0.3262 -0.481638 -0.746602)
(0.299424 -0.502902 -0.753028)
(0.260866 -0.457355 -0.605635)