/*--------------------------------*- C++ -*----------------------------------*\
| =========                 |                                                 |
| \\      /  F ield         | OpenFOAM: The Open Source CFD Toolbox           |
|  \\    /   O peration     | Version:  v1612+                                |
|   \\  /    A nd           | Web:      www.OpenFOAM.com                      |
|    \\/     M anipulation  |                                                 |
\*---------------------------------------------------------------------------*/
FoamFile
{
    version     2.0;
    format      ascii;
    class       volVectorField;
    location    "100";
    object      wallShearStress;
}
// * * * * * * * * * * * * * * * * * * * * * * * * * * * * * * * * * * * * * //

dimensions      [0 2 -2 0 0 0 0];

internalField   uniform (0 0 0);

boundaryField
{
    WALL
    {
        type            calculated;
        value           nonuniform List<vector> 
1514
(
(-0.0090554 0.0111896 0.0120988)
(-0.00804117 0.00885483 0.0126161)
(-0.0125219 0.0165762 0.0242657)
(-0.0128901 0.0166856 0.0214091)
(-0.00113877 0.00417381 0.00624536)
(-0.00100106 0.00428823 0.00643915)
(-0.00203745 0.00788109 0.0081465)
(-0.001669 0.00657057 0.00763905)
(-0.00124513 0.00513229 0.00706655)
(-0.00108216 0.00469822 0.00679192)
(-0.00972078 0.0166635 0.0286742)
(-0.0116029 0.0156659 0.0275413)
(-0.00739744 0.0176336 0.0281462)
(-0.00723502 0.0187808 0.0285604)
(-0.00161236 0.00477163 0.00832911)
(-0.000960947 0.004771 0.00762063)
(-0.00418141 0.00663467 0.00937178)
(-0.00845675 0.00745805 0.023796)
(-0.0063504 0.00834388 0.024412)
(-0.0120618 0.0143122 0.0118565)
(-0.0137255 0.015272 0.0131668)
(-0.00749952 0.0165245 0.0274008)
(-0.00560243 0.018626 0.0275429)
(-0.002388 0.0134202 0.0238549)
(-0.00341533 0.0112314 0.0242222)
(-0.00395425 0.0140971 0.0241713)
(-0.00397683 0.0151257 0.0251824)
(-0.00273187 0.0145379 0.0242761)
(-0.00223048 0.0142112 0.0239893)
(-0.00498472 0.0181347 0.0252754)
(-0.00393435 0.0182992 0.0236848)
(-0.00551575 0.0186785 0.0248628)
(-0.00202115 0.00307204 0.00890838)
(-0.0019225 0.00306647 0.00857789)
(-0.0152762 0.010807 0.0167005)
(-0.0145754 0.0125878 0.0152719)
(-0.0148181 0.0108402 0.0159842)
(-0.0148473 0.0129251 0.0146434)
(-0.014754 0.0121373 0.0158178)
(-0.0146026 0.0104069 0.0156804)
(-0.00487043 0.00633601 0.00900039)
(-0.00443444 0.00582984 0.00899276)
(-0.00530295 0.0066562 0.00930092)
(-0.00375182 0.00498633 0.00811277)
(-0.0040622 0.00527081 0.00837591)
(-0.00470649 0.00591669 0.00879941)
(-0.00154626 0.00630437 0.00868304)
(-0.00163254 0.00626432 0.00855644)
(-0.00173034 0.00761563 0.00865784)
(-0.00141741 0.00564666 0.0082971)
(-0.00142231 0.00556623 0.00840038)
(-0.00149616 0.00723008 0.00850219)
(-0.0074924 0.0124716 0.0115626)
(-0.00711974 0.0146901 0.0127117)
(-0.00768987 0.0128532 0.0118949)
(-0.00730947 0.0129667 0.0118301)
(-0.00822702 0.0160102 0.0138922)
(-0.00771472 0.0138583 0.011277)
(-0.00232848 0.00288902 0.009423)
(-0.00192644 0.00323497 0.00885523)
(-0.00183127 0.00325247 0.00870595)
(-0.00231837 0.00271552 0.00919903)
(-0.00217021 0.00304779 0.00888281)
(-0.00235536 0.00263714 0.00937889)
(-0.0110329 0.0144842 0.0122681)
(-0.0113049 0.0140507 0.0121773)
(-0.0131181 0.0152713 0.0127985)
(-0.0116949 0.0155499 0.0129894)
(-0.0101764 0.0146705 0.0119091)
(-0.0102141 0.0148454 0.0117344)
(-0.011192 0.0125331 0.0154868)
(-0.0118977 0.0140081 0.0143115)
(-0.014493 0.012727 0.0162041)
(-0.0123183 0.0114845 0.0152671)
(-0.01244 0.0130652 0.0152858)
(-0.0130442 0.0114509 0.0148757)
(-0.0116795 0.0123908 0.024835)
(-0.00925523 0.0114786 0.0240404)
(-0.00955588 0.0121441 0.0249737)
(-0.0107355 0.0121541 0.0248437)
(-0.0120933 0.0119486 0.0239606)
(-0.0109939 0.0107798 0.0227822)
(-0.00527065 0.0186126 0.0191275)
(-0.00471523 0.0180388 0.0210728)
(-0.00460341 0.0177284 0.0215249)
(-0.00380769 0.0175618 0.0213386)
(-0.00400635 0.0177102 0.0213822)
(-0.00562841 0.0190701 0.0213304)
(-0.00550852 0.0158021 0.0256131)
(-0.00530523 0.015623 0.0248681)
(-0.00561735 0.016587 0.0258248)
(-0.00439701 0.0181279 0.0256011)
(-0.00127534 0.00472295 0.0068997)
(-0.00134685 0.0053548 0.00713272)
(-0.00116207 0.00466806 0.00706316)
(-0.00115751 0.00464086 0.0068466)
(-0.00117596 0.0046321 0.00709761)
(-0.00117239 0.00520836 0.00722337)
(-0.00292741 0.0100801 0.00948027)
(-0.00273637 0.011063 0.00852018)
(-0.00222262 0.00852411 0.00800794)
(-0.00217706 0.00915447 0.00858084)
(-0.0026506 0.0104858 0.00865561)
(-0.0018736 0.00784314 0.00764309)
(-0.00484716 0.0137421 0.00970888)
(-0.00347707 0.0118872 0.00904152)
(-0.00400315 0.0130821 0.00923235)
(-0.00491949 0.0134244 0.0102082)
(-0.00409431 0.013311 0.00958115)
(-0.0013442 0.00625908 0.00751867)
(-0.00147177 0.00670702 0.00757164)
(-0.00192795 0.00700084 0.00835336)
(-0.00132882 0.00631785 0.00748302)
(-0.00135997 0.00639241 0.00785368)
(-0.00170758 0.00699452 0.00831236)
(-0.00790204 0.0175102 0.0281391)
(-0.00694665 0.0177229 0.0275128)
(-0.00855434 0.0178216 0.0292873)
(-0.00783294 0.0170511 0.0278876)
(-0.00462458 0.0186726 0.0249126)
(-0.00465098 0.0194325 0.0242663)
(-0.00512686 0.0175143 0.0243835)
(-0.0051079 0.0187405 0.0260746)
(-0.00505545 0.0195409 0.0254392)
(-0.00468983 0.0187544 0.0244834)
(-0.0039328 0.0200456 0.0184346)
(-0.00443599 0.0202796 0.0202982)
(-0.0032956 0.0205564 0.0211862)
(-0.00403236 0.0205718 0.0211048)
(-0.00433563 0.0199227 0.0214587)
(-0.00285715 0.00184848 0.00974066)
(-0.00332532 0.00183348 0.0101052)
(-0.00295794 0.00165038 0.00977217)
(-0.00288614 0.0111206 0.0262913)
(-0.00350812 0.0101998 0.0267234)
(-0.00241071 0.0117203 0.0248915)
(-0.00272625 0.0100149 0.0255849)
(-0.00260806 0.0117806 0.0265899)
(-0.00217322 0.0126781 0.0253043)
(-0.0124204 0.0174366 0.0200267)
(-0.0109869 0.0161309 0.0192666)
(-0.0110661 0.0160721 0.0195333)
(-0.0105964 0.0166316 0.0193128)
(-0.0103118 0.0166494 0.0180629)
(-0.0109745 0.0163676 0.0183642)
(-0.0117035 0.0160416 0.0164848)
(-0.0125654 0.0157532 0.0185885)
(-0.0129351 0.0167778 0.0184783)
(-0.0128662 0.0174774 0.0198523)
(-0.0139145 0.0165644 0.018414)
(-0.0117677 0.0162253 0.0162047)
(-0.0104589 0.0165625 0.0157111)
(-0.0089136 0.0166416 0.0137476)
(-0.00982127 0.0166087 0.0137396)
(-0.00872084 0.0160044 0.0142064)
(-0.010139 0.016186 0.0156212)
(-0.00968712 0.0166371 0.0155762)
(-0.00793362 0.0147935 0.0142605)
(-0.00669101 0.0133881 0.0133326)
(-0.00749381 0.0137727 0.016032)
(-0.0063428 0.0127966 0.0143732)
(-0.00905406 0.0159633 0.0145318)
(-0.00349133 0.00979638 0.00997048)
(-0.00365915 0.0112552 0.0104558)
(-0.00299155 0.00926367 0.00946096)
(-0.00268983 0.00886315 0.00878422)
(-0.00282703 0.0098752 0.00937259)
(-0.00409643 0.0178949 0.0193112)
(-0.00452575 0.0205953 0.0199787)
(-0.00443272 0.0199391 0.022418)
(-0.00304859 0.018016 0.0192322)
(-0.00450189 0.0189097 0.0192348)
(-0.00770542 0.0192289 0.0192033)
(-0.00725131 0.0177862 0.0177856)
(-0.00915944 0.0174543 0.0163605)
(-0.00957001 0.017066 0.0177497)
(-0.00891293 0.0186764 0.0204228)
(-0.0093926 0.0185625 0.018819)
(-0.00291072 0.0155034 0.022851)
(-0.00271032 0.0141909 0.0249924)
(-0.00287197 0.0156371 0.0236335)
(-0.00308989 0.0162309 0.0232373)
(-0.00247605 0.015322 0.0236952)
(-0.00262089 0.0137463 0.0234294)
(-0.00589836 0.00497316 0.011432)
(-0.00681595 0.00565182 0.0121266)
(-0.00683289 0.0063222 0.0118884)
(-0.00575722 0.00554141 0.0113704)
(-0.00513935 0.00489686 0.010838)
(-0.0078468 0.00671585 0.0129504)
(-0.00619828 0.0202868 0.0174526)
(-0.00776187 0.0198168 0.0172806)
(-0.00578013 0.0201207 0.0189061)
(-0.00633034 0.0194331 0.0170308)
(-0.00588595 0.0191974 0.0182003)
(-0.00732745 0.0200998 0.0177697)
(-0.00832289 0.0184791 0.0163189)
(-0.0067989 0.0184793 0.0156921)
(-0.00858918 0.0176367 0.0145516)
(-0.00860324 0.0170767 0.016204)
(-0.00788613 0.0181759 0.01704)
(-0.00745806 0.0197243 0.0168443)
(-0.00875681 0.0203172 0.0184947)
(-0.00863046 0.0190692 0.0187878)
(-0.00652129 0.0187798 0.0192818)
(-0.00805866 0.0204026 0.0196689)
(-0.00715895 0.0189613 0.0187467)
(-0.0066275 0.019629 0.0188454)
(-0.00608349 0.00761323 0.0101933)
(-0.00574852 0.00704288 0.00990702)
(-0.00861696 0.0109346 0.012116)
(-0.00829052 0.00990083 0.0127397)
(-0.0074095 0.00881361 0.0114505)
(-0.00649449 0.0075936 0.0107631)
(-0.00286277 0.0153375 0.0235252)
(-0.00324871 0.0150993 0.024251)
(-0.00376121 0.0138735 0.0246053)
(-0.00313427 0.0148199 0.024458)
(-0.00341383 0.0133735 0.0243887)
(-0.00413239 0.0130814 0.0248899)
(-0.00298746 0.0180015 0.020991)
(-0.00276044 0.0161049 0.0231603)
(-0.00279082 0.0168258 0.0232906)
(-0.00293807 0.0182473 0.0218686)
(-0.00363692 0.0175074 0.0232387)
(-0.00317766 0.0164124 0.0226554)
(-0.00310439 0.0186702 0.0241163)
(-0.00304426 0.0188305 0.0235688)
(-0.00289617 0.0176794 0.022012)
(-0.00359307 0.0182775 0.0222999)
(-0.00333049 0.0190564 0.0216472)
(-0.00235039 0.0192109 0.0210897)
(-0.0139043 0.0168838 0.0236013)
(-0.0137739 0.0155933 0.0227506)
(-0.0140856 0.0161314 0.0208153)
(-0.012857 0.0155805 0.0229665)
(-0.0135019 0.0149284 0.0205852)
(-0.0131869 0.015893 0.0211376)
(-0.00919824 0.0148744 0.0263327)
(-0.00897988 0.0153869 0.0266439)
(-0.010787 0.0153298 0.0272397)
(-0.0090715 0.0170009 0.02878)
(-0.00780151 0.0159855 0.027059)
(-0.0137312 0.0159984 0.0209061)
(-0.0137625 0.016594 0.0200537)
(-0.0149937 0.0169184 0.0208328)
(-0.0139615 0.0168926 0.0175456)
(-0.0132374 0.0163892 0.0175641)
(-0.0142597 0.0157717 0.016894)
(-0.0120279 0.0150879 0.0253949)
(-0.012241 0.0164664 0.0272879)
(-0.0123733 0.0149999 0.024279)
(-0.0116076 0.0144841 0.0250576)
(-0.0116952 0.0148112 0.0251958)
(-0.0124013 0.0152394 0.0245211)
(-0.0115226 0.0134486 0.0237761)
(-0.012047 0.0140968 0.0240256)
(-0.0113524 0.014177 0.0259208)
(-0.00946788 0.0134806 0.0242932)
(-0.0104673 0.0153228 0.0266932)
(-0.0152012 0.0152874 0.0195931)
(-0.0153642 0.0153418 0.0214363)
(-0.0148645 0.0157431 0.0181931)
(-0.0143871 0.0147813 0.0171478)
(-0.0147551 0.0132982 0.0166938)
(-0.0149362 0.0150598 0.0210251)
(-0.0151274 0.0155146 0.0177588)
(-0.0152774 0.0117488 0.0211908)
(-0.0135475 0.0110316 0.0215756)
(-0.0130916 0.0109657 0.0231187)
(-0.0143593 0.011438 0.0210618)
(-0.0133275 0.0105008 0.021642)
(-0.0129568 0.0110323 0.0233851)
(-0.00654658 0.0119979 0.0249651)
(-0.00691547 0.0121703 0.0243605)
(-0.00569847 0.013124 0.0247039)
(-0.00519771 0.0131503 0.0244161)
(-0.00762871 0.0114895 0.0245722)
(-0.00647386 0.0126908 0.0254187)
(-0.0155194 0.0141537 0.0202889)
(-0.0149128 0.0126835 0.0201176)
(-0.0148222 0.0122343 0.0193498)
(-0.0139765 0.0125154 0.0223506)
(-0.014498 0.0135685 0.0204315)
(-0.0148904 0.0129704 0.0221825)
(-0.0157349 0.00949254 0.018438)
(-0.0160585 0.0120002 0.0174192)
(-0.0156632 0.0115022 0.0182905)
(-0.0162049 0.0111695 0.018386)
(-0.0152527 0.00932448 0.0176649)
(-0.0154444 0.00902244 0.0193314)
(-0.0145016 0.0114116 0.0187101)
(-0.0148522 0.0127051 0.0178453)
(-0.0147165 0.00939169 0.0183588)
(-0.00997375 0.0118303 0.0155159)
(-0.0115685 0.0115484 0.0157244)
(-0.00906372 0.0116727 0.0146669)
(-0.00964685 0.0138449 0.0128473)
(-0.00861233 0.0139433 0.0111871)
(-0.0119641 0.0141934 0.013437)
(-0.0102285 0.0131383 0.012566)
(-0.0108169 0.0128574 0.0124345)
(-0.00826794 0.0129327 0.0118468)
(-0.0107927 0.0141093 0.0120446)
(-0.0103039 0.0148843 0.0125286)
(-0.0123528 0.0161307 0.0124748)
(-0.00858322 0.0147033 0.0102427)
(-0.00956838 0.0149921 0.0127441)
(-0.00614661 0.00724992 0.0254029)
(-0.00517814 0.00819281 0.0264644)
(-0.00404961 0.00893318 0.0252413)
(-0.00549592 0.00769463 0.0248472)
(-0.00465658 0.0085273 0.0250931)
(-0.00522937 0.0078058 0.0263911)
(-0.0143733 0.00686521 0.0215177)
(-0.012553 0.00606361 0.0225432)
(-0.01334 0.00644075 0.0237707)
(-0.0147015 0.00691355 0.0201992)
(-0.0142367 0.0069088 0.0218237)
(-0.00986819 0.00608497 0.0253651)
(-0.00818292 0.00662022 0.0261031)
(-0.00762061 0.00639924 0.0259284)
(-0.00800578 0.0056302 0.0254118)
(-0.00981169 0.00548203 0.0259052)
(-0.0110894 0.00547061 0.0247008)
(-0.01221 0.00758372 0.0211993)
(-0.0139574 0.00867364 0.0199366)
(-0.0139864 0.00878749 0.0200258)
(-0.0133925 0.00909245 0.0222373)
(-0.0134278 0.00810033 0.0221657)
(-0.0120696 0.00798435 0.0218498)
(-0.00988744 0.0107947 0.0242888)
(-0.0101355 0.0103821 0.0234213)
(-0.00869379 0.0109358 0.0247408)
(-0.00904093 0.0103472 0.0242353)
(-0.0114784 0.0105758 0.0241013)
(-0.0112817 0.010257 0.0238511)
(-0.00424973 0.010775 0.0232287)
(-0.00633926 0.00887573 0.0231641)
(-0.00554003 0.00953531 0.0244321)
(-0.00518283 0.00984406 0.0241194)
(-0.00644019 0.00960007 0.0236047)
(-0.00503815 0.0113376 0.02465)
(-0.00727972 0.00821146 0.0235006)
(-0.00635677 0.00912754 0.024556)
(-0.00923202 0.00777585 0.0228841)
(-0.00898582 0.00721701 0.023131)
(-0.00834229 0.00849859 0.0242935)
(-0.010384 0.00726613 0.0228311)
(-0.00247989 0.00294183 0.00951564)
(-0.00274805 0.0034506 0.00986326)
(-0.00289587 0.00316063 0.0101404)
(-0.00242898 0.00322029 0.0093653)
(-0.00223506 0.00341028 0.00919972)
(-0.00283079 0.00296336 0.00988228)
(-0.00134846 0.004423 0.00755014)
(-0.0014891 0.00454425 0.00825799)
(-0.00151552 0.00449683 0.00793161)
(-0.00160714 0.00449579 0.00850074)
(-0.00190735 0.00400421 0.00826461)
(-0.00150068 0.00403927 0.00789634)
(-0.00137374 0.00478162 0.00749702)
(-0.00135501 0.00601936 0.00798828)
(-0.00125647 0.00640091 0.00781224)
(-0.00132704 0.00585976 0.00780326)
(-0.00145781 0.00488148 0.0080719)
(-0.00138484 0.00517441 0.007706)
(-0.00125794 0.00543903 0.00764419)
(-0.00206684 0.00930292 0.00849593)
(-0.0018578 0.00845833 0.00823764)
(-0.00109312 0.00754822 0.00768239)
(-0.00134398 0.00900102 0.00853392)
(-0.00157911 0.00921906 0.00797794)
(-0.00151133 0.0079324 0.00813789)
(-0.00163306 0.0039077 0.00774975)
(-0.00230594 0.00418003 0.0087418)
(-0.00167661 0.00400411 0.00778158)
(-0.00146228 0.00391661 0.00779137)
(-0.00203548 0.00406655 0.00833952)
(-0.00202384 0.00412543 0.00842233)
(-0.00424525 0.00500738 0.00964394)
(-0.00299927 0.00430517 0.00893344)
(-0.00344121 0.00454346 0.00913012)
(-0.00477931 0.00513665 0.0104001)
(-0.00403599 0.0045352 0.00980458)
(-0.00311351 0.00430858 0.00942129)
(-0.00545491 0.0137434 0.009636)
(-0.0055568 0.0138863 0.00962482)
(-0.00661176 0.0145825 0.0111694)
(-0.00701197 0.0146674 0.0113898)
(-0.00818191 0.0161853 0.0109527)
(-0.00779217 0.0145972 0.0106743)
(-0.00605046 0.0190377 0.018447)
(-0.00490046 0.0195277 0.016681)
(-0.00555539 0.017375 0.0148437)
(-0.0056968 0.0168956 0.0152251)
(-0.00587529 0.018458 0.0174394)
(-0.00460969 0.0191571 0.0163808)
(-0.00390378 0.0196276 0.0208709)
(-0.00439792 0.0212684 0.0233181)
(-0.00408749 0.0195804 0.0205395)
(-0.00473564 0.0195319 0.0205584)
(-0.00509239 0.020891 0.021562)
(-0.00474578 0.0205145 0.0233621)
(-0.00255665 0.00445212 0.00755735)
(-0.00341146 0.00506319 0.00822722)
(-0.0023896 0.00422141 0.00723829)
(-0.00292854 0.00463583 0.00787046)
(-0.00299525 0.00481235 0.00783419)
(-0.00260141 0.00430543 0.00755264)
(-0.00117049 0.00374199 0.00657361)
(-0.00144455 0.00366701 0.00634402)
(-0.00165183 0.00382213 0.00657294)
(-0.00161839 0.00386475 0.00684221)
(-0.0057463 0.0104161 0.0121719)
(-0.0053032 0.0118347 0.0122283)
(-0.00515643 0.0106681 0.0113406)
(-0.00579425 0.0126338 0.0130204)
(-0.00526927 0.00792329 0.00994618)
(-0.00592909 0.00837032 0.010423)
(-0.00442986 0.00658555 0.00871618)
(-0.00395333 0.0060371 0.00876799)
(-0.00522888 0.0071353 0.00934184)
(-0.00483714 0.00660127 0.0092028)
(-0.00728812 0.0182114 0.0146649)
(-0.00672429 0.0191578 0.0150503)
(-0.00746292 0.0187585 0.0160149)
(-0.00752536 0.0110199 0.0117137)
(-0.00984908 0.0135748 0.014906)
(-0.00692059 0.00922806 0.0113847)
(-0.00861255 0.0106334 0.0119978)
(-0.00760162 0.010174 0.010778)
(-0.00812456 0.0122804 0.0132469)
(-0.00742408 0.0110666 0.0107258)
(-0.00568377 0.00777069 0.0100534)
(-0.00580705 0.00784793 0.00949521)
(-0.00615365 0.00950002 0.0100982)
(-0.00598424 0.00860649 0.0101613)
(-0.00603244 0.0088337 0.010241)
(-0.00581934 0.0101932 0.01114)
(-0.00558799 0.00932913 0.0111203)
(-0.00625102 0.00965463 0.0105585)
(-0.00596119 0.00920504 0.010888)
(-0.00736051 0.01351 0.012165)
(-0.00542439 0.0105686 0.0116659)
(-0.00538133 0.00228486 0.0114758)
(-0.00443464 0.0022481 0.0110156)
(-0.00474516 0.00222874 0.0109551)
(-0.00379311 0.00201242 0.0101676)
(-0.00444265 0.00212236 0.011303)
(-0.00879554 0.00435657 0.013342)
(-0.00732314 0.0028046 0.0123982)
(-0.00667874 0.00287301 0.0121376)
(-0.00778743 0.00363689 0.0131548)
(-0.00965963 0.00425635 0.014258)
(-0.00808008 0.00299909 0.0125076)
(-0.00551733 0.00329683 0.0123163)
(-0.00470001 0.00281894 0.0112031)
(-0.00377866 0.00292726 0.0109164)
(-0.00406749 0.00309719 0.0109773)
(-0.0045254 0.00268663 0.0112562)
(-0.00515913 0.00345217 0.011948)
(-0.00952942 0.00613514 0.0135505)
(-0.00928571 0.00522403 0.0138622)
(-0.00791515 0.00460283 0.013241)
(-0.00871978 0.00541938 0.0138881)
(-0.00895119 0.00478686 0.0137027)
(-0.0102748 0.00631238 0.0145748)
(-0.00148388 0.00421223 0.00811508)
(-0.001734 0.00400597 0.00841063)
(-0.00148382 0.00413348 0.0082928)
(-0.00161717 0.00428066 0.00791365)
(-0.00161147 0.0041298 0.00819016)
(-0.00190263 0.00494058 0.0103092)
(-0.0017734 0.00371012 0.00947995)
(-0.0018517 0.00453681 0.00964689)
(-0.00186292 0.00376843 0.0092157)
(-0.00177187 0.00353138 0.0091633)
(-0.00167982 0.00384691 0.00937117)
(-0.00204394 0.00192142 0.00870833)
(-0.00201214 0.00229941 0.00900855)
(-0.00196146 0.00206543 0.00911818)
(-0.00189296 0.00250385 0.00907964)
(-0.00198012 0.00225408 0.00893001)
(-0.00220386 0.00174068 0.00907868)
(-0.00924291 0.0128767 0.0134007)
(-0.00970916 0.0138183 0.0142745)
(-0.00822632 0.0129065 0.0141749)
(-0.00656763 0.0115213 0.0125961)
(-0.00761799 0.0124986 0.0125049)
(-0.00605926 0.0108756 0.0111065)
(-0.00343068 0.00755038 0.0113525)
(-0.00342408 0.00873088 0.0115328)
(-0.00261685 0.00634027 0.0106497)
(-0.00260963 0.00739685 0.0103955)
(-0.00407398 0.00866279 0.0114397)
(-0.00369011 0.00874065 0.0104374)
(-0.00222552 0.0080697 0.00867801)
(-0.00313508 0.0093996 0.00931166)
(-0.00388564 0.0108696 0.00887423)
(-0.00227791 0.0094239 0.00873762)
(-0.00403794 0.0111953 0.00994035)
(-0.00322803 0.0105845 0.00923782)
(-0.00145684 0.00353926 0.00785499)
(-0.00152583 0.0036761 0.00775332)
(-0.00351985 0.0114894 0.00835298)
(-0.00277671 0.0107379 0.00807966)
(-0.00286999 0.0107303 0.008962)
(-0.00457221 0.0123234 0.00912547)
(-0.00451455 0.0128905 0.0102287)
(-0.00344708 0.0116009 0.00950056)
(-0.00384257 0.0154429 0.0249883)
(-0.00481197 0.0161259 0.0209439)
(-0.00433202 0.015765 0.0212)
(-0.00348091 0.0157501 0.0235876)
(-0.00911226 0.0195427 0.0216592)
(-0.00714863 0.0179002 0.0202708)
(-0.0100323 0.0190605 0.0208975)
(-0.00939039 0.0176114 0.0180903)
(-0.00913035 0.0184382 0.0189021)
(-0.0120948 0.0188064 0.0198401)
(-0.0102326 0.0154465 0.0165262)
(-0.00939212 0.016789 0.0186196)
(-0.0135849 0.0161572 0.013525)
(-0.0129047 0.0127787 0.0132592)
(-0.0146971 0.0134918 0.0147924)
(-0.0135055 0.0149575 0.0150868)
(-0.0125329 0.0143495 0.0137246)
(-0.013705 0.012907 0.0141095)
(-0.0131844 0.0136699 0.0138981)
(-0.011087 0.0147047 0.012269)
(-0.0123802 0.0130111 0.0128282)
(-0.0110136 0.0144428 0.0125258)
(-0.0118194 0.0130778 0.0124597)
(-0.0114789 0.0138613 0.0126904)
(-0.0136459 0.0135817 0.0144026)
(-0.0151909 0.0120419 0.0164238)
(-0.0132927 0.0130689 0.0150732)
(-0.0140413 0.0128277 0.0149209)
(-0.0137335 0.0116246 0.0147924)
(-0.014563 0.0115001 0.0150735)
(-0.0119607 0.0164379 0.022189)
(-0.0130157 0.0174279 0.0245787)
(-0.0122167 0.0162348 0.0229736)
(-0.0114489 0.0156409 0.0221768)
(-0.0116729 0.0153798 0.0220789)
(-0.0107708 0.0150269 0.0210912)
(-0.0118028 0.0163787 0.021347)
(-0.0135158 0.0178321 0.022146)
(-0.00765271 0.0160232 0.0263062)
(-0.0076852 0.0173016 0.0278141)
(-0.00730249 0.0181405 0.0283432)
(-0.00841954 0.0171155 0.0283408)
(-0.00647856 0.0188799 0.0278892)
(-0.00689075 0.018909 0.0284585)
(-0.00135205 0.0048459 0.00668945)
(-0.00139877 0.00499591 0.00670421)
(-0.00141321 0.00476353 0.00660582)
(-0.00149253 0.00554819 0.00722891)
(-0.00156763 0.00537204 0.00718729)
(-0.00139423 0.00490276 0.00693953)
(-0.00119992 0.00445166 0.00646712)
(-0.00107976 0.00414691 0.00633247)
(-0.00112012 0.00439341 0.00645371)
(-0.00113458 0.0045647 0.00661824)
(-0.00121518 0.00450341 0.00660851)
(-0.00127943 0.00498356 0.00705421)
(-0.00151237 0.00479573 0.00679127)
(-0.00123919 0.00460118 0.00651667)
(-0.00148853 0.0066179 0.00791654)
(-0.00144893 0.00726095 0.0077377)
(-0.00153608 0.00639069 0.00726659)
(-0.00162463 0.00587498 0.00731898)
(-0.00151148 0.00622494 0.00738906)
(-0.00134691 0.0043626 0.00633584)
(-0.00156939 0.00545726 0.00703994)
(-0.00146981 0.00562705 0.00738213)
(-0.0014836 0.00535207 0.00696928)
(-0.00124622 0.00511766 0.00702704)
(-0.00151217 0.00587668 0.00754123)
(-0.0013472 0.00579702 0.007684)
(-0.0057281 0.0184081 0.0263005)
(-0.00544044 0.0186398 0.0262321)
(-0.00650294 0.0170928 0.0272008)
(-0.00584622 0.0167489 0.0254216)
(-0.00810741 0.0172327 0.0284049)
(-0.0104158 0.0150952 0.0200681)
(-0.00961654 0.0146642 0.0202661)
(-0.0107064 0.0154684 0.0239554)
(-0.0102636 0.0148996 0.0221274)
(-0.0102163 0.0158574 0.0230647)
(-0.0113849 0.0165417 0.0252987)
(-0.0121673 0.0161157 0.0241009)
(-0.014408 0.00578701 0.0266148)
(-0.0141724 0.0141634 0.0232746)
(-0.0132174 0.0129142 0.0226738)
(-0.0158727 0.0109671 0.0178797)
(-0.0152508 0.0100493 0.0181004)
(-0.0124314 0.0137758 0.0133201)
(-0.0123701 0.0155641 0.0122434)
(-0.0144558 0.00775188 0.0194349)
(-0.0146519 0.00804357 0.0187077)
(-0.0148217 0.0133049 0.0157158)
(-0.0144623 0.00814096 0.0208809)
(-0.0147216 0.00802203 0.0185016)
(-0.0144572 0.00837479 0.0206823)
(-0.0161675 0.0123823 0.0184372)
(-0.0152871 0.0121798 0.016446)
(-0.0152065 0.010623 0.0179751)
(-0.0154756 0.00951391 0.019934)
(-0.0145765 0.00923803 0.0197213)
(-0.0149181 0.0104767 0.018627)
(-0.00558814 0.0142084 0.0105341)
(-0.00393738 0.0126035 0.00961608)
(-0.00510387 0.0136954 0.011162)
(-0.00161635 0.00376552 0.00883131)
(-0.00168085 0.00413632 0.007946)
(-0.00167585 0.00412279 0.00817095)
(-0.00425322 0.0127517 0.0100909)
(-0.00318659 0.0113945 0.0089187)
(-0.00310376 0.0111684 0.0101676)
(-0.00299106 0.0118266 0.00944201)
(-0.00189882 0.00962513 0.0088435)
(-0.00221644 0.00566971 0.0104059)
(-0.00469239 0.0113603 0.0106459)
(-0.00465699 0.0100811 0.0112975)
(-0.00807587 0.0125503 0.0157875)
(-0.00671483 0.0117676 0.0140603)
(-0.00148413 0.00346265 0.00790762)
(-0.00211237 0.00263883 0.00911866)
(-0.00211345 0.0023684 0.00906555)
(-0.00204008 0.00536819 0.0103889)
(-0.00188083 0.00315274 0.0087277)
(-0.00208114 0.00290036 0.0093282)
(-0.00173227 0.00296934 0.00875827)
(-0.00165475 0.00413605 0.0086819)
(-0.00184265 0.00375243 0.0089411)
(-0.00227656 0.00531335 0.0113603)
(-0.00185852 0.0021448 0.00937747)
(-0.00184179 0.00245357 0.00961752)
(-0.00169767 0.00456524 0.0102304)
(-0.00174374 0.00443959 0.00980429)
(-0.00183642 0.00416529 0.0102543)
(-0.00175927 0.00298443 0.00915582)
(-0.00185757 0.0031635 0.00971307)
(-0.00128197 0.00379039 0.00704716)
(-0.0012894 0.00444126 0.00746201)
(-0.00122184 0.00444993 0.0074115)
(-0.00118919 0.00391699 0.006804)
(-0.00130756 0.00386298 0.0069511)
(-0.00140612 0.00382684 0.00697017)
(-0.00123391 0.00408085 0.00734447)
(-0.00123788 0.00410072 0.0070263)
(-0.00129172 0.00418586 0.00781439)
(-0.00129552 0.0042064 0.00758334)
(-0.00097986 0.00442256 0.0072565)
(-0.00116544 0.00445278 0.00760084)
(-0.00152433 0.004301 0.00803014)
(-0.00128039 0.00427229 0.00736411)
(-0.00106053 0.00446772 0.00743441)
(-0.00409444 0.00416744 0.0103344)
(-0.0047347 0.00421382 0.0105176)
(-0.00665975 0.00477622 0.0119181)
(-0.00534108 0.00445101 0.0112392)
(-0.00694896 0.00468856 0.0130389)
(-0.00803252 0.00539332 0.0128425)
(-0.00634007 0.00401227 0.0121909)
(-0.00692425 0.00408539 0.0128777)
(-0.00533551 0.00360677 0.0117819)
(-0.00675972 0.00349511 0.0121888)
(-0.00619176 0.00351632 0.012299)
(-0.00583543 0.00299337 0.0120499)
(-0.00173956 0.00383333 0.00845126)
(-0.00204565 0.00393235 0.0090378)
(-0.00217048 0.00388834 0.00927534)
(-0.00204504 0.00379747 0.00860363)
(-0.00220828 0.00370918 0.00944237)
(-0.00567358 0.0027052 0.0120375)
(-0.00752335 0.00369761 0.0125986)
(-0.00322749 0.01182 0.00939113)
(-0.00251041 0.0104728 0.00846321)
(-0.00652396 0.0134871 0.0121842)
(-0.00610536 0.00866249 0.00997708)
(-0.00685687 0.0170839 0.01436)
(-0.00755155 0.017205 0.0152389)
(-0.00744593 0.0155546 0.0144831)
(-0.00667978 0.0155635 0.0141645)
(-0.00896573 0.0139688 0.0130153)
(-0.00989662 0.0132499 0.0131972)
(-0.0100819 0.0143139 0.0131513)
(-0.00700477 0.0173984 0.0157103)
(-0.00609928 0.0163906 0.0146345)
(-0.00724638 0.0192135 0.0153114)
(-0.00916438 0.0173775 0.0155783)
(-0.00933784 0.0155623 0.0146184)
(-0.00900995 0.0188499 0.0164109)
(-0.00766294 0.0173251 0.0153921)
(-0.00920385 0.0163883 0.0144227)
(-0.00750702 0.0164784 0.0137349)
(-0.00830725 0.0167883 0.0143778)
(-0.002007 0.00394729 0.00724744)
(-0.00154368 0.00393921 0.0072623)
(-0.00327247 0.00506187 0.00801605)
(-0.00235149 0.00408431 0.00745255)
(-0.00220155 0.00401927 0.00700386)
(-0.00616483 0.014591 0.014876)
(-0.00606678 0.0161101 0.0151379)
(-0.00512351 0.020359 0.0219824)
(-0.00503884 0.0201926 0.0198386)
(-0.00451364 0.0195451 0.0201633)
(-0.00582764 0.0183689 0.0170268)
(-0.00663838 0.0179224 0.0172811)
(-0.00711577 0.0183689 0.0170769)
(-0.00590516 0.018783 0.0184251)
(-0.0051422 0.0184483 0.0182841)
(-0.00481914 0.0200971 0.0195905)
(-0.00727065 0.0210204 0.0186698)
(-0.00531474 0.014727 0.0139889)
(-0.00210243 0.00405319 0.00756373)
(-0.00176583 0.00393102 0.00739477)
(-0.00257374 0.00424681 0.00786621)
(-0.0036493 0.00403907 0.010305)
(-0.00262208 0.00387185 0.00956126)
(-0.00240009 0.00388348 0.00931367)
(-0.00280091 0.00384359 0.00934776)
(-0.00307621 0.00395042 0.00963985)
(-0.00365076 0.00411729 0.00992872)
(-0.00291246 0.00422837 0.00953811)
(-0.00206154 0.00406008 0.00891756)
(-0.00184053 0.0041287 0.00857267)
(-0.0027275 0.00402249 0.00880203)
(-0.00253759 0.00419097 0.00846085)
(-0.00211862 0.00411045 0.00819419)
(-0.00191872 0.00406571 0.0076551)
(-0.00168901 0.00397267 0.0073427)
(-0.00182344 0.00408887 0.00812763)
(-0.00195389 0.00422878 0.00795599)
(-0.00377414 0.00501144 0.00881988)
(-0.00511415 0.00550083 0.0100638)
(-0.00435662 0.00514284 0.00950878)
(-0.00252919 0.00422518 0.00840042)
(-0.00240714 0.00415353 0.0079677)
(-0.00329084 0.00449636 0.00866125)
(-0.00371085 0.0048061 0.0093506)
(-0.00325 0.00471129 0.00879129)
(-0.00258604 0.0043346 0.00830823)
(-0.00217823 0.00880643 0.00896284)
(-0.00260917 0.0102498 0.00849105)
(-0.00220113 0.00914461 0.00839465)
(-0.0022304 0.0109709 0.00975728)
(-0.00701583 0.0154254 0.0107282)
(-0.0069569 0.0145563 0.0105196)
(-0.00866157 0.0162166 0.0112101)
(-0.00743416 0.0162072 0.010493)
(-0.00824653 0.0167716 0.0106552)
(-0.00406122 0.0129021 0.0106007)
(-0.00375037 0.012104 0.0097218)
(-0.00576648 0.0138401 0.0100573)
(-0.00495619 0.0138053 0.0101132)
(-0.00577978 0.0147804 0.0103275)
(-0.00774095 0.0155108 0.0104417)
(-0.00649528 0.0145862 0.00918725)
(-0.00780035 0.0138756 0.0104104)
(-0.00626716 0.0132435 0.00977996)
(-0.00375293 0.0127311 0.00889769)
(-0.00506359 0.013547 0.0106039)
(-0.00525723 0.0123515 0.00892206)
(-0.00592392 0.013887 0.00960032)
(-0.00136801 0.0058366 0.00746087)
(-0.00123648 0.00529815 0.00708012)
(-0.00123942 0.0060907 0.00743027)
(-0.0024008 0.0102084 0.00881346)
(-0.00287919 0.0108534 0.0093401)
(-0.0020802 0.00945041 0.00897127)
(-0.00247269 0.0101857 0.00991979)
(-0.0014503 0.00788145 0.00803566)
(-0.00136545 0.00706203 0.0078139)
(-0.00193001 0.00824813 0.00882669)
(-0.00174157 0.00893336 0.00895127)
(-0.00142395 0.00742306 0.00801742)
(-0.00125417 0.00695135 0.00768668)
(-0.00157847 0.00629111 0.0083627)
(-0.00168424 0.00719302 0.00817422)
(-0.00143919 0.00685872 0.00802581)
(-0.00147646 0.00487031 0.00810653)
(-0.00165211 0.00536184 0.00834091)
(-0.0016303 0.00477546 0.00850586)
(-0.00126095 0.00450522 0.00732231)
(-0.00135713 0.00450873 0.0077192)
(-0.00134466 0.00496087 0.00726397)
(-0.00173211 0.00352303 0.00821635)
(-0.00176087 0.00435268 0.00887763)
(-0.00160485 0.0048957 0.00832383)
(-0.00163047 0.00420888 0.00790307)
(-0.00137227 0.00452201 0.00720837)
(-0.00119088 0.00441893 0.00712802)
(-0.00132932 0.00411547 0.00816114)
(-0.00166659 0.00398145 0.00842676)
(-0.0017805 0.00385643 0.00875616)
(-0.00206841 0.00386622 0.00892609)
(-0.00201079 0.00361554 0.00899869)
(-0.00191198 0.00394694 0.00864458)
(-0.00593268 0.00222478 0.0117346)
(-0.00396379 0.00253938 0.0111558)
(-0.0023433 0.00178221 0.00900626)
(-0.00254783 0.00179202 0.00907936)
(-0.00218532 0.00195927 0.00875197)
(-0.00208157 0.00222716 0.00888285)
(-0.00339301 0.00239787 0.0105855)
(-0.00308498 0.00215589 0.0100235)
(-0.00264922 0.002002 0.00947968)
(-0.00245091 0.00195957 0.00908445)
(-0.00278494 0.00213687 0.00971333)
(-0.00254867 0.00343578 0.00956121)
(-0.00334934 0.00331801 0.0107656)
(-0.00188764 0.00351471 0.00866446)
(-0.0020836 0.0035557 0.0089838)
(-0.00321049 0.00267578 0.010397)
(-0.00302055 0.00287664 0.0103572)
(-0.0113024 0.00908447 0.0220925)
(-0.0105975 0.00853168 0.0233089)
(-0.0155073 0.0109354 0.0207964)
(-0.0125527 0.00936107 0.0231505)
(-0.0121569 0.0089321 0.0207485)
(-0.01311 0.00938897 0.0221639)
(-0.0134782 0.00839347 0.0224259)
(-0.0112699 0.00746061 0.0228123)
(-0.013167 0.007046 0.0219517)
(-0.00562112 0.00794167 0.0236693)
(-0.00561231 0.00908136 0.0243729)
(-0.00685168 0.0138407 0.0108711)
(-0.00869342 0.0150284 0.00935251)
(-0.00933196 0.0156389 0.00982055)
(-0.00769445 0.0150611 0.00989859)
(-0.00792142 0.01493 0.0108592)
(-0.0147185 0.01326 0.0150894)
(-0.0149609 0.0116786 0.0174935)
(-0.0149605 0.0130647 0.0172384)
(-0.0109879 0.0168638 0.0115014)
(-0.0125892 0.0152121 0.0122086)
(-0.0121576 0.0148097 0.0114657)
(-0.0113986 0.0158365 0.0113168)
(-0.00499673 0.0130921 0.00916867)
(-0.00695151 0.0150444 0.0115348)
(-0.00710966 0.0121856 0.0112677)
(-0.00592634 0.0123264 0.0121292)
(-0.0153602 0.00917382 0.0189524)