/*--------------------------------*- C++ -*----------------------------------*\
| =========                 |                                                 |
| \\      /  F ield         | OpenFOAM: The Open Source CFD Toolbox           |
|  \\    /   O peration     | Version:  v1612+                                |
|   \\  /    A nd           | Web:      www.OpenFOAM.com                      |
|    \\/     M anipulation  |                                                 |
\*---------------------------------------------------------------------------*/
FoamFile
{
    version     2.0;
    format      ascii;
    class       surfaceScalarField;
    location    "150";
    object      phi;
}
// * * * * * * * * * * * * * * * * * * * * * * * * * * * * * * * * * * * * * //

dimensions      [0 3 -1 0 0 0 0];

internalField   nonuniform List<scalar> 
37329
(
-8.74376e-09
1.74118e-11
8.50872e-09
2.17647e-10
-5.03342e-10
-3.24489e-09
-3.16474e-10
4.06476e-09
4.89604e-09
9.96228e-09
-2.93738e-09
-1.19209e-08
1.72131e-09
3.68944e-09
-5.14727e-10
6.29418e-09
1.05881e-08
-6.92001e-09
7.19959e-09
8.15905e-10
-1.32912e-08
1.05214e-08
9.9695e-09
2.36213e-10
-2.93935e-09
1.41743e-08
1.32788e-08
-1.00235e-08
-1.74295e-08
1.75293e-08
-3.11885e-09
-7.34378e-09
3.55841e-10
1.13072e-08
-4.31909e-09
-4.45754e-09
-3.81145e-09
9.25258e-10
1.61958e-09
9.23562e-09
2.42366e-09
4.96284e-09
1.4186e-08
4.89031e-09
-1.78511e-08
-3.6098e-09
-1.74578e-09
5.71151e-09
-7.73167e-09
-3.35675e-10
-9.60193e-09
-5.31521e-09
1.11057e-08
1.37385e-08
2.03214e-09
-6.74377e-09
-2.0101e-09
-2.56803e-08
1.28943e-08
-6.86357e-09
1.96495e-08
-1.82123e-09
-2.12695e-08
-2.58969e-09
-1.32239e-08
-2.6951e-09
1.40977e-08
2.10605e-08
-1.11029e-08
2.93661e-09
-9.60985e-10
-6.16753e-09
1.36799e-08
-6.55161e-09
2.99056e-08
-1.65153e-08
-4.63203e-09
-8.75843e-09
5.26007e-09
1.77819e-08
-2.1169e-08
-1.66158e-08
-2.17824e-09
-1.25347e-08
1.48891e-09
-7.54276e-09
-2.98336e-09
3.60792e-09
6.91805e-09
-1.5447e-08
1.31643e-08
-1.21447e-08
-7.93429e-09
-1.60042e-10
-2.31872e-08
-1.37693e-08
1.4645e-09
-4.78649e-09
1.14633e-08
-3.73775e-09
-2.93909e-09
5.02139e-09
-7.45855e-09
-2.34939e-09
-3.54219e-10
9.35794e-09
-5.21516e-09
-3.78857e-09
6.66086e-09
-2.81026e-09
-4.20488e-09
-3.58814e-10
6.76024e-09
2.59392e-10
8.68528e-09
3.13774e-10
9.88441e-09
-3.64788e-09
-8.0384e-09
1.80178e-09
6.63641e-09
-4.42529e-09
2.42881e-10
-8.82203e-09
8.27162e-09
3.07499e-10
6.47312e-09
4.06215e-10
3.55333e-09
3.41683e-10
4.79023e-09
2.86057e-09
-2.19334e-10
-6.24847e-09
8.61448e-09
5.90562e-09
-6.79058e-11
2.92547e-10
-6.47613e-09
3.66906e-09
6.36037e-09
2.162e-10
3.43782e-09
6.49375e-09
-9.58999e-09
2.57808e-09
-4.21382e-09
5.07343e-09
-7.92479e-09
-4.29825e-11
1.05457e-08
-1.05344e-08
-1.60423e-09
2.21065e-09
1.22405e-08
1.88436e-09
3.60346e-09
-2.73511e-09
4.1191e-09
7.77375e-10
8.57371e-09
4.00406e-09
4.12145e-09
-2.57626e-10
4.70984e-09
-7.56425e-09
3.07868e-09
8.60699e-09
-1.80497e-10
-3.37967e-09
3.77917e-09
1.07574e-10
2.32386e-10
2.15345e-09
1.72714e-09
-4.13817e-09
5.53924e-09
-2.1163e-09
-3.47471e-10
8.96538e-09
5.58514e-09
-5.26588e-09
2.27086e-09
-3.90077e-09
6.89582e-09
-1.18469e-09
-4.30602e-09
2.24863e-10
-4.35558e-09
-6.86481e-12
6.63332e-09
-3.07061e-09
-1.49403e-09
2.09077e-10
-4.26181e-09
6.52629e-12
-7.04842e-09
-6.55926e-10
3.80365e-09
-5.65473e-09
-5.6997e-09
-4.70605e-09
-2.43238e-09
9.02817e-09
-1.88968e-09
1.10902e-08
-5.06254e-09
-1.07337e-08
3.63054e-09
-3.2878e-09
3.64522e-09
-3.9879e-09
-1.17036e-09
5.39091e-10
-3.88876e-09
4.95775e-09
-3.50134e-09
2.87563e-09
-1.00522e-08
-4.46136e-09
-2.68852e-09
7.14305e-09
-4.63406e-09
-1.32132e-09
5.69081e-09
4.74352e-09
1.20305e-08
-1.44305e-09
-5.66453e-10
-3.62996e-09
-8.46662e-10
4.93375e-09
3.22587e-09
-1.56789e-09
-6.59162e-09
1.75511e-09
-1.80607e-09
4.98482e-09
3.76469e-09
2.47259e-09
-3.01133e-09
-4.07509e-10
5.92735e-09
-3.74243e-09
-6.0734e-09
1.07216e-08
-9.0565e-10
-4.57656e-09
5.9471e-09
-5.11294e-09
1.72501e-09
1.41748e-09
-7.719e-09
-7.55706e-09
3.2087e-09
-2.01051e-09
4.45259e-09
-2.84953e-09
-3.53565e-09
-2.16518e-09
-3.33461e-10
6.03439e-09
1.37653e-09
7.53904e-09
-5.59344e-09
3.47535e-09
-8.23529e-09
7.60134e-09
-1.42582e-09
-8.62337e-10
7.50747e-10
6.8644e-09
-1.00616e-08
2.44655e-09
-6.65897e-09
4.79832e-09
2.61144e-09
-5.47826e-09
-2.94239e-10
-8.86417e-10
4.07945e-09
-6.08919e-09
8.87419e-09
9.79206e-09
-9.14253e-10
8.78295e-09
-1.42628e-08
1.62622e-12
8.50904e-09
-9.78765e-09
5.09816e-09
6.37899e-09
-5.08729e-09
-6.38984e-09
-2.53328e-09
7.52686e-09
1.04622e-10
4.63017e-09
-2.44237e-09
-4.72109e-09
-7.78889e-10
3.19874e-09
-5.7958e-12
4.34176e-09
-4.20167e-09
6.7513e-09
4.97725e-09
1.39846e-09
-2.1472e-08
2.56264e-10
1.90242e-08
2.19144e-09
1.33196e-08
-1.17394e-08
-2.30524e-08
-1.60789e-08
1.54055e-08
9.29675e-10
-1.27698e-08
8.71544e-09
-1.20246e-08
-9.20499e-09
1.60107e-08
1.22183e-08
3.49329e-09
6.21133e-10
4.46375e-09
-2.89729e-08
-3.16962e-09
6.17676e-09
1.23983e-08
-1.56473e-08
-2.49747e-08
1.05945e-08
3.00274e-08
-1.0255e-08
-1.89914e-09
2.65545e-08
-1.96195e-08
-1.71901e-08
-1.11077e-08
1.26873e-08
-2.02453e-08
1.49203e-08
2.15537e-09
-1.01861e-08
-1.34386e-09
2.98949e-08
-4.38009e-09
1.77497e-08
-3.29056e-08
-3.54408e-09
4.15195e-09
-2.2116e-10
3.32253e-10
-4.263e-09
-7.83815e-10
1.90331e-09
6.00103e-09
-7.12044e-09
1.02334e-08
1.85954e-09
-8.73367e-09
-3.35924e-09
1.89255e-09
3.07714e-09
-4.88067e-10
-2.06065e-09
-5.28344e-10
-3.59456e-09
1.57588e-09
1.58438e-09
4.34509e-10
3.63453e-09
-5.00607e-10
-5.35884e-09
2.41072e-09
1.202e-09
-2.98576e-09
-6.26839e-10
2.52736e-09
-6.04643e-10
-2.99061e-09
2.40139e-09
8.7111e-11
-5.50315e-10
-4.49497e-09
-1.01134e-09
-3.79357e-09
7.80798e-09
6.10402e-09
1.9118e-09
-1.5824e-08
9.19491e-09
4.26423e-09
-5.65137e-09
-6.48454e-10
1.83599e-08
-8.38052e-09
-9.33108e-09
1.68627e-08
-8.31633e-09
-2.17807e-09
-1.14609e-09
2.01868e-08
-2.07091e-09
1.82527e-08
7.45271e-09
8.10858e-09
-9.45731e-09
1.27921e-08
-1.07521e-09
8.80912e-09
-1.52778e-08
2.06564e-08
-4.91132e-09
-7.11328e-09
-8.6319e-09
2.3729e-09
1.11206e-09
1.71713e-08
1.34887e-08
-1.02915e-08
2.94569e-09
1.29159e-08
1.45917e-08
-1.58343e-08
1.48754e-08
-1.41384e-08
8.59984e-09
-9.83597e-09
-6.52428e-09
7.76036e-09
7.01043e-09
1.71114e-09
-1.2178e-10
-3.2817e-09
-3.59649e-09
-2.95781e-09
6.49695e-09
-3.75707e-09
-6.0216e-09
-4.65857e-09
1.25519e-09
2.3517e-09
1.05132e-09
-4.67253e-09
6.5109e-09
4.20365e-09
1.05918e-08
-1.08255e-08
-3.97006e-09
4.03101e-09
1.23891e-09
-9.02703e-09
5.31621e-09
-4.88169e-09
5.50628e-09
-1.07211e-08
6.45373e-09
5.60386e-09
2.63979e-10
-3.61585e-10
-8.81106e-09
2.47374e-11
1.29899e-08
-8.65392e-09
-2.1828e-10
6.11364e-11
5.10761e-09
1.75143e-09
2.87627e-10
-2.70741e-09
-6.76698e-09
9.18676e-09
-3.47118e-09
-7.23878e-09
6.28524e-09
-4.64885e-09
-3.05008e-09
-4.56792e-09
-4.81738e-09
3.61933e-09
5.76601e-09
-6.07371e-10
2.43895e-09
-6.39948e-09
-1.07715e-09
-3.48595e-09
-2.54191e-10
-3.84888e-09
-1.47942e-09
8.94761e-09
-4.14292e-09
-4.19648e-09
4.49058e-09
-4.90456e-09
-3.1545e-10
-1.01703e-08
5.04329e-10
5.4695e-09
-6.62191e-09
-2.61702e-09
-9.3136e-10
5.17014e-09
1.44573e-09
-7.22326e-09
-4.11304e-09
7.80371e-09
6.77498e-09
-1.03837e-08
8.53092e-10
-6.08069e-09
-1.39421e-09
-3.79052e-09
-2.60921e-10
-1.37429e-09
-5.27902e-09
5.86246e-09
7.90878e-10
-8.21575e-10
-4.77382e-09
4.22117e-09
3.12651e-10
8.3436e-10
-7.22768e-09
-4.29942e-09
-7.40613e-09
7.76997e-09
4.70483e-10
-2.37602e-10
5.96524e-09
-6.55945e-09
8.31622e-10
-6.84474e-09
6.10804e-09
4.98949e-10
5.96012e-09
-9.819e-09
7.47951e-09
-3.62077e-09
-1.15671e-08
1.44112e-08
3.11592e-09
2.10153e-09
-1.03498e-09
4.89857e-09
2.93092e-09
7.91821e-10
-1.02824e-08
3.66642e-09
-7.58026e-09
-6.07558e-09
1.06053e-09
7.11654e-09
-4.8732e-10
5.197e-10
-5.86791e-09
7.32926e-09
-7.74193e-09
6.28049e-09
-6.78546e-09
4.30187e-10
5.10588e-09
-1.41331e-08
3.95029e-09
-1.04115e-08
7.9857e-10
5.64587e-09
2.94306e-09
1.22667e-08
-1.50654e-09
9.8963e-09
-3.88732e-09
2.3996e-10
-4.09453e-09
-7.00638e-09
1.00878e-08
-5.89763e-09
1.15243e-08
4.42306e-09
-1.77002e-09
-1.12241e-08
-1.91623e-10
-4.94949e-09
1.41127e-09
4.91956e-09
-8.10087e-09
-2.57003e-09
6.64239e-09
-4.26402e-09
4.88697e-09
-6.04575e-09
3.48172e-09
-4.27202e-09
-2.95839e-09
3.85267e-09
2.39622e-09
-4.67692e-10
-1.99782e-10
-4.32717e-09
7.21889e-09
1.01228e-10
-2.99305e-09
4.3749e-09
-2.6009e-09
-6.10121e-09
-3.88296e-09
4.36277e-09
6.73901e-09
2.54069e-10
2.37796e-10
2.83715e-09
3.11629e-09
-8.5544e-09
-4.9853e-09
-4.71496e-09
1.19408e-09
8.50608e-09
1.03072e-09
-4.48678e-09
-1.52931e-09
-3.81898e-09
1.34695e-10
-3.9502e-09
3.85228e-10
4.06664e-09
8.97295e-09
-1.02026e-08
8.98223e-09
-4.81436e-09
5.41887e-09
-6.25281e-09
-4.57609e-09
1.01329e-08
-5.19574e-09
9.6018e-09
1.09951e-09
2.67766e-09
2.03158e-09
1.71089e-08
4.46344e-09
-6.45132e-09
-1.51211e-08
7.34627e-09
-4.94865e-11
9.81216e-09
-1.1606e-08
6.95051e-09
1.20018e-08
-1.41568e-08
-9.7601e-09
1.23109e-08
-9.6314e-09
-4.38559e-09
1.80775e-08
-4.06049e-09
-7.0827e-09
-5.1803e-09
2.63153e-09
-6.90469e-09
-7.36117e-09
9.88025e-09
-1.03776e-08
-3.60985e-09
1.5585e-08
6.36298e-09
-1.36687e-08
-8.27939e-09
-1.09229e-08
1.91467e-08
2.58755e-08
-4.86519e-09
-1.65469e-08
1.4903e-08
-3.67605e-09
-1.69321e-08
-8.49762e-09
1.87675e-09
1.44053e-09
-3.02861e-09
-9.85982e-10
-2.42216e-09
-1.61118e-08
-8.62061e-09
-2.90565e-09
-1.47189e-08
-4.16435e-09
-7.85405e-09
8.25924e-09
3.75924e-09
-5.62307e-09
1.72882e-09
-2.70087e-10
4.7602e-09
-5.15473e-09
-5.22851e-09
-2.16859e-09
-5.02271e-10
1.16459e-09
7.59699e-09
5.62292e-09
-3.3746e-09
-5.22467e-09
2.97635e-09
3.50208e-09
-3.21523e-10
-5.27434e-09
4.76628e-09
-4.34493e-11
1.15854e-08
-8.86501e-09
-1.00765e-08
1.52521e-09
-7.62311e-09
4.63184e-09
-5.36862e-09
8.35985e-09
1.34936e-10
-7.71027e-09
-4.77654e-11
-8.03918e-09
7.77981e-09
8.42422e-09
-8.16486e-09
2.49946e-09
-5.73374e-09
-4.80489e-09
-1.03621e-08
7.67773e-09
4.77242e-09
-2.088e-09
2.27031e-09
1.89442e-09
8.4483e-09
-5.33599e-10
-3.89453e-09
1.69746e-08
3.01652e-09
-9.23661e-09
8.51478e-10
7.74598e-09
-8.62402e-09
3.3382e-09
-3.37074e-09
-7.65291e-09
1.7545e-09
-3.39356e-09
-5.38569e-09
1.12787e-08
1.0227e-08
-1.83656e-10
2.75773e-09
-3.83718e-09
3.13297e-09
-2.38783e-09
3.0922e-09
6.11949e-10
-4.06294e-09
-3.8606e-10
-2.8544e-09
7.40819e-10
5.24666e-09
-3.98414e-09
-2.1259e-09
3.25576e-09
-3.05788e-09
-3.14261e-10
2.52077e-09
1.21997e-09
-6.12842e-09
-3.41952e-09
6.38302e-09
-2.22245e-09
1.34005e-09
-4.81605e-09
1.35031e-09
-4.54435e-09
4.19869e-09
5.8969e-09
-5.55111e-09
1.12344e-09
-1.48229e-09
-4.18534e-09
-1.50113e-09
1.61134e-09
-3.802e-09
3.69185e-09
5.93512e-11
-6.45337e-09
4.893e-09
-4.50344e-09
2.42403e-09
-1.49114e-09
-1.68422e-10
-3.15644e-09
-2.93766e-09
-3.54837e-09
-1.33342e-08
1.15329e-08
-2.11459e-10
2.01271e-09
4.7126e-09
-3.99074e-09
-1.24205e-08
1.05104e-08
1.3443e-08
1.03257e-08
-5.76978e-09
1.56576e-10
8.6429e-09
1.47127e-09
1.22155e-08
1.5788e-09
2.4761e-09
-2.68092e-09
5.68139e-09
2.1695e-09
2.65956e-09
-1.67788e-09
-6.41001e-09
-5.32909e-09
5.82072e-09
-1.02332e-08
7.17314e-10
1.19919e-08
4.40508e-09
-5.08539e-09
8.3992e-09
2.15756e-09
4.77196e-09
4.9275e-09
-1.1857e-08
5.17456e-09
-8.10243e-09
-5.34667e-10
6.80512e-09
-6.86513e-09
5.94353e-10
-5.70564e-09
5.22146e-09
-5.05906e-11
-8.87676e-09
-1.94296e-09
-6.61032e-11
1.08856e-08
-7.75537e-09
5.68371e-09
5.50012e-09
-7.11217e-09
-5.25313e-09
-4.46492e-10
2.40912e-10
6.53045e-09
4.54038e-09
1.16963e-09
2.81169e-10
-8.62956e-10
1.45305e-08
-2.98308e-09
-9.32493e-09
-2.22252e-09
1.78124e-09
1.08062e-08
6.18705e-09
4.72817e-09
-6.37492e-09
5.52541e-09
2.15056e-10
-7.47754e-09
-3.26099e-09
-1.61059e-09
6.7659e-09
-6.17839e-09
-1.01795e-09
5.53697e-09
6.72224e-09
-1.05102e-08
1.18122e-08
2.68824e-10
-5.3589e-09
3.04483e-09
1.05485e-08
-1.01556e-08
9.52312e-09
6.15776e-09
-5.1586e-09
1.09573e-08
-1.74882e-08
7.89209e-09
2.41368e-09
7.18251e-09
-7.72889e-09
8.69507e-09
-1.84544e-08
3.9592e-09
-1.85857e-08
2.23613e-08
-7.73483e-09
1.2091e-08
-2.39692e-10
7.66985e-09
-2.74104e-09
1.82496e-08
-2.31784e-08
5.3587e-09
8.23802e-09
-5.92691e-09
-2.90557e-08
1.45408e-09
-9.82077e-09
1.70618e-08
2.71494e-08
8.69985e-09
-1.3488e-08
2.29898e-08
1.62506e-08
2.30428e-09
8.79151e-09
-1.97575e-08
8.66174e-09
1.13738e-08
1.39203e-08
1.41798e-08
-7.36707e-09
1.1865e-08
9.87356e-09
-3.489e-09
1.41335e-08
5.96955e-09
-4.05121e-09
-5.65739e-09
2.10825e-08
-7.4109e-09
1.21512e-08
-1.52092e-09
8.24352e-09
6.8143e-09
5.84458e-09
-1.1841e-09
1.59903e-08
-1.48334e-08
1.46846e-08
1.79292e-09
1.34174e-08
1.10291e-08
1.95114e-08
-1.5856e-08
2.30138e-08
-1.94248e-08
-1.47113e-08
1.11223e-08
1.30047e-08
1.1802e-08
1.32907e-08
2.66641e-09
-9.78037e-09
1.54016e-08
-4.06836e-09
1.95749e-09
7.54047e-09
9.12096e-10
6.94892e-09
2.24073e-09
1.63288e-08
5.22373e-09
-2.24932e-08
2.15764e-08
1.96335e-09
-1.83161e-08
1.29324e-08
-5.23891e-11
8.69637e-09
-8.55802e-09
1.85195e-08
-7.7208e-09
-1.4695e-08
7.049e-09
-1.41668e-08
1.24042e-08
-9.53702e-09
2.60676e-09
-6.21785e-09
-1.15392e-08
1.51502e-08
-1.06726e-08
1.77246e-08
-4.44534e-09
-1.33009e-08
-1.61557e-09
1.54263e-08
-5.09947e-10
-1.18371e-09
1.15992e-08
-1.26279e-08
2.21242e-09
1.83752e-09
9.82856e-09
-1.28498e-08
1.96464e-09
9.81599e-09
-1.72176e-08
5.43688e-09
-1.35193e-08
9.26605e-09
5.46213e-09
-6.46826e-09
1.0822e-08
-2.88335e-09
-4.95546e-09
1.32598e-08
-1.30379e-08
5.64301e-09
1.81548e-09
-1.22948e-08
4.83625e-09
6.92828e-09
5.41866e-09
-6.70391e-09
8.93658e-09
-7.09392e-10
-1.29889e-09
1.70698e-08
-6.8132e-09
-1.31186e-08
2.86185e-09
6.72242e-09
1.30874e-08
-2.74007e-09
-1.49698e-10
5.21511e-09
3.87118e-09
7.92585e-09
-1.29236e-08
6.50965e-09
3.14362e-09
-4.23465e-09
3.64971e-09
2.71023e-09
1.2947e-09
9.42851e-09
-5.50812e-09
1.14078e-08
3.04433e-09
-6.52633e-09
4.90099e-09
1.32292e-08
1.02969e-08
-4.10897e-09
6.34801e-09
7.59855e-09
1.25437e-08
-7.8316e-09
-3.01356e-09
-3.09433e-09
-1.077e-08
1.38438e-08
-1.09055e-08
-1.26207e-09
1.22966e-08
-2.18046e-08
1.21027e-08
1.24367e-08
-2.58015e-08
-6.79799e-09
1.08999e-08
-1.6056e-08
-4.07221e-09
-7.82702e-09
-4.90584e-09
-1.74529e-08
1.23528e-08
5.9856e-09
-9.22865e-09
7.10063e-09
-1.59362e-08
3.80376e-09
5.0314e-09
-8.2919e-10
-4.36831e-09
1.22981e-08
-2.05952e-09
-1.70865e-08
3.20974e-09
1.10277e-08
-1.46095e-08
1.52219e-09
8.87697e-09
-7.69588e-09
2.62264e-09
-6.86456e-09
1.49123e-08
-7.32886e-09
1.39882e-08
1.02502e-08
-1.28104e-08
-1.45263e-08
-7.65869e-10
-3.59336e-09
-1.40371e-08
1.43164e-08
-7.60819e-09
-1.04894e-08
-4.31366e-09
1.8865e-08
-1.96589e-08
-6.9021e-09
-7.62942e-09
1.96298e-08
-2.402e-08
4.98607e-09
1.81634e-09
2.9267e-09
-1.6239e-08
-1.07078e-08
-9.35503e-09
2.07059e-08
-1.14501e-08
-4.95581e-10
1.45626e-09
-1.60591e-08
-5.63594e-09
2.10126e-08
6.82243e-10
-1.75387e-08
-1.47595e-08
-1.99666e-08
-5.32834e-09
1.7073e-09
-6.52866e-09
-1.51453e-08
1.83693e-08
-9.72361e-09
-1.10816e-08
-5.05071e-09
-6.0525e-09
1.71564e-10
-2.4239e-08
-1.46027e-08
-5.97773e-09
-8.63122e-09
3.50445e-09
1.11044e-08
-5.53884e-09
-2.57828e-09
2.13924e-09
7.80759e-09
1.16697e-08
-8.33479e-09
-1.11426e-08
1.03574e-08
-1.01744e-09
-1.53247e-09
5.17588e-09
8.89109e-09
-2.39735e-09
1.21482e-08
3.38498e-09
-6.22084e-09
-1.12215e-08
8.81108e-09
3.88559e-10
-4.99678e-09
6.01505e-09
-2.03592e-09
-1.62365e-08
2.9049e-09
-3.89406e-09
-5.24478e-09
-9.39393e-09
1.85327e-08
-3.2582e-09
9.27687e-10
-5.94168e-09
5.08554e-09
1.14384e-08
-1.05824e-08
-1.08305e-08
2.31041e-09
1.89574e-08
-1.46253e-08
-8.22613e-09
5.91599e-09
6.99738e-09
6.04399e-09
-1.00602e-08
1.14917e-08
-1.39603e-09
-1.33539e-08
-8.46029e-09
1.70502e-08
8.94741e-09
5.51164e-09
-1.36351e-08
-3.80716e-10
-1.0377e-08
4.1419e-09
-8.12016e-09
-3.02517e-09
-2.92034e-09
-1.22311e-08
-5.64655e-09
1.38462e-09
-1.12627e-08
-9.08856e-09
-1.41773e-08
5.43341e-09
-7.86573e-09
-8.47711e-09
-1.93354e-08
-9.36671e-09
-4.03561e-09
1.36849e-08
-5.14131e-09
-1.98064e-08
1.16557e-08
-3.61733e-09
-2.35907e-09
-2.29851e-08
2.15954e-11
-1.0119e-08
7.78632e-10
9.31881e-09
-1.27393e-08
9.58685e-10
-9.376e-09
-2.39532e-09
-9.67939e-10
-1.08055e-08
-8.68948e-09
-1.15251e-08
-6.86237e-09
5.10754e-09
1.66458e-09
1.59629e-09
-1.40664e-08
-3.6101e-09
4.26373e-09
-6.10977e-10
1.93175e-09
8.50651e-09
-8.77367e-09
5.96744e-09
-5.04585e-09
9.05937e-10
-1.34387e-08
-1.14261e-09
-8.80147e-09
5.35798e-09
-8.85692e-09
-1.43728e-08
1.78717e-08
-7.83335e-09
2.08421e-08
-7.65078e-09
-1.16668e-09
-1.60522e-08
8.36193e-09
7.99079e-09
-1.62751e-08
7.11765e-09
-4.10581e-09
4.26324e-09
-2.80695e-09
-4.96398e-09
-8.50426e-09
6.70456e-09
-1.07369e-08
-7.35263e-11
2.50476e-08
-1.08011e-08
-1.70535e-08
4.03697e-09
4.95835e-09
-2.03165e-09
-1.22792e-08
-6.19109e-11
-1.58902e-08
-2.783e-09
1.66416e-08
-7.24369e-09
-4.81186e-11
1.39964e-08
-5.92491e-09
-9.77602e-09
-1.64159e-08
8.1737e-09
-3.96909e-09
-2.3248e-08
-1.02388e-08
-1.28951e-08
-2.01329e-08
1.66894e-08
-1.04076e-08
4.28382e-09
-1.05657e-08
-1.45821e-08
2.2173e-08
9.0984e-09
1.84598e-08
-7.89756e-09
-2.09699e-08
6.55927e-09
-2.68163e-09
-2.09203e-09
8.04617e-09
1.62188e-08
1.67766e-08
-5.22482e-09
-7.2681e-09
4.19895e-09
1.04856e-08
1.5414e-08
-2.34186e-08
1.07031e-10
1.18136e-08
1.27429e-08
-9.14248e-09
1.98598e-08
-1.48694e-09
-1.0137e-08
-7.52731e-10
1.89358e-08
5.22507e-09
-6.69285e-09
5.66666e-09
-2.26752e-09
-1.31948e-08
1.31242e-08
2.33808e-09
-6.81164e-09
-6.80764e-10
1.18631e-08
1.15721e-08
-8.68876e-09
-1.47465e-08
1.26798e-08
-1.15088e-08
-7.98273e-09
3.45144e-10
-8.60159e-10
2.52704e-08
-6.64472e-10
-9.68447e-09
1.94072e-08
-7.94984e-09
1.24221e-08
6.53367e-09
-1.02339e-10
1.25483e-08
-6.30987e-10
3.65514e-09
1.19308e-08
-8.17336e-09
6.75714e-09
8.03001e-09
-1.02753e-08
1.07558e-08
-5.56192e-09
5.08158e-09
-3.96721e-09
-8.46807e-09
2.15998e-09
4.12998e-09
5.73512e-09
8.90659e-10
3.98384e-09
5.01503e-09
-4.86889e-09
-7.3688e-09
4.13841e-09
3.74178e-09
-5.1142e-10
-3.90703e-09
-5.34776e-09
1.88601e-09
-4.3089e-09
1.48997e-09
-2.74277e-09
-7.0688e-09
-1.20729e-09
4.98745e-09
-5.7818e-09
6.52953e-09
-1.46204e-09
1.04334e-08
-6.57259e-09
5.29645e-09
5.41454e-09
3.72831e-09
-5.35109e-09
-2.28428e-09
-4.83572e-10
-2.36082e-09
9.72948e-09
-4.18059e-09
-4.05881e-09
-7.13021e-09
1.09646e-08
8.41504e-09
-2.71614e-09
-6.18249e-09
1.9928e-09
1.9549e-09
3.27763e-09
-4.47108e-10
-3.04071e-09
-1.58963e-10
3.64681e-09
-2.35129e-09
2.33905e-09
-4.34848e-10
1.08808e-09
-2.47417e-09
-1.65463e-09
-3.25233e-09
4.50789e-09
-6.44894e-10
-6.10641e-10
-3.72269e-09
-2.17134e-09
6.9821e-09
1.82318e-09
-1.01254e-09
-3.28481e-09
-1.63626e-10
-3.64462e-10
2.1666e-09
-2.38084e-09
4.33441e-09
-4.12017e-09
2.3957e-09
-3.92705e-10
6.79255e-09
-3.05948e-09
-7.45576e-09
-1.14927e-09
7.91569e-10
7.15027e-09
-6.45286e-09
3.65685e-09
-4.717e-10
2.80021e-09
-3.72202e-10
8.62208e-09
-1.95612e-09
-6.29377e-09
5.90602e-09
-4.92402e-09
-1.35419e-09
3.83079e-09
-1.04986e-09
-4.72191e-09
1.94098e-09
8.11199e-09
-8.14212e-09
8.65221e-09
8.98073e-09
5.03733e-09
-7.54209e-09
-3.75346e-09
7.34723e-09
3.94837e-09
-2.54422e-09
-1.16707e-09
5.31859e-09
-8.32454e-09
1.46122e-08
-6.51807e-10
-4.9796e-09
-7.81388e-09
1.86324e-09
2.19725e-09
-5.0395e-09
-6.56786e-09
-1.03822e-09
1.63239e-09
5.9738e-09
-4.90737e-09
-1.34193e-09
-3.18517e-10
9.60894e-09
-3.24627e-09
-8.32775e-09
1.96504e-09
9.41124e-09
2.16894e-10
-1.91608e-11
3.9607e-09
3.26229e-09
2.18827e-09
5.24046e-09
4.80807e-09
-6.08781e-09
1.61946e-09
-2.81678e-09
4.45966e-09
-8.02918e-10
7.66284e-09
-7.20033e-10
5.46979e-09
-4.46201e-09
-2.87695e-10
-4.8528e-09
-7.74546e-10
-6.36972e-09
1.0048e-09
4.32675e-09
-5.67812e-09
-2.03353e-09
6.29929e-09
7.42356e-09
-5.84355e-10
-1.00855e-08
7.81182e-09
-1.71363e-10
5.99987e-09
-1.6087e-09
-3.19129e-09
3.38031e-10
-1.8527e-09
-4.60882e-09
-8.11517e-09
-1.19256e-08
5.18461e-09
-1.63186e-08
2.30597e-08
3.44048e-09
-1.25672e-08
-2.79895e-09
9.92404e-09
-8.46969e-09
1.98616e-09
-1.03743e-08
2.54829e-08
1.11792e-09
-7.04335e-09
-6.64169e-09
-5.9873e-09
-9.21326e-09
-8.92617e-09
-1.63063e-08
1.48582e-08
-1.22455e-08
-5.15038e-09
4.59401e-09
-1.70971e-08
5.45986e-09
-6.46817e-09
-3.75509e-09
-6.08297e-09
-1.41196e-08
7.74934e-10
1.25324e-08
6.59174e-10
-1.39666e-08
9.04727e-09
8.96164e-10
-9.16854e-09
-8.71303e-11
6.45284e-10
1.00293e-08
4.57258e-09
5.02522e-09
-1.51049e-08
5.50693e-09
-9.27244e-09
2.93947e-09
-9.21e-09
3.51548e-10
1.22868e-08
1.30003e-08
-2.0262e-08
5.08604e-09
-2.0093e-09
1.47019e-08
-4.79593e-09
5.17996e-09
6.21257e-09
-2.56445e-10
-4.86967e-09
-1.08645e-09
1.09536e-09
5.08251e-09
3.4746e-11
6.47267e-09
-7.31558e-09
-5.22843e-10
1.36581e-09
-2.49549e-09
2.28601e-09
6.68217e-09
-7.05507e-09
8.34873e-10
-1.68213e-09
-5.62939e-09
6.42341e-09
-9.05979e-09
2.11356e-09
4.62727e-09
-1.04569e-08
1.2253e-08
-1.03447e-09
3.62151e-09
-2.82964e-09
9.74294e-09
-7.5443e-09
-6.75242e-09
3.83985e-09
-9.93199e-09
-6.67211e-09
3.03599e-09
5.98454e-09
-1.0055e-08
-2.36374e-09
-9.25037e-09
-8.14652e-09
8.35287e-09
-9.14252e-09
2.221e-09
1.69121e-10
3.5222e-10
-1.18584e-08
7.91341e-09
2.23089e-09
7.77989e-09
-7.40668e-10
8.74208e-10
1.85434e-09
2.36972e-09
-1.08466e-08
5.21598e-09
4.52239e-09
-9.0582e-09
6.90547e-09
-1.03861e-08
1.2686e-08
-3.3345e-09
-1.33709e-08
6.31925e-09
2.4487e-09
-1.48414e-08
-9.30643e-09
-2.55809e-09
4.84547e-09
1.08455e-08
-1.7295e-08
4.79328e-09
-5.02656e-09
5.07887e-09
6.33237e-09
-1.22733e-09
-6.86661e-09
-5.27696e-09
-6.66413e-09
6.39251e-09
-7.05893e-09
2.99041e-09
-2.32409e-09
-6.74959e-10
1.2705e-08
-5.63758e-09
9.95464e-09
3.75844e-09
-3.73713e-09
-9.97606e-09
-1.13487e-09
4.03049e-09
8.13803e-09
-9.60222e-09
1.24712e-09
2.16987e-10
8.22186e-09
2.28368e-09
-1.16406e-08
8.07201e-09
-6.44355e-10
7.94104e-10
6.99088e-09
3.4308e-09
-6.02919e-09
-2.10505e-09
-1.82978e-09
9.96391e-09
-2.00939e-09
-5.87278e-09
-6.91565e-09
1.43126e-08
-5.54492e-09
9.2138e-10
5.32616e-09
-7.02724e-10
-2.50013e-10
7.72911e-09
-7.64422e-09
1.65063e-10
-2.52165e-09
4.08555e-09
-7.87586e-09
6.31188e-09
-1.51957e-09
-8.24681e-09
-1.32979e-08
-1.98977e-09
6.95843e-09
8.32916e-09
-1.08552e-08
-4.54784e-09
6.59257e-09
-1.0634e-08
-7.30876e-09
3.04602e-09
-7.25785e-09
6.0427e-09
-5.70054e-09
-7.71827e-09
-1.8396e-10
8.19411e-09
-6.11797e-09
2.25812e-10
3.61945e-09
-1.11542e-08
-8.52287e-09
3.97715e-09
4.05063e-09
4.94977e-10
1.09236e-08
-1.71423e-09
-1.77323e-08
-3.44795e-09
-1.32718e-10
1.18875e-08
-8.30691e-09
-1.98222e-09
6.36783e-09
-7.83357e-09
-5.97479e-09
-1.62113e-09
-1.9374e-09
9.53328e-09
-5.23939e-09
7.43281e-09
-8.16824e-09
1.49541e-08
-5.65167e-09
8.89802e-09
1.00333e-08
4.41917e-09
-1.13729e-08
4.023e-09
1.02892e-08
-9.89309e-09
1.23615e-08
-4.28797e-09
-1.44825e-09
3.0664e-09
1.07433e-08
-9.48229e-09
6.05179e-09
-1.22945e-09
4.37886e-10
8.22436e-09
1.18317e-08
-4.22563e-10
-7.29864e-09
8.56642e-09
-5.3856e-09
4.11782e-09
5.98737e-09
-1.298e-08
-3.0605e-10
3.90552e-09
-2.8123e-09
4.89414e-09
3.04564e-09
9.42628e-09
-1.08987e-08
3.93075e-09
1.58228e-09
4.99226e-09
-3.33875e-09
-1.25522e-08
1.51707e-09
-9.50477e-09
5.06017e-09
1.95332e-08
2.60014e-10
-2.48534e-08
2.60207e-09
1.34401e-08
-1.0982e-08
1.16323e-08
-7.51321e-09
1.73449e-09
1.74833e-08
3.15432e-10
2.14851e-09
1.30261e-08
1.03361e-08
-1.08161e-08
4.41066e-09
1.57757e-08
-2.39393e-09
6.32956e-09
2.4905e-09
9.68306e-09
-1.27617e-08
1.60689e-09
-6.16402e-10
1.64929e-08
4.73916e-10
-1.93605e-08
-6.27426e-09
6.30597e-09
1.93286e-08
-1.07012e-09
-1.95521e-08
1.26166e-09
-1.92286e-08
1.25398e-08
4.14597e-10
-2.82989e-09
-4.35712e-09
-1.20417e-08
-1.14653e-08
4.90645e-11
1.77221e-08
-1.25777e-08
4.22396e-11
-1.21186e-08
-7.58347e-09
9.83609e-09
9.86594e-09
-1.14191e-10
-9.96112e-09
-2.04335e-09
-5.42903e-09
-1.31575e-08
1.57566e-08
-1.12548e-08
7.23665e-09
1.09822e-08
-6.96406e-09
-9.69776e-09
-1.67124e-09
-7.91892e-09
7.31709e-09
-6.97819e-09
-1.03e-08
4.16547e-10
-6.82925e-10
-8.46926e-09
-3.69193e-09
1.71218e-08
-3.56994e-09
-1.15568e-08
-1.65437e-09
-1.47338e-08
-1.22025e-08
-5.74637e-09
9.6091e-09
-3.08926e-09
-7.735e-10
-6.13405e-09
5.19826e-09
-4.8106e-09
-1.09134e-09
-4.27753e-09
7.94988e-09
-2.58113e-09
-2.66937e-09
6.01786e-09
-4.43992e-09
3.14989e-09
-1.00968e-08
1.51044e-08
3.68813e-09
-1.61539e-08
-2.63863e-09
3.71057e-09
-5.87829e-09
1.72722e-08
6.84408e-09
-9.82824e-09
1.12973e-08
-6.03568e-09
-6.33536e-11
8.44141e-11
8.36994e-09
1.15471e-09
1.02168e-08
1.16492e-09
8.77684e-09
-5.84828e-09
1.00716e-08
2.39337e-09
-1.90389e-09
1.5686e-08
7.69093e-09
-1.5895e-08
4.15481e-09
-3.34639e-09
-4.64174e-09
1.11078e-08
-2.54893e-10
5.82994e-09
1.56168e-08
-3.77104e-09
9.48361e-09
-2.09997e-09
-1.0905e-08
1.19701e-09
-1.01111e-08
-1.61668e-09
1.4362e-08
-3.65823e-09
-8.09983e-09
-2.60401e-09
3.65442e-09
5.96512e-10
-1.20557e-08
3.40719e-09
-9.39539e-09
-7.504e-09
-5.19785e-09
-8.68878e-09
-1.03874e-08
-5.34008e-10
1.6345e-11
-5.04751e-09
-8.99814e-09
-1.01936e-08
-5.9806e-10
5.93258e-10
1.01982e-08
1.73241e-09
-1.64126e-08
4.4865e-09
9.85654e-09
-1.31717e-08
-7.28888e-11
1.63268e-08
-2.38958e-09
-1.06153e-08
-3.32197e-09
3.44722e-11
5.42231e-10
1.57501e-08
-1.68324e-08
-4.32785e-10
1.72997e-08
-1.46214e-08
-4.60071e-09
-7.32889e-09
-1.3627e-08
1.82613e-08
2.69455e-09
-1.63128e-08
1.21884e-08
-3.2045e-09
1.02756e-08
-9.88245e-09
8.62718e-10
-1.25593e-09
1.12466e-09
9.69315e-09
-1.1336e-08
-9.16178e-09
-1.29323e-10
7.92188e-11
-1.45714e-08
-3.94398e-11
-1.3717e-08
-2.95585e-10
-1.60568e-08
-3.52295e-10
1.81808e-08
-4.62471e-10
1.22987e-08
1.08872e-08
-8.98973e-09
-1.03479e-09
1.29632e-09
1.07155e-08
-7.79801e-09
-1.91552e-09
7.23717e-10
-1.33704e-09
1.67156e-09
-8.13261e-09
-1.25938e-08
-1.296e-08
1.20955e-08
-1.05099e-09
-1.15841e-08
1.29293e-08
-3.44812e-09
-1.91705e-09
8.38106e-09
-3.01589e-09
1.18098e-08
-8.86465e-09
-6.39331e-09
4.25089e-09
5.47146e-09
-9.28723e-09
-4.35182e-10
4.17688e-09
-1.84305e-09
-2.53448e-09
1.8729e-08
-4.01116e-09
-1.21834e-08
1.07854e-08
-4.98676e-09
-8.33324e-09
-1.69024e-09
8.68565e-09
5.47863e-09
1.2122e-09
3.43805e-09
1.15759e-08
3.71504e-09
3.73016e-09
1.04933e-08
5.3608e-09
-2.79285e-10
3.97133e-10
-1.48339e-09
9.02782e-09
-2.18366e-09
2.97258e-09
-2.48788e-09
5.40884e-09
1.74062e-09
-1.57387e-08
-6.19939e-09
1.79269e-08
4.95206e-09
1.77478e-10
7.19881e-09
-2.11819e-08
1.23107e-08
5.47769e-09
3.39344e-09
2.17758e-09
-2.1168e-08
-1.0908e-08
8.42594e-09
1.47927e-08
1.33614e-08
-2.17495e-08
-2.51991e-09
-1.54276e-08
1.15911e-08
-3.12096e-10
4.14853e-09
6.06077e-09
-7.61861e-09
7.17875e-09
1.38013e-08
-4.65411e-10
-1.91064e-08
-1.75267e-08
1.27754e-10
-1.70625e-08
-9.41396e-09
1.27033e-08
-2.34455e-09
-9.44859e-10
-4.40529e-09
-6.89846e-09
9.9023e-09
1.40136e-09
7.18027e-09
-6.89109e-09
-9.70318e-09
1.10055e-08
1.1147e-10
-3.9367e-09
4.51468e-09
6.35478e-10
5.85527e-09
-6.36259e-09
3.67501e-10
1.15745e-08
-5.57948e-09
1.08554e-08
1.51289e-09
4.71736e-09
-6.00464e-09
-2.25678e-10
-3.69607e-09
3.92114e-09
1.28783e-09
-3.98554e-09
3.3216e-09
-3.03209e-09
-4.99533e-09
1.08035e-09
-7.05758e-11
-1.80815e-10
-1.11156e-08
-1.86384e-09
-4.52272e-09
1.39118e-09
7.33849e-09
-5.73816e-09
-1.48889e-09
2.90014e-09
5.07382e-09
-2.31729e-09
6.60588e-09
5.30022e-09
-4.89139e-09
-3.28935e-11
5.57548e-09
-2.99606e-09
-3.28145e-09
6.82161e-09
-5.44134e-10
3.71603e-09
-8.26461e-10
6.37385e-09
-5.54403e-10
-1.73071e-09
5.13494e-09
-2.76383e-09
-6.40359e-10
1.50164e-10
-4.63127e-09
5.23476e-09
-7.53608e-10
-4.82824e-09
6.00033e-09
-1.02189e-09
-5.2067e-09
-1.15528e-09
2.15051e-09
3.80417e-09
5.41986e-11
4.7051e-09
-2.73981e-09
1.85262e-10
4.87798e-09
-3.81825e-10
2.08975e-10
3.00437e-09
-5.70399e-12
1.63368e-09
-4.97778e-09
3.7357e-09
-3.91668e-10
5.23159e-09
1.05171e-10
7.03962e-09
-4.59228e-09
-1.91351e-09
-5.3381e-10
4.53858e-09
2.00608e-09
-7.00354e-09
4.58894e-10
6.36217e-09
-2.1812e-09
3.57603e-10
-3.54696e-09
5.15296e-09
4.00076e-10
-7.17856e-09
3.34541e-09
2.86194e-10
-1.16658e-09
-5.82397e-09
6.78239e-09
2.08268e-10
-6.34044e-09
8.66164e-11
1.28051e-09
-7.08104e-09
-2.33012e-11
-3.45711e-09
-1.47373e-09
-4.16932e-10
5.82743e-10
-3.41867e-09
-6.21168e-10
-3.37747e-09
4.68554e-09
-7.25297e-10
-2.26393e-09
5.9074e-09
-4.04796e-09
4.04519e-10
3.77493e-09
-6.34724e-09
3.08371e-10
-2.371e-09
5.76882e-09
3.77117e-10
-8.7433e-10
6.1349e-09
-4.2153e-09
-1.04528e-09
-5.49222e-09
5.73076e-09
-1.11282e-09
-9.78408e-10
-4.60304e-09
5.19193e-09
3.89489e-10
-5.57039e-09
4.34853e-09
2.43423e-10
-5.70125e-09
7.73822e-10
3.24364e-10
-2.09074e-09
-5.19073e-09
6.6704e-09
6.11072e-10
6.47195e-09
-9.1458e-09
5.8313e-10
-9.87021e-09
4.21671e-09
4.62759e-10
-9.67028e-10
5.08089e-09
-4.12085e-09
6.98055e-12
-5.20003e-09
4.35009e-09
-1.17159e-10
-4.51004e-10
5.67168e-09
-5.38601e-09
1.65435e-10
4.22763e-09
-4.77404e-09
9.54574e-11
-4.23595e-11
-5.8156e-09
5.59899e-09
2.58991e-10
-4.94684e-09
4.74945e-09
1.5504e-10
-2.34951e-09
4.6779e-09
-2.18233e-09
-1.46023e-10
1.96755e-09
-3.9167e-09
-4.00376e-10
1.9956e-09
4.7684e-09
-7.42858e-09
6.6463e-10
7.49287e-09
-6.37536e-09
8.7806e-10
-5.7688e-09
-6.72977e-10
5.96202e-09
4.79684e-10
1.25512e-10
-6.23205e-09
5.72531e-09
3.81188e-10
-5.96225e-09
3.18943e-10
-9.17576e-10
-5.7664e-09
4.519e-10
4.77215e-10
5.92594e-09
-6.00149e-09
-4.01662e-10
-5.44601e-09
6.48524e-09
-5.6207e-10
3.46413e-09
1.04809e-09
-3.98163e-09
-5.30589e-10
-2.95272e-10
4.16317e-09
-4.03742e-10
3.78558e-09
-3.57865e-09
-5.02208e-10
3.99095e-09
3.35768e-10
-5.41157e-10
1.30426e-10
-2.92631e-09
3.43732e-09
-6.4141e-10
-2.89103e-09
3.6332e-09
-6.11703e-10
-2.12012e-09
-3.85635e-09
5.64293e-09
3.3354e-10
-6.43464e-09
4.1204e-09
1.9416e-10
3.9619e-09
-7.93412e-09
3.5966e-09
3.75688e-10
-1.28012e-09
4.93853e-09
3.03521e-10
5.19938e-09
-6.73353e-09
2.5414e-10
-3.81442e-09
3.84316e-09
8.26105e-10
-8.54807e-10
5.6131e-10
3.02144e-10
6.26461e-10
4.10783e-09
-8.91101e-10
-2.74776e-09
4.15846e-09
-7.84191e-10
-3.95278e-10
-5.30453e-09
5.39273e-09
3.0703e-10
5.0033e-09
-5.59285e-09
1.94248e-10
4.17846e-10
-5.99143e-09
2.69012e-10
-5.67931e-09
6.20034e-09
-7.81725e-10
2.60565e-10
5.97272e-09
-6.44779e-09
1.64894e-10
3.10099e-10
6.87451e-10