/*--------------------------------*- C++ -*----------------------------------*\
| =========                 |                                                 |
| \\      /  F ield         | OpenFOAM: The Open Source CFD Toolbox           |
|  \\    /   O peration     | Version:  v1612+                                |
|   \\  /    A nd           | Web:      www.OpenFOAM.com                      |
|    \\/     M anipulation  |                                                 |
\*---------------------------------------------------------------------------*/
FoamFile
{
    version     2.0;
    format      ascii;
    class       surfaceScalarField;
    location    "200";
    object      phi;
}
// * * * * * * * * * * * * * * * * * * * * * * * * * * * * * * * * * * * * * //

dimensions      [0 3 -1 0 0 0 0];

internalField   nonuniform List<scalar> 
41402
(
6.08625e-09
4.46988e-09
-6.36597e-09
-4.19017e-09
1.10524e-08
1.02738e-09
-5.9935e-09
8.09628e-10
-1.39298e-08
7.28897e-09
5.83111e-09
-9.21068e-09
5.20584e-09
4.81445e-09
-3.21466e-09
5.05633e-09
1.30186e-09
-4.66406e-11
-6.34588e-09
-6.55654e-09
4.40862e-09
-5.70386e-09
8.58413e-09
3.88253e-10
9.2262e-09
7.24184e-09
-8.46421e-09
-5.12354e-09
2.13208e-11
1.51665e-09
8.15898e-10
5.59188e-09
-1.56776e-09
-4.83997e-09
4.27606e-09
-3.68939e-09
2.29245e-10
-4.39021e-09
-5.09139e-09
9.86985e-09
1.223e-09
4.86526e-10
1.01205e-08
-3.57978e-09
-1.08889e-08
4.34818e-09
5.87135e-09
5.50262e-10
3.69887e-09
-1.40384e-08
8.40209e-09
1.35219e-08
-7.88564e-09
1.50151e-08
-1.96464e-08
-9.40704e-09
-7.91294e-10
-1.013e-08
7.3415e-09
1.30221e-08
-1.29336e-09
3.28636e-09
2.02558e-09
1.93986e-08
-8.03005e-09
-8.75137e-09
8.68638e-09
8.09505e-09
-1.09127e-08
1.58924e-09
-3.36109e-09
-1.38903e-08
-2.39497e-09
2.13834e-09
7.09338e-09
-1.0023e-08
5.39872e-09
-1.12873e-08
-5.02405e-09
-3.82386e-09
4.71202e-10
-4.24547e-09
1.49574e-08
-1.25101e-08
3.67627e-09
-4.06745e-10
3.81241e-09
-4.38161e-09
-1.14718e-08
6.56528e-09
1.46423e-09
3.44231e-09
1.70293e-09
-2.96694e-09
-1.02078e-08
1.37809e-08
-2.16117e-09
-9.91682e-09
1.05109e-09
5.16294e-09
-9.18096e-09
-2.39791e-09
1.17308e-09
-5.07393e-09
6.29874e-09
4.16313e-10
3.33891e-09
-6.15313e-09
-1.26118e-08
1.148e-08
7.69712e-09
1.13994e-08
-1.02303e-08
6.61133e-09
-7.72141e-09
9.62766e-09
5.52024e-09
-9.98496e-09
4.00668e-09
7.08521e-09
-1.43699e-09
-3.97017e-09
6.58023e-09
-4.14057e-09
3.11986e-09
-2.03698e-09
-3.21606e-09
1.79107e-10
5.67647e-09
8.53191e-10
4.86972e-09
1.30159e-08
7.68847e-09
3.04076e-09
-4.1179e-09
1.03148e-09
4.63405e-09
-1.45284e-10
-1.96817e-09
-4.58902e-09
2.587e-09
-4.02581e-09
2.066e-11
3.95264e-09
4.6432e-11
-2.65015e-09
-3.65737e-09
3.2423e-09
-5.95581e-09
-8.02919e-09
-8.79107e-09
1.8508e-10
-2.28806e-09
3.25721e-09
-4.62651e-09
5.19306e-10
-2.67821e-09
-1.29153e-10
-6.72732e-09
-2.13519e-09
7.14283e-11
-1.61716e-09
7.87594e-09
-8.72226e-09
2.46347e-09
-2.1542e-09
7.84581e-11
2.87376e-09
-4.78134e-09
2.90415e-10
1.00614e-09
-2.86582e-10
7.38924e-10
7.40135e-10
3.72581e-09
-5.20488e-09
7.96215e-10
-4.98069e-09
4.92338e-09
7.47442e-10
3.85233e-09
-3.85964e-09
-3.83574e-09
5.37939e-09
-5.36071e-09
7.09572e-09
1.60286e-09
-3.33787e-09
-1.02961e-09
-6.05298e-10
-9.13084e-09
3.47953e-09
1.32201e-08
-7.56879e-09
-7.90868e-09
-4.29903e-10
-7.92257e-10
-1.68966e-08
-7.80618e-09
1.67941e-08
-7.14054e-09
-9.28021e-10
7.63865e-09
2.19675e-09
2.0617e-09
-4.06137e-10
-1.65274e-09
4.22286e-09
-3.73373e-10
8.99577e-09
-4.3384e-09
-1.17785e-09
3.97753e-09
1.27006e-10
2.99118e-09
3.48933e-09
1.75231e-10
-2.38041e-10
2.77798e-09
2.9686e-09
-5.50856e-09
2.44431e-09
2.29976e-09
-4.9821e-09
1.81085e-09
-4.08122e-09
4.42833e-09
-2.15795e-09
-2.46678e-09
1.32791e-10
4.14485e-09
2.01671e-09
-3.65362e-09
1.42296e-11
4.04423e-09
-1.28047e-09
3.29371e-09
-9.79715e-10
1.61448e-09
-7.87564e-10
-1.203e-10
4.49789e-09
-1.40898e-09
2.8537e-09
-9.5727e-10
2.14086e-09
5.14117e-09
-5.4e-09
3.00448e-10
7.63141e-09
-2.53186e-09
3.0789e-09
-4.43467e-09
-4.50762e-09
-1.02581e-09
5.0318e-09
5.01626e-10
1.85762e-10
6.26008e-09
-1.46173e-09
-2.53429e-10
6.85904e-09
5.15292e-10
5.49136e-09
7.5923e-09
5.05911e-09
8.23312e-09
-2.08845e-08
9.9373e-09
8.75037e-09
-1.10954e-08
-1.21333e-08
6.14393e-09
8.16707e-09
-2.17764e-09
1.26194e-08
-1.96936e-08
2.22205e-09
1.12566e-08
-5.24551e-09
-2.18279e-09
1.43421e-08
1.30242e-08
1.87015e-09
-1.3302e-08
1.19057e-08
9.56334e-09
2.57046e-09
-3.25308e-09
1.09581e-09
1.27312e-08
4.55301e-10
1.13831e-08
6.73159e-11
1.32424e-08
2.37065e-10
-1.62627e-09
7.4071e-09
-7.18979e-09
2.63627e-09
-5.21977e-09
8.64527e-09
-2.69991e-09
3.27355e-09
-4.36583e-09
9.73754e-09
-3.37928e-10
-3.45159e-09
5.9304e-09
-5.5867e-09
8.62358e-09
2.36668e-10
3.38379e-09
-6.33422e-09
-8.86397e-09
4.34189e-09
-4.02198e-10
4.92429e-09
-5.81812e-09
8.51408e-10
-5.16054e-09
-3.54297e-09
7.85212e-09
7.15617e-09
-2.7822e-09
-3.52255e-09
4.76089e-09
2.14942e-09
1.71328e-09
3.94224e-09
2.95053e-09
5.81851e-09
-3.55362e-09
-5.21547e-09
4.57427e-09
-9.21348e-10
-7.0242e-10
2.82701e-11
5.9176e-09
-1.27372e-10
4.4844e-09
1.18116e-10
-7.64894e-09
2.50253e-10
3.28115e-09
4.11753e-09
-3.42563e-10
-1.38878e-09
3.33698e-09
-1.56785e-09
3.1889e-09
-4.95808e-09
3.19312e-09
-7.77494e-10
3.32624e-09
-8.44767e-09
1.9243e-09
2.81034e-09
-1.17839e-10
5.61817e-09
-2.21919e-09
5.43815e-09
1.39648e-09
-3.64571e-09
1.76086e-09
6.09219e-09
-2.41495e-09
5.34102e-09
-3.87069e-10
8.16478e-09
3.57679e-09
-8.41531e-09
-2.42476e-09
1.0247e-08
-1.77682e-09
3.58328e-09
8.67006e-09
-3.69677e-09
-2.52215e-09
6.08637e-09
-5.91379e-10
4.16143e-09
5.89021e-09
2.18851e-09
-1.96813e-09
7.70139e-09
-1.15345e-08
5.80122e-09
-3.58901e-10
-3.41584e-09
-9.59884e-09
1.33736e-08
-1.50206e-08
4.43456e-09
8.6179e-09
-4.30482e-09
-1.10747e-08
-1.2545e-08
7.82254e-09
9.15699e-09
-1.52542e-08
1.43122e-08
-1.16029e-08
9.98787e-09
-2.61875e-09
-1.0785e-08
-1.74979e-09
-1.78093e-08
1.48522e-08
-4.30248e-10
-1.09764e-10
4.42726e-09
1.82475e-08
-1.05997e-08
1.01345e-08
-8.85262e-09
9.31787e-09
-1.10623e-08
3.22946e-11
1.05327e-09
-1.48839e-10
9.08345e-09
1.05341e-08
-1.49027e-08
1.75842e-08
-3.0225e-09
7.96869e-09
-8.49686e-09
1.69341e-10
5.86222e-10
-1.33007e-09
7.82821e-09
-7.08435e-09
-3.47129e-09
-3.65022e-10
4.42259e-09
-3.26571e-09
4.80233e-10
-6.85805e-10
1.8436e-10
-2.25365e-09
-3.83951e-09
5.90879e-09
4.18159e-09
-1.62152e-09
-2.37572e-09
-1.63716e-09
-6.79583e-10
1.9518e-09
-7.21272e-10
1.61046e-10
2.36008e-09
5.99592e-09
-8.51704e-09
2.19024e-09
4.97069e-09
-6.99989e-09
9.18577e-09
-9.07932e-09
9.01484e-09
2.40576e-09
-2.23482e-09
8.27994e-09
-5.95156e-10
2.88381e-09
-2.3151e-09
-8.51368e-10
-1.34537e-09
8.19267e-09
-1.83234e-09
5.95165e-09
3.02019e-09
-1.92774e-11
-1.17098e-10
1.20724e-09
5.5218e-09
-6.02975e-09
-6.99257e-10
3.54785e-09
1.01196e-08
-8.51125e-09
7.58429e-09
-9.19265e-09
-7.66894e-09
1.52251e-08
2.56348e-09
5.29486e-09
-1.43831e-09
-1.23678e-08
3.18406e-09
-5.55817e-09
-5.05273e-10
1.51591e-08
-7.06956e-09
1.55538e-08
-8.64899e-09
-7.41011e-09
-9.19983e-09
1.7477e-08
7.27667e-09
-5.90758e-10
1.45021e-08
1.24779e-09
1.39521e-08
6.82194e-10
6.36094e-09
-1.28749e-08
5.07565e-09
1.72572e-08
-1.95452e-08
1.18478e-08
-3.79049e-09
1.83803e-08
-1.61015e-08
-1.73322e-08
1.50534e-08
2.00951e-08
8.44038e-09
-1.01552e-08
-3.08338e-09
2.49824e-09
1.45373e-08
-1.12461e-10
1.15312e-08
7.48803e-09
1.39371e-08
-1.32996e-09
3.67843e-09
1.36861e-08
9.50053e-09
7.28406e-09
-4.93673e-09
8.3653e-10
1.23424e-08
1.08228e-08
-4.15738e-09
-2.85007e-09
-5.12769e-09
1.21352e-08
-1.93973e-09
1.99633e-09
-4.21392e-09
1.01657e-08
-1.2917e-08
4.72018e-09
-1.96892e-09
1.73445e-08
-1.00288e-08
-4.46059e-09
-6.01211e-09
5.34502e-09
-5.68585e-09
-7.14461e-10
-1.03105e-08
4.44911e-09
-7.05563e-09
-3.59724e-09
-9.17143e-09
-1.03675e-08
2.31361e-08
-5.02172e-09
2.46287e-10
7.14488e-09
-2.36945e-09
3.30483e-09
-3.4708e-11
-8.29184e-09
4.5132e-09
-9.6208e-10
-1.02638e-09
-4.5484e-09
-6.06453e-10
6.18124e-09
-2.19902e-09
-1.47536e-08
5.74318e-09
2.99829e-09
-1.12059e-08
-7.5044e-09
-1.19775e-08
-1.20875e-08
-3.40977e-09
9.27146e-09
-4.79816e-09
-1.0635e-09
-3.33819e-09
3.0956e-09
-3.16714e-09
-4.43021e-09
-2.37367e-10
1.3294e-09
6.50626e-10
-4.83037e-09
-1.20939e-09
5.38915e-09
-3.4726e-09
-1.67161e-10
4.2904e-09
-2.83035e-09
2.48583e-09
-4.08568e-09
8.93578e-10
-8.39921e-10
-2.88399e-09
9.42066e-10
-8.90559e-10
7.10467e-09
-2.01763e-09
-5.61387e-10
-3.87989e-09
-8.39912e-12
-3.06723e-09
-2.83026e-09
3.13659e-09
7.24671e-09
-7.61085e-09
-2.77245e-09
6.62094e-09
-4.10841e-09
6.24066e-10
-3.23725e-09
2.02983e-09
7.82836e-09
-9.44693e-10
4.95415e-09
1.99169e-09
-6.22254e-09
1.22449e-10
7.14345e-09
-1.00977e-08
4.33138e-10
2.52111e-09
-6.40691e-09
5.77701e-09
7.77335e-09
4.61637e-09
-8.82733e-09
-5.88674e-09
2.01152e-10
6.23471e-09
1.57031e-09
3.78677e-10
-8.18368e-09
9.35086e-10
-2.31122e-09
1.38673e-09
-6.03897e-09
-2.10394e-09
9.91078e-09
6.02872e-09
2.53318e-09
-8.18321e-09
9.17071e-09
-2.20691e-09
8.13974e-09
-1.11097e-08
3.40315e-09
-5.59486e-09
1.16307e-08
-1.08062e-09
-6.35997e-09
3.20198e-09
-1.01336e-08
7.74071e-09
-1.24423e-08
-8.80105e-09
-1.09897e-08
-2.18295e-09
4.02809e-09
3.1249e-09
3.5202e-09
5.76672e-11
-2.69942e-09
1.12356e-08
6.58494e-09
-8.7362e-09
-1.28884e-10
3.59826e-10
8.50523e-09
8.4253e-10
-5.19203e-09
-4.38672e-09
5.80781e-09
-4.1272e-09
-7.34851e-10
-9.45767e-10
-2.08533e-10
5.88743e-09
-1.15969e-08
1.16886e-08
2.68145e-10
-6.22663e-09
-4.52775e-09
-3.99847e-09
-5.32078e-09
-4.52792e-09
-2.79663e-10
4.59905e-09
-3.99019e-09
-1.27263e-09
-5.04734e-09
4.96256e-09
-1.94926e-10
-8.27132e-09
-7.59455e-09
9.63925e-09
1.92737e-09
-1.10765e-09
3.37001e-09
-4.18978e-09
-7.35915e-10
-1.33525e-09
8.04522e-10
3.01863e-09
-4.93096e-09
3.2839e-09
-3.21544e-09
2.9559e-09
-9.36276e-09
-5.16043e-10
6.92286e-09
-3.32616e-09
1.23469e-09
-5.4471e-09
-8.72968e-10
-3.04275e-09
-1.04345e-08
-9.46973e-10
3.26759e-10
4.14276e-09
-1.99715e-09
-1.30407e-10
9.75381e-09
-1.51845e-09
-6.31255e-09
-1.92287e-09
-2.04513e-09
1.42259e-09
1.03763e-08
1.06484e-08
-7.41245e-09
-4.75443e-09
7.55571e-10
7.84765e-09
-1.15044e-10
-6.00816e-09
7.54578e-09
1.9048e-09
-8.65926e-09
7.51004e-09
7.8588e-09
6.18959e-09
-1.45386e-09
-1.25946e-08
-1.47185e-09
1.91819e-09
5.55061e-09
-8.32854e-10
-5.0988e-09
7.19629e-09
-7.79352e-09
5.69606e-09
1.1149e-09
-6.23972e-09
2.60642e-11
8.98604e-09
4.92965e-09
-6.0014e-09
-5.24081e-09
3.63775e-11
-5.69722e-09
7.68225e-10
-2.86449e-09
-4.57899e-09
-7.35796e-09
-2.34041e-09
-1.20343e-08
-1.19695e-08
4.24084e-10
1.17809e-08
-2.355e-10
-1.05795e-08
-3.36147e-09
1.97141e-09
-3.65305e-09
-8.0931e-09
3.55265e-09
8.19351e-09
4.4499e-09
-8.27919e-09
1.76223e-10
1.21587e-08
4.23108e-09
-9.20555e-10
-1.54692e-08
-5.1184e-10
3.09147e-11
1.26396e-08
-9.65171e-09
9.49583e-09
-3.5594e-10
8.62079e-09
-9.17315e-09
-9.09934e-09
-5.37579e-09
9.33912e-09
5.53252e-09
3.09916e-09
1.45856e-10
-7.27342e-09
1.61785e-10
7.13845e-09
-2.6817e-11
2.75638e-10
2.85016e-09
-1.63569e-08
1.77378e-08
-4.93933e-10
7.97326e-12
1.10642e-08
-1.05782e-08
1.23532e-08
-1.2423e-08
-3.41491e-09
7.28735e-10
-5.40693e-09
-2.91153e-09
-8.7826e-09
-7.00058e-09
-1.30052e-08
9.50889e-09
1.192e-10
3.34277e-09
-6.62842e-09
3.16644e-09
-6.72325e-09
3.68428e-09
3.15818e-09
-2.06111e-09
-6.83431e-09
2.1722e-09
-3.89217e-09
2.29509e-09
-4.64009e-10
-2.02697e-09
8.50049e-09
-3.13074e-09
5.63812e-09
-3.98082e-09
-3.35127e-09
6.31514e-09
-9.59228e-09
1.07458e-09
-4.18636e-10
-4.54811e-09
-6.26972e-09
5.10005e-10
-2.50601e-09
4.37628e-09
6.63021e-09
2.69034e-09
4.41783e-10
7.59054e-09
-1.02115e-09
-7.76894e-09
1.19956e-09
6.19421e-10
3.61985e-09
3.54169e-10
3.23322e-09
-4.00601e-09
4.8604e-09
-5.52738e-09
-1.53958e-09
-1.46143e-10
-1.76257e-09
2.25927e-09
4.36371e-09
-6.89194e-11
1.16785e-08
3.27061e-09
-9.1019e-09
-5.84719e-09
-6.87555e-09
4.87396e-09
1.36801e-08
-3.98204e-09
3.77104e-10
-9.89746e-10
1.12749e-08
-5.41123e-09
-5.38225e-09
8.45707e-09
-4.06458e-09
-5.69863e-09
-8.54285e-09
8.85922e-09
-4.63674e-09
-1.32355e-09
2.61666e-10
-9.42281e-09
2.08039e-10
6.71909e-10
-7.10183e-09
-6.95773e-09
1.1275e-08
9.39781e-09
-1.4566e-08
-6.10685e-09
8.64365e-10
1.06187e-08
2.05368e-09
-4.34236e-09
1.16865e-08
-5.40901e-09
1.03419e-10
-6.08201e-09
-9.66201e-10
-7.95421e-09
-3.53682e-09
-2.18539e-09
-5.80169e-09
1.6923e-09
6.29479e-09
-3.95637e-10
4.13345e-09
-5.92319e-09
-1.3793e-09
-4.64891e-09
2.26511e-10
-5.39621e-09
7.667e-09
-5.78492e-10
-5.71845e-09
9.99869e-10
-8.98458e-10
5.61704e-09
4.17045e-09
-5.70159e-09
-4.18729e-09
-3.07391e-09
6.66245e-09
5.81912e-10
-7.62549e-09
5.27954e-09
1.95032e-09
-1.24191e-08
-8.06856e-11
4.36364e-09
8.13617e-09
-6.89867e-10
-1.98876e-09
-9.74048e-09
-5.99943e-09
-6.26189e-10
-1.57148e-09
1.8561e-09
-3.35853e-09
8.75827e-10
-8.14889e-09
-9.21722e-09
5.7188e-09
3.41773e-09
-2.41403e-09
-7.49305e-09
9.94787e-09
-2.45956e-09
-9.47707e-09
-1.43873e-09
8.74515e-09
2.64147e-09
-7.58317e-09
5.2877e-09
-5.84564e-09
4.13066e-09
-3.80806e-09
2.79399e-09
2.2276e-09
-1.5775e-09
-3.44409e-09
4.5182e-09
1.25079e-09
-2.97501e-09
-2.20111e-09
1.51441e-09
8.34461e-10
-8.07991e-10
2.63139e-09
1.52263e-09
-5.73152e-09
2.56278e-09
-7.94083e-09
8.00944e-09
8.50182e-09
-4.68826e-09
2.34455e-09
3.94395e-09
-4.76588e-09
-6.80627e-10
9.6301e-09
-6.10897e-09
1.18312e-09
-1.07491e-09
-2.05339e-08
1.67085e-08
2.18338e-09
1.64211e-09
-2.40315e-08
-7.87893e-09
1.13766e-08
-1.10748e-08
-1.28511e-08
2.42301e-08
-3.04221e-10
-7.01589e-09
1.03574e-08
-1.44163e-08
7.43368e-10
-2.3334e-08
1.41921e-08
8.39856e-09
-1.82133e-08
1.19408e-08
-6.28217e-09
5.8297e-09
-1.07359e-08
1.11884e-08
-1.17372e-08
1.99904e-08
-2.11042e-08
-1.01004e-08
1.35038e-08
1.3305e-08
1.63083e-08
3.51484e-09
-1.76397e-08
1.43545e-08
-2.06262e-08
-1.03782e-11
1.59066e-08
-1.64124e-08
1.48603e-08
1.63742e-09
-1.4021e-08
-5.62073e-09
-1.60759e-08
1.01453e-09
5.19339e-09
-2.25958e-08
-7.05641e-09
5.18392e-09
-2.10306e-09
-2.27751e-08
5.86413e-09
1.48061e-08
-1.19657e-08
-7.16939e-09
4.32906e-09
1.73466e-08
2.32988e-08
-1.46636e-08
-2.59818e-08
-9.31442e-09
6.55359e-09
-1.47469e-08
1.75077e-08
-5.30856e-09
2.22811e-08
3.74116e-10
-2.48279e-08
-2.49411e-09
-3.37629e-08
6.83198e-09
-3.65497e-09
4.48929e-09
1.25806e-08
7.06324e-09
1.96904e-08
-1.24052e-08
1.01162e-08
-8.38414e-09
1.06732e-08
-2.593e-09
-7.9788e-09
-1.83345e-09
-1.18379e-08
-2.10928e-09
1.13542e-08
-6.36311e-09
2.25241e-08
-6.04469e-09
-1.25225e-08
5.10195e-09
-9.63654e-10
-7.4853e-09
-1.34593e-08
-9.58739e-09
1.66836e-08
-7.96392e-09
-3.93412e-10
7.542e-09
-1.07837e-08
-4.72227e-09
-6.07069e-09
4.02531e-09
1.12416e-08
-9.14173e-09
-1.39378e-08
-6.56441e-09
4.94783e-09
1.28582e-08
1.45576e-08
-6.35268e-09
1.92252e-09
-5.08796e-09
1.26534e-09
1.58954e-08
-1.20727e-08
1.0947e-09
1.02501e-08
-1.64327e-08
3.62256e-09
-1.15517e-08
9.0238e-09
1.31323e-08
-8.24444e-09
6.80293e-09
7.24166e-09
-3.79439e-09
7.46527e-09
-9.2382e-09
1.76684e-08
1.25919e-08
1.67635e-09
4.79473e-09
1.57158e-08
-7.91868e-09
-1.11996e-08
-7.46079e-09
-1.00034e-09
1.96605e-08
-1.38522e-08
-4.69732e-09
7.34981e-09
1.17827e-08
-3.12405e-09
-1.41701e-09
9.48273e-09
-9.21833e-09
-1.41167e-08
-6.26168e-09
8.28356e-09
6.74462e-09
1.25914e-10
-6.45494e-09
1.02493e-08
6.30374e-10
4.44876e-09
-2.49241e-08
1.25965e-08
-8.21849e-09
1.27126e-08
1.04833e-08
-1.49774e-08
1.33404e-09
-1.26652e-09
-8.28598e-09
-2.55986e-09
-2.10179e-09
-8.25927e-09
1.29209e-08
1.01496e-08
1.10701e-08
-1.67709e-08
1.32893e-08
-1.80564e-09
1.75981e-08
1.0016e-08
-1.6544e-08
3.5278e-09
1.49784e-08
-9.08135e-10
6.30532e-09
9.45307e-09
-3.04571e-09
5.18892e-09
-3.49147e-09
4.60794e-09
-8.86117e-09
1.89297e-08
-4.87962e-09
1.53192e-08
1.49791e-09
6.84345e-09
6.12687e-10
1.17753e-08
1.00465e-08
-1.23343e-08
1.52485e-08
-5.06574e-10
-2.32486e-09
3.6995e-09
-4.93389e-09
3.55923e-09
-7.70161e-09
5.56184e-09
8.11026e-09
-4.33689e-09
-7.38505e-11
-4.6689e-09
4.07906e-10
1.08437e-08
-6.58267e-09
-2.24319e-09
5.80391e-09
-8.22963e-09
-3.06663e-09
7.53575e-09
-4.06123e-09
3.34237e-09
-8.6522e-09
6.12281e-09
-7.71432e-09
-6.38608e-09
7.69612e-10
-5.2916e-09
2.46477e-09
-1.35385e-09
1.07002e-08
1.49732e-09
4.88359e-09
-4.33537e-10
5.57026e-09
-2.3714e-09
9.49919e-09
5.55166e-09
-4.35065e-09
8.15695e-09
6.91251e-09
7.51833e-10
7.93816e-11
7.13442e-09
-5.50327e-09
3.92053e-09
1.32154e-10
1.64189e-10
-4.85622e-09
-7.92606e-09
1.26181e-08
-3.1654e-09
-5.74972e-09
-4.54336e-09
-1.83731e-09
6.89315e-09
-5.12468e-10
-5.17173e-09
6.60306e-10
-3.19297e-11
1.2303e-09
9.58828e-09
-5.18348e-09
-5.63508e-09
-6.57526e-09
1.7257e-09
-3.22155e-10
3.72705e-09
-3.73669e-09
-3.82985e-09
-1.61791e-09
4.9134e-09
7.7582e-09
-3.08331e-09
2.47998e-09
3.92613e-09
-1.4927e-09
7.5892e-09
1.89471e-09
8.23187e-09
7.44897e-09
1.13424e-09
-4.31434e-09
-4.26886e-09
-3.44566e-09
3.62395e-09
7.2707e-09
-1.33961e-08
9.4881e-10
9.00163e-09
-5.95521e-09
-6.30664e-09
-7.35147e-09
1.0748e-08
-6.63161e-09
3.23509e-09
-7.9423e-09
-5.36439e-09
-1.05749e-08
-7.34981e-09
9.34255e-09
8.58212e-09
-7.12192e-09
1.90335e-09
-5.35628e-09
-6.52891e-09
8.35841e-10
9.31705e-09
3.36872e-09
8.3281e-09
-5.86576e-09
-6.08332e-09
5.42018e-09
-6.58304e-09
-3.59705e-09
5.66522e-09
-5.14621e-11
-2.34364e-09
-3.27013e-09
-2.11195e-09
1.69384e-09
-1.17762e-08
2.31445e-09
-5.94719e-09
-1.2951e-08
7.62451e-09
-3.20439e-09
-1.23624e-08
3.51616e-09
-2.52325e-09
-9.00002e-09
5.98245e-09
1.23601e-08
-3.5805e-09
1.0187e-08
-2.88488e-09
-3.7496e-09
-1.73361e-09
-6.55725e-09
-7.82289e-09
3.44355e-10
1.01118e-08
-6.32997e-09
-4.12621e-09
7.3197e-09
-2.72955e-09
-4.2458e-09
6.95218e-09
2.65698e-09
-2.28945e-09
1.69952e-09
-8.55114e-10
6.10778e-09
-6.24659e-09
1.13948e-09
6.80662e-09
-3.77572e-09
1.86104e-10
5.2879e-09
-5.0966e-09
-2.92085e-09
1.28968e-09
7.96701e-09
1.55183e-09
-3.96542e-11
-2.27094e-09
1.02911e-08
-6.88072e-09
6.9331e-09
-8.05638e-09
-6.56655e-09
7.68983e-09
8.20028e-09
2.84658e-10
-1.14704e-08
1.04891e-08
-6.77287e-09
-8.9833e-09
4.2858e-09
-6.74271e-09
-1.47543e-09
9.38082e-09
-1.1627e-09
-2.45959e-09
-3.90016e-09
9.45534e-09
-2.90576e-11
1.94334e-10
3.8827e-09
-4.04798e-09
2.8143e-10
3.99282e-09
-4.30331e-09
-8.12817e-09
-6.58177e-09
7.96722e-09
-8.21963e-09
-6.41504e-10
7.3296e-10
-3.28303e-10
5.52125e-09
-4.99864e-09
5.7714e-09
-5.81827e-09
-1.46889e-09
-9.28225e-09
9.27568e-09
-1.04224e-08
7.99983e-09
9.53654e-10
-3.69849e-10
-5.86602e-10
4.83916e-09
5.13092e-09
-1.50795e-09
-5.11144e-09
-2.35047e-10
-1.23528e-09
-8.20015e-09
-1.13603e-09
7.84912e-09
-9.41704e-10
7.26891e-09
-2.88369e-09
-5.61308e-09
-1.66817e-09
1.65255e-08
-6.70282e-09
-7.05168e-10
-9.11762e-09
-8.12809e-09
1.04567e-08
1.41969e-08
-1.78547e-08
3.18682e-09
6.53977e-09
-1.68722e-08
-7.6854e-09
8.1072e-09
-1.5098e-08
1.20916e-08
-5.10081e-09
3.73415e-10
-8.07253e-09
1.58063e-08
-5.5949e-09
-5.51e-09
1.14783e-08
4.71107e-09
1.50708e-10
-1.37314e-08
1.03699e-08
7.91064e-09
5.19742e-09
-1.22923e-08
-8.15821e-10
9.98453e-09
6.95785e-10
-2.76971e-09
1.2121e-08
-7.62871e-09
9.01391e-09
9.23216e-09
-1.50592e-08
8.09308e-09
-1.38869e-08
1.57783e-08
-3.53247e-09
-3.47244e-09
7.9059e-09
-4.40197e-09
-5.14289e-09
5.914e-09
-6.82013e-09
5.60153e-10
3.46012e-10
1.13623e-09
-3.57377e-10
5.13517e-09
3.45755e-10
-7.46994e-09
3.04082e-10
-6.25678e-09
8.8157e-10
6.51148e-09
-6.48197e-09
7.8534e-10
-5.1568e-09
4.86122e-10
4.3133e-09
-5.4058e-09
5.94753e-10
1.01189e-09
-8.85872e-11
-8.39322e-09
8.17845e-09
8.43074e-10
-1.03534e-09
-7.98616e-09
-1.17939e-08
9.69621e-09
1.02762e-08
-5.37735e-10
-1.04131e-08
5.63996e-09
1.07402e-08
-6.68395e-09
5.47313e-10
5.97423e-09
-6.50544e-09
6.42232e-09
1.55989e-09
-1.04442e-08
2.46204e-09
-7.20667e-09
7.73291e-09
5.89609e-09
8.18337e-09
4.11674e-09
-8.12065e-10
9.54279e-09
5.17613e-09
-1.09358e-08
-4.68448e-09
-2.05866e-09
2.81181e-11
7.24406e-09
7.56077e-10
-8.08872e-09
-2.2042e-10
7.40697e-09
-1.07174e-08
1.90531e-09
7.80921e-09
-6.21938e-09
-3.49513e-09
4.79607e-09
-2.2752e-09
-6.15549e-10
-9.08354e-09
7.23432e-09
6.64529e-09
-3.51667e-10
-9.22676e-10
1.22388e-08
-1.05695e-08
-2.02103e-09
9.26686e-10
-9.96328e-10
1.23085e-08
1.90063e-09
1.0398e-08
-1.52647e-09
-1.07721e-08
-2.97938e-09
-8.64012e-09
9.56661e-09
2.05291e-09
8.66812e-09
-6.84115e-09
7.36676e-11
5.70129e-09
-1.2534e-11
1.70929e-09
3.69351e-09
5.2697e-09
-1.06725e-08
5.94363e-09
-1.04537e-08
4.14733e-09
-8.77315e-09
-5.07383e-10
8.66839e-09
5.45133e-09
-1.38467e-08
3.40509e-10
1.25098e-08
-4.24801e-09
9.959e-10
8.91123e-09
3.5244e-09
-5.29891e-10
-5.47515e-09
5.96368e-09
1.02159e-10
8.05053e-09
-1.03006e-08
5.89253e-09
-3.64245e-09
-1.75137e-08
1.71251e-08
8.4391e-09
-1.06361e-08
-3.38136e-09
-3.4962e-09
-7.45362e-09
-1.3483e-08
1.2502e-09
4.95583e-09
1.09191e-08
-1.5781e-08
4.94791e-09
1.20833e-08
-5.96418e-09
-3.92427e-09
-3.71468e-09
-1.71462e-08
-3.34977e-09
-1.41774e-08
1.54106e-08
2.33424e-09
-1.87647e-08
2.25304e-09
-2.07591e-08
5.9471e-09
9.51391e-09
-7.68103e-11
-1.68907e-08
1.152e-08
-5.38739e-09
-1.40251e-08
1.56311e-08
2.08573e-10
-9.81625e-09
-1.08362e-08
-9.71436e-09
-7.39882e-10
-1.76523e-09
-7.16253e-09
9.06433e-09
-1.63037e-08
-2.51172e-09
1.53733e-08
6.87328e-09
-1.31755e-08
-9.07106e-09
-5.72769e-09
4.82902e-10
2.0618e-08
5.80992e-09
-4.66433e-09
-5.48546e-09
-1.48991e-08
2.08674e-08
-8.63863e-09
-5.30674e-09
8.45991e-09
-1.329e-08
-1.02477e-08
-1.22562e-08
9.09892e-09
-8.16128e-09
-3.85829e-09
1.80857e-09
-7.67088e-09
-7.42765e-09
-6.91607e-09
-4.45084e-09
-1.14817e-08
1.99835e-10
-4.58826e-09
-7.19802e-09
1.74704e-08
-5.68413e-09
-6.42833e-09
1.04772e-08
-8.63711e-09
-1.10026e-08
5.73781e-09
-1.93316e-09
1.3008e-09
7.8297e-09
-1.55588e-08
-6.05741e-09
2.3871e-10
-1.96175e-08
1.28728e-08
6.87303e-10
-5.94083e-09
1.28211e-08
-6.64149e-09
5.18735e-09
-1.03903e-08
2.67973e-09
-5.63966e-09
2.03118e-09
8.79584e-09
9.08302e-11
-5.39865e-09
1.14302e-08
-6.1223e-09
-4.99441e-09
1.01904e-08
-5.10509e-09
3.67515e-09
1.73175e-09
-1.08055e-08
3.01081e-09
-4.33008e-09
-1.47423e-08
7.70352e-10
5.64897e-09
8.32294e-09
1.08918e-08
4.31994e-09
-8.49068e-09
-6.72108e-09
1.03241e-09
-4.88281e-09
1.01715e-08
-3.44883e-09
-2.40265e-09
4.88995e-09
6.05188e-09
-8.76172e-09
8.01201e-09
1.90401e-10
-9.15459e-09
2.0247e-10
-9.54612e-12
-5.76539e-09
1.47418e-08
-6.94523e-09
8.65307e-10
-8.63916e-10
1.14288e-08
6.01681e-09
7.68644e-09
-1.19714e-08
-4.43719e-09
8.22721e-09
-7.79212e-10
-6.91105e-09
-4.37622e-09
8.29661e-09
2.55154e-10
-1.2335e-08
1.22186e-08
-3.00604e-09
2.10333e-09
2.08035e-09
-3.44874e-09
-7.3493e-10
3.5326e-09
-3.01502e-09
1.58583e-09
-1.62951e-09
-2.10067e-09
7.2628e-09
-3.66126e-09
-1.84813e-09
3.87988e-09
-3.2576e-09
1.67668e-09
8.97699e-10
-4.62216e-09
7.09477e-10
-4.3605e-09
3.52483e-09
1.73338e-09
8.47768e-10
-2.67553e-09
-1.42986e-09
-9.12127e-10
-8.82409e-11
-3.28917e-09
1.50301e-09
-2.57434e-09
-6.80891e-10
-7.23044e-09
-2.07554e-09
3.4997e-09
-1.40898e-09
-4.71529e-09
1.32669e-09
-3.41654e-09
2.85616e-09
-2.64577e-11
-1.31512e-10
9.3273e-09
6.87807e-09
-1.02137e-09
-1.51839e-08
1.12815e-08
3.98063e-10
-2.3522e-09
1.08991e-08
7.11738e-09
-1.11383e-08
1.57778e-09
5.05231e-09
4.26901e-09
6.13821e-09
5.77046e-09
4.13568e-09
-1.09275e-08
-7.42498e-10
-6.59403e-10
-8.17654e-09
4.45976e-09
-4.89306e-09
1.83109e-09
-1.05315e-08
7.81388e-09
7.76998e-09
2.471e-09
-5.88515e-09
-5.38907e-09
-3.56668e-09
6.77315e-09
-2.08346e-09
-2.21869e-09
9.69397e-09
-3.33685e-09
-3.87101e-09
9.88635e-09
-9.53907e-09
3.52372e-09
-8.22301e-09
-3.19134e-09
7.54334e-09
7.04971e-09
7.20543e-09
-2.77827e-09
-1.14769e-08
-6.88776e-10
-4.84541e-10
2.7358e-09
3.57977e-09
3.57078e-09
4.76147e-09
-9.56441e-09
7.53873e-09
-5.34065e-09
1.05479e-08
-4.45775e-10
-1.05534e-09
-1.27834e-09
5.75084e-09
5.40102e-09
-1.39302e-08
-8.07039e-10
8.73962e-09
-1.32732e-08
7.72066e-09
-3.02516e-09
-6.09252e-09
4.24878e-09
8.00655e-09
-9.86768e-09
7.26218e-09
8.18408e-09
-8.66298e-10
4.51854e-09
2.85851e-09
-4.10115e-09
1.24601e-08
2.72388e-09
-1.10829e-08
-7.1208e-09
6.19053e-09
-3.17088e-09
2.67736e-10
-1.78444e-08
1.04558e-08
-6.02163e-09
1.19134e-08
6.56841e-09
9.67794e-10
-7.98901e-10
1.05833e-08
-1.73911e-08
7.07554e-09
8.6338e-09
4.33419e-09
-2.38472e-09
5.6349e-09
-1.60635e-09
-3.06075e-09
6.75741e-09
9.7975e-09
-1.092e-08
-3.49956e-09
1.22318e-09
-7.64839e-09
9.92476e-09
8.89332e-09
-3.75908e-09
1.38446e-08
1.80612e-09
-1.71857e-09
-3.68587e-10
1.2484e-08
-1.03969e-08
-1.03907e-09
-1.19093e-08
1.12298e-08
1.18534e-08
-2.33101e-09
-3.67662e-09
-5.8458e-09
1.27328e-08
-1.07962e-08
-1.46343e-09
-9.4794e-09
1.05743e-08
-1.08676e-08
9.44746e-10
-1.98638e-09
1.38856e-08
-6.75e-09
-9.46658e-09
4.21246e-09
-1.12307e-09
-7.32679e-09
-3.57121e-09
-2.66103e-09
1.3559e-08
-9.88463e-09
-1.51526e-08
1.77105e-08
-7.51657e-09
-7.02762e-09
-1.35227e-08
-9.48741e-09
1.35308e-08
4.44057e-10
-9.75433e-09
-1.1901e-09
-1.62111e-08
-8.99807e-10
-1.21588e-08
-1.67528e-08
8.81275e-09
3.01594e-09
-5.10612e-09
1.41818e-08
-1.79169e-09
1.36256e-08
-8.81796e-09
-1.01723e-08
-1.04728e-09
6.11353e-09
-8.76704e-09
-4.87776e-09
4.0405e-09
-1.83104e-09
-1.60963e-08
6.63939e-10
-6.75255e-09
1.01291e-08
-1.3723e-09
2.89146e-09
-1.02747e-08
8.75557e-09
-1.19704e-08
5.21897e-09
2.09413e-09
-4.42164e-09
6.99212e-09
-1.87286e-09
9.97309e-11
1.80804e-09
6.69756e-09
-7.30747e-09
-1.19814e-09
8.50878e-09
2.91367e-10
4.40771e-09
-3.2791e-09
7.38019e-09
9.31359e-09
4.16494e-09
-8.4913e-09
-4.54941e-09
-4.00873e-09
-4.80407e-09
-5.10808e-10
9.3236e-09
-1.18173e-09
-2.84091e-09
1.39114e-11
-7.17565e-09
-6.128e-09
8.49959e-09
-6.51187e-09
-1.84551e-09
3.98766e-09
-1.25834e-09
-3.14577e-09
4.1644e-10
-5.80703e-09
9.28387e-09
-4.17044e-09
7.11884e-11
-5.14712e-09
5.04184e-10
-1.48508e-09
-4.28147e-09
-7.37751e-09
-6.81402e-09
6.76322e-09
-5.75624e-09
-5.85627e-09
-4.10352e-09
1.02873e-09
-9.48065e-09
-1.13451e-08
6.51755e-09
-1.28923e-08
1.32109e-08
2.34648e-09
-2.66505e-09
7.30832e-09
-6.76202e-09
-1.34386e-08
5.38066e-09
7.91634e-09
-7.17665e-09
-6.12035e-09
6.46611e-09
-9.69846e-10
-1.15602e-10
-3.90445e-09
6.18982e-09
4.18075e-09
3.96047e-09
5.14343e-11
9.81e-09
-6.24144e-09
-1.15723e-09
-2.41132e-09
1.31322e-10
1.52979e-09
-5.94267e-09
8.521e-09
1.06325e-08
3.9581e-10
-7.31067e-09
8.62955e-09
1.02763e-09
-1.45604e-08
4.87671e-10
-3.39877e-09
-6.48543e-09
3.64277e-09
-3.49021e-10
8.01017e-09
-1.47132e-09
-1.23669e-08
2.38213e-09
1.0116e-08
-4.89453e-09
1.05541e-08
2.9258e-10
2.59468e-09
9.79871e-09
-1.2686e-08
-1.33066e-09
-1.04608e-08
-2.81278e-09
1.46043e-08
1.94983e-09
8.1547e-09
-9.81195e-09
1.3353e-08
-2.90969e-09
-1.1774e-08
3.65635e-09
-7.8873e-09
1.7584e-08
5.14345e-09
-5.88771e-10
-6.83633e-09
2.28167e-09
7.8621e-09
-1.24647e-09
-1.47217e-09
8.43446e-09
-7.9397e-11
-4.92961e-10
-6.72061e-09
4.19208e-10
8.25124e-09
-7.74679e-09
-5.67827e-10
1.1971e-08
-8.15107e-09
1.11048e-08
-4.20016e-09
-1.16495e-08
-1.46602e-09
3.17987e-09
1.89195e-09
-1.7098e-10
-5.99382e-09
-5.85778e-09
1.94224e-09
-7.00235e-09
1.09179e-08
-1.65612e-08
-1.26238e-09
5.39229e-09
-6.9872e-09
-1.04509e-08
-7.56164e-09
-1.88045e-09
4.23749e-09
-6.9477e-09
-4.85144e-09
-5.46079e-09
4.17556e-09
-2.89636e-09
8.84441e-09
-1.01236e-08
4.40507e-09
-7.25883e-09
2.38456e-09
4.69214e-10
1.05374e-09
4.84912e-09
-5.90015e-09
-2.68602e-12
2.01262e-10
2.8476e-09
-5.76401e-09
3.59438e-09
-6.7797e-10
-2.23703e-09
5.22468e-09
-1.40062e-10
2.89993e-09
-4.86443e-09
-2.72532e-10
1.51985e-09
-5.03879e-09
3.97673e-09
-4.5778e-10
-2.50399e-09
4.11009e-09
-8.62502e-11
-4.99893e-09
2.57336e-09
-7.84245e-11
-1.96331e-09
-2.07372e-09
4.09615e-09
-5.91322e-11
2.14436e-09
-3.95219e-09
-1.55488e-10
-4.52195e-09
2.72961e-09
-2.81389e-10
4.55812e-09
-2.41213e-09
-1.6366e-12
4.37937e-09
-7.345e-09
3.02228e-09
-5.6647e-11
2.63144e-09
-7.11927e-09
4.56168e-09
-7.38418e-11
6.67578e-09
3.35038e-10
-7.89593e-10
-5.4654e-09
5.8957e-09
3.59303e-10
-6.38141e-09
5.4706e-09
1.21208e-10
3.66012e-09
-6.67904e-09
3.43526e-09
-4.16358e-10
-2.44138e-09
6.00528e-09
9.62146e-11
-1.31316e-10
4.28731e-09
-3.99202e-09
-1.63959e-10
4.09796e-09
-4.09988e-09
-1.29386e-10
8.54393e-09
-6.31285e-09
-2.37351e-09
1.42434e-10
4.67146e-09
1.10821e-09
-5.62007e-09
-1.59596e-10
-2.68907e-09
7.37651e-09
-1.59875e-11
-6.14927e-09
3.95584e-09
-4.95649e-10
-3.1369e-09
5.80658e-09
-2.45952e-09
-2.10159e-10
-3.31419e-09
5.53366e-09
-2.22493e-09
5.46243e-12
-6.15862e-09
-2.92472e-10
1.79167e-09
4.1107e-09
-5.64665e-09
-2.55709e-10
-3.11536e-09
4.92813e-09
-2.10993e-11
5.33021e-09
-7.73334e-09
2.4417e-09
-3.85588e-11
-2.4305e-10
-6.54508e-09
6.72604e-09
6.2089e-11
5.08284e-09
4.32421e-12
6.50951e-09
-1.57763e-09
1.50964e-10
-4.67522e-09
6.83891e-09
-2.21511e-09
5.1421e-11
-2.32323e-09
-4.97149e-09
7.17612e-09
1.18602e-10
-6.68657e-09
-3.11876e-10
-2.7161e-09
5.20467e-09
-2.57343e-09
8.48587e-11
2.04836e-09
-4.57563e-09
-1.88835e-10
5.28894e-09
-3.24793e-09
7.35493e-12
-1.96075e-09
-3.51895e-09
5.35955e-09
1.20147e-10
-6.73758e-09
4.92306e-09
-1.46225e-10
-6.60626e-09
3.12966e-09
-4.23423e-11
3.81413e-09
-7.87108e-09
4.20095e-09
-1.43997e-10
7.61663e-09
3.78261e-10
1.55859e-09
-1.6753e-09
-1.80222e-09
-6.587e-09
3.32817e-10
-8.78112e-09
6.7504e-09
2.28487e-10
4.95507e-09
-5.86779e-09
1.2368e-09
-3.24088e-10
7.20383e-10
4.39564e-09
-1.60951e-10
-3.9485e-09
-9.69973e-11
-2.32952e-09
4.76003e-09
-2.26983e-09
-1.60683e-10
2.35488e-09
-4.28948e-09
-3.94935e-10
-2.49364e-09
4.92643e-09
-7.79139e-11
2.80981e-09
-4.9766e-09
-3.26863e-10
1.88197e-09
-4.31324e-09
2.52807e-09
-9.67723e-11
5.783e-09
-4.10054e-09
1.99519e-10
-1.93682e-09
3.0155e-09
-1.12221e-09
4.35389e-11
-2.97341e-09
1.18873e-09
-1.52115e-10
-2.18921e-09
7.08524e-09
-5.05835e-09
1.62334e-10
-4.29571e-09
-3.2787e-09
6.95507e-09
6.19361e-10
-6.57871e-09
9.37825e-11
3.86572e-09
-7.30207e-09
1.57659e-10
6.74643e-09
-6.16786e-09
-5.7385e-10
-4.72163e-12
4.57849e-09
-7.39086e-09
2.92751e-09
-1.1514e-10
-2.01181e-09
6.37967e-09
2.10648e-10
4.9367e-09
-2.02079e-10
-1.10441e-09
6.11768e-09
-5.09744e-09
8.41619e-11
-6.81033e-09
5.81652e-09
-1.10609e-10
-4.52751e-09
5.59372e-09
-1.20765e-09
1.41443e-10
2.09387e-09
-6.42026e-09
-2.0114e-10