/*--------------------------------*- C++ -*----------------------------------*\
| =========                 |                                                 |
| \\      /  F ield         | OpenFOAM: The Open Source CFD Toolbox           |
|  \\    /   O peration     | Version:  v1612+                                |
|   \\  /    A nd           | Web:      www.OpenFOAM.com                      |
|    \\/     M anipulation  |                                                 |
\*---------------------------------------------------------------------------*/
FoamFile
{
    version     2.0;
    format      ascii;
    class       volVectorField;
    location    "200";
    object      U;
}
// * * * * * * * * * * * * * * * * * * * * * * * * * * * * * * * * * * * * * //

dimensions      [0 1 -1 0 0 0 0];

internalField   nonuniform List<vector> 
18807
(
(-0.900728 0.184548 -0.427991)
(-0.918018 0.177784 -0.442902)
(-0.940296 0.190517 -0.468727)
(-0.901838 0.168049 -0.443025)
(-0.907085 0.171189 -0.440363)
(-0.857335 0.154594 -0.403982)
(-0.942205 0.199739 -0.479391)
(-0.966503 0.199648 -0.492145)
(-0.933943 0.17505 -0.465125)
(-0.96314 0.211525 -0.483812)
(-0.958982 0.206875 -0.491039)
(-0.916143 0.19794 -0.458757)
(-0.915189 0.197253 -0.455386)
(-0.910573 0.180594 -0.451098)
(-0.949027 0.199555 -0.486656)
(-0.848545 0.168316 -0.405977)
(-0.694183 0.00957444 -0.493379)
(-0.701547 0.0157594 -0.503838)
(-0.702077 0.042691 -0.468557)
(-0.741688 0.0553504 -0.475242)
(-0.720791 -0.00707482 -0.50265)
(-0.763144 0.0386318 -0.489715)
(-0.745251 0.0356508 -0.490326)
(-0.79215 0.00663017 -0.513388)
(-0.800706 0.0114681 -0.510164)
(-0.743507 0.0423047 -0.486837)
(-0.754877 0.00151429 -0.510485)
(-0.798036 0.00908194 -0.506783)
(-0.761636 -0.0186664 -0.50477)
(-0.764859 -0.00560853 -0.516923)
(-0.782872 0.0112415 -0.503259)
(-0.750318 -0.0193227 -0.510531)
(-0.724381 -0.01445 -0.512279)
(-0.899521 0.0920635 -0.57188)
(-0.897167 0.102474 -0.568313)
(-0.874441 0.10118 -0.568262)
(-0.839393 0.084072 -0.561503)
(-0.774715 0.0712092 -0.528288)
(-0.821573 0.0786425 -0.552208)
(-0.897431 0.100979 -0.57763)
(-0.891193 0.111799 -0.581244)
(-0.832139 0.0940362 -0.552972)
(-0.810089 0.0841851 -0.540198)
(-0.840074 0.0831391 -0.553012)
(-0.824931 0.0843542 -0.553393)
(-0.861728 0.0846355 -0.567463)
(-0.722603 0.0649133 -0.501124)
(-0.880971 0.108673 -0.583648)
(-0.888823 0.102136 -0.581307)
(-0.785644 0.0840872 -0.530946)
(-0.772498 0.073503 -0.514731)
(-0.776497 0.0708903 -0.537476)
(-0.736802 0.0673302 -0.514673)
(-0.831779 0.0886025 -0.558766)
(-0.762872 0.0722474 -0.519736)
(-0.379291 0.0200339 -0.373128)
(-0.450077 0.0240887 -0.416575)
(-0.440972 0.0299112 -0.403799)
(-0.327312 0.0153565 -0.345568)
(-0.296206 0.00795841 -0.328586)
(-0.426944 0.0270074 -0.395191)
(-0.391069 -0.00760368 -0.396076)
(-0.301451 -0.00366678 -0.334253)
(-0.339491 0.00173703 -0.361071)
(-0.313949 -0.00883927 -0.343887)
(-0.599815 0.0634139 -0.37179)
(-0.697264 0.0837599 -0.440847)
(-0.584402 0.0428734 -0.364327)
(-0.679948 0.0727552 -0.430395)
(-0.56658 0.0538592 -0.352579)
(-0.620662 0.0705618 -0.38765)
(-0.748471 0.0998934 -0.481585)
(-0.748617 0.0974217 -0.490759)
(-0.747898 0.102775 -0.481981)
(-0.712631 0.0610915 -0.472106)
(-0.561636 0.0383503 -0.3447)
(-0.538277 0.031672 -0.338673)
(-0.661083 0.061052 -0.426926)
(-0.613028 0.0624653 -0.390362)
(-0.50863 0.0334863 -0.318774)
(-0.411897 0.0641736 -0.349429)
(-0.389585 0.0601708 -0.336557)
(-0.384404 0.0653458 -0.32273)
(-0.351284 0.0457872 -0.320112)
(-0.394172 0.0701706 -0.330421)
(-0.406668 0.0517233 -0.356539)
(-0.378727 0.0484523 -0.33469)
(-0.358211 0.0394949 -0.331381)
(-0.427103 0.0753026 -0.348294)
(-0.427053 0.0753286 -0.341818)
(-0.406362 0.067523 -0.333402)
(-0.448284 0.0440372 -0.388681)
(-0.431395 0.0451312 -0.382356)
(-0.40876 0.041005 -0.370689)
(-0.394536 0.0352771 -0.364983)
(-0.456458 0.0725177 -0.356665)
(-0.448644 0.0514939 -0.383168)
(-0.443205 0.0665052 -0.363655)
(-0.717786 0.167277 -0.431613)
(-0.751532 0.157066 -0.463054)
(-0.791922 0.16489 -0.469845)
(-0.748943 0.174791 -0.456793)
(-0.693977 0.15002 -0.413371)
(-0.761493 0.145783 -0.45579)
(-0.78969 0.153715 -0.474298)
(-0.762415 0.167576 -0.472386)
(-0.723262 0.175664 -0.455539)
(-0.687155 0.147231 -0.426077)
(-0.751918 0.152182 -0.467495)
(-0.774585 0.146989 -0.465421)
(-0.470694 0.0926507 -0.349243)
(-0.453765 0.0926917 -0.340971)
(-0.480315 0.0872741 -0.354839)
(-0.499699 0.0808728 -0.375024)
(-0.396492 0.0721573 -0.321414)
(-0.492404 0.1005 -0.360014)
(-0.473097 0.107337 -0.347147)
(-0.445428 0.0914732 -0.335567)
(-0.451411 0.0870493 -0.333932)
(-0.45614 0.085209 -0.347358)
(-0.453 0.0781248 -0.352147)
(-0.503904 0.0963313 -0.368017)
(-0.479306 0.0876145 -0.355389)
(-0.364591 0.11499 -0.268496)
(-0.34762 0.101347 -0.270177)
(-0.360736 0.112378 -0.271006)
(-0.348147 0.092479 -0.266476)
(-0.384929 0.124106 -0.275401)
(-0.383197 0.123013 -0.274123)
(-0.377534 0.110043 -0.293003)
(-0.357787 0.0967817 -0.280491)
(-0.384011 0.128991 -0.284479)
(-0.350329 0.0999708 -0.266966)
(-0.397122 0.129082 -0.287925)
(-0.402504 0.113045 -0.306698)
(-0.400854 0.097717 -0.318599)
(-0.361657 0.0855082 -0.289658)
(-0.422908 0.146945 -0.298719)
(-0.439179 0.15841 -0.296278)
(-0.369385 0.101667 -0.286362)
(-0.440405 0.143757 -0.317736)
(-0.381744 0.094546 -0.300719)
(-0.400973 0.10819 -0.314629)
(-0.435276 0.140172 -0.314297)
(-0.890756 0.0970889 -0.585775)
(-0.890713 0.100839 -0.588582)
(-0.885897 0.102352 -0.584969)
(-0.879305 0.10998 -0.578985)
(-0.866077 0.116227 -0.589587)
(-0.862013 0.116838 -0.576557)
(-0.88582 0.102386 -0.592419)
(-0.86059 0.113533 -0.587743)
(-0.858551 0.106147 -0.588567)
(-0.856275 0.10851 -0.5843)
(-0.875507 0.094819 -0.606974)
(-0.875134 0.0994927 -0.608903)
(-0.869818 0.0942353 -0.590377)
(-0.881076 0.0999753 -0.594867)
(-0.875974 0.0971309 -0.595343)
(-0.875948 0.106759 -0.60779)
(-0.867003 0.0873547 -0.596186)
(-0.555979 0.131414 -0.355547)
(-0.478569 0.110057 -0.326052)
(-0.447568 0.104673 -0.299027)
(-0.545153 0.135283 -0.343641)
(-0.455824 0.107484 -0.300772)
(-0.444019 0.104121 -0.311844)
(-0.43414 0.103214 -0.295137)
(-0.506745 0.139877 -0.325143)
(-0.466403 0.118602 -0.310467)
(-0.571745 0.145789 -0.350902)
(-0.609426 0.163169 -0.373194)
(-0.572015 0.14127 -0.361902)
(-0.422217 0.105632 -0.297717)
(-0.489694 0.134018 -0.329637)
(-0.46405 0.113725 -0.317091)
(-0.412766 0.0965453 -0.301164)
(-0.452669 0.106654 -0.320254)
(-0.43149 0.103252 -0.311368)
(-0.937927 0.125237 -0.523583)
(-0.937839 0.132871 -0.528228)
(-0.940117 0.147115 -0.529228)
(-0.943283 0.146322 -0.537713)
(-0.929235 0.116044 -0.524489)
(-0.903475 0.112444 -0.517504)
(-0.900579 0.117703 -0.522726)
(-0.934373 0.110915 -0.532519)
(-0.939696 0.12583 -0.528839)
(-0.901542 0.144118 -0.514698)
(-0.907606 0.141818 -0.520633)
(-0.865765 0.127212 -0.507199)
(-0.912056 0.158846 -0.53172)
(-0.93402 0.152413 -0.542003)
(-0.941198 0.122459 -0.532231)
(-0.926728 0.111375 -0.529385)
(-0.939511 0.152809 -0.542325)
(-0.885686 0.116756 -0.518295)
(-0.897221 0.137092 -0.523292)
(-0.897911 0.115429 -0.52364)
(-0.931664 0.13405 -0.538093)
(-0.58935 0.20569 -0.315081)
(-0.538334 0.198797 -0.294404)
(-0.571623 0.226023 -0.329772)
(-0.606191 0.233346 -0.349562)
(-0.620149 0.208052 -0.325617)
(-0.554734 0.18581 -0.288023)
(-0.58687 0.239537 -0.340944)
(-0.623064 0.246408 -0.353175)
(-0.626922 0.229225 -0.321038)
(-0.61782 0.236358 -0.318818)
(-0.59767 0.209293 -0.301839)
(-0.551786 0.211709 -0.294309)
(-0.574455 0.197591 -0.29147)
(-0.696908 0.238764 -0.369503)
(-0.674191 0.228414 -0.347605)
(-0.553102 0.23782 -0.315683)
(-0.578384 0.239584 -0.313237)
(-0.457644 0.0740548 -0.362622)
(-0.433256 0.0754118 -0.349103)
(-0.409577 0.0707225 -0.331696)
(-0.402858 0.0481723 -0.360411)
(-0.363912 0.0471249 -0.331806)
(-0.408236 0.0686888 -0.331883)
(-0.36436 0.0552108 -0.309329)
(-0.454199 0.0693487 -0.364979)
(-0.362271 0.0545788 -0.317375)
(-0.410646 0.055864 -0.349769)
(-0.381688 0.0525795 -0.337748)
(-0.743619 -0.0498666 -0.46745)
(-0.717534 -0.0586979 -0.450333)
(-0.750194 -0.0513965 -0.473279)
(-0.767547 -0.0458824 -0.4864)
(-0.741079 -0.0461219 -0.453029)
(-0.808729 -0.015492 -0.481331)
(-0.781775 -0.0258889 -0.46507)
(-0.786395 -0.0187798 -0.461377)
(-0.727019 -0.0390108 -0.433649)
(-0.786063 -0.0331235 -0.477828)
(-0.786143 -0.0293544 -0.483421)
(-0.762861 -0.0385143 -0.458929)
(-0.788631 -0.0251832 -0.480633)
(-0.819131 0.0121175 -0.503916)
(-0.812236 0.00606895 -0.502768)
(-0.828795 0.0144646 -0.504715)
(-0.847487 0.00839624 -0.515781)
(-0.798813 -0.0141689 -0.474287)
(-0.810134 -0.000323593 -0.507954)
(-0.851925 0.0162707 -0.513834)
(-0.849129 0.029417 -0.507857)
(-0.83298 0.0074412 -0.505621)
(-0.4687 0.14465 -0.343323)
(-0.46306 0.115366 -0.348096)
(-0.498477 0.159369 -0.359628)
(-0.516335 0.13983 -0.369857)
(-0.433867 0.11448 -0.315283)
(-0.428854 0.126528 -0.302769)
(-0.374441 0.0912006 -0.293814)
(-0.381287 0.0936834 -0.302351)
(-0.476786 0.120756 -0.335806)
(-0.482428 0.128987 -0.338401)
(-0.397752 0.10543 -0.300601)
(-0.368372 0.0792011 -0.304799)
(-0.35083 0.0689642 -0.300378)
(-0.416745 0.0732681 -0.336809)
(-0.493237 0.116536 -0.349567)
(-0.373335 0.0936934 -0.295069)
(-0.392316 0.0991962 -0.30064)
(-0.379753 0.0931168 -0.306647)
(-0.420344 0.101509 -0.315983)
(-0.448896 0.072685 -0.355151)
(-0.402608 0.0630608 -0.336188)
(-0.440938 0.0835215 -0.339107)
(-0.44889 0.097821 -0.339627)
(-0.369227 0.0740682 -0.305257)
(-0.382804 0.0716441 -0.322808)
(-0.364162 0.0645628 -0.31523)
(-0.894253 0.224847 -0.551447)
(-0.89755 0.234571 -0.554429)
(-0.914791 0.274882 -0.562315)
(-0.918872 0.272642 -0.564352)
(-0.878847 0.217592 -0.54496)
(-0.923144 0.267987 -0.569107)
(-0.91215 0.279491 -0.559987)
(-0.913149 0.273897 -0.560636)
(-0.900291 0.274231 -0.559518)
(-0.899619 0.240036 -0.553761)
(-0.854215 0.220609 -0.531521)
(-0.90496 0.244568 -0.557919)
(-0.897498 0.232491 -0.555963)
(-0.864279 0.209808 -0.534406)
(-0.928344 0.256885 -0.565718)
(-0.896977 0.243449 -0.549712)
(-0.920386 0.270618 -0.566846)
(-0.905196 0.257738 -0.555484)
(-0.909986 0.225642 -0.453943)
(-0.900247 0.229313 -0.445199)
(-0.924495 0.206783 -0.422141)
(-0.902716 0.198508 -0.409803)
(-0.905666 0.273395 -0.463616)
(-0.921827 0.263841 -0.469359)
(-0.937356 0.245467 -0.454409)
(-0.937798 0.250292 -0.447934)
(-0.941209 0.241823 -0.450155)
(-0.920537 0.235474 -0.43582)
(-0.915383 0.207993 -0.421084)
(-0.889143 0.200965 -0.408459)
(-0.916256 0.269381 -0.460126)
(-0.918478 0.241922 -0.466412)
(-0.932582 0.256056 -0.465934)
(-0.914037 0.209731 -0.419843)
(-0.919241 0.224174 -0.417744)
(-0.897197 0.241209 -0.444263)
(-0.95655 0.263925 -0.458255)
(-0.948913 0.23423 -0.455718)
(-0.712337 -0.00787109 -0.494596)
(-0.705281 -0.0394119 -0.480685)
(-0.667432 -0.0514455 -0.448409)
(-0.626422 -0.0613778 -0.431287)
(-0.659192 -0.0354495 -0.473501)
(-0.630289 -0.0636532 -0.444326)
(-0.702954 -0.00523464 -0.482868)
(-0.654314 -0.0449015 -0.447513)
(-0.702346 -0.0340186 -0.47277)
(-0.6596 -0.0471744 -0.475106)
(-0.606371 -0.0710067 -0.442059)
(-0.664175 -0.00499804 -0.472853)
(-0.67678 0.00138217 -0.479049)
(-0.613134 -0.0596523 -0.448816)
(-0.613722 -0.0396667 -0.453773)
(-0.560625 -0.0735318 -0.404103)
(-0.596417 -0.0611976 -0.455933)
(-0.576841 -0.0690525 -0.438947)
(-0.899288 0.148205 -0.529673)
(-0.889896 0.145292 -0.517583)
(-0.823387 0.127384 -0.489737)
(-0.926457 0.149962 -0.527564)
(-0.916693 0.14136 -0.530279)
(-0.883977 0.140185 -0.49928)
(-0.806518 0.12974 -0.462977)
(-0.931758 0.142493 -0.521144)
(-0.895263 0.148364 -0.503326)
(-0.944763 0.163232 -0.528708)
(-0.938087 0.156036 -0.52652)
(-0.95697 0.163071 -0.541955)
(-0.83195 0.135056 -0.486519)
(-0.884109 0.146677 -0.512456)
(-0.875263 0.155659 -0.505618)
(-0.759343 -0.0522452 -0.471609)
(-0.803778 -0.03601 -0.498994)
(-0.725639 -0.0597182 -0.452728)
(-0.763565 -0.0525924 -0.488284)
(-0.792976 -0.0209732 -0.485909)
(-0.776844 -0.0266773 -0.470757)
(-0.761395 -0.045473 -0.466749)
(-0.835502 -0.0167053 -0.524927)
(-0.814967 -0.0206218 -0.520824)
(-0.811878 -0.0178505 -0.519)
(-0.836303 -0.00993496 -0.519807)
(-0.765873 -0.0502982 -0.462014)
(-0.800276 -0.0237296 -0.483979)
(-0.778072 -0.0525838 -0.50037)
(-0.763757 -0.0582132 -0.486489)
(-0.830912 -0.00907728 -0.525728)
(-0.828243 -0.0015767 -0.527248)
(-0.843572 -0.0124895 -0.528788)
(-0.751509 -0.0612276 -0.469923)
(-0.764436 -0.0588055 -0.489941)
(-0.60946 0.05271 -0.374288)
(-0.628796 0.0711815 -0.385465)
(-0.588895 0.056136 -0.361335)
(-0.537057 0.039969 -0.328804)
(-0.690655 0.0674725 -0.42699)
(-0.755102 0.0997523 -0.473489)
(-0.683207 0.0934159 -0.430131)
(-0.653974 0.0572017 -0.412301)
(-0.556824 0.0398308 -0.345761)
(-0.733146 0.0940128 -0.466412)
(-0.70304 0.0710491 -0.452199)
(-0.801343 0.116813 -0.500345)
(-0.792817 0.122754 -0.488297)
(-0.708329 0.128497 -0.462361)
(-0.709921 0.144472 -0.466664)
(-0.788207 0.151903 -0.508048)
(-0.76048 0.143414 -0.49185)
(-0.702729 0.137698 -0.460213)
(-0.656036 0.119785 -0.432164)
(-0.793638 0.111593 -0.490561)
(-0.775424 0.124612 -0.479276)
(-0.696401 0.125642 -0.453592)
(-0.655715 0.125603 -0.423569)
(-0.740577 0.159139 -0.487375)
(-0.785352 0.151187 -0.50266)
(-0.738198 0.115478 -0.463689)
(-0.764952 0.133173 -0.479611)
(-0.680106 0.1085 -0.444167)
(-0.665819 0.0413069 -0.460496)
(-0.804945 0.00558192 -0.535606)
(-0.762042 0.0256654 -0.505183)
(-0.693978 0.0504859 -0.464992)
(-0.726338 0.0498412 -0.490519)
(-0.681139 0.0367173 -0.486163)
(-0.685217 0.0570788 -0.453807)
(-0.721988 0.0251029 -0.468544)
(-0.75025 0.0329739 -0.481781)
(-0.737335 0.0248161 -0.503872)
(-0.645839 0.297093 -0.418646)
(-0.603538 0.284196 -0.389542)
(-0.583449 0.273066 -0.36486)
(-0.656441 0.292069 -0.410741)
(-0.66861 0.315521 -0.441989)
(-0.655533 0.32209 -0.433111)
(-0.726135 0.303258 -0.465393)
(-0.714793 0.307405 -0.456661)
(-0.745878 0.310242 -0.46229)
(-0.721747 0.299463 -0.463801)
(-0.634079 0.30113 -0.381303)
(-0.706217 0.318808 -0.422184)
(-0.704674 0.317659 -0.438415)
(-0.715443 0.310893 -0.440892)
(-0.663712 0.315069 -0.428284)
(-0.71484 0.261677 -0.455463)
(-0.732931 0.270382 -0.461886)
(-0.685958 0.263174 -0.455226)
(-0.669406 0.260423 -0.432602)
(-0.757388 0.278206 -0.480205)
(-0.737984 0.260153 -0.453402)
(-0.791968 0.267036 -0.479856)
(-0.740859 0.252909 -0.45508)
(-0.735227 0.249075 -0.467307)
(-0.723869 0.254516 -0.472299)
(-0.747743 0.258118 -0.476481)
(-0.727686 0.258961 -0.47802)
(-0.71063 0.247961 -0.459579)
(-0.685081 0.242322 -0.436165)
(-0.742737 0.2425 -0.469613)
(-0.785262 0.259401 -0.490193)
(-0.855203 0.129997 -0.517829)
(-0.899275 0.120611 -0.526012)
(-0.912393 0.117305 -0.541528)
(-0.831846 0.138737 -0.528245)
(-0.891436 0.140822 -0.534388)
(-0.90444 0.12461 -0.537989)
(-0.912127 0.153482 -0.553609)
(-0.912777 0.146616 -0.549762)
(-0.854855 0.112633 -0.517825)
(-0.878894 0.109253 -0.535432)
(-0.830599 0.106205 -0.514216)
(-0.897957 0.132703 -0.54291)
(-0.909195 0.140143 -0.554965)
(-0.914695 0.147652 -0.559836)
(-0.909097 0.130916 -0.546567)
(-0.909613 0.116032 -0.544163)
(-0.444694 0.0440951 -0.38662)
(-0.453394 0.0371695 -0.409889)
(-0.517048 0.0612726 -0.410975)
(-0.561528 0.0959677 -0.400188)
(-0.48059 0.0772521 -0.369722)
(-0.522031 0.0786108 -0.385668)
(-0.476974 0.0688961 -0.379917)
(-0.44451 0.0529532 -0.365625)
(-0.465836 0.0452428 -0.394957)
(-0.42057 0.0429459 -0.366273)
(-0.528414 0.0789425 -0.396088)
(-0.483312 0.0682434 -0.373982)
(-0.541383 0.0780776 -0.400033)
(-0.562061 0.0890277 -0.402749)
(-0.553482 0.0896994 -0.402791)
(-0.42775 0.0467506 -0.35906)
(-0.498854 0.0700354 -0.386105)
(-0.519157 0.0711913 -0.395992)
(-0.440127 0.061997 -0.354218)
(-0.633994 0.177143 -0.391303)
(-0.608119 0.16202 -0.371256)
(-0.599823 0.138615 -0.364978)
(-0.536606 0.122226 -0.329935)
(-0.637653 0.155822 -0.378982)
(-0.562933 0.128318 -0.336894)
(-0.543558 0.131503 -0.334861)
(-0.564131 0.135567 -0.33976)
(-0.686132 0.159572 -0.402533)
(-0.680401 0.159453 -0.403084)
(-0.650604 0.149587 -0.384734)
(-0.662241 0.15221 -0.394637)
(-0.522549 0.0532897 -0.408619)
(-0.571767 0.0456518 -0.430969)
(-0.611572 0.0454224 -0.459474)
(-0.61771 0.0307124 -0.461187)
(-0.647508 0.0591304 -0.438936)
(-0.646097 0.0548643 -0.459394)
(-0.547824 0.114549 -0.369015)
(-0.594757 0.112154 -0.382734)
(-0.553251 0.0767919 -0.409953)
(-0.625961 0.0547607 -0.439804)
(-0.525767 0.0924153 -0.383974)
(-0.523392 0.0750281 -0.395192)
(-0.505347 0.0889613 -0.379128)
(-0.515485 0.0949429 -0.373665)
(-0.537632 0.122254 -0.363091)
(-0.535197 0.117646 -0.363931)
(-0.621543 0.0758175 -0.427364)
(-0.637471 0.0707162 -0.422346)
(-0.609239 0.104392 -0.403038)
(-0.658558 0.0891306 -0.428269)
(-0.598593 0.0851385 -0.414906)
(-0.531032 0.077258 -0.39837)
(-0.555881 0.102522 -0.387775)
(-0.577436 0.0897497 -0.404283)
(-0.894013 0.056171 -0.525503)
(-0.830924 0.0489289 -0.485666)
(-0.822923 0.0408765 -0.484596)
(-0.830266 0.0384316 -0.492561)
(-0.80664 0.0436817 -0.485362)
(-0.785497 0.0403364 -0.46563)
(-0.818458 0.0606832 -0.48646)
(-0.896245 0.058069 -0.526181)
(-0.796354 0.0526667 -0.475736)
(-0.865442 0.0674655 -0.518678)
(-0.83276 0.0744785 -0.494754)
(-0.774193 0.0515389 -0.468541)
(-0.912049 0.0680743 -0.540389)
(-0.916199 0.0755871 -0.547203)
(-0.516157 0.10579 -0.365764)
(-0.46716 0.0894398 -0.354252)
(-0.464402 0.106036 -0.338959)
(-0.507635 0.110964 -0.342352)
(-0.522374 0.108121 -0.350588)
(-0.456779 0.0962734 -0.328285)
(-0.521925 0.12531 -0.352101)
(-0.570877 0.138707 -0.374333)
(-0.576876 0.132954 -0.389245)
(-0.528442 0.109593 -0.377925)
(-0.472108 0.104428 -0.33837)
(-0.487768 0.101775 -0.346069)
(-0.566524 0.119972 -0.36891)
(-0.500735 0.10902 -0.345297)
(-0.564897 0.136968 -0.379619)
(-0.527691 0.123772 -0.36064)
(-0.537548 0.115414 -0.372273)
(-0.600287 0.138584 -0.389434)
(-0.766714 0.246344 -0.44244)
(-0.762163 0.238089 -0.426087)
(-0.714491 0.221621 -0.404446)
(-0.737814 0.241846 -0.414725)
(-0.893937 0.222145 -0.4676)
(-0.830603 0.217012 -0.447958)
(-0.806453 0.213494 -0.436496)
(-0.74312 0.219445 -0.421794)
(-0.78769 0.230719 -0.436446)
(-0.853461 0.257836 -0.457166)
(-0.817024 0.230617 -0.445112)
(-0.81565 0.246242 -0.448782)
(-0.797704 0.228669 -0.431345)
(-0.885216 0.228745 -0.462187)
(-0.8842 0.230633 -0.461806)
(-0.85358 0.21897 -0.450449)
(-0.833368 0.249993 -0.458059)
(-0.668948 0.0327498 -0.409198)
(-0.683883 0.0362709 -0.416574)
(-0.673495 0.0327479 -0.405393)
(-0.686053 0.0874133 -0.420339)
(-0.681586 0.103909 -0.41631)
(-0.709664 0.0210745 -0.406325)
(-0.689788 0.0049875 -0.391673)
(-0.667498 0.0499754 -0.403232)
(-0.753931 0.163088 -0.424496)
(-0.801252 0.153654 -0.436214)
(-0.833483 0.15656 -0.442607)
(-0.805776 0.159504 -0.435179)
(-0.802691 0.128293 -0.437838)
(-0.683158 0.113911 -0.409726)
(-0.82037 0.0845333 -0.427387)
(-0.790828 0.0608435 -0.408711)
(-0.797735 0.142213 -0.435879)
(-0.804152 0.125029 -0.441968)
(-0.804556 0.080551 -0.407105)
(-0.725295 0.0322523 -0.379881)
(-0.72552 0.0361805 -0.395288)
(-0.705335 0.0182742 -0.390822)
(-0.781181 0.0596855 -0.418082)
(-0.800532 0.0912513 -0.41403)
(-0.864301 0.15789 -0.55929)
(-0.794382 0.125645 -0.523885)
(-0.849075 0.144013 -0.553364)
(-0.877521 0.156462 -0.572316)
(-0.922347 0.187922 -0.58088)
(-0.915709 0.182745 -0.580001)
(-0.91276 0.184475 -0.567572)
(-0.889117 0.166582 -0.557247)
(-0.859032 0.160667 -0.541609)
(-0.843682 0.152349 -0.534945)
(-0.864899 0.167318 -0.553872)
(-0.897662 0.177837 -0.570954)
(-0.924138 0.193721 -0.574935)
(-0.872086 0.15543 -0.567018)
(-0.900376 0.17814 -0.565287)
(-0.913721 0.185762 -0.569136)
(-0.920121 0.190631 -0.570274)
(-0.887168 0.162729 -0.564341)
(-0.832485 0.145324 -0.536653)
(-0.841423 0.148202 -0.548632)
(-0.81532 0.138966 -0.529874)
(-0.89635 0.0814325 -0.572789)
(-0.891609 0.0798817 -0.562495)
(-0.89374 0.0733302 -0.55553)
(-0.894153 0.0890167 -0.565416)
(-0.894974 0.075575 -0.565627)
(-0.886867 0.0741501 -0.575201)
(-0.890253 0.0856997 -0.579295)
(-0.859183 0.0812153 -0.561979)
(-0.864215 0.0896412 -0.570052)
(-0.864988 0.101373 -0.581715)
(-0.832195 0.0880209 -0.551908)
(-0.861393 0.0902738 -0.551087)
(-0.879833 0.0815203 -0.553689)
(-0.878705 0.0715153 -0.55494)
(-0.871138 0.0995032 -0.57512)
(-0.834145 0.0895018 -0.551227)
(-0.861517 0.0738528 -0.54419)
(-0.879369 0.0900616 -0.568792)
(-0.869206 0.0931908 -0.557854)
(-0.869741 0.0848895 -0.559374)
(-0.564461 0.0756067 -0.415809)
(-0.5658 0.0724591 -0.418025)
(-0.541311 0.0661927 -0.39825)
(-0.592555 0.0991949 -0.394965)
(-0.574994 0.10184 -0.392108)
(-0.602374 0.10343 -0.387848)
(-0.547992 0.115267 -0.37948)
(-0.563014 0.126868 -0.382021)
(-0.563867 0.105901 -0.374754)
(-0.537148 0.0852213 -0.384152)
(-0.518554 0.0872273 -0.386852)
(-0.70312 0.0746981 -0.455849)
(-0.69307 0.0688873 -0.446644)
(-0.670468 0.0893308 -0.439251)
(-0.752272 0.0688286 -0.479423)
(-0.687988 0.0906225 -0.446224)
(-0.664109 0.0887857 -0.430349)
(-0.744185 0.0941592 -0.462603)
(-0.67496 0.0764807 -0.436849)
(-0.711049 0.0596567 -0.458864)
(-0.681814 0.108051 -0.426097)
(-0.671152 0.0948192 -0.424171)
(-0.730373 0.103568 -0.440356)
(-0.691533 0.0841305 -0.441049)
(-0.789552 0.0596539 -0.487047)
(-0.779055 0.0716619 -0.468707)
(-0.806761 0.0690663 -0.472846)
(-0.750754 0.042956 -0.463563)
(-0.756123 0.044611 -0.461868)
(-0.742908 0.0536892 -0.47144)
(-0.724349 0.0514864 -0.466697)
(-0.680981 0.0817992 -0.439767)
(-0.714517 0.0790977 -0.45017)
(-0.671924 0.118903 -0.414067)
(-0.727654 0.0974443 -0.447098)
(-0.722986 0.0720437 -0.449804)
(-0.749119 0.0841969 -0.456203)
(-0.737579 0.0619608 -0.463115)
(-0.707829 0.106423 -0.440165)
(-0.766891 0.0795344 -0.463798)
(-0.74392 0.0964163 -0.441608)
(-0.388878 0.0309795 -0.356499)
(-0.455175 0.023973 -0.390153)
(-0.425435 0.000800465 -0.376044)
(-0.366783 0.0119535 -0.345297)
(-0.379562 0.0216415 -0.350773)
(-0.475651 0.0165647 -0.405121)
(-0.460102 0.00239186 -0.401468)
(-0.347988 0.00862519 -0.333105)
(-0.329907 -0.0156365 -0.327315)
(-0.425121 -0.020382 -0.381458)
(-0.44705 0.0103632 -0.388597)
(-0.421251 -0.0139559 -0.381704)
(-0.384095 0.0157235 -0.356467)
(-0.396689 0.00555663 -0.35927)
(-0.398289 -0.0136291 -0.365014)
(-0.36779 -0.029387 -0.344388)
(-0.803658 0.054554 -0.477287)
(-0.802245 0.0792824 -0.458629)
(-0.788943 0.0168366 -0.456553)
(-0.812961 0.019577 -0.467204)
(-0.813853 0.0519209 -0.476884)
(-0.758351 0.0640638 -0.45799)
(-0.767167 0.0679328 -0.459329)
(-0.742885 0.0278163 -0.475953)
(-0.732669 -0.00703344 -0.456349)
(-0.759408 -0.00795288 -0.444912)
(-0.722891 -0.015306 -0.429274)
(-0.739863 0.0375395 -0.475438)
(-0.715073 -0.00644112 -0.442641)
(-0.735963 -0.00560471 -0.442785)
(-0.769846 0.0407867 -0.470736)
(-0.884506 0.179598 -0.536808)
(-0.879954 0.173063 -0.534915)
(-0.892089 0.187085 -0.535519)
(-0.900311 0.200423 -0.547857)
(-0.880281 0.167797 -0.539875)
(-0.878777 0.206426 -0.546184)
(-0.889016 0.202513 -0.552692)
(-0.873205 0.177769 -0.529159)
(-0.894755 0.226635 -0.556696)
(-0.889202 0.233968 -0.557029)
(-0.894513 0.219768 -0.55227)
(-0.874757 0.223199 -0.538504)
(-0.918349 0.243108 -0.574521)
(-0.915157 0.232836 -0.563496)
(-0.922987 0.237637 -0.573835)
(-0.89661 0.181109 -0.588969)
(-0.867338 0.158203 -0.560375)
(-0.887669 0.174721 -0.562513)
(-0.873377 0.158214 -0.572099)
(-0.84358 0.13358 -0.543142)
(-0.862966 0.166518 -0.552509)
(-0.856626 0.150737 -0.544773)
(-0.807517 0.117281 -0.515644)
(-0.836575 0.124132 -0.527899)
(-0.875383 0.172929 -0.564802)
(-0.865838 0.164095 -0.556274)
(-0.851097 0.147054 -0.543907)
(-0.893031 0.121418 -0.587306)
(-0.896847 0.125246 -0.580149)
(-0.911875 0.122887 -0.584076)
(-0.898699 0.125166 -0.5813)
(-0.900822 0.124237 -0.599588)
(-0.907785 0.116419 -0.594471)
(-0.901003 0.127885 -0.576752)
(-0.89275 0.128037 -0.582358)
(-0.881302 0.116544 -0.580537)
(-0.884316 0.134259 -0.587601)
(-0.867209 0.144583 -0.567811)
(-0.914026 0.13684 -0.578504)
(-0.893416 0.124408 -0.593546)
(-0.870695 0.112305 -0.583773)
(-0.901609 0.14203 -0.579657)
(-0.902079 0.127866 -0.597299)
(-0.918363 0.141563 -0.597905)
(-0.907966 0.219562 -0.466812)
(-0.918286 0.200327 -0.46214)
(-0.948005 0.223327 -0.477567)
(-0.935962 0.238217 -0.477471)
(-0.935571 0.230579 -0.468259)
(-0.929573 0.202512 -0.460325)
(-0.945851 0.223408 -0.461279)
(-0.929725 0.225394 -0.469455)
(-0.914597 0.20137 -0.429573)
(-0.923046 0.196186 -0.433755)
(-0.904522 0.176309 -0.429326)
(-0.89558 0.177661 -0.417128)
(-0.929133 0.188463 -0.441234)
(-0.919678 0.17778 -0.433862)
(-0.954295 0.213967 -0.465497)
(-0.917091 0.184437 -0.43095)
(-0.814483 0.127839 -0.528009)
(-0.775404 0.109244 -0.498846)
(-0.881037 0.145487 -0.558152)
(-0.847173 0.133084 -0.537179)
(-0.75707 0.106681 -0.514558)
(-0.832971 0.131929 -0.545149)
(-0.791549 0.12292 -0.511436)
(-0.884847 0.151551 -0.549882)
(-0.870444 0.14819 -0.549037)
(-0.875852 0.149366 -0.56414)
(-0.816743 0.129706 -0.543505)
(-0.829212 0.141245 -0.532229)
(-0.881508 0.15232 -0.564431)
(-0.856992 0.0340536 -0.520904)
(-0.877079 0.0365392 -0.518421)
(-0.801239 -0.000638258 -0.462858)
(-0.821976 0.00844136 -0.4795)
(-0.813192 0.00372033 -0.47133)
(-0.774489 -0.0018771 -0.451018)
(-0.796071 -0.021016 -0.478254)
(-0.792821 -0.0192707 -0.473687)
(-0.873904 0.0308025 -0.523656)
(-0.874416 0.0196499 -0.514075)
(-0.863623 0.0233722 -0.51647)
(-0.859539 0.0234421 -0.516059)
(-0.804664 -0.0182509 -0.470674)
(-0.814045 -0.00841391 -0.479707)
(-0.848076 0.00539996 -0.520364)
(-0.852929 0.0102895 -0.521166)
(-0.862387 0.0174013 -0.522453)
(-0.501232 0.0522963 -0.405848)
(-0.484078 0.045696 -0.400092)
(-0.484099 0.0412941 -0.415827)
(-0.527153 0.0476959 -0.425387)
(-0.56657 0.0397611 -0.433494)
(-0.459497 0.0329325 -0.413795)
(-0.462908 0.0097063 -0.425747)
(-0.441027 0.0161765 -0.416418)
(-0.473979 0.0180573 -0.430532)
(-0.555777 0.00829772 -0.47084)
(-0.526536 0.0123936 -0.45911)
(-0.515816 0.0258952 -0.446905)
(-0.458994 0.00635981 -0.428422)
(-0.519861 0.0119241 -0.460348)
(-0.780772 0.00135299 -0.52356)
(-0.752881 -0.00695552 -0.516742)
(-0.772991 0.000370776 -0.512631)
(-0.832886 -0.0263659 -0.543346)
(-0.805904 -0.0397129 -0.54134)
(-0.797617 -0.0404385 -0.542091)
(-0.777105 -0.0343303 -0.535204)
(-0.573725 0.044734 -0.385639)
(-0.724106 0.0198244 -0.532105)
(-0.710993 0.00859505 -0.530845)
(-0.690093 0.0119876 -0.525917)
(-0.572837 0.0189495 -0.38107)
(-0.517366 0.0164782 -0.343917)
(-0.530852 0.0265034 -0.345581)
(-0.404531 -0.0527046 -0.414999)
(-0.399264 -0.0692169 -0.415312)
(-0.458302 -0.0788119 -0.447868)
(-0.29246 0.0348907 -0.270526)
(-0.309917 0.0371801 -0.287973)
(-0.321754 0.0435895 -0.276727)
(-0.315495 0.0330341 -0.301097)
(-0.723583 0.0472698 -0.528145)
(-0.734468 0.0530403 -0.527207)
(-0.695656 0.0409649 -0.513083)
(-0.781597 -0.0152077 -0.467564)
(-0.740923 -0.0390917 -0.445603)
(-0.625575 -0.0942493 -0.477709)
(-0.602404 -0.0999376 -0.469131)
(-0.425865 -0.0654722 -0.434846)
(-0.465873 -0.0571085 -0.45365)
(-0.759982 0.065425 -0.504986)
(-0.710859 0.0415687 -0.489124)
(-0.661667 0.0247009 -0.458808)
(-0.668867 0.042694 -0.44357)
(-0.487941 0.0592677 -0.315752)
(-0.477444 0.0567986 -0.309106)
(-0.523548 0.0687336 -0.328151)
(-0.29036 0.0205189 -0.302781)
(-0.285567 0.0249011 -0.297851)
(-0.78333 -0.0114282 -0.459249)
(-0.746685 0.00225403 -0.434429)
(-0.76249 -0.0059624 -0.447077)
(-0.761305 -0.0186373 -0.453105)
(-0.751152 0.0771335 -0.521249)
(-0.73369 0.065163 -0.521617)
(-0.77652 0.0794077 -0.533955)
(-0.594497 -0.0928143 -0.458011)
(-0.635892 -0.0855998 -0.467374)
(-0.651677 -0.0833136 -0.465354)
(-0.681578 0.0402206 -0.475769)
(-0.709839 0.0401137 -0.496835)
(-0.711521 0.0431027 -0.486365)
(-0.773032 0.00789603 -0.447952)
(-0.767522 -0.0052342 -0.441781)
(-0.797929 -0.000533148 -0.464572)
(-0.811302 0.0753065 -0.483528)
(-0.803703 0.0779525 -0.493404)
(-0.70722 0.054388 -0.453847)
(-0.625679 0.0331329 -0.40742)
(-0.626205 0.0499559 -0.396665)
(-0.379581 0.0676421 -0.274786)
(-0.400081 0.0711986 -0.277797)
(-0.389307 0.0637106 -0.272624)
(-0.462804 0.0772225 -0.300053)
(-0.461401 -0.0514942 -0.433495)
(-0.423047 -0.0437471 -0.415432)
(-0.305272 -0.00233503 -0.328848)
(-0.320434 -0.00419686 -0.335168)
(-0.66638 -0.0682344 -0.445426)
(-0.632742 -0.0849058 -0.449263)
(-0.667624 -0.0684151 -0.46129)
(-0.632013 -0.0720423 -0.464178)
(-0.793419 0.101956 -0.531865)
(-0.781711 0.0934819 -0.529722)
(-0.732978 0.0740381 -0.50767)
(-0.750668 0.0834555 -0.52085)
(-0.803382 0.116282 -0.513416)
(-0.799007 0.113399 -0.497134)
(-0.785695 0.0117258 -0.438647)
(-0.79477 0.0198136 -0.442508)
(-0.800207 0.0357298 -0.447388)
(-0.692052 0.0767584 -0.419469)
(-0.673352 0.0661778 -0.419938)
(-0.711501 0.0779028 -0.435416)
(-0.669795 0.0655331 -0.41328)
(-0.815592 0.126614 -0.545622)
(-0.784392 0.113144 -0.535843)
(-0.774302 0.097367 -0.521504)
(-0.785523 0.105692 -0.535983)
(-0.779939 0.0978263 -0.531909)
(-0.797637 0.101942 -0.538814)
(-0.477992 0.0853858 -0.291174)
(-0.474374 0.0928327 -0.288277)
(-0.519596 -0.0494408 -0.438009)
(-0.594622 -0.0533203 -0.46729)
(-0.534453 -0.0602646 -0.441347)
(-0.595088 -0.0624628 -0.455847)
(-0.30787 0.0618872 -0.258555)
(-0.294378 0.0525632 -0.250919)
(-0.7571 -0.0318872 -0.433747)
(-0.763673 -0.0105655 -0.432626)
(-0.757749 -0.00853849 -0.427916)
(-0.852342 0.126404 -0.489084)
(-0.842301 0.120733 -0.499896)
(-0.794597 0.10684 -0.519104)
(-0.763039 0.088722 -0.509298)
(-0.805331 0.107031 -0.520085)
(-0.765741 0.0955652 -0.505908)
(-0.326128 0.00215241 -0.328904)
(-0.299556 0.0178225 -0.309872)
(-0.279519 0.0159668 -0.284522)
(-0.286168 0.025551 -0.287013)
(-0.743524 0.101024 -0.437027)
(-0.772675 0.101524 -0.471128)
(-0.737899 0.0889509 -0.445496)
(-0.461009 0.0908684 -0.271137)
(-0.518215 0.0964857 -0.295235)
(-0.488688 0.101292 -0.270151)
(-0.815525 0.143262 -0.522937)
(-0.84851 0.155389 -0.53171)
(-0.674199 -0.0471494 -0.439183)
(-0.645005 -0.0654048 -0.426499)
(-0.682753 -0.0480215 -0.432635)
(-0.82047 0.14051 -0.531713)
(-0.817207 0.133785 -0.530508)
(-0.828133 0.1465 -0.529213)
(-0.850844 0.147427 -0.535665)
(-0.889128 0.127294 -0.485354)
(-0.870802 0.136083 -0.485527)
(-0.862193 0.117834 -0.472956)
(-0.820179 0.0399636 -0.4279)