/*--------------------------------*- C++ -*----------------------------------*\
| =========                 |                                                 |
| \\      /  F ield         | OpenFOAM: The Open Source CFD Toolbox           |
|  \\    /   O peration     | Version:  v1612+                                |
|   \\  /    A nd           | Web:      www.OpenFOAM.com                      |
|    \\/     M anipulation  |                                                 |
\*---------------------------------------------------------------------------*/
FoamFile
{
    version     2.0;
    format      ascii;
    class       surfaceScalarField;
    location    "239";
    object      phi;
}
// * * * * * * * * * * * * * * * * * * * * * * * * * * * * * * * * * * * * * //

dimensions      [0 3 -1 0 0 0 0];

internalField   nonuniform List<scalar> 
36911
(
-5.38953e-10
4.60756e-09
-2.61322e-10
-3.80729e-09
4.12464e-09
-4.15927e-09
4.9232e-09
-4.88856e-09
1.24584e-09
3.02146e-09
-1.42649e-10
1.15192e-09
3.39891e-10
-5.65108e-09
5.07802e-09
-2.45324e-10
-3.68077e-09
2.93114e-09
5.5637e-09
-3.41681e-09
4.16889e-09
8.09787e-12
-5.25604e-09
5.40333e-09
2.87417e-09
7.13315e-10
-1.04614e-09
1.90697e-09
7.94793e-09
-9.51501e-09
8.32304e-09
-6.66139e-09
-1.27491e-10
-7.05531e-10
5.00192e-09
-1.80915e-09
7.85927e-09
2.27293e-09
7.02387e-09
-8.85077e-10
-6.79683e-09
7.98667e-09
-1.31733e-09
5.17011e-11
-1.28483e-09
-9.33365e-10
5.63117e-09
8.38714e-09
-6.49947e-10
-1.73264e-09
9.64361e-09
6.58502e-09
8.68767e-10
2.29997e-09
1.55746e-08
-3.10278e-09
-1.47718e-08
1.95924e-08
-3.10652e-09
-1.41859e-08
1.76674e-08
7.05366e-10
1.21967e-09
-7.68261e-09
1.09476e-08
1.44023e-08
6.94569e-09
9.46322e-10
-1.18423e-09
8.84814e-09
-1.07704e-08
6.6893e-09
-1.09763e-08
-1.22631e-08
9.28392e-09
-5.15914e-10
3.49516e-09
6.18163e-09
-1.17554e-08
1.31067e-08
-1.42328e-08
1.83142e-09
8.76792e-09
7.46167e-09
-7.57921e-09
2.72948e-08
-1.00793e-08
1.56069e-08
1.37715e-08
-3.04204e-09
-4.54783e-09
3.17625e-09
-8.4267e-09
-5.37756e-09
1.16609e-09
4.11765e-09
9.38161e-11
2.73969e-09
-5.33387e-09
-2.78338e-09
5.4939e-09
-8.72443e-09
8.21868e-09
-4.98814e-09
6.42014e-09
2.39849e-10
-2.19705e-09
3.6093e-09
2.70541e-09
8.53373e-10
-3.10735e-10
-1.4884e-09
3.06236e-09
4.84618e-09
3.35189e-09
-1.21353e-08
7.29499e-09
-2.99407e-09
3.3109e-09
1.37826e-09
-1.69509e-09
1.39844e-09
-4.51459e-09
1.2208e-10
-9.45888e-10
-1.84884e-09
2.51928e-09
2.75443e-10
-2.34521e-09
9.13358e-10
4.85951e-10
4.82282e-09
9.50615e-09
-1.04976e-08
4.34334e-09
-2.12505e-09
1.11446e-09
4.32147e-09
-1.13573e-10
-3.06451e-09
6.04149e-09
3.28767e-09
-6.26464e-09
1.01815e-09
-4.02834e-09
-5.42862e-11
-1.34506e-09
1.08146e-09
-3.46271e-09
3.72632e-09
1.87279e-10
4.50916e-09
2.44755e-09
-1.00616e-08
7.80137e-09
7.78914e-10
-8.941e-09
1.06097e-08
-4.15712e-09
4.7675e-09
5.02079e-09
-1.30761e-09
2.4666e-11
6.62787e-09
-2.48226e-09
3.77108e-11
-1.96444e-09
-1.11888e-08
1.25033e-08
5.54004e-09
-7.89601e-09
-3.75442e-09
-3.54459e-11
-8.3493e-09
-1.32e-09
1.35798e-09
8.31135e-09
-9.28665e-10
-9.38507e-09
-4.44138e-10
-4.35641e-09
-6.16751e-09
4.79471e-09
3.12477e-09
2.96877e-09
3.61098e-09
-9.70451e-09
4.65751e-10
5.54754e-09
-2.88851e-09
6.09202e-09
5.49934e-09
-8.62259e-09
1.06091e-08
-4.0513e-09
-6.13594e-09
1.05011e-08
1.13415e-09
-7.58325e-09
5.05829e-09
4.14894e-09
1.11148e-08
-9.71622e-09
1.09356e-08
-4.02311e-09
-2.76351e-09
-1.06265e-08
1.00327e-09
5.83531e-09
3.78793e-09
4.09244e-09
-4.21784e-09
1.48523e-09
-5.93638e-09
1.5566e-08
-4.83316e-09
5.67596e-09
-8.61867e-09
9.66101e-10
-5.49233e-09
-2.73083e-09
-5.60825e-10
7.8984e-09
-4.60675e-09
3.32189e-09
-5.11486e-09
5.21953e-09
-3.42658e-09
-5.20436e-10
7.08515e-09
-3.24283e-09
6.66268e-09
-1.54222e-09
-1.35217e-08
8.40126e-09
-6.28588e-09
1.24281e-08
1.02043e-08
-4.03562e-09
-1.20447e-09
-4.96422e-09
-2.83319e-09
6.75162e-09
-6.8191e-09
6.30856e-09
-2.22029e-09
-1.11889e-08
4.53184e-09
-2.48978e-09
5.76835e-09
-3.89711e-09
6.18536e-10
-1.02516e-09
-8.28372e-09
2.16524e-09
-6.7633e-09
1.76487e-09
-6.11105e-09
1.23068e-09
-1.365e-08
-9.29558e-09
9.42387e-09
-1.38569e-08
-3.82879e-09
5.98745e-09
-9.57979e-09
2.56717e-09
-1.32816e-08
-2.12501e-09
-2.1151e-08
-2.051e-08
-1.79688e-08
1.07762e-08
2.77025e-08
-2.40312e-08
-3.44418e-09
1.03316e-09
-1.26235e-08
-7.68095e-10
-1.06396e-08
-1.9344e-08
9.45609e-09
1.3295e-09
8.55844e-09
-8.23494e-09
-6.67394e-09
-4.43515e-09
-1.07946e-08
-1.79503e-08
-1.45269e-08
-2.42785e-09
1.94531e-09
-1.03093e-08
-1.81831e-08
1.58688e-08
-9.70324e-09
-8.59625e-09
1.75314e-08
-1.03659e-08
5.29511e-09
-3.00872e-09
-1.30264e-09
-5.99794e-09
6.47762e-10
-1.44511e-08
6.81099e-09
-7.46587e-09
1.20489e-08
-1.19118e-08
-8.02021e-09
6.27825e-09
-1.35739e-08
6.08599e-09
3.31574e-10
-1.54556e-09
1.68028e-08
3.00251e-09
-4.71177e-09
-1.50936e-08
1.05389e-08
8.63828e-09
-2.37433e-09
-1.27072e-08
-1.26818e-08
1.84428e-08
6.9462e-09
2.71234e-09
1.37906e-09
-1.67986e-08
5.09795e-09
-1.50674e-08
-1.35724e-08
2.69551e-08
-2.84383e-09
-1.66741e-08
1.79648e-08
-1.48631e-08
1.39425e-08
-7.58603e-10
-1.01813e-08
1.76442e-08
4.93653e-09
-2.00068e-08
1.90892e-08
-1.47498e-08
-1.73447e-08
-6.94636e-09
1.74573e-08
6.83372e-09
-1.32897e-08
1.43879e-08
6.04936e-09
2.1674e-08
-7.68211e-10
5.40223e-09
1.86119e-08
2.21491e-09
9.92791e-09
-7.8336e-09
2.29872e-08
6.52042e-09
1.20255e-08
5.3761e-09
-8.21023e-09
1.14765e-08
-8.64234e-09
1.12223e-08
-1.19037e-09
-4.65587e-09
1.50858e-08
-3.01606e-08
6.86455e-09
1.52321e-08
-8.24249e-09
4.48684e-09
8.26785e-09
-1.65738e-09
8.62165e-09
-1.05077e-08
1.34957e-08
5.27988e-09
-6.63282e-10
-7.79816e-09
2.23033e-09
6.23109e-09
1.63682e-09
8.9222e-09
1.98167e-08
-1.29734e-08
8.81497e-09
1.46198e-09
8.62172e-09
-1.88986e-08
1.32115e-08
-1.21947e-08
1.0771e-08
1.40462e-08
-7.47629e-09
-4.55781e-09
-2.0121e-09
-1.05127e-08
9.06915e-09
1.54897e-08
-1.06879e-08
-9.8291e-10
1.15813e-09
-7.21099e-09
-1.09532e-08
-1.25173e-09
1.68055e-08
-6.48461e-09
-9.53567e-09
7.57394e-10
4.757e-09
4.02129e-09
-3.58052e-09
2.12347e-09
-8.07861e-09
-1.40429e-09
-1.02039e-08
8.02766e-09
-7.79179e-09
4.4395e-09
4.1097e-09
-3.36562e-10
-5.33176e-09
-9.88228e-09
1.74147e-09
1.2105e-09
6.93033e-09
-3.31934e-09
-6.89951e-09
8.3281e-09
-2.27569e-09
-9.37175e-09
7.25335e-09
2.81622e-09
-5.92748e-09
9.13214e-09
-4.45638e-09
3.42963e-10
-1.0891e-08
-9.25938e-10
-4.75605e-09
1.07439e-09
4.60758e-09
3.31008e-10
3.48787e-09
-4.74484e-09
1.31851e-09
-6.6901e-09
5.70257e-09
-5.05935e-11
-7.90569e-09
9.27479e-09
-1.42863e-09
-3.36744e-09
4.00098e-11
-5.44025e-09
6.46405e-09
-6.92782e-09
8.01263e-10
-1.77914e-09
-1.52857e-09
-5.34031e-09
6.50832e-09
-9.4823e-09
-3.95385e-09
-6.62574e-09
6.44395e-09
-2.1871e-10
-3.51543e-10
-6.05549e-09
-6.06769e-10
-9.09424e-09
6.06845e-10
-2.04363e-10
-5.46895e-09
5.06646e-09
-4.54753e-09
4.80283e-09
-6.35047e-09
5.53934e-09
3.22759e-09
4.80819e-09
-4.40293e-09
-3.63285e-09
3.35701e-09
-1.78258e-10
4.88402e-11
-2.9359e-10
4.72143e-09
3.80352e-10
3.01154e-09
5.1885e-11
2.04616e-09
1.58695e-09
-8.03603e-09
3.30012e-09
2.7037e-09
-3.95765e-09
3.14912e-09
-2.72652e-11
-6.1055e-09
1.09779e-09
5.3119e-11
4.95462e-09
7.65486e-09
-6.81843e-09
-6.94193e-09
1.33993e-09
7.41273e-09
7.00512e-10
5.36087e-09
-1.14393e-10
3.82645e-09
2.97309e-09
-8.20457e-09
-4.62165e-09
4.16908e-09
3.60169e-09
4.89354e-10
-2.4073e-09
6.11635e-09
-2.6539e-09
1.16354e-09
5.00593e-09
5.21824e-09
-5.62935e-10
5.54126e-09
-3.7126e-10
-4.60708e-09
-2.7685e-09
2.80353e-09
-5.97967e-10
3.21504e-09
-2.26085e-10
-5.75745e-09
-8.69169e-09
3.67893e-09
8.22779e-09
-2.1261e-09
3.36958e-09
4.29778e-09
2.59829e-10
4.17601e-10
2.35906e-09
-4.99719e-09
2.41204e-09
2.64127e-09
-2.33518e-10
-4.86942e-11
2.40992e-09
4.91173e-10
8.48289e-10
3.90671e-10
3.57508e-09
-4.81404e-09
2.28886e-09
9.69357e-10
-1.07225e-09
4.8955e-09
-1.53439e-09
4.46256e-09
-1.39799e-08
6.78108e-09
5.68977e-09
1.50907e-09
-4.96107e-09
-8.65372e-09
2.03242e-08
-6.70937e-09
1.30582e-08
-9.6871e-09
-8.33213e-09
-6.75064e-09
5.82891e-09
-1.05605e-09
-5.29859e-09
1.45008e-08
-8.14616e-09
-4.87487e-09
1.05999e-08
8.19317e-09
-8.67277e-09
-9.20749e-09
6.37927e-10
8.04602e-10
-1.61057e-09
-9.65597e-09
5.96795e-09
-7.74228e-09
1.25684e-09
6.34489e-09
1.72305e-09
-1.67407e-08
9.68646e-09
5.23437e-09
-8.57594e-09
9.26644e-09
1.05796e-09
-8.75987e-09
1.27514e-09
-2.17124e-09
6.16275e-09
-1.28022e-08
8.36253e-09
9.85937e-09
-1.63082e-09
-2.99417e-09
1.13835e-08
-4.22793e-09
3.8982e-09
3.67925e-09
1.28598e-08
-2.04373e-08
7.34171e-09
-3.1667e-08
2.82235e-08
2.3429e-09
-1.45542e-08
1.58906e-08
-2.43631e-08
3.40477e-08
-7.75575e-09
-7.13943e-09
-3.98912e-09
1.88843e-08
-1.45366e-08
-1.77554e-08
2.45362e-08
-2.58645e-08
9.53769e-09
-1.53402e-08
-1.67512e-08
-2.14454e-08
1.38336e-08
-2.90245e-10
1.47701e-08
-1.92258e-08
4.74596e-09
-2.23537e-08
5.31225e-09
-1.61457e-08
6.72716e-09
2.27911e-09
1.85359e-08
-1.01233e-08
-2.45583e-08
-8.29506e-09
-8.75945e-09
-4.39092e-09
-1.20118e-08
-2.21478e-08
-1.62419e-08
1.64578e-08
-8.78984e-09
-5.05999e-09
-5.37602e-09
-1.76e-08
-1.35436e-08
2.13351e-08
-7.85927e-09
1.18204e-08
1.36485e-08
-3.19386e-08
8.16677e-09
-1.27109e-08
1.79781e-09
-3.76144e-09
8.46382e-09
-6.5002e-09
-3.24569e-09
7.61509e-09
-2.5716e-09
5.37139e-09
-9.43442e-09
1.53733e-09
2.5257e-09
-2.41227e-09
1.36699e-09
6.41667e-09
6.66143e-09
-5.50841e-10
-5.49543e-09
-6.15162e-10
-8.82896e-10
5.13205e-09
5.66551e-09
-1.47861e-09
-1.46198e-09
-2.72493e-09
8.94968e-10
3.88764e-09
-3.68777e-10
3.29364e-09
-6.68631e-09
2.94814e-09
-6.56261e-09
1.15274e-08
1.53714e-09
-5.44944e-09
-1.52144e-09
7.04063e-09
6.02408e-09
1.09225e-08
-2.51487e-09
4.11141e-09
4.54598e-09
-5.70926e-09
-2.28607e-09
7.93462e-09
8.19335e-09
-5.12598e-09
6.22985e-09
2.85846e-09
-3.66377e-09
1.26331e-09
-7.33209e-09
-8.84492e-09
1.49138e-08
-1.12376e-08
-1.11492e-08
2.36501e-08
1.01827e-08
9.07011e-10
-1.91925e-08
8.10277e-09
-1.25664e-08
1.15115e-08
5.73103e-09
-2.08415e-08
7.77838e-09
-2.1001e-08
1.55828e-08
-7.25636e-09
-2.52372e-08
2.36486e-08
-1.11601e-08
4.81079e-09
6.60155e-09
-2.00597e-08
8.9173e-10
-2.16054e-08
7.20595e-09
-1.73301e-08
5.55469e-09
-8.28427e-09
-6.74829e-09
1.31314e-08
-2.37131e-08
-1.99794e-08
-2.07613e-08
1.55036e-08
-2.26633e-08
-8.47622e-09
1.82171e-08
1.35175e-08
-3.84829e-08
1.05323e-08
-1.49785e-08
2.95454e-08
1.47264e-08
-3.07542e-08
7.89523e-10
7.99457e-09
1.9201e-09
-1.03941e-08
-3.10548e-09
2.88038e-08
-1.21573e-08
8.75187e-09
-6.22268e-09
2.18295e-08
-1.45253e-08
-1.08145e-09
-3.03125e-09
1.67712e-08
-1.99626e-08
-1.68306e-08
1.24348e-09
2.4074e-08
-8.48694e-09
-1.16807e-08
-9.13904e-09
1.26881e-08
-2.08611e-08
5.1417e-09
1.16786e-09
1.82936e-08
2.36804e-09
3.40243e-09
5.14743e-09
-1.24958e-08
6.50453e-09
8.43895e-10
-1.17765e-08
1.81674e-08
6.68843e-09
-5.681e-09
-1.88301e-08
-6.43756e-09
1.34912e-08
7.03567e-10
-1.28452e-08
1.18975e-08
7.52946e-09
-2.58645e-08
1.76952e-08
-1.00916e-08
-9.23743e-09
1.36777e-08
5.65134e-09
1.70882e-09
-4.32425e-09
-7.47617e-09
3.96513e-09
1.51616e-08
-1.21006e-08
-7.02607e-09
1.00606e-08
-4.38666e-09
-7.8137e-09
1.15575e-08
6.31679e-09
8.62485e-09
-1.27697e-09
9.51492e-09
-8.18966e-09
-1.05627e-08
3.3799e-09
1.55858e-09
6.61907e-09
-1.04373e-08
-2.2159e-08
1.29459e-08
1.96504e-08
-1.87861e-08
2.07042e-09
6.27844e-09
8.33351e-10
-1.34774e-08
-7.23958e-09
-1.07132e-08
1.14536e-08
-1.61055e-08
6.72233e-09
-4.91408e-09
8.17665e-10
1.555e-08
-1.16318e-08
1.00976e-08
-2.37622e-09
-6.30753e-10
5.31527e-09
9.92102e-09
1.90789e-08
1.50144e-08
-1.42773e-08
-7.97669e-09
-3.46727e-09
1.21038e-08
1.00958e-08
-8.4304e-09
-1.37691e-08
1.62293e-08
-6.15376e-09
2.02825e-09
-1.33235e-08
2.07567e-09
1.04796e-08
-6.07154e-09
4.40543e-09
1.38995e-08
9.27522e-09
-1.31874e-10
-1.52971e-08
1.2993e-08
1.53141e-08
-1.68958e-08
-1.14113e-08
-1.71173e-08
3.87816e-09
1.76446e-08
-1.02459e-08
2.40379e-09
1.71707e-09
1.88909e-08
-1.52057e-08
-1.61497e-08
2.1745e-08
5.57689e-09
-9.80083e-09
-1.06392e-08
-6.51812e-10
1.92217e-08
1.74116e-08
2.88902e-09
-4.98652e-09
-1.29566e-08
4.2667e-09
-7.45985e-09
-5.7909e-09
6.35955e-09
3.84605e-09
-2.41053e-09
-1.50303e-09
5.01001e-09
-5.47951e-09
1.97252e-09
6.83947e-09
-1.98295e-09
1.45965e-08
-2.74707e-09
7.8751e-09
-2.24724e-09
1.76521e-09
6.79646e-09
1.97344e-09
4.25947e-09
1.6886e-08
3.36553e-09
6.48299e-09
-1.14203e-08
1.89592e-09
9.67031e-09
-1.45883e-10
-8.71863e-09
1.19897e-08
-1.46914e-08
2.34851e-09
-1.37288e-08
-1.42195e-09
-1.19255e-08
-2.73219e-09
1.59329e-08
-1.23074e-08
1.51198e-08
-1.4738e-08
-1.20357e-08
1.58408e-08
-1.45664e-09
-1.21666e-08
1.13303e-08
-6.36532e-09
-1.81086e-08
-1.57387e-08
1.59209e-08
-4.75482e-09
4.57264e-09
-2.78046e-09
-3.2132e-10
-1.26369e-08
4.4432e-10
-6.22936e-09
1.32005e-09
4.46498e-09
-9.80215e-09
7.34026e-09
2.9062e-09
6.85609e-09
-7.37391e-10
9.26298e-09
-1.99064e-09
-1.00528e-08
-1.72119e-09
1.34145e-09
-2.58094e-09
-6.77635e-09
8.01583e-09
-8.11671e-09
1.07885e-08
-1.33032e-09
-1.68599e-08
1.05775e-08
1.31385e-08
-3.47018e-09
-1.3711e-08
-5.79093e-09
4.53004e-09
4.33077e-09
-1.27885e-08
3.41017e-10
-5.25988e-09
2.81431e-09
1.12285e-08
3.38716e-09
-4.33308e-10
-1.41824e-08
9.36061e-09
2.36083e-09
-4.92929e-10
-8.73562e-09
-2.3152e-09
-1.01716e-08
6.74372e-09
-1.02546e-08
-8.38094e-09
2.00616e-09
-1.08049e-08
4.69582e-09
-9.13334e-09
3.54473e-09
8.92801e-10
4.83044e-09
-6.46301e-09
6.32839e-09
-1.02267e-09
-5.30509e-10
6.38363e-09
-6.3511e-10
-6.32881e-09
5.94126e-09
-4.03994e-09
3.40222e-09
-2.87665e-09
3.51438e-09
-3.49952e-10
-3.66651e-09
-2.34769e-11
8.92914e-10
-4.63021e-09
3.1022e-09
3.76463e-09
6.72604e-09
-5.91588e-09
-9.94351e-09
-8.45625e-10
1.10866e-09
-6.13412e-09
3.35004e-09
-9.18766e-09
-1.50407e-09
4.55761e-09
1.69678e-09
-1.21158e-09
-9.67285e-09
8.37135e-09
-1.64658e-10
-6.50991e-09
4.47246e-09
2.39482e-09
-3.38107e-09
3.22333e-09
-3.64317e-09
-8.78507e-11
-4.59231e-09
8.70034e-10
-4.30333e-09
-3.95549e-09
6.68124e-10
-7.79558e-09
-8.30146e-10
-2.97768e-09
-4.46535e-09
1.037e-08
-6.43239e-09
2.83371e-09
-6.77137e-09
-3.21453e-09
1.3706e-09
7.18588e-09
-1.22888e-08
6.75568e-09
-2.78434e-09
-6.74284e-09
-5.93156e-10
-6.12331e-09
-8.8183e-09
-1.55646e-08
-1.23729e-08
-1.17199e-08
8.67133e-09
-6.00171e-09
1.06946e-08
-1.33642e-08
1.0222e-08
-4.13881e-11
-1.50929e-09
1.13815e-09
6.86179e-10
-7.82604e-09
8.16607e-10
6.13071e-09
-5.80916e-09
-9.88587e-10
-4.64599e-09
6.45119e-09
6.02898e-09
-6.33139e-09
-1.0604e-08
1.23281e-08
8.49794e-09
5.47974e-09
-5.38911e-09
-4.5755e-09
-2.65622e-10
4.24946e-10
4.41618e-09
-1.78391e-09
-2.76281e-09
-2.87776e-11
6.17906e-09
-7.60445e-10
7.12102e-10
5.89634e-09
5.20433e-09
-5.07168e-09
6.86882e-09
-1.01387e-09
-1.20146e-08
-3.0102e-10
-3.22924e-10
1.26385e-08
-3.5579e-10
-3.78349e-09
-5.66281e-11
3.5745e-09
-5.27338e-09
-2.94025e-10
-5.80929e-09
5.93322e-09
-2.17308e-09
-6.39902e-09
-1.40606e-09
-4.165e-09
2.97679e-10
-3.74164e-09
6.92479e-09
3.68567e-09
5.66317e-11
-3.27328e-10
1.23325e-08
6.54083e-09
-1.36382e-08
3.7635e-09
1.47805e-08
-4.90573e-09
-9.45454e-09
-1.16532e-08
7.46954e-09
1.64633e-08
-9.83083e-09
-1.07437e-08
4.11114e-09
2.75019e-09
1.26562e-08
1.05693e-09
1.44466e-08
3.59123e-09
-4.64007e-09
-1.33977e-08
-9.97826e-09
9.88849e-09
1.45364e-08
-8.17695e-10
-5.56933e-09
4.68256e-09
-8.36207e-10
-1.09889e-08
7.14249e-09
-1.50497e-09
-1.25896e-08
-9.73304e-09
3.45332e-09
9.02991e-09
2.90642e-09
-1.23169e-08
-3.22533e-10
-8.04235e-09
1.81282e-09
-3.60129e-09
-7.70022e-10
1.4422e-08
8.84277e-09
-8.31395e-09
2.3776e-09
1.15261e-08
-4.44908e-09
-1.52648e-08
8.85925e-09
3.28823e-09
-1.28356e-08
-8.78887e-09
-1.71523e-09
-9.94972e-09
-5.27348e-09
4.01681e-10
2.74674e-09
5.11304e-09
-5.64524e-09
-4.74127e-09
8.26579e-09
-7.4009e-09
-8.65317e-09
7.78829e-09
5.81972e-09
2.84775e-09
-4.15967e-09
3.32093e-09
3.58548e-09
1.25825e-09
-3.04891e-10
4.14692e-09
9.3219e-09
-7.64909e-09
6.30275e-09
6.50063e-09
-2.23677e-09
-1.05666e-08
-4.59567e-09
3.27407e-09
4.64253e-09
-3.2716e-09
-6.58156e-11
1.00882e-09
-9.5567e-09
2.90265e-09
4.14328e-09
-1.05354e-08
-2.00338e-09
-3.46383e-09
5.27557e-09
1.91647e-10
1.37866e-10
1.03118e-08
1.79219e-09
-4.93583e-09
-1.27965e-10
3.31902e-09
-6.00227e-09
6.31513e-09
-3.63188e-09
5.12262e-09
-1.14053e-11
1.53718e-10
-3.5657e-09
7.55526e-09
-2.60615e-09
-3.24239e-09
-5.26517e-09
8.67711e-09
-4.7001e-09
4.55754e-09
5.19744e-10
1.0953e-09
-2.94878e-09
-8.77893e-09
7.91191e-09
3.81583e-09
-1.07597e-08
7.45869e-09
3.52233e-10
-6.64028e-09
1.81128e-09
5.20075e-09
-3.71737e-10
-7.62609e-09
-2.78329e-09
3.76911e-09
-3.67229e-09
-6.58779e-09
7.11741e-09
3.14265e-09
-5.84668e-09
2.28122e-09
-1.06834e-10
4.6376e-09
-6.62544e-09
-3.85883e-09
-1.61723e-09
-3.32963e-10
-1.30181e-08
1.11125e-09
3.12795e-09
-2.02321e-09
4.2508e-09
-1.52457e-08
9.14595e-09
1.97176e-09
-1.31409e-08
9.10623e-09
-1.5775e-09
1.07498e-09
-7.58387e-09
-2.39812e-09
-6.90126e-12
1.03169e-08
6.87186e-09
-2.3021e-09
-4.24901e-09
1.90489e-09
6.40231e-09
-1.18978e-09
-6.95578e-09
6.82159e-09
3.39589e-09
8.71959e-09
-3.18942e-09
-1.31493e-08
2.81975e-09
1.35189e-08
-6.74139e-10
-1.1134e-08
8.6187e-09
-3.15816e-09
-1.57598e-08
3.53921e-11
1.88826e-08
-2.58837e-09
-8.33107e-09
7.76127e-09
-1.06539e-08
7.39139e-09
-9.13444e-09
-2.22862e-09
2.2907e-10
-4.61337e-09
-1.0946e-08
2.41009e-09
-1.20675e-08
-1.68033e-09
7.04881e-09
-9.51025e-09
-5.86963e-09
-6.46361e-09
-2.24739e-09
-1.51344e-08
1.79896e-08
-1.05396e-08
-2.3429e-09
1.32782e-09
-7.93219e-10
-1.14806e-08
5.61766e-10
-1.13014e-08
-1.1197e-08
-1.04011e-08
-8.04741e-10
-9.17311e-09
5.92189e-10
-1.25824e-08
-9.7228e-09
-1.60015e-08
-2.21155e-11
-2.73647e-09
1.87601e-08
2.45369e-08
-4.23602e-09
1.65182e-08
-3.68191e-08
-1.84492e-08
2.69846e-08
6.60471e-09
1.32725e-08
-3.1889e-08
-1.19273e-08
1.41411e-08
2.62184e-08
-1.12925e-08
-2.71699e-08
1.2244e-08
2.8172e-08
-9.79966e-09
7.84612e-09
2.2911e-08
-3.84395e-08
2.67836e-08
-3.89477e-09
-9.10001e-09
-1.48888e-08
-7.94979e-09
-2.4428e-08
3.18462e-08
-1.26032e-09
2.48622e-08
3.18172e-09
2.4967e-08
1.94464e-09
8.3199e-09
3.0073e-09
1.36398e-08
2.12548e-08
1.78362e-08
-2.75398e-08
-5.40881e-09
9.6079e-09
3.51734e-09
-7.71643e-09
-8.26757e-09
2.7746e-09
8.4166e-11
2.66785e-09
-4.80102e-09
-6.13441e-09
4.57088e-09
9.68364e-09
-4.64663e-09
-2.17702e-09
4.06963e-10
4.4379e-09
6.52041e-09
-1.31488e-08
1.93429e-09
4.69409e-09
-6.06239e-09
-1.07186e-08
6.69333e-09
1.00877e-08
1.63259e-09
1.60813e-08
-7.19612e-09
-1.05177e-08
-8.24801e-09
1.44515e-08
5.98518e-11
-5.47928e-09
-9.56478e-09
1.49842e-08
-4.63295e-09
9.11086e-09
-1.32028e-08
8.72492e-09
2.60842e-09
-1.17594e-08
4.51803e-09
-6.4055e-09
8.98404e-09
-1.08266e-08
2.39142e-08
-1.47435e-08
9.33744e-09
8.17128e-09
-8.93324e-09
7.98153e-09
-1.0912e-10
1.93141e-10
-8.06556e-09
-5.9671e-10
7.6753e-09
9.02939e-10
-7.79245e-09
6.54728e-09
6.48451e-10
-6.03471e-11
-7.84123e-09
5.9926e-09
8.49567e-11
-5.88442e-09
5.10043e-09
7.00123e-10
1.9205e-10
6.01934e-09
6.75638e-09
6.4571e-09
8.71274e-11
-6.60458e-09
6.95939e-09
6.04499e-09
-4.28393e-09
4.28915e-09
6.94897e-10
-7.76807e-11
-4.12129e-09
1.65002e-10
4.92938e-09
-5.00725e-09
4.76885e-09
-4.68153e-09
-1.90641e-09
4.96968e-09
1.86612e-09
2.85094e-09
1.15077e-11
2.56273e-09
4.00832e-09
-2.28191e-09
5.28726e-09
1.26416e-10
-4.45397e-10
2.72786e-10
5.45986e-09
-1.60134e-10
3.72305e-09
5.60428e-10
5.29877e-09
1.9545e-10
7.32437e-09
5.43793e-09
1.29749e-09
4.30682e-10
-9.26784e-09
7.53967e-09
4.12483e-10
-5.80131e-09
3.83507e-09
-6.65186e-09
-1.01413e-08
1.29581e-08
-2.07879e-09
-1.24143e-09
7.15528e-09
4.28954e-09
-4.84118e-09
3.77316e-09
-3.22152e-09
3.28121e-10
3.845e-09
1.16417e-10
8.93545e-10
5.28426e-09
-5.74712e-09
-3.53515e-09
4.37669e-09
5.56198e-09
-4.65441e-09
4.55323e-09
1.51586e-10
2.71316e-10
-1.61928e-10
4.04158e-09
7.47406e-11
3.86299e-09
-3.79802e-10
5.21671e-09
3.19951e-09
-7.7599e-10
4.20241e-09
4.70731e-09
-2.66592e-10
4.1291e-09
1.39438e-10
-1.05213e-08
6.25276e-09
2.6805e-09
-5.15312e-09
6.60174e-09
3.71479e-10
6.8017e-09
-4.49269e-09
5.64577e-09
-1.3933e-08
3.45738e-09
-9.98648e-09
1.21749e-08
-6.32333e-09
1.01522e-08
1.72067e-08
-5.34183e-09
-5.89025e-10
-1.12758e-08
4.3339e-09
2.88633e-09
2.23671e-10
-8.55239e-09
-2.19256e-09
-4.06622e-09
-8.63222e-10
-1.06259e-08
2.01201e-09
4.54768e-09
4.40012e-09
-5.26147e-09
-6.2738e-09
7.13516e-09
-3.32443e-09
-2.90134e-09
4.01571e-09
5.0426e-10
-9.78143e-09
7.84395e-09
-9.17006e-09
-4.85724e-09
-9.66479e-09
-7.58496e-09
1.7833e-09
-5.21666e-10
4.5929e-09
3.28916e-09
-6.10932e-09
-1.01205e-08
2.83791e-09
7.10755e-09
-3.31758e-09
-1.14922e-09
3.94035e-09
4.67864e-11
-1.27883e-09
-3.87348e-09
1.35541e-09
3.7969e-09
6.64301e-10
4.12612e-09
-6.06925e-09
-2.58992e-09
-1.29331e-09
9.76093e-12
-1.28243e-11
-3.03133e-09
2.02151e-10
-9.64601e-09
1.24752e-08
-9.81484e-09
7.44781e-09
-4.97677e-09
4.59037e-09
4.32675e-09
3.40386e-10
1.7904e-09
6.14793e-09
-4.97551e-09
-1.26171e-09
6.34682e-09
-1.09584e-10
-4.54035e-09
4.074e-09
-6.12976e-09
-7.92908e-09
4.41283e-09
-6.12014e-09
-9.82445e-09
3.02097e-09
3.38396e-09
1.31544e-08
-7.91392e-09
-8.62439e-09
1.04897e-08
-1.3785e-09
-5.72722e-09
1.37543e-08
1.17347e-08
-1.49993e-08
-2.89295e-09
7.05088e-09
9.59639e-09
3.95422e-09
4.88754e-09
1.2796e-08
-1.0542e-08
-5.35947e-09
8.78671e-09
5.25939e-09
-1.66613e-08
5.43891e-09
-9.04642e-09
2.02689e-08
-1.47515e-08
6.19291e-09
5.22816e-09
1.06094e-08
2.21786e-08
6.37198e-09
-8.32748e-09
1.27979e-09
-2.25452e-08
8.43759e-09
-1.59031e-09
-3.8906e-10
-1.13531e-08
-1.0803e-08
2.29764e-08
-1.13248e-08
-1.20407e-08
6.85906e-09
3.0555e-08
3.1846e-09
-2.13892e-08
-1.23505e-08
-2.03798e-08
5.60504e-09
1.31845e-08
-1.77748e-08
-1.39582e-08
-1.53696e-08
-4.86439e-09
-1.35336e-08
-3.92262e-08
1.97254e-08
1.38428e-08
5.65802e-09
-7.12762e-09
-1.36511e-08
-1.06154e-08
9.09281e-09
-7.75247e-09
3.22478e-09
-9.12344e-09
-1.17308e-09
-1.71948e-08
3.08867e-09
2.73667e-09
-7.5448e-09
1.71948e-09
5.4505e-09
-1.22188e-09
-1.13994e-09
-3.60591e-09
4.37637e-09
6.05807e-09
-6.82852e-09
4.24734e-10
-5.41902e-09
1.38839e-09
6.33115e-09
-8.62159e-09
5.02712e-09
6.63092e-09
-5.49947e-09
4.31905e-09
2.2057e-09
8.80159e-09
-8.7143e-10
3.60913e-09
3.59344e-09
2.90351e-09
1.54257e-09
-5.3175e-09
9.2722e-09
-4.16298e-09
-2.9368e-10
-2.31719e-09
-9.43179e-09
-2.18135e-09
1.04123e-08
-8.52464e-09
-2.18683e-09
8.46077e-09
-8.59114e-09
-2.35186e-10
6.01934e-09
-7.97099e-09
1.5494e-09
4.9047e-09
-6.68929e-09
5.83763e-09
-6.46958e-09
5.41135e-10
1.92683e-09
-9.22273e-10
2.1221e-10
5.67416e-09
-5.77107e-10
1.56164e-09
-1.32264e-09
-3.39015e-09
2.08285e-10
1.53988e-09
-2.53388e-11
3.07992e-09
5.60934e-09
-2.85164e-09
4.60456e-09
1.52389e-11
4.941e-09
1.20948e-09
4.32827e-10
7.71888e-09
-3.04933e-09
-5.10238e-09
7.27095e-09
-2.53166e-09
-4.30647e-09
-1.60708e-10
-7.50019e-09
5.68164e-09
1.97925e-09
-5.19174e-09
4.02284e-09
1.00819e-09
4.27644e-09
2.21028e-09
1.23216e-09
6.35565e-09
-2.04437e-09
5.55047e-09
-6.55543e-09
7.16656e-09
4.07859e-09
-1.32895e-08
6.25296e-09
1.13257e-08
-1.04121e-08
8.35096e-09
-6.80404e-09
8.73358e-10
-2.25847e-11
-1.93273e-11
-4.36911e-09
8.41127e-09
-6.02504e-09
1.16873e-08
1.77665e-09
9.2975e-09
-5.52369e-09
1.35796e-08
-5.54999e-09
-5.05537e-09
2.89653e-09
-1.46783e-09
5.70996e-09
5.99997e-09
6.1118e-09
1.10119e-08
1.18711e-09
1.09869e-08
-6.19398e-09
1.36217e-08
-6.29356e-09
-6.0502e-09
-1.32298e-09
1.1792e-09
-5.82222e-09
-9.46457e-09
8.0626e-09
7.2242e-09
-1.41114e-11
-5.53436e-09
-2.73751e-10
-1.36208e-09
7.26815e-09
-1.19563e-08
1.80433e-08
-6.53705e-09
-9.15677e-09
-2.34945e-09
8.05861e-09
-6.64734e-09
-4.96067e-10
-4.39837e-10
9.45398e-09
-1.43146e-08
-1.67641e-09
-6.89787e-09
-6.73035e-10
-7.09324e-09
8.6692e-09
-7.5608e-09
7.53622e-09
8.19706e-09
1.13817e-08
-1.14658e-08
-8.11293e-09
1.12722e-08
-3.3553e-09
2.80136e-10
6.02739e-09
2.396e-09
2.95827e-09
9.45839e-09
-1.01995e-08
5.03473e-09
1.36078e-08
-1.62778e-08
1.20935e-08
-7.69381e-09
-3.6961e-09
1.84914e-08
-3.58062e-09
9.44228e-09
2.22417e-09
-8.08581e-09
-8.06973e-11
-1.49657e-08
6.81156e-09
-7.24566e-10
2.70927e-09
-1.15774e-08
8.78748e-09
1.16772e-08
-4.32437e-09
3.07036e-09
1.70791e-08
-1.03037e-08
5.25448e-09
-1.20299e-08
4.98511e-09
1.06611e-08
1.43294e-09
-5.64521e-09
1.32299e-08
-1.86656e-08
1.10809e-08
1.2732e-08
7.15733e-09
-2.55346e-08
1.46328e-08
-6.78391e-09
-1.81525e-08
1.46557e-08
4.96212e-09
1.13047e-08
-9.63924e-10
-5.08634e-09
1.42771e-08
7.68874e-09
-7.58856e-09
-1.05363e-08
-2.47493e-10
1.83724e-08
-2.67169e-09
8.31303e-09
6.4794e-09
5.126e-09
-1.8155e-08
7.30887e-09
1.73256e-08
-1.06454e-08
1.28411e-08
-8.08588e-09
-1.15437e-08
-9.34153e-09
2.87898e-09
1.69418e-08
-1.04792e-08
1.00958e-09
-1.7135e-08
-3.94402e-09
4.44717e-10
-9.90281e-09
1.69642e-08
9.95055e-09
-1.85252e-08
9.58419e-09
2.39887e-08
-1.11592e-08
1.53067e-08
-2.30899e-09
3.46464e-09
9.87868e-09
8.86857e-09
1.59637e-09
1.17266e-09
1.39873e-08
-1.67563e-08
3.00506e-09
1.69305e-08
-1.83392e-08
3.24252e-09
1.85823e-08
-2.06521e-08
1.90106e-08
9.99023e-10
-1.67671e-08
-1.45729e-08
3.03168e-08
-1.33585e-08
-2.38546e-09
1.93987e-08
-1.49611e-08
1.97437e-08
-1.57396e-08
-7.69312e-09
2.86266e-08
2.65588e-08
-1.73214e-08
2.02621e-08
1.67054e-08
-1.04087e-08
-3.85139e-09
1.19826e-08
1.21309e-08
-1.65417e-08
-7.19979e-10
3.36163e-09
1.39e-08
-1.72677e-08
1.93082e-08
1.43668e-08
4.3119e-09
1.68073e-08
2.78763e-08
1.58488e-08
-9.4636e-09
1.14855e-08
3.23554e-08
1.98785e-10
1.27796e-08
3.15583e-08
-7.23208e-09
-4.94313e-09
-3.32124e-09
3.95791e-09
7.15558e-12
-4.78528e-09
-1.65009e-10
-4.76016e-09
-4.6598e-09
4.31758e-09
-4.56785e-09
-1.85162e-10
-5.0668e-09
4.90307e-10
1.25524e-09
-5.64046e-09
-4.21162e-09
-9.22446e-09
5.659e-10
3.99875e-09
-2.03138e-09
-7.05694e-10
-6.48739e-09
-2.36542e-09
-4.23382e-09
1.16011e-08
-3.27686e-09
5.61155e-09
-3.40402e-10
-7.66548e-09
2.16749e-09
6.14649e-09
-8.65437e-09
1.15468e-08
-8.46483e-09
2.1511e-09
-2.30361e-09
-1.47393e-11
-4.04627e-09
-1.60608e-09
-3.28718e-09
3.1014e-11
-4.78067e-09
3.36031e-09
-1.85705e-10
4.62418e-09
-4.44463e-09
-2.13906e-10
3.43586e-11
4.53893e-10
4.25e-09
-7.97146e-11
-3.77928e-09
4.28964e-09
-5.64697e-11
4.65744e-09
-4.86074e-09
3.59345e-12
1.99695e-10
-1.13494e-09
4.2536e-09
-2.9849e-09
-1.33775e-10
3.71289e-09
-1.90394e-10
-1.13929e-10
3.85441e-09
-2.76033e-11
-5.2424e-09
2.17427e-12
3.50126e-11
-1.12787e-09
-4.28468e-09
1.70144e-10
-5.12969e-09
3.22132e-11
-2.98904e-09
4.60008e-09
-1.54166e-09
-6.93965e-11
1.61274e-09
-4.47303e-09
-1.28755e-10
-2.67769e-09
4.26798e-09
2.24418e-11
-4.35763e-09
1.76939e-09
-8.94497e-11
8.21092e-10
4.27721e-09
-4.8889e-09
-2.0942e-10
-3.43596e-09
4.4079e-09
-1.50854e-10
1.79481e-09
-4.96862e-09
-2.62156e-10
3.33735e-09
-2.18076e-10
-3.13224e-09
1.29778e-11
4.6878e-11
3.31568e-09
-2.52058e-11
2.62174e-09
-2.55031e-09
-2.45498e-11
4.12633e-09
-1.56187e-09
5.72787e-11
2.37893e-09
-6.5655e-09
4.38512e-09
-1.98547e-10
-2.49427e-09
4.88939e-09
-1.61899e-11
3.59647e-09
-5.85883e-09
-2.3191e-10
-1.65545e-09
5.23636e-09
1.55648e-11
-2.9972e-10
-4.24397e-09
4.50533e-09
3.83578e-11
-5.26403e-09
4.956e-09
8.31105e-12
-4.11738e-09
-1.321e-09
1.74344e-10
-1.64426e-09
4.99905e-09
-3.30886e-09
-4.59242e-11
-5.02631e-09
-2.49823e-10
3.8547e-09
2.28043e-09
-5.98267e-09
-1.52481e-10
-2.37936e-09
6.12222e-09
1.11838e-10
4.04718e-09
-6.33994e-09
-8.66136e-11
2.85023e-10
3.23578e-09
-3.49921e-09
-2.15815e-11
-3.25114e-09
3.49138e-09
4.47912e-11
-3.61997e-09
3.54629e-10
1.42141e-11
-2.31077e-10
4.15986e-09
-3.03486e-09
-8.93938e-10
3.87984e-09
-3.27567e-09
-8.35253e-10
6.4972e-10
3.95942e-09
-4.53382e-09
-7.53182e-11
-4.7242e-09
4.00591e-11
-3.48223e-10
4.33102e-09
-2.33657e-11
-3.63736e-10
5.0965e-09
-4.6811e-09
-5.16642e-11
-5.29142e-09
5.03557e-09
-1.07899e-10
-3.39182e-09
5.12517e-09
-1.89074e-09
1.57401e-10
1.69301e-09
-5.01858e-09
-6.62473e-11
5.05775e-09
-3.45691e-09
9.21671e-11
2.57961e-09
-4.51474e-09
2.02147e-09
-8.63371e-11
-1.94257e-09
4.37798e-09
1.44209e-10
2.5947e-09
-4.56432e-09
2.70487e-11
-2.37636e-09
4.85303e-09
1.18031e-10
3.04964e-10
-4.23893e-09
-2.15205e-11
4.31468e-09
-4.00772e-09
-1.9945e-12
-3.08623e-10
-3.87982e-09
4.16606e-09
2.23791e-11
3.87922e-09
-4.19335e-09
5.5143e-12
5.09377e-10
-4.38137e-09
-7.8283e-12
1.88496e-09
3.01161e-09
-4.74571e-09
-1.50857e-10
-2.87171e-09
4.72702e-09
2.96432e-11
1.8537e-09
-4.73186e-09
6.45582e-12
1.65344e-09
2.67977e-09
-4.28164e-09
-5.15813e-11
4.82285e-09
-3.23641e-09
6.69933e-11
-2.17233e-09
4.7552e-09
9.68991e-11
1.34359e-09
3.71559e-09
-5.05e-09
-9.1752e-12
4.96003e-09
6.92324e-11
-1.64381e-09
5.25873e-09
1.00683e-10
3.50396e-10
2.96394e-09
-1.14826e-10
-2.0088e-09
2.40898e-09
-4.97852e-11
-3.33266e-09
1.45885e-09
-1.34994e-10
-1.38801e-09
5.14431e-09
-3.76921e-09
1.29066e-11
-5.83341e-09
4.62213e-09
-1.76719e-10
4.23359e-09
-5.1446e-09
2.60007e-10
6.51008e-10
4.10211e-09
-4.14307e-09
4.70057e-11
-6.04724e-12
4.22352e-10
3.67722e-09
2.54132e-12
4.13907e-09
-3.77725e-09
6.05331e-11
2.95468e-10
3.85904e-09
-1.54533e-11
1.16711e-09
3.36142e-09
-4.37099e-09
-1.5753e-10
-8.55593e-11
4.94516e-09
-1.56937e-09
-1.43592e-11
1.06334e-09
2.79383e-09
-3.4568e-09
-4.00361e-10
4.25416e-09
-2.70288e-09
-4.8794e-10
5.19318e-09
-2.55261e-09
1.53266e-10
-1.90083e-09
-3.15244e-09
4.9649e-09
8.8391e-11
3.26005e-09
-5.18152e-09
2.06554e-11
-1.57401e-09
4.62666e-09
2.0741e-10
3.29321e-09
-4.91375e-09
4.65442e-11
4.32906e-09
-6.44386e-09
2.19853e-09
-8.3742e-11
-1.34696e-09
5.66743e-09
8.58155e-12
3.87546e-09
-5.0838e-09
-1.38621e-10
5.79001e-09
-1.96235e-09
4.78037e-11
-1.43343e-09
-3.51681e-09
4.98177e-09
-3.15303e-11
3.88162e-09
-5.05322e-09
-2.61834e-10
1.65596e-09
2.93183e-09
-4.45277e-09
-1.35037e-10
4.67843e-09
-3.03561e-09
1.31392e-11
6.09264e-11
-5.0691e-09
4.98566e-09
2.25254e-11
-4.74461e-09
4.79427e-09
1.12687e-11
-1.62253e-09
4.82576e-09
-3.43287e-09
2.29648e-10
-5.13837e-09
9.90326e-11
-1.55878e-10
-3.33108e-09
3.48944e-09
-2.48906e-12
-3.58312e-09
3.46834e-09
-4.11122e-11
4.31682e-10
-3.80149e-09
3.87237e-11
-1.39678e-10
-4.07994e-09
4.21963e-09
-1.85889e-15
4.06778e-09
-4.20582e-09
-1.63441e-12
3.29362e-09