/*--------------------------------*- C++ -*----------------------------------*\
| =========                 |                                                 |
| \\      /  F ield         | OpenFOAM: The Open Source CFD Toolbox           |
|  \\    /   O peration     | Version:  v1612+                                |
|   \\  /    A nd           | Web:      www.OpenFOAM.com                      |
|    \\/     M anipulation  |                                                 |
\*---------------------------------------------------------------------------*/
FoamFile
{
    version     2.0;
    format      ascii;
    class       volVectorField;
    location    "239";
    object      U;
}
// * * * * * * * * * * * * * * * * * * * * * * * * * * * * * * * * * * * * * //

dimensions      [0 1 -1 0 0 0 0];

internalField   nonuniform List<vector> 
16797
(
(-0.23735 0.288935 -0.529351)
(-0.243505 0.287506 -0.536137)
(-0.227108 0.264582 -0.4976)
(-0.258119 0.300485 -0.565637)
(-0.263413 0.31309 -0.580833)
(-0.255213 0.301356 -0.563815)
(-0.2262 0.271301 -0.502237)
(-0.235671 0.279394 -0.518107)
(-0.249717 0.298351 -0.554244)
(-0.289741 0.355015 -0.647852)
(-0.306322 0.367242 -0.685789)
(-0.24441 0.29011 -0.544743)
(-0.303169 0.363058 -0.679872)
(-0.296919 0.363826 -0.676075)
(-0.263675 0.313495 -0.590022)
(-0.260257 0.304529 -0.566808)
(-0.256228 0.308879 -0.574384)
(-0.295249 0.353057 -0.666575)
(-0.311696 0.370415 -0.687209)
(-0.288856 0.348808 -0.653017)
(-0.409513 0.48518 -0.908262)
(-0.413362 0.494479 -0.922016)
(-0.404851 0.484553 -0.900724)
(-0.420363 0.495567 -0.932102)
(-0.42563 0.502435 -0.950566)
(-0.393114 0.468625 -0.876638)
(-0.391667 0.46769 -0.885109)
(-0.360652 0.438149 -0.808752)
(-0.368031 0.446821 -0.828434)
(-0.381337 0.450477 -0.847235)
(-0.384568 0.459983 -0.859925)
(-0.396008 0.471132 -0.889367)
(-0.385047 0.456781 -0.850757)
(-0.365866 0.43719 -0.820412)
(-0.357491 0.429752 -0.799787)
(-0.379038 0.452908 -0.84252)
(-0.23482 0.292118 -0.553344)
(-0.220738 0.276998 -0.520057)
(-0.278958 0.342923 -0.636018)
(-0.262698 0.324165 -0.605231)
(-0.213547 0.269011 -0.500266)
(-0.200031 0.248822 -0.464491)
(-0.272235 0.329935 -0.620929)
(-0.3098 0.374258 -0.690732)
(-0.230388 0.277475 -0.525919)
(-0.225221 0.273391 -0.509593)
(-0.231877 0.289165 -0.533653)
(-0.201178 0.247968 -0.459253)
(-0.241399 0.301482 -0.559809)
(-0.300263 0.372057 -0.68445)
(-0.245204 0.302803 -0.56954)
(-0.204557 0.244636 -0.464647)
(-0.240613 0.284703 -0.535426)
(-0.220153 0.261101 -0.492731)
(-0.229417 0.275455 -0.514293)
(-0.260011 0.314131 -0.588091)
(-0.309197 0.366898 -0.686055)
(-0.313169 0.367501 -0.697499)
(-0.239687 0.287514 -0.528122)
(-0.211204 0.248137 -0.470343)
(-0.254614 0.310198 -0.573388)
(-0.203663 0.240911 -0.449858)
(-0.313893 0.36514 -0.691672)
(-0.306779 0.370375 -0.692953)
(-0.220676 0.259961 -0.486624)
(-0.286849 0.34225 -0.651641)
(-0.289018 0.34466 -0.648017)
(-0.229895 0.276139 -0.513324)
(-0.255143 0.300288 -0.567272)
(-0.34465 0.404583 -0.756611)
(-0.350313 0.410151 -0.772197)
(-0.34977 0.413026 -0.778693)
(-0.367767 0.437912 -0.818207)
(-0.338115 0.40524 -0.754507)
(-0.324481 0.397704 -0.723556)
(-0.357298 0.431904 -0.801311)
(-0.328561 0.402039 -0.741666)
(-0.339082 0.409528 -0.757188)
(-0.328165 0.395152 -0.73501)
(-0.352484 0.42375 -0.790511)
(-0.329134 0.396451 -0.737461)
(-0.35824 0.425877 -0.811397)
(-0.330082 0.388511 -0.734704)
(-0.306586 0.369771 -0.689563)
(-0.273561 0.337718 -0.619144)
(-0.310747 0.389665 -0.717422)
(-0.290736 0.365521 -0.666364)
(-0.360487 0.443803 -0.802662)
(-0.337092 0.412646 -0.763207)
(-0.316615 0.388649 -0.721135)
(-0.299586 0.371612 -0.682257)
(-0.309111 0.374929 -0.687149)
(-0.342143 0.408974 -0.763701)
(-0.285695 0.356775 -0.650431)
(-0.312371 0.38654 -0.704151)
(-0.278752 0.347514 -0.624938)
(-0.327306 0.40612 -0.746741)
(-0.353365 0.437706 -0.802933)
(-0.347169 0.422914 -0.781137)
(-0.326857 0.395678 -0.725524)
(-0.36969 0.455517 -0.837879)
(-0.344865 0.427773 -0.781574)
(-0.400973 0.489619 -0.912041)
(-0.411985 0.512024 -0.948666)
(-0.403806 0.497465 -0.923754)
(-0.370573 0.456187 -0.849892)
(-0.378732 0.459571 -0.856359)
(-0.403086 0.486147 -0.913479)
(-0.391828 0.476821 -0.890891)
(-0.416801 0.508034 -0.947696)
(-0.375684 0.452818 -0.857573)
(-0.374608 0.460401 -0.849281)
(-0.398094 0.483922 -0.899468)
(-0.400576 0.486337 -0.903806)
(-0.401139 0.489082 -0.910079)
(-0.381147 0.473867 -0.874814)
(-0.379205 0.464556 -0.857955)
(-0.373601 0.461909 -0.848758)
(-0.375699 0.464476 -0.870253)
(-0.396401 0.476106 -0.882507)
(-0.388482 0.463905 -0.859563)
(-0.422303 0.509907 -0.953904)
(-0.434605 0.527775 -0.974248)
(-0.422578 0.504274 -0.949925)
(-0.406561 0.479657 -0.900525)
(-0.420957 0.500963 -0.940085)
(-0.375242 0.451677 -0.842799)
(-0.3793 0.455828 -0.848527)
(-0.433058 0.516025 -0.962399)
(-0.404976 0.483321 -0.904183)
(-0.426913 0.50992 -0.950935)
(-0.432543 0.526256 -0.979552)
(-0.401654 0.475703 -0.890944)
(-0.414304 0.487565 -0.923362)
(-0.407171 0.485699 -0.90332)
(-0.403868 0.473919 -0.895264)
(-0.388811 0.468176 -0.873171)
(-0.377985 0.452468 -0.836432)
(-0.357529 0.433796 -0.790534)
(-0.396059 0.478671 -0.873647)
(-0.391562 0.463878 -0.865508)
(-0.392217 0.471308 -0.868703)
(-0.396324 0.478239 -0.88469)
(-0.366711 0.427385 -0.796611)
(-0.34336 0.418673 -0.767028)
(-0.402592 0.491885 -0.904539)
(-0.396644 0.468303 -0.884669)
(-0.373814 0.442793 -0.821648)
(-0.414193 0.498998 -0.916098)
(-0.360595 0.434781 -0.808874)
(-0.354484 0.415469 -0.786806)
(-0.339184 0.392819 -0.736256)
(-0.352046 0.413323 -0.772696)
(-0.332037 0.392146 -0.738957)
(-0.273026 0.318625 -0.607172)
(-0.271088 0.316561 -0.60647)
(-0.313048 0.369283 -0.695841)
(-0.251014 0.290831 -0.544525)
(-0.234481 0.284479 -0.537474)
(-0.267569 0.32056 -0.595881)
(-0.267318 0.31239 -0.589135)
(-0.32023 0.379845 -0.712204)
(-0.308635 0.359707 -0.686888)
(-0.302497 0.348208 -0.655629)
(-0.323899 0.380583 -0.711548)
(-0.339634 0.397561 -0.726045)
(-0.235881 0.282006 -0.52454)
(-0.254701 0.297622 -0.563046)
(-0.29209 0.353902 -0.671574)
(-0.291928 0.366436 -0.677973)
(-0.220977 0.265266 -0.488261)
(-0.245804 0.292547 -0.557293)
(-0.29799 0.369452 -0.691417)
(-0.247624 0.29133 -0.547651)
(-0.317689 0.386566 -0.727295)
(-0.313044 0.370808 -0.700742)
(-0.304038 0.356467 -0.664497)
(-0.295361 0.353399 -0.666955)
(-0.238435 0.284356 -0.53523)
(-0.259837 0.31028 -0.58037)
(-0.256801 0.308477 -0.586793)
(-0.24414 0.286792 -0.542091)
(-0.234887 0.272451 -0.51866)
(-0.234679 0.284395 -0.516769)
(-0.219105 0.263542 -0.486975)
(-0.255428 0.303693 -0.562249)
(-0.235835 0.280792 -0.518269)
(-0.222029 0.249935 -0.47991)
(-0.305451 0.356002 -0.659149)
(-0.297764 0.364122 -0.680918)
(-0.309075 0.365403 -0.673824)
(-0.249294 0.298207 -0.552977)
(-0.234677 0.284782 -0.529654)
(-0.290428 0.342874 -0.643171)
(-0.235018 0.276049 -0.519759)
(-0.248054 0.300042 -0.55042)
(-0.290728 0.348246 -0.644344)
(-0.288132 0.347575 -0.637705)
(-0.25298 0.301106 -0.555464)
(-0.259248 0.312333 -0.56962)
(-0.22509 0.274199 -0.504975)
(-0.229693 0.291945 -0.523741)
(-0.263006 0.325498 -0.60291)
(-0.244986 0.287711 -0.539649)
(-0.201307 0.251811 -0.471924)
(-0.234876 0.287671 -0.528606)
(-0.223836 0.278077 -0.504651)
(-0.207415 0.261048 -0.482091)
(-0.237747 0.294099 -0.520003)
(-0.216604 0.266307 -0.477116)
(-0.2518 0.302855 -0.562997)
(-0.262209 0.316375 -0.585643)
(-0.324836 0.401253 -0.723081)
(-0.379068 0.451677 -0.840726)
(-0.319275 0.3829 -0.70747)
(-0.320794 0.389155 -0.718392)
(-0.366242 0.441571 -0.821863)
(-0.32716 0.395113 -0.731533)
(-0.324082 0.392966 -0.731013)
(-0.318634 0.389378 -0.720282)
(-0.365478 0.44024 -0.816989)
(-0.313974 0.382622 -0.70756)
(-0.33318 0.393232 -0.736735)
(-0.301599 0.374759 -0.688529)
(-0.2953 0.353303 -0.662594)
(-0.382843 0.462218 -0.854358)
(-0.374314 0.449667 -0.830865)
(-0.326313 0.394718 -0.736085)
(-0.315362 0.380547 -0.712183)
(-0.366514 0.440689 -0.817856)
(-0.436156 0.522142 -0.980543)
(-0.438018 0.522994 -0.978304)
(-0.425798 0.511495 -0.956721)
(-0.44049 0.528479 -0.985565)
(-0.431782 0.515041 -0.966674)
(-0.437428 0.524567 -0.978959)
(-0.444305 0.530513 -0.989957)
(-0.436472 0.522601 -0.976872)
(-0.416373 0.494951 -0.923457)
(-0.430727 0.514038 -0.960093)
(-0.442293 0.524524 -0.976813)
(-0.426718 0.51716 -0.96238)
(-0.439181 0.522096 -0.97959)
(-0.44206 0.528157 -0.986063)
(-0.412282 0.494905 -0.927067)
(-0.40468 0.485781 -0.91498)
(-0.429754 0.515413 -0.96241)
(-0.401747 0.477851 -0.898765)
(-0.416093 0.503279 -0.942822)
(-0.43514 0.518359 -0.972219)
(-0.431315 0.509862 -0.966275)
(-0.315929 0.386841 -0.717092)
(-0.320926 0.391749 -0.725446)
(-0.324453 0.39534 -0.730739)
(-0.306631 0.371487 -0.684447)
(-0.261422 0.314725 -0.588697)
(-0.254859 0.313799 -0.583155)
(-0.231293 0.283397 -0.534733)
(-0.230897 0.294163 -0.535035)
(-0.303971 0.374978 -0.686561)
(-0.311964 0.380349 -0.695611)
(-0.334282 0.411493 -0.758445)
(-0.317043 0.38707 -0.711563)
(-0.334047 0.413018 -0.761731)
(-0.314317 0.390135 -0.716341)
(-0.291415 0.353968 -0.653447)
(-0.319697 0.387105 -0.71937)
(-0.266696 0.319411 -0.602175)
(-0.253101 0.313279 -0.583349)
(-0.257044 0.307262 -0.57678)
(-0.426544 0.517082 -0.957507)
(-0.418179 0.513719 -0.949265)
(-0.41158 0.499486 -0.916395)
(-0.40666 0.496159 -0.915876)
(-0.434435 0.528337 -0.976081)
(-0.417674 0.512761 -0.944794)
(-0.417212 0.510899 -0.942759)
(-0.416121 0.502046 -0.939289)
(-0.393361 0.483944 -0.893424)
(-0.407267 0.496858 -0.920922)
(-0.404574 0.490696 -0.909648)
(-0.413251 0.50409 -0.932867)
(-0.428342 0.524442 -0.966156)
(-0.412537 0.50453 -0.930828)
(-0.420715 0.511946 -0.951515)
(-0.426991 0.524354 -0.966274)
(-0.430011 0.523422 -0.968013)
(-0.430188 0.524842 -0.972781)
(-0.418598 0.509773 -0.942392)
(-0.402444 0.490596 -0.904636)
(-0.436255 0.528256 -0.9771)
(-0.431441 0.524754 -0.971866)
(-0.417904 0.501909 -0.934939)
(-0.433741 0.519427 -0.972695)
(-0.416072 0.494237 -0.934417)
(-0.413286 0.494538 -0.933911)
(-0.414343 0.494342 -0.928384)
(-0.437075 0.522085 -0.972867)
(-0.430946 0.517151 -0.969478)
(-0.416296 0.497364 -0.932881)
(-0.419457 0.500372 -0.937605)
(-0.414729 0.497933 -0.936608)
(-0.415696 0.488897 -0.913442)
(-0.398014 0.476776 -0.883851)
(-0.387799 0.460773 -0.879215)
(-0.415674 0.49667 -0.932002)
(-0.38045 0.459103 -0.845081)
(-0.359809 0.438855 -0.814691)
(-0.325085 0.393577 -0.740426)
(-0.345428 0.41935 -0.773849)
(-0.329709 0.402282 -0.749901)
(-0.308979 0.369814 -0.707629)
(-0.386842 0.466246 -0.869485)
(-0.340023 0.41362 -0.775284)
(-0.395641 0.477269 -0.889536)
(-0.367498 0.443864 -0.831432)
(-0.411859 0.492623 -0.9196)
(-0.382683 0.460668 -0.865359)
(-0.349354 0.42448 -0.785981)
(-0.333728 0.406095 -0.753589)
(-0.310055 0.375787 -0.71362)
(-0.307894 0.367099 -0.695357)
(-0.364608 0.439052 -0.823486)
(-0.378401 0.455002 -0.853204)
(-0.344788 0.418826 -0.777099)
(-0.33504 0.405689 -0.754009)
(-0.370479 0.447429 -0.837113)
(-0.371563 0.445267 -0.826449)
(-0.368015 0.443871 -0.834723)
(-0.35959 0.434508 -0.814819)
(-0.377264 0.44652 -0.835775)
(-0.366388 0.435017 -0.805349)
(-0.412079 0.503059 -0.937733)
(-0.399581 0.47162 -0.883683)
(-0.386476 0.460297 -0.864023)
(-0.405248 0.489939 -0.90913)
(-0.409296 0.494438 -0.924789)
(-0.385213 0.460937 -0.866407)
(-0.398435 0.484902 -0.908328)
(-0.40707 0.4948 -0.922073)
(-0.406976 0.491688 -0.923832)
(-0.404604 0.488625 -0.917939)
(-0.314416 0.39065 -0.703272)
(-0.350824 0.422834 -0.794337)
(-0.314333 0.389225 -0.702855)
(-0.320899 0.38758 -0.726863)
(-0.303972 0.378093 -0.67902)
(-0.374564 0.457404 -0.860251)
(-0.359393 0.449135 -0.824788)
(-0.33208 0.403937 -0.737536)
(-0.403642 0.487008 -0.895545)
(-0.402956 0.485444 -0.904761)
(-0.384784 0.46617 -0.864018)
(-0.402821 0.482407 -0.899822)
(-0.396894 0.475817 -0.880666)
(-0.38696 0.462949 -0.860068)
(-0.420671 0.511298 -0.95874)
(-0.417565 0.494774 -0.929904)
(-0.338646 0.4028 -0.745596)
(-0.338559 0.402045 -0.754905)
(-0.294342 0.355089 -0.659409)
(-0.330598 0.397526 -0.741602)
(-0.320539 0.369769 -0.705483)
(-0.307226 0.372959 -0.693603)
(-0.274109 0.34204 -0.631883)
(-0.32007 0.38756 -0.725937)
(-0.342491 0.418771 -0.778633)
(-0.354118 0.428763 -0.804332)
(-0.375683 0.450186 -0.853896)
(-0.293895 0.345192 -0.654779)
(-0.360043 0.416507 -0.789264)
(-0.312869 0.375919 -0.705973)
(-0.330559 0.395134 -0.736734)
(-0.304149 0.367935 -0.69009)
(-0.289502 0.347316 -0.652747)
(-0.346435 0.404476 -0.767323)
(-0.383405 0.455179 -0.848274)
(-0.302786 0.37029 -0.693119)
(-0.294055 0.35331 -0.662508)
(-0.320108 0.393069 -0.725149)
(-0.309591 0.386858 -0.700119)
(-0.292751 0.358603 -0.661562)
(-0.288655 0.347679 -0.648563)
(-0.228836 0.273819 -0.510232)
(-0.210096 0.258939 -0.472362)
(-0.235547 0.295139 -0.540385)
(-0.241671 0.289315 -0.540196)
(-0.314721 0.388995 -0.709313)
(-0.296549 0.364006 -0.662301)
(-0.309953 0.379419 -0.704759)
(-0.290129 0.349503 -0.653783)
(-0.30093 0.373643 -0.692174)
(-0.242061 0.296148 -0.548831)
(-0.257624 0.317519 -0.570562)
(-0.229641 0.284201 -0.520083)
(-0.204863 0.239329 -0.464001)
(-0.241238 0.304916 -0.550428)
(-0.233451 0.291256 -0.528674)
(-0.281263 0.355992 -0.649387)
(-0.226085 0.268574 -0.516253)
(-0.253373 0.303718 -0.562735)
(-0.296684 0.364125 -0.680766)
(-0.311224 0.377615 -0.711908)
(-0.325516 0.392335 -0.728947)
(-0.326477 0.399177 -0.751728)
(-0.325624 0.408099 -0.751394)
(-0.314309 0.378204 -0.71632)
(-0.378331 0.460763 -0.865959)
(-0.299914 0.373118 -0.71051)
(-0.318992 0.387033 -0.706757)
(-0.299068 0.357193 -0.660583)
(-0.305922 0.365986 -0.667401)
(-0.311405 0.364893 -0.681523)
(-0.262104 0.32286 -0.588294)
(-0.265543 0.319952 -0.596154)
(-0.324244 0.396284 -0.722107)
(-0.3508 0.428879 -0.791405)
(-0.234623 0.27782 -0.52276)
(-0.242525 0.283109 -0.531229)
(-0.291992 0.348637 -0.647384)
(-0.249536 0.299648 -0.554405)
(-0.259468 0.31192 -0.579378)
(-0.311283 0.378045 -0.703398)
(-0.337895 0.401097 -0.740867)
(-0.234484 0.279719 -0.525197)
(-0.227276 0.276488 -0.508553)
(-0.257114 0.305957 -0.568593)
(-0.251941 0.303552 -0.565892)
(-0.237617 0.285891 -0.534848)
(-0.252032 0.302221 -0.547182)
(-0.229628 0.283625 -0.512058)
(-0.319746 0.392056 -0.715267)
(-0.259332 0.315418 -0.578548)
(-0.383037 0.463945 -0.854339)
(-0.382492 0.45684 -0.848697)
(-0.315757 0.378187 -0.715123)
(-0.327202 0.391779 -0.731187)
(-0.375226 0.446479 -0.842969)
(-0.348737 0.423821 -0.785337)
(-0.330206 0.397956 -0.737441)
(-0.292969 0.345529 -0.662004)
(-0.355125 0.419823 -0.780188)
(-0.296334 0.363063 -0.670398)
(-0.304068 0.361151 -0.670782)
(-0.336023 0.393497 -0.755145)
(-0.346679 0.41969 -0.777584)
(-0.303407 0.364169 -0.692849)
(-0.291492 0.356895 -0.677536)
(-0.295356 0.359505 -0.674587)
(-0.313301 0.372298 -0.706203)
(-0.332583 0.403018 -0.748737)
(-0.300111 0.367393 -0.690201)
(-0.307329 0.376781 -0.702858)
(-0.251105 0.299166 -0.561798)
(-0.239098 0.288002 -0.541346)
(-0.319785 0.391975 -0.736216)
(-0.302982 0.377102 -0.700073)
(-0.228279 0.288146 -0.529834)
(-0.226404 0.266521 -0.499207)
(-0.320275 0.386795 -0.731098)
(-0.299344 0.372234 -0.692904)
(-0.218426 0.276633 -0.510844)
(-0.219472 0.266459 -0.484693)
(-0.256822 0.317244 -0.587359)
(-0.29973 0.366327 -0.691002)
(-0.225916 0.271413 -0.504077)
(-0.304441 0.369898 -0.695002)
(-0.229534 0.27638 -0.523306)
(-0.238516 0.289152 -0.54231)
(-0.212519 0.269819 -0.501204)
(-0.291158 0.355245 -0.662278)
(-0.252041 0.308001 -0.568483)
(-0.237969 0.296508 -0.552463)
(-0.236081 0.285272 -0.538418)
(-0.242985 0.29893 -0.558745)
(-0.331053 0.410297 -0.748909)
(-0.319263 0.395007 -0.721458)
(-0.238756 0.297906 -0.546663)
(-0.244005 0.294557 -0.55665)
(-0.24895 0.297372 -0.552065)
(-0.221384 0.263824 -0.491382)
(-0.240522 0.286658 -0.529248)
(-0.259707 0.305618 -0.570789)
(-0.328715 0.402589 -0.74269)
(-0.327053 0.404362 -0.746085)
(-0.309759 0.374361 -0.69871)
(-0.306703 0.368425 -0.68379)
(-0.306653 0.373979 -0.686559)
(-0.323407 0.386362 -0.717218)
(-0.298288 0.359493 -0.661497)
(-0.264349 0.309653 -0.573984)
(-0.250772 0.301881 -0.564082)
(-0.266631 0.316624 -0.587683)
(-0.321323 0.392286 -0.720769)
(-0.299828 0.364202 -0.670182)
(-0.324294 0.395773 -0.729644)
(-0.302301 0.362161 -0.680585)
(-0.376828 0.457033 -0.849552)
(-0.359311 0.429963 -0.808143)
(-0.312176 0.386328 -0.723953)
(-0.31288 0.370313 -0.688749)
(-0.324995 0.402074 -0.742882)
(-0.302496 0.365601 -0.675333)
(-0.378757 0.458161 -0.852533)
(-0.388571 0.47609 -0.878147)
(-0.373965 0.455987 -0.837101)
(-0.317296 0.392811 -0.726318)
(-0.332824 0.407462 -0.760643)
(-0.322849 0.385304 -0.724327)
(-0.383244 0.465311 -0.858326)
(-0.322214 0.387297 -0.720132)
(-0.355151 0.433837 -0.801132)
(-0.354567 0.432542 -0.806808)
(-0.436393 0.520278 -0.969846)
(-0.44017 0.526521 -0.984445)
(-0.448854 0.53556 -0.994661)
(-0.450705 0.538778 -1.00741)
(-0.436762 0.524039 -0.979963)
(-0.431285 0.514629 -0.96219)
(-0.432418 0.515542 -0.961689)
(-0.432797 0.520215 -0.969054)
(-0.430557 0.510892 -0.959452)
(-0.432532 0.516453 -0.965919)
(-0.436274 0.520676 -0.976434)
(-0.432202 0.51566 -0.964748)
(-0.421627 0.500031 -0.938171)
(-0.43217 0.519142 -0.968274)
(-0.431442 0.5109 -0.96146)
(-0.431629 0.516653 -0.959422)
(-0.26879 0.32626 -0.610026)
(-0.239699 0.28243 -0.523655)
(-0.256267 0.305457 -0.555337)
(-0.247493 0.312278 -0.565467)
(-0.244863 0.296493 -0.552072)
(-0.290223 0.341827 -0.637335)
(-0.313307 0.384664 -0.705747)
(-0.335606 0.408752 -0.755859)
(-0.306661 0.367876 -0.687548)
(-0.355784 0.440083 -0.808978)
(-0.330342 0.407343 -0.747593)
(-0.313341 0.389121 -0.720426)
(-0.327882 0.3988 -0.739386)
(-0.359467 0.43663 -0.80891)
(-0.353303 0.436403 -0.806074)
(-0.301821 0.383578 -0.694699)
(-0.320718 0.379265 -0.731607)
(-0.335156 0.400024 -0.765026)
(-0.319304 0.382687 -0.729558)
(-0.307568 0.37537 -0.70172)
(-0.305821 0.35754 -0.671374)
(-0.294703 0.347897 -0.647902)
(-0.315308 0.380396 -0.713117)
(-0.298073 0.372035 -0.678643)
(-0.314332 0.376996 -0.709137)
(-0.248568 0.295308 -0.572215)
(-0.232072 0.286542 -0.543677)
(-0.263465 0.30674 -0.590078)
(-0.236153 0.278613 -0.533918)
(-0.24325 0.293683 -0.546366)
(-0.223361 0.273346 -0.501756)
(-0.238724 0.288882 -0.537812)
(-0.223681 0.270162 -0.497163)
(-0.238065 0.283768 -0.530635)
(-0.245738 0.296966 -0.559768)
(-0.303681 0.369002 -0.690325)
(-0.30758 0.371187 -0.700088)
(-0.259595 0.31198 -0.581316)
(-0.305882 0.376948 -0.688618)
(-0.290045 0.351015 -0.64786)
(-0.333703 0.412263 -0.748563)
(-0.292417 0.358048 -0.654008)
(-0.234449 0.292376 -0.542364)
(-0.235393 0.286941 -0.534866)
(-0.263241 0.318764 -0.598683)
(-0.256393 0.316369 -0.578871)
(-0.246173 0.306361 -0.563972)
(-0.229274 0.294112 -0.53681)
(-0.233052 0.277038 -0.516113)
(-0.228923 0.264657 -0.501491)
(-0.24808 0.303325 -0.550995)
(-0.241548 0.302715 -0.541509)
(-0.246258 0.288443 -0.545321)
(-0.259317 0.320089 -0.578199)
(-0.333545 0.389645 -0.742783)
(-0.291774 0.345136 -0.655392)
(-0.293309 0.345633 -0.644908)
(-0.365288 0.429942 -0.799984)
(-0.352655 0.425828 -0.793195)
(-0.318431 0.390919 -0.713784)
(-0.349854 0.411223 -0.77519)
(-0.341464 0.412335 -0.770975)
(-0.324693 0.38436 -0.7209)
(-0.270895 0.329578 -0.599502)
(-0.272185 0.327636 -0.605989)
(-0.265441 0.319837 -0.585858)
(-0.270709 0.308157 -0.595998)
(-0.318913 0.367815 -0.703491)
(-0.312342 0.361802 -0.67482)
(-0.371374 0.438533 -0.818058)
(-0.316337 0.376541 -0.703334)
(-0.326495 0.385944 -0.719995)
(-0.319675 0.379655 -0.697436)
(-0.336004 0.39547 -0.740372)
(-0.240622 0.289783 -0.534181)
(-0.210418 0.251534 -0.475188)
(-0.227487 0.27387 -0.509956)
(-0.253793 0.305805 -0.570457)
(-0.205377 0.247365 -0.457768)
(-0.219014 0.259657 -0.48683)
(-0.311158 0.366625 -0.692976)
(-0.30985 0.374592 -0.693417)
(-0.238372 0.289029 -0.535269)
(-0.25763 0.310956 -0.585247)
(-0.251564 0.303349 -0.56164)
(-0.254646 0.304672 -0.560964)
(-0.241481 0.289016 -0.536324)
(-0.30938 0.37004 -0.697886)
(-0.315671 0.386151 -0.709618)
(-0.303277 0.361715 -0.686115)
(-0.347155 0.424808 -0.793689)
(-0.375816 0.457768 -0.863181)
(-0.334817 0.409148 -0.750095)
(-0.33685 0.416915 -0.759123)
(-0.332005 0.413386 -0.753868)
(-0.363937 0.43832 -0.823009)
(-0.367246 0.445991 -0.839055)
(-0.365195 0.451786 -0.830624)
(-0.386535 0.47664 -0.878619)
(-0.342553 0.422261 -0.782617)
(-0.380849 0.472783 -0.867479)
(-0.360397 0.442268 -0.821813)
(-0.335774 0.408668 -0.765792)
(-0.383253 0.476201 -0.88022)
(-0.380352 0.468417 -0.863895)
(-0.432531 0.531891 -0.988141)
(-0.417978 0.512484 -0.949282)
(-0.420883 0.51328 -0.950908)
(-0.395242 0.49944 -0.916686)
(-0.379502 0.470579 -0.870981)
(-0.411998 0.513525 -0.951139)
(-0.432525 0.530996 -0.980058)
(-0.430101 0.528501 -0.98007)
(-0.40187 0.496985 -0.930889)
(-0.390055 0.477438 -0.88248)
(-0.413394 0.512423 -0.970901)
(-0.373151 0.459945 -0.867108)
(-0.30611 0.382285 -0.701677)
(-0.311624 0.371898 -0.704968)
(-0.302151 0.359259 -0.670921)
(-0.274584 0.346121 -0.633352)
(-0.299275 0.365413 -0.670391)
(-0.347541 0.420534 -0.783169)
(-0.33481 0.40467 -0.741391)
(-0.292807 0.344698 -0.656112)
(-0.283322 0.337546 -0.650475)
(-0.31573 0.384787 -0.705637)
(-0.318948 0.391086 -0.731461)
(-0.301278 0.367522 -0.687831)
(-0.293709 0.36373 -0.674281)
(-0.232908 0.291951 -0.553189)
(-0.233799 0.28014 -0.526081)
(-0.25234 0.304752 -0.582797)
(-0.291589 0.356199 -0.678897)
(-0.284934 0.344086 -0.654062)
(-0.235289 0.288489 -0.553238)
(-0.222645 0.277714 -0.522378)
(-0.207664 0.254738 -0.482236)
(-0.210894 0.266584 -0.498192)
(-0.233735 0.284705 -0.537292)
(-0.204664 0.247521 -0.476954)
(-0.251821 0.307153 -0.590418)
(-0.237598 0.284586 -0.543161)
(-0.264352 0.32105 -0.602724)
(-0.264461 0.320097 -0.585209)
(-0.305995 0.376647 -0.69714)
(-0.259847 0.324855 -0.606042)
(-0.25573 0.313153 -0.571788)
(-0.264306 0.32047 -0.587622)
(-0.312838 0.39118 -0.718054)
(-0.324086 0.385937 -0.729581)
(-0.349049 0.415101 -0.789308)
(-0.312021 0.37947 -0.70531)
(-0.320775 0.387294 -0.720772)
(-0.294544 0.350046 -0.659315)
(-0.313045 0.382156 -0.707761)
(-0.303781 0.366557 -0.68951)
(-0.352942 0.422481 -0.788647)
(-0.305094 0.364202 -0.687372)
(-0.316687 0.389313 -0.72403)
(-0.341336 0.413755 -0.770052)
(-0.34134 0.410747 -0.77199)
(-0.35033 0.419305 -0.785194)
(-0.317526 0.376059 -0.711088)
(-0.329275 0.384411 -0.726327)
(-0.270701 0.330247 -0.617928)
(-0.317696 0.377096 -0.69691)
(-0.328755 0.390479 -0.729273)
(-0.362683 0.42556 -0.800422)
(-0.351693 0.431793 -0.797128)
(-0.315195 0.388471 -0.703689)
(-0.337226 0.414562 -0.77026)
(-0.332977 0.40536 -0.748313)
(-0.365224 0.440836 -0.813455)
(-0.368531 0.439158 -0.814266)
(-0.317551 0.384976 -0.734507)
(-0.304763 0.367799 -0.697233)
(-0.324715 0.376383 -0.731624)
(-0.317328 0.374219 -0.713493)
(-0.384156 0.462787 -0.877383)
(-0.38769 0.469922 -0.874528)
(-0.331378 0.407655 -0.760643)
(-0.373215 0.448932 -0.831131)
(-0.328163 0.40451 -0.753394)
(-0.335673 0.403035 -0.771494)
(-0.30746 0.368399 -0.68831)
(-0.365368 0.428657 -0.81663)
(-0.348245 0.405203 -0.752652)
(-0.333655 0.397274 -0.755283)
(-0.350171 0.421614 -0.790312)
(-0.320135 0.384779 -0.718592)
(-0.315013 0.373516 -0.693079)
(-0.396644 0.484387 -0.882739)
(-0.393448 0.48857 -0.898426)
(-0.354296 0.42903 -0.793527)
(-0.340129 0.406324 -0.757533)
(-0.306362 0.380484 -0.715223)
(-0.321621 0.391501 -0.724903)
(-0.382109 0.468733 -0.868526)
(-0.349595 0.419022 -0.798379)
(-0.306895 0.386054 -0.717596)
(-0.334363 0.407945 -0.757228)
(-0.401561 0.499326 -0.914531)
(-0.346441 0.427545 -0.793203)
(-0.377488 0.463556 -0.856654)
(-0.362189 0.454561 -0.838771)
(-0.360805 0.434561 -0.809678)
(-0.367401 0.443704 -0.826324)
(-0.397041 0.486827 -0.904493)
(-0.401466 0.492158 -0.912411)
(-0.370396 0.455524 -0.841979)
(-0.404289 0.491101 -0.916127)
(-0.380145 0.473412 -0.870854)
(-0.442238 0.530121 -0.986973)
(-0.453474 0.544345 -1.0098)
(-0.442028 0.531803 -0.986941)
(-0.454661 0.545166 -1.00887)
(-0.449594 0.532989 -0.989478)
(-0.440007 0.52855 -0.980072)
(-0.44026 0.530322 -0.985569)
(-0.436395 0.52477 -0.97186)
(-0.434642 0.524471 -0.974386)
(-0.429093 0.518586 -0.960537)
(-0.420888 0.507566 -0.950266)
(-0.437118 0.523762 -0.974275)
(-0.43885 0.527582 -0.979319)
(-0.441745 0.529877 -0.983376)
(-0.442218 0.528555 -0.98116)
(-0.443136 0.532208 -0.989724)
(-0.436768 0.523506 -0.973972)
(-0.437425 0.528494 -0.974681)
(-0.437432 0.52486 -0.979927)
(-0.442728 0.529536 -0.98854)
(-0.23223 0.281774 -0.51727)
(-0.226468 0.270097 -0.506171)
(-0.229136 0.278477 -0.513682)
(-0.208857 0.27064 -0.489919)
(-0.257787 0.304586 -0.569683)
(-0.244111 0.290266 -0.542746)
(-0.266623 0.306903 -0.580879)
(-0.238747 0.289625 -0.539174)
(-0.229738 0.291715 -0.531352)
(-0.307619 0.377601 -0.700512)
(-0.288741 0.358202 -0.657072)
(-0.268745 0.322237 -0.593732)
(-0.288872 0.357481 -0.666524)
(-0.311792 0.371459 -0.698393)
(-0.298224 0.35912 -0.677027)
(-0.314394 0.382462 -0.716342)
(-0.331439 0.393943 -0.742288)
(-0.207173 0.248436 -0.460364)
(-0.202931 0.239524 -0.469119)
(-0.250767 0.305323 -0.557799)
(-0.236594 0.294471 -0.543391)
(-0.226601 0.28418 -0.524431)
(-0.222248 0.276069 -0.507279)
(-0.203427 0.267502 -0.477436)
(-0.215091 0.270169 -0.489933)
(-0.206117 0.258857 -0.480232)
(-0.199642 0.27381 -0.490628)
(-0.216523 0.286751 -0.521447)
(-0.230169 0.285797 -0.52893)
(-0.216591 0.261806 -0.499747)
(-0.211414 0.270402 -0.505096)
(-0.192379 0.23635 -0.453196)
(-0.211146 0.263539 -0.488628)
(-0.217243 0.256073 -0.489078)
(-0.198115 0.236328 -0.442533)
(-0.21127 0.263605 -0.496143)
(-0.221351 0.270078 -0.512852)
(-0.208231 0.255215 -0.470957)
(-0.198106 0.250656 -0.472146)
(-0.206428 0.25822 -0.482388)
(-0.238787 0.286582 -0.523384)
(-0.224962 0.269415 -0.499245)
(-0.241893 0.287134 -0.521888)
(-0.226089 0.276999 -0.494436)
(-0.209823 0.266917 -0.49259)
(-0.208134 0.264899 -0.498202)
(-0.228774 0.292436 -0.536748)
(-0.213923 0.271569 -0.498138)
(-0.218951 0.265227 -0.496577)
(-0.227802 0.282725 -0.524718)
(-0.223805 0.265321 -0.491889)
(-0.224574 0.274448 -0.511408)
(-0.208706 0.250862 -0.466775)
(-0.215357 0.251975 -0.461593)
(-0.230868 0.27633 -0.51556)
(-0.209962 0.261728 -0.467279)
(-0.212428 0.266 -0.482954)
(-0.223184 0.272399 -0.513375)
(-0.211866 0.270427 -0.497309)
(-0.219407 0.273642 -0.497871)
(-0.212924 0.261339 -0.489566)
(-0.220272 0.271475 -0.494002)
(-0.223641 0.2712 -0.501022)
(-0.228775 0.270487 -0.500374)
(-0.223537 0.270386 -0.507326)
(-0.215029 0.263076 -0.485189)
(-0.214561 0.253165 -0.473679)
(-0.218195 0.27253 -0.501336)
(-0.201123 0.260284 -0.464299)
(-0.214162 0.2591 -0.476584)
(-0.212261 0.259995 -0.472395)
(-0.209759 0.257636 -0.482389)
(-0.21943 0.265511 -0.495228)
(-0.231306 0.285979 -0.51958)
(-0.219663 0.265829 -0.497976)
(-0.200159 0.244918 -0.455425)
(-0.224743 0.267938 -0.495724)
(-0.210848 0.26814 -0.486252)
(-0.216301 0.267012 -0.490208)
(-0.212151 0.261359 -0.477428)
(-0.237095 0.278237 -0.514027)
(-0.233329 0.273898 -0.505377)
(-0.222077 0.267409 -0.483691)
(-0.214719 0.271696 -0.485411)
(-0.203568 0.245068 -0.466698)
(-0.230131 0.269703 -0.50153)
(-0.210256 0.247072 -0.472755)
(-0.210444 0.258011 -0.472033)
(-0.219503 0.26768 -0.493722)
(-0.228388 0.287723 -0.515866)
(-0.215098 0.262771 -0.491119)
(-0.218345 0.275746 -0.500006)
(-0.218232 0.270434 -0.494364)
(-0.229035 0.264699 -0.500307)
(-0.210656 0.251794 -0.476256)
(-0.223542 0.270739 -0.500187)
(-0.218152 0.263855 -0.493227)
(-0.215135 0.265765 -0.475647)
(-0.223534 0.267465 -0.494461)
(-0.200124 0.260982 -0.492581)
(-0.233762 0.284623 -0.531199)
(-0.220486 0.262297 -0.487484)
(-0.221069 0.27223 -0.50102)
(-0.23622 0.286718 -0.52748)
(-0.223145 0.262832 -0.494524)
(-0.22578 0.280823 -0.506094)
(-0.225289 0.27641 -0.505942)
(-0.217907 0.260117 -0.485488)
(-0.211252 0.257102 -0.479016)
(-0.211146 0.252786 -0.473263)
(-0.205027 0.253565 -0.467694)
(-0.224929 0.27401 -0.514118)
(-0.22544 0.27786 -0.509915)
(-0.22707 0.268825 -0.507374)
(-0.230712 0.277727 -0.513434)
(-0.210915 0.250076 -0.469187)
(-0.209683 0.245904 -0.463433)
(-0.223879 0.274048 -0.515298)
(-0.208234 0.256951 -0.478199)
(-0.220439 0.266356 -0.493326)
(-0.232857 0.267218 -0.513123)
(-0.22278 0.273629 -0.502432)
(-0.212743 0.258997 -0.481691)
(-0.248384 0.297406 -0.544247)
(-0.215138 0.258398 -0.479404)
(-0.238458 0.271823 -0.515601)
(-0.227101 0.269369 -0.508281)
(-0.235897 0.279841 -0.5182)
(-0.217611 0.254984 -0.490756)
(-0.232249 0.281755 -0.523881)
(-0.223987 0.272021 -0.505234)
(-0.225265 0.262173 -0.511274)
(-0.219177 0.260541 -0.484447)
(-0.230704 0.279391 -0.516334)
(-0.2059 0.251073 -0.471312)
(-0.231145 0.27887 -0.519394)
(-0.236799 0.270401 -0.522304)
(-0.211575 0.255787 -0.479837)
(-0.214625 0.258656 -0.49159)
(-0.211453 0.256713 -0.474007)
(-0.219465 0.270954 -0.493384)
(-0.208086 0.262482 -0.480278)
(-0.228365 0.265992 -0.497945)
(-0.213304 0.260205 -0.479169)
(-0.221966 0.266549 -0.495509)
(-0.214564 0.260931 -0.476664)
(-0.216406 0.250553 -0.46888)
(-0.232657 0.275173 -0.516307)
(-0.213794 0.250255 -0.45471)
(-0.205208 0.246771 -0.464239)
(-0.21536 0.261984 -0.476734)
(-0.228133 0.275507 -0.517669)
(-0.22405 0.270283 -0.513364)
(-0.219502 0.255966 -0.477502)
(-0.227009 0.269755 -0.486022)
(-0.225994 0.254659 -0.480168)
(-0.228245 0.267993 -0.503185)
(-0.227983 0.259047 -0.512045)
(-0.241551 0.278837 -0.52693)
(-0.213847 0.25694 -0.479849)
(-0.201903 0.251589 -0.46132)
(-0.239405 0.274706 -0.518398)
(-0.229378 0.27696 -0.517954)
(-0.236782 0.280881 -0.525577)
(-0.219668 0.255396 -0.478933)
(-0.207245 0.249754 -0.46934)
(-0.220301 0.258193 -0.493373)
(-0.229859 0.274432 -0.512198)
(-0.208346 0.255901 -0.478488)
(-0.214991 0.262523 -0.482835)
(-0.231341 0.278999 -0.515454)
(-0.226482 0.272492 -0.51826)
(-0.221678 0.266741 -0.504451)
(-0.228283 0.265078 -0.507901)
(-0.206587 0.238301 -0.469475)
(-0.210045 0.243612 -0.461706)
(-0.220771 0.264751 -0.500195)
(-0.240695 0.280361 -0.532617)
(-0.239364 0.279946 -0.526937)
(-0.211732 0.251253 -0.474424)
(-0.229886 0.26708 -0.488658)
(-0.208024 0.25052 -0.456464)
(-0.204055 0.240993 -0.447248)
(-0.217672 0.257054 -0.480912)
(-0.209952 0.255829 -0.469051)
(-0.205024 0.246428 -0.469655)
(-0.206913 0.258154 -0.47237)