/*--------------------------------*- C++ -*----------------------------------*\
| =========                 |                                                 |
| \\      /  F ield         | OpenFOAM: The Open Source CFD Toolbox           |
|  \\    /   O peration     | Version:  v1612+                                |
|   \\  /    A nd           | Web:      www.OpenFOAM.com                      |
|    \\/     M anipulation  |                                                 |
\*---------------------------------------------------------------------------*/
FoamFile
{
    version     2.0;
    format      ascii;
    class       volScalarField;
    location    "150";
    object      p;
}
// * * * * * * * * * * * * * * * * * * * * * * * * * * * * * * * * * * * * * //

dimensions      [0 2 -2 0 0 0 0];

internalField   nonuniform List<scalar> 
18740
(
1.25121
1.48938
1.29083
1.33276
1.66571
1.65243
1.67207
1.6564
1.67594
1.67632
1.683
1.70241
1.66404
1.68278
1.69322
1.68958
1.69153
1.68859
1.69626
1.69718
1.70533
1.5926
1.59646
1.58078
1.5847
1.58669
1.59888
1.6045
1.57185
1.57997
1.59797
1.60096
1.60686
1.6137
1.59588
1.60247
1.59109
1.60977
1.61416
1.65005
1.63454
1.65359
1.5998
1.64174
1.6268
1.66326
1.64002
1.65433
1.64315
1.61013
1.5948
1.63967
1.62116
1.61286
1.63481
1.65706
1.6258
1.60441
1.64565
1.55089
1.56208
1.53082
1.54029
1.55126
1.56602
1.55523
1.53443
1.55696
1.53418
1.53143
1.5664
1.54692
1.54725
1.53888
1.53735
1.54427
1.54358
1.55834
1.55221
1.55729
1.20921
1.20716
1.20856
1.24843
1.24542
1.21492
1.21367
1.20579
1.25508
1.24273
1.2436
1.22843
1.25409
1.25057
1.24205
1.22694
1.2361
1.24439
1.25565
1.25003
1.54023
1.54
1.55641
1.55806
1.53947
1.54849
1.53826
1.52719
1.52465
1.55067
1.55424
1.53639
1.52263
1.55565
1.47138
1.49636
1.51528
1.52344
1.46617
1.47892
1.49612
1.48481
1.51683
1.52096
1.52939
1.52904
1.48875
1.46571
1.48587
1.47121
1.50004
1.52581
1.38798
1.39751
1.38356
1.40494
1.37554
1.42024
1.40264
1.40329
1.38319
1.37926
1.37288
1.40724
1.39966
1.39744
1.41143
1.41784
1.39946
1.41172
1.56922
1.56823
1.55201
1.55534
1.5481
1.53948
1.58121
1.56923
1.56584
1.54853
1.55817
1.55757
1.56996
1.57326
1.56765
1.57968
1.57315
1.57657
1.57599
1.43291
1.43377
1.46179
1.44251
1.48115
1.45983
1.42145
1.46903
1.45769
1.48481
1.4908
1.45282
1.44755
1.42357
1.4341
1.50101
1.49775
1.49158
1.44709
1.46482
1.44572
1.44445
1.48966
1.47308
1.48521
1.47917
1.55969
1.56256
1.56368
1.56166
1.565
1.56094
1.56942
1.56795
1.56646
1.55346
1.55415
1.57043
1.56457
1.56155
1.53048
1.53869
1.52096
1.54512
1.53925
1.52407
1.52946
1.54163
1.51555
1.52833
1.53495
1.54966
1.52503
1.53371
1.49885
1.54184
1.5336
1.51114
1.50729
1.55383
1.30719
1.30091
1.30146
1.3094
1.30722
1.29415
1.29862
1.29038
1.29468
1.2979
1.29448
1.28461
1.2865
1.29523
1.28954
1.28921
1.30126
1.29948
1.3096
1.30269
1.55827
1.57946
1.56511
1.5794
1.59516
1.59299
1.6032
1.58047
1.5776
1.60433
1.60223
1.59677
1.59704
1.39133
1.41514
1.41857
1.44669
1.3958
1.36763
1.36793
1.37022
1.40177
1.45821
1.45904
1.38701
1.38458
1.42734
1.24033
1.23585
1.23383
1.30776
1.30997
1.32198
1.31315
1.26327
1.30742
1.31876
1.30779
1.29007
1.29792
1.26565
1.24141
1.22546
1.26819
1.23055
1.30581
1.40903
1.37289
1.40994
1.31722
1.33687
1.42372
1.38475
1.39237
1.36061
1.33482
1.31503
1.41529
1.3849
1.38377
1.32922
1.30707
1.43136
1.45699
1.4272
1.43201
1.46167
1.47355
1.4483
1.47853
1.41716
1.4197
1.46036
1.46157
1.42334
1.42835
1.41075
1.44204
1.49048
1.38961
1.48116
1.53168
1.52589
1.54523
1.52961
1.49914
1.46006
1.47106
1.52544
1.48781
1.49763
1.51106
1.70599
1.71569
1.68603
1.69857
1.70926
1.69193
1.71122
1.71137
1.70922
1.68507
1.67849
1.69114
1.71583
1.70761
1.6874
1.67209
1.6661
1.66395
1.70833
1.70349
1.62253
1.61712
1.61955
1.64936
1.64123
1.65574
1.66764
1.66699
1.65315
1.66118
1.65058
1.6651
1.6688
1.67566
1.68318
1.50878
1.50956
1.50822
1.50915
1.53597
1.54632
1.5357
1.52733
1.54715
1.54934
1.5492
1.554
1.55413
1.52387
1.53075
1.53487
1.51974
1.65968
1.66215
1.64792
1.65073
1.62994
1.64371
1.67856
1.67657
1.66675
1.63582
1.62037
1.61871
1.66918
1.63141
1.63857
1.53556
1.53302
1.55411
1.53926
1.54438
1.54995
1.52898
1.52112
1.5518
1.55285
1.55379
1.56307
1.55158
1.53991
1.557
1.55252
1.3166
1.31819
1.33395
1.3337
1.31191
1.32485
1.32943
1.31929
1.31571
1.32627
1.33213
1.32052
1.3192
1.31897
1.32264
1.32129
1.33138
1.31641
1.31433
1.31956
1.3255
1.32448
1.33896
1.35498
1.35824
1.3521
1.33696
1.32696
1.31167
1.3092
1.31846
1.35901
1.37534
1.32929
1.3966
1.37256
1.39732
1.38847
1.36797
1.41148
1.40823
1.36166
1.36466
1.39041
1.5352
1.54415
1.54196
1.54242
1.53199
1.54328
1.53277
1.54543
1.52996
1.52989
1.51778
1.51223
1.53634
1.5221
1.523
1.53478
1.52711
1.51566
1.51307
1.52489
1.36672
1.35289
1.38014
1.37132
1.34634
1.34966
1.36148
1.33146
1.35933
1.35635
1.34685
1.3658
1.35232
1.36353
1.33788
1.34342
1.36238
1.35402
1.36089
1.34693
1.4336
1.43954
1.44106
1.44255
1.40838
1.43275
1.42298
1.41432
1.39837
1.41547
1.39524
1.40492
1.39962
1.39931
1.39926
1.41769
1.38621
1.3899
1.41758
1.4439
1.44396
1.43562
1.46793
1.47427
1.45405
1.41561
1.43804
1.42298
1.45983
1.49751
1.49329
1.50935
1.42101
1.4157
1.40106
1.39697
1.41855
1.45015
1.45446
1.44797
1.4406
1.42278
1.43588
1.46114
1.45623
1.45481
1.44651
1.47365
1.46275
1.4459
1.52888
1.50503
1.5217
1.54501
1.50928
1.49322
1.54977
1.50484
1.5539
1.53915
1.56917
1.55953
1.54529
1.5691
1.56238
1.41341
1.44856
1.44068
1.4473
1.40715
1.43266
1.42076
1.39638
1.43474
1.42812
1.39293
1.42235
1.37899
1.40362
1.37272
1.37069
1.36961
1.40037
1.32733
1.33
1.32134
1.31937
1.32609
1.33316
1.3304
1.31894
1.32202
1.33919
1.31829
1.32264
1.33568
1.31712
1.33512
1.32332
1.33675
1.33566
1.3217
1.33548
1.33995
1.34171
1.34865
1.3646
1.36032
1.34676
1.34389
1.35721
1.33989
1.34043
1.33293
1.32842
1.32847
1.33417
1.32214
1.32426
1.35197
1.33598
1.3215
1.3371
1.32803
1.69469
1.70365
1.71786
1.71671
1.69528
1.71179
1.69128
1.70349
1.68758
1.69641
1.71154
1.6848
1.70228
1.69228
1.69335
1.63846
1.64471
1.64801
1.67985
1.68511
1.69027
1.63946
1.62908
1.62992
1.63227
1.67437
1.68691
1.63779
1.68275
1.65592
1.66328
1.67218
1.68533
1.66398
1.67185
1.64511
1.45419
1.46542
1.44831
1.44027
1.40791
1.41838
1.45242
1.35779
1.37459
1.35272
1.3622
1.35759
1.37969
1.384
1.34689
1.35182
1.38425
1.39154
1.39258
1.38631
1.40729
1.39141
1.51941
1.50904
1.48371
1.47889
1.48786
1.51082
1.52314
1.51419
1.47982
1.49382
1.46569
1.46047
1.50302
1.50397
1.52253
1.4844
1.50305
1.48095
1.47391
1.46565
1.47727
1.47068
1.46781
1.44505
1.45843
1.48769
1.48895
1.47521
1.41452
1.41632
1.44159
1.45019
1.42514
1.4212
1.45066
1.43931
1.48528
1.44966
1.46398
1.30109
1.30428
1.29083
1.3011
1.2992
1.3077
1.30923
1.30451
1.29348
1.30014
1.28549
1.30383
1.32295
1.30791
1.30393
1.31069
1.30248
1.28207
1.32173
1.31043
1.31745
1.31109
1.31975
1.31923
1.31082
1.32825
1.3179
1.34327
1.31965
1.32499
1.57578
1.57658
1.56716
1.574
1.57644
1.5787
1.56995
1.58031
1.58222
1.55418
1.55156
1.55362
1.55648
1.57128
1.56392
1.56198
1.5682
1.57411
1.32301
1.33564
1.3555
1.34175
1.3171
1.31486
1.33156
1.29331
1.29304
1.34878
1.35355
1.35375
1.38192
1.29351
1.28929
1.29607
1.29942
1.29273
1.37386
1.36161
1.34764
1.31933
1.30916
1.29608
1.3323
1.34264
1.44458
1.42588
1.41973
1.45666
1.44763
1.45656
1.42355
1.43053
1.43704
1.4229
1.41653
1.42206
1.41541
1.4068
1.4207
1.41249
1.46254
1.44972
1.42586
1.44431
1.4332
1.44972
1.56453
1.56034
1.57226
1.57865
1.55378
1.56032
1.57024
1.55776
1.55425
1.5601
1.58205
1.59039
1.57283
1.57256
1.56806
1.57383
1.56473
1.57698
1.58912
1.61615
1.60699
1.59609
1.61118
1.55201
1.58012
1.56488
1.58236
1.61541
1.61317
1.57667
1.5511
1.56539
1.58308
1.59696
1.47958
1.51262
1.44897
1.4533
1.51357
1.52262
1.51481
1.5091
1.48543
1.50004
1.5284
1.44843
1.44702
1.49792
1.54974
1.54552
1.4741
1.4985
1.46898
1.48403
1.48241
1.49212
1.66248
1.66433
1.65269
1.68971
1.64608
1.64512
1.61783
1.62259
1.65765
1.642
1.36615
1.35902
1.32664
1.34745
1.3217
1.32825
1.30923
1.34922
1.34352
1.34611
1.34573
1.37275
1.36064
1.33469
1.34836
1.33486
1.33269
1.37819
1.38043
1.36736
1.37839
1.35502
1.71736
1.72488
1.72796
1.73731
1.71335
1.71882
1.72064
1.73414
1.71887
1.7305
1.74302
1.71702
1.72295
1.70211
1.69801
1.71958
1.73358
1.7056
1.70194
1.72242
1.38507
1.37172
1.40979
1.38827
1.38428
1.38481
1.39189
1.35434
1.35956
1.42337
1.38592
1.40558
1.35644
1.35951
1.37035
1.38658
1.55578
1.55753
1.60132
1.59618
1.59329
1.56945
1.55735
1.59469
1.59781
1.58393
1.58004
1.39589
1.44547
1.42344
1.38672
1.39309
1.45146
1.4557
1.4411
1.41172
1.37369
1.37381
1.4113
1.44386
1.43527
1.41124
1.42471
1.40386
1.3924
1.42861
1.38685
1.42256
1.38058
1.42516
1.37055
1.56578
1.56612
1.55211
1.59678
1.57815
1.59671
1.59077
1.57478
1.59857
1.56528
1.58444
1.5612
1.57506
1.61216
1.6125
1.5979
1.59011
1.60641
1.58489
1.56905
1.57769
1.57133
1.57589
1.57022
1.54335
1.54449
1.55297
1.56525
1.5726
1.55107
1.28506
1.27857
1.27163
1.26538
1.27406
1.29168
1.28264
1.27543
1.29096
1.28391
1.26072
1.267
1.27012
1.26117
1.27562
1.27441
1.27833
1.2608
1.27046
1.29647
1.27872
1.29149
1.27129
1.27571
1.27081
1.2623
1.26055
1.2856
1.28203
1.27164
1.25997
1.26274
1.26614
1.27392
1.27518
1.2671
1.26744
1.26519
1.2711
1.27002
1.27954
1.27687
1.27871
1.27939
1.29621
1.29583
1.29115
1.28923
1.27746
1.28153
1.28199
1.29057
1.29283
1.30201
1.29381
1.28952
1.29999
1.32834
1.32324
1.33608
1.34248
1.33136
1.32942
1.32855
1.33259
1.34423
1.33359
1.42114
1.44606
1.43985
1.43697
1.4347
1.45333
1.44721
1.39194
1.40266
1.43321
1.42024
1.41179
1.43952
1.42182
1.43272
1.42082
1.43083
1.4289
1.40924
1.40905
1.38967
1.3958
1.41443
1.39891
1.38986
1.38142
1.37483
1.43109
1.41763
1.39917
1.39976
1.38971
1.43068
1.42185
1.41573
1.4374
1.42056
1.40084
1.55154
1.56784
1.57171
1.57449
1.55518
1.30331
1.29099
1.3457
1.3381
1.2974
1.30724
1.30104
1.30188
1.33797
1.32134
1.32469
1.32877
1.35341
1.35978
1.32492
1.32361
1.4362
1.40392
1.41923
1.42377
1.58932
1.54412
1.55239
1.54959
1.51386
1.5264
1.53576
1.52154
1.57668
1.57857
1.33285
1.32591
1.36443
1.37602
1.38331
1.39103
1.58098
1.58064
1.56628
1.42369
1.42785
1.30554
1.30715
1.31518
1.31418
1.31503
1.31763
1.35742
1.35328
1.34012
1.28225
1.28995
1.29176
1.58067
1.57801
1.51192
1.4852
1.51829
1.50223
1.52795
1.53852
1.51642
1.54987
1.56772
1.56277
1.56255
1.56125
1.56245
1.38366
1.40888
1.39966
1.38073
1.36906
1.39104
1.36978
1.29516
1.29535
1.29964
1.29491
1.57624
1.5713
1.56521
1.26976
1.28911
1.29298
1.30598
1.25035
1.23808
1.2489
1.2546
1.53666
1.55338
1.54854
1.54622
1.50084
1.50992
1.49792
1.52091
1.48737
1.37127
1.36283
1.40457
1.42507
1.43672
1.4428
1.30482
1.29698
1.32376
1.21783
1.21695
1.23907
1.25013
1.57076
1.57545
1.29227
1.30035
1.29536
1.22025
1.21537
1.23082
1.24482
1.53507
1.52403
1.34216
1.34256
1.25212
1.24715
1.25139
1.55205
1.55323
1.55081
1.57114
1.5637
1.56375
1.3711
1.38496
1.34914
1.58307
1.57749
1.23972
1.22281
1.23733
1.50741
1.51795
1.5048
1.51936
1.29033
1.28872
1.28283
1.55696
1.56338
1.55615
1.50297
1.50148
1.48541
1.1618
1.17187
1.29234
1.2804
1.12812
1.12939
1.12565
1.13113
1.13306
1.59236
1.58872
1.59352
1.42508
1.42618
1.43454
1.36721
1.36661
1.38691
1.41971
1.35629
1.58215
1.58146
1.05135
1.11246
1.23395
1.24017
1.23821
1.11575
1.06126
1.05523
1.54902
1.54753
1.53046
1.05631
1.00658
1.03191
1.08507
1.37676
1.39945
1.38474
1.60534
1.60027
1.60278
1.10882
1.0727
1.21014
1.21791
1.4446
1.45943
1.57383
1.57286
1.56558
1.26964
1.26219
1.25524
1.56332
1.55449
1.20848
1.19363
1.2202
1.22199
1.25497
1.34668
1.31871
1.29439
1.2818
1.63049
1.62445
1.6261
1.62118
1.20237
1.6315
1.61824
1.63026
1.62425
1.46943
1.48258
1.44126
1.43473
1.30958
1.30992
1.30634
1.30288
1.30723
1.51189
1.50622
1.55012
1.53947
1.62937
1.6496
1.63507
1.64337
1.64497
1.63022
1.63964
1.61643
1.62801
1.4711
1.45434
1.4642
1.43401
1.48871
1.42804
1.69449
1.70403
1.70679
1.70172
1.70153
1.69898
1.70112
1.70834
1.60726
1.62401
1.58883
1.73663
1.74204
1.7379
1.72615
1.73268
1.72082
1.43643
1.40695
1.46374
1.5993
1.59682
1.55337
1.4622
1.4708
1.45334
1.42729
1.25188
1.25296
1.30608
1.32445
1.35199
1.39116
1.53394
1.54513
1.52743
1.51488
1.48177
1.39554
1.38097
1.37846
1.36683
1.47374
1.47997
1.49747
1.47781
1.49946
1.4426
1.4265
1.44612
1.4345
1.65265
1.672
1.67852
1.6767
1.73982
1.73674
1.716
1.71535
1.74367
1.74888
1.74969
1.74095
1.7072
1.70592
1.70276
1.6784
1.74588
1.7296
1.74826
1.73021
1.73085
1.72554
1.73831
1.72169
1.71862
1.71935
1.74152
1.73137
1.70219
1.7043
1.70635
1.7305
1.7333
1.73802
1.71838
1.7436
1.72896
1.74675
1.72896
1.73847
1.72861
1.53246
1.51909
1.56557
1.57889
1.55703
1.57313
1.64665
1.6646
1.62632
1.61795
1.63399
1.62476
1.60649
1.64801
1.65481
1.59171
1.592
1.62322
1.62694
1.68074
1.67692
1.65305
1.65927
1.63543
1.65368
1.64728
1.56407
1.58729
1.60653
1.73816
1.73534
1.73394
1.73384
1.62414
1.64216
1.65011
1.68244
1.67168
1.67131
1.66819
1.71822
1.70972
1.7247
1.69687
1.68797
1.69422
1.69978
1.69136
1.67931
1.68601
1.68449
1.68764
1.62628
1.64248
1.63761
1.65036
1.69269
1.70986
1.71489
1.71381
1.71168
1.6718
1.67701
1.69554
1.69735
1.67855
1.69359
1.69411
1.66921
1.67551
1.68556
1.68426
1.71175
1.72287
1.71937
1.70046
1.71844
1.70605
1.66877
1.67655
1.68343
1.72658
1.72622
1.71852
1.70164
1.71759
1.70107
1.71822
1.70057
1.72142
1.71126
1.42268
1.3575
1.39661
1.26918
1.28724
1.41012
1.38585
1.36577
1.3407
1.33482
1.51937
1.51659
1.53902
1.49854
1.3996
1.4202
1.46637
1.43839
1.44073
1.38784
1.38188
1.41838
1.40278
1.40594
1.41257
1.42777
1.61226
1.62037
1.59708
1.61505
1.61106
1.62221
1.62153
1.67006
1.65914
1.67615
1.67813
1.67203
1.53808
1.53375
1.54423
1.65934
1.64823
1.62566
1.64737
1.65715
1.64718
1.61143
1.61605
1.60215
1.58568
1.59462
1.59823
1.60638
1.62123
1.60257
1.61367
1.59228
1.65038
1.65872
1.63251
1.62971
1.62007
1.6479
1.58468
1.56386
1.54986
1.57164
1.53272
1.54143
1.55258
1.53662
1.42483
1.41256
1.44014
1.51936
1.49766
1.48532
1.57541
1.57469
1.53612
1.542
1.5921
1.59817
1.5553
1.5527
1.47822
1.49645
1.508
1.48593
1.37813
1.44464
1.42116
1.41143
1.40688
1.47459
1.47261
1.46118
1.46128
1.54889
1.50801
1.51432
1.5562
1.52761
1.52331
1.33492
1.33149
1.34961
1.32859
1.36171
1.35782
1.38009
1.35982
1.35702
1.34891
1.36362
1.37076
1.35447
1.33372
1.41799
1.42974
1.38033
1.40162
1.47495
1.4582
1.45562
1.6423
1.64842
1.64766
1.64532
1.6274
1.62436
1.61972
1.61552
1.63118
1.63201
1.65134
1.63848
1.64643
1.63038
1.61226
1.62585
1.62587
1.62832
1.63446
1.64519
1.61494
1.64507
1.64427
1.64852
1.62621
1.62815
1.18682
1.57906
1.58881
1.58686
1.5911
1.62974
1.62609
1.62392
1.62079
1.60866
1.62003
1.62376
1.61348
1.628
1.6146
1.61554
1.60515
1.62779
1.62389
1.53868
1.52147
1.53889
1.53388
1.58964
1.59663
1.57492
1.56792
1.56732
1.57551
1.56063
1.56904
1.31405
1.30386
1.29961
1.32386
1.34779
1.33209
1.35135
1.54731
1.53856
1.54598
1.55755
1.54807
1.55654
1.57613
1.56452
1.56128
1.57533
1.59294
1.58702
1.56465
1.57028
1.58761
1.57441
1.45809
1.43287
1.42198
1.44269
1.40546
1.43565
1.42106
1.41762
1.48367
1.5006
1.51054
1.51287
1.46783
1.45373
1.47817
1.4595
1.47999
1.49559
1.50711
1.48567
1.49105
1.47581
1.53385
1.10791
1.16636
1.19953
1.23253
1.24518
1.18647
1.10145
1.07974
1.09974
1.10729
1.08809
1.1122
1.12502
1.18658
1.1515
1.27477
1.25355
1.25964
1.25634
1.23711
1.28337
1.29834
1.24719
1.24409
1.25861
1.2285
1.23593
1.27786
1.3103
1.30746
1.29916
1.3449
1.34881
1.31649
1.3664
1.37532
1.30074
1.28814
1.30557
1.29857
1.38127
1.40299
1.39255
1.37277
1.46671
1.43674
1.40626
1.41687
1.45461
1.42518
1.41435
1.49619
1.44958
1.50597
1.51038
1.48087
1.47237
1.49219
1.4724
1.48109
1.54758
1.53241
1.5255
1.51233
1.5233
1.50578
1.25341
1.24934
1.2602
1.2586
1.25496
1.2634
1.27601
1.20038
1.24709
1.24806
1.19279
1.20553
1.23754
1.24539
1.24373
1.15142
1.09815
1.11237
1.10086
1.12017
1.5824
1.58182
1.58933
1.58326
1.58556
1.58085
1.57356
1.5848
1.57488
1.35124
1.37056
1.38638
1.36393
1.33801
1.40211
1.3773
1.36524
1.35734
1.37284
1.37204
1.45207
1.44214
1.44261
1.41843
1.39616
1.56181
1.56033
1.54938
1.54293
1.56135
1.58249
1.56811
1.55778
1.57865
1.58188
1.58083
1.58258
1.58722
1.58115
1.56274
1.5465
1.59468
1.55359
1.58619
1.58799
1.5591
1.59852
1.59606
1.60099
1.58504
1.57687
1.56598
1.59654
1.59835
1.17454
1.16381
1.14998
1.18617
1.18075
1.1751
1.16153
1.18667
1.2074
1.30387
1.30601
1.29652
1.32593
1.34547
1.27403
1.27502
1.28908
1.24571
1.19668
1.205
1.19727
1.21713
1.23899
1.22196
1.52017
1.53182
1.51065
1.4647
1.43087
1.43874
1.47118
1.47246
1.4333
1.51723
1.50083
1.52104
1.53818
1.53024
1.5282
1.53245
1.45056
1.43513
1.459
1.44296
1.46935
1.47215
1.43284
1.43751
1.494
1.47889
1.45284
1.48468
1.57728
1.57208
1.573
1.56827
1.56781
1.56394
1.55737
1.54744
1.55181
1.55948
1.56686
1.56902
1.57114
1.57493
1.57317
1.5762
1.56708
1.56958
1.56397
1.55731
1.5561
1.52625
1.5328
1.50646
1.50303
1.50153
1.45576
1.46646
1.44829
1.44264
1.46125
1.47517
1.48768
1.47524
1.48342
1.44625
1.42706
1.22467
1.23152
1.23388
1.21491
1.203
1.19999
1.21109
1.20411
1.21582
1.20019
1.23072
1.23156
1.5729
1.57859
1.57486
1.56699
1.5746
1.57756
1.55375
1.56258
1.56765
1.56681
1.56594
1.56725
1.57673
1.57513
1.5639
1.5717
1.57986
1.57789
1.57428
1.35015
1.3351
1.34251
1.34998
1.31696
1.33183
1.34604
1.31779
1.31185
1.30264
1.36633
1.36074
1.57589
1.56986
1.56392
1.56578
1.56078
1.56488
1.56326
1.55543
1.56923
1.56319
1.56218
1.57279
1.56728
1.57297
1.5664
1.57765
1.56686
1.56997
1.56792
1.57439
1.57051
1.56182
1.55636
1.5787
1.56268
1.55879
1.57424
1.56383
1.56955
1.57009
1.55978
1.24443
1.26721
1.26398
1.25689
1.26538
1.26184
1.27983
1.29122
1.27622
1.2642
1.26846
1.27714
1.27186
1.27415
1.32116
1.3141
1.31842
1.33479
1.32234
1.31305
1.31192
1.30603
1.31635
1.32713
1.38368
1.40177
1.37748
1.36331
1.43274
1.40228
1.41241
1.4263
1.42999
1.37906
1.36803
1.35613
1.38567
1.41362
1.37701
1.38483
1.38001
1.37984
1.40177
1.39481
1.40639
1.42199
1.41056
1.39857
1.49461
1.49956
1.53897
1.54213
1.53232
1.51946
1.52169
1.50412
1.52837
1.52134
1.47884
1.47667
1.48985
1.55365
1.55339
1.5491
1.54461
1.54225
1.30197
1.30869
1.30342
1.30599
1.30567
1.30652
1.5749
1.57038
1.57363
1.56122
1.25606
1.24219
1.25297
1.33919
1.33774
1.32598
1.31769
1.3202
1.45543
1.47665
1.43646
1.43168
1.42896
1.43887
1.4688
1.47749
1.4536
1.45262
1.4801
1.50406
1.49216
1.48747
1.48696
1.47542
1.46646
1.48634
1.48506
1.42864
1.44006
1.41258
1.4246
1.43747
1.41318
1.39748
1.38737
1.36876
1.39585
1.40761
1.3939
1.40291
1.35503
1.36942
1.39498
1.38899
1.39886
1.38589
1.37077
1.47274
1.48141
1.49608
1.47021
1.49981
1.51781
1.5052
1.51272
1.49606
1.49636
1.49758
1.4814
1.47914
1.5439
1.53829
1.55785
1.55106
1.54111
1.55275
1.54797
1.2785
1.27197
1.26645
1.27531
1.27068
1.27301
1.26482
1.25864
1.25783
1.25696
1.24555
1.24625
1.34226
1.33282
1.31562
1.30818
1.29218
1.30354
1.29258
1.289
1.27043
1.29024
1.28535
1.29657
1.31768
1.30159
1.29358
1.31082
1.57788
1.57766
1.56636
1.56452
1.5793
1.5722
1.57115
1.56633
1.56596
1.5747
1.56067
1.55706
1.58447
1.57598
1.31506
1.31775
1.31075
1.30436
1.30353
1.30942
1.30557
1.40253
1.40689
1.4055
1.42187
1.38128
1.36255
1.33693
1.3341
1.34266
1.36843
1.37397
1.39002
1.38188
1.39525
1.41185
1.39609
1.40798
1.38582
1.39422
1.39583
1.39009
1.36357
1.36216
1.35231
1.39447
1.41793
1.41804
1.39961
1.41687
1.44083
1.45546
1.42292
1.40724
1.37183
1.38685
1.39274
1.39418
1.40761
1.40628
1.41728
1.34353
1.35807
1.38186
1.37791
1.35947
1.35084
1.56969
1.56661
1.56784
1.55545
1.56052
1.5684
1.56082
1.56776
1.56981
1.54884
1.53621
1.55061
1.55192
1.55088
1.55531
1.55332
1.56913
1.56122
1.56746
1.56657
1.56156
1.55811
1.57898
1.56533
1.57017
1.56708
1.56175
1.54021
1.54765
1.54045
1.54239
1.55645
1.55697
1.5478
1.53574
1.55052
1.49988
1.49296
1.49326
1.54387
1.55494
1.55059
1.55053
1.53964
1.4655
1.44316
1.48354
1.47307
1.50687
1.49351
1.49968
1.51514
1.50946
1.58993
1.5776
1.58166
1.57849
1.5781
1.5797
1.57756
1.57009
1.57523
1.57352
1.57649
1.5744
1.57847
1.57375
1.56684
1.58051
1.57467
1.32118
1.30888
1.30724
1.29931
1.29539
1.29997
1.30172
1.29251
1.27924
1.29765
1.28848
1.29046
1.28117
1.35416
1.35149
1.35273
1.35126
1.33928
1.33419
1.32273
1.32295
1.32205
1.31157
1.34411
1.34346
1.33826
1.34589
1.32417
1.32507
1.32248
1.32293
1.3194
1.31534
1.3112
1.31069
1.31105
1.31885
1.3266
1.31367
1.31568
1.30645
1.31135
1.31277
1.30556
1.30595
1.30149
1.30613
1.29618
1.30533
1.2971
1.38211
1.37975
1.41039
1.40752
1.37082
1.36083
1.40167
1.39962
1.37623
1.38146
1.39332
1.38763
1.39929
1.40683
1.59242
1.57923
1.59259
1.56915
1.56787
1.57608
1.57484
1.58873
1.58444
1.58313
1.5886
1.5752
1.59459
1.58636
1.5809
1.57902
1.41359
1.40309
1.40174
1.3835
1.39572
1.39816
1.37971
1.37416
1.35414
1.37055
1.36604
1.38072
1.35153
1.39804
1.42418
1.41242
1.4021
1.36094
1.35527
1.34459
1.35264
1.36481
1.36322
1.3516
1.35232
1.37562
1.36474
1.36277
1.58764
1.58537
1.57809
1.58947
1.57694
1.57585
1.59065
1.5858
1.57728
1.48242
1.5013
1.51698
1.50568
1.50572
1.51895
1.51184
1.50544
1.53196
1.53309
1.58308
1.57048
1.58608
1.51341
1.53157
1.52976
1.53012
1.50758
1.51419
1.5271
1.52201
1.52631
1.51677
1.5377
1.5367
1.51665
1.57044
1.58034
1.56781
1.55977
1.55283
1.56202
1.56194
1.56542
1.57545
1.57024
1.5981
1.58953
1.58491
1.59294
1.58965
1.58929
1.58427
1.58359
1.42013
1.41149
1.40062
1.39219
1.38991
1.40528
1.39446
1.37574
1.37888
1.36967
1.44105
1.43362
1.41763
1.45731
1.45698
1.43868
1.42424
1.33712
1.33044
1.32401
1.33332
1.32856
1.3326
1.33417
1.34221
1.33373
1.33645
1.33196
1.33241
1.34337
1.34336
1.33623
1.34378
1.5051
1.45868
1.48853
1.47518
1.49404
1.47784
1.49338
1.49644
1.47293
1.46853
1.57022
1.38605
1.55935
1.53935
1.52103
1.56198
1.53464
1.53019
1.46381
1.46824
1.48224
1.44512
1.45417
1.45182
1.447
1.46731
1.46364
1.49221
1.47938
1.32485
1.32332
1.32185
1.48637
1.47573
1.48431
1.48425
1.50243
1.50558
1.50001
1.49302
1.57055
1.58742
1.57775
1.57133
1.57629
1.57369
1.58556
1.57504
1.57673
1.58129
1.57473
1.39616
1.37589
1.40758
1.39495
1.43017
1.44151
1.41312
1.40864
1.39794
1.46546
1.44793
1.42829
1.42387
1.44153
1.42701
1.30445
1.30919
1.30936
1.31084
1.31241
1.30609
1.31845
1.3333
1.32896
1.32526
1.32998
1.32865
1.32789
1.33305
1.33384
1.33581
1.56492
1.57088
1.5772
1.57412
1.58063
1.57254
1.56956
1.56597
1.56443
1.54458
1.56487
1.55281
1.56406
1.5642
1.5655
1.56275
1.56021
1.57019
1.56216
1.55832
1.56218
1.57109
1.56563
1.52939
1.54157
1.52023
1.54899
1.55039
1.54497
1.53318
1.53655
1.53116
1.51969
1.5298
1.56227
1.56098
1.56071
1.55922
1.55882
1.56635
1.55633
1.3157
1.32588
1.31425
1.3218
1.32243
1.3243
1.31582
1.31079
1.30298
1.2972
1.30064
1.30397
1.31351
1.29655
1.30402
1.30705
1.31241
1.31343
1.30445
1.31171
1.30043
1.29486
1.56535
1.57489
1.56305
1.55522
1.57656
1.56434
1.58056
1.57407
1.57621
1.56565
1.57603
1.30158
1.28583
1.29877
1.30589
1.29575
1.3086
1.30613
1.34369
1.36765
1.3607
1.38641
1.3771
1.35156
1.35877
1.35433
1.36929
1.38139
1.33567
1.33411
1.50305
1.53619
1.53302
1.53179
1.52772
1.51061
1.51827
1.51292
1.54121
1.54342
1.51578
1.50952
1.5045
1.49979
1.51801
1.51549
1.50168
1.51339
1.5334
1.53048
1.53014
1.53419
1.40288
1.42802
1.43128
1.44398
1.44337
1.45382
1.46187
1.4065
1.46181
1.46513
1.45473
1.4599
1.42452
1.39031
1.3322
1.34777
1.36648
1.37966
1.34608
1.36899
1.34947
1.33059
1.34278
1.31301
1.36899
1.36026
1.32142
1.31989
1.32268
1.31234
1.47629
1.47195
1.49489
1.50397
1.50628
1.48624
1.47377
1.517
1.49761
1.51867
1.51707
1.48648
1.50055
1.50777
1.49841
1.50483
1.51017
1.51097
1.51021
1.49531
1.50353
1.48704
1.51344
1.51391
1.49239
1.5003
1.46876
1.46784
1.47679
1.43905
1.42555
1.45921
1.45244
1.48004
1.47877
1.31327
1.30579
1.31227
1.30747
1.32436
1.31641
1.31641
1.3179
1.32273
1.29975
1.29462
1.3003
1.28637
1.28064
1.28185
1.27902
1.2835
1.29271
1.28441
1.29177
1.28586
1.28397
1.28073
1.2924
1.28541
1.54367
1.56437
1.55386
1.56357
1.55143
1.56833
1.56306
1.56183
1.56415
1.56721
1.55478
1.55777
1.54441
1.548
1.55843
1.5344
1.53826
1.51552
1.55559
1.55449
1.55966
1.56702
1.56572
1.57497
1.56353
1.55862
1.55604
1.56404
1.54658
1.55486
1.5591
1.56235
1.55091
1.56961
1.56197
1.50985
1.5143
1.51007
1.4954
1.51392
1.49237
1.49457
1.50876
1.50766
1.49566
1.49243
1.47919
1.47908
1.46789
1.5412
1.53724
1.54279
1.54908
1.54818
1.54307
1.5331
1.52691
1.52557
1.51651
1.60958
1.59055
1.61102
1.60617
1.60792
1.58913
1.60531
1.59427
1.31833
1.3235
1.3467
1.31961
1.33502
1.3196
1.32933
1.33403
1.32515
1.30685
1.31244
1.31343
1.31444
1.31596
1.34062
1.34493
1.31606
1.30914
1.36548
1.3513
1.57037
1.57847
1.58851
1.58385
1.57636
1.5835
1.58923
1.47604
1.46893
1.47905
1.46205
1.43452
1.44163
1.48949
1.48931
1.47202
1.47002
1.49297
1.49876
1.46322
1.45388
1.50248
1.50003
1.20688
1.24154
1.20017
1.21881
1.22743
1.57364
1.57553
1.59156
1.59348
1.58229
1.58206
1.59245
1.58268
1.61039
1.59866
1.59229
1.5897
1.61719
1.61043
1.58868
1.59794
1.60419
1.59245
1.59766
1.57272
1.58762
1.58323
1.57573
1.57344
1.5878
1.57583
1.61028
1.58884
1.60864
1.60381
1.61089
1.59373
1.60711
1.60532
1.59649
1.51712
1.50548
1.52449
1.528
1.50282
1.48828
1.51436
1.50181
1.53441
1.54249
1.53698
1.63277
1.63899
1.63042
1.62416
1.63696
1.63824
1.63834
1.61743
1.67072
1.66966
1.63283
1.66266
1.63948
1.66427
1.64798
1.44029
1.42029
1.42311
1.43599
1.4099
1.45364
1.46506
1.45923
1.46463
1.41789
1.40313
1.38103
1.3984
1.4168
1.43004
1.38947
1.46127
1.47914
1.48679
1.47224
1.44995
1.44382
1.40589
1.40579
1.39455
1.39098
1.38308
1.36636
1.34395
1.36349
1.35271
1.53065
1.53045
1.51738
1.54086
1.54493
1.54779
1.53007
1.47193
1.46241
1.46484
1.45479
1.42895
1.46021
1.47468
1.48497
1.41365
1.41782
1.43825
1.42598
1.49386
1.5213
1.48444
1.46356
1.50892
1.49046
1.45527
1.47867
1.51229
1.4834
1.63394
1.64263
1.62523
1.61645
1.6029
1.6191
1.60843
1.64878
1.67609
1.67789
1.68129
1.66195
1.67522
1.66494
1.64102
1.64238
1.66444
1.64446
1.67483
1.66287
1.65279
1.66671
1.65289
1.67818
1.66036
1.66987
1.66193
1.64193
1.65861
1.66529
1.68901
1.68516
1.66707
1.67861
1.64731
1.65156
1.63749
1.61435
1.30805
1.3207
1.34738
1.3712
1.32639
1.35607
1.33474
1.37114
1.54268
1.52871
1.52559
1.51481
1.49265
1.4994
1.51036
1.51036
1.53473
1.48965
1.47355
1.45651
1.27003
1.22774
1.20677
1.24899
1.2807
1.73822
1.73462
1.72413
1.70871
1.73319
1.71876
1.73526
1.71425
1.65867
1.68405
1.67449
1.69999
1.68916
1.69463
1.69523
1.7045
1.70826
1.70143
1.68939
1.71029
1.71641
1.70287
1.72043
1.70046
1.70156
1.69473
1.63218
1.66492
1.67083
1.66344
1.65675
1.65835
1.6802
1.68784
1.70017
1.69422
1.71139
1.7009
1.70907
1.69401
1.71116
1.70476
1.71149
1.71562
1.71318
1.70157
1.69221
1.70811
1.70001
1.72606
1.70654
1.72273
1.70566
1.71275
1.70138
1.69336
1.72104
1.70807
1.69034
1.68151
1.69817
1.69384
1.67409
1.68552
1.6742
1.65734
1.63526
1.67889
1.67342
1.68478
1.69039
1.68248
1.59486
1.58568
1.56928
1.56304
1.60796
1.62092
1.61676
1.62385
1.61498
1.56086
1.57957
1.59707
1.58777
1.63624
1.61655
1.60616
1.64942
1.64367
1.64568
1.67173
1.67658
1.66111
1.64693
1.65065
1.64222
1.65538
1.67243
1.67597
1.6659
1.64604
1.65368
1.63466
1.74079
1.74121
1.72801
1.72134
1.73664
1.73836
1.73099
1.72883
1.72832
1.72135
1.74114
1.73332
1.72442
1.74138
1.718
1.70574
1.717
1.70842
1.72515
1.64946
1.66244
1.65757
1.65697
1.65704
1.61649
1.65546
1.65326
1.62612
1.60739
1.67461
1.66898
1.65203
1.6584
1.66963
1.66957
1.66312
1.60303
1.5704
1.60273
1.60871
1.56052
1.53381
1.59998
1.51839
1.48665
1.5132
1.52676
1.48668
1.47756
1.46553
1.48143
1.50015
1.71476
1.71443
1.72345
1.72402
1.72303
1.72642
1.70557
1.69221
1.72139
1.74906
1.73755
1.71999
1.72716
1.75236
1.73216
1.74315
1.7357
1.73229
1.72658
1.71009
1.73275
1.71747
1.73353
1.72471
1.72332
1.71928
1.72329
1.70896
1.72555
1.73866
1.73093
1.69743
1.73348
1.71403
1.67337
1.69518
1.6894
1.67411
1.6629
1.64842
1.68771
1.65707
1.69312
1.68987
1.55553
1.52352
1.55256
1.5025
1.53354
1.50108
1.58527
1.55827
1.53776
1.56396
1.57676
1.59379
1.58415
1.55514
1.69931
1.67957
1.67859
1.69216
1.69733
1.70621
1.70669
1.70665
1.68732
1.70006
1.69043
1.70274
1.70321
1.71543
1.70622
1.71378
1.72162
1.71721
1.72936
1.71744
1.72815
1.72067
1.70641
1.70883
1.71999
1.69637
1.70269
1.62504
1.64531
1.64027
1.63017
1.64916
1.6335
1.62201
1.63874
1.64011
1.63767
1.64544
1.62782
1.58935
1.59765
1.57674
1.58777
1.59252
1.57522
1.5964
1.57938
1.58077
1.59075
1.58336
1.4238
1.4661
1.45536
1.44127
1.42274
1.4087
1.44835
1.43452
1.46213
1.46331
1.46492
1.46701
1.45037
1.44474
1.58548
1.58569
1.58053
1.41261
1.41676
1.42761
1.42392
1.40818
1.43437
1.44675
1.44826
1.45292
1.44841
1.60502
1.6099
1.57154
1.60946
1.59394
1.58517
1.56822
1.54343
1.62068
1.59494
1.55505
1.62503
1.6221
1.61472
1.6153
1.24813
1.24515
1.29409
1.27037
1.28012
1.27017
1.25223
1.25742
1.26462
1.30778
1.29757
1.27819
1.25955
1.27907
1.28087
1.23554
1.21103
1.20717
1.18435
1.19322
1.24176
1.20046
1.22226
1.18726
1.19166
1.21397
1.21722
1.29729
1.2713
1.30986
1.30007
1.27956
1.29659
1.2761
1.26653
1.26298
1.2668
1.26247
1.26839
1.10866
1.05827
1.01229
1.0667
1.21991
1.20421
1.18544
1.13762
1.16973
1.15833
1.14118
1.15855
1.18131
1.16536
1.13824
1.12686
1.12463
1.60393
1.59569
1.61832
1.59775
1.61992
1.60511
1.60455
1.62177
1.6204
1.60893
1.59494
1.61296
1.28674
1.2521
1.27947
1.30258
1.38222
1.32068
1.34965
1.34394
1.32068
1.36559
1.42027
1.3443
1.31713
1.33423
1.26681
1.30737
1.29464
1.30802
1.29416
1.32696
1.35763
1.29968
1.2704
1.47132
1.49105
1.50618
1.56037
1.5438
1.53677
1.53658
1.52922
1.50826
1.52207
1.53237
1.69843
1.70022
1.58131
1.61374
1.63111
1.63823
1.64022
1.63645
1.62193
1.60028
1.62282
1.6817
1.68184
1.66881
1.47158
1.46501
1.48969
1.43975
1.59685
1.59468
1.59791
1.59011
1.59022
1.5952
1.53549
1.57341
1.57877
1.5732
1.54648
1.57137
1.56248
1.55218
1.58106
1.66511
1.67628
1.66398
1.65543
1.66589
1.68109
1.67413
1.66967
1.64769
1.43594
1.41454
1.39553
1.46453
1.45312
1.4377
1.45663
1.42536
1.42605
1.4183
1.39987
1.59279
1.58287
1.59554
1.59309
1.59318
1.58072
1.5625
1.50197
1.52207
1.50002
1.51151
1.58697
1.57792
1.58345
1.57649
1.5806
1.57527
1.57795
1.53521
1.57384
1.57764
1.57366
1.56516
1.58358
1.59621
1.57957
1.58563
1.59177
1.59233
1.60716
1.60394
1.60251
1.60074
1.58849
1.59987
1.57667
1.44189
1.45773
1.52421
1.54305
1.564
1.54338
1.55223
1.55901