/*--------------------------------*- C++ -*----------------------------------*\
| =========                 |                                                 |
| \\      /  F ield         | OpenFOAM: The Open Source CFD Toolbox           |
|  \\    /   O peration     | Version:  v1612+                                |
|   \\  /    A nd           | Web:      www.OpenFOAM.com                      |
|    \\/     M anipulation  |                                                 |
\*---------------------------------------------------------------------------*/
FoamFile
{
    version     2.0;
    format      ascii;
    class       surfaceScalarField;
    location    "100";
    object      phi;
}
// * * * * * * * * * * * * * * * * * * * * * * * * * * * * * * * * * * * * * //

dimensions      [0 3 -1 0 0 0 0];

internalField   nonuniform List<scalar> 
41887
(
-4.10133e-09
6.2721e-09
-1.58501e-08
1.36793e-08
-9.6567e-09
4.28236e-09
9.0652e-09
-3.69087e-09
-1.09457e-08
9.78372e-09
7.12319e-09
-5.96124e-09
5.67269e-09
7.52711e-09
8.2005e-10
-1.49219e-08
8.95179e-09
1.16436e-08
-7.39709e-09
1.31723e-08
1.40587e-08
6.42877e-09
-3.01384e-09
-6.80916e-09
1.87749e-08
-4.53818e-09
9.05159e-09
1.55329e-08
-8.2831e-09
1.08332e-08
-2.55021e-09
-4.30685e-09
4.22237e-09
-8.35253e-09
8.43719e-09
3.17005e-09
-1.53941e-09
-5.93749e-09
3.8325e-09
-2.71579e-09
1.98398e-09
-3.10061e-09
4.84113e-09
-1.33613e-09
3.27568e-10
-9.48757e-10
1.45882e-10
3.97301e-09
-3.34141e-10
-6.45229e-09
4.07081e-09
4.50184e-09
6.93676e-09
-2.75659e-09
-8.68175e-09
1.89217e-09
1.66106e-09
2.61692e-09
6.21209e-09
-2.1955e-09
4.49221e-09
2.54454e-09
1.59151e-10
-3.7059e-10
2.21548e-09
-5.52212e-10
2.82915e-09
-9.99944e-10
1.09118e-09
2.52577e-09
-2.54711e-09
2.27046e-09
-7.23119e-10
2.04647e-09
-5.13716e-09
-3.41455e-10
1.15453e-09
-7.06556e-09
5.95588e-09
-4.48171e-11
3.5335e-10
-7.00211e-09
7.80331e-09
-3.87476e-09
6.17394e-09
-1.94573e-09
1.06554e-09
-4.69253e-09
3.99102e-09
-3.64124e-10
-4.93118e-09
-4.21013e-09
5.26654e-09
-3.40983e-09
-4.55801e-10
-3.71019e-09
-5.32254e-09
2.03061e-09
-6.81466e-09
-3.96106e-09
6.75451e-09
1.25538e-09
7.39041e-10
-8.74891e-09
5.71048e-09
1.32545e-09
-2.81373e-10
8.43452e-10
-1.22211e-09
6.08913e-09
-3.61674e-09
-2.32381e-10
7.2933e-09
-6.09124e-09
-4.61189e-09
-5.79276e-11
3.14106e-09
-7.96247e-09
2.47326e-09
-7.27625e-09
5.69146e-10
1.45372e-09
-4.33143e-09
2.6988e-09
-8.07933e-09
-6.03501e-09
1.39745e-09
4.01715e-09
8.91696e-10
-2.66487e-09
-2.24396e-09
3.76154e-10
1.42898e-09
2.21201e-09
4.60203e-09
6.66598e-09
-6.6774e-09
-4.59061e-09
8.04182e-10
4.6193e-09
-8.21433e-10
-4.77327e-09
2.446e-09
2.7034e-09
-3.22433e-09
-7.44767e-10
-6.5793e-09
2.72954e-09
5.27866e-09
-2.12526e-09
-3.56244e-09
3.09112e-09
-2.85073e-09
-2.36568e-09
6.83841e-09
-6.20063e-09
2.45333e-09
1.29932e-08
-3.04815e-09
-3.2791e-09
3.69458e-09
2.99717e-09
6.30151e-09
3.07842e-09
1.58744e-09
3.15135e-10
6.1649e-09
8.62868e-10
5.25807e-09
2.6412e-09
-8.76218e-09
-6.87212e-09
2.76512e-09
-2.09372e-09
-8.85993e-09
-8.13703e-09
-5.14701e-09
1.02358e-08
-3.21806e-09
-5.19605e-09
5.39285e-09
4.59117e-09
-6.01054e-09
-7.80773e-10
-7.88724e-10
7.25022e-09
-1.56984e-08
9.23689e-09
1.03113e-08
1.20917e-08
-2.31918e-08
1.66167e-09
5.5752e-09
-8.46651e-09
1.22948e-09
7.08922e-09
-8.73949e-09
3.31193e-09
4.72125e-09
1.26792e-08
-5.29446e-09
-2.62612e-09
1.26418e-08
-2.50164e-09
2.78239e-09
-8.07777e-09
-5.612e-09
1.10637e-08
-7.93953e-09
7.11197e-09
6.77002e-10
-8.79063e-09
-6.99755e-09
-6.70898e-09
5.23996e-09
-7.42805e-09
-3.07032e-10
7.37536e-10
-3.28438e-09
2.12056e-09
-5.54523e-09
-1.98802e-09
-8.72441e-09
-2.70749e-09
-1.81429e-08
5.15201e-09
-8.03472e-09
6.40777e-10
7.08692e-09
3.94692e-10
-1.04176e-08
-6.86724e-09
2.48289e-10
-1.13396e-08
9.02674e-09
-1.1124e-08
1.8643e-08
1.15596e-08
2.0997e-09
3.82789e-09
-9.19551e-09
4.98733e-09
6.30701e-09
1.63125e-08
4.37608e-09
5.90281e-09
-2.29403e-09
-7.98472e-09
-1.20177e-10
9.44473e-09
-4.94823e-09
3.63763e-09
-2.78906e-09
5.01364e-09
-5.86214e-09
7.02021e-09
-3.50252e-09
2.74047e-09
3.78405e-09
-6.21001e-10
3.80798e-09
8.3775e-09
1.87761e-09
-6.96046e-09
-4.27598e-09
4.97296e-09
6.32321e-09
1.3989e-09
-6.60944e-10
-1.20548e-09
7.85146e-09
-1.02622e-09
-5.61932e-09
5.1566e-10
-1.01986e-08
7.98481e-09
1.69845e-09
-1.74128e-09
6.92727e-09
-7.58266e-09
2.39705e-09
-5.3173e-09
3.31711e-09
2.59216e-10
-1.7896e-09
-4.68992e-09
5.27419e-09
5.65342e-09
-3.06198e-09
-3.35239e-09
5.014e-09
-8.45358e-09
-5.63053e-09
2.59759e-11
-4.84514e-09
1.72598e-08
-1.26159e-08
2.01108e-10
2.07321e-08
-1.91085e-08
-6.46904e-09
7.98622e-09
1.42576e-11
1.27311e-08
5.74733e-09
1.94981e-08
-7.58689e-10
8.68318e-11
-1.19443e-08
-3.91883e-10
-1.94755e-08
-1.16498e-08
7.40248e-09
4.26143e-09
1.30824e-09
7.92578e-09
-5.54458e-10
-8.6798e-09
-9.04538e-09
1.04403e-08
1.02246e-11
-1.2052e-08
1.56755e-09
1.18267e-09
5.1756e-09
1.43553e-08
-7.63261e-09
-9.75784e-10
7.10458e-09
-7.64893e-09
-1.58712e-09
8.23758e-09
4.54096e-10
6.40608e-09
1.30759e-08
-3.80852e-09
-1.5674e-08
-5.44873e-09
2.06205e-08
-8.76551e-09
-7.68557e-09
1.5026e-08
-1.27893e-08
-3.68961e-09
1.70727e-08
-2.10693e-08
-2.04811e-08
1.25774e-08
-1.1813e-08
1.97164e-08
-1.80728e-08
-3.0615e-09
6.52996e-10
-1.77922e-08
-1.36361e-08
2.24304e-08
8.99764e-09
5.00686e-09
-9.72323e-09
-1.10885e-08
-5.82033e-09
-1.00274e-08
2.08545e-08
-2.7074e-08
3.93717e-08
-1.81182e-08
-1.9816e-08
1.23175e-08
2.97323e-09
-1.63372e-09
1.57332e-08
6.48356e-10
1.73509e-08
-1.31879e-08
-4.97268e-10
-1.78484e-08
3.15333e-08
-7.1346e-09
1.48043e-08
-2.08576e-08
2.84207e-08
-1.63409e-08
3.48263e-09
-1.96131e-08
1.74088e-08
-1.56443e-08
6.25765e-09
-2.69355e-08
1.06455e-09
-1.19188e-08
6.34241e-09
-1.03055e-09
6.6067e-09
-3.75367e-09
-4.03857e-09
-4.12666e-09
-1.06235e-08
4.03057e-09
1.29353e-08
1.25876e-08
-7.56326e-09
-8.7781e-09
5.9332e-10
1.37075e-09
-1.35101e-08
5.45235e-09
7.02715e-09
-9.37232e-09
-8.17636e-09
-2.27171e-09
-5.61472e-09
1.1917e-08
-1.59234e-08
1.42436e-08
2.27296e-09
-1.04056e-08
-7.66335e-09
2.14576e-09
-2.13634e-09
-1.58326e-08
-7.8793e-09
1.106e-08
1.62903e-09
6.99989e-09
-1.21299e-08
1.78362e-08
-1.33696e-08
-2.36387e-08
1.15859e-08
1.12196e-08
-9.7082e-09
1.54755e-09
-3.0592e-09
-1.55049e-09
5.13074e-09
7.63922e-09
6.13753e-09
-6.55931e-09
-2.69196e-09
3.11355e-09
-7.05217e-09
3.06366e-09
1.01259e-08
1.49535e-08
-3.52446e-09
1.27475e-09
-1.27041e-08
6.4581e-09
6.94484e-09
-6.56757e-09
5.97333e-09
-1.21489e-08
-9.77992e-10
-2.02711e-09
-1.12056e-08
-6.0026e-09
2.62074e-09
8.51251e-09
-4.78758e-09
3.32485e-10
-5.24717e-09
-6.65709e-09
4.81191e-09
7.09226e-09
-1.0956e-08
3.0168e-09
1.22181e-08
-2.56434e-09
-4.96372e-09
-4.69015e-09
-1.75304e-09
7.31402e-09
1.04963e-08
-1.64178e-09
-9.23246e-09
4.91538e-09
-1.14561e-08
-8.1672e-09
-5.35312e-09
1.09633e-09
-9.3847e-09
6.2612e-09
-8.71267e-09
1.78067e-08
-7.16262e-09
-1.96736e-09
-8.67686e-09
3.62415e-09
9.46549e-09
4.71698e-09
-1.03952e-08
8.2734e-09
5.74592e-09
-5.77367e-09
-1.17842e-08
4.41207e-09
9.78321e-09
-4.72998e-09
-6.44029e-09
-8.8142e-09
1.3287e-08
-1.70105e-08
-7.90254e-09
8.0736e-09
1.68393e-08
6.44333e-09
-7.39488e-09
-1.6059e-08
-7.21e-10
-7.38318e-10
-2.15037e-09
-1.20419e-08
7.75194e-09
-1.5319e-08
-4.17349e-09
1.07545e-09
7.51004e-09
5.97087e-10
3.50271e-09
-5.05836e-09
-3.48508e-09
9.61877e-09
3.61224e-09
7.45456e-09
-2.18974e-09
-8.75004e-09
8.63483e-09
9.05794e-09
-1.28699e-08
-4.82298e-09
1.0568e-08
-1.09869e-08
9.05367e-09
8.61769e-09
-8.64871e-10
1.30513e-09
3.28544e-09
1.59002e-08
-4.7988e-09
-2.20639e-09
-3.9819e-09
-4.34551e-09
-1.33232e-08
8.36521e-09
2.38207e-09
-1.5093e-08
7.09709e-09
3.24828e-11
1.23559e-09
-6.43674e-09
1.52148e-08
-5.49262e-09
-2.04535e-10
-1.12491e-08
1.20683e-09
1.00744e-08
7.67546e-09
-1.65427e-08
-3.99774e-09
9.46666e-09
-8.98024e-09
-3.34964e-09
1.1571e-08
7.5879e-10
-2.15511e-09
6.57078e-09
-1.3396e-08
-5.75844e-09
7.81153e-09
-5.4029e-09
4.32716e-09
-1.22407e-08
7.03018e-10
9.62517e-09
-3.75755e-09
1.45346e-08
-1.46654e-08
1.17013e-08
-5.20968e-10
8.93944e-10
1.41612e-08
6.39318e-10
1.51896e-08
-1.63503e-08
-7.01309e-09
-3.43392e-10
-6.60938e-10
8.01729e-09
-1.01762e-09
-4.92964e-09
-1.06606e-09
6.40459e-09
-1.3745e-09
-5.03275e-09
-3.73682e-10
7.94088e-09
-2.53467e-09
1.07365e-08
-3.9428e-09
1.12869e-08
-1.10896e-08
1.18102e-08
2.54536e-09
-3.26636e-09
-3.55785e-09
-9.97882e-09
8.46274e-09
1.51687e-09
-8.80278e-13
-5.28346e-09
4.47076e-09
-9.16616e-09
3.93423e-09
-6.02448e-10
-8.61526e-09
6.88167e-09
1.15321e-10
-3.06272e-09
-6.14763e-09
6.08729e-09
8.52302e-09
-5.33692e-10
-1.14324e-09
7.49614e-09
9.02356e-10
2.51371e-09
4.5014e-09
-7.6176e-09
5.60065e-09
-2.9717e-09
-5.20853e-09
4.18287e-09
4.91729e-10
4.7217e-09
-5.42889e-09
5.27162e-09
5.4181e-09
-5.08916e-09
5.88027e-10
4.70443e-09
-2.10555e-11
-5.51965e-09
4.21186e-09
5.49054e-09
-2.09998e-10
2.06789e-09
-1.30839e-10
5.55905e-09
-2.2748e-11
8.1779e-09
-2.06225e-09
2.23468e-09
4.53196e-09
3.22501e-09
6.4238e-09
-8.75357e-09
7.39143e-09
1.03339e-09
3.28777e-10
-5.90911e-09
7.647e-09
-1.04915e-08
-3.64429e-09
1.40776e-09
-1.01819e-08
1.24183e-08
1.29677e-09
-1.08499e-08
-1.06833e-08
8.80246e-09
9.27217e-09
1.19512e-09
-4.23148e-09
7.71753e-09
5.97924e-09
-1.24001e-08
1.48179e-08
-5.69261e-09
-8.10665e-09
-7.34481e-09
-5.46608e-09
2.09166e-08
-4.65416e-09
5.34969e-09
-3.59328e-09
6.58732e-09
-1.03393e-08
1.2622e-08
-5.44783e-09
-1.3763e-08
-7.79477e-09
1.60904e-08
-5.79522e-09
3.42968e-09
4.46559e-09
5.86872e-09
-1.63585e-09
-8.69817e-09
2.8685e-09
-5.43231e-09
7.02944e-09
-5.29257e-09
-8.13397e-10
-9.32772e-10
7.03885e-09
-2.29414e-09
-6.23804e-09
3.23975e-09
-9.36416e-09
1.89363e-09
7.89772e-09
-4.27257e-10
-9.58821e-09
-3.17013e-09
3.39433e-09
1.10307e-09
5.737e-09
-1.3241e-09
-5.51584e-09
3.089e-09
2.56768e-09
2.12157e-10
2.2736e-09
4.62153e-09
-8.53085e-09
-2.94238e-09
3.23214e-09
-5.57537e-09
3.39012e-10
-7.8755e-09
8.83637e-09
-4.5367e-09
-2.18292e-09
6.77271e-09
-9.03575e-09
1.04471e-09
-2.14714e-09
-4.23136e-09
-9.61877e-10
2.82042e-09
-2.43002e-09
3.34078e-10
-6.74403e-09
-1.84978e-09
3.45072e-09
5.14324e-09
-2.68071e-09
6.6507e-10
-4.72836e-09
2.89017e-09
1.3766e-09
-4.96386e-09
6.97061e-10
5.63644e-09
-3.01545e-09
-5.30175e-09
3.41875e-09
3.67966e-10
-6.82162e-10
5.36008e-09
-6.37783e-11
-4.61394e-09
2.58872e-09
-3.80658e-10
-1.53841e-09
-6.75822e-09
7.34095e-09
9.55799e-10
5.0848e-09
-1.26294e-09
-7.6724e-09
1.9927e-09
9.13058e-09
-2.69234e-09
-4.31498e-09
-5.90969e-09
-3.54091e-09
-4.16809e-09
2.52928e-09
-8.53743e-10
1.01874e-08
-1.48924e-09
5.72029e-09
-2.98303e-09
2.58683e-09
-1.09309e-09
-8.99435e-11
-3.04389e-10
6.92396e-09
-9.84686e-09
8.54969e-10
2.06722e-09
-8.84121e-09
5.83806e-09
9.92708e-09
8.59664e-09
1.60937e-09
-1.85395e-09
-6.46108e-09
3.80952e-10
1.1918e-08
-5.93303e-09
6.43286e-09
-1.32275e-08
1.27272e-08
4.21465e-09
-4.64422e-09
-2.07604e-10
-8.34043e-09
1.51542e-08
-2.5165e-10
-3.87693e-09
-1.13909e-08
-2.65821e-09
5.70819e-09
-8.21274e-09
-3.4299e-09
4.31446e-11
4.88668e-10
2.87714e-09
-4.71192e-09
2.61949e-10
-9.44774e-09
6.59902e-09
-6.48545e-09
9.33456e-09
2.4688e-09
-6.93197e-09
-4.98447e-09
-3.82231e-09
1.9896e-09
8.43194e-09
-2.22062e-10
-1.13134e-09
-8.65425e-09
2.59232e-09
-4.23756e-10
-1.41534e-08
-1.43285e-09
7.6354e-09
-4.23432e-09
-8.08676e-10
-4.97068e-09
3.56734e-09
9.0389e-09
-4.86308e-09
2.76774e-09
5.04211e-09
-2.94667e-09
-3.57334e-10
2.91801e-10
-4.79753e-09
5.6528e-09
-6.01146e-09
-3.87559e-09
3.24792e-10
8.3247e-09
3.50815e-09
-8.83737e-10
-6.21218e-09
3.58783e-09
-1.52249e-09
1.45809e-09
-4.89667e-09
4.96106e-09
2.63528e-09
-6.49723e-10
-2.12861e-09
3.03928e-09
2.28856e-09
-3.19914e-09
1.92466e-09
-4.93709e-09
4.83211e-11
7.14697e-09
-8.28342e-09
1.08797e-09
-1.12852e-09
-4.2144e-09
8.38224e-09
-3.128e-09
5.87847e-09
-3.87895e-09
-5.49761e-09
4.79649e-09
7.49326e-10
-1.50827e-09
-1.70079e-09
-1.55126e-10
2.72596e-09
6.43766e-11
2.72531e-09
-3.92862e-09
5.95968e-10
-2.16353e-10
5.49888e-09
-2.58203e-09
3.30708e-09
-4.17563e-10
-3.07649e-10
-1.19168e-11
1.16364e-09
-7.61143e-09
5.9616e-09
4.86321e-10
-4.51516e-09
4.70114e-09
9.77689e-10
5.07408e-09
-7.43291e-09
-5.25258e-09
-2.93802e-10
8.52731e-10
1.97495e-09
7.76796e-09
-8.41481e-09
-1.32808e-09
-4.30909e-09
5.25426e-09
1.02988e-09
5.42882e-09
-2.26856e-09
2.86202e-09
-6.02247e-09
8.25949e-10
3.50761e-09
-4.83137e-09
7.28537e-09
1.79103e-10
8.02965e-09
1.48778e-09
-1.11892e-08
-1.24812e-08
-2.55548e-09
1.02053e-08
4.46252e-09
-1.54559e-08
3.65547e-09
-3.72486e-09
7.83743e-09
9.0888e-09
-1.28607e-08
6.58041e-09
9.7652e-10
-9.37478e-09
-4.57622e-09
-4.10886e-09
5.45335e-09
5.63368e-10
-1.90775e-09
1.05124e-08
-6.53069e-09
-8.0906e-09
-1.28317e-08
4.26809e-09
1.4017e-08
-2.93411e-11
-2.29007e-09
1.6264e-09
1.82903e-09
-1.13857e-08
7.9303e-09
2.95391e-09
-7.85828e-09
6.32205e-09
-4.51006e-09
-1.8415e-09
9.80932e-09
-1.02179e-08
3.18702e-09
-2.68811e-09
1.13182e-09
3.66206e-09
7.47385e-09
-4.35869e-09
-6.77703e-09
-1.32701e-09
1.17968e-08
-6.8078e-09
-1.40876e-08
-3.47556e-09
9.31919e-09
8.24408e-09
-1.02694e-08
-1.59226e-08
1.21046e-08
-6.10869e-09
1.26682e-08
-7.88579e-09
1.60836e-09
3.28972e-09
-1.10066e-08
-5.17675e-10
2.58953e-09
9.72493e-09
5.86391e-09
1.09197e-09
4.73255e-09
-7.48271e-09
2.89335e-09
-9.87309e-09
6.49584e-09
-7.47218e-09
2.34955e-09
-1.37247e-09
-3.37034e-09
1.29193e-08
-3.05279e-09
-9.38352e-09
-4.70636e-09
6.61722e-09
-2.57516e-09
-3.91498e-09
6.60568e-09
2.58713e-09
7.45175e-09
-5.29454e-09
1.64086e-09
1.10477e-09
6.39825e-09
1.10642e-09
8.11308e-09
-5.08505e-09
-1.59718e-09
-3.12507e-09
2.48651e-09
2.23574e-09
-1.43724e-09
7.08311e-11
-2.30851e-10
2.1004e-09
-1.19672e-09
-2.34071e-09
5.02334e-10
-1.52692e-09
2.55325e-09
-1.94974e-09
4.22887e-09
-4.83216e-09
4.82994e-09
-1.77432e-09
2.66206e-10
-3.74074e-09
-6.39777e-10
4.1145e-09
-1.94777e-09
2.1946e-09
1.94138e-11
2.23556e-10
-3.73839e-09
3.31831e-09
1.97034e-10
2.6691e-09
4.10886e-11
-1.62337e-09
-2.53537e-10
1.15778e-09
-4.30397e-09
-4.95192e-09
6.04352e-09
4.54012e-10
-1.17709e-09
2.5515e-09
-3.01701e-09
-7.35144e-10
1.01571e-09
6.86536e-09
-3.65562e-09
-4.22576e-09
4.19075e-09
-8.89588e-10
-2.28554e-09
-6.36517e-09
-1.171e-08
4.62538e-09
1.34497e-08
-5.93265e-09
-1.6853e-09
1.25283e-09
-1.07773e-08
-2.59167e-09
-1.30391e-09
6.42405e-09
-2.52862e-09
2.8537e-09
-8.20339e-10
1.14681e-10
4.396e-09
-2.14842e-09
-2.36221e-09
2.86739e-09
-1.2171e-09
-1.53574e-09
-9.89898e-10
1.2031e-09
3.97747e-09
3.23149e-09
-5.20705e-10
-6.45217e-10
2.52265e-09
9.94305e-10
2.88885e-09
-4.52839e-09
4.45031e-09
1.45211e-08
-9.13761e-09
-3.70213e-09
-1.68145e-09
1.7805e-09
-1.40454e-09
1.41451e-08
1.2202e-10
-1.02982e-08
1.03853e-09
6.58214e-09
-6.91311e-09
4.5293e-10
-6.15889e-09
1.17511e-09
6.76427e-09
-1.36115e-10
5.59407e-10
-1.5357e-08
1.064e-09
1.28883e-08
-1.1418e-08
-7.64112e-09
-3.66549e-09
1.52474e-10
1.16776e-08
-8.16465e-09
8.48964e-09
-7.2311e-10
-1.1432e-08
2.58344e-09
-1.73323e-09
-7.76331e-09
-7.56227e-09
-7.28186e-09
-1.17311e-09
9.63005e-09
-6.35567e-09
-8.31267e-09
7.38648e-09
-7.15079e-09
6.59001e-10
-1.05171e-09
1.31132e-09
8.28274e-09
-8.44816e-10
7.25042e-09
-9.70672e-09
-9.75273e-09
9.6436e-09
-6.5473e-09
-1.21753e-09
-5.47822e-10
-6.44768e-09
-2.68753e-09
-6.63005e-09
6.93292e-09
3.39507e-09
-3.69866e-09
3.1213e-09
2.79372e-09
-1.25452e-08
2.2524e-10
-3.89978e-09
-1.52206e-09
-8.71013e-09
2.44072e-10
-1.23085e-08
1.46681e-08
-1.12658e-08
1.05007e-08
-1.39029e-08
-3.53901e-09
7.45709e-09
1.07501e-08
6.14334e-09
3.80616e-09
-1.34886e-08
-1.00569e-08
-3.587e-09
1.26143e-10
1.35179e-08
-1.25256e-08
1.14781e-09
1.12109e-10
-5.99783e-09
-1.65848e-08
6.7229e-09
5.85779e-09
-1.85786e-08
1.01409e-08
4.90001e-09
-8.31816e-09
-5.50301e-09
-6.1018e-09
1.90619e-08
-7.72655e-09
8.36681e-09
1.1883e-08
-7.0237e-09
-5.93872e-09
1.07927e-09
-7.04092e-09
1.11973e-08
-7.96022e-09
-2.65048e-09
9.23069e-09
2.05806e-09
-9.09226e-09
1.43704e-08
-3.7838e-10
-1.11947e-08
1.5122e-08
-6.69044e-09
3.0593e-09
5.02169e-09
6.18817e-09
2.82928e-08
2.08777e-09
-8.69169e-09
-2.16888e-08
1.8235e-08
1.04129e-08
-3.55606e-10
-8.17945e-09
-2.5359e-08
2.19357e-08
1.16025e-08
-2.18816e-08
2.43761e-09
1.12644e-08
5.22894e-09
-2.89359e-08
-1.65243e-09
-1.95816e-08
2.92884e-09
-2.12905e-08
1.03583e-08
-2.17877e-08
1.98413e-08
2.01812e-08
-5.02249e-09
-1.46773e-08
1.8553e-08
-6.01733e-09
-2.12275e-08
7.67529e-09
-1.4051e-08
-5.18198e-09
-9.70294e-09
-1.55021e-08
-1.81305e-08
-1.41588e-08
2.3781e-08
-2.98941e-09
-1.61918e-08
-2.45088e-08
7.19214e-09
-2.21852e-09
8.40045e-09
-1.33736e-08
1.57352e-08
-8.68952e-09
-4.75379e-09
-2.29186e-09
1.07228e-08
1.12957e-08
-6.28334e-09
-3.3402e-09
1.34478e-08
-2.16625e-09
-7.94128e-09
2.01446e-08
-1.62927e-08
-1.28131e-08
-1.08477e-09
2.46211e-08
6.43395e-09
-8.18871e-09
2.51937e-09
-7.65179e-10
-1.90258e-08
-1.39393e-08
2.01524e-08
-1.73799e-08
-1.03354e-08
-9.73941e-09
5.80749e-09
1.74032e-08
-6.99763e-09
-6.38542e-09
1.17346e-08
2.25019e-09
-6.65942e-09
-3.64315e-09
8.05215e-09
7.27695e-09
-3.62422e-09
-1.403e-09
-3.1993e-09
-5.62683e-09
4.23415e-09
-9.65194e-09
-1.80586e-09
8.93933e-10
-4.55532e-09
8.01949e-09
-6.13452e-09
-5.72695e-09
5.47612e-09
4.64213e-09
-4.03196e-09
-7.26072e-09
-6.79889e-10
-1.48695e-08
4.58821e-09
1.05189e-09
-3.67062e-09
-5.4171e-09
-1.01837e-08
2.57407e-08
-6.64967e-09
-8.90744e-09
1.2345e-08
-7.48997e-09
-1.50388e-08
-1.22719e-08
-9.24097e-09
8.50659e-09
1.30063e-08
8.96024e-09
4.50843e-09
7.79274e-09
-1.24697e-08
6.43841e-09
-1.7616e-09
5.4012e-09
1.13517e-08
-9.06511e-09
-1.00543e-08
1.48228e-09
1.62173e-09
8.36768e-10
1.09338e-08
-6.74901e-09
-5.02162e-09
-4.99991e-09
1.27561e-08
-6.91945e-09
-4.81116e-09
7.69202e-09
4.6276e-09
-7.50852e-09
-5.81787e-10
1.03137e-08
1.20189e-09
1.42725e-08
-3.64755e-10
-1.17209e-08
1.70569e-08
6.01562e-09
-7.14085e-09
1.85834e-09
-4.80242e-09
8.33124e-09
-8.52878e-09
3.56703e-09
-1.58594e-08
1.17235e-08
4.50806e-10
3.74091e-09
1.77439e-09
8.03909e-09
1.01132e-08
5.35112e-09
1.04798e-08
2.69129e-09
-1.34982e-08
3.27224e-10
-1.83297e-08
1.65433e-08
1.22662e-08
1.55944e-08
-1.22156e-08
-6.87409e-10
9.95973e-09
-9.20353e-09
1.48381e-08
6.70406e-09
-7.78788e-09
-1.24142e-08
-1.77312e-09
-9.85223e-09
2.57037e-09
2.3933e-08
9.48316e-09
-1.1754e-08
-9.94453e-09
2.31488e-08
-7.69522e-09
-5.97042e-09
3.88194e-09
1.00635e-08
-5.17708e-09
-1.26165e-08
2.03651e-08
-1.60322e-08
-1.22192e-08
2.30749e-08
-1.95541e-08
-9.09422e-09
1.92494e-08
-7.89556e-09
-1.31265e-08
-1.29201e-08
1.26155e-08
-1.24176e-08
-9.70463e-09
2.25248e-08
-4.0252e-10
-1.24179e-08
-7.69489e-09
1.74575e-08
-3.31551e-09
-5.16712e-09
-4.49663e-09
-1.50453e-08
1.41874e-08
1.28482e-09
-1.89527e-09
7.42547e-09
-6.81527e-09
-8.47177e-10
6.28376e-09
-4.15184e-09
1.25738e-08
4.34129e-09
-1.06826e-08
-6.23226e-09
1.0364e-08
-5.24746e-09
7.45726e-09
-7.59986e-10
4.95213e-09
-5.03947e-09
7.76393e-09
-1.04192e-08
1.28546e-09
6.30827e-09
-1.68046e-10
6.04001e-09
1.52906e-09
-4.58296e-09
-5.83926e-09
-2.12297e-09
-7.88536e-09
-6.37505e-10
3.93971e-09
9.21224e-09
-3.47962e-09
-1.39141e-09
1.37369e-08
5.2825e-09
-9.2829e-09
5.2056e-10
-1.04289e-08
7.826e-09
1.44291e-08
-1.73477e-08
5.70147e-09
3.48032e-09
9.11891e-09
1.54364e-09
-4.65783e-09
-7.41264e-09
9.94757e-09
-8.48769e-09
3.19228e-09
4.59717e-09
-9.04054e-10
1.48744e-08
2.10868e-09
-9.27909e-09
-7.70409e-09
6.67938e-09
-4.16602e-09
1.23611e-08
-9.22624e-09
3.14255e-09
1.2763e-08
-4.00402e-09
1.03085e-08
-6.07243e-09
-1.35152e-08
1.1883e-09
4.95418e-09
4.46503e-10
-4.90437e-09
-5.73952e-10
5.03174e-09
-4.88581e-09
-7.40182e-10
6.83436e-09
-2.74126e-09
5.3209e-09
-9.41408e-09
8.87094e-09
-1.23448e-08
1.02626e-08
-6.78883e-09
-7.1123e-09
-4.96366e-09
9.92415e-09
2.15171e-09
-1.05426e-09
2.81291e-09
6.58528e-09
-7.57251e-09
3.05897e-09
6.25148e-09
1.24515e-08
-8.35809e-09
-1.03449e-08
-9.5102e-09
-1.08489e-08
7.27362e-09
2.57515e-09
-1.676e-08
4.67459e-09
-1.66226e-08
4.37846e-10
5.33575e-09
-2.37593e-09
-3.6923e-09
-1.05544e-08
4.21979e-09
1.07163e-08
-8.05251e-09
2.18713e-08
-6.54534e-09
-1.45324e-08
9.47316e-09
5.49683e-09
-1.0935e-08
-5.05162e-09
-1.54007e-08
1.15465e-08
-1.37337e-08
1.4844e-08
1.14287e-09
-1.05906e-08
-5.39609e-09
1.49211e-08
-3.02155e-09
2.94441e-09
7.0642e-09
-3.49478e-09
-8.54853e-09
4.97893e-09
-4.19719e-09
1.24041e-08
7.17365e-09
3.66564e-09
-1.06139e-08
-2.25236e-10
-1.25159e-08
9.09907e-09
-5.77521e-09
-2.10509e-09
3.68319e-09
-7.86002e-09
-1.41005e-09
-7.16706e-09
2.28423e-09
8.1548e-09
-7.34514e-10
-1.80343e-08
6.10106e-09
-1.04622e-08
-6.30928e-09
2.57588e-09
-3.43373e-09
3.8783e-09
-1.09221e-08
5.46138e-09
-4.6801e-09
3.09701e-09
1.77206e-10
-9.54881e-09
2.04769e-09
5.03972e-09
-9.22711e-10
-8.79708e-09
-1.70085e-09
6.91778e-09
-3.50759e-10
-5.55507e-10
-4.54138e-10
-4.04322e-09
5.05283e-09
-4.0425e-10
-6.16263e-09
-5.62061e-10
-4.53025e-09
4.63838e-09
5.48372e-09
-6.45005e-09
8.49293e-10
-1.76382e-09
-5.24803e-09
-3.303e-09
1.08992e-10
-1.30821e-09
1.6258e-09
-3.62052e-09
3.40218e-09
-5.04543e-09
3.35026e-10
-4.62079e-09
1.71644e-09
2.52893e-09
9.6544e-10
3.36606e-09
-6.86031e-09
6.30207e-10
-1.72179e-09
-3.4416e-09
-1.14182e-09
5.21364e-09
4.95345e-09
-7.42946e-09
-2.39377e-09
-1.61362e-09
-2.39146e-09
6.39937e-09
-7.45264e-09
1.00125e-08
-2.86817e-09
-8.27769e-09
4.28755e-09
-7.12924e-09
1.11193e-08
6.3921e-10
-2.10316e-10
-8.70661e-09
5.2405e-09
5.81648e-10
-9.45685e-09
3.63468e-09
5.71405e-09
-1.53318e-09
1.05963e-09
-5.19597e-09
-1.07212e-09
1.05556e-08
-4.6859e-09
1.2912e-10
-7.99659e-10
-1.15569e-09
-5.174e-09
5.36933e-10
4.91209e-10
5.50441e-09
-6.82011e-09
-6.42083e-09
7.7365e-09
5.4998e-09
5.41533e-10
1.11066e-08
-6.67891e-09
4.78367e-09
-1.10222e-08
-1.76128e-09
5.74525e-09
-1.03453e-08
2.59091e-09
5.66219e-09
2.09228e-09
-7.75683e-09
-7.36634e-09
4.77794e-09
-1.50971e-08
-1.24121e-08
1.50745e-08
1.2435e-08
2.6884e-09
-1.16228e-08
-6.16246e-09
4.17956e-09
5.89489e-09
-7.48315e-09
1.71147e-08
-7.901e-09
-1.31344e-08
3.92063e-09
-4.80904e-10
7.34931e-09
-6.48029e-09
-2.28879e-09
-3.64304e-09
-6.12668e-09
-1.19764e-08
2.5995e-09
4.16614e-09
-5.748e-09
7.2563e-09
7.67815e-09
-9.18646e-09
8.89518e-09
2.47161e-09
9.92188e-09
-1.21401e-08
1.94948e-08
-9.83338e-11
-1.1461e-08
8.21604e-09
3.32206e-09
9.6999e-09
-1.07752e-08
-2.24678e-09
6.71151e-09
-3.85821e-09
4.68803e-10
-1.13386e-08
-2.68778e-09
5.21729e-09
8.80892e-09
-1.19408e-08
-4.03951e-09
4.64177e-09
-1.10994e-09
3.05886e-09
4.76253e-09
5.90216e-09
5.05764e-10
-2.0606e-09
-9.22055e-09
6.92806e-09
-6.89122e-10
-5.73291e-09
2.85206e-09
2.17858e-10
-1.41134e-09
1.33913e-08
-6.76293e-09
4.20384e-09
-8.7048e-09
7.50527e-09
-3.00404e-09
6.74642e-09
3.0949e-10
-1.52347e-10
-1.38488e-08
-1.59354e-09
-7.80012e-09
-5.7742e-09
7.42159e-09
1.2507e-08
-9.78712e-09
-1.61035e-08
1.33837e-08
3.01762e-10
3.97874e-09
8.22683e-09
-5.42869e-09
6.40093e-09
2.37839e-09
-1.1533e-08
-3.41015e-09
3.33621e-09
-1.04177e-08
8.01797e-09
-5.19307e-09
-1.15315e-08
8.70618e-09
7.48114e-10
-8.63363e-10
8.13296e-09
-5.04604e-09
6.70753e-09
-9.13676e-10
-6.02073e-09
9.2198e-09
-8.24522e-09
-9.23886e-09
1.85827e-09
3.9704e-09
-5.36594e-09
-3.3434e-09
-5.29567e-10
-1.52383e-09
4.94162e-09
-9.43863e-09
4.82197e-09
-1.15389e-08
3.35733e-09
7.11397e-09
-5.52976e-09
9.08242e-09
-3.54742e-09
-2.17777e-09
-7.92957e-09
5.51064e-09
9.12624e-09
2.70123e-10
1.02004e-09
-2.03863e-09
1.08855e-08
-2.97788e-09
8.1295e-09
1.96226e-09
7.65488e-09
-1.55048e-09
-5.75065e-09
-6.87717e-09
1.05891e-08
3.7625e-09
-4.09139e-09
1.52244e-09
4.3273e-09
-6.53536e-10
1.223e-09
-4.89639e-09
-3.17789e-09
-4.53998e-09
1.02643e-09
6.69155e-09
-6.64806e-10
1.81447e-09
3.5866e-10
-3.90793e-09
5.24756e-09
-1.69793e-09
1.5054e-09
-6.44794e-09
7.13595e-10
4.22955e-09
1.50402e-09
-3.03193e-09
3.03328e-09
-1.2904e-09
3.75033e-09
-2.10177e-09
2.67784e-09
-2.4632e-09
5.09656e-10
4.6921e-10
-5.51857e-09
-2.9053e-09
-2.958e-09
6.88908e-09
-3.45184e-09
-3.25716e-09
3.80397e-09
4.10129e-10
-4.5266e-09
-2.50291e-09
3.8623e-09
2.39191e-09
3.11484e-10
-1.37319e-10
1.41334e-09
-2.7249e-09
-2.20017e-10
-3.3634e-09
6.1787e-09
-2.34807e-09
-4.67404e-10
3.93452e-09
-1.71271e-09
-5.58583e-09
-5.50651e-09
-5.7231e-09
3.33118e-09
7.89812e-09
-4.90491e-09
6.28073e-10
-1.2298e-09
-2.19906e-10
-4.78942e-09
-7.13594e-10
-3.91032e-09
-1.2145e-09
1.57222e-09
-7.06973e-09
1.46548e-09
4.03154e-09
2.96138e-09
-1.51304e-10
-2.98403e-09
1.8673e-09
-4.92908e-09
1.34839e-09
-3.11127e-09
5.43738e-09
-2.4777e-09
2.70556e-09
-3.95019e-09
-3.33706e-09
8.63682e-09
-1.96933e-09
-2.48889e-09
-2.20305e-10
-1.10101e-09
1.26207e-09
-4.07169e-09
1.82257e-09
-2.77683e-09
-1.47408e-10
-2.16594e-09
3.46837e-09
4.13365e-09
6.58095e-10
-1.19779e-10
-8.24158e-12
7.35089e-09
-8.74908e-09
6.58236e-09
-5.18324e-09
-4.0042e-09
8.7969e-09
2.55855e-09
8.52173e-09
-3.07281e-09
-1.41973e-08
-6.26604e-10
5.14451e-09
-1.25695e-08
7.66088e-09
1.37061e-08
-4.01345e-09
-1.97334e-09
6.26213e-09
7.62127e-09
-1.69553e-08
9.22859e-09
-7.41041e-09
4.44448e-09
8.71618e-09
-5.10784e-09
2.41575e-09
1.6295e-09
5.18494e-09
1.74897e-09
9.06881e-09
-8.40169e-09
-2.82151e-09
1.2232e-08
7.52439e-09
1.95031e-08
4.45075e-09
-1.34008e-08
-1.05528e-08
2.02003e-09
1.1489e-08
5.99419e-09
1.38529e-08
9.03978e-09
-1.15699e-08
-1.13228e-08
1.26851e-08
-3.0245e-10
1.47001e-09
2.08374e-08
-7.34697e-09
8.5196e-09
1.43374e-08
7.0649e-09
-9.01355e-09
-1.14521e-08
-2.29717e-09
-1.58923e-08
6.61957e-09
1.46591e-08
6.54545e-09
-7.71133e-09
-1.89771e-09
1.66737e-08
5.75328e-09
-1.70641e-08
-1.20316e-08
7.30604e-09
-4.93124e-09
5.95217e-09
-7.91023e-09
-8.50057e-09
1.57386e-08
-8.79938e-09
1.56097e-09
-4.46712e-09
2.51448e-09
-6.54782e-09
-9.33851e-09
5.15181e-09
-2.80388e-10
-6.33128e-09
2.94486e-09
1.82254e-09
-1.28428e-11
-6.47442e-09
4.66452e-09
-1.88421e-09
-5.21511e-09
8.92202e-09
-3.94841e-09
-1.22774e-08
1.43409e-08
9.57794e-09
-1.35396e-08
-3.68454e-09
2.66392e-09
4.45968e-09
-3.43911e-09
4.93268e-09
1.48885e-09
-1.01063e-08
1.92215e-09
-7.44385e-09
2.79749e-09
2.72428e-09
5.36065e-09
-9.17982e-09
5.74128e-09
3.12085e-09
-4.91818e-09
6.72998e-09
6.99899e-09
-1.2142e-09
8.17734e-09
-5.56259e-09
-5.28129e-09
2.66638e-09
-7.77475e-09
7.92027e-09
-3.1653e-09
-9.34737e-10
4.81618e-09
-8.89e-09
3.05711e-09
-6.04131e-09
-2.58791e-09
-3.53486e-09
3.32206e-09
-7.92991e-09
-3.01014e-09
-5.70166e-09
-2.07476e-09
2.83702e-09
2.34563e-09
-3.10795e-09
3.82649e-09
8.97074e-10
-6.79854e-09
2.9105e-09
2.59987e-10
-3.33639e-10
1.94361e-09
-5.52262e-09
6.4118e-09
-2.83307e-09
5.13831e-09
-2.84551e-10
3.86218e-09
4.95384e-09
-4.98975e-09
4.59162e-09
-4.69688e-10
-6.97193e-11
-3.1074e-09
5.97443e-09
-3.55058e-09
3.9874e-09
-1.77797e-09
-6.79004e-10
8.43104e-09
-1.53702e-09
4.89718e-09
-7.13727e-09
5.51523e-09
6.21359e-09
-4.19525e-10
-1.76406e-09
2.5678e-09
5.92569e-09
-7.5966e-09
7.57446e-09
-5.07661e-09
3.79315e-09
2.30656e-10
6.60621e-09
-1.10014e-09
-5.25276e-09
-9.38137e-10
5.5117e-09
5.14657e-09
3.03998e-09
-5.07341e-09
1.14697e-08
-1.59602e-08
9.56358e-09
3.71738e-09
-1.19605e-08
3.16941e-09
6.95553e-09
-3.90972e-09
8.42352e-09
-5.37022e-09
-2.44087e-09
1.47664e-08
-2.65366e-08
-1.28066e-08
8.47154e-09
3.08716e-08
-1.66416e-08
6.47454e-09
-1.63697e-08
-4.88749e-09
-3.10579e-08
2.31388e-08
4.78659e-09
1.14411e-08
-2.11151e-08
-9.82814e-09
7.5744e-09
7.0402e-09
6.58918e-09
-1.21579e-08
-4.25954e-09
5.92144e-09
-5.94747e-09
-1.06386e-09
-8.94889e-09
-1.13188e-08
-8.75921e-09
1.47897e-08
-1.8079e-08
5.40989e-09
7.43139e-09
-1.88762e-08
-5.19676e-09
-1.17114e-08
-1.01215e-08
6.77071e-09
8.86239e-09
-1.98508e-09
-2.98992e-09
-2.84073e-09
-1.74592e-09
-7.02878e-09
1.16151e-08
-2.86524e-09
-4.94838e-09
4.97214e-09
-1.63084e-09
6.65516e-09
-5.76051e-09
1.26387e-09
6.27359e-09
-4.45651e-09
-3.8023e-09
-1.97813e-09
1.2225e-09
-5.75272e-09
-1.17421e-09
3.91039e-09
-8.13653e-09
4.57999e-09
1.55045e-10
-7.47968e-10
7.25045e-09
-1.6872e-09
8.59833e-09
-1.23932e-09
-3.02842e-09
-4.33078e-09
7.94535e-09
5.34454e-09
-4.6918e-09
-4.28517e-09
-7.00808e-09
6.85738e-09
4.43549e-09
-4.23794e-09
2.27932e-10
-2.75306e-10
7.42558e-09
-6.86991e-09
-4.79382e-09
-3.20819e-10
7.38103e-10
9.55069e-09
-3.74801e-10
-9.49689e-09
8.71813e-10
-1.47036e-09
8.54368e-09
-4.44554e-09
3.343e-10
4.98282e-09
-4.06014e-09
-1.57866e-10
-1.14823e-08
-4.06554e-10
1.04183e-08
-4.63557e-09
-8.08617e-09
-4.34968e-09
3.83453e-10
-9.40515e-11
-6.64377e-10
7.85593e-09
8.4797e-09
-2.96874e-10
-7.61483e-09
1.04162e-09
-1.85105e-10
-4.93013e-09
4.76453e-09
3.50374e-10
-4.83177e-09
7.05292e-09
3.6157e-09
-5.30825e-09
-5.36034e-09
7.53767e-09
-1.02378e-09
5.39002e-10
7.08859e-10
8.52003e-09
-9.31476e-09
8.58598e-11
-5.15974e-09
6.57592e-09
6.12149e-09
-1.11723e-09
-4.26801e-10
6.06977e-09
-1.25873e-09
-1.01193e-08
7.94184e-09
4.98823e-09
-6.86031e-09
6.35668e-09
5.61374e-10
4.29536e-11
7.24181e-09
5.73333e-09
-1.08855e-08
3.89339e-09
8.46191e-09
-1.24521e-09
-2.22851e-09
1.39788e-09
7.50495e-09
-4.41e-10
7.16194e-09
5.92593e-10
7.0088e-09
-2.52072e-09
-1.03527e-08
1.10796e-09
1.12212e-08
-1.97653e-09
-4.32135e-09
9.77437e-10
6.56177e-10
7.95669e-09
7.86107e-09
7.21625e-09
-5.29429e-11
-3.09374e-09
-4.06963e-09
3.29457e-09
-8.65422e-09
6.09011e-09
-7.30589e-10
-1.14666e-08
5.36443e-09
1.33184e-08
-5.31636e-09
-6.20319e-09
4.24197e-09
-4.04116e-09
8.3094e-09
-9.24435e-09
-3.13476e-09
-2.73713e-09
1.14134e-08
-8.9018e-09
7.39409e-09
-2.02745e-10
-8.48295e-09
3.36925e-09
-1.05269e-08
3.45686e-09
-1.95266e-09
-1.70572e-08
5.80096e-10
-1.15391e-08
-3.83831e-09
1.02613e-09
-2.63888e-09
5.45109e-09
-9.46407e-10
-3.12444e-09
2.32477e-10
-2.60655e-09
-1.17146e-09
4.80411e-09
-3.16275e-09
-3.90189e-10
-1.1599e-09
2.47332e-09
-3.95229e-09
-5.42291e-09
1.13863e-09
-3.81502e-09
-2.45266e-09
5.09642e-09
-2.24609e-09
-3.3739e-09
1.80495e-09
-9.36179e-10
-1.74082e-09
-4.85913e-10
-3.23525e-09
-5.20054e-09
3.01285e-09
-2.52156e-09
-6.60772e-10
-6.41995e-10
-2.02087e-09
2.10122e-10
-2.99955e-09
-1.01632e-09
-1.47408e-09
-3.50206e-09
-2.01877e-09
-3.50236e-09
4.4017e-09
4.56598e-09
-2.75939e-09
-6.20829e-09
7.76624e-10
2.1042e-09
1.52071e-09
3.32164e-09