/*--------------------------------*- C++ -*----------------------------------*\
| =========                 |                                                 |
| \\      /  F ield         | OpenFOAM: The Open Source CFD Toolbox           |
|  \\    /   O peration     | Version:  v1612+                                |
|   \\  /    A nd           | Web:      www.OpenFOAM.com                      |
|    \\/     M anipulation  |                                                 |
\*---------------------------------------------------------------------------*/
FoamFile
{
    version     2.0;
    format      ascii;
    class       volVectorField;
    location    "100";
    object      U;
}
// * * * * * * * * * * * * * * * * * * * * * * * * * * * * * * * * * * * * * //

dimensions      [0 1 -1 0 0 0 0];

internalField   nonuniform List<vector> 
19028
(
(-0.278193 0.916703 -0.523511)
(-0.0462385 0.753807 -0.406562)
(-0.419537 0.702664 -0.678279)
(-0.124691 0.636125 -0.258414)
(-0.0331178 0.754101 -0.355225)
(0.0510362 0.811957 -0.411999)
(0.0520571 0.805898 -0.441599)
(-0.00730872 0.760743 -0.404005)
(-0.12794 0.625984 -0.300544)
(0.0213537 0.759855 -0.426493)
(-0.0663398 0.669696 -0.321486)
(0.0564279 0.681687 -0.431277)
(0.0678529 0.722853 -0.452672)
(0.0258691 0.561864 -0.384583)
(0.0216457 0.585061 -0.397679)
(0.0643019 0.677182 -0.451715)
(0.0409945 0.590954 -0.398827)
(0.0487806 0.599552 -0.380468)
(0.0534273 0.615795 -0.390409)
(0.0581008 0.613718 -0.384263)
(0.00213061 0.540978 -0.378917)
(-0.00352562 0.495905 -0.358855)
(0.0111926 0.581876 -0.403369)
(0.0223738 0.528417 -0.354596)
(-0.00262223 0.44657 -0.333917)
(0.0151688 0.53948 -0.365923)
(0.00562779 0.492644 -0.356918)
(-0.47638 0.541613 -0.496917)
(-0.469065 0.506795 -0.500789)
(-0.4999 0.408152 -0.48108)
(-0.51199 0.337257 -0.420189)
(-0.450761 0.356384 -0.462001)
(-0.449618 0.30214 -0.42964)
(-0.427446 0.521351 -0.478597)
(-0.479121 0.565041 -0.485363)
(-0.516061 0.482418 -0.454052)
(-0.515278 0.468463 -0.465631)
(-0.549067 0.437224 -0.450239)
(-0.519886 0.3921 -0.437132)
(-0.425538 0.359919 -0.459803)
(-0.428492 0.39576 -0.473649)
(-0.467553 0.520866 -0.493038)
(-0.452318 0.571282 -0.483701)
(-0.489195 0.397321 -0.434062)
(-0.402911 0.470251 -0.48656)
(-0.447949 0.406826 -0.477736)
(-0.256605 0.33729 -0.132273)
(-0.264233 0.351389 -0.133825)
(-0.405685 0.457015 -0.155271)
(-0.366844 0.411602 -0.134326)
(-0.309756 0.376508 -0.133529)
(-0.314599 0.372253 -0.12439)
(-0.25809 0.373867 -0.153589)
(-0.254003 0.39026 -0.173724)
(-0.265078 0.448414 -0.201327)
(-0.283952 0.480815 -0.216687)
(-0.430427 0.477182 -0.191181)
(-0.427511 0.478161 -0.175963)
(-0.282426 0.489262 -0.241392)
(-0.297249 0.460504 -0.201528)
(-0.395872 0.452583 -0.153594)
(-0.303746 0.44233 -0.173624)
(-0.288842 0.502594 -0.234201)
(-0.29007 0.465856 -0.191116)
(-0.404774 0.516789 -0.233752)
(-0.385924 0.483603 -0.190059)
(-0.385976 0.441396 -0.150609)
(-0.384135 0.474379 -0.181788)
(-0.344943 0.486631 -0.210741)
(-0.261648 0.783996 -0.589908)
(-0.275954 0.784964 -0.593078)
(-0.351557 0.778529 -0.660328)
(-0.332195 0.840937 -0.642043)
(-0.331341 0.817173 -0.635596)
(-0.385757 0.778204 -0.644972)
(-0.426588 0.745565 -0.652363)
(-0.397978 0.740314 -0.62098)
(-0.344088 0.733457 -0.598645)
(-0.411726 0.726512 -0.628131)
(-0.334962 0.769117 -0.641518)
(-0.36882 0.718642 -0.639106)
(-0.282667 0.845432 -0.665518)
(-0.315766 0.775173 -0.640812)
(-0.258989 0.764824 -0.56825)
(-0.368159 0.742716 -0.641648)
(-0.341405 0.754233 -0.623689)
(-0.281137 0.860936 -0.636673)
(-0.315405 0.755576 -0.5973)
(0.207658 1.01844 -0.587014)
(0.207014 1.0171 -0.59457)
(0.211072 0.979717 -0.587864)
(0.223536 0.977537 -0.576875)
(-0.0157028 0.559885 -0.421436)
(-0.052031 0.492097 -0.365674)
(-0.00825727 0.426684 -0.383362)
(-0.0449229 0.420484 -0.359696)
(-0.0284019 0.592327 -0.414565)
(-0.0251054 0.539941 -0.400206)
(0.0115653 0.493839 -0.431577)
(-0.0438418 0.405826 -0.365841)
(-0.0199382 0.363 -0.356733)
(-0.0372443 0.475856 -0.392714)
(0.00362122 0.607728 -0.456771)
(0.0326212 0.549287 -0.464068)
(0.0195106 0.516742 -0.440545)
(0.00424508 0.474498 -0.427721)
(0.0128657 0.565322 -0.472206)
(0.014341 0.622935 -0.464901)
(0.03064 0.523152 -0.443527)
(0.0400909 0.56416 -0.465485)
(0.00905309 0.42296 -0.399154)
(-0.0188523 0.87688 -0.510981)
(0.0378951 0.932193 -0.528982)
(0.0139988 0.925086 -0.556756)
(0.0118472 0.90557 -0.535076)
(0.0150829 0.897902 -0.520337)
(0.0308606 0.932433 -0.532543)
(0.00711356 0.924202 -0.535447)
(-0.0593299 0.786892 -0.485975)
(-0.0630819 0.808771 -0.485553)
(0.0259805 0.935165 -0.537734)
(-0.080681 0.794717 -0.486762)
(-0.0716515 0.821244 -0.512687)
(0.00714697 0.879041 -0.511857)
(-0.0254467 0.818756 -0.514283)
(0.0771668 0.938839 -0.550043)
(0.0642591 0.906751 -0.523493)
(0.0757908 0.86404 -0.500894)
(0.101716 0.975261 -0.566181)
(0.0177241 0.809596 -0.484563)
(0.0263346 0.780316 -0.467801)
(0.0454165 0.893548 -0.518658)
(0.0505822 0.961727 -0.533587)
(0.0434415 0.816105 -0.500318)
(0.0495085 0.994835 -0.552315)
(0.0810312 0.987919 -0.561583)
(0.0899107 0.947608 -0.546165)
(0.0573688 0.946479 -0.547224)
(0.057278 0.890923 -0.513624)
(0.0261313 0.929713 -0.528977)
(0.0285087 0.941575 -0.551414)
(0.0158019 0.866838 -0.488112)
(0.0356112 0.912988 -0.52718)
(0.0541281 0.960893 -0.560031)
(0.0450638 0.932852 -0.545287)
(-0.0923941 0.970514 -0.533749)
(-0.0838905 0.960155 -0.524038)
(-0.110224 0.945897 -0.504459)
(-0.0815423 0.941297 -0.515568)
(-0.10424 0.942235 -0.516257)
(-0.0564166 0.998922 -0.562126)
(-0.0363864 1.00309 -0.566071)
(-0.110989 0.977391 -0.547631)
(-0.0597148 0.978914 -0.554698)
(-0.0531687 1.01684 -0.570323)
(-0.0515652 0.980775 -0.548237)
(-0.0656971 0.999857 -0.558579)
(-0.11142 0.997213 -0.556237)
(-0.000912925 1.00984 -0.59036)
(-0.0345997 0.991364 -0.554088)
(-0.0361784 0.985914 -0.552508)
(-0.445967 0.483222 -0.49332)
(-0.441897 0.537988 -0.501731)
(-0.477595 0.645392 -0.468733)
(-0.479284 0.647033 -0.470616)
(-0.362941 0.588203 -0.47177)
(-0.388055 0.579476 -0.472555)
(-0.371311 0.615502 -0.459993)
(-0.406358 0.658423 -0.460839)
(-0.445826 0.561309 -0.505291)
(-0.517696 0.495102 -0.483479)
(-0.576473 0.45647 -0.470086)
(-0.607218 0.547222 -0.476369)
(-0.535694 0.672713 -0.456729)
(-0.617939 0.522477 -0.45038)
(-0.603165 0.492249 -0.458521)
(-0.519064 0.565593 -0.474039)
(-0.411169 0.646481 -0.471819)
(-0.586108 0.484924 -0.468508)
(-0.523214 0.644438 -0.484842)
(-0.514932 0.585163 -0.493789)
(-0.497411 0.663692 -0.476604)
(-0.377745 0.768667 -0.414439)
(-0.392548 0.767912 -0.395571)
(-0.342266 0.817881 -0.441804)
(-0.298972 0.827924 -0.450604)
(-0.406607 0.789052 -0.411463)
(-0.361326 0.837959 -0.406352)
(-0.234319 0.930201 -0.508456)
(-0.193604 0.914685 -0.505779)
(-0.251305 0.917744 -0.513959)
(-0.274282 0.916995 -0.491656)
(-0.274712 0.950228 -0.486794)
(-0.388453 0.801669 -0.435507)
(-0.353913 0.823716 -0.44743)
(-0.349732 0.858734 -0.467324)
(-0.252465 0.918001 -0.522777)
(-0.320624 0.921884 -0.472744)
(-0.149997 0.963239 -0.582661)
(-0.179737 0.959798 -0.626327)
(-0.212391 0.958072 -0.569463)
(-0.201444 0.942535 -0.584217)
(-0.183498 0.949131 -0.613227)
(-0.155936 0.973263 -0.613747)
(-0.156155 0.97878 -0.601768)
(-0.174518 0.963959 -0.588719)
(-0.217217 0.955328 -0.602547)
(-0.219352 0.967588 -0.609038)
(-0.210212 0.944992 -0.588283)
(-0.168963 0.96239 -0.608687)
(-0.187939 0.936998 -0.64282)
(0.138584 0.828421 -0.487973)
(0.163099 0.926562 -0.513658)
(0.139829 0.847447 -0.476375)
(0.137438 0.841218 -0.479144)
(0.130782 0.856616 -0.491407)
(0.157728 0.916864 -0.505934)
(0.141023 0.894141 -0.507526)
(0.123951 0.885967 -0.505101)
(0.0804875 0.752939 -0.453617)
(0.0729661 0.698291 -0.436692)
(0.095951 0.810361 -0.468)
(0.0594512 0.729756 -0.4508)
(0.134734 0.837642 -0.483635)
(0.123004 0.819612 -0.473893)
(0.100858 0.8044 -0.478241)
(0.0862426 0.75254 -0.457485)
(-0.331544 0.629232 -0.485503)
(-0.333293 0.611772 -0.486388)
(-0.369976 0.610786 -0.467053)
(-0.415116 0.628637 -0.456385)
(-0.344009 0.603119 -0.48505)
(-0.351103 0.539817 -0.470585)
(-0.387095 0.655004 -0.469458)
(-0.435606 0.515437 -0.449409)
(-0.448547 0.539858 -0.430159)
(-0.421762 0.466584 -0.448391)
(-0.427242 0.469906 -0.434241)
(-0.493801 0.519872 -0.415217)
(-0.493411 0.478522 -0.409632)
(-0.44584 0.446885 -0.446364)
(-0.456411 0.422648 -0.409089)
(-0.421474 0.626758 -0.462755)
(-0.376353 0.57676 -0.477768)
(-0.500397 0.492067 -0.411521)
(-0.485975 0.521329 -0.425702)
(-0.467662 0.471897 -0.441437)
(0.0778177 0.725622 -0.49701)
(0.0801643 0.707687 -0.489935)
(0.107222 0.761084 -0.4707)
(0.0454498 0.673058 -0.464044)
(0.0817916 0.70781 -0.492692)
(0.0221535 0.639997 -0.438841)
(-0.0762698 0.666224 -0.347772)
(-0.0544377 0.663427 -0.349603)
(-0.0130116 0.686589 -0.404827)
(0.00332662 0.681666 -0.451376)
(0.0694014 0.754069 -0.469128)
(-0.0581716 0.639443 -0.359694)
(-0.0913216 0.607852 -0.311266)
(-0.0787657 0.632066 -0.320594)
(-0.0720933 0.653668 -0.344308)
(0.105247 0.601691 -0.454331)
(0.0818555 0.585678 -0.456429)
(0.0792746 0.628984 -0.463127)
(0.0889967 0.624169 -0.450898)
(0.066535 0.669827 -0.495802)
(0.0770793 0.668144 -0.492215)
(0.0724678 0.555874 -0.451283)
(0.10028 0.571974 -0.448025)
(0.118836 0.646808 -0.480115)
(0.0674298 0.579912 -0.43687)
(0.0732764 0.569523 -0.426999)
(0.106611 0.697787 -0.518141)
(0.0869092 0.644497 -0.487946)
(0.118459 0.70466 -0.516856)
(0.129291 0.731688 -0.516725)
(0.103472 0.646998 -0.458275)
(0.0910635 0.599246 -0.43933)
(0.0795529 0.585155 -0.432881)
(-0.0945818 0.40273 -0.275385)
(-0.087659 0.442091 -0.287599)
(-0.0897178 0.345424 -0.269118)
(-0.0802203 0.348066 -0.24146)
(-0.0790757 0.339213 -0.236039)
(-0.099499 0.333573 -0.287794)
(-0.0984729 0.312417 -0.267342)
(-0.104303 0.408888 -0.326092)
(-0.0988181 0.335794 -0.300496)
(-0.0922406 0.450037 -0.312401)
(-0.0869584 0.468323 -0.325405)
(-0.0918646 0.429077 -0.32284)
(-0.0844305 0.326256 -0.259491)
(-0.110294 0.400771 -0.314981)
(-0.104531 0.336165 -0.284609)
(-0.100069 0.302104 -0.239205)
(-0.105004 0.281028 -0.242531)
(-0.0580905 0.539677 -0.301758)
(-0.0587368 0.52651 -0.297252)
(-0.0309487 0.519021 -0.294753)
(-0.0384364 0.513279 -0.300883)
(-0.052879 0.516093 -0.262433)
(-0.0612706 0.664347 -0.262849)
(-0.121549 0.568231 -0.243865)
(-0.0395735 0.473329 -0.237776)
(-0.0349185 0.630507 -0.262674)
(-0.00951406 0.713307 -0.293553)
(-0.00700875 0.600056 -0.263475)
(0.0234806 0.655247 -0.261768)
(-0.0247373 0.472096 -0.235684)
(-0.00651113 0.566082 -0.246859)
(-0.0325552 0.524332 -0.245848)
(-0.049983 0.533887 -0.332882)
(-0.0612557 0.498074 -0.3296)
(-0.074174 0.469847 -0.301759)
(-0.0804774 0.415619 -0.258352)
(-0.0490523 0.541219 -0.331371)
(-0.0472629 0.531579 -0.32435)
(-0.0682468 0.581426 -0.333684)
(-0.077123 0.531306 -0.300725)
(-0.0920895 0.41714 -0.223078)
(-0.0914325 0.43029 -0.226434)
(-0.0737111 0.530088 -0.284666)
(-0.0829902 0.496408 -0.259909)
(-0.0856932 0.472038 -0.269268)
(-0.257324 0.563302 -0.329335)
(-0.267472 0.560156 -0.332486)
(-0.275001 0.529933 -0.310752)
(-0.195173 0.662832 -0.360062)
(-0.255211 0.571115 -0.308272)
(-0.224357 0.645744 -0.341581)
(-0.204562 0.652456 -0.3417)
(-0.25331 0.575622 -0.279735)
(-0.233296 0.656571 -0.366118)
(-0.200193 0.682164 -0.392522)
(-0.289555 0.488522 -0.278968)
(-0.269371 0.552795 -0.295164)
(-0.252154 0.565047 -0.281172)
(-0.27884 0.537676 -0.279758)
(-0.282561 0.502004 -0.264329)
(-0.186515 0.866245 -0.502999)
(-0.206156 0.84288 -0.503929)
(-0.15888 0.867563 -0.521942)
(-0.169427 0.850278 -0.519536)
(-0.16722 0.840681 -0.565986)
(-0.192845 0.798137 -0.535779)
(-0.149569 0.829874 -0.534621)
(-0.166398 0.809714 -0.525423)
(-0.185244 0.894459 -0.525231)
(-0.192514 0.876838 -0.518189)
(-0.150996 0.88528 -0.546329)
(-0.141083 0.954577 -0.56379)
(-0.145367 0.949583 -0.537258)
(-0.180551 0.877136 -0.563726)
(-0.187248 0.844803 -0.553258)
(-0.145414 0.939699 -0.583299)
(-0.122014 0.937419 -0.574366)
(-0.148521 0.866894 -0.562891)
(-0.313341 0.556761 -0.319134)
(-0.345955 0.591564 -0.338623)
(-0.350342 0.589572 -0.325609)
(-0.406512 0.600637 -0.34661)
(-0.306364 0.535954 -0.254291)
(-0.373098 0.572175 -0.290976)
(-0.470539 0.532202 -0.264558)
(-0.423631 0.555436 -0.286956)
(-0.287569 0.484321 -0.205648)
(-0.434263 0.541354 -0.254201)
(-0.119363 0.692102 -0.581252)
(-0.0895576 0.764083 -0.590949)
(-0.108428 0.855496 -0.608744)
(-0.0868812 0.854796 -0.600707)
(-0.0478196 0.863539 -0.580653)
(-0.0764123 0.842735 -0.591528)
(-0.109543 0.723453 -0.593445)
(-0.124029 0.700042 -0.582357)
(-0.0968423 0.770102 -0.61046)
(-0.0986758 0.871897 -0.61764)
(-0.182898 0.706065 -0.628913)
(-0.181545 0.740465 -0.617812)
(-0.173695 0.709334 -0.617155)
(-0.148097 0.725883 -0.598993)
(-0.083129 0.854646 -0.599433)
(-0.137277 0.682639 -0.602775)
(-0.186704 0.644725 -0.605619)
(-0.174046 0.662043 -0.594177)
(-0.160335 0.708427 -0.617179)
(-0.129529 0.291823 -0.192529)
(-0.12215 0.265284 -0.164333)
(-0.122237 0.308209 -0.18416)
(-0.127115 0.316675 -0.207577)
(-0.122955 0.384665 -0.220362)
(-0.118048 0.358988 -0.236788)
(-0.155118 0.331262 -0.171661)
(-0.137569 0.278451 -0.154005)
(-0.141786 0.366846 -0.21561)
(-0.132599 0.320013 -0.197184)
(-0.12151 0.275004 -0.161479)
(-0.129601 0.347914 -0.195225)
(-0.133071 0.395747 -0.23152)
(-0.142647 0.419752 -0.225337)
(-0.132711 0.317444 -0.174183)
(-0.14188 0.349004 -0.187965)
(-0.182071 0.435894 -0.200701)
(-0.171484 0.411528 -0.20573)
(-0.174856 0.466071 -0.245508)
(-0.183873 0.471065 -0.249646)
(-0.163955 0.464191 -0.256643)
(-0.190287 0.420704 -0.210834)
(-0.188421 0.434404 -0.232279)
(-0.217611 0.443805 -0.192481)
(-0.211861 0.41237 -0.179651)
(-0.185671 0.399333 -0.197275)
(-0.213796 0.461767 -0.215931)
(-0.208102 0.378309 -0.16467)
(-0.200142 0.359548 -0.158182)
(-0.212025 0.4185 -0.193338)
(-0.50537 0.735678 -0.656335)
(-0.523363 0.73465 -0.659763)
(-0.517658 0.699502 -0.660329)
(-0.53155 0.662942 -0.648515)
(-0.568172 0.654 -0.647753)
(-0.55845 0.639273 -0.646678)
(-0.508816 0.782419 -0.661598)
(-0.456202 0.791008 -0.638524)
(-0.460427 0.821416 -0.655561)
(-0.473545 0.749213 -0.636381)
(-0.53353 0.6749 -0.654567)
(-0.498802 0.744208 -0.659362)
(-0.574637 0.694405 -0.663985)
(-0.562369 0.649243 -0.660571)
(-0.561804 0.629152 -0.645066)
(-0.497179 0.776144 -0.678791)
(-0.485252 0.749721 -0.65589)
(-0.516449 0.718365 -0.663121)
(-0.529771 0.724165 -0.653497)
(-0.548838 0.66109 -0.655009)
(-0.530858 0.668044 -0.667624)
(-0.498652 0.734884 -0.646828)
(-0.172621 0.495662 -0.313773)
(-0.167464 0.483518 -0.30241)
(-0.191578 0.49929 -0.310978)
(-0.197339 0.484154 -0.302013)
(-0.183893 0.497277 -0.329486)
(-0.170937 0.470416 -0.318599)
(-0.312273 0.68838 -0.518563)
(-0.346923 0.692426 -0.554154)
(-0.378822 0.695882 -0.544416)
(-0.270761 0.646563 -0.470226)
(-0.237757 0.720027 -0.519205)
(-0.264615 0.716476 -0.537649)
(-0.270799 0.686639 -0.495259)
(-0.278233 0.64623 -0.426109)
(-0.363509 0.663084 -0.503951)
(-0.408527 0.663111 -0.519011)
(-0.435775 0.683244 -0.507387)
(-0.422057 0.652516 -0.485752)
(-0.40941 0.669089 -0.526132)
(-0.244673 0.664614 -0.449532)
(-0.336276 0.659066 -0.510791)
(-0.350616 0.671463 -0.495029)
(-0.378303 0.647168 -0.458781)
(-0.390844 0.60575 -0.488027)
(-0.306529 0.625582 -0.441898)
(0.0600583 0.996612 -0.565601)
(0.0304754 1.0124 -0.58738)
(-0.0275688 0.936198 -0.54443)
(0.00200088 0.979158 -0.564535)
(-0.00358682 0.948133 -0.529374)
(0.0172407 0.970949 -0.538915)
(0.00599595 1.00346 -0.579384)
(0.0265962 0.981529 -0.567358)
(0.0310941 0.980079 -0.55848)
(0.0331155 1.00636 -0.567831)
(0.0415012 1.00848 -0.5718)
(0.0129009 0.969318 -0.554114)
(0.0239255 1.00218 -0.565179)
(0.0317902 0.968039 -0.552998)
(0.0239183 0.988562 -0.552531)
(0.0351995 1.00766 -0.552348)
(-0.0404459 0.807771 -0.357569)
(0.0871473 0.928661 -0.470938)
(0.0776808 0.906374 -0.441305)
(0.0826739 0.933962 -0.437484)
(0.0109274 0.830616 -0.368759)
(0.068932 0.915971 -0.443313)
(-0.0120374 0.713872 -0.332153)
(0.0779548 0.94031 -0.456386)
(0.0916265 0.952787 -0.453379)
(0.0677634 0.91785 -0.446961)
(0.0568793 0.910195 -0.440751)
(0.00778279 0.785155 -0.358337)
(0.0132256 0.781464 -0.35426)
(-0.0106412 0.707567 -0.327697)
(0.025271 0.795521 -0.359798)
(-0.01805 0.780684 -0.346123)
(-0.0226037 0.693428 -0.310592)
(0.0247756 0.85968 -0.43096)
(-0.0492983 0.674962 -0.296997)
(-0.0398629 0.639914 -0.294902)
(-0.0570133 0.609043 -0.287388)
(-0.0375813 0.767542 -0.346719)
(-0.0406204 0.636545 -0.29235)
(-0.0476877 0.725274 -0.319803)
(-0.380029 0.891379 -0.537977)
(-0.344532 0.888693 -0.565026)
(-0.382111 0.876412 -0.548705)
(-0.408138 0.882475 -0.537536)
(-0.4757 0.916408 -0.539644)
(-0.451554 0.895798 -0.545839)
(-0.437957 0.926515 -0.542894)
(-0.370556 0.872921 -0.540584)
(-0.461387 0.895276 -0.519827)
(-0.447338 0.89382 -0.543463)
(-0.492072 0.874549 -0.510466)
(-0.461962 0.892107 -0.521346)
(-0.423133 0.872399 -0.538911)
(-0.486449 0.905018 -0.53941)
(-0.499502 0.874821 -0.509443)
(-0.430823 0.931494 -0.581915)
(-0.410494 0.941813 -0.56516)
(-0.469271 0.889186 -0.536192)
(-0.486451 0.89459 -0.510777)
(-0.424459 0.91842 -0.590205)
(-0.483642 0.890513 -0.522144)
(0.28032 1.01759 -0.509763)
(0.239052 0.983139 -0.48883)
(0.229938 0.987761 -0.498239)
(0.22351 0.972363 -0.502778)
(0.271466 0.994764 -0.492961)
(0.191752 0.906191 -0.45222)
(0.232298 0.984477 -0.496654)
(0.242564 0.9762 -0.488844)
(0.226853 0.97676 -0.497871)
(0.220075 0.97523 -0.497173)
(0.167975 0.97289 -0.475182)
(0.183439 1.00042 -0.485521)
(0.160948 0.970655 -0.458751)
(0.121454 0.876039 -0.409953)
(0.165202 0.955751 -0.454916)
(0.212294 1.02724 -0.508609)
(0.240911 1.02843 -0.51316)
(0.205619 0.975151 -0.453888)
(0.196371 1.02586 -0.496266)
(0.264278 1.03379 -0.498523)
(0.22561 1.02697 -0.522678)
(0.251759 1.03505 -0.495608)
(-0.137106 0.465738 -0.313842)
(-0.147355 0.444146 -0.269923)
(-0.15449 0.561518 -0.357764)
(-0.142805 0.522534 -0.340286)
(-0.16239 0.500184 -0.299333)
(-0.150463 0.514944 -0.327522)
(-0.144229 0.429954 -0.30534)
(-0.14955 0.436176 -0.286912)
(-0.170112 0.488811 -0.30381)
(-0.176259 0.458843 -0.272944)
(-0.18178 0.530953 -0.330039)
(-0.162273 0.532532 -0.33697)
(-0.16974 0.486282 -0.269703)
(-0.176279 0.470889 -0.266203)
(-0.136848 0.521857 -0.335104)
(-0.13906 0.523476 -0.333637)
(-0.16274 0.480431 -0.269806)
(-0.184189 0.449746 -0.253999)
(-0.151539 0.45458 -0.295844)
(-0.168765 0.431284 -0.275636)
(-0.143025 0.487885 -0.330887)
(-0.157058 0.425249 -0.281352)
(-0.416407 0.719409 -0.455489)
(-0.455988 0.732638 -0.463023)
(-0.495443 0.667397 -0.449973)
(-0.501856 0.656885 -0.465421)
(-0.464649 0.760435 -0.470257)
(-0.48942 0.738286 -0.47155)
(-0.535332 0.692013 -0.459679)
(-0.537589 0.743772 -0.477091)
(-0.568707 0.757854 -0.461691)
(-0.612902 0.677406 -0.429278)
(-0.617422 0.69825 -0.449855)
(-0.642909 0.637298 -0.448022)
(-0.547828 0.661946 -0.465081)
(-0.572442 0.768761 -0.457335)
(-0.602271 0.702506 -0.429457)
(-0.288854 0.599883 -0.398056)
(-0.329058 0.668396 -0.410403)
(-0.298435 0.598316 -0.430201)
(-0.271587 0.600418 -0.412516)
(-0.417638 0.715553 -0.446822)
(-0.415833 0.659174 -0.435433)
(-0.31087 0.606056 -0.445186)
(-0.348786 0.592348 -0.459288)
(-0.293813 0.660034 -0.414356)
(-0.413695 0.627234 -0.470082)
(-0.357597 0.681705 -0.441189)
(0.0559005 0.782976 -0.491101)
(0.0411885 0.773578 -0.489735)
(0.0354645 0.688551 -0.449468)
(0.0236922 0.688992 -0.453491)
(0.0658243 0.777448 -0.474548)
(0.0853815 0.822192 -0.49935)
(-0.00309441 0.643666 -0.445157)
(0.00217384 0.611973 -0.427377)
(0.0540953 0.732528 -0.462488)
(0.0739973 0.799692 -0.478421)
(0.090423 0.860613 -0.507128)
(0.0404065 0.687315 -0.444179)
(0.0624812 0.748654 -0.467449)
(-0.00172271 0.614967 -0.429473)
(0.0139985 0.652165 -0.440887)
(0.0169099 0.740241 -0.477537)
(-0.00669279 0.596907 -0.433267)
(-0.00659117 0.613636 -0.43335)
(0.0397142 0.750603 -0.462855)
(-0.0907633 0.525683 -0.261015)
(-0.0735249 0.556967 -0.288639)
(-0.0989759 0.578165 -0.286576)
(-0.0737014 0.616472 -0.329879)
(-0.0663798 0.530475 -0.277343)
(-0.091858 0.492769 -0.232573)
(-0.0997109 0.507993 -0.234071)
(-0.110783 0.487303 -0.205268)
(-0.102535 0.57779 -0.28194)
(-0.0716713 0.554328 -0.268025)
(-0.0799447 0.519111 -0.251448)
(-0.0593303 0.557145 -0.289826)
(-0.0444009 0.58722 -0.316253)
(-0.0582278 0.664938 -0.354048)
(-0.0267772 0.652435 -0.349602)
(-0.0765323 0.618595 -0.320763)
(-0.426268 0.814672 -0.667367)
(-0.427561 0.787699 -0.669647)
(-0.385955 0.827132 -0.641873)
(-0.41155 0.798002 -0.62942)
(-0.433269 0.792411 -0.655107)
(-0.453503 0.75999 -0.636353)
(-0.400473 0.838013 -0.646185)
(-0.407851 0.804612 -0.634331)
(-0.398085 0.851993 -0.62976)
(-0.422127 0.816049 -0.615969)
(-0.425311 0.844408 -0.631304)
(-0.377919 0.880519 -0.643928)
(-0.393168 0.867911 -0.640202)
(0.0955807 0.688896 -0.388175)
(0.0964467 0.694051 -0.396363)
(0.178738 0.895085 -0.524885)
(0.16329 0.857878 -0.495812)
(0.121033 0.760596 -0.436249)
(0.177808 0.906007 -0.51544)
(0.123413 0.753702 -0.429318)
(0.196222 0.948145 -0.560688)
(0.193375 0.886851 -0.520571)
(0.184461 0.881212 -0.524246)
(0.127345 0.777609 -0.456162)
(0.164967 0.892703 -0.518124)
(0.190555 0.922773 -0.531838)
(0.14531 0.839756 -0.49202)
(0.171394 0.943154 -0.547846)
(0.191832 0.952154 -0.538731)
(0.0513947 0.729439 -0.409175)
(0.0430287 0.670391 -0.384927)
(0.0881244 0.81994 -0.488511)
(0.115801 0.846573 -0.508075)
(0.0369312 0.694827 -0.399453)
(0.0484808 0.747988 -0.425227)
(0.0803039 0.740768 -0.432133)
(0.0709497 0.673123 -0.402005)
(0.0525775 0.646626 -0.395956)
(0.0871355 0.799339 -0.482511)
(0.0919297 0.704906 -0.455235)
(0.0521545 0.629195 -0.395709)
(0.129572 0.81682 -0.497045)
(0.106809 0.743886 -0.471753)
(0.0551641 0.705715 -0.420698)
(0.145821 0.815844 -0.511141)
(0.115262 0.815545 -0.511069)
(0.0804285 0.706123 -0.438879)
(0.104826 0.770757 -0.480381)
(0.136775 0.79194 -0.501735)
(0.0949131 0.695026 -0.48054)
(0.0742864 0.662517 -0.460093)
(0.0246695 0.621809 -0.412845)
(0.00830108 0.57416 -0.384989)
(0.0434706 0.56069 -0.422202)
(0.121267 0.675608 -0.500438)
(0.131445 0.674699 -0.498485)
(0.0984915 0.599913 -0.46307)
(0.105485 0.626762 -0.480265)
(0.071771 0.505518 -0.410809)
(0.103684 0.564278 -0.447668)
(-0.00350074 0.553946 -0.401831)
(0.0276158 0.5447 -0.42257)
(0.0509399 0.596884 -0.441466)
(0.0868578 0.51885 -0.41675)
(0.100719 0.529957 -0.429853)
(0.0878705 0.547997 -0.436337)
(0.105368 0.588914 -0.46337)
(0.129958 0.650598 -0.499752)
(0.0591379 0.516214 -0.421085)
(-0.0785986 0.506612 -0.294285)
(-0.0860857 0.511313 -0.310463)
(-0.0887438 0.488114 -0.303713)
(-0.0702845 0.511529 -0.304332)
(-0.0867426 0.36954 -0.290024)
(-0.08148 0.325061 -0.26182)
(-0.06884 0.390342 -0.286255)
(-0.0730343 0.296312 -0.248656)
(-0.0631409 0.583205 -0.328855)
(-0.0672595 0.428833 -0.318395)
(-0.0874005 0.338214 -0.295307)
(-0.0880335 0.402401 -0.316157)
(-0.0751482 0.342583 -0.274491)
(-0.0726335 0.261945 -0.236626)
(-0.0734785 0.408382 -0.290874)
(-0.0788919 0.253085 -0.25024)
(-0.0299989 0.427432 -0.31989)
(-0.0343224 0.389844 -0.279335)
(-0.0463839 0.406183 -0.315362)
(-0.0380005 0.351974 -0.316112)
(-0.053209 0.436751 -0.307006)
(-0.030393 0.379055 -0.313986)
(-0.0558723 0.426206 -0.255391)
(-0.0441864 0.429028 -0.293391)
(-0.043777 0.396956 -0.262184)
(-0.0285651 0.334261 -0.27138)
(-0.0266768 0.353448 -0.244339)
(-0.0265244 0.29423 -0.240233)
(-0.0376988 0.339373 -0.27947)
(-0.0425644 0.277247 -0.254202)
(-0.0236577 0.345772 -0.301326)
(-0.0291985 0.302418 -0.264709)
(-0.036009 0.307529 -0.240287)
(-0.0197591 0.254652 -0.218295)
(-0.0314015 0.265376 -0.235244)
(-0.00432607 0.709238 -0.395148)
(-0.0185168 0.714034 -0.441064)
(0.0111824 0.736983 -0.442321)
(0.00441723 0.73143 -0.475438)
(0.0325623 0.812908 -0.453334)
(0.0276637 0.842239 -0.442359)
(0.0333522 0.783558 -0.471007)
(0.108139 0.863084 -0.511917)
(0.0405032 0.861752 -0.485602)
(0.0893565 0.874699 -0.520967)
(0.0617263 0.82818 -0.517809)
(0.0499091 0.838434 -0.490129)
(0.0505004 0.88162 -0.503386)
(0.100598 0.940381 -0.554061)
(0.101553 0.966613 -0.538098)
(0.0619918 0.898345 -0.51267)
(0.0205194 0.877651 -0.486555)
(0.076735 0.932206 -0.539653)
(0.0795916 0.936441 -0.538994)
(0.0999606 0.93151 -0.541812)
(0.0566291 0.870233 -0.502655)
(0.0457299 0.900706 -0.513485)
(0.0837347 0.898018 -0.520127)
(0.0982945 0.915531 -0.520351)
(-0.0154448 0.792228 -0.437585)
(0.0812653 0.85945 -0.510721)
(0.0456375 0.851844 -0.504747)
(0.0266139 0.814404 -0.491549)
(0.0276854 0.797552 -0.439183)
(0.051769 0.798769 -0.46695)
(-0.0364961 0.549377 -0.37864)
(-0.0489858 0.572362 -0.396929)
(-0.0324171 0.617031 -0.418255)
(-0.0231154 0.626704 -0.404)
(-0.0353697 0.535175 -0.36711)
(-0.0112867 0.588421 -0.401049)
(-0.050641 0.456082 -0.336324)
(-0.0559501 0.439538 -0.339812)
(-0.0095416 0.586693 -0.389149)
(-0.0234161 0.572068 -0.379562)
(-0.00531139 0.660199 -0.439403)
(-0.0567747 0.528917 -0.392028)
(-0.025792 0.637086 -0.440525)
(-0.0217724 0.572836 -0.410232)
(-0.0416802 0.461477 -0.334168)
(-0.057883 0.456934 -0.352597)
(-0.0325269 0.529927 -0.358923)
(-0.054208 0.568336 -0.420432)
(-0.0292686 0.562352 -0.404117)
(-0.33455 0.496375 -0.242618)
(-0.328998 0.55082 -0.284859)
(-0.349502 0.476065 -0.223603)
(-0.32267 0.491919 -0.215308)
(-0.339885 0.45219 -0.185356)
(-0.366266 0.527301 -0.280761)
(-0.359219 0.456317 -0.220454)
(-0.318226 0.529519 -0.242047)
(-0.300919 0.556952 -0.247787)
(-0.340443 0.547937 -0.253484)
(-0.349484 0.499859 -0.230913)
(-0.377934 0.538451 -0.291728)
(-0.384819 0.587154 -0.33036)
(-0.290293 0.628288 -0.33654)
(-0.278966 0.620647 -0.304708)
(-0.264952 0.635289 -0.307144)
(-0.310985 0.645588 -0.354909)
(-0.345907 0.602235 -0.303178)
(-0.28673 0.655486 -0.348401)
(-0.391023 0.549513 -0.292008)
(-0.0390332 0.758798 -0.411009)
(-0.0516578 0.770237 -0.417912)
(-0.032639 0.755179 -0.425031)
(-0.0390984 0.799749 -0.442141)
(0.0411991 0.927517 -0.521083)
(0.0488619 0.903042 -0.522134)
(0.0357433 0.911729 -0.526962)
(0.00642271 0.848257 -0.496538)
(-0.0186608 0.828958 -0.481168)
(-0.0317301 0.811841 -0.455543)
(-0.0494373 0.832586 -0.452904)
(-0.0293462 0.732665 -0.408146)
(-0.0388833 0.773257 -0.421101)
(0.00584669 0.853426 -0.497638)
(0.00764181 0.807185 -0.462481)
(0.02636 0.878731 -0.502817)
(0.0159619 0.822967 -0.471792)
(-0.283024 0.656351 -0.365548)
(-0.248835 0.676874 -0.397195)
(-0.2538 0.614491 -0.319789)
(-0.27458 0.575683 -0.273095)
(-0.292172 0.62274 -0.333697)
(-0.325238 0.554501 -0.24542)
(-0.207422 0.656599 -0.344344)
(-0.202484 0.632775 -0.326557)
(-0.241122 0.578916 -0.263532)
(-0.232634 0.63212 -0.302024)
(-0.28922 0.523233 -0.223827)
(-0.31341 0.55611 -0.246287)
(-0.25908 0.589643 -0.274326)
(-0.319495 0.685473 -0.413383)
(-0.338961 0.63284 -0.39087)
(-0.311153 0.525967 -0.418476)
(-0.31366 0.475503 -0.388494)
(-0.287913 0.539162 -0.413485)
(-0.287052 0.566649 -0.428008)
(-0.232161 0.664232 -0.474081)
(-0.322029 0.665063 -0.422)
(-0.342359 0.522293 -0.389459)
(-0.349549 0.478639 -0.366035)
(-0.247917 0.739689 -0.457963)
(-0.230898 0.752313 -0.459376)
(-0.330351 0.530679 -0.371426)
(-0.31464 0.549163 -0.422874)
(-0.244656 0.650993 -0.460545)
(-0.283703 0.586374 -0.435159)
(-0.303815 0.641366 -0.409541)
(-0.306211 0.5496 -0.382413)
(-0.539816 0.795538 -0.38025)
(-0.576168 0.763244 -0.366959)
(-0.499093 0.851642 -0.455784)
(-0.569492 0.764009 -0.372839)
(-0.558159 0.768296 -0.380957)
(-0.500734 0.859873 -0.424307)
(-0.517536 0.824768 -0.399173)
(-0.534697 0.809844 -0.386967)
(-0.566442 0.787194 -0.398201)
(-0.460815 0.868812 -0.475159)
(-0.503242 0.849626 -0.429264)
(-0.536538 0.838774 -0.407991)
(-0.552712 0.794106 -0.391061)
(-0.487985 0.874243 -0.470762)
(-0.480602 0.8721 -0.482079)
(-0.472052 0.894437 -0.485996)
(-0.543642 0.840812 -0.415819)
(-0.558738 0.817443 -0.39944)
(-0.348466 0.819944 -0.658016)
(-0.345004 0.78312 -0.668923)
(-0.318618 0.842271 -0.651942)
(-0.282104 0.859553 -0.631354)
(-0.325073 0.809336 -0.658588)
(-0.333382 0.814197 -0.660328)
(-0.348264 0.813222 -0.655983)
(-0.390312 0.767653 -0.644995)
(-0.272613 0.829121 -0.632583)
(-0.270558 0.854535 -0.649803)
(-0.243259 0.868862 -0.629359)
(-0.345058 0.767054 -0.662239)
(-0.276427 0.831332 -0.644817)
(-0.230767 0.417174 -0.170704)
(-0.233632 0.395755 -0.146547)
(-0.254646 0.400812 -0.152263)
(-0.245227 0.36622 -0.122182)
(-0.232385 0.456162 -0.183739)
(-0.22139 0.432152 -0.165039)
(-0.285254 0.461873 -0.169797)
(-0.29842 0.421958 -0.145009)
(-0.254927 0.394232 -0.13055)
(-0.223365 0.426342 -0.159801)
(-0.267465 0.389619 -0.131226)
(-0.268516 0.507525 -0.201087)
(-0.306196 0.462144 -0.16829)
(-0.251288 0.436116 -0.156901)
(-0.281065 0.436398 -0.152726)
(-0.258574 0.511606 -0.196915)
(-0.254802 0.511832 -0.210059)
(-0.245689 0.512852 -0.20578)
(-0.257409 0.484047 -0.176857)
(-0.176427 0.289562 -0.18048)
(-0.171922 0.254832 -0.158502)
(-0.181636 0.358504 -0.22525)
(-0.193678 0.399403 -0.218163)
(-0.18317 0.31399 -0.184604)
(-0.206418 0.321118 -0.15815)
(-0.201896 0.388294 -0.202361)
(-0.185975 0.345156 -0.20243)
(-0.219129 0.358185 -0.169576)
(-0.627992 0.719968 -0.374724)
(-0.599319 0.75883 -0.40115)
(-0.552724 0.83789 -0.455714)
(-0.597158 0.771747 -0.40746)
(-0.57799 0.766202 -0.377244)
(-0.595687 0.724125 -0.351044)
(-0.586573 0.737225 -0.377988)
(-0.608537 0.686938 -0.358159)
(-0.548359 0.807101 -0.439587)
(-0.575682 0.74412 -0.385165)
(-0.537346 0.573845 -0.576001)
(-0.554896 0.554202 -0.560859)
(-0.490907 0.626292 -0.577755)
(-0.422003 0.682626 -0.557212)
(-0.402355 0.679145 -0.55465)
(-0.442665 0.681182 -0.578039)
(-0.498061 0.591487 -0.583703)
(-0.51186 0.577772 -0.576124)
(-0.38009 0.668777 -0.589039)
(-0.464667 0.640186 -0.593302)
(-0.392342 0.732894 -0.614507)
(-0.44453 0.665051 -0.635403)
(-0.479767 0.64432 -0.642285)
(-0.513107 0.57192 -0.601535)
(-0.484761 0.66499 -0.620555)
(-0.461779 0.697849 -0.653025)
(-0.500888 0.64536 -0.64674)
(-0.176756 0.406203 -0.398907)
(-0.1721 0.419046 -0.390563)
(-0.155122 0.325273 -0.324757)
(-0.142738 0.313763 -0.308373)
(-0.153868 0.348032 -0.348145)
(-0.132313 0.328137 -0.309821)
(-0.175656 0.441181 -0.405971)
(-0.176202 0.386068 -0.385391)
(-0.153704 0.319731 -0.327051)