/*--------------------------------*- C++ -*----------------------------------*\
| =========                 |                                                 |
| \\      /  F ield         | OpenFOAM: The Open Source CFD Toolbox           |
|  \\    /   O peration     | Version:  v1612+                                |
|   \\  /    A nd           | Web:      www.OpenFOAM.com                      |
|    \\/     M anipulation  |                                                 |
\*---------------------------------------------------------------------------*/
FoamFile
{
    version     2.0;
    format      ascii;
    class       surfaceScalarField;
    location    "50";
    object      phi;
}
// * * * * * * * * * * * * * * * * * * * * * * * * * * * * * * * * * * * * * //

dimensions      [0 3 -1 0 0 0 0];

internalField   nonuniform List<scalar> 
37124
(
2.69621e-09
8.35466e-09
-2.96166e-09
-8.08926e-09
2.39804e-09
-5.37923e-09
6.07974e-09
-3.09854e-09
6.46179e-10
-4.63621e-09
-7.44449e-11
4.06447e-09
-1.32499e-10
-4.20728e-09
-1.86394e-10
4.52616e-09
-3.1478e-09
-7.14808e-09
-6.22178e-09
1.65176e-08
-7.66056e-09
7.20289e-09
-2.69011e-09
-7.45608e-09
9.41862e-10
3.12775e-09
3.38645e-09
3.41712e-09
-6.67291e-09
-4.2003e-09
-1.71805e-08
8.82995e-09
9.29244e-09
-1.04943e-08
-3.26909e-09
-1.83972e-08
1.64171e-08
-5.16807e-09
-2.50446e-09
-1.30625e-08
-3.77755e-10
1.59447e-08
6.90267e-09
-7.3066e-09
-2.10053e-09
2.36985e-09
-2.09722e-09
4.79105e-09
-1.57563e-08
1.00232e-09
-1.04061e-08
-2.03894e-08
2.29975e-08
3.18615e-09
-8.85675e-09
3.78642e-09
-1.10946e-08
1.8127e-09
-1.54188e-08
-1.47902e-08
6.00355e-09
-1.528e-09
1.50929e-09
-5.98488e-09
6.78569e-10
5.70451e-09
-3.79611e-10
5.01676e-09
-5.88517e-09
-6.59611e-10
1.47335e-10
5.54797e-09
-5.85936e-10
-3.86865e-09
-1.43059e-09
-3.78533e-09
3.36901e-09
-2.07609e-09
2.49242e-09
-3.20804e-09
-1.16325e-09
-3.76292e-10
3.89262e-09
1.90448e-09
-4.49446e-09
1.37697e-09
1.21298e-09
3.41392e-09
-4.71748e-09
1.37146e-09
-3.36215e-11
-2.5676e-09
2.5772e-09
-3.85917e-10
-2.59626e-09
4.39556e-09
-5.72714e-09
3.92781e-09
1.24982e-09
-3.74099e-09
-1.05093e-10
5.36851e-11
-2.52071e-09
4.95059e-09
2.98378e-09
-5.41359e-09
-5.20146e-09
2.9032e-09
-2.22403e-10
-9.94158e-10
-5.46518e-09
1.25789e-09
6.26348e-09
1.66689e-09
-2.17035e-10
-7.71333e-09
-5.96697e-09
7.41301e-09
4.81747e-09
1.91444e-09
-6.21453e-09
-3.15812e-09
-3.96879e-09
6.6776e-11
7.06018e-09
7.73199e-10
1.01932e-09
-3.78598e-09
2.7204e-09
4.57889e-09
-5.79008e-09
7.8031e-09
-5.97359e-09
8.49377e-11
4.86656e-09
3.70984e-09
-6.02391e-09
1.09572e-08
-2.84347e-11
8.21352e-10
1.36067e-09
2.06894e-08
-1.11281e-08
-1.45775e-08
5.01624e-09
-4.64815e-09
9.35234e-09
1.59852e-08
8.16674e-09
-9.51449e-09
-9.78039e-09
2.05888e-09
1.45982e-09
-1.16832e-08
-1.54257e-08
4.86627e-09
2.22427e-08
-7.76252e-09
-1.86182e-09
1.61973e-08
-1.04268e-08
-1.3533e-08
-7.91346e-09
8.68507e-09
-5.59528e-09
-1.04334e-09
1.15049e-08
-7.15618e-09
5.47186e-10
-1.30446e-09
-4.55262e-09
-1.30304e-08
-8.67476e-09
4.40771e-10
2.63868e-09
-6.61829e-09
6.52194e-09
-4.92098e-09
-8.21927e-09
-1.70331e-09
1.27366e-08
-4.51138e-09
9.24738e-09
-3.53344e-09
-1.52284e-08
-7.03346e-09
-8.65488e-09
1.69638e-08
4.5225e-09
-1.30071e-08
1.56658e-09
1.03967e-08
-4.97674e-09
-6.98647e-09
-6.76525e-09
1.26144e-08
-4.28259e-09
4.19057e-09
7.17315e-09
-4.96169e-09
-6.40209e-09
-3.52838e-09
8.35216e-09
-6.33224e-10
3.43226e-09
-3.02444e-09
-5.41891e-09
7.77368e-09
1.07742e-09
6.59908e-11
9.63518e-10
9.3671e-09
1.20479e-09
1.14756e-08
-1.05351e-08
9.46557e-09
1.10254e-08
-9.95589e-09
-8.65527e-09
-1.91328e-09
3.35014e-11
-3.65649e-09
-1.75584e-08
1.25596e-08
-5.19569e-09
-4.78352e-09
6.4508e-09
-1.38139e-08
3.51822e-09
-5.84964e-10
7.9288e-10
8.18559e-09
8.89381e-10
9.53969e-09
-7.60644e-09
9.2887e-09
3.68009e-09
-7.76828e-09
3.98399e-09
-2.08285e-10
-1.62775e-08
1.25019e-08
8.337e-09
2.67941e-09
-7.03222e-09
8.60313e-09
6.10925e-09
-6.37534e-09
-7.07035e-09
-6.22615e-09
-3.83454e-09
1.7131e-08
1.3308e-09
1.20365e-08
-1.06878e-08
1.15894e-08
-1.66837e-09
-8.59025e-09
9.31786e-09
4.18057e-09
-1.90896e-09
1.23432e-08
9.01114e-09
2.08845e-09
2.50582e-09
-1.02497e-11
1.68499e-09
5.89051e-09
8.95856e-09
1.24967e-08
-4.46416e-09
-1.99764e-09
-6.03487e-09
-6.39948e-09
5.94078e-09
1.29554e-08
-7.41949e-09
-5.0061e-09
6.02611e-09
-9.4115e-09
-2.47214e-09
9.00687e-09
-8.58679e-09
1.49023e-09
1.30034e-08
1.88413e-08
-1.14103e-08
-8.45346e-09
3.4371e-09
-8.8581e-09
2.90417e-10
1.61528e-08
-1.62131e-08
-2.30108e-10
-1.856e-08
1.8744e-08
1.06365e-10
1.17435e-08
2.42254e-09
1.98678e-09
-1.3042e-08
9.65891e-09
1.51265e-08
1.07885e-08
-5.73838e-09
-2.12632e-08
5.75664e-09
-1.35281e-08
-3.16512e-09
8.86719e-09
1.00563e-08
-1.08807e-08
3.24695e-09
4.69076e-10
1.92461e-08
-1.20609e-08
2.51566e-08
-1.26266e-08
-9.12739e-09
8.22944e-09
-1.1163e-08
-2.25461e-08
1.04502e-08
1.21512e-09
-8.66556e-09
-1.53369e-09
2.01756e-08
-9.97643e-09
5.3903e-09
-1.22693e-08
-1.56671e-08
-1.06669e-08
-6.40863e-09
2.24658e-08
1.74289e-08
-4.67838e-09
-6.99391e-09
5.13639e-09
3.97119e-09
-2.19789e-08
7.21915e-09
-1.39149e-08
-6.1248e-09
-9.01077e-09
2.74939e-09
-8.02581e-10
7.06401e-09
-7.95951e-09
1.55948e-09
-2.61076e-09
-7.4842e-09
-4.53864e-10
1.06875e-08
-7.17987e-10
-5.48804e-09
-1.75345e-09
-1.17053e-08
1.31796e-08
-3.41207e-09
-4.92121e-09
1.11931e-09
2.99936e-09
-3.43765e-09
7.59364e-11
3.81076e-09
2.00701e-09
-2.82922e-09
-2.98855e-09
4.67029e-09
-1.51418e-09
6.54652e-10
-3.47705e-09
4.14249e-09
-5.57356e-09
6.76678e-09
-1.88157e-09
2.26652e-09
-9.6635e-09
-4.96923e-09
1.74214e-11
-5.53194e-09
-6.8414e-09
-7.3787e-09
1.59202e-08
-1.70005e-09
-7.42943e-09
-9.19235e-09
-1.24962e-08
1.69755e-08
-1.1858e-08
6.51142e-09
-2.64371e-08
1.40134e-08
2.46814e-08
-2.17193e-08
-1.76008e-08
4.53226e-08
-1.37085e-08
1.33941e-08
3.98584e-09
1.53477e-08
-2.6437e-08
-1.91074e-08
1.73224e-08
2.64664e-08
1.33723e-08
1.2843e-08
-2.42662e-08
1.30589e-08
2.71924e-08
-7.08851e-09
-1.21614e-08
-8.00845e-09
-4.83903e-09
-5.25051e-09
1.80977e-08
4.2929e-09
-1.8204e-08
5.90244e-09
1.25127e-08
2.54659e-08
2.34935e-08
-1.52344e-08
1.86618e-08
-1.30926e-08
1.13145e-08
1.07597e-08
-1.03206e-08
1.10063e-08
-1.37783e-08
-2.18423e-09
-7.98226e-09
-1.54133e-10
1.13983e-08
-1.05761e-09
-1.40676e-08
3.72682e-09
5.80651e-09
-4.83646e-09
1.04283e-08
2.64979e-09
6.76189e-09
-1.04693e-08
6.73867e-09
-6.27313e-09
6.02612e-09
-8.40358e-09
-5.36897e-09
-7.35271e-09
-1.11434e-08
6.03491e-10
1.18261e-09
9.35728e-09
7.26269e-09
7.45113e-09
-7.95194e-09
2.858e-09
-9.83177e-09
-7.6897e-09
-1.08746e-08
1.64631e-09
6.31609e-09
-9.73951e-09
1.07178e-10
-1.48079e-09
-1.5316e-09
-1.49372e-08
1.06689e-08
5.79994e-09
-1.33696e-08
8.41435e-09
3.42366e-09
-3.02023e-09
-4.37305e-10
-1.14797e-08
-2.92604e-09
-1.34638e-08
1.17847e-09
-3.63512e-09
1.31255e-08
8.58625e-09
-1.16929e-09
9.97397e-10
-1.59031e-09
1.1355e-08
-4.16566e-09
3.55991e-09
6.73928e-09
-6.13361e-09
1.20367e-08
1.61482e-10
-1.63638e-08
1.48098e-08
-1.16872e-08
-1.23289e-08
1.38412e-08
5.22696e-09
7.18993e-09
-7.48214e-09
-1.48548e-09
1.26601e-08
-7.5876e-09
-2.30904e-09
8.30633e-09
-8.39304e-09
-3.63864e-10
8.5979e-09
-1.13625e-08
-7.63986e-09
9.3196e-09
1.21614e-08
-3.69621e-10
-8.03124e-11
5.52504e-09
-1.64766e-10
-6.66877e-09
-8.7221e-09
9.35153e-09
6.03933e-09
-7.29811e-09
3.26355e-09
-2.63419e-09
-3.26395e-09
-4.62181e-09
-8.36323e-10
-6.15351e-09
-4.40854e-09
-6.13887e-09
1.20827e-09
1.42821e-08
-3.52863e-09
6.53307e-10
2.46615e-09
1.2934e-09
-9.91304e-09
9.9865e-09
5.9767e-09
-1.3497e-08
2.68366e-09
2.68105e-09
-6.97211e-09
2.08717e-09
1.35633e-09
-5.74891e-09
-8.06614e-09
1.50233e-08
-4.83308e-09
-8.92237e-09
8.00654e-09
3.52592e-09
-9.20457e-09
1.54778e-08
-2.13623e-10
-9.28748e-09
8.99645e-09
9.165e-09
-3.77313e-09
1.02721e-09
-1.28389e-09
2.21423e-09
-1.04978e-08
2.91508e-10
9.14904e-09
-5.83673e-09
-5.12183e-09
-8.33175e-09
-5.47272e-09
1.85253e-09
1.19519e-08
-5.06741e-09
-4.93171e-09
1.66734e-09
7.06641e-09
-7.39901e-09
-4.73484e-09
-1.88129e-09
3.47497e-09
3.4181e-09
-8.3399e-09
-9.9231e-12
-9.48637e-09
-6.90949e-09
1.82484e-08
-1.28133e-08
6.74502e-09
-6.9459e-09
-1.1727e-08
1.17634e-08
4.25631e-09
-1.30835e-08
4.82333e-09
-3.73924e-09
-1.28111e-08
-1.98092e-09
-1.26462e-09
-5.09438e-09
-3.98482e-09
-5.39513e-09
5.89145e-10
-8.57915e-09
-1.26579e-08
3.83352e-09
5.57998e-09
3.24436e-09
-6.02285e-09
2.08839e-08
-5.62808e-09
-9.23304e-09
1.93951e-08
-7.89362e-09
-1.75244e-08
-7.4807e-10
-6.17973e-09
6.97593e-09
-4.82068e-11
-1.05378e-08
1.0697e-08
-9.07282e-10
-6.1948e-09
4.24518e-09
-4.23012e-09
-3.0068e-09
-1.37259e-08
2.36464e-08
-1.45895e-10
-4.10534e-09
5.62912e-09
1.24043e-08
2.85049e-09
1.77276e-08
1.15479e-08
4.16456e-09
-1.5065e-08
7.36976e-09
-8.83328e-09
-9.2926e-09
-1.58121e-09
1.10057e-08
-1.31935e-10
-3.41716e-09
-7.74905e-09
1.87361e-09
1.38865e-08
-6.76369e-09
5.2815e-09
-1.06354e-09
1.33688e-08
-2.36126e-09
1.29124e-08
1.49648e-08
1.6992e-09
-5.78238e-09
9.62351e-09
3.1348e-09
5.79643e-10
-2.11685e-09
-1.46184e-09
7.66817e-09
-1.14326e-08
-3.08012e-09
-3.48322e-09
-1.08958e-10
6.94383e-09
-6.71166e-09
-1.23198e-10
-4.14003e-09
-1.43884e-10
4.17496e-09
9.20229e-10
-3.04417e-09
9.06777e-09
-8.09874e-09
7.68848e-09
2.6859e-09
-2.27567e-09
7.30358e-09
-6.32996e-09
-9.07234e-09
4.61544e-09
-7.82374e-09
-3.50336e-09
-4.3607e-10
9.11489e-10
-4.87513e-09
-5.83437e-10
-3.61517e-09
-5.24217e-10
-3.43067e-09
-3.59054e-09
4.53323e-09
6.74579e-09
2.43793e-09
1.27511e-09
4.42193e-09
-8.02516e-09
-2.72671e-09
-3.88444e-09
-3.18873e-09
1.74222e-09
7.97138e-10
-1.45476e-09
1.19332e-09
8.35002e-09
-8.08857e-09
-4.26249e-10
6.09708e-09
-7.12556e-09
1.6579e-09
-9.84043e-09
7.75634e-09
1.8981e-09
1.00233e-08
-1.04788e-08
-1.44261e-09
-1.34081e-09
1.23267e-08
-9.08772e-09
4.33438e-09
-3.55753e-09
-2.11765e-09
3.38218e-10
-7.4246e-09
1.41055e-09
-1.08429e-08
-1.04317e-08
-1.04751e-08
1.29614e-08
6.09376e-09
-6.54556e-09
2.35982e-09
6.55955e-09
-4.58498e-09
-5.73767e-09
-1.29993e-09
-3.87e-10
1.23775e-09
-5.98685e-09
-4.67227e-09
-4.52165e-09
-6.24255e-09
-4.16739e-09
7.55223e-09
-2.3441e-08
1.06293e-08
5.25958e-09
-2.75136e-08
2.1966e-08
1.31e-08
4.71151e-09
-2.7993e-08
-4.23211e-09
-1.60682e-11
-1.87134e-08
-1.50266e-08
-2.61856e-09
-8.45363e-09
2.60989e-08
-1.02847e-08
5.88737e-09
-1.63618e-08
3.57092e-08
8.17564e-09
-1.7216e-08
-1.89526e-08
-1.33442e-08
-1.25805e-08
1.74711e-08
-2.12794e-08
-2.34951e-09
-2.66613e-08
-3.36757e-09
1.36673e-08
-1.28802e-09
1.52632e-08
-7.8659e-09
-8.88075e-09
1.51439e-08
-7.55105e-09
-5.15178e-09
-1.33338e-08
-2.15509e-08
5.68082e-09
6.98937e-09
-1.99446e-08
3.99653e-09
1.81476e-08
6.09589e-09
-9.09954e-09
1.21314e-08
-2.36625e-09
-1.14824e-08
-6.83302e-09
4.17053e-09
-1.87731e-09
4.53983e-09
3.47958e-09
-5.66247e-09
-4.65011e-09
-6.70483e-09
3.58298e-09
7.29242e-09
-1.00203e-09
-2.22319e-09
2.46168e-09
-8.32648e-09
3.98752e-09
7.81993e-09
-5.46267e-09
-3.35925e-09
-8.4213e-10
1.2245e-08
3.27636e-09
-4.48349e-09
3.66882e-09
2.10932e-09
-4.77244e-09
-3.00541e-09
-3.21175e-09
-7.04459e-09
9.47884e-09
-6.44682e-09
1.87645e-09
8.69209e-11
-5.30975e-09
-3.46698e-09
5.06834e-09
-7.56209e-09
2.39399e-09
-3.41562e-10
5.43477e-09
8.2317e-09
-3.14218e-09
-1.05243e-08
1.38544e-08
4.19526e-09
-1.26149e-08
6.49778e-09
4.01975e-09
3.33688e-09
1.24693e-08
-7.95208e-09
5.63911e-10
-5.08113e-09
6.46361e-09
-2.74586e-09
5.75453e-09
-9.47233e-09
-6.20608e-09
-7.17988e-09
1.98496e-08
1.32192e-08
-3.79339e-09
-1.19411e-09
1.35109e-08
1.69611e-08
-2.44812e-08
4.77421e-09
-1.4621e-08
2.44021e-08
3.22063e-09
-4.62142e-09
1.387e-08
1.55431e-08
4.48296e-10
-1.27708e-08
-2.40117e-09
-6.53692e-09
-1.03011e-08
-6.72106e-09
-4.39484e-09
-9.69967e-09
1.67935e-08
2.51359e-09
-2.34322e-09
-4.58743e-09
5.52627e-09
1.58546e-08
1.91461e-09
5.00279e-09
-4.90298e-09
4.58792e-09
2.22961e-09
5.54813e-09
-5.97913e-09
-4.47201e-09
9.17875e-09
-3.16075e-09
6.88324e-10
-6.70631e-09
7.21715e-10
5.96603e-09
2.49099e-09
-5.05019e-09
2.64518e-09
6.99287e-09
-5.75759e-10
1.07364e-09
-9.60458e-09
7.51484e-10
1.43793e-08
-8.02126e-09
9.30226e-10
-1.06333e-08
3.33376e-09
-9.27158e-09
2.36407e-09
8.88518e-09
-5.8328e-09
6.42609e-09
8.42511e-09
-5.16909e-09
8.56572e-09
6.81215e-10
-2.89366e-09
3.06592e-09
-4.09128e-09
3.91904e-09
1.24299e-09
3.54231e-09
-7.67892e-09
-1.16908e-09
-1.29692e-09
-3.16154e-09
4.7674e-09
-2.77495e-09
3.25847e-09
-5.17698e-09
4.3268e-11
-1.31539e-10
3.63062e-09
1.36934e-09
-4.40984e-09
3.05794e-09
-9.79792e-10
-2.52921e-09
4.16364e-09
-2.05892e-09
2.44847e-09
-1.24158e-09
1.59916e-09
3.33814e-09
-3.63664e-11
-1.26466e-10
-2.58874e-09
1.85988e-10
-2.18786e-09
2.50513e-12
2.57421e-10
2.00602e-09
-4.8522e-09
2.67247e-09
-5.40361e-09
-9.12751e-11
-2.83657e-09
-3.9247e-09
-1.98659e-10
6.95979e-09
5.07761e-09
-5.68673e-09
-2.22763e-09
-4.54652e-09
3.70061e-09
5.92339e-09
-2.88168e-09
-4.58826e-09
8.79086e-09
-1.32103e-09
-5.12557e-09
2.37467e-09
-1.30859e-10
1.33211e-08
-8.48747e-09
1.88391e-09
-6.71767e-09
8.75028e-09
-3.35648e-09
7.92728e-09
-9.45833e-09
1.36203e-08
1.15441e-09
-9.83596e-09
-7.76834e-10
8.91926e-09
-3.64584e-09
-1.3761e-08
1.63802e-09
4.63124e-09
-3.78833e-09
-6.52978e-09
3.43935e-10
-2.59279e-10
-4.74036e-09
7.69157e-10
-4.84053e-09
-3.11154e-09
3.34428e-09
-1.07785e-08
-4.28251e-09
-1.13965e-10
-5.77877e-09
-6.96725e-09
5.61334e-09
-6.40022e-09
7.75413e-09
-7.86279e-09
1.15025e-09
-2.54672e-10
-1.5399e-08
-1.59717e-09
1.34594e-08
3.53684e-09
-7.85233e-10
2.2312e-09
-1.6845e-08
-1.07296e-08
-8.92802e-09
1.34315e-08
-1.41012e-08
1.77451e-09
-1.23878e-09
1.85047e-09
-1.61252e-08
-1.51989e-08
6.51228e-09
3.40285e-09
5.28374e-09
2.27039e-09
-1.52381e-08
-1.6706e-09
-7.95109e-09
1.5235e-08
-8.6263e-09
-2.24929e-09
4.47541e-09
-1.00137e-08
-6.47537e-09
1.07461e-08
9.22558e-09
6.70615e-09
4.47601e-09
1.57817e-08
-9.21769e-09
-7.58018e-09
8.84676e-09
-7.97688e-09
-9.05525e-11
1.00382e-08
6.74547e-10
-8.4424e-09
5.86089e-09
-7.29774e-10
-6.57257e-09
-8.89299e-09
3.52638e-09
-4.41454e-09
-5.51369e-10
1.43951e-09
-3.83965e-09
9.59743e-10
5.41858e-09
-2.5387e-09
-3.92357e-10
7.90766e-11
9.90926e-09
-4.18463e-09
-3.36481e-09
-2.31536e-10
7.36424e-09
2.77654e-09
-1.07568e-08
2.80961e-09
7.71566e-09
-5.65948e-10
-5.18886e-09
-5.002e-09
-5.70784e-09
4.00762e-09
-2.08617e-09
3.78637e-09
-3.35658e-09
-2.91721e-09
-5.23863e-09
-3.36054e-09
-1.84474e-09
-8.67377e-10
3.67186e-09
-1.926e-09
-3.11121e-10
2.62959e-10
-5.26852e-09
5.15493e-09
-1.49373e-10
-4.83468e-09
-3.71898e-09
5.94985e-09
2.79279e-09
-4.04308e-09
-2.10629e-09
4.35404e-10
2.71201e-10
-1.91219e-09
4.21593e-10
-5.67733e-09
-3.72071e-09
4.15941e-09
-5.24484e-09
-1.69528e-10
-7.40039e-09
1.19665e-09
2.48303e-09
-8.7283e-09
-3.91693e-09
-7.21155e-09
3.56658e-09
4.84164e-09
3.47439e-09
-4.74738e-10
-1.02112e-08
-5.92746e-09
1.86064e-09
5.09294e-10
1.06345e-09
-6.31736e-09
2.47079e-09
-8.87299e-09
-6.01599e-09
3.04197e-09
-3.49647e-09
-7.08599e-10
-5.67069e-09
2.12551e-09
-3.09753e-08
8.56325e-09
1.10978e-08
1.13142e-08
1.32554e-09
1.00967e-09
-3.33105e-08
2.36806e-08
1.34914e-09
-2.37042e-08
-3.78193e-08
2.34493e-08
2.29333e-08
1.11478e-08
-2.52866e-08
-2.55877e-08
1.52757e-08
2.14098e-08
1.86972e-09
-2.64478e-08
-4.56497e-10
-1.33261e-08
1.51317e-08
-1.42468e-08
1.23033e-09
3.64657e-08
3.48743e-09
-6.58643e-09
1.83301e-08
-1.69169e-08
-7.20326e-09
-2.13881e-08
9.26021e-09
1.93312e-08
-9.33984e-09
4.25297e-09
-2.11644e-09
-1.23979e-08
2.57662e-08
-2.83738e-08
-3.15852e-08
2.86654e-08
3.12936e-08
5.00448e-10
-2.09114e-08
-7.96287e-09
-2.01275e-08
2.51553e-09
1.83917e-09
1.57728e-08
-1.40756e-08
-5.55143e-09
2.12638e-08
-1.66762e-08
-2.54991e-08
-3.49111e-09
-6.83023e-09
4.8166e-09
2.63643e-08
-1.44139e-08
2.05794e-08
-9.78233e-09
3.61682e-09
-1.83648e-08
-1.01247e-08
1.77972e-08
1.68411e-09
-2.15967e-09
1.47435e-08
-1.4268e-08
-9.8717e-10
1.46352e-08
-1.1964e-08
2.54398e-09
1.1729e-08
-1.64327e-08
-1.51194e-08
1.5553e-08
-2.21887e-08
-2.18145e-09
2.21657e-08
-1.8575e-08
-7.08181e-09
2.74306e-08
3.0152e-09
2.09437e-08
-9.21543e-09
2.27573e-08
-5.10687e-09
1.77961e-09
2.74167e-09
1.64225e-08
5.96196e-09
-1.44955e-08
1.30269e-08
6.06373e-10
8.62322e-10
7.47232e-09
-7.19811e-09
-1.47698e-08
-1.12988e-08
8.80761e-09
-1.0578e-08
1.30692e-08
1.28847e-10
-3.36008e-08
2.21732e-08
9.92548e-09
5.64754e-09
-8.10071e-09
1.83694e-08
4.58297e-09
8.20884e-09
4.26933e-09
2.04067e-08
-3.28849e-08
3.59605e-09
9.4235e-09
5.34985e-09
-1.45161e-08
9.88886e-09
8.22331e-09
1.41784e-08
-2.12477e-08
1.32309e-08
1.55385e-09
1.60621e-09
1.63573e-08
-9.15599e-09
-7.26235e-09
1.89204e-08
3.87783e-10
-1.60346e-09
-1.77048e-08
7.36346e-09
1.97658e-08
6.98314e-09
1.36435e-08
-2.0702e-09
-3.90314e-09
1.53969e-08
1.48018e-08
1.47486e-08
-1.12995e-09
1.8209e-08
6.40068e-09
5.80511e-11
-3.3354e-09
-3.12333e-09
3.29814e-09
-1.02094e-08
8.52593e-10
6.0587e-09
3.96245e-09
-2.27056e-09
7.24075e-09
-8.93274e-09
4.93929e-09
-6.84054e-10
2.14549e-09
7.02127e-09
-3.66506e-09
-2.03013e-09
6.23466e-09
7.34809e-10
4.27938e-10
2.40735e-09
5.06654e-09
-7.90184e-09
-7.85383e-10
1.05871e-08
-8.31748e-09
-1.4844e-09
1.24272e-08
2.45646e-09
-1.09212e-08
4.00133e-09
8.85382e-09
-5.70729e-09
7.66008e-10
8.94259e-09
7.61707e-10
4.31935e-09
-1.07883e-08
6.59858e-09
-1.60742e-09
1.91126e-09
6.73067e-09
4.09403e-09
3.26629e-09
6.77128e-09
-4.1041e-09
-9.37754e-09
6.99896e-09
6.48272e-09
-1.08195e-08
5.55546e-09
1.15992e-09
5.92914e-09
9.76628e-09
-1.0818e-08
-4.87739e-09
-5.97217e-09
1.08179e-09
3.00306e-09
-1.33297e-08
-4.65276e-09
1.49794e-08
-5.05534e-09
-2.50013e-10
8.30842e-09
1.01759e-08
-1.78636e-10
2.70529e-09
-1.27025e-08
-8.51562e-10
-3.35213e-09
3.74077e-09
-4.00693e-09
1.46227e-08
7.54137e-09
-5.99286e-09
-1.77991e-08
4.32216e-09
3.07024e-09
-1.40669e-08
-3.60535e-09
-2.14591e-09
-1.64375e-08
-1.83342e-08
-1.27703e-08
-3.11579e-09
-1.10948e-08
9.58418e-09
4.62632e-09
8.13198e-09
-1.20094e-08
7.61595e-10
-7.21733e-09
-1.44409e-09
-2.43339e-09
-1.46846e-10
-6.80747e-10
8.95951e-09
1.05531e-08
-1.11572e-09
2.57742e-10
-4.81858e-09
-1.70805e-10
4.73158e-09
-4.69614e-09
4.90151e-09
5.23643e-11
4.73136e-09
-5.79254e-09
-3.7574e-09
1.43418e-11
2.08722e-11
-7.93613e-09
1.94555e-09
-6.01885e-09
-3.36115e-09
-1.17923e-08
-1.08875e-09
-1.41199e-09
-3.2918e-09
3.58247e-09
-1.20664e-09
-3.4646e-09
6.24762e-10
4.28856e-09
-1.18556e-11
3.63368e-09
-3.68649e-11
-6.77912e-09
6.72313e-09
-1.1999e-09
1.36241e-09
-5.93023e-09
5.87305e-09
-5.92265e-09
-2.5478e-09
6.97674e-09
6.54874e-09
6.02787e-09
-8.48328e-09
-4.09341e-09
3.99291e-09
-7.49542e-09
1.00513e-08
1.25263e-08
-2.18805e-09
-1.15601e-08
1.2218e-09
8.97659e-09
9.06819e-09
-5.51853e-09
-1.17786e-08
-1.63701e-09
3.25996e-09
1.01557e-08
2.85279e-10
-6.13021e-09
-5.93373e-09
-5.88051e-09
1.21936e-08
8.65145e-09
-6.39687e-09
4.48669e-09
-6.74133e-09
1.89894e-09
5.34062e-09
1.41188e-09
-1.54451e-09
-8.88163e-09
1.94281e-09
-5.93658e-10
-7.99131e-09
5.50683e-09
-7.93405e-09
7.90206e-10
2.18459e-10
3.74196e-09
1.54645e-09
7.45444e-09
3.42111e-09
-1.87528e-09
8.92066e-09
4.09085e-10
-5.73529e-09
4.07849e-09
-5.5432e-09
5.14852e-09
-2.71434e-10
-7.85094e-10
7.21699e-09
-4.43922e-09
-8.90802e-09
-9.88505e-10
-6.57742e-09
-5.55838e-09
7.73619e-09
-6.44379e-09
4.26587e-09
2.2467e-09
-7.70521e-09
-9.9889e-11
-5.6035e-09
7.8414e-09
8.80033e-12
3.78456e-09
-6.41017e-09
1.03618e-08
3.21792e-09
-6.48601e-09
-4.43714e-09
-1.93203e-09
-1.29389e-09
3.08247e-09
-1.17643e-08
4.72506e-09
3.9567e-09
5.62334e-09
-1.08249e-08
8.28396e-09
-5.83159e-09
1.52395e-08
5.11409e-09
-5.02382e-09
-6.57629e-09
-5.18863e-09
1.34191e-08
-3.1164e-09
-9.3604e-11
-3.22444e-09
-1.1457e-08
1.4775e-08
-2.08351e-09
9.33914e-09
-7.3492e-09
-7.925e-11
8.26649e-09
-1.14116e-08
-7.18651e-09
1.06989e-08
-7.62102e-09
-5.45961e-09
5.33356e-09
8.25537e-09
-8.1369e-09
-2.05049e-09
-8.92802e-09
1.13518e-08
1.3074e-09
-1.05144e-10
5.4153e-09
7.98757e-09
-1.88625e-08
1.33662e-08
-1.68789e-08
1.64827e-09
1.4691e-08
-1.51479e-08
-1.19124e-09
8.63055e-09
-7.91073e-09
9.28541e-10
9.14297e-09
1.2704e-09
4.27788e-09
6.32795e-09
1.14456e-08
-1.47852e-08
1.17693e-08
4.28652e-09
1.24005e-08
-1.71976e-08
-9.98796e-09
-8.9588e-09
-1.77764e-09
-8.56442e-09
1.93009e-08
-7.20043e-10
-1.66264e-08
8.3876e-09
-5.98142e-09
1.05318e-08
-1.13867e-08
4.68527e-09
1.14988e-08
-2.29975e-08
-3.64905e-09
4.91128e-09
-1.32328e-09
-2.14075e-08
2.46125e-08
-3.23924e-09
-5.76772e-09
-1.244e-08
-1.39817e-08
9.79529e-09
-9.53098e-09
3.62919e-09
-6.53823e-09
1.28069e-08
-1.64679e-08
-5.87006e-09
-4.41397e-09
-2.84622e-09
1.57068e-08
8.12556e-09
-2.70303e-09
-7.32685e-09
2.2873e-08
1.60707e-10
2.4863e-08
-8.41473e-09
2.15461e-08
1.04998e-09
7.95618e-09
1.02183e-08
6.68856e-09
1.60699e-08
1.47592e-08
-2.81499e-08
2.279e-08
-6.18894e-09
1.15489e-08
1.61728e-08
-2.26516e-08
1.51418e-09
7.59423e-09
1.24376e-08
2.08352e-08
-2.0426e-11
-8.0917e-09
8.92277e-09
1.34265e-08
-2.61552e-08
2.242e-08
2.65252e-08
-1.00028e-08
1.6995e-08
7.59138e-09
5.86597e-09
1.77982e-08
5.37196e-09
2.59708e-08
1.57817e-08
1.14316e-08
2.70196e-08
-7.47864e-09
2.37885e-09
9.44828e-09
-6.44416e-09
-1.04827e-08
-2.00859e-08
5.83379e-09
1.60267e-08
-6.17852e-09
-4.45905e-09
-1.03618e-08
-1.20942e-08
-7.97007e-09
-7.36845e-09
9.06902e-09
-1.04156e-08
3.46667e-09
-2.1201e-09
-5.58215e-09
6.99576e-09
7.65542e-09
4.52744e-09
-2.14641e-09
7.09782e-09
-1.53264e-09
1.07188e-08
-6.79216e-09
4.08619e-09
-5.5319e-09
7.32771e-11
9.73367e-09
-5.2795e-09
7.15014e-09
-1.34795e-08
-1.74481e-10
1.74245e-09
-5.51413e-09
1.25832e-08
-4.93419e-09
2.88676e-09
3.63826e-09
4.26696e-09
4.35426e-09
-3.23041e-10
-8.29823e-09
4.76249e-09
3.14289e-09
-3.63848e-09
5.2012e-09
-2.73683e-09
4.77239e-09
-7.23683e-09
-3.62447e-10
5.2973e-09
2.66257e-10
4.70191e-10
1.22009e-10
3.76202e-09
4.37906e-09
8.53559e-10
2.75677e-09
4.4962e-10
-6.35979e-11
2.95184e-09
-6.01175e-09
2.62079e-09
-3.13637e-11
-2.58275e-09
6.63611e-09
1.24387e-09
4.77088e-09
-2.58131e-09
-3.91892e-09
2.42797e-09
7.11124e-09
-5.6204e-09
-2.26977e-09
-6.15866e-10
-1.03334e-09
3.825e-09
3.3108e-09
3.05932e-09
1.10296e-11
9.68199e-11
3.04662e-09
3.49257e-09
2.59791e-09
-1.72352e-09
7.97644e-09
4.38243e-09
8.76348e-11
1.0188e-09
3.01648e-09
-4.12287e-09
1.06673e-09
3.14368e-09
-4.12277e-09
2.29177e-09
-4.94647e-09
-3.35494e-09
6.00964e-09
-1.11817e-09
3.42166e-09
-1.17236e-11
-8.26505e-10
5.06034e-09
-3.21498e-09
-4.70624e-09
-2.92357e-09
7.08668e-09
4.34385e-09
-8.50689e-09
-3.92265e-09
1.02215e-09
-2.30616e-11
2.13879e-09
-1.13289e-10
-7.03194e-09
6.12576e-09
-4.47349e-10
7.85445e-09
-5.74344e-09
-1.66359e-09
6.64516e-09
-9.58873e-09
8.00393e-09
3.11414e-09
4.68009e-11
-1.43041e-08
4.28416e-10
1.17516e-08
2.12406e-09
-3.07594e-09
-1.13883e-09
3.80564e-09
6.37626e-09
-5.91108e-09
-4.29395e-10
-7.84849e-10
3.09827e-09
-1.12144e-09
-7.88789e-09
-4.27295e-09
6.50271e-09
8.68482e-10
-1.16111e-08
3.1743e-09
-1.18762e-08
7.35205e-09
-1.12223e-08
-1.15286e-08
-1.38367e-08
5.97487e-09
-5.73066e-09
-4.22755e-09
3.98333e-09
8.23748e-09
-2.19174e-09
-7.08735e-11
1.39859e-08
7.51946e-09
-9.09788e-09
-1.24075e-08
3.60847e-09
6.60612e-09
3.77131e-09
-8.21855e-09
8.81241e-09
3.01462e-09
-5.35355e-09
-4.08419e-09
1.21919e-09
6.54337e-09
5.36885e-09
-3.09982e-09
2.77198e-09
-8.78561e-09
3.19218e-09
2.82152e-09
-5.26935e-09
3.44806e-09
4.59328e-09
4.85977e-09
-1.89164e-09
-9.31264e-09
-1.66476e-09
-6.40116e-09
-1.55923e-09
-1.35226e-09
-3.85341e-09
-8.27841e-09
1.09192e-08
-2.99089e-09
-4.08822e-10
1.08551e-08
6.67027e-09
-3.98587e-09
-1.04656e-08
-8.75505e-09
9.38249e-09
-2.18667e-09
-5.95145e-09
9.26005e-09
-1.20636e-08
-4.32759e-09
-2.49492e-10
-6.47091e-09
5.33552e-09
-1.37907e-08
-4.13926e-09
7.05086e-09
2.12991e-09
-1.04723e-08
7.92977e-09
-6.44771e-09
8.99019e-09
1.785e-09
-1.14094e-08
-8.47989e-10
-2.40384e-09
-4.66495e-09
1.55675e-08
-8.49871e-09
7.39906e-09
-1.76365e-09
-8.03923e-09
8.5044e-09
-8.02424e-09
1.30474e-09
5.42913e-10
1.58912e-08
7.2486e-09
-1.12589e-08
4.63899e-10
3.37033e-10
-4.11463e-09
1.10721e-08
-1.16224e-08
7.04817e-09
-1.29264e-08
3.59738e-09
3.94574e-09
-8.70925e-09
7.20035e-09
-7.04171e-09
8.55058e-09
1.24225e-09
-9.46565e-09
-4.85855e-10
7.60937e-09
7.06004e-09
-7.87688e-09
1.56201e-08
9.74652e-10
6.86577e-09
-9.28318e-09
2.8799e-10
4.32489e-09
6.57566e-10
2.57854e-09
1.06655e-09
-3.26389e-09
6.52225e-09
-2.68752e-09
-5.46054e-10
4.30013e-09
1.69615e-09
-1.39295e-09
3.15919e-09
1.83114e-09
5.02808e-09
5.42245e-10
3.11593e-09
3.85602e-09
-3.39661e-09
4.5478e-09
-5.00725e-09
2.85939e-09
1.12127e-09
-1.2475e-10
2.77149e-09
-5.06404e-09
6.98638e-09
-4.69379e-09
-1.68546e-09
4.421e-09
3.59622e-11
3.90493e-09
-1.46428e-09
-7.50469e-09
2.44565e-09
-2.26146e-10
-9.09102e-09
-5.10485e-09
4.20729e-09
3.75692e-09
-6.05228e-10
4.33886e-09
5.30693e-10
3.71697e-09
5.04293e-09
-2.76018e-09
-2.73914e-09
8.63428e-09
-1.06774e-09
2.02483e-09
3.51722e-09
4.99174e-11
-2.00999e-09
3.47854e-09
4.39577e-10
-8.15231e-09
2.2724e-09
-6.94809e-10
6.57471e-09
-1.68323e-09
-2.87708e-09
-3.59196e-09
9.53307e-10
-5.68729e-09
7.00644e-09
-4.67705e-09
-1.30216e-09
6.93244e-09
-5.27376e-09
8.91891e-10
3.68698e-09
3.17459e-09
-2.68093e-09
-2.1768e-09
-2.66667e-09
5.6754e-10
-4.17543e-09
-6.26635e-09
5.76482e-09
-1.00116e-08
1.48871e-10
5.54512e-09
-3.70895e-09
-4.71308e-09
-6.81166e-09
2.34536e-09
-4.68345e-09
4.2732e-09
4.71661e-09
-3.31665e-09
2.06031e-09
-1.03427e-11
-5.65598e-09
-4.52356e-09
5.49611e-09
-3.34888e-09
-2.46775e-10
5.59997e-09
1.22225e-09
7.11297e-09
-4.60867e-09
-3.54791e-10
4.40035e-10
-4.88995e-09
-3.06758e-09
4.91914e-10
9.84054e-09
-1.56396e-09
-6.28045e-10
-7.6485e-09
-7.13077e-12
4.14502e-09
5.70266e-09
3.64078e-09
3.75095e-10
-4.06308e-09
4.72357e-11
4.8268e-09
-1.3626e-09
-5.02817e-09
1.06887e-08
-2.0051e-09
-9.31167e-09
4.65512e-09
6.02652e-09
-5.14313e-09
-4.36714e-09
3.00416e-09
6.50617e-09
-5.62821e-09
6.23501e-10
-1.38383e-10
-6.93077e-11
3.57347e-10
-5.73516e-09
3.76619e-11
-5.1979e-09
2.65506e-09
6.68786e-09
-4.39514e-10
6.84143e-11
-3.02745e-10
2.58094e-09
4.57833e-10
-5.1109e-09
4.10691e-09
-6.41473e-09
-3.29851e-09
2.61187e-13
6.30241e-09
-2.9926e-09
3.17615e-10
2.89266e-09
-4.52089e-09
-2.93132e-09
5.58665e-09
-3.04958e-09
-3.21255e-10
2.08863e-10
-3.08797e-10
-2.59778e-10
7.29287e-09
-2.56564e-09
-5.34656e-09
6.19281e-10
1.82105e-09
-1.36822e-09
6.84002e-09
6.67125e-09
-6.94988e-09
-2.28705e-09
1.08963e-08
-1.46281e-09
-2.76232e-09
-1.18225e-10
1.28356e-08
-3.74824e-09
3.01106e-10
-1.89943e-09
-3.84192e-09
-6.85621e-09
6.478e-09
-4.70951e-09
-3.23132e-09
-1.09185e-09
7.45159e-09
5.50115e-09
-3.46508e-09
-1.73496e-09
4.76844e-11
4.08519e-09
-3.11135e-09
7.9224e-10
2.36674e-09
3.01524e-09
8.59035e-10
-7.7162e-09
9.53434e-10
-2.64773e-09
1.64548e-09
-2.45789e-09
3.29233e-09
-2.47998e-09
4.54672e-09
-1.94782e-09
2.87241e-09
-3.58843e-09
-2.74906e-09
-2.56303e-10
1.73508e-11
-4.54135e-09
4.24171e-09
-5.18728e-09
-3.05791e-09
3.06327e-09
-2.18856e-11
-1.22521e-09
-8.83056e-10
6.48574e-09
-4.3775e-09
5.98993e-09
-1.6271e-09
-5.58808e-09
5.57759e-09
-7.40612e-10
1.15291e-09
5.54638e-10
3.07892e-09
-5.2607e-09
1.52773e-09
2.75483e-09
-3.72798e-09
4.18492e-09
-3.54025e-09
9.17724e-10
2.63452e-09
2.93348e-09
2.66071e-09
3.8346e-09
-4.68657e-09
3.60019e-09
3.45764e-10
2.75899e-09
-4.36663e-09
-3.57719e-10
4.22187e-09
3.20727e-10
2.42188e-09
-2.47639e-11
-2.64619e-09
2.93747e-09
3.30891e-09
1.70016e-10
-5.71883e-11
2.57176e-09
4.28463e-09
-7.1946e-11
5.67012e-09
-2.63944e-09
5.13925e-09
-4.75395e-11
-9.14269e-09
-2.2703e-09
3.19372e-09
2.70763e-09
3.91563e-10
-1.22419e-08
2.39036e-09
-1.26898e-08
1.72166e-09
-6.40793e-09
5.07784e-09
1.29763e-08
5.84803e-10
-1.11707e-08
-1.28229e-08
1.27688e-08
-1.56742e-09
-1.06706e-08
6.42133e-09
-8.3854e-09
-7.44673e-09
7.60097e-09
-5.51338e-09
-2.2335e-11
-5.18753e-10
6.05462e-09
-4.17884e-09
7.35322e-09
-8.68769e-09
2.29548e-09
2.99236e-09
-9.46653e-09
3.48452e-09
-5.72685e-09
4.53788e-09
5.82345e-09
4.14027e-09
-6.97128e-09
6.16423e-09
1.00409e-09
-1.34484e-09
-3.97589e-09
5.38043e-09
4.75977e-09
6.07101e-10
-4.42542e-10
-1.23043e-09
9.58771e-09
4.22291e-09
-1.31203e-10
-3.94542e-09
1.08015e-10
6.80311e-09
-2.96557e-09
-1.18683e-09
1.43169e-09
-4.19011e-09
3.48853e-09
-4.52441e-10
1.67367e-09
-7.60907e-09
3.35908e-09
2.57637e-09
6.97014e-09
6.25607e-09
-4.93965e-09
-8.28657e-09
7.23013e-09
-2.67237e-09
2.4123e-09
1.10496e-09
2.15088e-09
3.00026e-09
2.84027e-09
5.49482e-09
4.39896e-09
-9.28566e-09
-5.29771e-11
2.14743e-09
-4.20879e-10
-8.23086e-09
-5.45965e-09
2.05436e-09
1.16362e-08
4.11165e-09
-4.68596e-09
-7.65653e-09
8.0291e-10
-1.36778e-09
-4.33561e-09
7.75776e-09
-3.40367e-09
4.87615e-09
5.40779e-09
4.04739e-09
-4.57696e-09
-4.87823e-09
1.41329e-10
4.57105e-09
6.95434e-10
-1.25979e-09
3.52668e-12
7.31364e-10
-5.27598e-09
-2.87594e-09
3.11137e-09
-8.835e-11
4.68752e-09
1.04807e-09
3.19658e-10
-6.05529e-09
-5.33248e-10
5.81375e-09
-5.92988e-10
4.07374e-09
1.32424e-09
-4.34991e-09
3.93397e-09
-5.2759e-09
-3.6377e-09
4.97963e-09
6.23918e-10
3.18712e-09
1.22916e-10
8.69792e-09
2.80246e-09
-1.11807e-08
1.00662e-08
-1.90157e-09
2.25312e-09
1.56204e-08
-1.5071e-08
-2.13389e-10
9.47518e-09
-7.00866e-09
-1.20733e-10
5.79069e-09
1.43789e-10
3.82764e-09
1.25333e-10
-4.16505e-09
4.24183e-09
2.09736e-10
-2.66386e-09
5.5724e-10
5.90716e-09
-3.80054e-09
4.29465e-09
6.43952e-09
4.88626e-09
6.96309e-09
6.80674e-09
-2.17162e-09
3.74958e-09
-5.44491e-09
-3.21886e-09
9.22102e-09
1.93161e-09
-4.13473e-10
7.67198e-09
8.83377e-09
1.02991e-09
2.58914e-09
5.48302e-09
-1.24846e-08
5.69785e-09
-4.45456e-09
1.12413e-08
-7.91745e-09
3.82046e-09
1.19962e-08
-2.05748e-09
-1.78562e-08
2.54935e-09
1.51447e-08
-1.69194e-10
-9.52188e-09
4.00301e-09
5.68804e-09
-8.43446e-09
4.75055e-09
3.5147e-09
1.40749e-08
7.71462e-10
-8.22703e-09
-1.92417e-09
6.29275e-10
-1.39117e-09
-8.0709e-09
1.02762e-09
-9.58921e-09
-2.8958e-11
1.53361e-08
6.90311e-11
-4.87332e-09
6.20682e-09
-2.16026e-10
9.34527e-09
-5.55438e-09
7.27495e-09
2.28248e-09
1.46149e-08
5.66678e-09
-8.82444e-09
6.77409e-09
1.26184e-10
4.17331e-11
-4.29214e-09
-4.73255e-09