/*--------------------------------*- C++ -*----------------------------------*\
| =========                 |                                                 |
| \\      /  F ield         | OpenFOAM: The Open Source CFD Toolbox           |
|  \\    /   O peration     | Version:  v1612+                                |
|   \\  /    A nd           | Web:      www.OpenFOAM.com                      |
|    \\/     M anipulation  |                                                 |
\*---------------------------------------------------------------------------*/
FoamFile
{
    version     2.0;
    format      ascii;
    class       volVectorField;
    location    "50";
    object      wallShearStress;
}
// * * * * * * * * * * * * * * * * * * * * * * * * * * * * * * * * * * * * * //

dimensions      [0 2 -2 0 0 0 0];

internalField   uniform (0 0 0);

boundaryField
{
    WALL
    {
        type            calculated;
        value           nonuniform List<vector> 
1517
(
(0.00430109 -0.0055483 0.00965801)
(0.00422157 -0.00529237 0.00966235)
(0.00429697 -0.00494604 0.00977063)
(0.00458456 -0.00515993 0.0102284)
(0.00411307 -0.00552172 0.00947373)
(0.00481525 -0.0055225 0.0106707)
(0.00470232 -0.00561561 0.0103242)
(0.00443576 -0.00520618 0.00971336)
(0.0044271 -0.00525025 0.00979801)
(0.00394848 -0.00511443 0.00937005)
(0.00433287 -0.0054641 0.00990019)
(0.00442557 -0.00541308 0.00995894)
(0.00451432 -0.00563358 0.0102341)
(0.00431632 -0.00516054 0.00968495)
(0.00407 -0.00507969 0.00930787)
(0.00433401 -0.00528213 0.00973422)
(0.0042241 -0.00536674 0.00980735)
(0.00389189 -0.00567329 0.00959349)
(0.00434444 -0.00508082 0.00981427)
(0.00423085 -0.00529529 0.00988185)
(0.00447059 -0.00524223 0.0098788)
(0.00432698 -0.00523581 0.00974663)
(0.00459623 -0.00503986 0.00979224)
(0.00415679 -0.00515601 0.00951693)
(0.00446774 -0.00522934 0.0100101)
(0.00419183 -0.00495942 0.00941531)
(0.00464258 -0.00563639 0.0107014)
(0.00468177 -0.00591727 0.0107022)
(0.00439241 -0.00527591 0.00982532)
(0.00455182 -0.00550336 0.0102944)
(0.00435336 -0.00531364 0.00971212)
(0.00424626 -0.00558475 0.0100583)
(0.00467137 -0.00616417 0.0117068)
(0.00503376 -0.00608674 0.011172)
(0.00424538 -0.00527786 0.00935401)
(0.00415794 -0.00506396 0.00925193)
(0.00421356 -0.0051773 0.00941294)
(0.00431637 -0.00533807 0.00974128)
(0.00461373 -0.00551484 0.0103395)
(0.00469059 -0.00552793 0.0104907)
(0.00474999 -0.00529982 0.0101131)
(0.00450704 -0.00548667 0.0100625)
(0.00443763 -0.00567861 0.0101525)
(0.00437262 -0.00517718 0.00972929)
(0.00462877 -0.00526292 0.00999306)
(0.00458514 -0.00540445 0.0100128)
(0.00430353 -0.00529426 0.00979805)
(0.00465281 -0.00525398 0.00987948)
(0.00480133 -0.00552247 0.0105582)
(0.00465562 -0.0048687 0.00990862)
(0.00422481 -0.00524939 0.00959643)
(0.00454858 -0.00533773 0.00986563)
(0.00442895 -0.00530343 0.00977106)
(0.00442511 -0.00536242 0.0099239)
(0.0044477 -0.00522322 0.00970618)
(0.00446231 -0.0052089 0.00973369)
(0.00490671 -0.00618971 0.01057)
(0.00518417 -0.00615795 0.0110282)
(0.00412324 -0.00505588 0.0095873)
(0.00430613 -0.00519387 0.00965406)
(0.0038623 -0.0048672 0.0092809)
(0.00433838 -0.00524077 0.00971759)
(0.00420136 -0.00514987 0.00949039)
(0.00410249 -0.00502213 0.00949824)
(0.00483696 -0.00537223 0.0103135)
(0.00444296 -0.00511842 0.00954423)
(0.00452819 -0.00516484 0.00976198)
(0.00456171 -0.00496648 0.00954614)
(0.00440689 -0.00521399 0.00969998)
(0.00427587 -0.00530915 0.00955129)
(0.00433698 -0.00533044 0.00981374)
(0.00430885 -0.00535733 0.00974659)
(0.00458826 -0.00540879 0.0100043)
(0.00437956 -0.00512798 0.00964526)
(0.00448957 -0.00537305 0.00992034)
(0.00415103 -0.00530682 0.00954899)
(0.00427196 -0.00506178 0.00952896)
(0.0042 -0.00513237 0.00957025)
(0.00425563 -0.00530964 0.00976226)
(0.00444589 -0.00514906 0.00953963)
(0.00459588 -0.00522022 0.00975019)
(0.00432538 -0.00511708 0.00953708)
(0.00437106 -0.00506247 0.00947091)
(0.0045053 -0.00557592 0.0101913)
(0.00474395 -0.00562012 0.0106887)
(0.00519285 -0.00588402 0.0105263)
(0.00489142 -0.00579705 0.0101371)
(0.0045682 -0.00563682 0.0102319)
(0.00476924 -0.0056705 0.0104638)
(0.00424924 -0.005073 0.00992411)
(0.0041513 -0.00561249 0.00972543)
(0.00435668 -0.00493284 0.0100644)
(0.00431375 -0.00528706 0.00981108)
(0.00447315 -0.00550498 0.0103852)
(0.00455787 -0.00566752 0.010314)
(0.00466877 -0.00567693 0.0104199)
(0.00446512 -0.00556573 0.0103635)
(0.00452526 -0.00561452 0.0101575)
(0.00463085 -0.00563192 0.0103937)
(0.00460142 -0.00567586 0.0104502)
(0.00499937 -0.00576554 0.0110644)
(0.00498283 -0.00602344 0.0106109)
(0.00485986 -0.00576965 0.0108457)
(0.00497953 -0.0060807 0.0112022)
(0.00465513 -0.00555701 0.0105929)
(0.00498709 -0.00595706 0.0110231)
(0.00505516 -0.00579102 0.0110258)
(0.00483432 -0.00566576 0.0106091)
(0.00492348 -0.00602582 0.0105674)
(0.00472238 -0.00543891 0.00991262)
(0.00515752 -0.0060856 0.0104708)
(0.0051655 -0.00617095 0.0102916)
(0.00500396 -0.00609459 0.0103047)
(0.00470247 -0.00581937 0.0103014)
(0.0046679 -0.00565837 0.0106523)
(0.00480513 -0.00619384 0.010374)
(0.00490383 -0.00594839 0.0105488)
(0.00485232 -0.00595507 0.0105622)
(0.00416608 -0.00500695 0.00918354)
(0.00448318 -0.0057693 0.0100695)
(0.00449909 -0.00551715 0.0100711)
(0.00450773 -0.00543943 0.00972538)
(0.00437715 -0.00527598 0.00944448)
(0.00422752 -0.00522832 0.00960082)
(0.0043359 -0.0054277 0.00959631)
(0.00422455 -0.00502596 0.00939241)
(0.00428767 -0.00522917 0.00974124)
(0.00437115 -0.00512571 0.0095893)
(0.0044439 -0.00528618 0.00983061)
(0.00419098 -0.00526266 0.00963749)
(0.00455926 -0.00488577 0.00961199)
(0.00395085 -0.00519259 0.00906729)
(0.00420937 -0.00531179 0.0095179)
(0.00438811 -0.00488509 0.00960385)
(0.00426257 -0.00523021 0.00985093)
(0.00438258 -0.005027 0.00939486)
(0.00430867 -0.00511936 0.00959367)
(0.00432545 -0.00511935 0.00934733)
(0.00441393 -0.00554813 0.010109)
(0.00449116 -0.00524433 0.00983528)
(0.00448912 -0.00519684 0.00965813)
(0.00449206 -0.00550561 0.0101939)
(0.00439573 -0.00547394 0.0101479)
(0.00430901 -0.0050572 0.00944029)
(0.00455664 -0.00549537 0.00998905)
(0.00453309 -0.00532631 0.00999004)
(0.00451367 -0.00557364 0.0100161)
(0.00443168 -0.0054196 0.0100544)
(0.00456168 -0.0051735 0.0098872)
(0.00470142 -0.00545595 0.010347)
(0.00428293 -0.00538133 0.00988891)
(0.00420265 -0.00553534 0.0101783)
(0.00539984 -0.00606454 0.0114246)
(0.00494009 -0.00557045 0.0104285)
(0.00504033 -0.00592382 0.0111902)
(0.00410202 -0.00562338 0.0101106)
(0.00426932 -0.00562669 0.0100214)
(0.00434556 -0.00553636 0.00974899)
(0.00463968 -0.00560708 0.0109879)
(0.00418606 -0.00531145 0.00958939)
(0.00388368 -0.00532226 0.0091747)
(0.00412126 -0.00548064 0.00970476)
(0.00450059 -0.00538236 0.00994251)
(0.00396019 -0.00533761 0.00960936)
(0.00481632 -0.0051656 0.0108333)
(0.00418762 -0.00588393 0.010033)
(0.00418853 -0.00509248 0.00929976)
(0.00415947 -0.00574193 0.00925788)
(0.00390698 -0.00530637 0.00913336)
(0.00479921 -0.00511088 0.0100261)
(0.0046759 -0.00525198 0.0104833)
(0.00453598 -0.00558683 0.0102671)
(0.0045498 -0.00546443 0.0101566)
(0.00442009 -0.00541574 0.00993359)
(0.00457802 -0.00551326 0.0103058)
(0.00443578 -0.00559589 0.00997802)
(0.00447912 -0.00566822 0.0103106)
(0.00442933 -0.00550095 0.0101407)
(0.00436456 -0.00551619 0.0100009)
(0.00441273 -0.00541704 0.0100149)
(0.00433423 -0.00555575 0.010069)
(0.00445848 -0.00537955 0.0100567)
(0.00435808 -0.00535519 0.00985817)
(0.00423767 -0.00551325 0.00970012)
(0.00418546 -0.00533264 0.00947645)
(0.00450693 -0.00514123 0.00968087)
(0.00432749 -0.00543158 0.0100133)
(0.00434215 -0.00536742 0.00970951)
(0.00450317 -0.00515546 0.00994917)
(0.00441024 -0.00551182 0.0102212)
(0.00442609 -0.00562354 0.0100877)
(0.0041714 -0.00547161 0.00938761)
(0.00423865 -0.00542301 0.00962445)
(0.00453642 -0.00562137 0.0101678)
(0.00417506 -0.00586265 0.0099962)
(0.00476192 -0.00593256 0.0106509)
(0.00451168 -0.00590016 0.0104184)
(0.00450233 -0.00567485 0.0102412)
(0.00460148 -0.00582785 0.0105525)
(0.00456533 -0.00604577 0.0103188)
(0.00452714 -0.00594404 0.0102046)
(0.0046352 -0.00553734 0.010351)
(0.00459993 -0.00545966 0.0104208)
(0.00464943 -0.00560572 0.0102364)
(0.00450785 -0.00558281 0.0104061)
(0.00471096 -0.00556776 0.010395)
(0.00436151 -0.00531202 0.00974994)
(0.00461875 -0.00588741 0.010221)
(0.00516116 -0.0063665 0.0111431)
(0.00495397 -0.00592744 0.0107164)
(0.00505937 -0.00575428 0.0103764)
(0.00482527 -0.00580011 0.0105057)
(0.00490073 -0.00577508 0.0105063)
(0.00490513 -0.0058867 0.0102531)
(0.00476929 -0.00546185 0.0100369)
(0.0048389 -0.00575552 0.0103533)
(0.0049215 -0.0059038 0.0100322)
(0.00487326 -0.00585641 0.010216)
(0.00493516 -0.00581248 0.0105701)
(0.00525837 -0.00621542 0.0104855)
(0.00521438 -0.00615114 0.0104985)
(0.00529246 -0.00611071 0.010324)
(0.00472356 -0.00546446 0.00979232)
(0.00463269 -0.00538378 0.00970528)
(0.00479591 -0.00552647 0.00952298)
(0.00504807 -0.00580207 0.00972124)
(0.00457719 -0.0054631 0.00959135)
(0.00486856 -0.00575254 0.0101351)
(0.00509897 -0.00609812 0.0108034)
(0.00470688 -0.00578745 0.010419)
(0.00463516 -0.00533488 0.0107588)
(0.0051198 -0.00608352 0.0107416)
(0.00525179 -0.00631455 0.0109702)
(0.0051021 -0.00617981 0.0104585)
(0.004474 -0.00584062 0.00947878)
(0.00429383 -0.00502552 0.00936469)
(0.00501296 -0.00567519 0.0107961)
(0.00461554 -0.00544223 0.0106215)
(0.00422795 -0.00544701 0.00974088)
(0.00422645 -0.00490995 0.00952012)
(0.00451059 -0.00540663 0.0104407)
(0.00487175 -0.00571409 0.0101759)
(0.00541329 -0.00624027 0.0106889)
(0.00451938 -0.00556719 0.010318)
(0.00520121 -0.00607838 0.0108638)
(0.00475306 -0.00563781 0.00971513)
(0.00444527 -0.00535136 0.00984322)
(0.00420338 -0.00540088 0.00987336)
(0.00441287 -0.00544598 0.0101516)
(0.00451611 -0.005597 0.0101986)
(0.0045091 -0.00542136 0.00992936)
(0.00444882 -0.00543514 0.0101141)
(0.00452459 -0.00556943 0.0102854)
(0.00437639 -0.00518555 0.00978277)
(0.00414139 -0.00574332 0.0100504)
(0.00424978 -0.00570312 0.0105525)
(0.00469397 -0.00546313 0.0100147)
(0.00474087 -0.00579567 0.0111852)
(0.00498531 -0.00613757 0.0111176)
(0.00456566 -0.00555346 0.0100152)
(0.00503546 -0.005752 0.0106329)
(0.00460325 -0.005874 0.0107899)
(0.00516739 -0.00582699 0.010791)
(0.00495299 -0.00591121 0.0103553)
(0.0046471 -0.00563883 0.0100958)
(0.00463035 -0.00555517 0.00998698)
(0.00483596 -0.00563093 0.00986024)
(0.00460654 -0.00553507 0.0100506)
(0.00458345 -0.0052885 0.00965461)
(0.00422472 -0.00536058 0.00979161)
(0.00472577 -0.00537961 0.0100252)
(0.00431166 -0.00521442 0.00960523)
(0.00419489 -0.00509493 0.00966304)
(0.00439275 -0.00530454 0.00994715)
(0.00446938 -0.00553363 0.0105172)
(0.00456447 -0.00544939 0.0100188)
(0.00444039 -0.00549338 0.00980337)
(0.00458458 -0.00535796 0.00970252)
(0.00475333 -0.0057102 0.0101113)
(0.00448743 -0.00550428 0.00995599)
(0.00447385 -0.00530946 0.009918)
(0.00432325 -0.00539147 0.00979294)
(0.00492855 -0.00600957 0.00992329)
(0.00500147 -0.00643229 0.0103251)
(0.00461707 -0.00623336 0.0100899)
(0.00429251 -0.00572166 0.0105276)
(0.00454964 -0.00537068 0.0100731)
(0.00500274 -0.00647658 0.0103122)
(0.00471107 -0.00544121 0.00986423)
(0.00470724 -0.00549706 0.00993488)
(0.00450507 -0.00545426 0.00995898)
(0.00482209 -0.00577471 0.0102036)
(0.00440525 -0.00512998 0.00959273)
(0.00498606 -0.00598466 0.0102876)
(0.00446392 -0.00558786 0.0100579)
(0.0045829 -0.00572027 0.0102545)
(0.00427361 -0.00525789 0.00993519)
(0.00483928 -0.00599841 0.0106964)
(0.00435223 -0.005317 0.00977697)
(0.00479788 -0.00576148 0.0103657)
(0.00440249 -0.00518085 0.00928308)
(0.00447137 -0.00539647 0.00977385)
(0.00433186 -0.00524912 0.0098156)
(0.00450997 -0.00554083 0.00987984)
(0.00464412 -0.00574449 0.0102647)
(0.00434514 -0.00530281 0.00961504)
(0.004253 -0.00486225 0.00959841)
(0.0043103 -0.00527505 0.0101482)
(0.00415898 -0.00505284 0.00950334)
(0.00437667 -0.00538481 0.0091934)
(0.00447498 -0.00521241 0.00988888)
(0.00420613 -0.00501666 0.00913213)
(0.00429525 -0.00523852 0.00988961)
(0.00422848 -0.00542569 0.00949526)
(0.00432407 -0.00513028 0.00960963)
(0.00434354 -0.00522085 0.00973587)
(0.00427414 -0.00509665 0.0092874)
(0.00428517 -0.00530806 0.00954559)
(0.00409102 -0.00534105 0.00915316)
(0.00456384 -0.00511291 0.00994511)
(0.00438492 -0.00540017 0.00982612)
(0.00448685 -0.00497105 0.00969603)
(0.00436189 -0.00526329 0.00983675)
(0.00441309 -0.00542565 0.0101501)
(0.00440378 -0.00471286 0.0094152)
(0.00434551 -0.00490665 0.00983864)
(0.00429764 -0.0050371 0.00949857)
(0.00443631 -0.00521607 0.00991116)
(0.00431264 -0.00520735 0.00958102)
(0.00474357 -0.00506175 0.010094)
(0.00444584 -0.00533913 0.00998265)
(0.00447317 -0.00468353 0.00983668)
(0.00484962 -0.00509054 0.0102059)
(0.00433819 -0.00512634 0.00986712)
(0.00432208 -0.00537332 0.0094935)
(0.00447696 -0.00485582 0.00998372)
(0.00404709 -0.00472239 0.00913173)
(0.00440371 -0.00525678 0.00953081)
(0.00432811 -0.00529636 0.00963617)
(0.00415638 -0.00502305 0.00954349)
(0.00407748 -0.00516554 0.0089969)
(0.00430189 -0.00530553 0.00967157)
(0.00435862 -0.00573252 0.00989549)
(0.00458935 -0.00597985 0.0103866)
(0.00436316 -0.00582913 0.0101744)
(0.00405031 -0.00523604 0.00958976)
(0.00398762 -0.00514557 0.0090734)
(0.00414993 -0.00588864 0.0101905)
(0.0040578 -0.00559756 0.00924385)
(0.0037983 -0.0049849 0.00903114)
(0.00441776 -0.00553959 0.00992607)
(0.00480378 -0.00621528 0.0107934)
(0.00443942 -0.00544698 0.0105442)
(0.00448541 -0.00528694 0.00978889)
(0.00438865 -0.00526261 0.0101191)
(0.0047599 -0.00620291 0.0104333)
(0.00512176 -0.00625419 0.0106722)
(0.00480081 -0.00567158 0.0106754)
(0.00476103 -0.00588728 0.00998325)
(0.00460782 -0.00582105 0.00983075)
(0.00457511 -0.00589711 0.0111387)
(0.00501568 -0.00634414 0.0104691)
(0.0048116 -0.0062794 0.0104892)
(0.00486063 -0.00601648 0.0100284)
(0.00478097 -0.00603766 0.0115379)
(0.00465888 -0.00583459 0.00987125)
(0.00548908 -0.00655765 0.0109174)
(0.00451273 -0.00544809 0.0101106)
(0.00438042 -0.00542557 0.00971361)
(0.00448418 -0.00521714 0.00983407)
(0.00438693 -0.00518418 0.00978918)
(0.00466939 -0.00603693 0.0105918)
(0.00445444 -0.00579439 0.00997886)
(0.00474478 -0.00590343 0.0106156)
(0.00473628 -0.00618326 0.010425)
(0.00490816 -0.00629035 0.0110427)
(0.00484039 -0.00589349 0.01057)
(0.0046468 -0.00588014 0.0102219)
(0.00480498 -0.00619183 0.0103753)
(0.00437147 -0.00565426 0.00988198)
(0.00449541 -0.0056809 0.0102606)
(0.00466033 -0.00571499 0.0104629)
(0.00437188 -0.0055812 0.00997374)
(0.00449177 -0.00567907 0.0101447)
(0.0040697 -0.00555948 0.00884802)
(0.00444062 -0.00562417 0.00966973)
(0.00435814 -0.00581641 0.00903917)
(0.00412309 -0.00519256 0.00924199)
(0.00428816 -0.00561263 0.00959721)
(0.00437935 -0.0053551 0.00973529)
(0.00459268 -0.00518533 0.00958019)
(0.00471965 -0.0052246 0.00971495)
(0.00475089 -0.00538353 0.00993615)
(0.00471456 -0.00519077 0.00968105)
(0.00458935 -0.00524306 0.00969912)
(0.0045826 -0.00540172 0.0098951)
(0.00466237 -0.00548002 0.0100317)
(0.00489515 -0.00542242 0.0100716)
(0.00471904 -0.00538055 0.00986443)
(0.00497006 -0.00547967 0.0101382)
(0.00510387 -0.00567759 0.0105796)
(0.00480442 -0.00544853 0.0098653)
(0.00468817 -0.00570596 0.0104799)
(0.00493524 -0.00606573 0.0110087)
(0.00447889 -0.00570281 0.010594)
(0.00463397 -0.0056518 0.0102383)
(0.00449982 -0.00547482 0.0105015)
(0.00472522 -0.00593381 0.0106644)
(0.00467326 -0.00556505 0.00963991)
(0.00432039 -0.00542953 0.00997725)
(0.00467582 -0.00557422 0.0102302)
(0.00477246 -0.00577048 0.0104115)
(0.00476202 -0.00573804 0.0100773)
(0.00476255 -0.0057731 0.0102133)
(0.00450208 -0.00546707 0.0101904)
(0.00469218 -0.00553282 0.0104694)
(0.00470221 -0.00566578 0.0106548)
(0.00464747 -0.00554102 0.010345)
(0.00464419 -0.00548676 0.0102311)
(0.00474434 -0.0055375 0.0103736)
(0.00490768 -0.00564294 0.0105006)
(0.00458199 -0.00519594 0.00968299)
(0.00471694 -0.00525397 0.00974488)
(0.00503175 -0.00555213 0.0102004)
(0.00473648 -0.00527374 0.00969884)
(0.0044413 -0.00540809 0.00994791)
(0.00446548 -0.00529778 0.00993029)
(0.00441803 -0.00543467 0.00989062)
(0.00433015 -0.00491477 0.00931043)
(0.00415462 -0.0050638 0.00934826)
(0.00458686 -0.00488448 0.00939364)
(0.00452152 -0.00508568 0.00972608)
(0.00446577 -0.00491776 0.00958676)
(0.00441215 -0.00542281 0.00986859)
(0.00437142 -0.00510893 0.00938198)
(0.0042692 -0.00510606 0.00944842)
(0.00439244 -0.00513925 0.00950546)
(0.00427449 -0.00514477 0.00930067)
(0.00420932 -0.00525796 0.0095741)
(0.00431626 -0.00517081 0.0095698)
(0.00424392 -0.00496366 0.00920884)
(0.00431323 -0.00507373 0.00942243)
(0.00418328 -0.0049393 0.00939926)
(0.00429341 -0.00510149 0.0094605)
(0.00444507 -0.00516928 0.00959144)
(0.00444972 -0.00496682 0.00930958)
(0.00430455 -0.00500416 0.0094138)
(0.00416028 -0.00506788 0.00936214)
(0.00456156 -0.00517302 0.00979372)
(0.00422642 -0.00490433 0.00920742)
(0.00419128 -0.00505356 0.00937079)
(0.00426397 -0.00531325 0.00987372)
(0.00403814 -0.00512698 0.00937086)
(0.00426604 -0.00522088 0.00975167)
(0.00420552 -0.00499851 0.00935968)
(0.00402193 -0.00508185 0.00931749)
(0.00407778 -0.00524948 0.00951454)
(0.00491382 -0.00546828 0.0102896)
(0.00463639 -0.00536855 0.00995847)
(0.00473216 -0.00534079 0.00997828)
(0.00484107 -0.0054267 0.0101616)
(0.00451697 -0.00551098 0.010154)
(0.00472252 -0.00557434 0.010348)
(0.00419814 -0.00516156 0.00969374)
(0.0043957 -0.0051405 0.00940728)
(0.0042319 -0.00556209 0.00977042)
(0.00431947 -0.00519138 0.00966339)
(0.00433381 -0.00507972 0.00953448)
(0.00423474 -0.00545064 0.00981589)
(0.0042325 -0.00514695 0.00954994)
(0.00406795 -0.0051637 0.00938418)
(0.00434514 -0.00547304 0.00992267)
(0.00440143 -0.00536264 0.00981554)
(0.00470562 -0.00494836 0.00962088)
(0.00420765 -0.00503311 0.00931606)
(0.00442604 -0.00506875 0.00967213)
(0.00436754 -0.00540844 0.00983928)
(0.00469397 -0.00532677 0.0100431)
(0.00480463 -0.00504291 0.00999346)
(0.00479273 -0.00530253 0.00995066)
(0.00467039 -0.00525453 0.00993465)
(0.0046136 -0.00482346 0.00941454)
(0.00485967 -0.00529584 0.0100684)
(0.00409052 -0.00491601 0.00928892)
(0.00410553 -0.00501218 0.00922575)
(0.00430321 -0.00529385 0.0100723)
(0.00410538 -0.00486439 0.00926801)
(0.00428269 -0.00499836 0.0093225)
(0.0043416 -0.00497668 0.00940343)
(0.00464124 -0.00541645 0.0100078)
(0.00409899 -0.00527961 0.0102455)
(0.00433003 -0.00522277 0.0100263)
(0.00477163 -0.00547485 0.00984538)
(0.00447589 -0.00547789 0.010327)
(0.00476128 -0.005491 0.010309)
(0.0040891 -0.00527174 0.00965361)
(0.00408502 -0.00524204 0.00947386)
(0.00426724 -0.00587995 0.009827)
(0.00437885 -0.00533062 0.00956702)
(0.0047888 -0.00557176 0.0110252)
(0.00470181 -0.005249 0.0101317)
(0.00464043 -0.00572941 0.0104445)
(0.00497058 -0.00564893 0.0107593)
(0.00461984 -0.00559665 0.0100605)
(0.00462753 -0.00539922 0.0100371)
(0.00447338 -0.00540103 0.00973155)
(0.00430035 -0.00512592 0.00952226)
(0.00488373 -0.00588915 0.010363)
(0.00468949 -0.0056133 0.00975283)
(0.0048384 -0.00603431 0.0100257)
(0.00446145 -0.00549481 0.0100666)
(0.00470092 -0.0059918 0.0105383)
(0.00467865 -0.00508223 0.0105475)
(0.00456475 -0.00567658 0.00960257)
(0.00449138 -0.00563409 0.00986899)
(0.0044774 -0.00548338 0.0101152)
(0.0045472 -0.00534439 0.00990564)
(0.00479782 -0.00568551 0.0104329)
(0.0045802 -0.00533749 0.0100995)
(0.00421473 -0.0050311 0.00982039)
(0.00420809 -0.00499207 0.00948495)
(0.00477358 -0.00503106 0.0101706)
(0.00432045 -0.00558495 0.00991152)
(0.00448228 -0.00532486 0.00964522)
(0.00430168 -0.00587228 0.0100743)
(0.00421661 -0.00527137 0.00929429)
(0.00433477 -0.00531567 0.00993594)
(0.00428141 -0.00523349 0.00976036)
(0.00421338 -0.00544485 0.00991901)
(0.00439234 -0.0054612 0.00995055)
(0.00437624 -0.00542384 0.0100015)
(0.00426717 -0.00525073 0.00973003)
(0.00427799 -0.00529186 0.00976638)
(0.00448682 -0.00529671 0.0097269)
(0.00431855 -0.00522078 0.00952179)
(0.00445207 -0.00529337 0.00959692)
(0.00452383 -0.0055437 0.0101237)
(0.00427242 -0.00540539 0.0104495)
(0.00450476 -0.00571382 0.0100337)
(0.00452958 -0.0055394 0.00999883)
(0.004249 -0.00531225 0.00967906)
(0.00444863 -0.00534284 0.0105191)
(0.00451179 -0.00552137 0.00995213)
(0.00522187 -0.00587723 0.0107794)
(0.00512546 -0.00586871 0.0105066)
(0.00435295 -0.00550907 0.0105769)
(0.00452509 -0.00545631 0.00978009)
(0.00479739 -0.00553446 0.0105249)
(0.00463547 -0.0056752 0.0109166)
(0.00526722 -0.00580716 0.0107631)
(0.00491129 -0.00558873 0.0100846)
(0.00501495 -0.00540256 0.0101038)
(0.00512664 -0.00552046 0.0102069)
(0.00476225 -0.00543867 0.00984727)
(0.00484891 -0.00577837 0.0103593)
(0.00449848 -0.00568467 0.00953529)
(0.00453084 -0.00594373 0.0103922)
(0.00485054 -0.0060757 0.00998706)
(0.00513538 -0.00597747 0.0107844)
(0.00438972 -0.0060232 0.00951294)
(0.00448049 -0.0055462 0.00953239)
(0.00460471 -0.0056661 0.00967829)
(0.00437632 -0.00526495 0.00941732)
(0.00425625 -0.00516824 0.00978934)
(0.00426069 -0.00516362 0.00961828)
(0.00430087 -0.0051932 0.00956993)
(0.0045127 -0.0054948 0.00950309)
(0.00454697 -0.00553298 0.00959997)
(0.00485798 -0.00550998 0.00981326)
(0.00477342 -0.00583535 0.0101793)
(0.00458129 -0.00561497 0.0102572)
(0.00464224 -0.00535293 0.0100857)
(0.00461227 -0.00528075 0.00938044)
(0.0044784 -0.00543173 0.00946126)
(0.0046732 -0.00558333 0.0093681)
(0.00462443 -0.00547586 0.00946401)
(0.00468607 -0.00565287 0.0097357)
(0.00438829 -0.00520047 0.00905568)
(0.0049937 -0.0059829 0.0101025)
(0.0043139 -0.00520608 0.00923377)
(0.00465269 -0.00547009 0.00931078)
(0.00448612 -0.0051882 0.00947175)
(0.00449049 -0.00521103 0.00955802)
(0.00433609 -0.00530637 0.00945701)
(0.00471973 -0.00575277 0.00991548)
(0.00511347 -0.00605028 0.010905)
(0.00493039 -0.00573662 0.0105321)
(0.00483887 -0.00583265 0.0107519)
(0.00488882 -0.00561996 0.0105556)
(0.00492952 -0.00578836 0.0105412)
(0.00477214 -0.00574332 0.0106794)
(0.00486431 -0.00559105 0.0103486)
(0.00451703 -0.00590537 0.011031)
(0.00458606 -0.00571211 0.0108099)
(0.00481924 -0.00579248 0.0105944)
(0.00500396 -0.00586409 0.0104084)
(0.00491937 -0.00599181 0.0107816)
(0.00493361 -0.00582262 0.0105765)
(0.00454813 -0.005407 0.00989018)
(0.00450346 -0.00561225 0.0101699)
(0.00473642 -0.00623968 0.0101807)
(0.00458335 -0.00606706 0.010214)
(0.00516895 -0.00622259 0.0105858)
(0.00501634 -0.00616876 0.0107107)
(0.00494971 -0.00609185 0.010229)
(0.00512031 -0.0061095 0.0110144)
(0.00508862 -0.00626748 0.010981)
(0.00464268 -0.00574207 0.0106211)
(0.00494046 -0.00548173 0.0107856)
(0.00460627 -0.0053354 0.010232)
(0.00430483 -0.00557755 0.0098703)
(0.00465595 -0.00579839 0.0105488)
(0.00474952 -0.00579957 0.0106622)
(0.00460983 -0.0057603 0.0104089)
(0.00507539 -0.00625339 0.0113113)
(0.00472428 -0.00545317 0.0105725)
(0.00429343 -0.00511323 0.0101201)
(0.00492995 -0.006106 0.0106649)
(0.0046285 -0.00558651 0.0106663)
(0.00465402 -0.00593697 0.0104984)
(0.00480661 -0.00542254 0.0110149)
(0.00531751 -0.00648686 0.0110007)
(0.0046139 -0.00588995 0.010843)
(0.00536081 -0.00639601 0.0109548)
(0.00526774 -0.00622309 0.0108994)
(0.00524795 -0.00662739 0.0109823)
(0.00479868 -0.00571069 0.0100259)
(0.00500503 -0.00597151 0.010513)
(0.00471724 -0.00560915 0.0102012)
(0.00471045 -0.00577733 0.0101722)
(0.00452263 -0.00531837 0.00991599)
(0.00430839 -0.00552453 0.0101448)
(0.00450622 -0.00526959 0.00987977)
(0.00435081 -0.0056484 0.0102287)
(0.0042693 -0.00543584 0.0100697)
(0.00440888 -0.00536555 0.00988831)
(0.0046712 -0.00570042 0.0103812)
(0.00476248 -0.00626965 0.0104489)
(0.00435608 -0.00544396 0.0101927)
(0.00405255 -0.00478143 0.00876139)
(0.0040177 -0.00455875 0.00966572)
(0.00437935 -0.00588295 0.00978782)
(0.00410375 -0.00525083 0.00955558)
(0.00455138 -0.00550602 0.010104)
(0.00454251 -0.00535141 0.00997748)
(0.00435405 -0.00527213 0.00995605)
(0.00450438 -0.0052745 0.00987354)
(0.00450431 -0.00503499 0.00956021)
(0.00421113 -0.00514538 0.00935901)
(0.00429893 -0.00531843 0.00959596)
(0.00428839 -0.00504128 0.00942594)
(0.00438755 -0.00518961 0.00957441)
(0.00425155 -0.00539585 0.00990109)
(0.00434147 -0.00523589 0.00963614)
(0.00447738 -0.00560114 0.0100497)
(0.00444373 -0.00550519 0.00984391)
(0.00462356 -0.00566205 0.0103042)
(0.00460914 -0.00533337 0.0099284)
(0.00458 -0.00544903 0.0100638)
(0.00459004 -0.00529195 0.010036)
(0.0047797 -0.00568836 0.0106971)
(0.00476309 -0.00568375 0.0102926)
(0.00500832 -0.00606838 0.0110972)
(0.00487604 -0.00559401 0.0103684)
(0.00473526 -0.00572155 0.0109625)
(0.00445449 -0.00557366 0.0104929)
(0.00469994 -0.00572828 0.0103431)
(0.00465122 -0.00557662 0.0102419)
(0.00474071 -0.00553671 0.0103816)
(0.00448334 -0.00542767 0.00946678)
(0.00444025 -0.00535631 0.01011)
(0.004849 -0.00567176 0.00958054)
(0.00429543 -0.00516241 0.00952311)
(0.00458953 -0.00551932 0.00933563)
(0.00440503 -0.00538651 0.0094791)
(0.00490187 -0.00636988 0.0110833)
(0.00444782 -0.00562463 0.00993683)
(0.00504005 -0.00604469 0.010576)
(0.00470636 -0.0060959 0.0105026)
(0.00452731 -0.00655173 0.00972954)
(0.0044427 -0.0054465 0.0100927)
(0.00463781 -0.00550041 0.00991058)
(0.00458132 -0.00557468 0.0100077)
(0.00443843 -0.00563707 0.0102176)
(0.00468558 -0.00603488 0.0105951)
(0.00500323 -0.00581617 0.010542)
(0.00498046 -0.00557079 0.01023)
(0.00500025 -0.00549426 0.00996543)
(0.0041768 -0.00503827 0.00942773)
(0.00449787 -0.00552212 0.0101146)
(0.00432756 -0.00525542 0.00997696)
(0.00431504 -0.00532704 0.00971801)
(0.00466401 -0.00557263 0.0100944)
(0.00465291 -0.00570616 0.0102183)
(0.00432837 -0.00533394 0.00983887)
(0.00462954 -0.00553347 0.0103196)
(0.00439788 -0.00521591 0.00958987)
(0.00424357 -0.00512158 0.00954095)
(0.00431078 -0.00497657 0.00993533)
(0.00474534 -0.00555832 0.0107053)
(0.0043704 -0.0050044 0.00959934)
(0.00420988 -0.00494262 0.00932123)
(0.0043778 -0.00509674 0.00943938)
(0.004496 -0.00523783 0.0097027)
(0.00423375 -0.0049864 0.00940257)
(0.00441591 -0.00524012 0.00932864)
(0.0045216 -0.0054843 0.00980478)
(0.00449559 -0.00549286 0.00970411)
(0.00487543 -0.00663169 0.0105926)
(0.00447699 -0.00528943 0.0105292)
(0.00463297 -0.00544174 0.0104412)
(0.00453435 -0.00608453 0.0102222)
(0.00490699 -0.00607163 0.0108021)
(0.00440441 -0.00543911 0.0104666)
(0.00424405 -0.00494038 0.00967962)
(0.00406711 -0.00512027 0.00922639)
(0.00410939 -0.00539928 0.00958308)
(0.00451035 -0.00593574 0.0094608)
(0.00438724 -0.00591526 0.00971331)
(0.0045954 -0.00556552 0.010732)
(0.00420475 -0.00503648 0.00931996)
(0.00414139 -0.00487776 0.00928991)
(0.0045295 -0.00629742 0.00988618)
(0.00498246 -0.00658207 0.0107339)
(0.0039898 -0.00512983 0.00904013)
(0.00473767 -0.00593005 0.0106536)
(0.00470994 -0.00532226 0.0101901)
(0.00453987 -0.00565032 0.0100165)
(0.00439543 -0.00564869 0.00977446)
(0.00428861 -0.00531831 0.00959276)
(0.00446126 -0.00534395 0.0101131)
(0.00434586 -0.0055913 0.00947099)
(0.00453305 -0.00542799 0.0101536)
(0.00487344 -0.00547877 0.010399)
(0.00432209 -0.00509221 0.00948165)
(0.0042573 -0.0051763 0.00954703)
(0.00440836 -0.00538921 0.00959368)
(0.00424451 -0.00519642 0.00968616)
(0.00459263 -0.0055908 0.00995521)
(0.00453082 -0.00538054 0.0094168)
(0.00465292 -0.00553973 0.00969382)
(0.00428449 -0.00549491 0.00987619)
(0.00423741 -0.00534844 0.00939926)
(0.00437322 -0.00511054 0.00979378)
(0.00411518 -0.0053386 0.00930935)
(0.00409797 -0.00534742 0.00956477)
(0.00467905 -0.00560047 0.00986816)
(0.00443384 -0.00510948 0.00937915)
(0.00454261 -0.00522185 0.00963079)
(0.00424863 -0.00519642 0.00954215)
(0.00425214 -0.00514335 0.00930051)
(0.00414209 -0.00543737 0.00978892)
(0.00475006 -0.00556169 0.0102552)
(0.0044465 -0.00516392 0.00955308)
(0.004424 -0.0052705 0.00942734)
(0.00440205 -0.00542976 0.0102689)
(0.00438412 -0.00532717 0.00981978)
(0.00437322 -0.00506068 0.00945567)
(0.00427705 -0.00520029 0.00978118)
(0.00402809 -0.00514145 0.00939754)
(0.00473333 -0.00495738 0.00975677)
(0.00406546 -0.00557163 0.0098466)
(0.00428716 -0.00522926 0.00938307)
(0.00467998 -0.00540991 0.0100823)
(0.00405531 -0.00511583 0.00947122)
(0.00390481 -0.00506195 0.00931601)
(0.00421768 -0.00532185 0.00982967)
(0.00460283 -0.00525171 0.00995788)
(0.00444797 -0.00498329 0.00963239)
(0.00460777 -0.0050966 0.00992938)
(0.00427941 -0.0053331 0.00984696)
(0.00457302 -0.00526954 0.00993138)
(0.00476751 -0.0053778 0.0100259)
(0.00478748 -0.00551073 0.0100169)
(0.0051098 -0.0055382 0.0106005)
(0.00492109 -0.0054265 0.0103469)
(0.00417729 -0.0054257 0.00981948)
(0.00424024 -0.0050519 0.00946035)
(0.00429682 -0.00496162 0.0093236)
(0.00432819 -0.00505781 0.00936664)
(0.00481848 -0.0053571 0.01015)
(0.00479834 -0.00526426 0.00974951)
(0.00451325 -0.00513846 0.00957131)
(0.00474742 -0.00556743 0.0105414)
(0.00450599 -0.00539186 0.00978222)
(0.00467038 -0.00556039 0.0100187)
(0.00445267 -0.00521405 0.00961735)
(0.00404069 -0.00480516 0.0089821)
(0.00409378 -0.00485466 0.0091377)
(0.00418781 -0.00517743 0.00975537)
(0.00412581 -0.00498854 0.00959732)
(0.00415316 -0.00498981 0.00936379)
(0.00449227 -0.00516171 0.00974962)
(0.00456443 -0.00541802 0.00990327)
(0.00449931 -0.00545279 0.0100848)
(0.00453148 -0.00518166 0.0093836)
(0.00468721 -0.00537711 0.0100354)
(0.00436603 -0.00524991 0.00964114)
(0.00438778 -0.00499948 0.00918144)
(0.00423389 -0.0051093 0.00951106)
(0.00422084 -0.00523936 0.0097555)
(0.00451961 -0.00537769 0.0098527)
(0.00406825 -0.00536317 0.00948642)
(0.00403297 -0.00520379 0.00948045)
(0.00446984 -0.00527585 0.00992311)
(0.00463379 -0.00490473 0.00951618)
(0.00443842 -0.00482233 0.00923613)
(0.00433962 -0.00501455 0.00941228)
(0.00439194 -0.00506314 0.00957091)
(0.00427167 -0.00509945 0.0095298)
(0.00427115 -0.00530711 0.00977187)
(0.00445681 -0.00511814 0.00982549)
(0.00454107 -0.00511166 0.00965599)
(0.00442237 -0.00564787 0.0100478)
(0.00447409 -0.00531325 0.00984419)
(0.00451798 -0.00504651 0.00972656)
(0.00460686 -0.00524021 0.00997033)
(0.00462182 -0.00512546 0.00985333)
(0.00427041 -0.00488118 0.00932827)
(0.00433052 -0.00505253 0.00958351)
(0.00400358 -0.00544771 0.00937137)
(0.00432548 -0.00523335 0.00972522)
(0.00469199 -0.0052467 0.00999801)