/*--------------------------------*- C++ -*----------------------------------*\
| =========                 |                                                 |
| \\      /  F ield         | OpenFOAM: The Open Source CFD Toolbox           |
|  \\    /   O peration     | Version:  v1612+                                |
|   \\  /    A nd           | Web:      www.OpenFOAM.com                      |
|    \\/     M anipulation  |                                                 |
\*---------------------------------------------------------------------------*/
FoamFile
{
    version     2.0;
    format      ascii;
    class       surfaceScalarField;
    location    "239";
    object      phi;
}
// * * * * * * * * * * * * * * * * * * * * * * * * * * * * * * * * * * * * * //

dimensions      [0 3 -1 0 0 0 0];

internalField   nonuniform List<scalar> 
36890
(
7.01565e-09
2.1562e-09
-6.42378e-09
-2.74807e-09
-3.87757e-09
1.20995e-09
2.53763e-09
1.29986e-10
6.77546e-09
8.22728e-10
-5.15297e-09
-2.44523e-09
-1.48476e-09
3.30149e-09
4.95872e-09
9.34405e-09
-1.5303e-09
-2.29334e-09
-5.52042e-09
5.03922e-09
2.82008e-09
2.8213e-09
-2.49911e-09
4.63971e-09
-4.9619e-09
1.39285e-08
-1.02464e-08
-5.21239e-09
-3.36908e-09
6.5904e-09
8.01817e-11
-2.43253e-09
-1.13827e-10
-2.53986e-09
-4.90646e-09
1.24473e-09
-8.45048e-09
4.19862e-09
3.00712e-09
1.09113e-09
-2.38625e-09
3.36279e-09
-2.38896e-09
1.17288e-10
1.25125e-09
-3.20982e-10
-2.50159e-09
-4.9988e-09
3.37349e-09
4.12691e-09
-4.26288e-09
8.88654e-10
8.72636e-10
9.00811e-10
-4.32876e-09
-1.57086e-09
-3.09103e-09
-2.71026e-10
-2.11101e-09
-3.51785e-09
9.00236e-09
-3.67173e-09
2.44942e-09
-4.56399e-09
-5.3444e-09
6.23665e-09
-2.64744e-09
-1.45878e-09
-4.57759e-10
-6.62348e-09
1.37406e-09
-9.49747e-11
-4.82803e-09
-4.44288e-09
5.36721e-09
-3.73241e-09
-1.08298e-08
9.19503e-09
9.38994e-09
-1.13672e-09
-2.88603e-09
1.27741e-08
-6.90204e-09
-3.80359e-09
-7.46222e-10
1.11543e-09
-9.67587e-09
-3.4404e-09
-2.02508e-09
-6.12856e-09
7.01887e-09
-1.91928e-10
-6.1443e-09
-6.82654e-10
-3.39518e-09
5.15181e-09
5.26224e-09
-7.40485e-09
-1.11796e-09
8.33088e-09
2.90749e-09
-5.06091e-09
-3.99087e-09
-6.00747e-10
1.13047e-10
-6.77951e-09
3.99232e-09
1.47573e-11
2.77242e-09
1.17678e-09
-5.00748e-09
-1.66984e-09
5.50054e-09
-2.93234e-09
3.82065e-09
2.88466e-10
-3.72289e-09
2.92949e-09
-6.61147e-09
-1.45139e-10
-8.63867e-09
-3.70336e-09
1.70279e-10
-1.22441e-09
-2.6256e-09
-2.62807e-09
-3.60382e-09
-6.47657e-09
1.18358e-08
-3.94563e-09
-1.005e-09
-6.88514e-09
-5.0193e-09
1.0402e-08
-2.1859e-09
1.1857e-09
5.09836e-09
-4.09814e-09
3.47436e-09
2.56606e-10
-5.91686e-09
-7.16962e-09
3.05358e-10
1.84498e-09
-7.64088e-09
8.03625e-10
-1.58619e-09
-3.29154e-09
-2.8339e-09
-2.4094e-09
-3.6559e-09
-3.73898e-09
1.21008e-09
6.35874e-09
8.61607e-09
-1.1013e-08
-3.96178e-09
1.02379e-08
-2.76501e-09
-1.11417e-09
7.02166e-09
-6.10709e-09
9.32331e-09
1.24304e-08
-4.72471e-09
9.10441e-10
2.41719e-09
1.70348e-08
9.47647e-09
-9.27954e-09
-2.96194e-09
-9.39806e-10
4.30918e-09
1.02248e-08
-9.64042e-09
-5.3091e-09
-4.94288e-09
1.75849e-08
-7.4853e-09
-1.07403e-08
1.32827e-08
-1.35079e-08
5.08277e-09
-1.71065e-09
-1.16299e-08
2.32748e-09
-1.27034e-08
1.05665e-08
4.26278e-10
-1.4158e-09
6.40659e-09
-1.66207e-08
5.87426e-09
-1.99935e-08
2.14154e-09
-5.11377e-09
-7.76808e-09
-5.13341e-09
-6.23294e-09
-8.00636e-09
-6.27035e-09
7.19642e-09
-5.50987e-09
1.23608e-08
9.78706e-09
-3.8676e-09
-1.82803e-08
1.2616e-08
3.04593e-09
-3.30108e-09
1.49478e-08
4.28888e-09
-9.44966e-09
7.26908e-09
1.29841e-08
-9.91916e-09
-1.0334e-08
7.4052e-09
-1.94344e-09
1.80731e-09
9.83923e-09
-5.78064e-09
-5.54231e-09
1.4837e-09
-9.89666e-09
1.99681e-08
-2.32279e-10
-5.20271e-11
1.37048e-08
-1.03676e-09
1.60553e-08
-1.15954e-09
-1.91917e-08
1.85349e-08
8.06205e-09
-3.16165e-09
-1.0004e-08
2.27991e-09
1.81536e-08
-1.29164e-08
-1.07795e-08
-3.96984e-09
1.22268e-08
4.6563e-09
7.42919e-09
1.04434e-08
7.9177e-09
-4.42068e-09
6.21087e-09
-1.17942e-08
-1.82074e-08
-2.41669e-09
-2.73236e-10
-4.11158e-09
-1.21015e-09
2.13025e-09
-3.38984e-09
-2.51339e-09
-1.48606e-09
-1.12506e-12
5.08709e-10
-4.76947e-09
8.70914e-10
3.7372e-09
-8.41768e-10
-3.16868e-09
2.19157e-09
-2.79294e-09
-8.71425e-10
-9.14954e-11
2.20916e-09
-2.54223e-09
-1.48326e-10
-6.25456e-09
1.66727e-09
-3.18231e-09
7.76954e-09
5.10031e-09
-9.9816e-09
-1.37334e-09
-1.6861e-08
4.33729e-09
1.09178e-08
1.60579e-09
8.76654e-10
3.56478e-09
-6.35425e-09
-2.89416e-09
1.09156e-08
-8.56202e-09
7.30804e-09
-1.18968e-08
5.75538e-11
8.65695e-09
-1.15835e-08
5.93921e-09
3.03261e-09
-1.37396e-08
8.27648e-09
-9.25558e-09
-2.20016e-08
7.28711e-09
9.44534e-09
5.26908e-09
-3.80706e-09
-1.57743e-08
-2.42027e-09
-1.09575e-08
8.12089e-09
1.22882e-08
-1.30627e-08
1.10133e-08
1.07094e-08
-1.22216e-08
7.1863e-09
-1.65164e-09
-1.55998e-08
1.00651e-08
6.88516e-09
-1.2221e-08
1.25221e-08
-2.66864e-09
1.51801e-08
-1.87508e-08
6.23934e-09
-8.02092e-09
1.63143e-08
4.47004e-09
-1.27634e-08
9.94346e-09
-1.17826e-08
-6.1818e-09
-1.50804e-08
-1.68286e-09
2.11233e-08
-4.36001e-09
-5.40218e-09
2.65251e-10
-2.01405e-08
3.54834e-09
1.39236e-08
1.00414e-10
-1.33558e-08
-2.05611e-08
7.12693e-09
-6.66334e-09
2.12948e-08
-2.13621e-08
1.82471e-08
-1.43023e-08
-6.95933e-09
2.38123e-09
-7.82408e-09
7.26722e-09
-1.82437e-09
-7.53957e-09
8.94433e-09
9.76419e-10
-2.991e-09
-7.09787e-10
-4.12334e-09
-3.33621e-09
-7.19438e-09
-5.72187e-09
8.63934e-09
-6.53507e-10
-2.26398e-09
-4.37139e-10
-8.62097e-09
-4.41245e-09
5.46249e-09
6.21716e-09
2.63234e-09
1.89952e-09
4.62544e-09
9.44025e-09
-5.42637e-09
6.31382e-09
9.4394e-10
2.13979e-09
-2.99244e-09
-7.47805e-09
8.33064e-09
-1.8468e-09
3.27678e-09
-7.15507e-09
9.39964e-09
-2.89811e-09
-1.05846e-08
6.16258e-09
-1.75103e-09
5.02868e-09
3.05926e-09
9.41712e-09
1.02861e-08
-6.12548e-09
-2.14319e-09
-2.01744e-09
-5.81725e-09
4.84934e-09
1.1254e-08
-2.05238e-09
1.05741e-08
1.59505e-08
-1.26764e-08
8.38225e-09
1.09972e-08
-8.20023e-09
8.80884e-09
2.00533e-09
3.34822e-09
-1.41624e-08
1.08258e-08
3.57829e-09
-5.59526e-09
3.76992e-09
7.58602e-09
-5.30155e-10
9.88074e-09
-8.31279e-09
2.20197e-09
4.03982e-10
8.45044e-09
1.02628e-09
8.61441e-10
7.12852e-09
6.39896e-10
1.15097e-08
-1.07608e-08
-1.38893e-09
-7.20083e-10
1.13136e-08
-9.95361e-09
5.76792e-09
4.23931e-09
-8.00194e-09
1.07848e-08
-1.43861e-09
4.27695e-09
-9.24153e-09
1.09261e-08
-4.68197e-09
-5.37485e-10
-9.31156e-09
1.4531e-08
-1.454e-08
1.40973e-08
-7.41332e-09
1.11528e-08
4.7145e-09
-1.55331e-08
-1.67579e-09
1.24944e-08
-1.70405e-08
2.30646e-09
1.94486e-08
1.20469e-08
-1.08454e-08
-1.67346e-08
-3.43892e-09
-1.55473e-09
-6.47264e-10
1.607e-08
-1.31163e-08
2.36689e-09
-1.47001e-09
-1.725e-08
1.63531e-08
-1.40799e-08
1.57995e-08
1.17693e-08
-5.98668e-09
8.9576e-09
-1.47402e-08
-1.93094e-09
-3.7966e-10
9.93899e-09
2.16766e-09
-1.80933e-08
-1.74711e-09
9.75517e-09
-1.5868e-08
1.27222e-08
2.56574e-09
-1.08582e-08
5.26831e-09
-1.3946e-08
-8.03392e-09
1.41768e-08
1.15801e-09
-6.67616e-09
-8.65861e-09
1.22931e-08
1.25969e-08
-1.07132e-08
2.39692e-08
-2.47786e-09
-2.27617e-08
1.27028e-09
7.39183e-09
1.05167e-08
6.06065e-09
-2.15706e-08
-5.80381e-10
1.96731e-08
3.68538e-09
-9.46868e-09
-1.57873e-08
-2.79928e-08
1.0911e-08
-5.67999e-09
-8.80145e-09
-1.5506e-08
2.65074e-08
-1.22966e-08
-1.91769e-09
-1.59583e-08
-2.59267e-09
-4.12935e-10
1.8964e-08
-1.20724e-08
-2.55196e-08
2.16337e-08
-1.12778e-09
-2.04133e-08
3.82494e-09
5.00545e-09
-9.95825e-09
9.41018e-09
-1.43868e-08
-1.1638e-08
-2.21957e-09
1.12649e-08
-3.51654e-09
-3.11613e-09
1.3554e-08
-7.66042e-09
1.99073e-08
4.55778e-09
1.54614e-08
1.18377e-08
-3.15267e-09
1.87458e-09
6.6422e-09
-5.36412e-09
4.74973e-09
-9.89168e-10
-6.91325e-09
9.34511e-09
3.58225e-09
-8.17764e-09
6.08605e-10
8.57266e-09
1.63842e-10
-2.61593e-09
1.23229e-08
-7.83241e-09
7.04162e-09
2.09189e-10
-7.36013e-09
1.21036e-08
-1.1612e-09
3.55004e-09
-9.10498e-09
4.56576e-09
1.17609e-08
-1.08268e-08
1.37519e-09
-6.15921e-10
1.05958e-08
-1.13551e-08
1.22291e-09
9.12552e-09
-8.97324e-09
1.03797e-08
1.62466e-09
3.18568e-10
1.04714e-08
6.94993e-09
1.56233e-09
1.12747e-08
-1.34529e-08
1.08519e-08
2.53371e-09
6.80384e-09
1.22212e-08
-8.17321e-09
2.35164e-09
6.01452e-09
8.37358e-10
1.37355e-08
1.25316e-08
3.54036e-09
4.32116e-09
-2.72095e-09
-5.1406e-09
3.89716e-09
4.57745e-10
-8.14551e-10
-6.01765e-09
4.13182e-09
5.78298e-09
-7.98296e-10
-8.98208e-10
9.42988e-10
-9.5994e-09
3.86823e-11
8.61771e-09
-6.83097e-09
1.80107e-10
7.59383e-09
5.5365e-09
-3.35601e-09
4.65909e-09
-6.8396e-09
5.69491e-09
-9.56719e-10
1.32966e-09
-7.40663e-09
4.34696e-09
5.63653e-09
-8.65385e-09
4.46568e-09
-5.42597e-09
-5.87068e-09
-6.67852e-09
1.54479e-09
-6.21271e-10
6.64689e-10
-5.3371e-09
4.71108e-09
4.97661e-09
6.27946e-09
-4.0698e-10
-1.2134e-09
6.63727e-09
-1.44898e-09
4.82003e-09
1.26258e-09
4.90335e-10
-6.57297e-09
1.10691e-09
-1.37659e-09
5.08971e-09
4.50255e-09
1.31942e-09
-4.55941e-09
5.65437e-09
-4.49066e-11
3.92663e-09
1.59655e-09
-5.03285e-09
4.81059e-09
-5.09768e-10
-3.74179e-10
-2.73179e-10
4.4583e-09
1.46925e-09
4.0961e-09
1.14876e-09
-5.51801e-09
4.40461e-09
4.79233e-10
-4.25554e-10
-1.36965e-09
-1.59632e-09
7.37058e-09
-2.89018e-09
5.61663e-09
-7.86061e-09
9.71663e-09
-3.45238e-09
-8.19081e-09
8.09393e-10
1.30376e-09
-8.54884e-09
8.84161e-09
-5.56764e-09
3.35968e-09
-1.4393e-09
1.90948e-08
7.40759e-09
-1.23102e-08
-1.41922e-08
6.87096e-09
2.4497e-10
1.19788e-08
-6.46578e-09
-8.96946e-09
1.47151e-09
1.42018e-08
-4.01792e-09
-2.7763e-09
1.61772e-08
4.8955e-09
-1.43474e-08
5.5518e-09
9.04056e-09
-5.00929e-09
-2.16483e-08
8.07277e-09
-8.98675e-09
4.57727e-10
-1.05843e-08
1.87435e-09
8.25221e-09
-1.1115e-08
-9.09522e-09
1.01673e-08
-7.60129e-09
6.52918e-09
-2.01424e-09
7.95395e-09
-1.50349e-08
-1.42079e-08
7.18437e-09
-5.51151e-09
5.09451e-09
-1.57548e-09
-1.61463e-09
-1.34956e-09
4.1371e-09
-1.17291e-09
2.49925e-09
-3.46007e-09
-4.07349e-09
5.0343e-09
-7.28815e-10
-3.20628e-10
3.54869e-09
1.94042e-09
-4.82062e-09
1.7245e-09
1.15572e-09
-1.95242e-09
2.2782e-09
2.24294e-09
-2.38519e-09
-5.86576e-10
-1.8542e-09
2.74759e-09
1.21655e-09
-1.19844e-09
-2.4033e-09
2.04636e-09
-7.82979e-10
-4.68229e-11
-1.61501e-09
-2.7261e-10
-6.48005e-11
-2.34677e-09
-8.08314e-10
-1.6655e-09
-1.75711e-09
-2.20466e-09
-8.04495e-11
-1.99835e-09
-2.27004e-09
1.29096e-09
-1.24913e-09
2.93477e-09
1.24586e-08
-2.2075e-08
6.68168e-09
1.00442e-08
5.82669e-09
-1.29361e-08
5.46963e-10
1.01645e-08
8.02887e-09
2.56229e-09
-1.2911e-09
3.48678e-09
3.56554e-09
-5.76123e-09
4.29469e-09
-7.60078e-09
2.01498e-09
-1.06588e-08
5.91977e-10
1.31455e-09
8.75231e-09
5.07678e-09
-9.90893e-09
1.31828e-08
-5.16696e-09
-2.93904e-09
1.78871e-09
-4.97083e-09
7.47681e-09
-3.4174e-09
8.69286e-09
7.294e-09
1.76889e-09
3.55583e-09
-1.26187e-08
1.04179e-08
1.05896e-08
-1.37135e-08
1.02008e-09
2.09287e-09
4.34285e-09
6.74705e-09
8.18127e-10
3.0155e-09
-8.80448e-09
-6.0881e-09
3.48881e-09
6.42266e-09
-1.64876e-10
-1.06188e-08
8.34635e-09
2.43736e-09
-9.75437e-09
7.68453e-09
1.90497e-09
-7.67656e-09
8.57948e-09
-1.67e-09
7.67065e-10
6.93992e-09
-1.05284e-09
-1.35636e-08
-4.47033e-09
7.63655e-09
-1.31889e-09
-1.84734e-09
1.21575e-08
-9.68795e-09
-1.09653e-09
7.17936e-09
-6.41621e-09
3.33365e-10
6.07923e-09
-1.31746e-08
6.04247e-09
7.27791e-09
6.98108e-09
-8.17977e-09
6.12246e-09
5.89173e-11
1.64038e-09
-7.38267e-09
-4.0121e-09
-7.12523e-09
-1.85324e-09
-5.77488e-10
7.84787e-10
-7.33254e-09
6.60453e-09
-2.65718e-12
6.84911e-09
-6.68719e-09
3.05482e-10
-4.67416e-10
9.39572e-09
-2.15544e-09
-3.91186e-10
7.65537e-09
2.53973e-09
1.96242e-09
8.20044e-09
7.09148e-09
-6.49894e-09
5.93421e-09
-8.36751e-10
3.73653e-09
-7.98323e-09
4.77596e-09
-7.2759e-09
1.04832e-08
1.17721e-10
-4.28401e-09
-3.81697e-09
-5.52096e-09
-5.7329e-09
1.13716e-08
2.02155e-10
-5.38716e-09
9.26723e-09
-4.0822e-09
-3.77025e-09
-2.22355e-09
6.19596e-09
1.83562e-08
3.73847e-09
-8.06553e-09
-1.4029e-08
-6.72647e-09
1.52812e-08
9.8015e-09
-5.71788e-09
7.95015e-09
-3.6614e-09
1.42914e-09
-4.5316e-09
-2.24931e-09
1.05194e-08
-4.96024e-09
-5.09232e-09
4.80355e-10
-9.21083e-09
-1.27723e-08
7.86549e-09
8.11527e-09
1.75898e-09
-6.06977e-10
3.01964e-10
2.11187e-09
-9.14019e-09
2.69936e-09
-4.53184e-09
-3.79589e-09
-3.4386e-09
-3.72021e-11
-1.24745e-10
-4.28762e-10
-2.65022e-10
-3.83805e-09
-4.24209e-10
-3.44316e-09
-1.9264e-09
-6.26012e-11
2.16281e-09
-1.21962e-10
-2.46506e-09
3.72285e-10
-1.3588e-10
-5.15772e-10
-3.48823e-09
2.66299e-09
-3.30072e-09
1.99698e-09
-2.62553e-09
-1.07508e-10
3.47542e-09
-1.56153e-09
-3.72953e-09
9.06079e-10
-2.80632e-10
-6.21402e-09
3.76066e-09
8.42145e-09
-5.01249e-09
-3.41349e-09
4.51555e-12
5.17171e-09
-2.30928e-09
5.55902e-09
9.78355e-09
-4.1893e-09
-2.43927e-09
-3.15498e-09
3.52824e-09
1.1427e-08
-5.54132e-09
-3.66047e-09
-5.83421e-09
1.92133e-09
1.6036e-09
-6.5266e-09
-2.7211e-09
1.05712e-08
-5.43349e-09
2.37339e-09
-7.5111e-09
4.27252e-09
2.76748e-10
6.02192e-09
-2.97719e-09
-4.89557e-09
-2.69801e-09
-9.36991e-09
-6.14693e-10
8.41546e-09
1.08282e-08
-4.37717e-09
-4.07762e-09
4.75697e-09
6.34797e-09
-9.02857e-09
3.35337e-09
8.68543e-09
-4.54315e-09
-7.91448e-09
7.77243e-09
1.01695e-09
-8.74915e-10
-6.11273e-09
-6.67321e-09
4.87143e-09
-5.25206e-09
-2.50986e-09
6.64776e-09
-1.09433e-08
1.72943e-09
1.02455e-08
-2.99276e-09
-3.06978e-09
-4.18302e-09
2.66459e-10
7.74251e-09
2.23657e-09
6.25321e-09
1.78568e-09
6.75245e-09
-2.66132e-09
-7.31474e-10
8.41642e-09
5.77923e-09
-7.44321e-09
-7.96558e-10
4.53991e-09
4.65792e-09
1.08676e-08
-1.40683e-08
-5.64077e-09
-3.46475e-09
7.37588e-10
-1.28234e-09
-1.6076e-08
-8.12861e-09
-1.30068e-10
8.99622e-09
-8.11016e-09
6.71777e-09
1.10011e-10
2.53197e-09
-3.07059e-09
2.70675e-09
-2.16813e-09
3.13227e-09
-7.98203e-10
1.97908e-10
1.86526e-09
-2.09675e-09
-2.8391e-09
2.96024e-09
-5.73142e-10
-5.21841e-10
6.75981e-10
2.70672e-09
4.62317e-09
-8.0059e-09
3.32227e-09
-4.74305e-09
-4.72753e-09
3.08684e-09
4.77296e-09
-1.71766e-09
-3.03132e-10
2.03944e-09
1.22594e-10
3.72062e-09
-1.58703e-09
1.80452e-09
-1.99874e-10
-4.25221e-09
3.5125e-09
9.57665e-10
-2.1796e-10
2.888e-09
-3.4196e-09
-2.47204e-09
3.7587e-09
2.22582e-09
5.07249e-10
-9.1301e-11
-2.54726e-09
-2.30684e-10
3.53926e-10
2.42401e-09
-5.74547e-13
-3.50761e-09
4.12876e-09
1.18336e-09
4.55133e-09
-3.43578e-09
5.46409e-09
3.47155e-10
3.18085e-09
-4.73909e-11
3.48816e-09
8.40943e-10
4.9703e-09
4.92231e-09
-2.42847e-10
-4.26656e-09
6.04906e-09
-1.53962e-09
-4.04333e-09
5.51127e-09
-1.71077e-09
-1.71162e-10
-3.17573e-09
7.5243e-09
-4.17739e-09
6.14337e-10
-4.24172e-09
-6.39167e-10
-3.51829e-09
8.92998e-11
-2.74478e-09
-1.6681e-09
-2.54501e-09
3.29012e-09
-3.48989e-09
4.12752e-09
-7.92188e-09
1.24937e-09
4.70037e-09
4.76065e-09
-5.33349e-09
3.27076e-10
4.21614e-09
1.57159e-10
-1.05666e-09
-2.85105e-09
8.66837e-09
9.89051e-11
7.27838e-09
-1.20596e-08
-6.52964e-09
1.13108e-08
-2.235e-09
-1.02645e-08
1.97778e-08
-1.07771e-08
-1.21627e-08
2.07048e-08
-4.69811e-09
-9.53808e-09
3.45906e-09
-1.09479e-08
1.52571e-08
3.46034e-09
1.03182e-08
-1.26092e-08
6.18019e-09
-2.98274e-09
-1.02327e-08
6.1484e-09
-3.12134e-10
1.15358e-08
-1.27834e-08
-8.29047e-09
-7.48374e-09
6.85683e-09
6.60313e-10
-5.74807e-10
6.61601e-09
-1.12785e-08
-2.07431e-10
2.62263e-08
-4.75151e-09
-1.2485e-08
-8.98977e-09
-1.55243e-09
1.71733e-08
1.06055e-08
-1.2393e-08
-9.76795e-09
1.74095e-08
1.5004e-08
-1.15525e-08
-1.59364e-08
5.10297e-09
8.34857e-09
-2.84054e-10
-1.20656e-08
4.03257e-09
8.31709e-09
-8.84433e-09
-2.28623e-09
2.11636e-08
-1.0033e-08
-1.10404e-08
7.29899e-09
-3.91083e-09
-6.37543e-09
-1.26624e-09
7.72017e-09
-1.1915e-08
-1.59814e-08
-1.77225e-09
7.96903e-09
9.78461e-09
3.34945e-10
-7.76386e-09
-8.55243e-09
1.10915e-08
-5.76929e-09
-1.05052e-08
5.18299e-09
1.72855e-09
-1.67743e-09
-6.98656e-09
1.19857e-08
-7.28539e-09
6.95973e-09
-1.16325e-08
1.41258e-08
-6.83112e-09
5.36699e-09
1.1731e-08
1.08343e-08
-2.04557e-08
-2.10962e-09
1.33771e-08
-1.2348e-09
-4.11402e-10
1.27498e-08
1.62986e-08
-1.56713e-08
-2.28977e-09
1.63194e-08
-1.27976e-09
3.69936e-09
1.00221e-08
-5.30862e-09
-8.41284e-09
1.19317e-08
-1.08845e-08
2.65213e-09
1.15088e-08
-1.22126e-08
1.26354e-08
-1.22995e-09
1.07091e-08
2.02961e-09
1.12637e-08
-2.71918e-09
-1.20638e-08
1.20383e-08
1.63449e-08
3.00481e-09
1.71356e-08
-1.5829e-08
8.71544e-09
1.12257e-08
4.18612e-09
1.72378e-09
1.90765e-09
1.57579e-08
-6.95642e-09
-9.82676e-09
7.22462e-09
1.38659e-08
2.05889e-08
-6.64295e-09
-1.0919e-09
3.68703e-09
2.87947e-09
-5.47467e-09
1.91326e-09
1.13569e-09
-4.14091e-09
-5.9124e-09
4.06642e-09
-4.84726e-09
6.69322e-09
5.02618e-09
-1.38116e-08
2.87297e-09
-2.57715e-09
-8.34583e-10
7.47814e-09
-4.42018e-09
6.86919e-09
2.19535e-09
-2.24085e-09
3.73252e-09
-3.75357e-09
-9.37107e-09
-6.86961e-10
-7.30699e-10
-1.25972e-09
-3.24307e-09
5.23344e-09
-1.01114e-09
-3.85018e-09
4.13061e-09
-3.10975e-09
4.4705e-09
-1.8454e-09
6.48911e-10
-8.2547e-10
-5.73192e-09
2.13718e-09
1.36957e-09
-4.4359e-09
-5.11394e-09
-4.37157e-09
-7.02888e-09
3.36211e-10
-7.81201e-09
-2.28024e-10
-5.30738e-09
-1.06629e-09
1.4192e-09
-9.66779e-09
-1.8538e-09
1.01024e-08
4.88238e-10
6.13704e-09
-5.20608e-09
5.65529e-09
-1.54073e-08
8.4213e-11
9.31491e-09
-3.39571e-09
-2.63926e-10
9.42518e-09
9.4353e-10
-1.05381e-09
-5.34424e-09
-4.53139e-09
1.0015e-08
-4.79169e-09
-1.05676e-08
2.17011e-08
7.54175e-09
-1.56493e-08
-1.35936e-08
1.69064e-08
-5.96407e-09
1.07587e-08
9.95365e-10
-1.74056e-08
1.03124e-08
6.0978e-09
4.74306e-09
-1.17773e-08
8.02957e-09
-7.94884e-09
-1.4144e-08
1.9182e-09
2.01746e-08
-1.2697e-08
9.49119e-09
1.59502e-08
-4.62761e-09
-3.78089e-09
2.22297e-08
1.06268e-08
-8.73819e-10
-1.46718e-08
1.40163e-09
3.09124e-10
-1.38799e-08
6.45182e-09
6.52322e-09
4.78365e-09
-1.77587e-08
1.0285e-08
3.0192e-09
-6.85242e-09
-1.10233e-08
4.74704e-09
-2.01493e-08
-7.80187e-09
-1.09876e-08
1.38387e-09
-1.26009e-08
-6.97825e-09
-5.3302e-09
-7.52058e-09
1.48106e-08
-4.27082e-09
-1.39229e-08
1.1186e-08
-6.4657e-09
1.69634e-09
5.13361e-10
-3.27881e-09
8.8854e-09
1.20491e-08
-1.76557e-08
1.40287e-08
1.98969e-09
-8.33381e-09
3.23723e-09
7.51262e-09
2.8747e-09
1.09082e-08
-1.58851e-08
2.10216e-09
1.21204e-08
6.2157e-09
3.07862e-09
-7.51814e-10
8.58138e-09
1.20846e-09
1.39906e-08
3.76533e-09
-1.84093e-08
8.96394e-09
6.60394e-09
1.27982e-08
1.52792e-08
-5.37111e-09
-7.91845e-09
9.33297e-09
9.1835e-09
-5.73239e-09
-5.59487e-09
-1.50837e-09
9.32077e-09
-6.45474e-09
4.19456e-09
-6.69935e-09
8.03864e-09
-6.71039e-09
7.91407e-09
-1.08481e-08
9.72068e-09
-2.92617e-09
1.24414e-09
1.25989e-08
-7.44477e-10
-2.71446e-09
4.82937e-09
-3.32607e-09
1.21117e-09
5.64064e-09
-8.88526e-09
-1.97166e-09
5.68356e-09
1.11744e-09
-6.77368e-09
4.89438e-09
-9.2354e-11
5.86922e-09
-7.00226e-09
5.53538e-09
2.49277e-09
-2.34462e-09
7.20262e-09
-5.18264e-09
6.43047e-09
-7.33683e-09
1.28451e-08
2.70689e-11
-6.656e-09
4.21355e-09
-1.10334e-09
-7.872e-10
9.01905e-09
-1.89014e-09
-2.09333e-08
-6.63607e-09
1.67898e-08
-1.37027e-08
-9.64729e-09
1.52458e-08
-3.9642e-09
-1.56628e-08
4.38123e-09
-1.03057e-08
1.22427e-08
1.33087e-08
3.98846e-09
-1.20142e-08
1.1506e-08
-1.10701e-08
1.08938e-08
-1.13298e-08
1.42016e-08
-1.81982e-08
-9.70618e-09
1.8734e-09
5.69211e-09
2.29642e-08
-9.23785e-09
5.48286e-09
7.89654e-09
-7.2402e-09
2.6519e-09
1.19384e-10
4.46893e-09
-5.49232e-10
-5.80153e-09
-8.89433e-10
-6.64622e-09
1.47833e-09
7.8198e-09
-5.85839e-09
-1.33704e-09
-1.78866e-09
-6.0047e-09
9.27173e-09
-1.85274e-09
-4.43477e-09
4.49886e-09
-5.00642e-09
3.27307e-09
-1.34526e-09
-5.21162e-09
7.55351e-10
3.60611e-09
-1.78407e-10
2.69232e-09
2.50236e-09
-5.39452e-09
7.4386e-09
-3.56291e-09
-9.99219e-10
-6.16768e-09
1.30851e-09
6.54769e-09
-1.08311e-10
-3.8596e-10
9.28942e-10
1.01584e-10
2.08785e-09
-2.02773e-09
-3.48702e-09
-5.69306e-09
1.8546e-09
-6.15085e-09
2.22754e-10
3.6814e-09
-6.89553e-09
5.57924e-10
2.65624e-09
1.58669e-10
6.70623e-09
-3.18347e-09
7.67898e-09
-4.6508e-09
-1.1912e-09
-1.83696e-09
2.63806e-09
-3.0825e-09
-2.47712e-09
5.7183e-09
-5.45238e-09
2.92781e-09
-2.72418e-09
-4.99946e-09
4.73114e-09
2.9925e-09
-5.29843e-09
1.44716e-09
1.1271e-09
3.21471e-09
-5.86574e-09
-2.64739e-09
-1.60063e-09
-1.8409e-10
-2.48477e-09
-5.9361e-09
-6.60829e-09
2.60307e-09
3.97853e-09
2.15397e-09
-2.24815e-09
-1.11215e-09
-3.49081e-10
-6.78649e-09
-4.57971e-09
-3.21978e-09
5.21853e-09
-4.4557e-09
-6.65321e-10
-9.75341e-11
8.04655e-10
3.59932e-09
-4.84962e-10
7.73663e-09
-6.93239e-09
-3.19294e-10
-4.4168e-09
-5.23857e-10
-5.92029e-09
6.10367e-09
-5.00439e-09
-8.01539e-10
-9.32373e-09
1.11401e-08
-2.45823e-09
6.3035e-09
-1.07777e-08
-3.44022e-09
1.09489e-09
-2.07147e-09
1.47213e-09
2.28213e-09
-3.4181e-09
-6.27066e-09
-2.06254e-09
-3.20828e-09
-7.0121e-10
-5.15425e-09
1.57946e-09
-3.93289e-09
9.59216e-09
-7.23875e-09
9.7403e-09
-2.39087e-09
-5.76999e-09
1.25599e-09
3.4034e-09
5.13695e-09
-9.79636e-09
7.19029e-09
-9.86719e-09
-6.49384e-09
5.79993e-09
1.04342e-08
-4.01292e-10
3.49961e-09
9.32419e-09
2.62035e-09
-4.75425e-09
6.31226e-09
-5.29974e-09
5.99933e-09
2.92357e-09
-1.25568e-08
5.27399e-09
9.48469e-10
6.33435e-09
-8.37707e-09
-1.50225e-09
-2.67752e-09
5.66853e-09
-8.90865e-09
1.13387e-08
-3.04982e-09
8.14523e-09
-3.33523e-09
4.79834e-09
8.62087e-09
2.44215e-09
-5.50821e-09
9.06538e-09
1.30404e-08
6.77896e-09
-2.58348e-08
4.62768e-09
1.19561e-08
9.25106e-09
-6.87159e-09
4.15221e-09
-2.31154e-08
1.9352e-08
-1.44459e-08
1.22874e-09
-6.13486e-09
1.20748e-08
1.19049e-08
-1.86889e-09
1.41897e-08
-1.38618e-09
-8.65132e-09
9.1763e-09
1.69696e-08
1.89046e-09
8.46619e-09
-1.22255e-08
9.07923e-09
4.36572e-09
-1.15545e-08
-1.11901e-08
2.67161e-09
2.05933e-08
1.51065e-08
-9.9701e-09
-3.9076e-09
-6.36056e-09
1.02769e-08
-2.12181e-09
1.33494e-08
-2.14835e-09
-3.62572e-09
1.08661e-08
-7.88657e-09
-7.2845e-09
1.91324e-08
3.57455e-09
3.41429e-09
7.15617e-09
1.04662e-08
-8.77844e-09
-1.24457e-10
-1.56328e-09
-1.27341e-09
1.29009e-09
1.04495e-08
4.45424e-09
-8.02265e-09
-5.21004e-09
6.51069e-09
-2.10871e-09
5.22554e-11
1.14064e-08
-9.38669e-09
-2.14418e-09
4.9405e-10
9.63895e-09
-5.38238e-09
-6.8074e-09
-1.55413e-09
1.37439e-08
9.77942e-10
1.06223e-09
-1.00628e-08
3.31109e-10
7.46967e-09
1.86555e-09
-1.02743e-08
-1.03842e-08
9.33171e-09
1.5465e-09
-9.18046e-09
-6.58608e-09
5.3592e-09
1.57951e-09
-5.87648e-09
3.39226e-09
-1.41768e-10
5.37076e-09
-7.23856e-09
-4.93961e-09
8.47121e-09
2.91814e-10
-4.82522e-10
-6.83239e-09
-6.14157e-09
9.67145e-09
-8.69126e-10
1.77021e-09
6.43648e-09
1.08927e-08
-1.90994e-08
1.02055e-08
1.38853e-08
-2.23206e-08
1.32701e-08
-1.55132e-08
5.45209e-09
-3.20905e-09
4.01585e-09
1.20335e-08
-2.77931e-09
-1.32985e-08
6.18998e-09
1.35449e-08
-5.7615e-10
-8.70645e-09
2.01738e-10
3.86395e-10
-1.70824e-08
1.64942e-08
1.2041e-08
1.94299e-10
-1.69471e-08
1.97949e-08
7.35774e-09
1.76517e-09
-7.48658e-09
1.66018e-08
1.6291e-09
6.46759e-09
6.14136e-09
-1.19108e-08
-6.98117e-10
6.96796e-09
5.37178e-09
-5.87214e-09
2.45791e-09
4.00309e-09
-3.1963e-10
6.9343e-09
2.49156e-09
4.8787e-09
5.88151e-10
-9.50616e-11
4.65738e-09
7.15562e-09
-8.73678e-09
-6.16798e-09
1.9669e-09
1.29379e-08
-3.28303e-09
-1.45066e-09
4.5637e-09
8.91739e-09
-6.60957e-09
-6.87151e-09
5.16645e-09
-1.45904e-11
-1.07635e-08
-1.37482e-09
5.97036e-09
-7.19489e-09
-6.85165e-09
-3.42818e-09
1.00525e-08
-3.61189e-09
5.35016e-09
3.93068e-09
-1.70599e-08
1.41043e-08
3.26694e-10
2.62892e-09
-1.90048e-08
2.75967e-09
-8.14767e-10
4.3184e-10
1.53946e-08
-4.90179e-10
-1.53362e-08
1.31233e-08
2.4377e-09
-1.3422e-08
-2.13903e-09
1.41519e-08
8.17746e-10
-1.84637e-09
-1.38157e-08
-4.27197e-09
1.11754e-08
6.91216e-09
-1.68205e-08
8.85325e-09
-5.84843e-09
-2.07164e-08
8.33245e-09
8.11202e-09
-1.86293e-10
-1.77436e-08
-2.78651e-09
1.45669e-08
-3.07867e-11
5.31443e-10
2.4621e-09
1.2401e-08
5.99096e-09
9.0059e-09
-8.44915e-10
-1.45691e-08
-1.43806e-08
9.87922e-09
1.56768e-08
4.63656e-10
1.18283e-08
1.68766e-08
-2.03724e-08
2.75125e-09
1.23471e-08
2.80702e-09
8.66099e-09
6.75579e-10
1.3904e-08
1.33618e-08
-1.81361e-09
5.03935e-09
3.4161e-10
-3.56735e-09
6.17917e-09
-1.51323e-09
-6.47955e-09
-3.04726e-09
5.17552e-09
2.91109e-09
3.09848e-09
3.34254e-11
3.41152e-09
-6.81861e-09
7.00383e-09
-3.59675e-09
6.28964e-09
2.20366e-10
6.69023e-10
-9.00086e-09
2.59265e-09
-6.24969e-10
5.03615e-09
1.62131e-09
7.26098e-09
1.7408e-09
8.61954e-09
-9.69131e-09
7.07994e-09
-4.99752e-09
-2.76476e-09
-6.62072e-09
8.06648e-10
8.57882e-09
-3.8769e-09
-2.48633e-09
3.59846e-09
-3.41768e-09
7.60348e-09
5.50824e-09
-7.1751e-09
5.68448e-09
1.66916e-09
-1.78623e-10
-4.64887e-09
-8.37617e-09
5.84995e-09
1.37021e-09
2.03138e-09
-4.08816e-10
9.15216e-09
-3.05888e-09
-5.2547e-09
7.25872e-09
-2.41283e-09
1.63936e-11
-2.09592e-09
-1.92053e-09
-5.52865e-09
6.16699e-09
-2.058e-09
1.41966e-09
-5.14385e-09
-2.45627e-09
2.2651e-09
9.34331e-09
5.02519e-09
7.2415e-09
-2.91145e-09
1.02836e-10
9.77672e-09
8.51799e-09
-6.15004e-09
-4.14762e-09
-8.12845e-10
7.45321e-09
-3.14928e-09
1.19088e-10
1.1155e-09
-2.23341e-09
-2.20818e-09
-3.14903e-09
4.36156e-09
-9.70428e-11
2.19803e-09
5.02358e-09
-6.78464e-09
-4.36978e-10
-1.98641e-09
2.4982e-09
-5.06287e-09
4.55109e-09
6.58484e-10
-4.87831e-09
2.34436e-09
-4.83491e-09
1.48961e-09
-2.77324e-10
-3.8712e-09
5.25638e-09
4.26725e-09
-3.04549e-09
1.12259e-09
1.88565e-09
3.49021e-10
-3.85735e-09
-6.28805e-09
-5.55675e-09
-3.08123e-09
8.98698e-09
-5.55107e-09
6.98817e-09
1.24625e-09
2.15084e-09
1.46141e-10
-8.60288e-09
4.59936e-09
4.64348e-09
4.21274e-09
6.27051e-09
8.43873e-09
-1.17079e-09
2.07536e-09
-4.33487e-09
8.09401e-09
4.6796e-09
-7.54181e-09
6.5664e-09
-6.43451e-09
7.40989e-09
4.20211e-09
-1.09985e-08
-7.45389e-10
-1.19559e-08
1.48605e-08
3.66184e-09
-8.29444e-09
5.40623e-10
7.23008e-10
9.10335e-09
1.68375e-09
2.49935e-09
6.56247e-09
-8.77852e-09
-8.78248e-09
1.81171e-09
-4.39747e-09
7.35701e-09
-9.03873e-09
-1.88298e-09
-1.21465e-10
-2.86573e-10
-5.16711e-09
5.57516e-09
7.84909e-09
-7.71147e-09
-2.59074e-10
7.66541e-09
-2.17947e-09
3.20691e-09
7.42443e-09
2.41721e-10
-1.31294e-09
-6.35321e-09
-7.81913e-09
1.23187e-08
3.16584e-09
-1.00061e-08
2.11807e-09
6.88858e-11
-2.27587e-09
-2.53431e-10
2.84278e-09
-3.10368e-09
-3.45321e-09
7.64068e-10
-5.48215e-09
8.17128e-09
5.96658e-09
-3.17392e-09
5.5093e-09
-8.30197e-09
6.79955e-09
8.47398e-09
3.2725e-09
4.81215e-09
1.00854e-08
-9.9731e-09
1.26397e-08
-3.57693e-09
-8.29874e-09
-2.13749e-09
-5.41313e-09
-1.51665e-09
9.06726e-09
-3.24178e-09
-5.63507e-09
6.73935e-09
-5.71827e-10
-1.33368e-08
1.06668e-08
3.55957e-09
-1.66288e-08
1.24974e-08
-5.18558e-09
-6.2377e-09
6.01014e-09
8.27635e-10
-6.1884e-09
1.75186e-10
-8.37507e-09
1.0418e-08
-5.23411e-09
4.2666e-10
2.87471e-09
-7.49034e-09
-1.20132e-08
-8.4221e-09
-2.03996e-09
-8.49095e-10
-8.86689e-09
1.29387e-09
-6.11047e-09
2.72603e-11
1.13618e-08
-9.96611e-09
-7.5841e-09
6.52348e-11
5.05886e-09
-3.78131e-10
2.18784e-09
1.46007e-09
-7.94868e-09
-1.3988e-08
5.67812e-09
2.44032e-09
-1.09464e-08
-1.04472e-08
-1.1005e-09
3.0097e-10
-8.33463e-11
-8.66467e-09
8.44709e-09
-5.61554e-10
5.67514e-09
3.56393e-10
-5.46994e-09
-8.15596e-09
-9.62878e-09
9.85178e-09
7.93301e-09
-1.55432e-08
7.37189e-09
1.53531e-11
-5.11209e-09
-7.84572e-09
1.19012e-08
-8.84162e-09
8.25539e-09
2.47047e-11
5.06668e-09
-1.15294e-08
1.21379e-08
7.03219e-09
1.52516e-09
-1.32078e-08
4.65056e-09
6.62386e-09
-1.51348e-08
-1.16284e-10
-2.88862e-09
7.04128e-09
7.01599e-09
-6.68536e-09
1.30988e-09
1.55832e-08
6.18636e-09
-9.77327e-09
-9.17318e-09
1.55497e-08
-9.61526e-09
7.43051e-10
-3.54519e-09
4.73557e-09
-5.62455e-09
5.43731e-09
-4.54833e-09
4.70452e-09
-3.51227e-10
3.82273e-10
-4.13269e-09
5.12658e-10
4.81701e-09
-1.19701e-09
4.55608e-09
6.84371e-10
-9.37314e-09
4.99676e-09
7.19643e-11
-1.04117e-08
5.47149e-09
7.58248e-09
-1.58962e-09
-5.55519e-10
5.77441e-09
6.51258e-09
4.57498e-09
7.05418e-11
1.26452e-09
1.40661e-08
-9.55618e-09
-8.60849e-09
-4.62829e-09
1.45013e-08
7.81271e-10
-8.61649e-09
1.36122e-08
-5.77693e-09
-5.04702e-09
-2.78018e-09
-8.39667e-09
6.1802e-10
6.18907e-09
7.03622e-09
-7.26624e-09
6.98292e-09
6.29046e-09
1.90334e-09
6.3075e-09
9.29416e-09
1.10624e-08
-7.13207e-09
-3.98736e-09
1.40796e-08
-2.96018e-09
-6.44356e-09
8.10385e-09
-8.79238e-09
-9.15324e-09
-8.41388e-10
2.02715e-08
-1.02589e-08
-5.03046e-09
6.13612e-09
-1.06777e-08
-8.2424e-09
4.44809e-09
4.60104e-09
1.27851e-09
2.69592e-09
-1.22083e-08
7.58205e-09
-7.71401e-09
1.23403e-08
-1.43057e-08
5.51163e-09
-6.14051e-09
1.28812e-08
-8.95157e-09
7.25914e-09
2.01909e-10
-1.04963e-09
1.06891e-08
-1.01415e-08
7.0062e-09
-1.06228e-08
-5.05886e-10
2.45021e-09
-7.15968e-09
-8.18323e-09
1.28927e-08
-6.56691e-09
-5.23763e-09
1.42548e-08
-3.6219e-09
-7.57916e-09
4.63416e-09
-1.16713e-08
8.89699e-10
-1.83341e-08
4.47792e-09
1.30669e-08
7.89267e-10
-1.37686e-08
-4.50912e-09
-5.63269e-11
-1.65303e-08
5.22097e-09
-1.20039e-08
-1.82951e-08
-5.67825e-09
-9.35462e-09
9.79526e-09
-5.62995e-09
-1.34823e-08
1.09291e-08
-1.47613e-08
3.45309e-09
-1.50485e-08
-8.15256e-10
2.38143e-09
6.85165e-09
-1.40581e-08
-7.84202e-09
-8.63093e-09
1.43374e-09
-3.81963e-10
1.18059e-08
-1.03255e-09
-1.52824e-08
-8.93323e-09
1.01236e-09
-9.45284e-09
1.54321e-09
-3.76324e-09
-1.03512e-08
-8.58071e-09
-9.80535e-09
-1.33765e-08
5.07313e-09
1.73459e-09
-1.59592e-08
9.15147e-09
2.01029e-09
1.13674e-08
-8.30456e-09
-4.85516e-09
1.00272e-08
-3.16174e-09
7.76257e-09
-1.08832e-08
1.27443e-08
-4.35493e-09
2.97799e-09
-1.06435e-08
4.72748e-09
1.38909e-08
-7.97489e-09
-6.74488e-10
-1.17543e-08
1.78529e-09
-8.80035e-09
-1.10537e-08
8.58452e-09
1.12695e-08
-1.06162e-08
1.14135e-09
8.2785e-09
-2.15294e-08
1.0383e-09
5.22565e-10
1.09693e-08
-1.46477e-09
8.3833e-09
-9.81702e-11
-5.28065e-10
1.19247e-08
1.3476e-09
1.33109e-08
-1.29577e-08
1.72905e-09
-5.87168e-09
2.50067e-09
-4.69006e-09
1.8002e-08
-1.00666e-09
-1.21092e-08
3.21061e-09
9.90532e-09
9.39342e-09
-8.20978e-09
1.05817e-09
-2.24179e-09
1.27894e-09
7.10783e-09
1.10241e-08
-6.4798e-09
6.2278e-09
-1.07721e-08
6.33935e-10
4.97413e-09
5.41602e-09
5.51096e-09
-2.84154e-09
-9.14921e-09
-1.68158e-10
5.71071e-09
-3.15789e-11
-5.15476e-09
-1.32204e-09
-5.63243e-09
-4.58253e-09
-8.782e-09
-1.10133e-08