/*--------------------------------*- C++ -*----------------------------------*\
| =========                 |                                                 |
| \\      /  F ield         | OpenFOAM: The Open Source CFD Toolbox           |
|  \\    /   O peration     | Version:  v1612+                                |
|   \\  /    A nd           | Web:      www.OpenFOAM.com                      |
|    \\/     M anipulation  |                                                 |
\*---------------------------------------------------------------------------*/
FoamFile
{
    version     2.0;
    format      ascii;
    class       volScalarField;
    location    "118";
    object      p;
}
// * * * * * * * * * * * * * * * * * * * * * * * * * * * * * * * * * * * * * //

dimensions      [0 2 -2 0 0 0 0];

internalField   nonuniform List<scalar> 
21462
(
0.720421
0.617924
0.63889
0.729248
0.800379
0.650147
0.755493
0.818488
0.783974
0.811011
0.653827
0.752089
0.818542
0.818371
0.805008
0.768758
0.811422
0.766156
0.760184
0.647155
0.637436
0.801869
0.765791
0.764338
0.757998
0.749018
0.741109
0.584831
0.82487
0.785572
0.781549
0.621268
0.779833
0.782799
0.697852
0.805173
0.800683
0.781176
0.644678
0.663997
0.80197
0.803229
0.805695
0.823149
0.766759
0.58925
0.713511
0.721858
0.638738
0.61922
0.646801
0.720704
0.60449
0.607568
0.682834
0.811938
0.815735
0.807865
0.807463
0.685099
0.754321
0.69911
0.832163
0.713099
0.620637
0.655825
0.738636
0.666147
0.673843
0.671387
0.687793
0.802293
0.790994
0.829097
0.764014
0.770312
0.82515
0.828553
0.835031
0.829242
0.739164
0.751951
0.760092
0.811773
0.645988
0.793962
0.606307
0.719733
0.577945
0.644823
0.645361
0.625147
0.74857
0.606519
0.823109
0.809515
0.792069
0.795348
0.794465
0.739152
0.698805
0.708042
0.705866
0.833526
0.766434
0.660717
0.782142
0.786755
0.660358
0.578361
0.727916
0.72464
0.706074
0.72945
0.775414
0.784345
0.803866
0.758555
0.746552
0.706495
0.752697
0.684883
0.785778
0.822167
0.806497
0.803005
0.660123
0.717473
0.605143
0.635326
0.623172
0.832187
0.631142
0.723919
0.810153
0.722669
0.708552
0.684385
0.629842
0.807478
0.79765
0.783173
0.779733
0.734214
0.751609
0.789555
0.715515
0.724505
0.659415
0.712516
0.713088
0.799914
0.789641
0.783387
0.820461
0.833405
0.642877
0.647736
0.785618
0.790231
0.777844
0.699812
0.809095
0.798104
0.799113
0.821298
0.815328
0.827977
0.786218
0.768547
0.665109
0.649683
0.623121
0.828509
0.832287
0.80984
0.79313
0.787014
0.769979
0.81978
0.703953
0.669678
0.674826
0.655794
0.650386
0.641952
0.577483
0.577278
0.577664
0.693837
0.656635
0.66568
0.651925
0.799601
0.672154
0.657836
0.75542
0.775724
0.743667
0.633406
0.761067
0.761783
0.775388
0.660321
0.648323
0.615179
0.608573
0.620795
0.622033
0.605363
0.6046
0.638643
0.639094
0.651987
0.671752
0.60326
0.60908
0.608651
0.596744
0.604178
0.60578
0.605892
0.820738
0.818769
0.81378
0.80967
0.681218
0.803442
0.82689
0.821778
0.716738
0.72336
0.591599
0.580981
0.676074
0.595365
0.595068
0.595462
0.59258
0.595703
0.827061
0.81887
0.812976
0.833115
0.813919
0.812668
0.81041
0.820209
0.825981
0.838424
0.833816
0.819524
0.762373
0.773544
0.714676
0.687616
0.683505
0.672529
0.782902
0.778998
0.763654
0.771757
0.756137
0.78018
0.775451
0.612075
0.608863
0.611673
0.597598
0.6046
0.779176
0.742381
0.779471
0.812294
0.778374
0.821148
0.81759
0.787974
0.807404
0.789735
0.811618
0.805493
0.805231
0.797152
0.794087
0.61898
0.659237
0.747094
0.830179
0.823789
0.665929
0.646806
0.645962
0.668336
0.77971
0.764735
0.683623
0.596747
0.704505
0.694134
0.650306
0.808269
0.822928
0.815412
0.632131
0.630588
0.615256
0.640051
0.660015
0.674963
0.671742
0.647865
0.64673
0.658692
0.658213
0.66076
0.667528
0.635382
0.62161
0.72376
0.739028
0.809004
0.809445
0.819781
0.603536
0.597631
0.790028
0.780096
0.787137
0.79692
0.693248
0.691294
0.681664
0.606264
0.591103
0.734492
0.808232
0.808348
0.789085
0.787523
0.771175
0.66387
0.615434
0.602832
0.589528
0.799099
0.810729
0.807241
0.824541
0.7945
0.604018
0.784899
0.659885
0.647229
0.656201
0.65191
0.664287
0.671163
0.638549
0.64508
0.646441
0.63384
0.638376
0.794643
0.670927
0.665665
0.818246
0.826414
0.825165
0.820623
0.818007
0.651152
0.596786
0.593331
0.703001
0.626461
0.693137
0.659817
0.66298
0.816236
0.78903
0.806049
0.706099
0.708906
0.668853
0.652427
0.695565
0.623181
0.823016
0.826847
0.824832
0.655
0.674235
0.660983
0.782261
0.785755
0.803564
0.761136
0.797533
0.779872
0.783271
0.832219
0.763206
0.777645
0.656641
0.621326
0.610176
0.809217
0.788716
0.830437
0.786856
0.792335
0.626408
0.820249
0.586935
0.642663
0.64493
0.706045
0.83406
0.767508
0.754593
0.579184
0.807168
0.723932
0.819656
0.67522
0.775314
0.615394
0.814307
0.746696
0.650217
0.639308
0.635485
0.645462
0.667683
0.658841
0.625662
0.58679
0.833221
0.634366
0.627807
0.632578
0.757627
0.753192
0.749013
0.616392
0.641708
0.620504
0.768001
0.589175
0.73459
0.646828
0.802866
0.810656
0.786657
0.772146
0.778389
0.781271
0.767816
0.75918
0.684607
0.753447
0.790787
0.771871
0.792133
0.812636
0.808436
0.823042
0.82702
0.829789
0.827605
0.825465
0.818198
0.652541
0.783048
0.725142
0.723212
0.648513
0.790841
0.798753
0.76265
0.775517
0.761189
0.759229
0.751893
0.797485
0.761156
0.646004
0.641913
0.646034
0.600125
0.610302
0.797169
0.797412
0.809129
0.682325
0.69533
0.811925
0.803411
0.804873
0.815465
0.800887
0.810242
0.585063
0.587979
0.765882
0.688061
0.71909
0.740034
0.720153
0.707665
0.70772
0.794394
0.592452
0.734862
0.761951
0.772238
0.579447
0.77465
0.792037
0.583025
0.766569
0.709006
0.658888
0.668426
0.667009
0.65543
0.660978
0.663909
0.649273
0.645287
0.649993
0.794472
0.6605
0.824901
0.655162
0.674745
0.833031
0.776856
0.677487
0.634685
0.718302
0.67824
0.74248
0.697209
0.71545
0.73117
0.621276
0.775935
0.793443
0.594632
0.72952
0.686759
0.786133
0.821183
0.825743
0.647906
0.742351
0.824975
0.812788
0.660498
0.663435
0.673491
0.688677
0.67216
0.709895
0.706398
0.759886
0.768962
0.720734
0.64476
0.64032
0.774422
0.596851
0.790974
0.711698
0.700848
0.795665
0.772568
0.828607
0.826999
0.660945
0.663668
0.643299
0.658555
0.665977
0.590908
0.598
0.810921
0.810271
0.799702
0.799474
0.806525
0.67055
0.590242
0.790859
0.805126
0.76382
0.82826
0.779479
0.58516
0.579188
0.647208
0.814233
0.680127
0.80306
0.796321
0.766404
0.677152
0.665101
0.658188
0.808715
0.805443
0.688188
0.70939
0.776166
0.754807
0.772701
0.597826
0.591399
0.827894
0.643695
0.644285
0.769247
0.648608
0.662535
0.794622
0.648414
0.793479
0.791434
0.703542
0.746772
0.824348
0.809687
0.799912
0.797535
0.600994
0.723919
0.599832
0.770235
0.769287
0.775916
0.801001
0.705407
0.719122
0.744576
0.572644
0.587209
0.581913
0.727668
0.72731
0.65465
0.657499
0.673804
0.692699
0.759933
0.741702
0.75498
0.808935
0.665682
0.631634
0.636521
0.825333
0.82585
0.819057
0.781495
0.801832
0.771585
0.6545
0.622933
0.632131
0.744848
0.704453
0.680141
0.676701
0.748881
0.612757
0.634125
0.642611
0.655772
0.755506
0.740767
0.609711
0.833732
0.696683
0.712674
0.794142
0.800921
0.788107
0.744464
0.731127
0.6882
0.734469
0.737867
0.824756
0.67895
0.672846
0.76316
0.700997
0.691597
0.790454
0.771716
0.715342
0.824157
0.732297
0.633276
0.688494
0.794877
0.735637
0.687527
0.694544
0.758703
0.809671
0.663215
0.617567
0.620654
0.643688
0.700659
0.717872
0.632099
0.572777
0.614484
0.583292
0.622931
0.609236
0.705417
0.655937
0.649035
0.664363
0.726121
0.723662
0.647981
0.651667
0.61033
0.654662
0.653283
0.652433
0.640844
0.575433
0.599262
0.592153
0.576923
0.669039
0.716123
0.706117
0.743349
0.662904
0.70231
0.749825
0.833094
0.794244
0.810567
0.773267
0.76415
0.781012
0.820185
0.656942
0.752813
0.689485
0.762126
0.686515
0.72077
0.743567
0.818997
0.77742
0.809722
0.793524
0.828106
0.767536
0.792699
0.802354
0.762497
0.777161
0.831179
0.829808
0.698501
0.679765
0.660173
0.709731
0.624684
0.672232
0.66527
0.63566
0.716015
0.747688
0.679019
0.668585
0.653306
0.573509
0.760388
0.703299
0.75229
0.779825
0.740629
0.750314
0.72924
0.786934
0.751671
0.788036
0.796245
0.594103
0.597313
0.587482
0.590343
0.583733
0.582516
0.61072
0.646556
0.635107
0.654294
0.58963
0.635104
0.637188
0.726663
0.646445
0.661782
0.786224
0.819652
0.826794
0.802439
0.799567
0.812884
0.746918
0.737025
0.75597
0.779469
0.741889
0.769521
0.760144
0.78236
0.786627
0.741049
0.775405
0.811185
0.795573
0.763321
0.784855
0.79896
0.759546
0.765113
0.798559
0.753627
0.764741
0.630342
0.636816
0.673585
0.640615
0.658781
0.656286
0.641153
0.784679
0.794522
0.762418
0.77492
0.77522
0.730355
0.694088
0.696974
0.706498
0.694372
0.659314
0.662507
0.67152
0.736096
0.735532
0.731913
0.767519
0.771994
0.708143
0.693101
0.733094
0.690594
0.713924
0.63999
0.631462
0.711553
0.684135
0.653371
0.705885
0.637153
0.770422
0.71062
0.75576
0.774011
0.741022
0.688501
0.721736
0.701899
0.741118
0.739029
0.705736
0.668167
0.634015
0.63303
0.631547
0.623305
0.638696
0.71738
0.676806
0.714811
0.69533
0.718429
0.715899
0.697741
0.792378
0.78307
0.741594
0.690716
0.727599
0.687046
0.700603
0.693837
0.696884
0.769377
0.75827
0.756501
0.755926
0.76463
0.769356
0.749036
0.755591
0.764984
0.801566
0.823207
0.818257
0.823765
0.824369
0.835344
0.816314
0.827818
0.821216
0.718121
0.678502
0.727053
0.69582
0.706083
0.692618
0.710853
0.675949
0.697005
0.662057
0.666359
0.695865
0.680987
0.677681
0.670321
0.757041
0.710777
0.694846
0.704063
0.702975
0.681784
0.729631
0.70549
0.686249
0.675034
0.708413
0.628115
0.784138
0.762994
0.800299
0.785538
0.793664
0.765539
0.768157
0.794781
0.791674
0.789265
0.707547
0.746994
0.700197
0.728106
0.723868
0.727958
0.715489
0.820813
0.823369
0.822341
0.823442
0.825299
0.816306
0.748644
0.72435
0.732954
0.740306
0.729839
0.671588
0.676116
0.667129
0.694915
0.679579
0.677048
0.670727
0.68556
0.800607
0.799844
0.701142
0.706333
0.69843
0.699994
0.678959
0.677994
0.698521
0.713513
0.707187
0.729563
0.733486
0.688041
0.664414
0.708929
0.674973
0.704522
0.738594
0.684915
0.677288
0.690555
0.820579
0.781044
0.766588
0.792267
0.780385
0.789083
0.802433
0.827149
0.775785
0.808107
0.821093
0.82214
0.782166
0.604753
0.619149
0.692837
0.693877
0.670188
0.653153
0.700971
0.696203
0.656098
0.656166
0.676336
0.669815
0.672033
0.672817
0.64034
0.617298
0.610161
0.627789
0.617399
0.613519
0.628129
0.714808
0.668713
0.653418
0.662371
0.6918
0.685348
0.669973
0.63125
0.684782
0.653865
0.671137
0.644128
0.651529
0.660039
0.643083
0.708815
0.692642
0.681747
0.677205
0.686999
0.669391
0.697694
0.648218
0.624087
0.653425
0.660394
0.652548
0.658142
0.613321
0.598044
0.595438
0.599113
0.598872
0.593368
0.639969
0.615201
0.608855
0.624521
0.634091
0.600526
0.588668
0.57306
0.586143
0.617167
0.589748
0.611108
0.583858
0.593628
0.590849
0.594763
0.587212
0.727447
0.725015
0.738892
0.707265
0.744221
0.743218
0.709117
0.691177
0.704246
0.699539
0.69587
0.67584
0.671698
0.701372
0.641423
0.641002
0.620822
0.648717
0.624442
0.631559
0.641544
0.71992
0.683859
0.652806
0.677662
0.689401
0.684595
0.681116
0.665661
0.716048
0.694848
0.694759
0.684064
0.694275
0.684067
0.667799
0.714523
0.717357
0.701162
0.696254
0.705142
0.694258
0.702197
0.651302
0.658785
0.672168
0.671917
0.665765
0.680086
0.729322
0.729117
0.786332
0.77718
0.760129
0.728901
0.742974
0.640694
0.611121
0.698724
0.67113
0.668132
0.657995
0.643402
0.618483
0.611866
0.613414
0.622355
0.620465
0.620382
0.653978
0.675529
0.654688
0.649588
0.675395
0.67808
0.644143
0.631624
0.610266
0.630962
0.612397
0.637093
0.624309
0.656506
0.686692
0.644953
0.646725
0.67166
0.681201
0.64191
0.640796
0.647748
0.611427
0.630338
0.624299
0.627641
0.622533
0.595206
0.592414
0.589001
0.638159
0.60696
0.625263
0.596754
0.593368
0.593333
0.576076
0.574927
0.600186
0.584025
0.579677
0.575221
0.589629
0.582657
0.585574
0.583333
0.63962
0.671758
0.622155
0.642911
0.634048
0.643712
0.632417
0.709697
0.66956
0.718256
0.688889
0.698555
0.695639
0.7001
0.773381
0.723315
0.743062
0.73608
0.761851
0.748775
0.746109
0.71878
0.741855
0.771321
0.730823
0.744949
0.756019
0.727204
0.69125
0.644274
0.677221
0.686103
0.665163
0.655213
0.69547
0.726855
0.729774
0.65289
0.699975
0.683247
0.694094
0.696856
0.719863
0.76464
0.699141
0.717666
0.729945
0.741002
0.711545
0.81615
0.82204
0.806831
0.818084
0.824433
0.720739
0.746228
0.790265
0.793637
0.762823
0.789359
0.777954
0.790525
0.801823
0.774821
0.739404
0.759685
0.730508
0.750526
0.718696
0.728364
0.756009
0.785515
0.807959
0.794393
0.776771
0.752901
0.784672
0.777757
0.806311
0.781611
0.796141
0.802558
0.802818
0.770206
0.798248
0.768929
0.774224
0.789679
0.812101
0.814344
0.669065
0.664419
0.622389
0.651974
0.635328
0.63866
0.647665
0.775283
0.722926
0.779857
0.742683
0.757789
0.74682
0.753569
0.745204
0.714069
0.704164
0.706739
0.734261
0.726783
0.709774
0.730167
0.775335
0.755247
0.735764
0.758741
0.768345
0.728162
0.714739
0.682282
0.668771
0.697049
0.676618
0.67558
0.697666
0.754573
0.751206
0.688518
0.71728
0.735935
0.742698
0.714796
0.710981
0.746635
0.687665
0.716412
0.700758
0.717525
0.704653
0.82144
0.784291
0.778642
0.762647
0.77085
0.787332
0.797299
0.768254
0.811197
0.825901
0.823038
0.824796
0.804828
0.810703
0.792349
0.821354
0.789382
0.801437
0.800897
0.818047
0.817581
0.827964
0.825162
0.810819
0.830227
0.813944
0.800696
0.764847
0.753948
0.746752
0.744257
0.751121
0.77113
0.777945
0.745585
0.786982
0.782192
0.792466
0.805643
0.774235
0.775324
0.811578
0.780846
0.821775
0.819478
0.823917
0.812055
0.814583
0.808027
0.811071
0.76692
0.784222
0.792896
0.782453
0.797863
0.818447
0.792386
0.763482
0.796189
0.797605
0.794509
0.794578
0.787748
0.821496
0.802194
0.818283
0.810191
0.816244
0.79764
0.595895
0.830105
0.831437
0.810105
0.813551
0.822767
0.73502
0.761772
0.737973
0.646099
0.641595
0.608938
0.624602
0.630189
0.636064
0.628029
0.723465
0.66138
0.684628
0.695004
0.703415
0.67477
0.690379
0.664397
0.65011
0.66754
0.711836
0.705117
0.65128
0.635792
0.644102
0.748086
0.775688
0.725447
0.761147
0.739945
0.762552
0.731406
0.72979
0.750338
0.739203
0.700747
0.701596
0.726157
0.625283
0.614921
0.615013
0.652814
0.652649
0.644885
0.748617
0.73602
0.754342
0.684176
0.686008
0.694278
0.719828
0.718497
0.7381
0.6505
0.688514
0.663371
0.666207
0.666703
0.664613
0.625813
0.615322
0.624642
0.62904
0.660505
0.643646
0.64723
0.632846
0.630131
0.72224
0.720386
0.747566
0.732537
0.739683
0.742991
0.714143
0.785425
0.748306
0.738504
0.77638
0.754128
0.74752
0.748396
0.755848
0.73765
0.744195
0.777694
0.648348
0.661083
0.704807
0.680018
0.679084
0.667889
0.684771
0.683342
0.673409
0.664048
0.657767
0.647872
0.654774
0.663105
0.687947
0.674048
0.673791
0.674154
0.690349
0.712373
0.691194
0.681311
0.720487
0.703302
0.684138
0.712319
0.70252
0.698373
0.687778
0.685432
0.702514
0.588075
0.597508
0.590182
0.594025
0.573185
0.596477
0.788484
0.800322
0.818074
0.756674
0.791723
0.757098
0.780858
0.768003
0.765623
0.76906
0.718364
0.691852
0.730095
0.731802
0.723078
0.731642
0.731122
0.735556
0.7505
0.708889
0.71033
0.744677
0.784298
0.775824
0.806123
0.777944
0.760988
0.732987
0.766074
0.764856
0.778006
0.777281
0.724
0.762927
0.748393
0.742905
0.768362
0.6809
0.722373
0.712985
0.73892
0.782682
0.753283
0.77544
0.780968
0.791683
0.776971
0.790256
0.743358
0.78419
0.789215
0.759932
0.784852
0.772141
0.738108
0.759474
0.729994
0.777053
0.607221
0.602854
0.587194
0.586364
0.597487
0.597453
0.594922
0.597437
0.598766
0.588845
0.59454
0.599956
0.582907
0.580455
0.578753
0.58433
0.59139
0.576835
0.58628
0.596231
0.578856
0.584309
0.590398
0.588875
0.587689
0.624823
0.615973
0.624648
0.62852
0.629357
0.598455
0.620284
0.614975
0.618145
0.604222
0.607001
0.615633
0.6384
0.671048
0.657554
0.635165
0.66494
0.667135
0.636016
0.596694
0.608208
0.604664
0.614057
0.652078
0.65972
0.611051
0.622176
0.642748
0.635087
0.616789
0.623439
0.647078
0.611248
0.621263
0.619618
0.620917
0.614463
0.786292
0.656891
0.628956
0.722645
0.686953
0.742252
0.70889
0.716265
0.705664
0.707862
0.611762
0.664356
0.667578
0.610159
0.63801
0.653433
0.695975
0.683943
0.707432
0.725045
0.694299
0.59775
0.608226
0.607307
0.728828
0.782959
0.777223
0.77324
0.771572
0.777639
0.81552
0.807039
0.817497
0.805117
0.803657
0.826944
0.830411
0.830041
0.825346
0.828422
0.814895
0.826955
0.828442
0.796832
0.818196
0.823327
0.805553
0.808324
0.816588
0.828042
0.815993
0.817363
0.818241
0.829911
0.824695
0.824533
0.825003
0.806353
0.814958
0.819776
0.820631
0.823602
0.820685
0.796823
0.821028
0.830308
0.817137
0.814405
0.821335
0.808242
0.803444
0.817785
0.818346
0.815036
0.838204
0.777008
0.741218
0.754522
0.737161
0.764768
0.758031
0.74234
0.799314
0.74626
0.756633
0.761087
0.775885
0.763556
0.777868
0.735305
0.737556
0.735851
0.755825
0.72446
0.728478
0.755482
0.798989
0.79498
0.810117
0.781345
0.806176
0.808527
0.78413
0.762812
0.732387
0.786456
0.764057
0.767818
0.759653
0.7752
0.748484
0.750692
0.807471
0.773918
0.767907
0.770346
0.778472
0.761668
0.728873
0.748987
0.752006
0.784126
0.792204
0.794582
0.7941
0.799732
0.814403
0.782062
0.796957
0.801337
0.782212
0.796864
0.798631
0.767909
0.760137
0.710886
0.73446
0.743768
0.738485
0.735599
0.728334
0.765714
0.731309
0.766105
0.756563
0.76491
0.755013
0.782999
0.800715
0.795362
0.796708
0.791941
0.798634
0.794106
0.807655
0.793541
0.814152
0.812819
0.790429
0.764819
0.745547
0.772701
0.775648
0.74962
0.749135
0.772551
0.78629
0.792723
0.746359
0.778531
0.770721
0.777001
0.773418
0.79789
0.776734
0.787857
0.791915
0.797972
0.780557
0.806096
0.816699
0.821806
0.813653
0.778387
0.784452
0.779148
0.748646
0.737874
0.764506
0.751996
0.740899
0.789993
0.798431
0.812574
0.792327
0.757534
0.745311
0.777344
0.764089
0.778494
0.641746
0.654331
0.662056
0.610203
0.618911
0.601198
0.611563
0.615604
0.627431
0.65021
0.649754
0.638362
0.613585
0.670593
0.622535
0.63538
0.632143
0.653004
0.667384
0.661107
0.655195
0.65928
0.665366
0.636611
0.619012
0.622609
0.613689
0.620804
0.621234
0.65651
0.676457
0.650928
0.644635
0.669734
0.672536
0.642854
0.634975
0.632103
0.637141
0.631433
0.655815
0.674099
0.642385
0.646616
0.658561
0.661339
0.641385
0.641254
0.643525
0.634245
0.623585
0.623504
0.628922
0.740772
0.781244
0.753757
0.763231
0.750753
0.759811
0.750022
0.736003
0.792023
0.814294
0.814483
0.800111
0.781022
0.793697
0.744575
0.785504
0.776165
0.762119
0.758508
0.781437
0.7431
0.771827
0.769019
0.799626
0.796426
0.790959
0.809936
0.810901
0.788001
0.725899
0.747503
0.729369
0.732499
0.732951
0.728856
0.732412
0.765578
0.760369
0.760679
0.695218
0.721159
0.682591
0.694433
0.690657
0.676218
0.683682
0.689184
0.674246
0.711086
0.671703
0.714422
0.685719
0.700435
0.696407
0.687313
0.65316
0.66268
0.697453
0.66786
0.671782
0.672937
0.675988
0.661875
0.692577
0.677657
0.64659
0.664294
0.66904
0.668385
0.661998
0.698356
0.68279
0.683841
0.672399
0.702272
0.696853
0.67768
0.665018
0.656657
0.64819
0.659836
0.706044
0.718192
0.706789
0.73085
0.701721
0.710057
0.727462
0.785606
0.789884
0.795684
0.79477
0.777635
0.776805
0.791376
0.736692
0.754255
0.72559
0.721189
0.746831
0.74941
0.716594
0.772246
0.715563
0.738792
0.747615
0.747429
0.738635
0.726617
0.763285
0.737859
0.746669
0.736785
0.745514
0.737544
0.733161
0.766877
0.756793
0.759912
0.763381
0.751911
0.752313
0.710757
0.709991
0.728311
0.724564
0.71836
0.735443
0.694796
0.689959
0.695879
0.683165
0.696206
0.691024
0.691602
0.67182
0.677758
0.665594
0.66386
0.717036
0.690536
0.748029
0.705344
0.717479
0.650796
0.672572
0.649971
0.659887
0.691563
0.686455
0.691905
0.703621
0.69234
0.704807
0.715471
0.727611
0.745102
0.778278
0.736541
0.742924
0.757958
0.717636
0.688111
0.657578
0.669375
0.673279
0.667368
0.720887
0.648279
0.60752
0.613044
0.624826
0.626922
0.620015
0.707096
0.649866
0.681932
0.694382
0.640936
0.695534
0.674437
0.683555
0.685114
0.690512
0.695056
0.637351
0.640878
0.661466
0.625276
0.630543
0.655841
0.631616
0.658157
0.611792
0.605242
0.600265
0.606193
0.611344
0.599236
0.615279
0.610894
0.605455
0.620506
0.627638
0.653127
0.64907
0.608936
0.600074
0.735678
0.727229
0.716919
0.731833
0.728586
0.734744
0.72812
0.598959
0.737651
0.72724
0.71137
0.724168
0.728565
0.729336
0.721951
0.660307
0.67748
0.665671
0.666754
0.656585
0.666724
0.662809
0.707531
0.721709
0.732059
0.733548
0.715798
0.721654
0.726896
0.811856
0.805952
0.798327
0.804968
0.794322
0.785915
0.807298
0.706785
0.728408
0.724395
0.732599
0.723029
0.71924
0.726717
0.773306
0.821019
0.829577
0.839294
0.808575
0.829391
0.821474
0.818211
0.826994
0.81463
0.679796
0.679175
0.690586
0.758325
0.74494
0.671398
0.681307
0.666879
0.670856
0.671176
0.662522
0.708803
0.692525
0.732341
0.70106
0.704341
0.69604
0.710278
0.798264
0.598248
0.597941
0.700948
0.718629
0.681898
0.694568
0.705838
0.70919
0.682355
0.774067
0.785644
0.783863
0.790914
0.788324
0.779171
0.78374
0.782988
0.782101
0.807463
0.804976
0.820839
0.715157
0.709038
0.735636
0.72145
0.717612
0.709312
0.726258
0.82777
0.817041
0.822109
0.816431
0.817667
0.825671
0.813291
0.820635
0.820674
0.826723
0.818125
0.72624
0.735657
0.729608
0.742483
0.70357
0.708149
0.683281
0.691543
0.698189
0.702016
0.688339
0.78649
0.782581
0.799729
0.793228
0.78699
0.78912
0.792797
0.756053
0.733283
0.737627
0.727024
0.748932
0.742114
0.740122
0.705127
0.705486
0.702059
0.694438
0.699055
0.69896
0.694806
0.691687
0.713935
0.688141
0.70907
0.713919
0.682487
0.682668
0.717584
0.680823
0.713247
0.818199
0.804322
0.815591
0.815127
0.780732
0.796441
0.791416
0.792958
0.796335
0.806711
0.805007
0.804494
0.805571
0.611953
0.651071
0.647447
0.635357
0.648768
0.640567
0.650749
0.638013
0.61347
0.633245
0.629119
0.627295
0.62553
0.628422
0.624112
0.615175
0.634683
0.62335
0.623875
0.615892
0.625677
0.615548
0.63743
0.651975
0.62301
0.64056
0.636325
0.64669
0.628323
0.685314
0.681309
0.716912
0.699094
0.694657
0.689213
0.706656
0.708509
0.688774
0.724697
0.71162
0.704726
0.701581
0.71862
0.622105
0.646313
0.617646
0.631594
0.629489
0.63763
0.623361
0.575075
0.577485
0.610369
0.622829
0.59857
0.611816
0.60729
0.616506
0.599461
0.59194
0.584267
0.579009
0.61396
0.602303
0.609942
0.614856
0.609642
0.609409
0.616469
0.593031
0.598638
0.604172
0.605226
0.594864
0.602179
0.600889
0.712325
0.697185
0.685874
0.697721
0.700104
0.700324
0.695987
0.646983
0.6646
0.664536
0.662061
0.656037
0.661084
0.659817
0.636721
0.653513
0.659939
0.654011
0.646259
0.647496
0.652512
0.650182
0.671419
0.647933
0.661065
0.655764
0.663382
0.651572
0.714606
0.702592
0.734037
0.72219
0.714891
0.712355
0.727168
0.727006
0.70373
0.734315
0.722457
0.724673
0.715255
0.732093
0.650081
0.668348
0.643872
0.653367
0.653017
0.658635
0.645446
0.752617
0.605737
0.606226
0.646408
0.662252
0.643081
0.65008
0.647187
0.649178
0.645034
0.60039
0.612055
0.611307
0.607483
0.60172
0.606297
0.604566
0.645448
0.638501
0.639714
0.650313
0.644152
0.646999
0.649453
0.629492
0.640561
0.627531
0.662791
0.635594
0.647904
0.650153
0.646725
0.63173
0.635133
0.637822
0.635838
0.620117
0.633501
0.633154
0.573816
0.586558
0.581615
0.588947
0.583811
0.575893
0.622615
0.61969
0.610854
0.602332
0.623606
0.609103
0.614598
0.600123
0.590623
0.603733
0.598457
0.599848
0.591452
0.605247
0.583664
0.580718
0.577601
0.589581
0.577608
0.583126
0.57486
0.577826
0.582906
0.58009
0.589809
0.613029
0.749721
0.75981
0.641218
0.651826
0.664198
0.664013
0.646474
0.652392
0.656771
0.729337
0.732185
0.697987
0.710817
0.720224
0.728589
0.708943
0.716508
0.724542
0.689891
0.704413
0.711449
0.717842
0.70129
0.75709
0.727212
0.740903
0.736358
0.741333
0.733875
0.745148
0.678776
0.693696
0.681572
0.675234
0.683912
0.685188
0.673633
0.670015
0.69749
0.687601
0.696567
0.686252
0.687116
0.688588
0.715982
0.719167
0.733358
0.740032
0.723457
0.728584
0.73198
0.81758
0.803154
0.829315
0.819908
0.810088
0.798719
0.8185
0.761393
0.774022
0.74242
0.759071
0.772705
0.782471
0.79815
0.803762
0.776864
0.798451
0.807325
0.802733
0.80993
0.812175
0.795952
0.771349
0.766852
0.75011
0.779123
0.749505
0.765983
0.757052
0.773211
0.755899
0.769441
0.783992
0.755267
0.778217
0.773846
0.783399
0.769604
0.78195
0.786117
0.802852
0.636614
0.654847
0.651671
0.648571
0.643433
0.64441
0.647029
0.746262
0.759094
0.727549
0.749632
0.746911
0.757022
0.740589
0.685285
0.69234
0.667713
0.68002
0.682063
0.685917
0.679795
0.752367
0.734072
0.749312
0.751959
0.745042
0.74446
0.750916
0.678391
0.70554
0.689498
0.69022
0.679493
0.690498
0.679244
0.69041
0.709144
0.691064
0.719348
0.697154
0.709406
0.700486
0.713618
0.724907
0.739713
0.73913
0.722078
0.724366
0.732737
0.75523
0.778887
0.783664
0.764761
0.783967
0.810331
0.811406
0.814638
0.801988
0.818895
0.804006
0.80782
0.81969
0.815642
0.824515
0.818282
0.817026
0.816953
0.826081
0.766965
0.781985
0.765553
0.780134
0.798113
0.781774
0.787183
0.786319
0.790246
0.786723
0.791578
0.805035
0.825289
0.810679
0.808014
0.808383
0.819579
0.77129
0.787411
0.758849
0.769925
0.7719
0.780415
0.764662
0.762827
0.787689
0.760085
0.776158
0.768339
0.781524
0.767441
0.807945
0.826681
0.818772
0.824717
0.834147
0.833544
0.836063
0.828456
0.819795
0.825635
0.812178
0.814529
0.820057
0.813688
0.69113
0.70857
0.706441
0.716927
0.640412
0.626516
0.675454
0.67771
0.680872
0.688429
0.686504
0.69028
0.679129
0.675806
0.663456
0.672823
0.661536
0.685456
0.66464
0.682312
0.648611
0.66878
0.669303
0.662651
0.658105
0.667186
0.729886
0.722572
0.736319
0.731732
0.616091
0.641907
0.636902
0.637925
0.630827
0.638624
0.659034
0.665664
0.653501
0.671587
0.658328
0.65675
0.656008
0.653831
0.662519
0.783015
0.799307
0.749913
0.734328
0.741176
0.714884
0.703475
0.713768
0.736371
0.675548
0.672111
0.610426
0.61365
0.631903
0.637399
0.635884
0.628966
0.630131
0.640543
0.637638
0.623124
0.645641
0.638409
0.717977
0.739469
0.714971
0.725439
0.722014
0.726972
0.722139
0.782568
0.758124
0.757367
0.773933
0.738354
0.751401
0.753297
0.752415
0.742345
0.700552
0.684456
0.698055
0.682617
0.702772
0.694791
0.695826
0.681376
0.660963
0.649955
0.661381
0.651636
0.649909
0.638966
0.651253
0.64779
0.677259
0.68765
0.687877
0.690581
0.722115
0.723119
0.692653
0.672633
0.694002
0.572323
0.5799
0.581737
0.807446
0.804192
0.812098
0.724549
0.743414
0.733482
0.746099
0.730278
0.740825
0.733569
0.748663
0.762905
0.755768
0.758305
0.758564
0.764451
0.770269
0.765912
0.753679
0.767099
0.763412
0.771058
0.763122
0.7753
0.759768
0.746965
0.746707
0.765315
0.75876
0.753606
0.781508
0.764033
0.763297
0.776775
0.771629
0.774227
0.776356
0.687885
0.73505
0.707555
0.719939
0.698299
0.686978
0.711179
0.802528
0.77099
0.7799
0.782073
0.780729
0.745063
0.758975
0.759788
0.772013
0.75808
0.781196
0.772918
0.788222
0.599797
0.595892
0.600999
0.599832
0.592342
0.585742
0.588432
0.584717
0.59656
0.589696
0.587938
0.584812
0.591106
0.586505
0.582701
0.598065
0.591677
0.591369
0.588613
0.590576
0.585973
0.596028
0.58251
0.603446
0.600962
0.682934
0.670803
0.65588
0.648968
0.673888
0.672222
0.659591
0.6307
0.626193
0.65176
0.636409
0.636354
0.62966
0.642412
0.647114
0.630911
0.638576
0.643377
0.644967
0.638205
0.645496
0.597903
0.607648
0.602008
0.60239
0.606661
0.60802
0.601322
0.605215
0.621709
0.61229
0.616982
0.610519
0.616662
0.614409
0.620103
0.623641
0.635079
0.625655
0.618767
0.62443
0.62783
0.683012
0.650168
0.686728
0.684364
0.665841
0.667431
0.680322
0.71795
0.732087
0.731002
0.717243
0.652067
0.627271
0.632057
0.662636
0.641629
0.672425
0.668633
0.697636
0.73705
0.700412
0.596462
0.599267
0.59462
0.609785
0.759485
0.760637
0.759084
0.755134
0.826491
0.827323
0.820904
0.822212
0.821798
0.825138
0.82397
0.828804
0.834996
0.832327
0.824574
0.804366
0.810119
0.791981
0.806299
0.805465
0.813153
0.799284
0.805698
0.811684
0.792324
0.798457
0.804534
0.80698
0.800308
0.828291
0.808442
0.833762
0.820968
0.819466
0.821327
0.805959
0.812867
0.825283
0.823858
0.818504
0.720294
0.724645
0.727791
0.737928
0.723723
0.73005
0.731092
0.739732
0.758731
0.719393
0.737611
0.742674
0.751325
0.730747
0.754086
0.766088
0.771468
0.767065
0.762927
0.762974
0.762407
0.785308
0.773792
0.762545
0.772763
0.775716
0.774831
0.77149
0.770457
0.763993
0.7528
0.751052
0.764882
0.75991
0.752968
0.792224
0.776111
0.785091
0.774661
0.784643
0.771343
0.780548
0.752197
0.754727
0.766245
0.755324
0.751698
0.761412
0.793546
0.805859
0.801185
0.777274
0.776787
0.803731
0.787064
0.787386
0.78577
0.792033
0.716023
0.736382
0.720316
0.730275
0.719944
0.729801
0.720888
0.798824
0.778637
0.791436
0.782019
0.793244
0.782088
0.78921
0.81119
0.805652
0.804074
0.823798
0.810332
0.809355
0.797541
0.787884
0.785501
0.792991
0.788699
0.795913
0.792299
0.775638
0.780206
0.779408
0.770409
0.773996
0.77193
0.775264
0.763641
0.77895
0.778772
0.785373
0.772471
0.779988
0.777693
0.777812
0.784542
0.784491
0.796318
0.778324
0.784384
0.789128
0.812937
0.726624
0.741919
0.754808
0.74817
0.741494
0.739088
0.749392
0.78234
0.78385
0.776533
0.768551
0.790251
0.779867
0.791383
0.804875
0.780142
0.776036
0.786373
0.777189
0.647234
0.652367
0.632668
0.656267
0.608888
0.612039
0.616677
0.61918
0.634216
0.629887
0.623235
0.619587
0.632557
0.627092
0.635995
0.626703
0.63224
0.631258
0.637597
0.656712
0.655299
0.649365
0.624636
0.63328
0.697962
0.691875
0.677663
0.678932
0.689404
0.689243
0.681279
0.630587
0.626779
0.64302
0.635253
0.63532
0.627158
0.639464
0.648793
0.644344
0.643089
0.653117
0.64782
0.647725
0.645593
0.619352
0.633722
0.631835
0.638874
0.626125
0.632483
0.631841
0.622646
0.640141
0.639659
0.646351
0.641826
0.644537
0.644907
0.640618
0.638942
0.636933
0.639137
0.632555
0.771919
0.764308
0.785601
0.779337
0.773097
0.772104
0.785706
0.809689
0.790163
0.797328
0.805557
0.813131
0.798603
0.782645
0.778192
0.778297
0.770939
0.782803
0.77609
0.777507
0.761822
0.778309
0.778659
0.774506
0.769425
0.774386
0.771822
0.791629
0.786897
0.787062
0.791242
0.772678
0.785398
0.771159
0.77524
0.778797
0.784388
0.767602
0.703742
0.728174
0.712516
0.716648
0.701594
0.718439
0.709217
0.703518
0.719151
0.700513
0.707878
0.710925
0.713315
0.702127
0.695886
0.677216
0.701049
0.693466
0.69552
0.684284
0.700036
0.706405
0.709194
0.688605
0.699026
0.70214
0.704588
0.696617
0.678164
0.67675
0.692936
0.687765
0.674773
0.679157
0.6878
0.646428
0.658014
0.643782
0.658178
0.645238
0.6553
0.651839
0.663714
0.662428
0.650005
0.657076
0.662552
0.66656
0.655169
0.668929