/*--------------------------------*- C++ -*----------------------------------*\
| =========                 |                                                 |
| \\      /  F ield         | OpenFOAM: The Open Source CFD Toolbox           |
|  \\    /   O peration     | Version:  v1612+                                |
|   \\  /    A nd           | Web:      www.OpenFOAM.com                      |
|    \\/     M anipulation  |                                                 |
\*---------------------------------------------------------------------------*/
FoamFile
{
    version     2.0;
    format      ascii;
    class       volScalarField;
    location    "100";
    object      p;
}
// * * * * * * * * * * * * * * * * * * * * * * * * * * * * * * * * * * * * * //

dimensions      [0 2 -2 0 0 0 0];

internalField   nonuniform List<scalar> 
17216
(
2.93154
2.77356
2.76535
2.77051
2.77094
2.75971
2.76219
2.78119
2.77646
2.76676
2.7634
2.76868
2.76247
2.75807
2.7569
2.76267
2.76201
2.76761
2.75978
2.75872
2.75965
2.76172
2.76111
2.76153
2.7597
2.76198
2.75878
2.76776
2.75954
2.76022
2.76066
2.76428
2.88389
2.87564
2.89397
2.89573
2.86683
2.9
2.8933
2.87369
2.88276
2.80791
2.80754
2.80854
2.8074
2.80892
2.81018
2.81181
2.80856
2.80725
2.80579
2.80166
2.8153
2.81129
2.81423
2.80924
2.80872
2.80883
2.8042
2.80437
2.80513
2.80818
2.80446
2.77153
2.76223
2.77685
2.781
2.75999
2.77021
2.7656
2.77877
2.77646
2.77702
2.76627
2.77077
2.76402
2.77931
2.76554
2.76936
2.83576
2.82872
2.82527
2.83984
2.81132
2.81215
2.81918
2.81564
2.82556
2.81225
2.81195
2.81568
2.8177
2.8214
2.81358
2.82982
2.84141
2.8143
2.83313
2.82956
2.8863
2.89444
2.89863
2.88107
2.90745
2.89645
2.90573
2.91297
2.91182
2.90975
2.91507
2.90962
2.90565
2.89269
2.87713
2.88258
2.89851
2.75283
2.75252
2.75429
2.75545
2.7566
2.7517
2.74967
2.74963
2.75665
2.75632
2.75238
2.75414
2.75157
2.74839
2.75063
2.75316
2.75342
2.75615
2.75647
2.75163
2.75448
2.75077
2.84944
2.83452
2.84316
2.84964
2.83622
2.83148
2.84808
2.84377
2.83696
2.83421
2.82383
2.82735
2.82405
2.82268
2.83868
2.82371
2.83121
2.81514
2.82397
2.82422
2.81112
2.81946
2.80724
2.82797
2.82747
2.82746
2.81071
2.81536
2.80605
2.8064
2.81703
2.82105
2.8078
2.76784
2.76866
2.77557
2.7734
2.773
2.7648
2.77401
2.7838
2.77517
2.77771
2.77998
2.77039
2.77862
2.74797
2.74874
2.74889
2.7514
2.75276
2.75133
2.75345
2.75647
2.75586
2.75036
2.75752
2.7559
2.74774
2.75665
2.75376
2.75566
2.7534
2.75759
2.74153
2.75777
2.7578
2.82749
2.84227
2.83188
2.85119
2.84144
2.83781
2.84646
2.83108
2.82337
2.82775
2.81385
2.82262
2.83919
2.82557
2.8221
2.81963
2.82234
2.82881
2.79795
2.80132
2.79872
2.79778
2.79791
2.7967
2.80076
2.79904
2.79964
2.79941
2.80431
2.80194
2.80214
2.79917
2.80031
2.80468
2.80322
2.79707
2.80308
2.80516
2.77064
2.77584
2.77489
2.77235
2.76806
2.76681
2.76904
2.76276
2.76441
2.76272
2.74929
2.7619
2.757
2.75998
2.75539
2.7546
2.75416
2.7512
2.75692
2.75507
2.754
2.75721
2.75538
2.75739
2.75209
2.82193
2.82298
2.8264
2.82362
2.76212
2.76313
2.76505
2.76556
2.76096
2.76156
2.75951
2.76335
2.76516
2.76571
2.76155
2.76415
2.7659
2.76609
2.76264
2.83842
2.83815
2.83166
2.84662
2.85145
2.84544
2.84916
2.82797
2.83404
2.84384
2.84596
2.83429
2.86205
2.85442
2.85417
2.85855
2.83004
2.85098
2.84428
2.80261
2.8021
2.79949
2.79626
2.80065
2.79802
2.79809
2.79722
2.80012
2.79785
2.79954
2.79954
2.79466
2.79682
2.79784
2.79438
2.79329
2.79726
2.81127
2.81
2.82295
2.82406
2.80761
2.81974
2.81161
2.8121
2.80888
2.80714
2.81692
2.83439
2.82535
2.81476
2.81954
2.81146
2.81399
2.78056
2.77664
2.77763
2.78026
2.78297
2.77977
2.77911
2.7764
2.77576
2.77998
2.77467
2.77393
2.77586
2.77549
2.77422
2.77568
2.76952
2.77265
2.77366
2.77811
2.77439
2.77239
2.82496
2.82348
2.82902
2.8175
2.81862
2.82308
2.82028
2.81319
2.8197
2.82537
2.82519
2.82743
2.82599
2.81974
2.82004
2.81852
2.82468
2.82634
2.82656
2.82489
2.82601
2.817
2.83538
2.83483
2.83394
2.82616
2.82622
2.83144
2.83328
2.8351
2.8303
2.82766
2.82607
2.75619
2.76026
2.75709
2.75312
2.74942
2.75699
2.76096
2.7565
2.75427
2.74968
2.75019
2.75391
2.75308
2.75216
2.75408
2.75375
2.7522
2.80875
2.81616
2.80368
2.81112
2.82013
2.82455
2.82779
2.83429
2.82616
2.80668
2.81568
2.81917
2.81345
2.80978
2.8371
2.8432
2.84066
2.83188
2.84066
2.84545
2.84525
2.83781
2.83614
2.83381
2.84224
2.83669
2.78974
2.79041
2.77943
2.78387
2.79041
2.77866
2.77421
2.79353
2.79036
2.77966
2.77161
2.78206
2.7772
2.77429
2.77709
2.77572
2.78596
2.87449
2.87418
2.88496
2.85602
2.85657
2.85408
2.85164
2.86772
2.87194
2.86426
2.86325
2.85713
2.86527
2.85845
2.84628
2.85101
2.85351
2.87996
2.86963
2.88492
2.89532
2.88752
2.89749
2.87756
2.86962
2.88409
2.89323
2.89801
2.91673
2.91171
2.90618
2.91005
2.89952
2.87909
2.88227
2.90854
2.74638
2.74858
2.74571
2.74888
2.75047
2.74768
2.74059
2.74759
2.77315
2.77463
2.76766
2.77276
2.77557
2.77386
2.78314
2.77224
2.77783
2.77247
2.76992
2.77988
2.77771
2.77227
2.81049
2.81693
2.7928
2.79853
2.78953
2.79077
2.8008
2.80444
2.80416
2.81519
2.81192
2.81334
2.79041
2.82431
2.81161
2.79548
2.79806
2.79334
2.85321
2.87126
2.85132
2.8622
2.88364
2.86502
2.86259
2.88023
2.8875
2.89004
2.79063
2.79773
2.79004
2.80028
2.81279
2.81627
2.7916
2.80347
2.78626
2.79572
2.79616
2.82195
2.79627
2.79474
2.79155
2.78998
2.80201
2.80337
2.7958
2.80222
2.80242
2.79692
2.79416
2.80433
2.80193
2.80617
2.80224
2.79593
2.80045
2.79942
2.8062
2.8107
2.80197
2.80778
2.75085
2.74934
2.75558
2.75309
2.74806
2.75294
2.75437
2.75584
2.75783
2.75611
2.75703
2.75931
2.75689
2.75732
2.75816
2.75596
2.75828
2.75364
2.75425
2.76015
2.76044
2.76621
2.76036
2.76255
2.76289
2.76543
2.84179
2.8484
2.8427
2.84807
2.85481
2.85076
2.83401
2.83178
2.83544
2.84887
2.83483
2.86152
2.85917
2.8347
2.83758
2.8374
2.8366
2.85169
2.84457
2.85164
2.84235
2.74466
2.75321
2.74764
2.74505
2.74557
2.74779
2.75098
2.74676
2.75542
2.75049
2.74561
2.74361
2.75222
2.76856
2.76
2.76605
2.76892
2.76238
2.76539
2.76334
2.76235
2.77172
2.77389
2.77065
2.77382
2.76099
2.77245
2.76054
2.76705
2.76444
2.75898
2.76363
2.76287
2.76163
2.77246
2.76432
2.8527
2.86125
2.84742
2.85099
2.8767
2.86064
2.8476
2.84643
2.86678
2.84243
2.84609
2.84302
2.84025
2.87846
2.85158
2.87191
2.79411
2.7886
2.79507
2.79624
2.79956
2.79814
2.7984
2.79712
2.79267
2.79498
2.79206
2.79815
2.79951
2.80195
2.79332
2.79697
2.79274
2.79258
2.797
2.80094
2.78954
2.78838
2.8002
2.80008
2.79051
2.79561
2.79898
2.79619
2.80205
2.92489
2.92664
2.91677
2.92729
2.91531
2.91632
2.93399
2.93483
2.92917
2.93708
2.90948
2.92014
2.92186
2.90923
2.91158
2.92006
2.91077
2.92503
2.90717
2.92255
2.91302
2.92032
2.90826
2.91422
2.91658
2.92351
2.91464
2.89484
2.89127
2.90302
2.89748
2.8927
2.88818
2.8794
2.90916
2.89508
2.80842
2.80953
2.80339
2.80319
2.80406
2.80148
2.81061
2.80282
2.80622
2.80346
2.8018
2.79943
2.80346
2.79907
2.78369
2.78493
2.78151
2.78528
2.78592
2.79438
2.78588
2.7874
2.77688
2.77867
2.78426
2.78421
2.77689
2.78344
2.77933
2.77887
2.78408
2.78889
2.78867
2.78207
2.83064
2.82902
2.83595
2.83069
2.82837
2.83332
2.79599
2.79724
2.80636
2.80647
2.79753
2.8054
2.79688
2.80204
2.80888
2.79047
2.79268
2.79961
2.80253
2.7898
2.79671
2.79335
2.79399
2.78847
2.79288
2.91701
2.90403
2.88677
2.88943
2.89877
2.91964
2.92574
2.88311
2.88743
2.91619
2.91606
2.90481
2.91427
2.90197
2.88774
2.8909
2.8956
2.89236
2.91029
2.88676
2.87336
2.89231
2.88987
2.89105
2.89201
2.89812
2.89749
2.89371
2.88429
2.88549
2.7891
2.78795
2.79203
2.79205
2.79338
2.7932
2.78867
2.79042
2.7917
2.79042
2.79429
2.79233
2.79162
2.79399
2.78916
2.79471
2.79236
2.79444
2.79441
2.95559
2.9594
2.94338
2.93439
2.93143
2.95094
2.94716
2.93136
2.9281
2.95544
2.9701
2.96854
2.96996
2.94805
2.95481
2.95785
2.95596
2.95526
2.79551
2.79859
2.797
2.79434
2.79541
2.78864
2.79071
2.79597
2.79451
2.79508
2.86986
2.84696
2.85648
2.85741
2.84099
2.87066
2.85336
2.83828
2.84389
2.83037
2.85041
2.83927
2.77708
2.78108
2.76788
2.7718
2.77207
2.77481
2.77118
2.76844
2.77055
2.76174
2.76065
2.76313
2.76059
2.76042
2.75916
2.76502
2.76432
2.75697
2.76286
2.90756
2.90042
2.86273
2.87863
2.87834
2.82218
2.81553
2.81831
2.74315
2.74511
2.73445
2.7681
2.76533
2.76435
2.79524
2.80084
2.79073
2.83072
2.84542
2.84361
2.85214
2.83847
2.75872
2.75643
2.77955
2.78164
2.784
2.82293
2.82989
2.82567
2.78845
2.78891
2.79327
2.78423
2.98777
2.98776
2.98324
2.98761
2.8622
2.86545
2.8342
2.83701
2.83164
2.8882
2.89908
2.90182
2.96382
2.96522
2.83337
2.8335
2.79114
2.78706
2.79857
2.77917
2.77856
2.77276
2.77204
2.93163
2.93327
2.77385
2.78427
2.78207
2.81177
2.81308
2.81852
2.82045
2.8169
2.82032
2.80349
2.80764
2.81204
2.76639
2.7666
2.84072
2.82677
2.82008
2.82939
2.8059
2.80951
2.87839
2.88602
2.88478
2.82743
2.83501
2.80055
2.8037
2.8048
2.75137
2.75452
2.75029
2.80347
2.80315
2.92487
2.91626
2.8227
2.82803
2.77832
2.77276
2.7733
2.81799
2.81958
2.78086
2.78627
2.78989
2.87463
2.86956
2.78996
2.78728
2.78946
2.84162
2.83325
2.83162
2.75909
2.76007
2.76184
2.86903
2.86234
2.85909
2.8079
2.8153
2.81436
2.81002
2.82413
2.82878
2.82129
2.7566
2.75257
2.77661
2.77428
2.85926
2.86461
2.92044
2.92925
2.93148
2.92949
2.75868
2.75281
2.75243
2.88742
2.88836
2.76161
2.76359
2.76531
2.80473
2.80831
2.7769
2.78284
2.77959
2.77796
2.7514
2.75377
2.75489
2.75935
2.76035
2.77022
2.76861
2.76717
2.81202
2.81193
2.79352
2.79516
2.79181
2.7921
2.79064
2.79387
2.79459
2.79849
2.79405
2.79264
2.79135
2.78976
2.79169
2.78614
2.78643
2.78957
2.79584
2.79837
2.79571
2.79635
2.80129
2.79686
2.79997
2.79257
2.79281
2.79461
2.79312
2.7893
2.78676
2.79158
2.80006
2.80189
2.7972
2.80038
2.79709
2.79511
2.79742
2.79836
2.81109
2.81327
2.81037
2.82056
2.816
2.81928
2.81883
2.81656
2.81191
2.81594
2.81482
2.81485
2.81531
2.8187
2.8183
2.81595
2.81541
2.81094
2.80832
2.80928
2.81241
2.77285
2.7714
2.77007
2.76874
2.76343
2.76831
2.77286
2.77538
2.76866
2.77109
2.77169
2.77136
2.77238
2.77191
2.7717
2.77131
2.76872
2.76901
2.76857
2.76997
2.77019
2.76076
2.76615
2.76791
2.76855
2.76616
2.76731
2.76587
2.76722
2.76811
2.76798
2.77035
2.77339
2.76878
2.77056
2.77179
2.7805
2.75525
2.75269
2.76206
2.75333
2.76433
2.76896
2.76011
2.75601
2.76182
2.7629
2.76075
2.75497
2.75763
2.75133
2.76106
2.76134
2.75639
2.75476
2.75835
2.75524
2.75046
2.75406
2.75282
2.753
2.75127
2.7521
2.75153
2.90801
2.91446
2.92094
2.93074
2.96093
2.95767
2.79461
2.77988
2.79184
2.79605
2.78732
2.77824
2.7769
2.78233
2.77745
2.78239
2.77838
2.77697
2.76802
2.77589
2.7773
2.77399
2.79211
2.78982
2.79428
2.79148
2.80009
2.7947
2.80858
2.81042
2.79455
2.80907
2.78829
2.78547
2.79473
2.79043
2.77906
2.77474
2.77817
2.77812
2.78923
2.78655
2.78521
2.77809
2.80029
2.79137
2.79208
2.7734
2.77277
2.78611
2.76613
2.77386
2.78424
2.77924
2.81226
2.8096
2.81512
2.80708
2.77298
2.77885
2.78922
2.76505
2.80727
2.80643
2.8036
2.83414
2.82782
2.83204
2.82072
2.81287
2.81905
2.78381
2.80017
2.80121
2.8101
2.81483
2.81384
2.80977
2.81788
2.79652
2.80142
2.82474
2.80978
2.81335
2.80545
2.81169
2.79582
2.80545
2.80715
2.79901
2.80539
2.79757
2.78989
2.79607
2.78543
2.78685
2.78837
2.79056
2.81141
2.80394
2.7968
2.80524
2.80611
2.75426
2.75491
2.76293
2.75815
2.76283
2.76175
2.7605
2.77225
2.76509
2.76452
2.76758
2.74967
2.74825
2.76689
2.75299
2.74083
2.75829
2.75603
2.76466
2.76638
2.7684
2.76624
2.76794
2.76058
2.76042
2.76778
2.76557
2.76117
2.75868
2.75868
2.76661
2.75485
2.76238
2.8934
2.89389
2.85343
2.84714
2.85779
2.84269
2.83992
2.84748
2.85105
2.86006
2.87869
2.86991
2.8745
2.85999
2.88225
2.90747
2.90466
2.88514
2.86975
2.86345
2.86209
2.74487
2.75725
2.74922
2.74855
2.742
2.75505
2.74687
2.74804
2.74632
2.75309
2.77108
2.74897
2.75326
2.75706
2.77193
2.77079
2.75714
2.7473
2.74484
2.751
2.75034
2.75062
2.74946
2.74847
2.93862
2.9401
2.92661
2.88039
2.8914
2.88215
2.89936
2.90714
2.90537
2.86067
2.87002
2.8677
2.88894
2.88497
2.87434
2.89087
2.89095
2.90312
2.92011
2.90925
2.89048
2.90488
2.96617
2.96357
2.94773
2.96009
2.93013
2.93474
2.90752
2.9134
2.93585
2.89988
2.88216
2.882
2.8759
2.88027
2.91386
2.90345
2.89847
2.90281
2.91235
2.91952
2.93995
2.92956
2.94146
2.95172
2.94361
2.94121
2.95916
2.96031
2.84907
2.83813
2.8481
2.87445
2.84712
2.84966
2.86831
2.86665
2.86094
2.83165
2.81587
2.82729
2.84407
2.83618
2.83065
2.83904
2.84074
2.84777
2.84441
2.85564
2.8548
2.86063
2.84625
2.83627
2.85886
2.85085
2.85902
2.83303
2.78118
2.78501
2.77799
2.77759
2.77895
2.77658
2.77319
2.77396
2.77584
2.77294
2.77277
2.77461
2.77434
2.77173
2.7723
2.77377
2.75446
2.76012
2.75866
2.75709
2.75856
2.75211
2.7544
2.75267
2.75503
2.75301
2.75421
2.74693
2.75242
2.74946
2.75317
2.81653
2.82257
2.82659
2.82124
2.82274
2.82268
2.83681
2.84139
2.81961
2.8164
2.81488
2.81105
2.8214
2.81765
2.82199
2.83061
2.82479
2.82035
2.82985
2.8278
2.82932
2.83525
2.83079
2.8269
2.80933
2.81213
2.81027
2.81195
2.81127
2.807
2.80614
2.81033
2.80748
2.80516
2.81877
2.80962
2.8179
2.81437
2.81257
2.80982
2.81408
2.81499
2.81882
2.82244
2.81772
2.81825
2.84567
2.83607
2.84486
2.83756
2.83081
2.84758
2.84154
2.84554
2.85066
2.86822
2.85347
2.85414
2.83879
2.84765
2.85583
2.84734
2.86026
2.87046
2.86526
2.85861
2.8888
2.89404
2.86667
2.86614
2.87344
2.87304
2.75949
2.75964
2.76406
2.76182
2.75841
2.75883
2.76008
2.84852
2.83495
2.83603
2.82187
2.82519
2.8495
2.85364
2.84659
2.83604
2.81991
2.82924
2.81937
2.82666
2.82235
2.80632
2.82679
2.81319
2.79975
2.81415
2.82893
2.826
2.82152
2.82301
2.8276
2.83257
2.83006
2.8299
2.82789
2.8253
2.83839
2.82556
2.83733
2.8278
2.84547
2.84361
2.84208
2.83029
2.79995
2.79749
2.79061
2.79678
2.78803
2.78485
2.78426
2.78387
2.77735
2.77914
2.77758
2.79087
2.79317
2.79494
2.78876
2.79042
2.78846
2.78924
2.78983
2.78347
2.78558
2.78735
2.78379
2.78505
2.7843
2.78553
2.78699
2.78913
2.86249
2.85328
2.8657
2.88418
2.88668
2.86307
2.86935
2.86902
2.86537
2.8625
2.85726
2.8438
2.85785
2.85939
2.85874
2.87951
2.88088
2.87383
2.86106
2.86471
2.85704
2.85557
2.86579
2.8616
2.81708
2.8119
2.80853
2.81749
2.80098
2.77106
2.76997
2.77997
2.77157
2.76662
2.78604
2.78442
2.76813
2.76814
2.76846
2.76406
2.7898
2.77523
2.82443
2.8231
2.82274
2.82319
2.82484
2.82694
2.82117
2.82205
2.81537
2.81846
2.8219
2.81818
2.82316
2.82398
2.81604
2.81746
2.81608
2.81912
2.76522
2.77144
2.76762
2.76545
2.76597
2.76667
2.76603
2.77418
2.7855
2.77534
2.77908
2.77619
2.7696
2.76584
2.76373
2.77261
2.77215
2.77269
2.76952
2.77026
2.76272
2.78468
2.77461
2.7767
2.7733
2.77063
2.7675
2.77191
2.85884
2.85293
2.84546
2.86442
2.84711
2.83451
2.81345
2.81459
2.79505
2.79734
2.83033
2.83473
2.82572
2.81221
2.8101
2.80804
2.92611
2.92519
2.91104
2.90414
2.90132
2.92378
2.91402
2.92678
2.91887
2.87544
2.86775
2.8814
2.89565
2.89324
2.89378
2.88991
2.89643
2.95895
2.91917
2.92324
2.94073
2.92026
2.92669
2.92843
2.92068
2.9378
2.92744
2.80253
2.80621
2.7997
2.80128
2.80602
2.80419
2.80763
2.80757
2.80299
2.80688
2.80748
2.80631
2.80626
2.80927
2.8029
2.80356
2.80001
2.80022
2.79594
2.79849
2.80019
2.7975
2.80081
2.75549
2.75578
2.75021
2.75467
2.75781
2.7552
2.7545
2.75645
2.75793
2.80035
2.80248
2.88808
2.8879
2.87063
2.8567
2.87163
2.83778
2.84823
2.85557
2.82945
2.81941
2.84422
2.83519
2.83782
2.85306
2.84563
2.8303
2.86823
2.86928
2.8627
2.8479
2.85617
2.8496
2.84092
2.83747
2.83963
2.81494
2.79773
2.81043
2.82639
2.83154
2.82722
2.83352
2.83867
2.80944
2.80723
2.82435
2.8232
2.7968
2.8059
2.80017
2.80043
2.80101
2.79975
2.79702
2.79941
2.84467
2.84919
2.85998
2.85454
2.87241
2.91666
2.90329
2.88941
2.90736
2.79612
2.79671
2.78808
2.78013
2.79888
2.79397
2.81091
2.80111
2.81058
2.8108
2.79382
2.79879
2.78123
2.77931
2.79478
2.79232
2.79453
2.79572
2.82219
2.81726
2.84226
2.83042
2.83793
2.82632
2.82574
2.82462
2.81585
2.8074
2.80429
2.85966
2.85228
2.84262
2.83098
2.81797
2.8138
2.79522
2.80532
2.80476
2.818
2.82048
2.81219
2.82262
2.82038
2.80083
2.79802
2.8022
2.80537
2.80652
2.81318
2.76691
2.76945
2.77515
2.76799
2.77157
2.82451
2.82285
2.81454
2.82724
2.82984
2.80848
2.81481
2.8091
2.81098
2.80949
2.80681
2.8064
2.80817
2.80778
2.80304
2.80029
2.80417
2.82379
2.82137
2.80462
2.80912
2.81406
2.81316
2.81134
2.81915
2.81169
2.82012
2.80686
2.82916
2.8225
2.82269
2.79137
2.79102
2.80025
2.79533
2.80521
2.80999
2.80367
2.80782
2.8224
2.81599
2.81895
2.81365
2.84025
2.83432
2.83929
2.84056
2.83298
2.79991
2.79349
2.80537
2.796
2.79207
2.80625
2.79692
2.79929
2.80249
2.80473
2.7464
2.74122
2.74333
2.83592
2.83106
2.83038
2.8224
2.82346
2.8179
2.82357
2.8143
2.83113
2.82628
2.81328
2.8042
2.81234
2.8067
2.81269
2.80685
2.8097
2.80859
2.81022
2.81412
2.81938
2.8143
2.8166
2.81381
2.81824
2.80967
2.79597
2.79867
2.7742
2.77074
2.78271
2.77681
2.78315
2.77247
2.76803
2.77476
2.78819
2.78226
2.77219
2.93752
2.93669
2.95295
2.93932
2.94958
2.93917
2.92416
2.92795
2.92792
2.9416
2.93198
2.93951
2.9289
2.9349
2.92581
2.91829
2.92972
2.93511
2.94261
2.93556
2.75918
2.76765
2.75708
2.74361
2.74918
2.7815
2.77937
2.77478
2.78375
2.78076
2.77593
2.77947
2.77768
2.77274
2.77284
2.77032
2.77031
2.76918
2.77983
2.77226
2.76936
2.76935
2.76994
2.804
2.78689
2.80587
2.79288
2.7917
2.79006
2.81391
2.80186
2.78688
2.79337
2.79999
2.79554
2.83409
2.83375
2.83185
2.82661
2.82639
2.82986
2.83197
2.83504
2.83327
2.83252
2.83168
2.83442
2.83416
2.83358
2.82695
2.82795
2.82937
2.83267
2.9369
2.93548
2.92058
2.94404
2.96683
2.95484
2.95276
2.93079
2.947
2.93472
2.97965
2.97292
2.95597
2.95006
2.97672
2.95792
2.94972
2.97399
2.97262
2.88504
2.8766
2.89501
2.86193
2.87095
2.8625
2.85815
2.91927
2.92938
2.92204
2.90584
2.87968
2.88803
2.87594
2.88574
2.88584
2.87372
2.83715
2.84106
2.83952
2.83908
2.87295
2.8607
2.875
2.86363
2.98564
2.97808
2.98146
2.97762
2.98314
2.96876
2.98843
2.98671
2.9697
2.7889
2.78366
2.78762
2.77993
2.77605
2.78927
2.78475
2.78991
2.79401
2.79337
2.79058
2.80131
2.81104
2.80305
2.81744
2.82319
2.81868
2.79674
2.81974
2.80913
2.79402
2.81076
2.83944
2.82485
2.84572
2.77532
2.77319
2.77701
2.77758
2.77567
2.77783
2.7787
2.77963
2.78362
2.78064
2.78176
2.7586
2.7554
2.75292
2.75389
2.75543
2.75767
2.76426
2.75974
2.75077
2.7535
2.75511
2.75784
2.75735
2.75891
2.75933
2.75889
2.83385
2.83657
2.82608
2.82483
2.83001
2.83301
2.86708
2.87059
2.87058
2.855
2.84667
2.83135
2.83552
2.85154
2.84281
2.86056
2.87278
2.85461
2.86172
2.84558
2.86274
2.84719
2.83651
2.86539
2.86025
2.86925
2.86628
2.79233
2.78674
2.7929
2.80143
2.78906
2.78792
2.79225
2.79688
2.80301
2.79331
2.79383
2.76153
2.76422
2.76426
2.76484
2.7587
2.76753
2.76512
2.76694
2.76203
2.79489
2.80722
2.80585
2.79858
2.80289
2.79895
2.79097
2.78129
2.7766
2.79986
2.78364
2.80358
2.80311
2.80935
2.80693
2.90582
2.88889
2.89012
2.89903
2.88779
2.87023
2.87412
2.89798
2.88873
2.88139
2.88073
2.87515
2.88217
2.87316
2.87854
2.86982
2.85489
2.86344
2.91485
2.91519
2.91149
2.92041
2.91453
2.9063
2.90259
2.90761
2.89307
2.89797
2.90201
2.89005
2.87685
2.87503
2.90052
2.88933
2.90128
2.88748
2.90352
2.91588
2.9155
2.90649
2.91337
2.92245
2.91996
2.88433
2.87642
2.86148
2.86038
2.87448
2.86512
2.89082
2.88348
2.88628
2.88068
2.89772
2.88791
2.77891
2.78168
2.76967
2.78036
2.79674
2.79304
2.78678
2.79476
2.79041
2.80171
2.79281
2.8221
2.8367
2.84008
2.82783
2.81993
2.8338
2.83952
2.84034
2.84004
2.84341
2.8309
2.78843
2.7853
2.78778
2.79791
2.79558
2.79629
2.79448
2.79722
2.97863
2.96601
2.97848
2.97044
2.86931
2.90249
2.89044
2.89926
2.90548
2.88692
2.88921
2.87666
2.89411
2.87124
2.90319
2.89469
2.88047
2.9084
2.91352
2.90767
2.90427
2.88949
2.89213
2.89622
2.887
2.88435
2.89748
2.89041
2.9166
2.92845
2.92271
2.91042
2.91683
2.92652
2.92138
2.91047
2.90814
2.91925
2.91448
2.85717
2.85537
2.83344
2.86583
2.85161
2.84999
2.83647
2.86261
2.85961
2.89825
2.87906
2.89048
2.88488
2.90577
2.89636
2.88373
2.87681
2.89128
2.87969
2.95358
2.93722
2.9573
2.94479
2.89828
2.91091
2.91679
2.89536
2.90348
2.8948
2.91733
2.93009
2.92778
2.90783
2.88973
2.89494
2.83398
2.83293
2.83475
2.82937
2.82708
2.82282
2.82768
2.82467
2.83035
2.83134
2.82409
2.82241
2.8241
2.82828
2.82665
2.817
2.81847
2.83669
2.81786
2.81724
2.81805
2.80733
2.8015
2.79559
2.79798
2.79963
2.82668
2.80896
2.76668
2.76892
2.76642
2.76071
2.77449
2.7709
2.76705
2.76493
2.76802
2.76071
2.78223
2.78093
2.78375
2.7797
2.77705
2.78006
2.772
2.77807
2.77716
2.7854
2.78568
2.77675
2.77476
2.78285
2.78131
2.77952
2.78091
2.78341
2.78321
2.78811
2.78545
2.78408
2.78004
2.78471
2.78312
2.76373
2.7599
2.74355
2.74652
2.74352
2.74718
2.74067
2.92905
2.93489
2.93018
2.92416
2.93126
2.92858
2.94185
2.94069
2.93166
2.91951
2.92115
2.92364
2.97449
2.96624
2.9483
2.94649
2.9622
2.95766
2.95481
2.95459
2.94541
2.95683
2.95519
2.95398
2.94472
2.80806
2.82527
2.82919
2.82479
2.81753
2.81743
2.81561
2.80969
2.83004
2.82425
2.8169
2.82497
2.82192
2.81254
2.80284
2.81539
2.81669
2.81716
2.82145
2.81174
2.82813
2.81846
2.80888
2.81249
2.85918
2.84094
2.82962
2.84226
2.83238
2.82527
2.83492
2.82667
2.82371
2.83539
2.82819
2.83394
2.8215
2.84127
2.83777
2.85522
2.85294
2.8106
2.81224
2.79614
2.79714
2.8076
2.81327
2.80394
2.80611
2.80529
2.80559
2.80411
2.79812
2.80289
2.79796
2.79865
2.87718
2.86
2.87446
2.88106
2.87948
2.86846
2.86738
2.87118
2.87663
2.87457
2.84893
2.87344
2.85647
2.86959
2.86942
2.85601
2.84198
2.84389
2.81548
2.81806
2.80981
2.80792
2.81793
2.8144
2.8078
2.80659
2.79497
2.79933
2.79734
2.79526
2.80353
2.8072
2.80912
2.80043
2.80074
2.79907
2.80387
2.80017
2.80257
2.79923
2.80176
2.92963
2.93261
2.9455
2.93743
2.94423
2.93299
2.94459
2.94748
2.94172
2.95642
2.93848
2.94041
2.94214
2.83175
2.8263
2.83576
2.8308
2.82062
2.81254
2.81168
2.83951
2.81728
2.81318
2.82612
2.83943
2.83324
2.83932
2.8396
2.85176
2.84671
2.83427
2.86842
2.85159
2.86319
2.85158
2.85449
2.86492
2.82669
2.82473
2.82998
2.82663
2.82408
2.82536
2.83184
2.82619
2.82632
2.83101
2.82864
2.82836
2.84664
2.8603
2.8549
2.84451
2.86149
2.86265
2.85045
2.78853
2.78648
2.78868
2.79634
2.7939
2.78688
2.7871
2.79327
2.79009
2.78935
2.79447
2.79588
2.79629
2.7913
2.79225
2.79544
2.7967
2.80124
2.84281
2.82497
2.8442
2.83562
2.84487
2.83772
2.82351
2.83663
2.83112
2.83873
2.82528
2.81041
2.81991
2.80948
2.82452
2.82631
2.82391
2.81911
2.81024
2.8266
2.82171
2.81623
2.81032
2.87227
2.87965
2.87536
2.89492
2.88799
2.89485
2.90695
2.90806
2.90571
2.84437
2.82253
2.83454
2.83107
2.82686
2.82687
2.82766
2.82875
2.83454
2.83613
2.84845
2.84046
2.84563
2.84436
2.8404
2.84181
2.82642
2.81645
2.81677
2.81617
2.81402
2.81367
2.81355
2.83829
2.83737
2.83355
2.84
2.83076
2.81635
2.82976
2.82383
2.81931
2.82787
2.82279
2.82566
2.82191
2.81493
2.82444
2.82228
2.82248
2.82094
2.75293
2.74827
2.74908
2.74781
2.74729
2.75176
2.75333
2.75256
2.74845
2.74945
2.74395
2.75025
2.74868
2.75424
2.75681
2.75378
2.74481
2.74442
2.74407
2.74906
2.74755
2.74456
2.74579
2.74517
2.74475
2.7482
2.74779
2.75862
2.76175
2.76042
2.76024
2.75937
2.75887
2.76345
2.75878
2.76145
2.75961
2.75822
2.76086
2.76056
2.78686
2.78505
2.78033
2.78254
2.78175
2.78482
2.78488
2.85065
2.85584
2.85603
2.85417
2.85505
2.85304
2.85397
2.9722
2.96055
2.97715
2.97181
2.95725
2.9393
2.87309
2.8891
2.8796
2.88811
2.8975
2.88235
2.90074
2.89094
2.91173
2.89749
2.90176
2.90752
2.91152
2.90112
2.88741
2.90648
2.90772
2.89008
2.8995
2.9151
2.90355
2.88924
2.8851
2.85749
2.87038
2.86116
2.87201
2.87054
2.85173
2.85525
2.8612
2.85758
2.86338
2.85392
2.84793
2.84538
2.8623
2.84495
2.83529
2.85709
2.84948
2.86492
2.84797
2.86148
2.87247
2.86445
2.87966
2.84345
2.84196
2.91293
2.90384
2.88888
2.90866
2.89154
2.91161
2.91721
2.91225
2.89998
2.88833
2.89608
2.87794
2.77998
2.77374
2.76863
2.76393
2.77681
2.76673
2.75854
2.91728
2.91036
2.91617
2.90583
2.89985
2.88921
2.89486
2.87916
2.89143
2.89124
2.88548
2.894
2.8917
2.8733
2.8732
2.76828
2.76387
2.76452
2.76636
2.75864
2.75205
2.75705
2.77973
2.76409
2.78278
2.77977
2.78368
2.83581
2.83988
2.81952
2.83977
2.83906
2.8283
2.8339
2.83038
2.81604
2.82293
2.82164
2.76726
2.77389
2.76892
2.76909
2.77147
2.77468
2.77645
2.77738
2.77347
2.77426
2.7716
2.76675
2.77045
2.76695
2.77124
2.77058
2.77046
2.78015
2.77754
2.78042
2.77543
2.77378
2.77816
2.78293
2.77447
2.77714
2.77929
2.77995
2.78263
2.78404
2.77749
2.77921
2.78073
2.77894
2.78096
2.7829
2.78312
2.78117
2.7813
2.77868
2.76956
2.77276
2.77721
2.77593
2.77867
2.78143
2.77716
2.77606
2.77527
2.77303
2.92875
2.92353
2.91842
2.96135
2.92492
2.91148
2.90021
2.9078
2.91568
2.90991
2.93277
2.91087
2.8969
2.90449
2.91477
2.90376
2.97996
2.98494
2.97901
2.75894
2.75613
2.7558
2.75361
2.75183
2.75668
2.75087
2.75177
2.7547
2.75553
2.75288
2.75153
2.76662
2.76937
2.76775
2.76892
2.75944
2.75576
2.75896
2.76366
2.76187
2.76307
2.76505
2.75716
2.77373
2.76476
2.7633
2.75973
2.76123
2.76261
2.76679
2.76704
2.76532
2.7651
2.76618
2.76159
2.76452
2.76195
2.76112
2.76233
2.7617
2.76254
2.76745
2.76231
2.76427
2.76449
2.76478
2.76243
2.76582
2.76319
2.76272
2.76433
2.7617
2.81313
2.80655
2.80737
2.80929
2.81104
2.80994
2.81019
2.81216
2.81123
2.812
2.80828
2.80867
2.80303
2.80789
2.80725
2.80124
2.80233
2.80635
2.8089
2.78568
2.79321
2.79005
2.78143
2.78372
2.78991
2.79289
2.79095
2.7869
2.78396
2.78275
2.78441
2.78497
2.78235
2.78435
2.78536
2.78307
2.78405
2.78465
2.78615
2.78737
2.91692
2.90202
2.92118
2.90745
2.9182
2.90411
2.90855
2.91809
2.9093
2.92685
2.91456
2.94194
2.94271
2.95523
2.93528
2.95409
2.94622
2.94947
2.93139
2.91773
2.93063
2.86541
2.87009
2.87454
2.86719
2.85319
2.85978
2.87386
2.88208
2.86619
2.85444
2.85536
2.88926
2.89188
2.89344
2.87789
2.8742
2.87557
2.8846
2.8833
2.86728
2.86468
2.83671
2.85411
2.84621
2.84741
2.83136
2.84564
2.83593
2.83451
2.85557
2.84786
2.84943
2.84658
2.84068
2.84592
2.85486
2.85027
2.84528
2.83564
2.83445
2.84774
2.84749
2.83868
2.83757
2.84823
2.84066
2.8568
2.85441
2.85304
2.85111
2.85095
2.79084
2.79939
2.79896
2.8
2.79561
2.80021
2.80086
2.79812
2.79847
2.79284
2.79161
2.79486
2.82922
2.82436
2.82575
2.82312
2.78964
2.78777
2.78291
2.79005
2.78186
2.79212
2.79486
2.79562
2.79734
2.79315
2.78859
2.78435
2.7941
2.78962
2.80087
2.80014
2.80637
2.79807
2.79183
2.79059
2.78082
2.78694
2.79977
2.79096
2.78585
2.79443
2.80092
2.79233
2.7965
2.79978
2.79315
2.7945
2.79511
2.79798
2.79615
2.79654
2.79604
2.79144
2.79297
2.78737
2.79128
2.79277
2.78863
2.79079
2.78692
2.78848
2.78957
2.78912
2.80004
2.80015
2.79733
2.79586
2.79693
2.79544
2.79794
2.79399
2.79027
2.79412
2.82075
2.81555
2.81718
2.81564
2.82087
2.82054
2.82668
2.82289
2.8184
2.825
2.76989
2.77044
2.76498
2.7685
2.76739
2.7663
2.76673
2.76446
2.76557
2.76311
2.75945
2.76257
2.76468
2.74866
2.78589
2.79308
2.79295
2.77538
2.76929
2.78136
2.78486
2.77954
2.78695
2.78207
2.7948
2.79423
2.78819
2.79003
2.79037
2.79778
2.79064
2.77311
2.78913
2.79593
2.78845
2.77935
2.77766
2.78824
2.78499
2.7469
2.7482
2.75154
2.75382
2.74527
2.75053
2.7543
2.74731
2.85028
2.84967
2.85922
2.83769
2.83429
2.82759
2.868
2.84881
2.8381
2.8472
2.84058
2.87121
2.87002
2.85131
2.85705
2.85189
2.74009
2.74451
2.743
2.74508
2.74922
2.74505
2.75255
2.74977
2.89287
2.87871
2.85639
2.86421
2.86361
2.8733
2.86322
2.87965
2.87834
2.873
2.87114
2.8687
2.88105
2.85626
2.84721
2.84963
2.76955
2.77357
2.77155
2.7744
2.76932
2.77432
2.77421
2.77293
2.76983
2.76793
2.77203
2.77327
2.77564
2.77831
2.78005
2.77819
2.77909
2.77521
2.77554
2.77865
2.77723
2.77663
2.77724
2.7763
2.86017
2.84706
2.85304
2.85912
2.83758
2.84209
2.83842
2.83998
2.83799
2.83185
2.84124
2.84013
2.8379
2.84111
2.7547
2.75901
2.76136
2.75698
2.7597
2.75552
2.76122
2.76005
2.75744
2.76654
2.76547
2.76341
2.75783
2.76261
2.76147
2.76239
2.76375
2.76085
2.76085
2.76191
2.76274
2.80014
2.80425
2.8202
2.81959
2.82228
2.83171
2.81629
2.82514
2.82674
2.81876
2.81877
2.82118
2.78935
2.78513
2.78195
2.76958
2.78116
2.82504
2.82051
2.82196
2.82499
2.81796
2.81885
2.81708
2.81411
2.81577
2.81341
2.81662
2.81141
2.81773
2.81632
2.81356
2.81333
2.8214
2.81706
2.82131
2.82596
2.81778
2.81672
2.81946
2.82094
2.82422
2.85622
2.84678
2.82618
2.8359
2.84248
2.84254
2.86076
2.86375
2.84674
2.84529
2.83543
2.85155
2.85916
2.78696
2.79489
2.80675
2.78798
2.79567
2.80075
2.79462
2.79571
2.79737
2.80568
2.81056
2.79748
2.8046
2.80478
2.80572
2.81455
2.81174
2.80769
2.81412
2.81052
2.75788
2.75858
2.75902
2.75744
2.75572
2.75633
2.75535
2.75444
2.75533
2.75688
2.81022
2.81183
2.8095
2.80208
2.80662
2.80721
2.80434
2.80391
2.82805
2.84104
2.79085
2.79012
2.7862
2.85391
2.85395
2.83996
2.85714
2.83032
2.85862
2.84405
2.84708
2.83265
2.83746
2.83155
2.80013
2.80067
2.78404
2.80677
2.78628
2.79521
2.81538
2.81336
2.80109
2.80036
2.79358
2.78724
2.79482
2.80692
2.79947
2.76217
2.76619
2.77055
2.76648
2.76829
2.76821
2.768
2.76353
2.76721
2.76049
2.81178
2.82333
2.82402
2.83374
2.82409
2.81617
2.81735
2.82541
2.8291
2.81633
2.8308
2.83624
2.82494
2.82957
2.83688
2.78743
2.79824
2.80001
2.80009
2.80263
2.79332
2.79608
2.80015
2.8008
2.82712
2.82417
2.83113
2.84534
2.83261
2.83168
2.76006
2.76236
2.76672
2.7659
2.9057
2.91091
2.91122
2.9115
2.92043
2.9113
2.93088
2.92279
2.76984
2.77279
2.76986
2.77077
2.75783
2.75584
2.75541
2.76693
2.76492
2.76912
2.77693
2.77544
2.77409
2.77535
2.77767
2.76758
2.77212
2.77275
2.77133
2.77569
2.77477
2.77535
2.77263
2.78642
2.78782
2.78529
2.7826
2.77906
2.77352
2.76949
2.7825
2.7802
2.77757
2.7836
2.7836
2.76737
2.7722
2.8297
2.82974
2.83137
2.82715
2.82789
2.82743
2.828
2.8239
2.82404
2.82186
2.82304
2.8233
2.82118
2.9186
2.91393
2.91935
2.92357
2.91964
2.95588
2.95535
2.96052
2.96062
2.95222
2.96456
2.96805
2.97857
2.97211
2.95928
2.96384
2.96482
2.97499
2.97293
2.96641
2.97578
2.9715
2.75026
2.75322
2.7568
2.76451
2.75981
2.75643
2.7556
2.75243
2.75768
2.76127
2.76048
2.75571
2.75947
2.75885
2.75505
2.74813
2.74838
2.75414
2.75311
2.75235
2.75855
2.7557
2.75162
2.75503
2.7602
2.75643
2.83937
2.86427
2.85557
2.87329
2.87711
2.87559
2.86749
2.87912
2.87276
2.86609
2.84509
2.84314
2.84347
2.86486
2.84647
2.85286
2.88048
2.86707
2.85219
2.86395
2.87682
2.88544
2.86869
2.86758
2.85818
2.87109
2.87637
2.76064
2.76548
2.76118
2.76242
2.76596
2.76694
2.76642
2.76475
2.76134
2.76175
2.76324
2.79367
2.78312
2.78813
2.78255
2.79094
2.78201
2.78835
2.79175
2.77894
2.77908
2.78013
2.87631
2.8863
2.89483
2.8854
2.87139
2.88827
2.8806