/*--------------------------------*- C++ -*----------------------------------*\
| =========                 |                                                 |
| \\      /  F ield         | OpenFOAM: The Open Source CFD Toolbox           |
|  \\    /   O peration     | Version:  v1612+                                |
|   \\  /    A nd           | Web:      www.OpenFOAM.com                      |
|    \\/     M anipulation  |                                                 |
\*---------------------------------------------------------------------------*/
FoamFile
{
    version     2.0;
    format      ascii;
    class       volVectorField;
    location    "100";
    object      U;
}
// * * * * * * * * * * * * * * * * * * * * * * * * * * * * * * * * * * * * * //

dimensions      [0 1 -1 0 0 0 0];

internalField   nonuniform List<vector> 
17216
(
(-0.819607 -0.101367 -0.756993)
(-0.412569 -0.300333 -0.399514)
(-0.659561 -0.110186 -0.501255)
(-0.678519 -0.134579 -0.472575)
(-0.61384 -0.0812881 -0.523079)
(-0.70267 -0.140171 -0.518801)
(-0.69421 -0.137914 -0.568063)
(-0.670966 -0.110657 -0.552491)
(-0.667676 -0.0983131 -0.548866)
(-0.727784 -0.170116 -0.571157)
(-0.716071 -0.1653 -0.502092)
(-0.716552 -0.161484 -0.593286)
(-0.426408 -0.321474 -0.393116)
(-0.430694 -0.318031 -0.40918)
(-0.475423 -0.315008 -0.456677)
(-0.412526 -0.308275 -0.388224)
(-0.37505 -0.284978 -0.348446)
(-0.489893 -0.305732 -0.471017)
(-0.426366 -0.301681 -0.410474)
(-0.46348 -0.282664 -0.468577)
(-0.398264 -0.227039 -0.409219)
(-0.405975 -0.273687 -0.408021)
(-0.376673 -0.239462 -0.388668)
(-0.378501 -0.280046 -0.371665)
(-0.336071 -0.238496 -0.343735)
(-0.319322 -0.234847 -0.322547)
(-0.375605 -0.288396 -0.361091)
(-0.360961 -0.275964 -0.352722)
(-0.370451 -0.265326 -0.37633)
(-0.320477 -0.246037 -0.315644)
(-0.347567 -0.234643 -0.360936)
(-0.346571 -0.251171 -0.349323)
(-0.782723 0.0214037 -0.818216)
(-0.779777 0.00364493 -0.800106)
(-0.820967 -0.0196235 -0.751534)
(-0.801969 -0.0424251 -0.709126)
(-0.759718 -0.0466632 -0.734108)
(-0.819677 -0.0176004 -0.732435)
(-0.807684 -0.046212 -0.694229)
(-0.778918 -0.0722954 -0.704839)
(-0.753661 -0.102589 -0.62114)
(-0.341044 -0.0136368 -0.260177)
(-0.313979 -0.019558 -0.249714)
(-0.422623 0.00377719 -0.336269)
(-0.415237 0.00769314 -0.345109)
(-0.403468 0.00318846 -0.313718)
(-0.409033 0.00955068 -0.334091)
(-0.366553 -0.000702645 -0.318117)
(-0.34839 -0.00722754 -0.272149)
(-0.310579 -0.0177402 -0.262189)
(-0.325145 -0.0202919 -0.260033)
(-0.335868 -0.0143266 -0.269669)
(-0.406915 0.0134661 -0.374043)
(-0.405825 0.00950879 -0.377596)
(-0.376447 0.00262637 -0.383525)
(-0.366197 -0.00599623 -0.358453)
(-0.345499 -0.00709269 -0.331084)
(-0.355358 -0.0069064 -0.352254)
(-0.393132 -0.00149201 -0.309778)
(-0.322183 -0.0146406 -0.262415)
(-0.379246 -0.00923224 -0.32193)
(-0.352178 -0.00922826 -0.338936)
(-0.33761 -0.0130959 -0.300584)
(-0.736624 -0.158812 -0.605364)
(-0.714939 -0.170801 -0.593464)
(-0.723292 -0.145712 -0.614202)
(-0.739298 -0.155767 -0.609428)
(-0.675237 -0.16936 -0.573735)
(-0.673901 -0.127428 -0.588912)
(-0.783139 -0.213434 -0.611566)
(-0.808769 -0.213575 -0.627068)
(-0.821455 -0.200899 -0.65094)
(-0.72612 -0.156884 -0.620328)
(-0.68025 -0.155865 -0.578429)
(-0.667125 -0.133682 -0.595801)
(-0.689141 -0.181004 -0.586564)
(-0.841364 -0.229222 -0.635718)
(-0.806941 -0.226974 -0.61145)
(-0.77542 -0.205777 -0.620483)
(-0.547693 -0.0275785 -0.613041)
(-0.51158 -0.000566892 -0.566103)
(-0.494554 -0.0196673 -0.544746)
(-0.565035 -0.0508387 -0.613937)
(-0.56519 -0.0546388 -0.599493)
(-0.560255 -0.0526099 -0.59304)
(-0.616044 -0.0935086 -0.643515)
(-0.594849 -0.0804151 -0.623095)
(-0.521536 -0.0043608 -0.56784)
(-0.492785 -0.00223492 -0.550682)
(-0.50133 -0.00789437 -0.574129)
(-0.520417 -0.0314957 -0.575607)
(-0.530627 -0.031357 -0.587281)
(-0.58968 -0.0874603 -0.616484)
(-0.600425 -0.0725189 -0.633736)
(-0.54706 -0.0191773 -0.591535)
(-0.617308 -0.0439036 -0.657356)
(-0.557902 -0.0593967 -0.61588)
(-0.637731 -0.0705339 -0.673824)
(-0.577086 -0.0352049 -0.619203)
(-0.885801 -0.139994 -0.725231)
(-0.895457 -0.148254 -0.682)
(-0.879375 -0.135551 -0.677793)
(-0.905255 -0.114213 -0.763145)
(-0.881106 -0.143267 -0.668231)
(-0.893458 -0.119531 -0.775191)
(-0.872921 -0.149162 -0.708563)
(-0.842142 -0.143216 -0.683905)
(-0.826015 -0.154231 -0.64057)
(-0.88258 -0.146824 -0.65913)
(-0.852453 -0.152375 -0.632047)
(-0.87679 -0.152712 -0.715244)
(-0.84106 -0.148959 -0.66171)
(-0.900141 -0.14375 -0.768271)
(-0.902561 -0.129709 -0.761425)
(-0.893888 -0.143396 -0.732576)
(-0.878189 -0.157341 -0.67087)
(-0.377419 -0.0954385 -0.318456)
(-0.407969 -0.0885101 -0.318628)
(-0.364701 -0.095988 -0.321423)
(-0.366428 -0.0956532 -0.318322)
(-0.411199 -0.0808003 -0.31852)
(-0.35701 -0.103213 -0.294317)
(-0.390398 -0.0951789 -0.291214)
(-0.35357 -0.0968168 -0.273482)
(-0.317455 -0.0908285 -0.235121)
(-0.307789 -0.0948505 -0.237692)
(-0.341686 -0.0956346 -0.289406)
(-0.349614 -0.102066 -0.306534)
(-0.3876 -0.0945825 -0.27178)
(-0.312538 -0.0935522 -0.233989)
(-0.326662 -0.0911647 -0.240066)
(-0.297551 -0.0969631 -0.21893)
(-0.310427 -0.0943008 -0.232986)
(-0.336732 -0.0915055 -0.261202)
(-0.334978 -0.0960078 -0.265292)
(-0.328152 -0.104768 -0.280841)
(-0.396477 -0.0939398 -0.285762)
(-0.294278 -0.0941195 -0.221517)
(-0.690254 -0.0814328 -0.74062)
(-0.60541 -0.042528 -0.68315)
(-0.560108 -0.0175686 -0.623465)
(-0.629178 -0.0641433 -0.677561)
(-0.566631 -0.00850171 -0.62953)
(-0.689987 -0.0934808 -0.730848)
(-0.731465 -0.133717 -0.71867)
(-0.691226 -0.0869064 -0.696092)
(-0.661002 -0.0789099 -0.664881)
(-0.59005 -0.0221274 -0.62415)
(-0.677203 -0.103655 -0.679366)
(-0.617666 -0.0628522 -0.631761)
(-0.684762 -0.110271 -0.623315)
(-0.700445 -0.119473 -0.653012)
(-0.686445 -0.113633 -0.695006)
(-0.679265 -0.0882491 -0.628583)
(-0.550223 -0.0147753 -0.594717)
(-0.661006 -0.0739819 -0.610764)
(-0.696354 -0.116109 -0.645841)
(-0.698777 -0.122248 -0.674766)
(-0.597164 -0.0572404 -0.629374)
(-0.602663 -0.0541157 -0.618013)
(-0.642451 -0.0607775 -0.638829)
(-0.713412 -0.119652 -0.691096)
(-0.727756 -0.0923836 -0.67851)
(-0.61828 -0.0895334 -0.614514)
(-0.584595 -0.0636328 -0.615657)
(-0.620334 -0.0562944 -0.634037)
(-0.654971 -0.060279 -0.635254)
(-0.633455 -0.060013 -0.637256)
(-0.692017 -0.0765663 -0.641595)
(-0.744736 -0.110214 -0.67997)
(-0.646717 -0.0824246 -0.643561)
(-0.506623 -0.128689 -0.534714)
(-0.476094 -0.110287 -0.509268)
(-0.441644 -0.109013 -0.479023)
(-0.443484 -0.0945518 -0.473831)
(-0.503971 -0.0912644 -0.52306)
(-0.510967 -0.0802273 -0.531917)
(-0.43754 -0.0183565 -0.45787)
(-0.501633 -0.0585979 -0.509571)
(-0.476175 -0.0418567 -0.492004)
(-0.453192 -0.0936408 -0.486086)
(-0.450401 -0.090466 -0.473307)
(-0.501675 -0.065997 -0.52894)
(-0.436001 -0.0536113 -0.452168)
(-0.558455 -0.144762 -0.298151)
(-0.559248 -0.134163 -0.318)
(-0.472649 -0.11525 -0.258794)
(-0.546143 -0.134362 -0.303127)
(-0.583258 -0.153861 -0.303624)
(-0.553335 -0.152961 -0.282766)
(-0.549798 -0.133258 -0.297661)
(-0.497264 -0.111261 -0.269828)
(-0.470965 -0.112301 -0.262327)
(-0.410123 -0.102143 -0.217304)
(-0.415346 -0.108044 -0.215838)
(-0.391924 -0.115241 -0.194404)
(-0.498302 -0.152116 -0.23954)
(-0.487816 -0.138432 -0.234856)
(-0.45235 -0.1369 -0.216043)
(-0.412227 -0.121476 -0.204863)
(-0.694634 -0.376637 -0.394467)
(-0.677523 -0.358417 -0.341897)
(-0.730718 -0.288164 -0.398198)
(-0.731546 -0.354625 -0.414496)
(-0.770315 -0.354914 -0.469352)
(-0.942602 -0.247144 -0.654585)
(-0.940386 -0.235763 -0.638209)
(-0.922809 -0.239625 -0.614302)
(-0.908115 -0.240934 -0.60284)
(-0.945337 -0.257549 -0.641949)
(-0.914177 -0.248034 -0.601691)
(-0.858619 -0.228598 -0.541435)
(-0.87124 -0.276463 -0.530731)
(-0.94631 -0.25443 -0.632521)
(-0.93493 -0.246856 -0.637963)
(-0.945412 -0.264064 -0.603194)
(-0.905446 -0.275377 -0.557556)
(-0.853705 -0.260402 -0.510439)
(-0.946658 -0.254299 -0.623176)
(-0.953595 -0.2529 -0.647453)
(-0.920285 -0.257264 -0.579113)
(-0.896209 -0.279382 -0.535322)
(-0.842454 -0.279284 -0.483399)
(-0.329187 -0.0537258 -0.34344)
(-0.331658 -0.0567866 -0.363558)
(-0.328441 -0.0324632 -0.30642)
(-0.280387 -0.046958 -0.26581)
(-0.29415 -0.0425628 -0.28071)
(-0.281701 -0.0582247 -0.288776)
(-0.282755 -0.042983 -0.267831)
(-0.259819 -0.0543989 -0.25077)
(-0.269589 -0.0659059 -0.290114)
(-0.281816 -0.0638782 -0.311889)
(-0.276789 -0.0499855 -0.285117)
(-0.2624 -0.0521003 -0.266381)
(-0.278592 -0.0627532 -0.300876)
(-0.260118 -0.0608047 -0.264618)
(-0.311119 -0.0294998 -0.298396)
(-0.334236 -0.0376571 -0.348308)
(-0.292213 -0.0361695 -0.280415)
(-0.317792 -0.0514383 -0.343048)
(-0.290968 -0.0486443 -0.316205)
(-0.330334 -0.048115 -0.361943)
(-0.842131 -0.324888 -0.712662)
(-0.848743 -0.361969 -0.709207)
(-0.835933 -0.379064 -0.689484)
(-0.825532 -0.30943 -0.708627)
(-0.813276 -0.303239 -0.692932)
(-0.802676 -0.282483 -0.697118)
(-0.810615 -0.391479 -0.626758)
(-0.769103 -0.265804 -0.647796)
(-0.786557 -0.300952 -0.66029)
(-0.792633 -0.343144 -0.62342)
(-0.494283 -0.34824 -0.406795)
(-0.549626 -0.371638 -0.434934)
(-0.630276 -0.345278 -0.537348)
(-0.609559 -0.327425 -0.543778)
(-0.668898 -0.333902 -0.557754)
(-0.547592 -0.3796 -0.436139)
(-0.604468 -0.308275 -0.539091)
(-0.595343 -0.296398 -0.539689)
(-0.540572 -0.312569 -0.503989)
(-0.579583 -0.303603 -0.532226)
(-0.518789 -0.318735 -0.478263)
(-0.58384 -0.318621 -0.527302)
(-0.47155 -0.325954 -0.411256)
(-0.482253 -0.342367 -0.408921)
(-0.528152 -0.317666 -0.480492)
(-0.423435 0.0286101 -0.27792)
(-0.397971 0.0200079 -0.262574)
(-0.389149 0.0314036 -0.281467)
(-0.416623 0.0403427 -0.298083)
(-0.423672 -0.0809794 -0.308259)
(-0.424526 -0.0818977 -0.318756)
(-0.382854 -0.0837814 -0.275534)
(-0.409797 -0.0828105 -0.2797)
(-0.356661 -0.0823593 -0.253923)
(-0.37757 -0.0879202 -0.285119)
(-0.364934 -0.0832812 -0.260522)
(-0.436479 -0.0774051 -0.316895)
(-0.423923 -0.0753629 -0.311125)
(-0.385803 -0.0790155 -0.299553)
(-0.348787 -0.0843258 -0.268699)
(-0.453835 -0.0713918 -0.344352)
(-0.422591 -0.0761541 -0.334167)
(-0.387087 -0.079905 -0.307881)
(-0.363444 -0.087088 -0.288755)
(-0.715073 -0.311128 -0.547795)
(-0.678437 -0.320597 -0.515326)
(-0.721745 -0.291699 -0.583337)
(-0.708872 -0.302401 -0.582374)
(-0.695995 -0.312434 -0.556405)
(-0.724138 -0.289072 -0.610714)
(-0.723349 -0.300898 -0.648284)
(-0.719997 -0.297294 -0.567259)
(-0.709814 -0.318411 -0.555916)
(-0.754383 -0.246609 -0.673646)
(-0.763129 -0.244546 -0.668298)
(-0.764868 -0.225066 -0.646836)
(-0.73247 -0.312106 -0.65011)
(-0.68876 -0.322875 -0.580614)
(-0.725931 -0.310275 -0.662109)
(-0.74409 -0.293878 -0.681918)
(-0.776153 -0.251304 -0.649593)
(-0.755337 -0.232227 -0.723967)
(-0.716978 -0.321897 -0.619408)
(-0.615816 -0.151077 -0.311174)
(-0.578618 -0.134477 -0.279659)
(-0.641162 -0.139014 -0.341932)
(-0.586452 -0.129912 -0.29549)
(-0.554584 -0.0900357 -0.285681)
(-0.640184 -0.138096 -0.327346)
(-0.678781 -0.111043 -0.417453)
(-0.636528 -0.0884746 -0.380863)
(-0.601958 -0.103663 -0.311518)
(-0.539933 -0.0973866 -0.267862)
(-0.510721 -0.104777 -0.242429)
(-0.592107 -0.10799 -0.308583)
(-0.56065 -0.0909445 -0.291224)
(-0.57075 -0.132101 -0.278526)
(-0.525455 -0.126243 -0.247244)
(-0.675736 -0.112893 -0.391923)
(-0.641576 -0.0988488 -0.374703)
(-0.615314 -0.0776221 -0.376551)
(-0.511658 -0.0772411 -0.61251)
(-0.49505 -0.0832074 -0.597218)
(-0.432248 0.0419276 -0.563466)
(-0.47212 0.0374706 -0.609876)
(-0.546848 0.0262437 -0.660998)
(-0.549983 0.0269682 -0.662107)
(-0.54971 0.0154155 -0.667365)
(-0.598553 -0.0617795 -0.671809)
(-0.536002 -0.0869577 -0.630265)
(-0.574689 -0.0483338 -0.66392)
(-0.437381 0.0168892 -0.561833)
(-0.597134 0.0224139 -0.702555)
(-0.512943 0.0278062 -0.636514)
(-0.465383 0.00364169 -0.586499)
(-0.60106 -0.0129473 -0.687752)
(-0.529748 -0.0443728 -0.635244)
(-0.483915 -0.0316366 -0.600176)
(-0.359253 -0.151286 -0.404653)
(-0.296884 -0.145592 -0.336007)
(-0.274188 -0.132053 -0.304242)
(-0.292414 -0.133178 -0.315926)
(-0.398409 -0.173686 -0.450934)
(-0.324324 -0.184913 -0.366276)
(-0.344695 -0.150367 -0.382839)
(-0.279113 -0.128279 -0.292185)
(-0.24986 -0.125319 -0.266552)
(-0.315333 -0.185462 -0.344771)
(-0.358605 -0.134445 -0.396814)
(-0.342417 -0.138498 -0.378577)
(-0.378495 -0.15785 -0.421032)
(-0.382829 -0.163689 -0.4315)
(-0.259231 -0.145357 -0.26803)
(-0.332953 -0.198942 -0.373026)
(-0.37196 -0.172823 -0.41205)
(-0.291148 -0.134887 -0.314404)
(-0.372369 -0.174869 -0.413265)
(-0.397464 -0.187438 -0.439427)
(-0.294896 -0.178486 -0.325672)
(-0.300057 -0.171963 -0.33382)
(-0.628717 0.015131 -0.464583)
(-0.651064 -0.0162502 -0.434105)
(-0.639976 -0.0167962 -0.533914)
(-0.662861 -0.0455043 -0.485735)
(-0.640627 -0.0113104 -0.478272)
(-0.665991 -0.0436495 -0.505062)
(-0.645036 -0.0230465 -0.544951)
(-0.662536 -0.0466924 -0.453552)
(-0.655554 -0.0157212 -0.446604)
(-0.597906 0.0300371 -0.528265)
(-0.603375 0.025154 -0.428825)
(-0.656083 0.000938066 -0.460856)
(-0.679414 -0.0761671 -0.477109)
(-0.618067 0.0157388 -0.501464)
(-0.661712 -0.0514042 -0.424459)
(-0.62674 -0.00210312 -0.422187)
(-0.601661 0.0324979 -0.477457)
(-0.527692 -0.013596 -0.65832)
(-0.524228 -0.013624 -0.665854)
(-0.504481 0.0148195 -0.653989)
(-0.492179 -0.0231047 -0.626126)
(-0.465509 -0.0166055 -0.602158)
(-0.443687 0.0665207 -0.609341)
(-0.43209 0.0747633 -0.589492)
(-0.411032 0.0599215 -0.540778)
(-0.478024 0.00368513 -0.632203)
(-0.46141 0.00147156 -0.629912)
(-0.411071 0.0543883 -0.543634)
(-0.444049 0.0498269 -0.613616)
(-0.504079 0.0393628 -0.649976)
(-0.448579 0.0756701 -0.593209)
(-0.416051 0.0565505 -0.537895)
(-0.424715 0.0139038 -0.557159)
(-0.472154 -0.346855 -0.387893)
(-0.438712 -0.330439 -0.380019)
(-0.491716 -0.293124 -0.48014)
(-0.466659 -0.296039 -0.461529)
(-0.525571 -0.318009 -0.480487)
(-0.510303 -0.326937 -0.465069)
(-0.479049 -0.340514 -0.417551)
(-0.431051 -0.316791 -0.382146)
(-0.41386 -0.274708 -0.405458)
(-0.407104 -0.285879 -0.396069)
(-0.496594 -0.340014 -0.437351)
(-0.502179 -0.317492 -0.482105)
(-0.386298 -0.303582 -0.360363)
(-0.399083 -0.312141 -0.342536)
(-0.382219 -0.288907 -0.360168)
(-0.360503 -0.289768 -0.328163)
(-0.441103 -0.298348 -0.408499)
(-0.516188 0.0250175 -0.597216)
(-0.5337 0.0218505 -0.633181)
(-0.462747 0.0306697 -0.52735)
(-0.486504 0.0150592 -0.561576)
(-0.512947 0.00808583 -0.587635)
(-0.450951 0.0286775 -0.531804)
(-0.467994 0.0428984 -0.558669)
(-0.513288 0.0265783 -0.583928)
(-0.483712 0.0278957 -0.554856)
(-0.461975 0.0238874 -0.525284)
(-0.460903 0.0308549 -0.509564)
(-0.485906 0.0207878 -0.56528)
(-0.473712 0.0146602 -0.551231)
(-0.471456 0.0226819 -0.529967)
(-0.422763 0.0987984 -0.547774)
(-0.427523 0.10896 -0.582031)
(-0.453388 0.108864 -0.622994)
(-0.461847 0.0712222 -0.615083)
(-0.437789 0.0966033 -0.590338)
(-0.459766 0.105025 -0.61475)
(-0.506174 0.0799957 -0.673243)
(-0.504204 0.0643146 -0.656486)
(-0.456587 0.101927 -0.580677)
(-0.475253 0.0708227 -0.620987)
(-0.524208 0.0700197 -0.680404)
(-0.534651 0.042449 -0.679212)
(-0.80366 -0.189605 -0.645558)
(-0.776768 -0.154232 -0.638922)
(-0.64583 -0.0930394 -0.574797)
(-0.716466 -0.137145 -0.615974)
(-0.846856 -0.209698 -0.655477)
(-0.664173 -0.120081 -0.608548)
(-0.623322 -0.123162 -0.570023)
(-0.834962 -0.202188 -0.654802)
(-0.850209 -0.209736 -0.6487)
(-0.802838 -0.215142 -0.622757)
(-0.672498 -0.164973 -0.583101)
(-0.66325 -0.12173 -0.615309)
(-0.657345 -0.134757 -0.610574)
(-0.751247 -0.194795 -0.613071)
(-0.683442 -0.116535 -0.617882)
(-0.675307 -0.122728 -0.610888)
(-0.753257 -0.166468 -0.623478)
(-0.545362 0.100214 -0.69676)
(-0.529323 0.0678329 -0.668302)
(-0.525851 0.0691031 -0.668583)
(-0.486256 0.0586412 -0.61124)
(-0.4876 0.0871655 -0.597265)
(-0.461445 0.0754912 -0.586426)
(-0.449066 0.100925 -0.566382)
(-0.52839 0.107471 -0.66784)
(-0.524504 0.0763271 -0.65514)
(-0.523716 0.0611461 -0.656073)
(-0.545726 0.051337 -0.66057)
(-0.484573 0.116647 -0.62174)
(-0.49922 0.0940309 -0.641663)
(-0.477057 0.0735715 -0.597944)
(-0.440986 0.107665 -0.573914)
(-0.463034 0.108973 -0.598514)
(-0.466578 0.0949254 -0.593121)
(-0.605991 -0.0030691 -0.716143)
(-0.526732 0.0543688 -0.657755)
(-0.547435 0.0419755 -0.67395)
(-0.654755 0.0356515 -0.767107)
(-0.667252 -0.019154 -0.772481)
(-0.672259 0.00802309 -0.790589)
(-0.602587 0.00851882 -0.696153)
(-0.543954 0.0490041 -0.659994)
(-0.638928 0.0262743 -0.750291)
(-0.676294 0.0398164 -0.773913)
(-0.704875 -0.0479873 -0.808153)
(-0.739579 -0.0193141 -0.832006)
(-0.73148 -0.0480485 -0.819276)
(-0.737015 -0.00575192 -0.817752)
(-0.759154 -0.0272566 -0.830528)
(-0.720318 -0.00882693 -0.798073)
(-0.602794 0.0429579 -0.708869)
(-0.665417 -0.0380349 -0.768376)
(-0.710648 0.00739705 -0.791687)
(-0.519219 -0.113501 -0.308817)
(-0.640886 -0.183211 -0.344911)
(-0.631073 -0.18727 -0.326572)
(-0.555561 -0.114953 -0.35855)
(-0.587168 -0.122412 -0.369583)
(-0.67908 -0.183811 -0.400349)
(-0.65135 -0.18661 -0.371396)
(-0.631805 -0.148643 -0.39323)
(-0.600652 -0.226196 -0.58819)
(-0.566913 -0.185326 -0.572823)
(-0.480747 -0.257938 -0.499846)
(-0.606416 -0.211192 -0.595772)
(-0.621638 -0.205127 -0.600792)
(-0.552388 -0.274378 -0.536067)
(-0.616426 -0.283571 -0.565832)
(-0.538271 -0.279616 -0.512103)
(-0.47751 -0.282531 -0.476887)
(-0.522374 -0.233616 -0.538322)
(-0.533075 -0.248234 -0.541228)
(-0.572421 -0.291722 -0.530402)
(-0.563596 -0.292218 -0.522105)
(-0.494457 -0.296617 -0.470447)
(-0.810447 -0.170105 -0.662336)
(-0.873959 -0.208874 -0.666597)
(-0.865332 -0.281254 -0.614021)
(-0.857014 -0.244363 -0.645578)
(-0.81566 -0.214643 -0.636175)
(-0.810286 -0.185416 -0.654719)
(-0.917789 -0.255075 -0.615131)
(-0.889046 -0.298888 -0.571094)
(-0.855856 -0.191565 -0.67322)
(-0.904211 -0.230796 -0.642638)
(-0.891818 -0.25981 -0.63129)
(-0.88354 -0.282765 -0.623748)
(-0.850939 -0.281861 -0.617274)
(-0.933883 -0.224385 -0.668697)
(-0.885422 -0.280722 -0.587821)
(-0.886783 -0.255484 -0.631798)
(-0.882104 -0.288521 -0.603321)
(-0.835868 -0.205095 -0.659972)
(-0.650844 -0.0652726 -0.70865)
(-0.683481 -0.0728737 -0.743736)
(-0.622224 -0.0366342 -0.711612)
(-0.67263 -0.0809643 -0.728811)
(-0.724243 -0.0925539 -0.811432)
(-0.654347 -0.0600157 -0.736136)
(-0.59105 -0.00125722 -0.692063)
(-0.678261 -0.0469202 -0.773537)
(-0.688651 -0.0602696 -0.784749)
(-0.680549 -0.0369907 -0.766637)
(-0.766021 -0.150842 -0.657691)
(-0.800347 -0.180412 -0.681174)
(-0.803119 -0.168624 -0.665059)
(-0.851304 -0.190506 -0.706357)
(-0.825706 -0.192355 -0.708927)
(-0.822231 -0.184958 -0.703453)
(-0.72216 -0.146352 -0.654863)
(-0.848014 -0.200572 -0.699899)
(-0.727093 -0.126444 -0.637436)
(-0.676527 -0.105289 -0.631209)
(-0.756397 -0.152541 -0.648795)
(-0.814606 -0.167694 -0.687606)
(-0.76734 -0.159302 -0.664185)
(-0.76219 -0.150476 -0.705545)
(-0.705563 -0.110158 -0.629217)
(-0.716489 -0.11646 -0.61259)
(-0.731569 -0.146958 -0.661882)
(-0.558679 0.00687418 -0.517054)
(-0.623561 -0.0263951 -0.495061)
(-0.626025 -0.0288254 -0.520059)
(-0.563271 -0.00902954 -0.538151)
(-0.653271 -0.0681647 -0.494457)
(-0.691653 -0.0886772 -0.520343)
(-0.569334 -0.046733 -0.598952)
(-0.6806 -0.079718 -0.55592)
(-0.570469 -0.0334245 -0.589343)
(-0.700343 -0.110534 -0.628516)
(-0.71006 -0.124608 -0.542942)
(-0.7109 -0.142669 -0.549435)
(-0.725904 -0.152855 -0.585441)
(-0.724804 -0.157983 -0.599162)
(-0.629241 -0.0764111 -0.631083)
(-0.717259 -0.145084 -0.593022)
(-0.694567 -0.0929319 -0.620133)
(-0.456128 -0.259349 -0.457248)
(-0.491083 -0.217562 -0.497427)
(-0.479394 -0.198239 -0.49269)
(-0.416176 -0.240719 -0.425293)
(-0.373651 -0.218526 -0.391627)
(-0.464302 -0.189995 -0.480861)
(-0.42006 -0.21093 -0.433124)
(-0.363323 -0.176097 -0.374055)
(-0.36002 -0.182405 -0.369266)
(-0.423133 -0.16809 -0.44587)
(-0.408022 -0.151879 -0.429114)
(-0.373049 -0.165704 -0.383643)
(-0.354549 -0.169428 -0.37152)
(-0.377537 -0.195417 -0.392579)
(-0.390877 -0.192281 -0.4179)
(-0.542055 -0.236332 -0.53652)
(-0.573236 -0.235746 -0.555865)
(-0.47584 -0.27545 -0.483422)
(-0.474737 -0.252321 -0.482958)
(-0.514723 -0.195748 -0.522446)
(-0.576191 -0.233307 -0.548808)
(-0.583219 -0.236896 -0.556147)
(-0.556547 -0.30073 -0.509047)
(-0.466017 -0.233902 -0.492675)
(-0.492828 -0.262446 -0.504038)
(-0.51337 -0.31213 -0.496287)
(-0.800309 -0.0637175 -0.733943)
(-0.775828 -0.0977426 -0.723092)
(-0.706745 -0.118373 -0.674084)
(-0.706989 -0.135069 -0.68399)
(-0.77352 0.0428506 -0.799851)
(-0.801008 -0.00922725 -0.7896)
(-0.681592 -0.0318076 -0.740711)
(-0.708002 -0.0709157 -0.721019)
(-0.775782 -0.028414 -0.764521)
(-0.671554 -0.0923893 -0.694344)
(-0.713357 -0.100721 -0.707631)
(-0.734366 0.0194029 -0.788632)
(-0.777544 0.0314368 -0.80506)
(-0.721324 -0.0260657 -0.744883)
(-0.687858 0.0166422 -0.768937)
(-0.648512 -0.0487529 -0.714655)
(-0.704296 -0.108981 -0.689193)
(-0.691611 0.0376785 -0.782482)
(-0.698061 0.0333042 -0.780517)
(-0.684493 -0.0110022 -0.752925)
(-0.650172 -0.00109374 -0.743859)
(-0.62412 -0.285168 -0.561408)
(-0.602141 -0.276893 -0.542939)
(-0.63009 -0.327494 -0.539081)
(-0.59161 -0.275645 -0.544547)
(-0.547885 -0.254677 -0.521494)
(-0.605603 -0.3337 -0.517682)
(-0.580561 -0.3163 -0.52632)
(-0.574779 -0.351897 -0.49407)
(-0.542429 -0.363108 -0.449519)
(-0.51283 -0.364613 -0.437942)
(-0.562769 -0.31073 -0.510756)
(-0.481911 -0.312152 -0.467556)
(-0.449806 -0.322793 -0.407977)
(-0.590656 -0.206305 -0.263794)
(-0.600099 -0.193224 -0.28344)
(-0.60932 -0.234882 -0.28794)
(-0.573447 -0.228886 -0.255178)
(-0.664735 -0.208919 -0.367489)
(-0.61751 -0.209295 -0.287028)
(-0.602758 -0.241165 -0.289288)
(-0.583298 -0.246509 -0.270001)
(-0.648836 -0.258644 -0.334022)
(-0.687631 -0.271164 -0.360091)
(-0.661758 -0.272622 -0.34014)
(-0.625718 -0.259906 -0.310987)
(-0.676182 -0.19253 -0.387782)
(-0.600031 -0.246458 -0.288977)
(-0.738299 -0.226709 -0.447475)
(-0.724287 -0.245586 -0.434145)
(-0.660219 -0.280612 -0.323734)
(-0.653816 -0.260332 -0.325442)
(-0.733706 -0.223924 -0.455219)
(-0.713837 -0.256063 -0.431301)
(-0.711768 -0.252478 -0.414954)
(-0.73718 -0.213615 -0.449287)
(-0.681348 -0.275352 -0.358684)
(-0.690422 -0.0440306 -0.710523)
(-0.732317 -0.056789 -0.744342)
(-0.611766 -0.0249416 -0.681298)
(-0.602003 -0.0392816 -0.682174)
(-0.712258 -0.0384242 -0.75817)
(-0.618698 -0.00118893 -0.681604)
(-0.603559 -0.00712322 -0.673928)
(-0.666318 -0.0233432 -0.69059)
(-0.763597 -0.0467419 -0.757328)
(-0.5619 0.0153051 -0.640378)
(-0.551127 0.0373105 -0.619093)
(-0.624216 -0.00815825 -0.664503)
(-0.580087 0.0163129 -0.63422)
(-0.738485 -0.0103365 -0.764064)
(-0.616801 -0.000139104 -0.657609)
(-0.683385 -0.00833165 -0.703219)
(-0.470048 -0.219728 -0.507389)
(-0.523356 -0.224946 -0.556501)
(-0.456178 -0.254897 -0.476863)
(-0.405845 -0.231003 -0.451973)
(-0.465224 -0.166928 -0.537227)
(-0.429615 -0.18644 -0.495976)
(-0.410281 -0.21872 -0.451018)
(-0.419778 -0.217172 -0.465848)
(-0.472046 -0.176125 -0.531443)
(-0.553206 -0.14921 -0.610842)
(-0.540597 -0.146409 -0.610648)
(-0.552927 -0.214173 -0.587053)
(-0.4692 -0.250986 -0.484442)
(-0.475723 -0.184713 -0.531379)
(-0.54358 -0.224633 -0.572195)
(-0.519724 -0.206144 -0.57597)
(-0.59105 -0.0686147 -0.375965)
(-0.590073 -0.0414212 -0.392308)
(-0.57675 -0.0484012 -0.368284)
(-0.568302 -0.0270344 -0.38933)
(-0.636632 -0.0674333 -0.403994)
(-0.660323 -0.0779438 -0.42496)
(-0.598927 -0.0421306 -0.394135)
(-0.556384 -0.0167849 -0.392193)
(-0.636226 -0.0520529 -0.507053)
(-0.628822 -0.0408698 -0.4292)
(-0.547391 0.00626156 -0.453856)
(-0.597533 -0.00826388 -0.451336)
(-0.561266 -0.00241992 -0.43784)
(-0.792576 -0.134517 -0.770663)
(-0.798717 -0.137209 -0.761794)
(-0.775833 -0.167425 -0.765425)
(-0.772356 -0.14526 -0.756684)
(-0.827991 -0.122825 -0.801394)
(-0.829612 -0.115783 -0.817372)
(-0.784082 -0.140607 -0.737156)
(-0.752724 -0.154211 -0.704342)
(-0.76693 -0.168384 -0.754069)
(-0.744695 -0.155244 -0.721981)
(-0.80401 -0.157455 -0.807312)
(-0.80782 -0.149158 -0.748982)
(-0.782127 -0.153585 -0.72708)
(-0.825391 -0.135185 -0.809171)
(-0.847743 -0.130724 -0.790061)
(-0.772911 -0.162168 -0.742345)
(-0.82689 -0.122939 -0.827441)
(-0.81512 -0.119955 -0.822915)
(-0.80314 -0.152221 -0.827357)
(-0.796408 -0.154337 -0.811386)
(-0.804541 -0.102091 -0.82745)
(-0.80881 -0.0954134 -0.837271)
(-0.796252 -0.160525 -0.815534)
(-0.786358 -0.170227 -0.805142)
(-0.801105 -0.130312 -0.826855)
(-0.791732 -0.135909 -0.814238)
(-0.791382 -0.0988375 -0.829128)
(-0.784733 -0.14054 -0.812994)
(-0.791213 -0.168227 -0.826876)
(-0.804926 -0.15209 -0.830507)
(-0.752053 -0.0523129 -0.78885)
(-0.757735 -0.0735213 -0.796043)
(-0.755827 -0.0931649 -0.796319)
(-0.757182 -0.0925637 -0.79915)
(-0.801433 -0.134184 -0.840616)
(-0.76593 -0.0945714 -0.798984)
(-0.424674 0.0115005 -0.4832)
(-0.435781 0.043597 -0.468555)
(-0.442186 0.0218315 -0.497163)
(-0.418587 0.0116858 -0.427914)
(-0.4528 0.0158776 -0.410109)
(-0.439648 0.0174408 -0.416325)
(-0.462177 0.0387791 -0.507498)
(-0.474575 0.0209099 -0.522766)
(-0.476681 0.0286468 -0.512262)
(-0.421316 0.0297748 -0.467896)
(-0.498154 0.0139991 -0.455748)
(-0.478553 0.01449 -0.437585)
(-0.49404 0.0186631 -0.51253)
(-0.450247 0.0192478 -0.464753)
(-0.45841 -0.135475 -0.528429)
(-0.485762 -0.142832 -0.534795)
(-0.438558 -0.169298 -0.514627)
(-0.500394 -0.25389 -0.514933)
(-0.484105 -0.127374 -0.550449)
(-0.478232 -0.109647 -0.539627)
(-0.476566 -0.208192 -0.530496)
(-0.515144 -0.22164 -0.549534)
(-0.39458 -0.200354 -0.439794)
(-0.421265 -0.178505 -0.505793)
(-0.410715 -0.0929281 -0.47437)
(-0.458783 -0.11004 -0.520416)
(-0.424291 -0.181981 -0.470255)
(-0.396486 -0.175669 -0.443881)
(-0.405809 -0.190456 -0.460483)
(-0.430476 -0.133482 -0.486994)
(-0.387543 -0.142505 -0.454948)
(-0.404055 -0.168655 -0.470744)
(-0.386158 -0.146949 -0.440739)
(-0.371533 -0.165353 -0.423119)
(-0.687868 -0.0672616 -0.561778)
(-0.709852 -0.0798392 -0.56453)
(-0.642503 -0.0147446 -0.545542)
(-0.691482 -0.0514938 -0.580004)
(-0.718421 -0.0876646 -0.62653)
(-0.621708 0.00500158 -0.607552)
(-0.522683 -0.029835 -0.524544)
(-0.512958 -0.0103328 -0.543566)
(-0.465248 0.0121744 -0.514593)
(-0.498053 0.0120656 -0.562893)
(-0.477868 0.014848 -0.529424)
(-0.448742 0.0110253 -0.490145)
(-0.476821 0.000119617 -0.519433)
(-0.472084 0.0255988 -0.516163)
(-0.497334 -0.000702119 -0.54982)
(-0.506874 -0.0151066 -0.493232)
(-0.565265 -0.0318315 -0.529492)
(-0.454148 0.02336 -0.471727)
(-0.483296 0.00770023 -0.53635)
(-0.461206 0.000260183 -0.460654)
(-0.439804 0.0012527 -0.463272)
(-0.456362 0.00225342 -0.472185)
(-0.525801 -0.0126118 -0.548345)
(-0.540258 -0.00919438 -0.5008)
(-0.473994 0.00138385 -0.463673)
(-0.875982 -0.0793518 -0.779933)
(-0.825497 -0.058877 -0.786563)
(-0.778335 -0.050882 -0.756623)
(-0.813351 -0.0348351 -0.793885)
(-0.846177 -0.0614588 -0.784833)
(-0.894677 -0.0541822 -0.795783)
(-0.904936 -0.0724597 -0.774281)
(-0.838498 -0.0268728 -0.815095)
(-0.854522 -0.0314236 -0.802646)
(-0.897724 -0.0895639 -0.692031)
(-0.880922 -0.0930238 -0.690671)
(-0.88249 -0.0718921 -0.73073)
(-0.887559 -0.0865494 -0.727366)
(-0.905093 -0.033271 -0.814022)
(-0.862184 -0.0804186 -0.776533)
(-0.908305 -0.0795878 -0.747182)
(-0.89468 -0.0969619 -0.716219)
(-0.840009 -0.189384 -0.743571)
(-0.851951 -0.161629 -0.727097)
(-0.873794 -0.180157 -0.719665)
(-0.895012 -0.175634 -0.796624)
(-0.894561 -0.150828 -0.778673)
(-0.865672 -0.187295 -0.739872)
(-0.801521 -0.186083 -0.650176)
(-0.862151 -0.165754 -0.687708)
(-0.827328 -0.171164 -0.652547)
(-0.848207 -0.163838 -0.67977)
(-0.886427 -0.172607 -0.704899)
(-0.906481 -0.159665 -0.776763)
(-0.896732 -0.189308 -0.768648)
(-0.298792 -0.0770227 -0.313475)
(-0.294438 -0.0715139 -0.291931)
(-0.344916 -0.069061 -0.364463)
(-0.329855 -0.0712269 -0.335621)
(-0.346706 -0.0429604 -0.328267)
(-0.353094 -0.0415853 -0.351924)
(-0.275414 -0.0635881 -0.258288)
(-0.328709 -0.0498923 -0.307735)
(-0.278278 -0.0699125 -0.286026)
(-0.260578 -0.0700865 -0.250075)
(-0.272888 -0.0582122 -0.256207)
(-0.262023 -0.0601593 -0.239234)
(-0.336972 -0.0551635 -0.347034)
(-0.339553 -0.0436618 -0.333727)
(-0.293023 -0.0566547 -0.262573)
(-0.295738 -0.062484 -0.301322)
(-0.287873 -0.0552792 -0.259125)
(-0.298636 -0.0482687 -0.269549)
(-0.325059 -0.06918 -0.338223)
(-0.689562 -0.14209 -0.766745)
(-0.673211 -0.148827 -0.746765)
(-0.709921 -0.130927 -0.781889)
(-0.763495 -0.0996469 -0.8301)
(-0.752806 -0.102284 -0.829907)
(-0.697222 -0.141008 -0.765694)
(-0.722046 -0.12777 -0.781069)
(-0.767197 -0.0824923 -0.853924)
(-0.767597 -0.0672322 -0.853038)
(-0.708091 -0.105637 -0.80351)
(-0.689199 -0.11907 -0.777257)
(-0.721102 -0.0933554 -0.79901)
(-0.695214 -0.111565 -0.767074)
(-0.75922 -0.0731821 -0.838605)
(-0.767716 -0.0837074 -0.848432)
(-0.735652 -0.0833217 -0.81893)
(-0.748065 -0.0914283 -0.80515)
(-0.720407 -0.111325 -0.776529)
(-0.565594 -0.0427764 -0.35512)
(-0.63052 -0.0575212 -0.399367)
(-0.515096 -0.0878511 -0.259963)
(-0.498236 -0.0930406 -0.24343)
(-0.562619 -0.110808 -0.281226)
(-0.578911 -0.0957921 -0.312279)
(-0.546969 -0.0816788 -0.308459)
(-0.505486 -0.059169 -0.280426)
(-0.504725 -0.0812439 -0.259554)
(-0.502467 -0.0571856 -0.281916)
(-0.601584 -0.0115281 -0.694779)
(-0.582933 -0.01738 -0.652587)
(-0.540931 0.0246222 -0.647544)
(-0.508511 0.0358875 -0.620575)
(-0.573067 -0.0309305 -0.646316)
(-0.603289 0.0112693 -0.720043)
(-0.545338 0.015632 -0.63212)
(-0.496126 0.034967 -0.617626)
(-0.491828 0.0737392 -0.615836)
(-0.5145 0.0198147 -0.602584)
(-0.503183 0.0385203 -0.581385)
(-0.500901 0.0385167 -0.591513)
(-0.574358 -0.132756 -0.572828)
(-0.683478 -0.145311 -0.620875)
(-0.575025 -0.182483 -0.581033)
(-0.642417 -0.220783 -0.594085)
(-0.650247 -0.184403 -0.610758)
(-0.628354 -0.127565 -0.598479)
(-0.528382 -0.0926259 -0.549788)
(-0.625656 -0.234451 -0.585946)
(-0.694524 -0.227789 -0.618485)
(-0.59383 -0.121076 -0.578414)
(-0.514557 -0.127414 -0.542567)
(-0.572834 -0.197125 -0.566998)
(-0.558247 -0.222682 -0.553023)
(-0.628997 -0.230665 -0.578315)
(-0.640405 -0.198152 -0.594462)
(-0.539924 -0.183525 -0.560672)
(-0.544625 -0.18199 -0.55888)
(-0.607548 -0.238584 -0.579173)
(-0.635236 -0.259923 -0.572377)
(-0.786644 -0.177199 -0.690699)
(-0.805962 -0.177253 -0.700102)
(-0.707456 -0.317128 -0.667725)