/*--------------------------------*- C++ -*----------------------------------*\
| =========                 |                                                 |
| \\      /  F ield         | OpenFOAM: The Open Source CFD Toolbox           |
|  \\    /   O peration     | Version:  v1612+                                |
|   \\  /    A nd           | Web:      www.OpenFOAM.com                      |
|    \\/     M anipulation  |                                                 |
\*---------------------------------------------------------------------------*/
FoamFile
{
    version     2.0;
    format      ascii;
    class       volVectorField;
    location    "50";
    object      U;
}
// * * * * * * * * * * * * * * * * * * * * * * * * * * * * * * * * * * * * * //

dimensions      [0 1 -1 0 0 0 0];

internalField   nonuniform List<vector> 
17059
(
(-0.128947 0.278406 0.285392)
(-0.677337 0.764824 0.52333)
(-0.689156 0.645257 0.620264)
(-0.657832 0.586418 0.662156)
(-0.625715 0.70948 0.605335)
(-0.621491 0.607079 0.685166)
(-0.635617 0.730643 0.531491)
(-0.659166 0.711703 0.583649)
(-0.696813 0.584631 0.65832)
(-0.681378 0.635226 0.60585)
(-0.66683 0.581018 0.644277)
(-0.611052 0.673497 0.64972)
(-0.607294 0.564594 0.694852)
(-0.61694 0.590598 0.699312)
(-0.636101 0.719333 0.58739)
(-0.627855 0.685446 0.643462)
(-0.604259 0.534982 0.713956)
(-0.587995 0.526806 0.707101)
(-0.657749 0.595979 0.668277)
(-0.673473 0.655883 0.629587)
(-0.613613 0.60344 0.681771)
(-0.663893 0.610158 0.636736)
(-0.659688 0.571725 0.659184)
(-0.64587 0.537992 0.684658)
(-0.604121 0.360213 0.603038)
(-0.608198 0.289876 0.594802)
(-0.59029 0.426181 0.659637)
(-0.61477 0.402283 0.639514)
(-0.622072 0.40021 0.606061)
(-0.580463 0.365729 0.62067)
(-0.563401 0.296668 0.647777)
(-0.626518 0.392077 0.594558)
(-0.517707 0.35327 0.736304)
(-0.533297 0.3562 0.72558)
(-0.579539 0.266748 0.608011)
(-0.600405 0.29564 0.6102)
(-0.519986 0.346894 0.725501)
(-0.585574 0.283502 0.62701)
(-0.540652 0.246146 0.596924)
(-0.52245 0.300704 0.702386)
(-0.590045 0.299775 0.649514)
(-0.538409 0.296711 0.6815)
(-0.522229 0.284005 0.677345)
(-0.517563 0.264408 0.637151)
(-0.636 0.69241 0.592563)
(-0.640729 0.70957 0.594584)
(-0.596073 0.724339 0.593515)
(-0.579165 0.703945 0.595153)
(-0.629031 0.692599 0.590881)
(-0.610874 0.665013 0.588393)
(-0.622474 0.766476 0.545371)
(-0.655824 0.767996 0.589654)
(-0.628236 0.721852 0.597789)
(-0.595099 0.792563 0.549374)
(-0.628228 0.721224 0.591849)
(-0.579728 0.690694 0.584036)
(-0.610352 0.744094 0.591549)
(-0.597192 0.756552 0.597037)
(-0.595419 0.740796 0.585183)
(-0.524689 0.48796 0.694605)
(-0.592866 0.639064 0.691898)
(-0.594249 0.623543 0.691195)
(-0.607891 0.621657 0.677793)
(-0.606917 0.614085 0.689685)
(-0.542066 0.491695 0.678302)
(-0.592599 0.604128 0.686271)
(-0.57697 0.570244 0.681779)
(-0.623635 0.626773 0.714846)
(-0.591236 0.629651 0.715812)
(-0.600807 0.67369 0.716639)
(-0.544252 0.542354 0.720526)
(-0.564996 0.586628 0.728737)
(-0.124878 0.434545 0.286857)
(-0.10597 0.303627 0.227111)
(-0.0865853 0.362065 0.284625)
(-0.119747 0.390528 0.263911)
(-0.140996 0.523612 0.354759)
(-0.140713 0.517229 0.329747)
(-0.158693 0.592295 0.394378)
(-0.0750552 0.314223 0.289284)
(-0.0740876 0.24592 0.228976)
(-0.0922097 0.429517 0.35791)
(-0.131427 0.514514 0.412936)
(-0.0867857 0.262961 0.23759)
(-0.0874118 0.310631 0.272462)
(-0.0789031 0.287441 0.252465)
(-0.0881785 0.34974 0.30764)
(-0.144063 0.531518 0.388302)
(-0.129346 0.335355 0.250179)
(-0.133605 0.379709 0.297634)
(-0.299733 0.686435 0.141973)
(-0.31539 0.654438 0.133457)
(-0.322754 0.675063 0.159091)
(-0.303391 0.692104 0.151032)
(-0.327515 0.652552 0.136957)
(-0.305862 0.66917 0.149581)
(-0.306313 0.644036 0.189095)
(-0.311834 0.642572 0.198165)
(-0.323114 0.660951 0.121048)
(-0.287259 0.668968 0.0982424)
(-0.375363 0.639298 0.170069)
(-0.331611 0.641483 0.134344)
(-0.296499 0.688798 0.137378)
(-0.312299 0.650939 0.176489)
(-0.30599 0.67234 0.112642)
(-0.286602 0.671181 0.125868)
(-0.325811 0.611211 0.129594)
(-0.290676 0.669953 0.102857)
(-0.473516 0.754969 0.303107)
(-0.576885 0.743025 0.502942)
(-0.552326 0.736868 0.46329)
(-0.414542 0.728681 0.296343)
(-0.470166 0.72896 0.355391)
(-0.532353 0.685552 0.46717)
(-0.550078 0.7197 0.469991)
(-0.395501 0.652441 0.323711)
(-0.550296 0.466516 0.73875)
(-0.517476 0.434039 0.740728)
(-0.533746 0.428936 0.712921)
(-0.467587 0.415047 0.734965)
(-0.503617 0.392689 0.710759)
(-0.474292 0.466584 0.728266)
(-0.441061 0.4095 0.733048)
(-0.528768 0.486144 0.748232)
(-0.486828 0.493604 0.727655)
(-0.465992 0.401553 0.737136)
(-0.45991 0.349299 0.718923)
(-0.436188 0.396141 0.737761)
(-0.456856 0.460899 0.72497)
(-0.463454 0.376066 0.7325)
(-0.587646 0.684002 0.608299)
(-0.559277 0.739976 0.58989)
(-0.618118 0.630454 0.604676)
(-0.580574 0.689358 0.580604)
(-0.506617 0.719599 0.634242)
(-0.501846 0.683025 0.678466)
(-0.530409 0.705297 0.650824)
(-0.57492 0.603866 0.70879)
(-0.599643 0.594453 0.6886)
(-0.514216 0.617402 0.732026)
(-0.504041 0.60316 0.739607)
(-0.558616 0.662123 0.660922)
(-0.558034 0.721879 0.579293)
(-0.596521 0.555752 0.705991)
(-0.526406 0.554003 0.74933)
(-0.491404 0.654703 0.742272)
(-0.496311 0.652043 0.730951)
(-0.497335 0.726176 0.663915)
(-0.499013 0.636371 0.742718)
(-0.485203 0.675981 0.718684)
(-0.563818 0.57716 0.730765)
(-0.51882 0.596785 0.740289)
(-0.646877 0.758175 0.533916)
(-0.644743 0.780892 0.502042)
(-0.686389 0.759877 0.542554)
(-0.531043 0.738145 0.502675)
(-0.571208 0.727736 0.573676)
(-0.64273 0.756578 0.561744)
(-0.662663 0.68908 0.638145)
(-0.633344 0.555068 0.686315)
(-0.620539 0.597732 0.686162)
(-0.631972 0.567979 0.709603)
(-0.673671 0.616797 0.657996)
(-0.577643 0.722416 0.608159)
(-0.594046 0.658569 0.690654)
(-0.356532 0.643349 0.272593)
(-0.489114 0.744162 0.413114)
(-0.390981 0.687833 0.272452)
(-0.302741 0.664096 0.164814)
(-0.442798 0.730551 0.404868)
(-0.509478 0.772471 0.506662)
(-0.523193 0.755202 0.488281)
(-0.450821 0.696753 0.386252)
(-0.395835 0.686149 0.337371)
(-0.392194 0.682851 0.298274)
(-0.531594 0.782019 0.485934)
(-0.331606 0.649321 0.199489)
(-0.348353 0.6727 0.254885)
(-0.32808 0.690632 0.231522)
(-0.369302 0.692676 0.230286)
(-0.393565 0.687074 0.311765)
(-0.389776 0.64474 0.291662)
(-0.332008 0.619646 0.162648)
(-0.346109 0.567129 0.196132)
(-0.383145 0.557044 0.266127)
(-0.44256 0.600437 0.358427)
(-0.360677 0.5856 0.195512)
(-0.42203 0.601869 0.347207)
(-0.311309 0.641301 0.0736118)
(-0.306178 0.632718 0.150177)
(-0.285399 0.649016 0.140278)
(-0.285301 0.663265 0.149005)
(-0.300056 0.653946 0.105093)
(-0.326803 0.702389 0.246659)
(-0.293242 0.634585 0.0503605)
(-0.365996 0.677346 0.186772)
(-0.289872 0.615992 0.0956524)
(-0.301893 0.707351 0.145394)
(-0.37297 0.70532 0.20021)
(-0.372622 0.711776 0.288499)
(-0.457616 0.726392 0.236177)
(-0.437521 0.675947 0.126457)
(-0.29528 0.605638 0.0342883)
(-0.323514 0.661908 0.127763)
(-0.389166 0.710123 0.367317)
(-0.448512 0.732432 0.32206)
(-0.468905 0.721446 0.220277)
(-0.31457 0.740777 0.296426)
(-0.295332 0.688623 0.325287)
(-0.266188 0.695126 0.179906)
(-0.273649 0.734931 0.133894)
(-0.229039 0.590995 -0.00528074)
(-0.240457 0.583618 0.0226636)
(-0.25736 0.60264 0.0666272)
(-0.249664 0.636563 0.21516)
(-0.228178 0.628574 0.220995)
(-0.247076 0.581057 0.0208589)
(-0.229758 0.586191 0.084331)
(-0.28733 0.560625 0.0619732)
(-0.292769 0.563469 0.102379)
(-0.214734 0.568284 0.185183)
(-0.432789 0.649559 0.72722)
(-0.411528 0.641828 0.757698)
(-0.410709 0.664973 0.727055)
(-0.434244 0.681048 0.698065)
(-0.415509 0.656779 0.717941)
(-0.374784 0.616756 0.735446)
(-0.378085 0.592024 0.757201)
(-0.428046 0.686547 0.693457)
(-0.426928 0.61138 0.751477)
(-0.411745 0.619157 0.737226)
(-0.359392 0.806421 0.56483)
(-0.324785 0.776524 0.606409)
(-0.313919 0.666297 0.718992)
(-0.342337 0.633022 0.725213)
(-0.321485 0.609986 0.71556)
(-0.306123 0.578537 0.723066)
(-0.297035 0.633847 0.729399)
(-0.313113 0.623608 0.711065)
(-0.419033 0.741884 0.660642)
(-0.464251 0.76417 0.60522)
(-0.43243 0.744356 0.670972)
(-0.289783 0.669276 0.706491)
(-0.302787 0.765917 0.627125)
(-0.561994 0.84184 0.157211)
(-0.522111 0.834814 0.146198)
(-0.547401 0.849164 0.100583)
(-0.489102 0.859509 -0.00684209)
(-0.574107 0.842725 0.252567)
(-0.567272 0.872086 0.181224)
(-0.575392 0.857569 0.0623782)
(-0.60877 0.824108 0.223063)
(-0.561003 0.838362 0.119252)
(-0.596851 0.82958 0.185716)
(-0.572939 0.825048 0.154833)
(-0.612029 0.844272 0.277164)
(-0.552562 0.843394 0.0781684)
(-0.511694 0.807374 0.022801)
(-0.593588 0.874628 0.066139)
(-0.61093 0.824707 0.263151)
(-0.620441 0.82878 0.253789)
(-0.568878 0.533312 0.667334)
(-0.602702 0.50395 0.655479)
(-0.574231 0.482149 0.748237)
(-0.587689 0.499963 0.713926)
(-0.64746 0.404022 0.609499)
(-0.637602 0.457355 0.625725)
(-0.572342 0.49517 0.716606)
(-0.520778 0.38145 0.74927)
(-0.598364 0.310141 0.632006)
(-0.539337 0.285926 0.665414)
(-0.621248 0.323355 0.650112)
(-0.564229 0.314712 0.705042)
(-0.571276 0.410045 0.754115)
(-0.523473 0.358937 0.738591)
(-0.682886 0.623 0.619607)
(-0.679867 0.577527 0.637386)
(-0.693497 0.635706 0.637396)
(-0.673064 0.567033 0.665218)
(-0.662274 0.544734 0.66002)
(-0.670211 0.713783 0.601628)
(-0.687197 0.733156 0.591281)
(-0.679387 0.564161 0.64674)
(-0.690134 0.643658 0.613211)
(-0.634126 0.685335 0.554666)
(-0.655764 0.711401 0.588436)
(-0.677113 0.69886 0.61584)
(-0.652117 0.551559 0.677725)
(-0.665429 0.670851 0.633397)
(-0.650193 0.662749 0.651715)
(-0.647026 0.524433 0.68667)
(-0.638514 0.510923 0.674151)
(-0.661072 0.64454 0.656628)
(-0.672392 0.618494 0.675699)
(-0.659163 0.556611 0.690164)
(-0.656224 0.546453 0.679482)
(-0.634793 0.643645 0.654255)
(-0.630993 0.725237 0.603107)
(-0.586739 0.785635 0.516987)
(-0.613555 0.744398 0.577479)
(-0.589599 0.757379 0.572041)
(-0.611413 0.770111 0.537414)
(-0.517264 0.727947 0.433113)
(-0.581912 0.734538 0.614055)
(-0.569222 0.779801 0.513858)
(-0.563514 0.757503 0.605856)
(-0.548077 0.681059 0.592981)
(-0.573021 0.800219 0.581656)
(-0.578554 0.772074 0.609181)
(-0.576643 0.835639 0.628641)
(-0.43907 0.848299 0.542126)
(-0.408714 0.901392 0.379975)
(-0.417994 0.878826 0.459023)
(-0.412292 0.89366 0.386742)
(-0.403591 0.84473 0.541719)
(-0.363183 0.85865 0.478259)
(-0.371619 0.880853 0.461959)
(-0.373563 0.910879 0.444917)
(-0.365827 0.936021 0.364619)
(-0.301077 0.900221 0.420685)
(-0.346099 0.881752 0.451413)
(-0.383921 0.885984 0.387507)
(-0.328381 0.829086 0.539445)
(-0.338088 0.800198 0.588502)
(-0.358283 0.849164 0.520619)
(-0.318879 0.934106 0.327005)
(-0.289181 0.87066 0.485031)
(-0.312006 0.85518 0.528593)
(-0.319494 0.895976 0.368628)
(-0.302134 0.871663 0.461885)
(-0.336157 0.465803 0.102162)
(-0.316942 0.461391 0.0875454)
(-0.421955 0.398199 0.178854)
(-0.430163 0.432202 0.190105)
(-0.275036 0.392274 0.119199)
(-0.29114 0.499004 0.101007)
(-0.333757 0.316277 0.183694)
(-0.365816 0.317362 0.176703)
(-0.39274 0.393284 0.171133)
(-0.187915 0.41061 0.176352)
(-0.21756 0.387662 0.113766)
(-0.198067 0.277679 0.144518)
(-0.143306 0.324758 0.198851)
(-0.254156 0.262218 0.179832)
(-0.240863 0.237829 0.17075)
(-0.278243 0.441679 0.158162)
(-0.194394 0.488725 0.206377)
(-0.20263 0.292564 0.176869)
(-0.202787 0.413518 0.194033)
(-0.360702 0.535052 0.0821853)
(-0.432527 0.463756 0.154507)
(-0.473288 0.575989 0.162862)
(-0.560613 0.529318 0.254521)
(-0.352345 0.532286 0.0780896)
(-0.353811 0.412966 0.116814)
(-0.369461 0.413822 0.102356)
(-0.482011 0.59528 0.202235)
(-0.584042 0.49941 0.304141)
(-0.543198 0.537403 0.327409)
(-0.590191 0.505758 0.322035)
(-0.619198 0.445231 0.304195)
(-0.442725 0.541621 0.188233)
(-0.509983 0.392972 0.233434)
(-0.476534 0.447384 0.211498)
(-0.473404 0.434534 0.209955)
(-0.41132 0.637704 0.591333)
(-0.445772 0.703124 0.639681)
(-0.459545 0.735775 0.656613)
(-0.450056 0.712443 0.632689)
(-0.419685 0.658074 0.753538)
(-0.417458 0.612489 0.773543)
(-0.438665 0.675563 0.757053)
(-0.427273 0.601541 0.769643)
(-0.436814 0.664052 0.717653)
(-0.428067 0.709838 0.756637)
(-0.405936 0.633854 0.76842)
(-0.428787 0.631439 0.773722)
(-0.443374 0.623042 0.753487)
(-0.421687 0.68303 0.779229)
(-0.422335 0.61358 0.758864)
(-0.400162 0.576101 0.772086)
(-0.409153 0.637141 0.771577)
(-0.0914655 0.0870221 0.0442635)
(-0.109187 0.0942787 0.0382541)
(-0.0630972 0.0594566 0.0463591)
(-0.0449657 0.041987 0.0393717)
(-0.0617117 0.0650063 0.0575897)
(-0.0493102 0.058475 0.055031)
(-0.130293 0.150021 0.0539717)
(-0.107664 0.130836 0.0591174)
(-0.0796592 0.0732882 0.0463303)
(-0.0410134 0.0342224 0.0432402)
(-0.0624308 0.0868284 0.0624607)
(-0.0778434 0.131341 0.0800585)
(-0.084547 0.110418 0.0688557)
(-0.131897 0.157667 0.0595765)
(-0.0825663 0.0869436 0.0473868)
(-0.0504167 0.0850557 0.0525257)
(-0.0552895 0.0594676 0.0450772)
(-0.144765 0.3185 0.145167)
(-0.147243 0.400039 0.185803)
(-0.109119 0.223459 0.168891)
(-0.111383 0.443789 0.268512)
(-0.0910166 0.299554 0.198745)
(-0.0853566 0.380845 0.220253)
(-0.0692389 0.276501 0.165685)
(-0.159865 0.385571 0.156589)
(-0.104076 0.441021 0.274418)
(-0.082528 0.216904 0.133088)
(-0.130777 0.335236 0.114575)
(-0.0716217 0.194751 0.125723)
(-0.18561 0.305542 0.0665589)
(-0.0923434 0.161241 0.107988)
(-0.62956 0.696552 0.557831)
(-0.608851 0.718068 0.544097)
(-0.543831 0.73839 0.439053)
(-0.507707 0.722114 0.369503)
(-0.662804 0.731499 0.553738)
(-0.505067 0.706857 0.333578)
(-0.440621 0.680482 0.287803)
(-0.441339 0.67936 0.287657)
(-0.632948 0.77187 0.475954)
(-0.660988 0.734106 0.578772)
(-0.672975 0.725665 0.575842)
(-0.602957 0.735448 0.536273)
(-0.327934 0.68092 0.289464)
(-0.304783 0.717411 0.36222)
(-0.343302 0.744562 0.165977)
(-0.310014 0.724876 0.269706)
(-0.256637 0.619385 0.111654)
(-0.286195 0.662357 0.124272)
(-0.382539 0.714132 0.442404)
(-0.273592 0.600546 0.118358)
(-0.278258 0.647827 0.0994359)
(-0.282757 0.616685 0.133575)
(-0.306423 0.6996 0.33099)
(-0.369132 0.749148 0.277281)
(-0.288528 0.620116 0.149688)
(-0.275749 0.686963 0.336268)
(-0.359575 0.705648 0.317417)
(-0.383378 0.714225 0.4407)
(-0.32708 0.727156 0.374369)
(-0.314741 0.665844 0.205357)
(-0.305811 0.662419 0.187792)
(-0.246734 0.404151 0.218389)
(-0.247393 0.401902 0.232515)
(-0.285658 0.387194 0.24557)
(-0.325438 0.351111 0.229116)
(-0.208765 0.22438 0.234195)
(-0.199027 0.218976 0.232286)
(-0.248773 0.332296 0.247904)
(-0.268189 0.295211 0.24965)
(-0.215227 0.246282 0.249618)
(-0.199833 0.255426 0.25104)
(-0.226524 0.370492 0.261621)
(-0.222274 0.339742 0.269075)
(-0.31977 0.310982 0.256495)
(-0.291937 0.370431 0.242421)
(-0.301827 0.303815 0.248727)
(-0.221923 0.222528 0.232132)
(-0.227577 0.237455 0.234902)
(-0.232621 0.23118 0.239901)
(-0.274858 0.260208 0.244841)
(-0.306993 0.282747 0.256116)
(-0.243203 0.234061 0.239978)
(-0.648038 0.749277 0.327655)
(-0.645245 0.718742 0.382248)
(-0.664876 0.736757 0.353205)
(-0.649854 0.720325 0.385984)
(-0.643737 0.753444 0.304622)
(-0.658462 0.771196 0.245658)
(-0.648555 0.72105 0.317947)
(-0.637944 0.786653 0.311744)
(-0.648101 0.760114 0.346203)
(-0.657916 0.773957 0.29034)
(-0.616014 0.81469 0.223409)
(-0.590907 0.846745 0.187371)
(-0.628887 0.750112 0.291006)
(-0.636788 0.779031 0.238806)
(-0.644138 0.74816 0.319365)
(-0.637098 0.729249 0.315199)
(-0.645781 0.750816 0.271868)
(-0.646361 0.766881 0.288158)
(-0.620971 0.81381 0.239548)
(-0.297539 0.844509 0.223201)
(-0.267752 0.833936 0.11294)
(-0.30992 0.848224 0.160169)
(-0.276245 0.796611 0.0479407)
(-0.316707 0.896634 0.293236)
(-0.300324 0.922117 0.347075)
(-0.276744 0.839667 0.145323)
(-0.329893 0.847172 0.197992)
(-0.321075 0.774813 0.189031)
(-0.344812 0.886342 0.260731)
(-0.299085 0.846798 0.224761)
(-0.336356 0.861676 0.424487)
(-0.33447 0.874898 0.280488)
(-0.345279 0.852633 0.218322)
(-0.312362 0.905031 0.358835)
(-0.316338 0.88164 0.384422)
(-0.329885 0.889992 0.426566)
(-0.316778 0.895308 0.36169)
(-0.361163 0.831611 0.264244)
(-0.36002 0.887367 0.431917)
(-0.335734 0.881523 0.419359)
(-0.378065 0.872812 0.269636)
(-0.362379 0.877303 0.473003)
(-0.345978 0.840417 0.397566)
(-0.357444 0.85875 0.397276)
(-0.35571 0.881227 0.44124)
(-0.551259 0.489168 0.680788)
(-0.533981 0.480253 0.695369)
(-0.615515 0.620409 0.699478)
(-0.557358 0.549598 0.712605)
(-0.561807 0.563447 0.715925)
(-0.54439 0.558531 0.724965)
(-0.588187 0.634461 0.704228)
(-0.409402 0.539316 0.82284)
(-0.430583 0.561508 0.823091)
(-0.460464 0.650234 0.735852)
(-0.437797 0.681603 0.752223)
(-0.416905 0.564576 0.802899)
(-0.396102 0.52342 0.80088)
(-0.461283 0.629317 0.777099)
(-0.459895 0.667879 0.75569)
(-0.442059 0.670398 0.763979)
(-0.423168 0.599547 0.80378)
(-0.400367 0.615817 0.805739)
(-0.440729 0.628998 0.786342)
(-0.413934 0.580365 0.809965)
(-0.379228 0.590774 0.802018)
(-0.376223 0.563808 0.804887)
(-0.387365 0.612832 0.797623)
(-0.381136 0.595281 0.801154)
(-0.425284 0.680943 0.75401)
(-0.490443 0.448877 0.73717)
(-0.466072 0.384637 0.723406)
(-0.486352 0.457797 0.73724)
(-0.455464 0.363368 0.719308)
(-0.436434 0.407086 0.749093)
(-0.463769 0.471312 0.754999)
(-0.42793 0.366316 0.751232)
(-0.391229 0.43522 0.779878)
(-0.383548 0.400535 0.743136)
(-0.408303 0.417222 0.766453)
(-0.39455 0.366445 0.732887)
(-0.414953 0.403026 0.759429)
(-0.40166 0.403378 0.756295)
(-0.403413 0.480101 0.793302)
(-0.394899 0.444737 0.769956)
(-0.45666 0.483735 0.762244)
(-0.417844 0.426528 0.775435)
(-0.454693 0.513206 0.764218)
(-0.411281 0.460197 0.777639)
(-0.519245 0.331733 0.281069)
(-0.546766 0.336599 0.299319)
(-0.573173 0.340238 0.350639)
(-0.483172 0.291774 0.260963)
(-0.533928 0.333618 0.282142)
(-0.408293 0.208475 0.232676)
(-0.36485 0.175481 0.231217)
(-0.393791 0.199572 0.250284)
(-0.388597 0.18738 0.25615)
(-0.503549 0.265792 0.320572)
(-0.458675 0.258305 0.286748)
(-0.50297 0.219214 0.322781)
(-0.415175 0.188026 0.271111)
(-0.462356 0.206372 0.272527)
(-0.416481 0.189992 0.259577)
(-0.346149 0.167404 0.209585)
(-0.465964 0.206103 0.319581)
(-0.496953 0.2174 0.325268)
(-0.543389 0.244305 0.369253)
(-0.585806 0.33673 0.343828)
(-0.580025 0.311135 0.366513)
(-0.52947 0.241793 0.318056)
(-0.451018 0.2222 0.254418)
(-0.548459 0.307126 0.310156)
(-0.626011 0.623382 0.640811)
(-0.62162 0.663428 0.560676)
(-0.723706 0.496487 0.553071)
(-0.729583 0.549712 0.482885)
(-0.677409 0.581712 0.607524)
(-0.684516 0.520569 0.638629)
(-0.609911 0.684645 0.479681)
(-0.721218 0.653933 0.408386)
(-0.734635 0.575251 0.474481)
(-0.679797 0.525206 0.60909)
(-0.667964 0.572384 0.631218)
(-0.695988 0.607105 0.493655)
(-0.640194 0.678742 0.439348)
(-0.60446 0.713853 0.53286)
(-0.633563 0.651348 0.576149)
(-0.659446 0.699772 0.402659)
(-0.669304 0.635584 0.542228)
(-0.711222 0.631195 0.529019)
(-0.340638 0.896075 0.442688)
(-0.328949 0.871563 0.492896)
(-0.319322 0.815438 0.572771)
(-0.331355 0.834951 0.568129)
(-0.378564 0.89243 0.502408)
(-0.3414 0.848684 0.557079)
(-0.311277 0.857759 0.529313)
(-0.334803 0.895538 0.434372)
(-0.311567 0.877631 0.487448)
(-0.305038 0.864849 0.525598)
(-0.304829 0.813804 0.565792)
(-0.327707 0.837263 0.537457)
(-0.326054 0.812079 0.599983)
(-0.324275 0.77137 0.620409)
(-0.351984 0.825837 0.5797)
(-0.382681 0.858912 0.504872)
(-0.349915 0.863112 0.485134)
(-0.340032 0.856016 0.476659)
(-0.548896 0.494179 0.710523)
(-0.505937 0.527588 0.793007)
(-0.507936 0.324236 0.712891)
(-0.468155 0.314057 0.711394)
(-0.47042 0.374572 0.771753)
(-0.453157 0.34596 0.749456)
(-0.564707 0.475925 0.722312)
(-0.499092 0.490433 0.802977)
(-0.523031 0.485743 0.762748)
(-0.525439 0.487731 0.769882)
(-0.550174 0.466722 0.718593)
(-0.486244 0.351354 0.739871)
(-0.529613 0.335745 0.716544)
(-0.516264 0.343135 0.713874)
(-0.56289 0.426601 0.69395)
(-0.459884 0.367584 0.780108)
(-0.476035 0.401026 0.785997)
(-0.518278 0.379528 0.743509)
(-0.484241 0.397484 0.791776)
(-0.317972 0.713499 0.110193)
(-0.350897 0.775731 0.159544)
(-0.340845 0.741907 0.0638956)
(-0.397326 0.900927 0.2466)
(-0.404239 0.894841 0.277976)
(-0.315739 0.69522 0.0346207)
(-0.332414 0.743534 0.109844)
(-0.386271 0.847874 0.238189)
(-0.400889 0.893887 0.278831)
(-0.343653 0.750385 0.133725)
(-0.438689 0.83058 0.140226)
(-0.406071 0.795537 0.143763)
(-0.41775 0.887159 0.214732)
(-0.44781 0.890722 0.262743)
(-0.391725 0.840269 0.203078)
(-0.307647 0.76269 0.0718562)
(-0.416274 0.817516 0.213128)
(-0.448012 0.842074 0.194961)
(-0.581611 0.478564 0.10205)
(-0.522354 0.39459 0.0978857)
(-0.50417 0.310207 0.0976857)
(-0.515186 0.318357 0.125487)
(-0.485727 0.436069 0.058114)
(-0.515649 0.444261 0.0489621)
(-0.370312 0.260696 0.0769599)
(-0.366382 0.266864 0.0723614)
(-0.276418 0.203476 0.0650088)
(-0.561243 0.441235 0.0725392)
(-0.367208 0.331719 0.0414156)
(-0.160155 0.161415 0.0447447)
(-0.17049 0.150632 0.0462744)
(-0.237835 0.185348 0.0472205)
(-0.304363 0.308078 0.0212021)
(-0.438293 0.419152 0.0137095)
(-0.250071 0.198793 0.0180114)
(-0.338143 0.246307 0.0311687)
(-0.475839 0.431139 0.0129682)
(-0.217396 0.183055 0.0374918)
(-0.403988 0.344924 0.00340403)
(-0.271928 0.262184 0.0278022)
(-0.411089 0.864855 0.385369)
(-0.374963 0.814275 0.430136)
(-0.407529 0.804566 0.483331)
(-0.417428 0.838298 0.522718)
(-0.358894 0.744274 0.322207)
(-0.372227 0.77337 0.306861)
(-0.398645 0.748518 0.310148)
(-0.365141 0.74615 0.363738)
(-0.409151 0.811599 0.512824)
(-0.397984 0.765729 0.429236)
(-0.420508 0.838172 0.54981)
(-0.423827 0.869758 0.542079)
(-0.353686 0.711376 0.233161)
(-0.41119 0.859403 0.49003)
(-0.411809 0.826555 0.453855)
(-0.4123 0.802366 0.402479)
(-0.47558 0.612889 0.695688)
(-0.469551 0.606132 0.734046)
(-0.533232 0.713901 0.63175)
(-0.505495 0.664735 0.63394)
(-0.507472 0.666648 0.612846)
(-0.602712 0.723964 0.671008)
(-0.507114 0.552393 0.753433)
(-0.479713 0.51507 0.736945)
(-0.496136 0.600124 0.715801)
(-0.597166 0.698007 0.713643)
(-0.535542 0.67268 0.663574)
(-0.600779 0.684915 0.724075)
(-0.521333 0.511501 0.709063)
(-0.513395 0.542219 0.736603)
(-0.592335 0.636211 0.723587)
(-0.467979 0.82836 0.376958)
(-0.508143 0.824233 0.446206)
(-0.52022 0.838835 0.470304)
(-0.529215 0.746593 0.613617)
(-0.559518 0.722112 0.619569)
(-0.449104 0.751972 0.591942)
(-0.490042 0.693645 0.684659)
(-0.502219 0.662713 0.703632)
(-0.423734 0.722049 0.657152)
(-0.43567 0.80275 0.551494)
(-0.494316 0.615562 0.715363)
(-0.451113 0.595137 0.75273)
(-0.503266 0.808141 0.48173)
(-0.525404 0.808907 0.444985)
(-0.54885 0.785484 0.50003)
(-0.558745 0.66532 0.700874)
(-0.505578 0.636406 0.712717)
(-0.547838 0.759172 0.583512)
(-0.486346 0.76885 0.588281)
(-0.517495 0.755956 0.574471)
(-0.540732 0.731595 0.627899)
(-0.401333 0.7419 0.657158)
(-0.390484 0.7574 0.656307)
(-0.400474 0.709344 0.706394)
(-0.422907 0.671067 0.725889)
(-0.473156 0.73794 0.646427)
(-0.403381 0.794837 0.52526)
(-0.395853 0.719163 0.709288)
(-0.432509 0.665656 0.729797)
(-0.468661 0.70368 0.683618)
(-0.469634 0.671667 0.706457)
(-0.453893 0.668294 0.754232)
(-0.478122 0.740071 0.626577)
(-0.484316 0.617203 0.755466)
(-0.479725 0.821286 0.10739)
(-0.515125 0.834241 0.163803)
(-0.562323 0.819916 0.173244)
(-0.53178 0.825306 0.155926)
(-0.471591 0.831426 0.0900389)
(-0.420646 0.7973 0.0714038)
(-0.512073 0.836868 0.124225)
(-0.391313 0.480656 0.768794)
(-0.39292 0.427684 0.755124)
(-0.450406 0.593916 0.7379)
(-0.404474 0.530242 0.78516)
(-0.472536 0.672816 0.673288)
(-0.47205 0.659246 0.686871)
(-0.489077 0.610924 0.736968)
(-0.411719 0.622544 0.72232)
(-0.442177 0.457019 0.755185)
(-0.506177 0.498059 0.755071)
(-0.482078 0.469164 0.745262)
(-0.516795 0.62157 0.727613)
(-0.510801 0.633524 0.711691)
(-0.400562 0.627393 0.728515)
(-0.449472 0.643251 0.703364)
(-0.417192 0.469266 0.765355)
(-0.407546 0.509008 0.768021)
(-0.41901 0.552738 0.771237)
(-0.461453 0.498943 0.772076)
(-0.49281 0.539316 0.763453)
(-0.444422 0.702228 0.705093)
(-0.400367 0.700847 0.722968)
(-0.480285 0.680894 0.674491)
(-0.428698 0.66876 0.753616)
(-0.430287 0.65304 0.741405)
(-0.451899 0.589809 0.76669)
(-0.478606 0.707893 0.707226)
(-0.500499 0.563459 0.778742)
(-0.45779 0.560327 0.779859)
(-0.465952 0.641505 0.745423)
(-0.472102 0.605262 0.777289)
(-0.528571 0.646105 0.693763)
(-0.489998 0.6715 0.706152)
(-0.512987 0.579108 0.772808)
(-0.469288 0.616433 0.76042)
(-0.066844 0.271081 0.245267)
(-0.0500984 0.260114 0.236239)
(-0.0692815 0.221648 0.207879)
(-0.0487214 0.202354 0.192787)
(-0.0745615 0.343055 0.338083)
(-0.0654169 0.303621 0.290967)
(-0.0716208 0.312842 0.30233)
(-0.0515304 0.222126 0.222799)
(-0.228168 0.62949 0.28534)
(-0.235086 0.65728 0.352802)
(-0.206713 0.57465 0.205225)
(-0.23445 0.667777 0.322339)
(-0.203105 0.498738 0.228093)
(-0.176664 0.600082 0.42336)
(-0.21224 0.650661 0.36317)
(-0.207111 0.573413 0.243454)
(-0.197946 0.413148 0.12899)
(-0.149884 0.581696 0.40946)
(-0.135757 0.550143 0.376485)
(-0.141652 0.559655 0.338546)
(-0.153746 0.624131 0.371344)
(-0.304782 0.407461 0.724949)
(-0.288032 0.366358 0.700437)
(-0.342258 0.440751 0.741471)
(-0.336134 0.396505 0.736757)
(-0.420398 0.409835 0.766514)
(-0.357793 0.373734 0.737672)
(-0.296043 0.399167 0.705898)
(-0.269511 0.316587 0.660732)
(-0.370167 0.36595 0.740121)
(-0.393185 0.38133 0.752014)
(-0.343098 0.361523 0.722178)
(-0.365958 0.47264 0.745942)
(-0.402994 0.395904 0.763492)
(-0.370073 0.446362 0.749092)
(-0.313673 0.316896 0.681688)
(-0.452477 0.698589 0.657994)
(-0.434158 0.675345 0.638854)
(-0.430668 0.676855 0.635437)
(-0.406167 0.634646 0.6079)
(-0.376293 0.631057 0.628758)
(-0.399476 0.655579 0.638038)
(-0.49153 0.783732 0.709967)
(-0.432109 0.701478 0.667956)
(-0.398659 0.655107 0.633805)
(-0.407016 0.70672 0.680361)
(-0.421095 0.691066 0.66674)
(-0.490347 0.774527 0.712972)
(-0.485799 0.793231 0.730717)
(-0.400612 0.67319 0.645316)
(-0.432592 0.729262 0.69186)
(-0.244804 0.368933 0.670485)
(-0.288942 0.335786 0.668415)
(-0.279994 0.474334 0.694758)
(-0.32104 0.515684 0.712971)
(-0.338364 0.488137 0.714976)
(-0.367858 0.518192 0.716623)
(-0.343919 0.496451 0.727437)
(-0.323026 0.386774 0.69753)
(-0.309818 0.346862 0.667445)
(-0.272104 0.335229 0.657764)
(-0.248149 0.379859 0.692318)
(-0.291679 0.462406 0.707706)
(-0.353944 0.461663 0.711459)
(-0.380457 0.488989 0.721938)
(-0.368159 0.453166 0.730062)
(-0.341643 0.367824 0.690918)
(-0.302512 0.329779 0.645445)
(-0.272205 0.357833 0.659388)
(-0.260812 0.343263 0.648821)
(-0.272373 0.292247 0.599044)
(-0.337525 0.404441 0.7038)
(-0.662333 0.72703 0.563446)
(-0.653671 0.702544 0.61028)
(-0.644752 0.740121 0.524396)
(-0.642693 0.720694 0.544174)
(-0.58974 0.70041 0.507875)
(-0.55982 0.702872 0.545696)
(-0.674128 0.667534 0.613209)
(-0.534388 0.743998 0.409331)
(-0.528115 0.721159 0.56471)
(-0.600172 0.680675 0.616199)
(-0.591737 0.618938 0.661745)
(-0.596856 0.689961 0.62374)
(-0.550915 0.705404 0.576635)
(-0.612544 0.660932 0.657078)
(-0.49129 0.532753 0.595547)
(-0.506924 0.59034 0.617653)
(-0.48162 0.558435 0.602685)
(-0.481513 0.54894 0.614001)
(-0.491465 0.567686 0.61442)
(-0.471485 0.525227 0.587846)
(-0.488882 0.532218 0.604229)
(-0.270541 0.638906 0.653327)
(-0.254432 0.652291 0.623556)
(-0.231403 0.579743 0.669029)
(-0.194921 0.578905 0.633488)
(-0.171775 0.611689 0.586107)
(-0.266176 0.615336 0.672684)
(-0.190474 0.603795 0.609127)
(-0.205757 0.565421 0.686201)
(-0.18123 0.559503 0.639268)
(-0.207456 0.493554 0.687353)
(-0.17183 0.506578 0.633891)
(-0.251945 0.538303 0.711537)
(-0.21264 0.497657 0.670876)
(-0.167652 0.561527 0.599758)
(-0.152511 0.504458 0.598451)
(-0.21032 0.489321 0.673655)
(-0.175032 0.440117 0.625631)
(-0.145275 0.571939 0.592008)
(-0.153194 0.40519 0.580669)
(-0.147715 0.473033 0.583654)
(-0.551457 0.489423 0.715073)
(-0.540928 0.518774 0.727984)
(-0.506697 0.341813 0.728963)
(-0.506756 0.555108 0.772134)
(-0.504697 0.524061 0.794946)
(-0.454162 0.394539 0.798564)
(-0.458664 0.341499 0.772357)
(-0.460945 0.46463 0.806662)
(-0.440196 0.490884 0.804505)
(-0.512188 0.544869 0.780358)
(-0.461125 0.378827 0.803504)
(-0.459469 0.383389 0.787405)
(-0.470605 0.498341 0.803328)
(-0.448094 0.407661 0.770735)
(-0.454114 0.447321 0.795634)
(-0.355955 0.423151 0.727678)
(-0.361142 0.374715 0.706487)
(-0.346824 0.574103 0.720175)
(-0.337044 0.558767 0.730439)
(-0.437122 0.679005 0.636497)
(-0.388779 0.632978 0.595749)
(-0.433601 0.658905 0.621678)
(-0.355169 0.48531 0.760479)
(-0.360771 0.435494 0.748765)
(-0.397215 0.247861 0.481769)
(-0.4226 0.270749 0.537534)
(-0.425165 0.263815 0.513885)
(-0.288145 0.22666 0.272467)
(-0.320843 0.239297 0.302102)
(-0.392667 0.372744 0.663934)
(-0.370821 0.390701 0.681229)
(-0.371492 0.367847 0.648924)
(-0.514128 0.552091 0.578143)
(-0.50749 0.581881 0.600138)
(-0.494114 0.57895 0.593241)
(-0.151599 0.309925 0.544413)
(-0.143402 0.316362 0.528694)
(-0.168074 0.223942 0.232731)
(-0.182385 0.231936 0.238582)
(-0.180577 0.228631 0.240294)
(-0.346408 0.631016 0.705011)
(-0.344927 0.621602 0.712811)
(-0.468889 0.326241 0.688791)
(-0.449406 0.297255 0.664496)
(-0.455113 0.275282 0.626991)
(-0.456163 0.266113 0.602872)
(-0.388504 0.346625 0.678478)
(-0.386997 0.346002 0.691132)
(-0.342588 0.329431 0.676818)
(-0.0909027 0.298121 0.3713)
(-0.0955569 0.310088 0.41322)
(-0.290253 0.320358 0.618318)
(-0.248432 0.318633 0.621273)
(-0.282958 0.330217 0.645265)
(-0.46094 0.395345 0.673667)
(-0.432541 0.37056 0.644856)
(-0.423973 0.360988 0.661656)
(-0.391151 0.347781 0.653708)
(-0.368493 0.214676 0.305303)
(-0.382393 0.223668 0.317091)
(-0.336224 0.602782 0.764074)
(-0.329628 0.566203 0.752967)
(-0.375278 0.279854 0.467626)
(-0.401001 0.297394 0.495181)
(-0.399417 0.307566 0.52734)
(-0.440649 0.599444 0.577202)
(-0.439256 0.612231 0.58542)
(-0.503424 0.674778 0.618033)
(-0.490792 0.680103 0.620161)
(-0.475653 0.691155 0.634114)
(-0.180157 0.252805 0.255932)
(-0.33125 0.534729 0.706218)
(-0.328915 0.502436 0.694407)
(-0.361165 0.339713 0.709996)
(-0.380755 0.364742 0.71153)
(-0.0944763 0.307436 0.366269)
(-0.0963034 0.332362 0.378424)
(-0.596476 0.521657 0.662459)
(-0.597183 0.485877 0.678642)
(-0.201213 0.164044 0.193011)
(-0.222809 0.182835 0.193996)
(-0.182253 0.171569 0.200854)
(-0.440595 0.360367 0.762428)
(-0.410292 0.37912 0.755749)
(-0.439847 0.335216 0.732183)