/*--------------------------------*- C++ -*----------------------------------*\
| =========                 |                                                 |
| \\      /  F ield         | OpenFOAM: The Open Source CFD Toolbox           |
|  \\    /   O peration     | Version:  v1612+                                |
|   \\  /    A nd           | Web:      www.OpenFOAM.com                      |
|    \\/     M anipulation  |                                                 |
\*---------------------------------------------------------------------------*/
FoamFile
{
    version     2.0;
    format      ascii;
    class       surfaceScalarField;
    location    "150";
    object      phi;
}
// * * * * * * * * * * * * * * * * * * * * * * * * * * * * * * * * * * * * * //

dimensions      [0 3 -1 0 0 0 0];

internalField   nonuniform List<scalar> 
41980
(
2.71297e-09
-6.30661e-09
5.14922e-10
3.07866e-09
-2.98032e-09
2.24271e-09
-2.44612e-09
3.18377e-09
5.73229e-10
-4.48482e-09
9.31352e-10
1.44132e-09
4.02617e-09
-9.75981e-10
-4.49148e-09
6.29048e-09
-2.27383e-10
-4.62176e-09
1.18314e-09
2.61686e-09
2.4905e-09
6.79622e-09
-1.73801e-09
-5.28559e-09
3.93216e-09
4.04723e-09
2.72746e-09
1.77798e-09
-8.16353e-10
5.78654e-09
-4.78541e-09
3.12503e-09
4.27728e-09
3.81503e-10
-1.14072e-09
9.47391e-10
-3.53868e-09
-1.89353e-09
-1.37231e-09
-1.264e-10
-2.04885e-09
4.35755e-09
-1.48115e-09
-1.86193e-10
-5.21937e-10
-4.75477e-09
2.51719e-09
-4.01511e-09
-3.36282e-10
1.20599e-09
-2.33892e-09
5.69993e-09
-4.567e-09
-1.8416e-09
3.12358e-09
-7.59985e-11
1.70753e-09
-3.09147e-09
-4.57658e-10
-2.0126e-09
5.94779e-09
-1.40155e-09
-2.53365e-09
4.07362e-09
-4.58878e-09
-1.49744e-09
-2.59854e-09
5.74815e-09
-1.51345e-09
-1.63616e-09
-4.5471e-09
1.72692e-09
2.21637e-10
-5.97236e-10
2.50546e-09
-2.00691e-10
5.18301e-09
-1.70663e-09
-3.15883e-10
1.47e-09
4.02889e-09
1.08481e-09
9.54184e-09
-6.53131e-09
6.48308e-09
-9.49361e-09
9.40734e-09
4.70754e-10
-3.36236e-10
-1.45155e-08
7.31937e-09
6.6483e-10
-5.31291e-09
-4.57449e-09
-6.28813e-09
1.61755e-08
-9.29375e-09
1.10304e-08
7.67071e-09
-3.65755e-09
8.46879e-10
9.34285e-09
-5.44211e-10
-8.32789e-09
5.80923e-09
8.21265e-09
-4.67904e-09
1.70795e-09
-1.078e-08
-1.75842e-09
1.08304e-08
-1.13862e-09
-4.45428e-09
7.30074e-09
-2.23543e-09
-7.95071e-09
-5.93949e-10
4.04069e-10
-9.47572e-09
7.31317e-09
-4.87241e-09
4.1378e-09
7.24393e-09
-1.22181e-09
-8.25764e-09
-6.68495e-09
9.47453e-09
6.9756e-09
-2.65718e-09
-8.64282e-09
6.14268e-09
6.87858e-09
-1.6933e-09
-1.96311e-09
-3.22236e-09
6.44935e-09
5.25661e-09
-4.82742e-09
-3.06365e-09
3.05755e-09
-6.67891e-09
-2.11468e-09
-7.68195e-09
4.92414e-09
3.66717e-09
1.28294e-09
-4.89155e-10
-1.8825e-09
6.73236e-09
6.51415e-09
-2.06446e-09
1.27098e-09
2.49934e-09
-7.95711e-09
1.68849e-08
-1.42353e-08
5.30749e-09
8.12918e-09
-1.15089e-08
-4.57732e-09
-8.23915e-09
-1.07871e-08
1.10874e-08
7.93889e-09
1.99822e-09
-8.63175e-09
-1.60563e-09
1.29922e-08
-2.86478e-09
1.14304e-09
4.37775e-10
1.14114e-08
1.95664e-09
1.60713e-08
9.26605e-09
-6.15228e-09
-1.46228e-08
-1.10532e-11
-4.95821e-09
5.76415e-09
-9.15172e-09
-5.24421e-09
-5.46592e-09
4.42923e-10
5.76088e-09
1.58397e-09
-1.34971e-08
9.20774e-09
2.48336e-09
-5.9302e-09
1.38832e-09
1.01368e-08
1.41907e-10
-1.03585e-08
1.21732e-08
1.39078e-08
-4.71114e-09
1.11277e-08
-8.75532e-09
-1.1524e-08
5.44477e-09
2.16935e-10
6.07825e-09
-1.32496e-08
1.30381e-08
-4.47643e-09
6.47368e-09
1.2013e-08
-5.44859e-09
1.14775e-08
4.41023e-10
-8.09125e-09
9.36083e-09
1.02079e-08
7.45496e-10
3.17626e-09
1.08911e-08
4.29483e-09
1.40278e-09
1.02097e-08
-6.14597e-09
-5.46647e-09
1.18281e-08
-5.17074e-09
-5.25455e-09
1.35402e-09
-1.03296e-08
5.21496e-09
3.76071e-09
6.01316e-09
5.56382e-09
-1.02229e-08
4.29663e-09
1.81142e-09
4.10162e-09
6.99116e-09
9.13358e-09
5.72075e-09
1.17954e-08
-1.1503e-08
-1.47703e-09
1.41889e-08
3.56816e-10
-5.95086e-09
-4.73555e-09
-5.14663e-09
8.88455e-09
-7.72619e-09
4.39097e-09
-3.57273e-09
-3.79663e-09
-2.46915e-09
-7.24951e-09
-1.37868e-08
8.31445e-09
3.00325e-09
-4.91814e-09
-2.4759e-09
1.13347e-09
6.26066e-09
-5.42345e-09
-8.54052e-10
1.3594e-09
4.08865e-09
-4.36832e-09
-5.14375e-09
-8.01809e-10
2.41463e-09
-3.08949e-09
-1.23843e-09
5.46144e-09
-3.8344e-09
-1.09109e-10
4.93377e-09
-3.93445e-09
-2.23773e-09
2.28947e-09
-1.03765e-08
2.90149e-09
5.18558e-09
2.93033e-09
2.69068e-10
-7.56769e-09
-4.61842e-10
-4.42212e-10
4.36815e-09
2.57055e-09
-7.74039e-09
2.7097e-09
-6.4611e-09
4.02047e-09
3.53555e-09
4.44936e-09
-5.2752e-09
2.76232e-09
-6.1435e-09
6.67367e-09
-3.29245e-09
-1.00775e-08
9.91341e-09
2.9264e-09
2.08317e-09
-1.83042e-08
9.29802e-09
-7.69279e-09
4.86275e-09
-6.46799e-09
-8.22403e-09
1.37171e-08
3.80494e-09
1.3989e-09
-1.0779e-08
2.98413e-09
6.39593e-09
-7.57557e-09
2.71446e-09
6.25997e-09
4.98846e-09
-2.65065e-09
3.21386e-09
-1.08353e-08
7.11988e-09
5.01515e-10
-8.20737e-09
-6.49626e-10
1.15714e-08
5.6478e-09
-8.86677e-09
1.94257e-09
1.33205e-08
-8.58941e-09
-1.37703e-08
-5.2327e-09
-1.93799e-08
1.33889e-08
-6.58358e-09
1.00145e-10
1.13747e-08
1.914e-09
1.1522e-08
2.29525e-09
1.18279e-08
4.50203e-09
-4.95523e-09
-3.93111e-09
1.51094e-08
1.0575e-08
-3.61351e-10
8.51936e-09
-1.10032e-08
2.84509e-09
1.60544e-08
-2.09781e-08
4.56232e-09
8.66145e-09
-1.03614e-08
1.77543e-08
1.29845e-09
1.58823e-08
6.32039e-09
-1.98838e-08
-7.41473e-09
-6.82563e-09
2.78456e-09
1.00507e-08
-1.63263e-08
-5.27115e-09
1.15466e-08
2.17232e-08
-1.03741e-08
3.44134e-09
4.43279e-09
6.30353e-09
-1.41777e-08
-1.58363e-08
-3.76629e-09
3.27629e-09
1.11127e-08
-1.56888e-08
-1.53078e-08
3.55087e-09
-1.79135e-08
5.81672e-09
-3.42101e-09
3.34506e-09
-1.2257e-08
1.23329e-08
-9.9641e-10
-1.38037e-08
1.1379e-08
1.86815e-08
3.92263e-09
-2.36006e-08
-7.49589e-09
1.03411e-08
-2.09195e-08
1.0626e-08
2.79764e-09
4.84709e-09
-2.1844e-08
1.54338e-08
2.3522e-09
-1.29389e-08
8.14622e-09
-9.99156e-09
3.09609e-09
4.45649e-09
-2.06645e-09
-5.48621e-09
2.05363e-09
4.82545e-09
-3.78309e-09
1.05171e-09
9.41018e-09
-5.89692e-09
-4.56497e-09
1.20769e-08
-6.97156e-09
-4.05363e-09
-2.10909e-09
8.98459e-09
-4.82191e-09
3.59736e-09
3.59857e-09
-2.73945e-09
-3.30031e-10
8.7528e-09
9.76909e-09
5.98594e-10
-9.57564e-10
6.92526e-09
1.49207e-08
5.24624e-10
-7.70777e-10
-6.88671e-09
7.13269e-09
8.62215e-09
-1.17229e-09
4.82059e-09
-1.28185e-09
-9.43568e-09
3.13696e-09
-5.28793e-09
3.20112e-09
-6.54943e-09
5.28977e-09
-4.19776e-09
9.33639e-10
-9.43232e-09
7.72773e-09
6.68805e-09
-7.99727e-10
-3.18151e-09
2.98281e-09
9.30183e-09
-2.56637e-09
-1.37414e-09
9.94934e-09
7.26545e-10
1.32345e-10
5.67069e-09
1.38892e-08
3.60118e-09
-1.63918e-08
-1.09859e-09
6.71572e-09
-9.22433e-10
1.39379e-08
-1.97313e-08
1.89256e-09
9.70975e-10
-1.64975e-08
1.3634e-08
1.24497e-08
2.03214e-09
-1.25893e-08
-1.23489e-08
4.75143e-09
1.43131e-08
1.08146e-10
1.43216e-09
-8.85396e-09
-7.17699e-10
1.4323e-08
-1.36171e-09
-1.22785e-08
4.7862e-09
8.47041e-09
-1.47904e-08
-6.59461e-09
1.43473e-08
-2.22744e-08
2.10267e-08
-1.0262e-08
1.15097e-08
-1.70851e-08
-8.59177e-09
3.40241e-09
6.88957e-09
1.32146e-08
1.04388e-08
-2.26683e-09
4.27769e-09
1.01261e-09
1.23236e-08
-1.23652e-08
1.43839e-08
-1.13392e-08
-1.33394e-08
1.16901e-09
-1.68844e-08
1.71794e-08
-1.96437e-08
9.70448e-09
-3.22874e-10
-2.44052e-08
2.93129e-10
-7.47313e-09
1.76656e-09
-3.26934e-09
1.58866e-08
-1.13408e-09
-1.92164e-08
3.26417e-09
4.33923e-09
1.1613e-08
-1.60753e-08
-8.28516e-09
5.14412e-09
-4.54887e-09
-9.39255e-09
2.38509e-09
1.15563e-08
-1.14356e-08
1.01509e-08
4.44818e-09
2.98698e-09
5.61493e-09
-1.30501e-08
4.60627e-09
1.12499e-08
-1.1408e-08
7.99592e-09
-7.29475e-09
3.63806e-09
3.64824e-09
9.93938e-10
6.97078e-09
-6.64314e-10
-6.00612e-09
1.12767e-08
7.12183e-09
-4.79918e-09
5.63804e-09
-1.27737e-08
-6.793e-09
1.22437e-08
7.32294e-09
-5.87714e-09
5.87482e-09
-1.27714e-08
-8.12774e-09
4.00948e-09
-2.67475e-09
6.97189e-10
-1.47021e-08
5.32665e-09
-9.15765e-09
2.6e-09
1.23097e-09
-6.98604e-09
8.63757e-09
3.67511e-09
-3.10668e-09
1.08065e-08
-1.82501e-09
5.0648e-09
-9.17411e-09
4.80648e-09
8.79354e-09
2.80722e-10
1.8611e-09
-2.2252e-09
-6.16304e-09
1.03809e-09
1.71302e-09
4.36769e-09
5.24154e-09
5.20243e-09
-7.84398e-09
1.30665e-08
1.03904e-08
-1.55906e-08
-7.86625e-09
3.24063e-09
1.20532e-08
-2.2273e-09
9.41089e-09
9.43194e-09
-1.60256e-08
-2.81723e-09
1.29605e-08
-3.09036e-10
-1.06004e-08
1.08884e-08
1.17652e-08
-7.54241e-10
-1.1449e-08
1.5568e-08
-1.20889e-08
5.5037e-10
1.75386e-08
-6.00012e-09
1.35377e-09
-4.82146e-10
1.7248e-08
3.52611e-09
-1.45648e-09
-2.23582e-09
5.90871e-09
1.58368e-09
2.03737e-09
-7.47134e-10
3.00045e-09
-9.63382e-09
-3.89391e-09
5.55233e-09
7.97529e-09
-5.14181e-09
-1.99271e-09
4.95674e-09
-7.09819e-09
1.6019e-09
-5.39124e-10
-5.63421e-10
1.10399e-08
2.73911e-09
4.44057e-09
3.40508e-09
2.34151e-10
5.58076e-09
-8.06629e-09
9.76033e-09
-2.1912e-09
4.97178e-10
-4.93246e-09
-9.23656e-09
6.10272e-09
-2.29964e-09
5.41089e-09
6.69909e-10
-3.78116e-09
3.81372e-09
-8.79435e-10
-5.23393e-09
3.78325e-09
6.56692e-09
-5.89832e-10
-5.76202e-09
5.77093e-09
-2.20012e-09
-7.78869e-11
-2.7325e-10
3.96747e-09
-2.31637e-10
2.38831e-09
3.76157e-09
-7.02934e-09
-1.87424e-09
5.44157e-09
-5.90673e-09
-2.2037e-09
2.66885e-09
5.60835e-09
-4.22492e-09
4.05813e-09
2.33015e-09
7.22403e-09
8.53971e-10
8.49141e-09
-3.73706e-09
3.70519e-09
-5.85036e-09
-2.529e-10
-2.66842e-10
-3.95889e-09
7.14299e-09
-2.44335e-10
-6.09888e-09
7.17058e-09
-7.90197e-09
6.83023e-09
8.60083e-10
-8.01594e-09
1.05709e-09
-3.21428e-09
8.74462e-09
1.64019e-09
-3.64781e-09
1.2936e-09
-6.79786e-09
3.01187e-09
-4.11601e-09
-4.20485e-09
-1.06089e-08
7.71211e-09
3.14664e-11
-6.79739e-09
-9.46152e-10
-9.70327e-09
1.03001e-08
7.11529e-09
5.64445e-09
9.41859e-09
-3.2201e-09
-1.18431e-08
-2.53113e-09
-4.16028e-09
-4.07132e-09
4.24111e-09
3.08763e-09
-3.25743e-09
-3.58334e-09
-4.56502e-10
3.44934e-09
-2.32368e-10
-7.42181e-09
3.52981e-10
-5.51459e-10
-3.50067e-09
-5.82781e-09
-3.27868e-09
-4.97849e-09
4.67385e-09
-7.01169e-09
-3.13384e-09
6.77036e-09
-7.89698e-09
4.26044e-09
4.54483e-09
-7.87591e-09
1.97237e-10
5.53242e-09
1.4071e-09
3.22287e-09
-1.01624e-08
8.41504e-10
9.22181e-09
-4.53092e-09
4.74298e-10
-2.97619e-09
7.04671e-09
-3.96869e-09
1.12133e-08
-9.81968e-09
-1.00744e-09
2.93013e-09
-6.75183e-09
1.24894e-08
-4.89613e-09
4.96054e-09
-1.03053e-08
1.05886e-09
8.51896e-09
-6.35497e-09
4.56739e-09
-5.16527e-09
-3.48461e-09
1.76084e-10
-9.79448e-09
-1.77502e-09
7.60078e-09
1.68751e-09
-5.88716e-09
1.19066e-08
-3.47646e-09
8.5108e-09
5.3561e-09
8.82658e-09
-1.59577e-08
1.49082e-08
-1.25283e-08
-1.33238e-09
-1.14421e-08
6.36725e-09
6.40727e-09
-1.31115e-08
5.74465e-09
6.03449e-09
-1.95126e-09
-3.35526e-09
-2.33917e-09
7.64566e-09
-1.03696e-09
-6.15125e-09
5.23692e-09
-9.57943e-09
5.1872e-09
-3.27537e-09
-1.4236e-10
-8.02437e-09
-1.20921e-08
1.17666e-08
-7.18309e-09
-8.50687e-09
1.33508e-08
-7.66332e-09
8.97495e-09
2.4215e-09
1.23062e-10
-1.03429e-08
9.5271e-09
-6.4605e-09
3.75121e-10
1.13932e-08
-8.35932e-09
-5.41021e-09
1.22157e-09
-1.14761e-08
1.33227e-08
-3.06818e-09
-1.00199e-08
1.25235e-08
-1.28198e-09
-9.64114e-09
-1.91208e-09
1.05898e-08
9.63424e-10
9.30738e-11
2.82438e-09
-1.25586e-08
3.49963e-09
-1.34265e-08
-1.1732e-08
3.75556e-09
8.50728e-09
3.1345e-09
-8.8174e-09
7.07879e-09
-4.83598e-10
4.32372e-09
-4.79173e-10
8.67888e-09
7.91263e-09
-4.89093e-10
-8.85556e-09
1.43195e-09
-2.19019e-09
-1.75387e-09
1.18567e-08
1.03063e-08
-5.34631e-10
3.551e-09
1.24398e-08
6.72211e-09
-5.12326e-09
1.53564e-09
1.01058e-08
3.69508e-09
9.41695e-09
1.99761e-10
-2.59329e-09
1.02563e-08
7.5173e-09
1.81526e-09
-1.12055e-08
6.15908e-09
-5.17702e-09
1.50663e-09
-2.48867e-09
-2.6411e-09
1.74457e-09
-3.75477e-09
4.65134e-09
1.95034e-10
4.25404e-09
1.71005e-09
3.29595e-09
-4.3781e-09
1.27723e-09
-6.41871e-09
2.35057e-09
6.91556e-10
3.37661e-09
-8.15029e-09
-9.09525e-10
-3.30852e-10
-3.10159e-09
5.28442e-09
6.36107e-09
-3.43742e-09
-8.20801e-09
1.91813e-09
5.7169e-09
6.34413e-09
-2.34557e-09
-4.32941e-09
-1.29072e-09
3.08173e-09
4.55312e-09
-3.72498e-09
4.3537e-09
5.73238e-09
7.43729e-09
-7.34423e-09
-2.43864e-09
2.42165e-09
2.70955e-09
-5.0365e-09
-3.13951e-09
-3.55832e-09
4.61065e-09
3.04929e-09
-6.55298e-10
-1.93457e-10
1.78124e-09
-4.23338e-10
-6.39439e-09
4.40772e-09
-4.1615e-09
1.53503e-09
3.89711e-09
-1.44667e-10
4.0329e-09
2.93738e-09
-4.27706e-09
-2.6932e-09
4.45214e-09
-3.32762e-10
-2.22253e-10
2.04113e-09
-9.71397e-09
6.5428e-09
-6.02822e-09
1.52657e-09
6.01677e-09
-3.2706e-09
6.02348e-09
2.46158e-09
4.99487e-09
2.04439e-09
-1.02248e-09
7.72953e-09
1.65631e-09
4.1637e-09
-3.95709e-09
-3.51556e-09
3.3089e-09
-6.59634e-11
6.15163e-10
3.61452e-09
-5.37954e-09
4.86743e-09
4.46114e-10
2.3408e-09
-9.57378e-10
-6.76302e-09
9.75935e-09
6.92964e-10
-8.11157e-09
7.0978e-09
1.13144e-09
1.53007e-09
4.72097e-09
7.24422e-09
4.73043e-10
-5.38753e-09
-2.08728e-09
3.21994e-09
-1.07405e-09
-5.86114e-11
3.57085e-09
9.63284e-10
-4.06113e-09
1.73131e-09
-2.47813e-10
-6.00052e-09
-8.88236e-10
-2.58848e-10
7.14757e-09
-6.06043e-09
-2.20316e-10
2.80199e-10
6.62017e-09
-7.15775e-10
-5.21149e-09
1.69117e-09
-4.90145e-10
6.95736e-10
3.01434e-09
4.87907e-10
2.72675e-09
-3.70487e-09
4.32066e-09
4.97019e-09
-4.72269e-09
5.27448e-09
1.42699e-09
5.41202e-09
-3.5783e-10
5.84889e-09
1.66884e-09
4.23542e-09
-4.0985e-09
-1.80577e-09
2.42815e-09
-9.18106e-10
1.58802e-10
3.01043e-09
-9.6126e-11
1.32104e-09
2.60349e-09
2.83508e-09
-4.6644e-09
3.00218e-09
1.5661e-09
-6.9132e-10
2.7871e-10
-4.25181e-09
-1.43524e-10
-4.64631e-09
-8.09917e-09
-6.83775e-10
4.51869e-09
4.26424e-09
-8.25976e-10
3.36803e-10
-7.61001e-09
1.51975e-09
-2.72745e-09
2.89588e-10
1.08364e-09
-3.86165e-09
5.78017e-09
-2.36552e-09
6.05267e-09
-2.6288e-09
-3.79337e-09
4.05665e-09
-1.20718e-09
9.8118e-11
-2.36258e-09
-3.18471e-09
1.75389e-09
-3.18789e-09
-3.81858e-10
6.8595e-09
-5.0591e-10
-7.17957e-09
2.99101e-09
1.61801e-10
-3.03277e-09
-4.11855e-09
4.77559e-09
-3.50305e-09
-3.53199e-09
1.14966e-09
-9.55377e-09
3.66553e-09
4.73856e-09
-1.35058e-08
8.45744e-09
6.19801e-09
-6.26181e-09
3.68292e-09
-1.09269e-08
-3.57235e-09
-1.22432e-08
-3.85682e-09
5.16613e-10
8.3138e-09
-4.9736e-09
-3.58415e-09
-1.38627e-10
-1.3405e-10
-4.57008e-09
-5.54514e-09
4.07462e-09
6.04059e-09
-3.67708e-09
-8.55504e-10
-3.75078e-11
-6.32853e-09
5.01422e-09
9.77174e-09
-5.92232e-10
-2.05339e-09
-4.96548e-09
-1.17192e-09
-3.53373e-09
-5.10884e-09
9.60545e-09
-4.4013e-09
-3.8366e-11
1.69677e-09
5.89598e-09
-1.11651e-08
3.61559e-09
-5.45256e-09
9.21217e-10
-1.08863e-09
6.06339e-09
1.35509e-10
-9.13446e-09
-1.08517e-08
1.726e-08
2.72611e-09
1.48162e-08
-1.05285e-08
-1.34223e-08
-2.56407e-08
7.19903e-09
-2.8049e-09
2.12464e-08
1.81299e-09
-1.26376e-08
1.74807e-08
-8.3619e-09
-7.30578e-09
5.29789e-09
1.93817e-08
8.56456e-09
-5.35498e-09
-1.40613e-08
3.10053e-09
1.13545e-08
-9.15286e-09
7.68139e-09
-6.89047e-09
9.93648e-09
-1.87623e-08
-3.27042e-10
1.50816e-08
1.92069e-08
-2.4352e-08
1.41214e-08
2.87244e-09
-1.91233e-09
1.67964e-08
-7.97347e-09
-1.1416e-09
-8.58578e-10
2.29529e-08
-1.17894e-08
1.39249e-08
1.19859e-08
-5.56032e-10
1.23643e-08
-9.27314e-10
-4.82399e-09
1.78903e-08
1.06409e-08
-1.05621e-08
1.63302e-08
3.3607e-10
-6.10414e-09
-1.07819e-10
-1.23638e-08
1.90957e-09
-1.49896e-09
-1.45126e-08
-1.12053e-09
1.71321e-08
-8.98627e-09
-1.72379e-09
9.21108e-09
1.21035e-09
-8.12913e-09
-2.06752e-09
-1.17154e-08
-1.58694e-09
-4.93387e-09
-9.48854e-09
8.41644e-09
6.00594e-09
-3.19061e-10
-1.36584e-09
6.06928e-09
-1.4192e-08
-1.27548e-09
8.57137e-09
-7.12861e-09
-6.06886e-09
7.94382e-09
5.25363e-09
-6.99527e-09
-4.92371e-11
-8.41179e-11
7.15481e-09
-9.08588e-09
-5.06421e-09
9.04226e-11
9.95514e-10
1.26032e-09
8.87771e-09
-1.02459e-08
8.56635e-10
-8.6822e-09
6.00513e-11
6.11144e-09
-5.31487e-09
1.17643e-08
-1.00519e-08
-1.65236e-09
6.70451e-09
3.69397e-09
-1.05723e-09
7.27724e-09
-7.6447e-09
5.31196e-09
6.12502e-09
-6.28223e-11
8.39003e-10
5.18482e-09
1.22157e-08
-3.54704e-09
4.6354e-09
-1.33041e-08
5.84263e-09
7.89147e-09
-1.51844e-09
6.67631e-09
1.57686e-08
-4.03818e-09
-1.84068e-08
1.47004e-08
-3.36312e-10
-7.68785e-09
-4.10016e-09
1.38644e-08
4.9361e-09
1.26584e-08
-9.90005e-10
2.7029e-10
1.02286e-08
-1.40459e-08
-1.05619e-08
1.11421e-08
5.26239e-09
-6.26283e-09
-5.47366e-10
-1.52995e-08
5.49986e-09
1.03469e-08
5.00224e-09
8.3148e-09
1.07516e-08
-1.45195e-08
-7.04981e-09
4.40867e-09
1.59778e-09
9.82441e-09
-1.19365e-09
9.68492e-09
-1.95692e-10
5.13665e-09
2.82299e-09
1.72524e-09
7.7203e-09
8.55847e-09
9.7805e-10
1.17444e-08
-8.14902e-09
1.46269e-08
3.8531e-09
-1.51356e-10
-1.02127e-08
4.88666e-09
3.46477e-09
-8.2284e-09
6.25906e-09
1.21062e-08
-8.8185e-10
5.92311e-10
-7.48599e-09
-1.55552e-09
1.53006e-08
-6.13061e-09
-9.45383e-09
7.96932e-09
7.61511e-09
-7.26881e-09
2.56355e-10
-8.51632e-10
4.77704e-09
3.63521e-09
7.85162e-09
-1.30925e-08
1.20246e-08
-1.12541e-08
1.16091e-08
-1.10263e-08
2.64693e-09
-4.91692e-10
-8.00118e-09
1.4415e-08
1.3059e-08
1.61251e-09
4.20619e-09
6.97911e-09
1.24408e-09
9.06077e-11
-1.5381e-09
1.14672e-08
-3.73106e-09
7.10013e-09
-4.9727e-09
-9.98593e-10
1.42471e-08
-3.47674e-09
1.62686e-08
-5.80002e-09
1.65778e-08
-6.09694e-09
-2.06565e-09
-8.41525e-09
4.09443e-09
1.8653e-09
1.06181e-08
-1.36146e-08
4.82864e-09
1.28804e-08
-1.26114e-08
-6.18271e-09
6.51425e-10
1.30421e-08
-7.51078e-09
-4.50232e-09
5.29872e-09
3.10025e-09
7.20341e-09
3.94338e-09
6.30255e-09
1.30662e-08
-5.99914e-09
-5.87095e-09
9.80442e-09
6.97668e-09
-9.6137e-09
1.17826e-08
-9.60932e-09
7.77326e-09
1.31906e-08
-4.81494e-09
-2.06819e-09
-3.61029e-09
-1.503e-08
1.20273e-08
6.61305e-09
7.70083e-09
-1.23883e-08
1.07714e-09
-9.03944e-09
-4.9496e-09
2.17623e-08
-7.24051e-09
5.9019e-09
-1.12667e-08
-4.69071e-09
-5.38463e-09
9.80641e-09
-1.56885e-08
-8.86738e-09
-3.18808e-09
7.06128e-09
-1.78009e-08
-1.98814e-10
-2.38307e-09
1.77186e-08
-2.00496e-09
-1.24661e-09
9.58535e-09
5.04485e-09
-1.33836e-08
8.7242e-09
4.33979e-09
-1.43106e-08
1.39687e-08
8.55264e-09
-1.37972e-08
9.4238e-10
9.36486e-09
-7.21919e-10
1.51901e-08
-2.79063e-10
9.4809e-12
-8.86017e-09
1.27054e-08
-3.85469e-09
1.33898e-08
-4.01546e-09
-5.3085e-10
1.74523e-08
3.58192e-09
-2.05034e-08
1.28254e-08
-1.51366e-08
1.7803e-09
1.49027e-09
8.08337e-09
-5.23386e-09
1.81704e-08
-8.12747e-09
1.55152e-09
1.68995e-08
-2.80649e-10
1.49516e-08
1.78998e-09
5.01297e-09
-2.18872e-09
1.05655e-08
6.4156e-09
-1.02309e-08
-1.18134e-08
3.36826e-09
1.34581e-08
-1.24946e-10
1.01688e-09
2.28589e-10
1.59651e-08
-4.67546e-09
2.23564e-08
-1.68297e-08
1.56822e-09
-2.79567e-09
5.73735e-09
1.39577e-08
9.96724e-09
-1.30341e-08
2.61997e-09
1.45904e-08
-1.1719e-08
5.21198e-09
1.56523e-08
4.77409e-09
-5.66077e-09
-6.42338e-09
7.31006e-09
-6.27689e-09
2.74146e-09
-2.81637e-09
6.35179e-09
-3.94234e-09
-2.67155e-09
3.36961e-10
-1.02384e-09
8.53939e-09
-4.97426e-09
-3.24727e-09
7.19768e-09
-6.28888e-09
3.73021e-10
3.09947e-09
-6.04823e-09
-4.183e-09
-6.00228e-10
-8.93899e-09
4.56495e-09
-1.11937e-08
4.93267e-09
-3.66823e-09
-2.96207e-09
2.06895e-10
-5.94646e-09
3.07222e-09
-3.76735e-09
-8.07693e-09
5.89782e-09
-5.072e-09
2.70818e-09
-1.40354e-09
-2.26614e-09
-1.08828e-08
-1.02841e-08
-4.57787e-09
-5.62628e-09
-7.35754e-12
1.88633e-09
-1.02007e-08
-7.52599e-10
-5.47822e-09
-3.44866e-09
-7.58801e-09
-7.18861e-09
-7.98775e-09
1.3884e-08
6.8173e-11
2.00929e-10
2.41526e-09
1.08195e-08
-2.23116e-09
-1.00468e-08
4.87914e-09
7.39877e-09
-8.12806e-09
3.41049e-09
2.4864e-09
3.91407e-09
-6.7404e-09
7.7974e-09
-4.97105e-09
-5.27001e-09
-8.62731e-10
-6.72935e-09
1.33016e-08
-1.69309e-09
-3.46862e-09
4.81859e-09
-6.61998e-09
1.83671e-09
-1.20457e-08
3.96419e-09
5.19465e-09
-1.21747e-08
3.01585e-09
6.42264e-09
-9.30082e-09
6.84235e-09
6.26268e-09
-1.05267e-09
7.0262e-10
6.77267e-09
-6.25798e-09
-5.85972e-10
5.79127e-09
8.58626e-10
-4.16813e-09
6.78333e-09
-1.71213e-08
2.71942e-09
-2.67995e-09
-1.14176e-09
-3.87788e-09
-2.65974e-10
-3.99372e-09
-1.90283e-09
-2.55403e-09
1.73484e-09
-3.17454e-09
4.38351e-09
-7.03525e-09
9.77537e-11
7.18021e-10
-2.12372e-10
-1.67819e-09
-6.02082e-10
1.85902e-11
-3.29078e-10
-4.31128e-09
-4.15877e-10
-4.057e-09
-1.20355e-08
-5.7055e-09
1.3176e-08
-4.99631e-11
8.87027e-09
9.39561e-10
-9.75989e-09
5.18947e-09
4.47672e-10
-5.68713e-09
4.36692e-09
1.11203e-08
-6.61698e-09
9.40013e-09
1.56239e-10
8.83689e-09
2.96762e-09
-6.84223e-10
7.11482e-09
-4.44777e-09
6.16982e-09
-1.22918e-08
2.27467e-09
1.29847e-08
-7.79347e-09
-1.65338e-08
7.62198e-09
-1.30689e-09
-9.51992e-10
6.87584e-09
-7.38018e-09
7.54617e-10
-9.10928e-09
1.08001e-08
2.09026e-09
-6.89677e-09
-5.99345e-09
6.81684e-09
6.82056e-09
-1.96103e-09
-1.16761e-08
9.8945e-09
7.72248e-09
-4.86712e-09
-3.44816e-09
9.07086e-09
-7.55509e-10
-2.9943e-09
8.02173e-09
-3.6746e-09
-4.16484e-09
2.54537e-09
5.2941e-09
-7.57868e-09
4.87838e-09
-9.74277e-10
-3.43586e-09
1.14836e-09
-1.87727e-09
-2.53388e-09
-8.48066e-09
5.88508e-09
-2.64644e-09
-1.90225e-09
5.27464e-09
1.66095e-09
1.22994e-09
5.30252e-09
-2.81601e-10
-1.42501e-10
5.95307e-09
-9.88499e-09
1.39811e-09
-1.1747e-09
3.79547e-09
2.68176e-09
6.2341e-09
-5.62603e-10
3.15716e-09
-3.51849e-09
8.86279e-09
-5.39201e-09
4.77228e-11
1.11407e-08
-1.1587e-08
-6.2284e-09
6.72273e-09
7.82089e-09
-8.31524e-09
-1.13226e-09
-5.27543e-09
1.79271e-10
-5.53315e-09
4.76943e-09
9.62649e-09
1.01085e-09
4.5967e-09
5.04325e-09
1.76264e-10
2.2196e-09
8.42439e-09
-2.10462e-09
6.87237e-09
3.90481e-10
-1.00092e-10
1.15923e-08
4.94515e-09
-4.92289e-09
8.40213e-09
1.17174e-08
3.28562e-09
1.49271e-08
-3.47619e-09
-3.99414e-10
-1.10515e-08
1.12003e-09
1.26391e-08
1.16803e-09
1.03803e-08
-2.46878e-09
-1.13877e-08
9.13494e-09
2.36536e-09
8.94486e-09
-2.14985e-09
-7.19443e-09
3.42233e-09
9.10444e-09
1.33315e-08
2.72988e-09
-1.03599e-08
5.74128e-09
3.35712e-09
1.04678e-08
-4.7205e-09
-4.98285e-09
-1.01674e-08
1.85074e-08
-7.14628e-09
7.34742e-09
1.02667e-08
8.12881e-10
5.37232e-09
5.05766e-09
-3.42108e-11
-1.67763e-08
1.17529e-08
2.16932e-08
-9.07953e-09
-5.26622e-09
3.39545e-09
1.07971e-08
1.03212e-09
-1.19606e-10
1.23214e-08
-1.32339e-08
-3.82595e-10
-5.53012e-09
6.05794e-09
-1.45272e-10
1.09953e-08
7.62659e-10
-7.45039e-09
-4.30759e-09
8.13243e-09
-7.64194e-09
1.05047e-08
-5.60343e-09
8.94131e-10
5.74141e-09
-5.77405e-09
-2.12002e-10
5.73521e-10
-1.22914e-08
1.15983e-08
6.66981e-09
-8.64027e-09
-3.55968e-09
1.75542e-10
8.53036e-09
-5.73498e-09
9.96241e-09
1.15476e-08
-2.32018e-09
-2.55763e-09
4.77957e-09
-2.75742e-09
-9.47257e-09
3.1166e-10
-3.17404e-09
-9.60303e-09
-4.77223e-09
-2.51406e-10
-5.72798e-09
2.05337e-10
-8.40122e-09
-2.60035e-09
1.39853e-09
4.44003e-09
-8.28952e-09
1.09203e-09
6.57447e-09
3.49459e-09
-5.62904e-09
6.19118e-09
1.31876e-10
6.04444e-09
-2.23821e-09
6.47259e-09
5.76303e-09
7.54226e-09
-8.8169e-09
1.33069e-08
5.89234e-09
-1.03823e-08
-1.09392e-08
2.11991e-09
2.37585e-12
-5.43887e-09
-1.15662e-08
1.12576e-08
5.74754e-09
-1.16419e-08
1.3142e-08
-2.52675e-09
1.02649e-09
1.47468e-08
-1.02181e-08
-1.61706e-08
-5.41872e-09
1.53433e-08
3.21739e-09
1.17825e-08
-2.45439e-09
1.02841e-08
-4.18223e-10
-1.53048e-08
1.03268e-08
-2.18439e-09
2.14164e-09
9.22936e-11
4.33325e-09
6.04411e-09
-1.04697e-08
-1.73739e-08
7.41458e-09
1.00515e-08
-9.6776e-09
-3.01143e-09
-4.68487e-09
-1.60092e-08
5.37284e-09
7.97351e-09
-1.81644e-10
3.99057e-09
8.31619e-09
1.50006e-08
7.14312e-09
3.00203e-09
6.08414e-09
1.1556e-08
7.05796e-09
1.29295e-08
-1.25729e-08
1.20835e-09
1.20189e-08
1.65825e-08
5.66955e-09
-2.76925e-09
-9.51343e-10
-1.94897e-09
6.00448e-09
2.65407e-09
-2.98898e-09
-1.20919e-09
4.04439e-09
-7.57053e-09
4.73534e-09
-4.77949e-09
-4.26625e-09
5.37713e-09
3.66862e-09
-4.25331e-09
-2.75762e-10
-2.50417e-10
9.63075e-09
-8.20546e-09
-5.67861e-09
3.1608e-09
2.54385e-09
3.98865e-11
-6.5846e-09
4.00087e-09
2.60324e-09
-3.53623e-09
3.47684e-09
-3.69898e-09
2.44842e-09
1.29042e-09
2.21077e-09
2.58451e-09
6.78405e-09
-7.48029e-09
-3.73768e-10
1.07001e-09
-7.0694e-10
1.08319e-08
-3.34091e-09
-2.83262e-09
7.5028e-09
-3.37437e-09
2.75252e-09
-3.38161e-09
-2.68522e-10
-8.7452e-10
-5.88123e-09
-1.44971e-09
-9.51471e-09
5.19522e-09
-7.78599e-09
-4.34022e-09
-1.88948e-09
2.2201e-09
4.00962e-09
-5.43753e-10
-3.38149e-09
-4.14965e-10
2.60806e-09
-2.78326e-09
-3.68536e-10
-5.63238e-09
8.48709e-10
2.8942e-09
-4.39133e-09
-4.62254e-09
1.74202e-09
5.21678e-09
-7.20053e-09
2.41772e-10
6.08554e-09
-7.8528e-09
3.50928e-09
-3.92034e-09
-1.83144e-10
6.32359e-09
-3.71829e-09
2.40601e-09
-2.39735e-09
7.431e-09
4.53689e-09
4.378e-09
-1.48826e-09
-1.07425e-08
-1.3488e-10
-2.68763e-09
-2.16014e-09
2.4837e-09
-3.1068e-09
-8.03973e-09
-1.36947e-09
3.78772e-09
-5.31001e-09
3.24704e-09
-1.72475e-09
-3.4248e-09
4.80912e-09
2.40341e-09
-2.45115e-09
-7.73832e-10
-1.99863e-10
-3.00721e-09
-4.75396e-09
-5.47619e-09
1.34184e-11
4.76557e-09
6.97223e-10
-4.9874e-10
-1.68331e-10
-8.23385e-09
1.85675e-09
1.43351e-09
4.94361e-09
7.75945e-09
-3.52531e-09
-9.87074e-10
-9.73126e-10
-4.18853e-09
3.42533e-10
-3.09719e-09
6.94325e-09
-1.42681e-09
4.64279e-09
-7.4045e-09
3.1573e-09
-7.22404e-09
2.64003e-09
4.97019e-09
-1.47035e-09
-3.42546e-09
-9.46088e-10
2.53507e-09
1.83651e-09
1.31149e-09
-3.7038e-09
-1.42109e-09
3.8134e-09
-1.98347e-09
-1.30505e-10
-2.18862e-09
-4.17488e-09
4.85261e-09
1.5109e-09
-3.82449e-09
-3.47611e-10
4.63086e-09
-2.68838e-09
-5.76695e-09
-2.2168e-09
2.67278e-09
-1.50951e-09
4.04573e-09
-5.63338e-09
-5.69384e-09
-2.33281e-09
8.02629e-10
2.397e-09
2.00515e-09
1.95387e-09
-6.64735e-09
2.26468e-09
-5.60751e-09
5.348e-09
1.07914e-09
-2.82907e-09
-2.35001e-09
-3.84776e-11
-6.45259e-09
6.84516e-09
-3.54133e-10
-4.42995e-09
4.54118e-09
-1.4973e-10
-9.6681e-09
4.44648e-09
-3.00936e-10
-1.15924e-08
4.47078e-09
7.58123e-10
-5.52984e-09
1.99742e-10
-1.58929e-10
-8.83691e-10
-3.78303e-10
8.10714e-09
4.653e-09
7.81801e-09
-5.27906e-09
-8.06256e-09
5.52358e-09
-4.76284e-09
-1.01643e-10
9.09827e-09
-1.1335e-09
-8.07427e-09
7.44263e-09
2.43018e-10
-1.18785e-08
-9.65687e-11
1.53398e-08
-1.63696e-08
1.2727e-09
-2.77538e-09
1.5047e-08
-9.66718e-10
-1.2759e-08
2.20765e-09
1.1518e-08
-1.94306e-08
6.52068e-09
-1.06647e-08
-7.73447e-09
-5.7656e-09
-1.14021e-09
2.44462e-09
-7.19011e-09
-8.01353e-09
-7.54634e-09
-9.43961e-09
-9.92983e-09
1.08555e-08
-8.72744e-09
5.68277e-09
-2.72091e-09
-2.03004e-09
8.12494e-09
-1.48224e-08
7.39244e-09
-2.00873e-08
-1.65235e-08
-6.00965e-09
1.76258e-09
-5.07484e-09
-4.11748e-09
-4.67078e-09
-1.28386e-09
1.00721e-08
-2.27773e-09
4.92216e-09
-6.762e-09
-6.05013e-11
-6.888e-09
-6.21908e-09
-8.49241e-10
7.22068e-10
6.34619e-09
6.76321e-09
-1.52621e-08
2.27974e-09
-1.17855e-09
7.09252e-09
-8.85988e-09
1.74418e-08
-9.86583e-09
5.66453e-10
6.46963e-10
-1.00733e-08
-2.07963e-08
1.73508e-09
6.28979e-09
-8.28678e-09
-5.38018e-09
-7.12932e-09
-2.03009e-08
8.34719e-09
1.36888e-08
-1.17179e-08
4.45376e-09
-1.30368e-08
-7.30289e-09
-1.27018e-08
-6.75139e-09
3.91336e-09
9.12785e-09
1.71323e-08
9.35678e-09
-1.21139e-08
-1.43752e-08
-5.89061e-09
1.70087e-08
6.01417e-09
1.65621e-08
-6.76396e-09
-5.34446e-09
3.98709e-09
2.09222e-08
2.05856e-09
2.38633e-09
-1.11962e-08
1.35768e-09
1.00577e-08
1.02842e-08
-1.28052e-09
-2.11176e-08
-2.37037e-09
1.35494e-08
-5.649e-09
-1.71098e-08
8.52638e-09
-1.83019e-09
-1.93019e-09
-1.07592e-08
-3.10115e-09
-1.27749e-08
1.28369e-08
-9.32066e-09
-1.62576e-09
-1.89052e-09
8.37788e-09
-2.95814e-09
-8.29273e-09
-4.75761e-10
7.02796e-09
-9.65338e-09
3.95192e-09
1.31825e-09
-5.74601e-09
-8.28609e-09
-2.81224e-09
-1.29021e-08
1.18656e-08
-7.25296e-09
-9.40818e-09
-5.88094e-09
-3.06926e-09
1.01616e-08
-9.01464e-09
-9.926e-09
5.66758e-10
1.64922e-09
1.58e-08
-2.33984e-09
-1.31962e-08
1.56218e-08
-7.76467e-10
-7.50949e-09
-1.18469e-09
-1.45408e-08
1.41046e-08
-9.21019e-10
1.35719e-09
-2.52933e-09
5.03322e-10
-1.25148e-08
1.3227e-08
-2.88198e-10
1.16581e-09
2.35286e-09
-9.8548e-10
1.18596e-08
1.22006e-08
-1.30685e-08
5.79715e-10
2.06947e-09
1.24839e-08
-2.49057e-09
-7.30121e-09
9.91993e-09
-1.28191e-10
-1.39704e-08
-1.58864e-09
1.12059e-08
1.72162e-09
-1.10135e-08
-3.60478e-09
-1.27453e-08
1.14224e-08
4.01899e-10
-1.29794e-08
-2.95228e-09
3.21192e-09
1.53622e-08
2.58386e-10
1.1213e-08
-1.17455e-08
9.42711e-10
9.49418e-09
9.17787e-09
-1.39916e-08
-1.22503e-08
1.1725e-08
1.45168e-08
8.41994e-09
-7.56227e-09
-1.48493e-08
-2.27011e-08
8.86349e-10
9.56434e-09
-1.02982e-10
-1.41782e-08
6.36838e-09
-7.60754e-09
1.80231e-08
-1.6784e-08
-3.37155e-09
-6.12331e-09
1.58632e-08
2.54162e-08
-8.9325e-09
-1.65867e-08
1.54175e-08
1.0885e-08
3.83154e-09
5.81852e-09
-1.72577e-08
7.39914e-09
-6.93921e-09
6.14409e-09
-1.49883e-08
2.68672e-08
1.78196e-08
-1.9353e-08
1.18885e-08
2.13486e-08
6.68932e-09
-8.43311e-09
1.61715e-08
-3.33815e-09
4.86651e-09
8.25335e-10
1.35734e-08
-1.92653e-08
5.42582e-09
1.56669e-08
-1.62262e-08
4.82955e-09
1.21673e-08
-2.76803e-09
2.00823e-08
1.37865e-08
6.09228e-09
-8.63749e-10
4.2209e-09
-3.8341e-09
3.87722e-09
-3.98507e-09
1.21096e-08
-1.20019e-08
1.31165e-09
1.446e-08
-1.18944e-08
-1.05609e-08
1.45658e-08
-1.73025e-09
1.26501e-08
4.20474e-09
-5.5762e-09
7.66536e-09
1.2053e-08
8.9982e-09
-1.39318e-08
-7.11947e-09
-1.30582e-09
1.46705e-08
1.82437e-08
-1.20124e-08
2.76691e-09
-3.47388e-09
2.04117e-08
-1.49543e-09
1.20761e-08
6.29782e-09
-1.54491e-08
1.33561e-08
-9.82895e-11
-9.61265e-09
9.2138e-09
-2.02132e-08
-1.01313e-09
-3.57762e-09
9.31754e-09
1.55281e-08
-2.06011e-08
-1.40136e-08
1.02456e-08
-6.73822e-09
1.1523e-08
-1.50304e-08
1.09855e-08
9.01387e-10
-1.64132e-09
2.01145e-09
3.92517e-09
-1.26749e-08
5.20942e-09
8.06924e-09
-1.12672e-08
1.92263e-08
-4.08565e-09
-3.61772e-09
6.86929e-09
1.2066e-08
2.9096e-10
7.5495e-09
2.96457e-09
9.43023e-09
-7.18538e-09
-1.49923e-09
8.34152e-09
-3.87774e-09
1.05442e-08
-1.57357e-09
8.49522e-09
1.04155e-08
-4.93188e-09
1.21018e-08
-4.70564e-09
9.20168e-09
3.84548e-09
4.764e-09
-3.9432e-11
4.31253e-09
-3.93079e-09
8.87087e-09
2.05665e-10
-4.03547e-09
8.37541e-09
3.09513e-11
5.45264e-09
5.19714e-09
-8.74881e-09
-1.48241e-08
9.05744e-09
-1.43922e-08
-7.97815e-10
6.44118e-09
-1.5329e-10
-7.09278e-09
-7.14609e-09
1.33226e-08
-6.87453e-09
-6.60134e-09
7.03327e-09