/*--------------------------------*- C++ -*----------------------------------*\
| =========                 |                                                 |
| \\      /  F ield         | OpenFOAM: The Open Source CFD Toolbox           |
|  \\    /   O peration     | Version:  v1612+                                |
|   \\  /    A nd           | Web:      www.OpenFOAM.com                      |
|    \\/     M anipulation  |                                                 |
\*---------------------------------------------------------------------------*/
FoamFile
{
    version     2.0;
    format      ascii;
    class       volVectorField;
    location    "150";
    object      wallShearStress;
}
// * * * * * * * * * * * * * * * * * * * * * * * * * * * * * * * * * * * * * //

dimensions      [0 2 -2 0 0 0 0];

internalField   uniform (0 0 0);

boundaryField
{
    WALL
    {
        type            calculated;
        value           nonuniform List<vector> 
1703
(
(-0.000540217 -0.0209488 -0.0104826)
(-0.000932227 -0.0230852 -0.00963774)
(0.00171415 -0.016462 -0.0112918)
(0.00169055 -0.0167105 -0.0110951)
(0.000491358 -0.022591 -0.0126049)
(0.001127 -0.0244034 -0.0112466)
(0.0028642 -0.0194817 -0.0123055)
(0.00231685 -0.0186586 -0.0124078)
(0.000495086 -0.010176 -0.00382238)
(0.000242783 -0.0099665 -0.00363274)
(0.00173102 -0.0144365 -0.00547399)
(0.00195857 -0.0155342 -0.00600486)
(-0.000133099 -0.0228199 -0.0118476)
(0.000614452 -0.0222465 -0.0115965)
(0.00408167 -0.0195451 -0.0111079)
(0.00583126 -0.0211841 -0.0116222)
(0.00526487 -0.0262671 -0.0039839)
(0.00620901 -0.0267247 -0.00386951)
(0.00292709 -0.0285899 -0.00319287)
(0.00290888 -0.0294019 -0.00309079)
(0.00468787 -0.0203589 -0.00648077)
(0.00427708 -0.0196336 -0.0071862)
(0.00257228 -0.0237245 -0.0103722)
(0.00322999 -0.0246257 -0.0102046)
(0.00358245 -0.0148235 -0.00234191)
(0.00352402 -0.015015 -0.00191232)
(0.00341203 -0.0158595 -0.00320738)
(0.00391287 -0.0160595 -0.00203674)
(0.00145446 -0.0205915 -0.0125124)
(0.00049489 -0.0234486 -0.0122865)
(0.000654613 -0.0239436 -0.0108867)
(0.00130627 -0.0217547 -0.0126767)
(0.000485018 -0.0221133 -0.0122513)
(0.00101407 -0.0205087 -0.0121336)
(-0.000305071 -0.0273639 -0.00830048)
(0.00145018 -0.0273981 -0.00610192)
(0.000923033 -0.025717 -0.00619609)
(0.00156615 -0.0281926 -0.00726953)
(-0.000451862 -0.0265525 -0.00833765)
(6.42652e-05 -0.0267735 -0.00754316)
(0.00332381 -0.023105 -0.00995932)
(0.00383169 -0.0210916 -0.00961143)
(0.00380453 -0.0221647 -0.00973832)
(0.00304869 -0.0224665 -0.0103684)
(0.0032673 -0.0210674 -0.00992269)
(0.00191317 -0.0264192 -0.0053054)
(0.00206812 -0.0277855 -0.00573)
(0.00291169 -0.0275703 -0.00534112)
(0.00254052 -0.0278522 -0.00500232)
(0.00222496 -0.0271337 -0.00495939)
(0.00298838 -0.0303024 -0.00610517)
(0.00622533 -0.0258268 -0.0051121)
(0.00645745 -0.0272758 -0.0052609)
(0.00539817 -0.0252575 -0.00474945)
(0.0057501 -0.0276182 -0.00562471)
(0.00474921 -0.0268838 -0.00527547)
(0.00552237 -0.0268757 -0.00539955)
(0.00592324 -0.0230632 -0.00554888)
(0.00541489 -0.0222157 -0.00517053)
(0.00546928 -0.024135 -0.00407912)
(0.00571917 -0.0247868 -0.00510936)
(0.00574372 -0.0219923 -0.00628635)
(0.0055278 -0.0245344 -0.004842)
(0.00734576 -0.0216519 -0.00586874)
(0.00783435 -0.0243456 -0.00756625)
(0.00730889 -0.0203125 -0.00766808)
(0.00846952 -0.0221172 -0.00719774)
(0.00760038 -0.0214272 -0.0067935)
(0.00910059 -0.0246225 -0.00775046)
(0.00161437 -0.01317 -0.0052539)
(0.00106138 -0.0115191 -0.00426563)
(0.00106117 -0.0116294 -0.00421002)
(0.00104054 -0.0109059 -0.00386976)
(0.0010586 -0.0124541 -0.00536784)
(0.00148433 -0.0128265 -0.0050069)
(0.000969302 -0.0120314 -0.00461148)
(0.0106492 -0.0245931 -0.00688012)
(0.0107142 -0.0263813 -0.00669902)
(0.0103614 -0.0261291 -0.00668831)
(0.0115151 -0.0279695 -0.00881362)
(0.0109139 -0.0254659 -0.0092445)
(0.0108199 -0.0264562 -0.00809515)
(0.0080867 -0.0266697 -0.00580389)
(0.00886645 -0.0261409 -0.00585532)
(0.00940105 -0.0267707 -0.00652558)
(0.00873647 -0.0282248 -0.00643918)
(0.00908024 -0.0258871 -0.00633923)
(0.00860508 -0.0271862 -0.00584828)
(0.00233429 -0.00945826 -0.00177009)
(0.00208133 -0.00984274 -0.00197647)
(0.00284672 -0.0106633 -0.00178673)
(0.00224678 -0.0106865 -0.00214011)
(0.00255689 -0.0106644 -0.00189193)
(0.00265501 -0.00977422 -0.00184379)
(0.00326047 -0.0273698 -0.00736846)
(0.00262941 -0.0273531 -0.00665903)
(0.00277141 -0.0283763 -0.00734861)
(0.00253329 -0.0261756 -0.00694673)
(0.00285871 -0.0260104 -0.00708807)
(0.00286289 -0.0260425 -0.00640163)
(0.00430857 -0.0236747 -0.0050605)
(0.00361813 -0.025071 -0.00619715)
(0.00385333 -0.0237012 -0.00615975)
(0.0042086 -0.0248614 -0.00533988)
(0.00431863 -0.0232622 -0.00531888)
(0.00404134 -0.0247732 -0.00608187)
(0.00362982 -0.0262176 -0.00744021)
(0.00386081 -0.0250397 -0.00791702)
(0.00338174 -0.0255816 -0.00805215)
(0.00435349 -0.0244684 -0.00707846)
(0.00328543 -0.0267003 -0.00845686)
(0.00418615 -0.0247791 -0.00669375)
(0.00481527 -0.0229017 -0.00596215)
(0.00464338 -0.0217287 -0.00469726)
(0.0047358 -0.0206609 -0.00434806)
(0.0045965 -0.0208317 -0.004713)
(0.00456614 -0.0211686 -0.0058421)
(0.00464618 -0.022739 -0.00539509)
(0.00325905 -0.0240118 -0.00951596)
(0.00291303 -0.0264252 -0.00971506)
(0.00237372 -0.0260725 -0.00984612)
(0.00294206 -0.0248383 -0.00974947)
(0.00287914 -0.0248443 -0.00975397)
(0.00234085 -0.0257127 -0.00985576)
(0.00220092 -0.0277468 -0.0090004)
(0.00231419 -0.0276236 -0.00851176)
(0.00206389 -0.0280469 -0.00863)
(0.00239088 -0.0263196 -0.0089551)
(0.00198061 -0.0268062 -0.0091762)
(0.0023681 -0.02668 -0.00878748)
(0.00248022 -0.0269085 -0.00730702)
(0.00249979 -0.0266226 -0.00817286)
(0.00293479 -0.0278102 -0.0078273)
(0.00309677 -0.0262748 -0.00740185)
(0.00327966 -0.0268269 -0.00779592)
(0.00286364 -0.0277523 -0.0073407)
(0.00224446 -0.0261419 -0.00613715)
(0.0021965 -0.0281476 -0.00705809)
(0.00238276 -0.0269473 -0.00604325)
(0.00289063 -0.0259853 -0.00670676)
(0.00304703 -0.0274903 -0.00657203)
(-0.000638357 -0.0256275 -0.00768266)
(-0.000984308 -0.023571 -0.00765444)
(-9.67057e-05 -0.0246042 -0.00652866)
(-0.0011681 -0.0244906 -0.00864444)
(-0.00150257 -0.02297 -0.00873407)
(-0.000726958 -0.0220208 -0.00956274)
(-0.00152916 -0.0234 -0.00917601)
(-0.000825681 -0.0228931 -0.0111281)
(-0.00037674 -0.0204221 -0.0106273)
(-0.000435272 -0.0218281 -0.00980906)
(-0.000616908 -0.0237818 -0.0101101)
(-0.000600285 -0.0230009 -0.00929889)
(-0.000749783 -0.0216216 -0.0107401)
(-0.000529946 -0.0208789 -0.0114937)
(0.00788237 -0.0279155 -0.00396394)
(0.00943624 -0.0298162 -0.00492911)
(0.00928773 -0.0262612 -0.00417167)
(0.00877916 -0.0261511 -0.00426544)
(0.00923441 -0.0284122 -0.00416854)
(0.0104185 -0.0258139 -0.00510088)
(0.0107554 -0.0251787 -0.00514964)
(0.0114379 -0.026172 -0.00660688)
(0.0108401 -0.0245572 -0.00610679)
(0.0112834 -0.0256393 -0.00617403)
(0.010593 -0.0255081 -0.00570697)
(0.00190386 -0.0199084 -0.00901124)
(0.00196408 -0.0187201 -0.00775064)
(0.00184436 -0.0183328 -0.00671617)
(0.00178249 -0.0176995 -0.00584123)
(0.00185818 -0.0193882 -0.00808287)
(0.00176301 -0.0178989 -0.00661624)
(0.00412697 -0.0207447 -0.0108542)
(0.00424738 -0.0218167 -0.0108651)
(0.00324344 -0.0210224 -0.00888502)
(0.00392892 -0.0214452 -0.0111507)
(0.00324203 -0.0203892 -0.00955605)
(0.00358019 -0.0212358 -0.00973974)
(0.00315878 -0.0109532 -0.00113343)
(0.00303146 -0.00934632 -0.000909531)
(0.00333834 -0.0106541 -0.00141456)
(0.0039976 -0.00950276 -0.00129516)
(0.0036635 -0.00984184 -0.00138854)
(0.00362312 -0.00980915 -0.00114767)
(0.00352934 -0.00992349 -0.00152107)
(0.00360776 -0.00886869 -0.00158686)
(0.00363016 -0.00821301 -0.00176157)
(0.00364232 -0.00930215 -0.00151472)
(0.00346427 -0.00922017 -0.00178014)
(0.00384497 -0.00839424 -0.00183421)
(0.00346278 -0.00814432 -0.00178323)
(0.00352239 -0.00803537 -0.00190211)
(0.003112 -0.00794397 -0.00174799)
(0.00352342 -0.00797901 -0.00185044)
(0.00338196 -0.00811494 -0.00184201)
(0.00349082 -0.00795979 -0.00195214)
(0.00147668 -0.0178532 -0.00561434)
(0.00144394 -0.0182294 -0.00527737)
(0.00182572 -0.0156131 -0.00328148)
(0.00149811 -0.0151178 -0.00371417)
(0.00153611 -0.0168489 -0.00487065)
(0.00203625 -0.0174177 -0.00388152)
(0.00197899 -0.0155917 -0.00394424)
(0.00193462 -0.01451 -0.00297416)
(0.00141598 -0.0146846 -0.00345918)
(0.00172343 -0.0162352 -0.00464283)
(0.00190398 -0.0148146 -0.00335443)
(0.00196986 -0.0160481 -0.00413118)
(0.00283832 -0.0113014 -0.0017795)
(0.00259151 -0.0129735 -0.00226036)
(0.00269905 -0.0119117 -0.00223129)
(0.00260889 -0.0109406 -0.00168702)
(0.003252 -0.0124228 -0.00172193)
(0.00406764 -0.0285031 -0.00475273)
(0.00315659 -0.0295009 -0.00519842)
(0.00314184 -0.0287008 -0.00519647)
(0.00298567 -0.0298623 -0.00621281)
(0.00347225 -0.0289854 -0.00566178)
(0.00438707 -0.0297892 -0.00509947)
(0.00812182 -0.026093 -0.00448292)
(0.00732483 -0.0261117 -0.00446512)
(0.00877098 -0.024951 -0.00564742)
(0.00901238 -0.0278789 -0.00617798)
(0.00694639 -0.0260192 -0.00501811)
(0.00820774 -0.0267741 -0.00472995)
(0.00844813 -0.0287084 -0.00621161)
(0.00730463 -0.0282529 -0.00557125)
(0.00616793 -0.0296228 -0.00564721)
(0.00655115 -0.0297724 -0.00591413)
(0.00708644 -0.0303988 -0.00592838)
(0.00749415 -0.0282306 -0.00586632)
(0.00825954 -0.0292705 -0.00551238)
(0.00806859 -0.0268394 -0.00642375)
(0.00714646 -0.0266439 -0.00526738)
(0.00699746 -0.025281 -0.00491397)
(0.00610901 -0.0269139 -0.00504507)
(0.00949872 -0.0247326 -0.00898836)
(0.00930121 -0.0252792 -0.00708655)
(0.00916142 -0.0251141 -0.00749592)
(0.00954542 -0.024903 -0.00868534)
(0.00997604 -0.0258527 -0.00918251)
(0.00920232 -0.0234215 -0.00739617)
(0.01043 -0.0247421 -0.00828997)
(0.00941459 -0.0226556 -0.00871583)
(0.00978529 -0.023147 -0.00973149)
(0.009712 -0.0227807 -0.00785002)
(0.0104649 -0.0246503 -0.00856129)
(0.00990944 -0.0246207 -0.00926244)
(0.0099209 -0.0259682 -0.00639933)
(0.00992398 -0.0269884 -0.00635734)
(0.0100978 -0.0249066 -0.00685645)
(0.0100895 -0.0255421 -0.00695605)
(0.0105506 -0.0264764 -0.00701281)
(0.0108768 -0.0260495 -0.00788835)
(0.00971868 -0.0286739 -0.0054731)
(0.0102316 -0.0274543 -0.00570707)
(0.00976978 -0.0264897 -0.00546965)
(0.00876124 -0.0287774 -0.00473682)
(0.01021 -0.0279068 -0.00533468)
(0.0092269 -0.0277922 -0.00534137)
(0.00608191 -0.0227434 -0.0126116)
(0.0067418 -0.0214594 -0.0123289)
(0.00562579 -0.0221165 -0.0117014)
(0.00488174 -0.0208788 -0.0121008)
(0.00678934 -0.0219287 -0.0119107)
(0.00407454 -0.0198698 -0.0109403)
(0.0055271 -0.0209436 -0.0113589)
(0.00602036 -0.0227582 -0.0114675)
(0.00597403 -0.0212373 -0.011564)
(0.0037198 -0.0191063 -0.0105544)
(0.00391745 -0.0196994 -0.0105464)
(0.00771361 -0.0225582 -0.0104082)
(0.00870026 -0.0222772 -0.0103333)
(0.00714794 -0.022015 -0.0116134)
(0.00761202 -0.0229387 -0.01158)
(0.00927813 -0.0240175 -0.0110204)
(0.00848337 -0.0225132 -0.0108128)
(0.00155068 -0.0111851 -0.00333052)
(0.00136568 -0.0122244 -0.0036572)
(0.00159356 -0.0113528 -0.00305628)
(0.00163154 -0.0110445 -0.00270166)
(0.00187837 -0.00943165 -0.00252258)
(0.0018882 -0.0101342 -0.00261391)
(-4.81756e-05 -0.0210958 -0.0115733)
(0.00195849 -0.015564 -0.0110715)
(0.000250797 -0.0184974 -0.0122145)
(0.000697019 -0.0177448 -0.0115816)
(0.00101235 -0.0183302 -0.0114878)
(0.00115273 -0.018258 -0.0118476)
(0.00043723 -0.0203222 -0.0118286)
(0.000265214 -0.0201084 -0.0112298)
(0.00322244 -0.0132987 -0.00958656)
(0.00328316 -0.0135153 -0.0101007)
(0.00385487 -0.0122028 -0.00865159)
(0.0040713 -0.0118123 -0.00806344)
(0.00290592 -0.0142107 -0.0108129)
(0.00374486 -0.0125627 -0.00943878)
(0.00455031 -0.0094254 -0.00521447)
(0.00502834 -0.00968677 -0.00463324)
(0.0049526 -0.0103957 -0.0057962)
(0.00485157 -0.00942089 -0.00509419)
(0.00460462 -0.0100816 -0.00592048)
(0.00469012 -0.00941698 -0.00455845)
(0.00465323 -0.0104009 -0.00612693)
(0.00465835 -0.00963196 -0.0046331)
(0.00487262 -0.0108114 -0.00681431)
(0.0047823 -0.0100895 -0.00554656)
(0.00457579 -0.00991193 -0.00541125)
(0.00461402 -0.00925823 -0.0049722)
(0.00431169 -0.0096289 -0.00389529)
(0.00444236 -0.00963766 -0.00439987)
(0.00414782 -0.00853618 -0.00404218)
(0.00455136 -0.00956918 -0.00479446)
(0.00402413 -0.00868341 -0.00341864)
(0.00426388 -0.00870681 -0.00367241)
(0.0037617 -0.013646 -0.0102199)
(0.00416389 -0.012615 -0.00899108)
(0.00475139 -0.0127775 -0.00927492)
(0.00464838 -0.0120602 -0.00829141)
(0.00431134 -0.0140984 -0.0104081)
(0.00371368 -0.0143401 -0.0108676)
(0.00493551 -0.012979 -0.00803627)
(0.00440828 -0.0140526 -0.00889731)
(0.00508033 -0.0138791 -0.00822629)
(0.0046113 -0.0130793 -0.00841628)
(0.00470934 -0.0146615 -0.00951671)
(0.0044038 -0.0150748 -0.010094)
(0.00945395 -0.0222044 -0.00981716)
(0.00998238 -0.0223813 -0.0105048)
(0.00869577 -0.0222813 -0.0108371)
(0.00836781 -0.0220393 -0.0115911)
(0.00935838 -0.0236708 -0.0115731)
(0.00994881 -0.0227994 -0.0108727)
(0.00312785 -0.00795228 -0.00222822)
(0.00325933 -0.00814232 -0.00235118)
(0.00287161 -0.00794502 -0.00216288)
(0.00274372 -0.00802339 -0.00206758)
(0.00325538 -0.00821097 -0.00219709)
(0.00343205 -0.00853427 -0.00261018)
(0.00308365 -0.00801165 -0.00249091)
(0.000897942 -0.0074305 -0.00111287)
(0.00121976 -0.00733295 -0.0011914)
(0.00109253 -0.00707095 -0.00121099)
(0.000756299 -0.00703318 -0.00114815)
(0.000988156 -0.00743851 -0.00103754)
(0.000932591 -0.00700362 -0.0012242)
(0.00268908 -0.00950699 -0.00235459)
(0.00231803 -0.00880608 -0.00185823)
(0.00253599 -0.00955763 -0.00203618)
(0.00265439 -0.00984027 -0.0023505)
(0.00303955 -0.0101238 -0.00288324)
(0.00230336 -0.00865424 -0.00190711)
(0.00186901 -0.00894597 -0.00152261)
(0.00120385 -0.00810445 -0.00118291)
(0.00143677 -0.00850777 -0.00128256)
(0.00160786 -0.00805829 -0.00139496)
(0.00212077 -0.00911356 -0.00163127)
(0.00192868 -0.0083473 -0.00148843)
(0.00368423 -0.00928758 -0.00332643)
(0.00404738 -0.00956287 -0.00375069)
(0.00394382 -0.00969129 -0.00380665)
(0.00380926 -0.00978864 -0.00363568)
(0.00371179 -0.00919754 -0.00314478)
(0.00348293 -0.00879365 -0.00309416)
(0.00361328 -0.0103879 -0.00375618)
(0.0040525 -0.011277 -0.0037145)
(0.00322367 -0.0098908 -0.00314167)
(0.00390609 -0.0109528 -0.00458865)
(0.00338164 -0.00918524 -0.00326586)
(0.000625807 -0.00836425 -0.000627392)
(0.000633241 -0.00872262 -0.000467519)
(0.000591286 -0.00949653 -0.000311183)
(0.000662434 -0.00775809 -0.00192134)
(0.00066103 -0.00745532 -0.00198425)
(0.000571144 -0.00679996 -0.00170528)
(0.000904817 -0.00728859 -0.00168825)
(0.000910153 -0.0068984 -0.0016305)
(0.00123617 -0.00721461 -0.0015874)
(0.0014726 -0.0158275 -0.00664585)
(0.00178409 -0.0158287 -0.00565548)
(0.00164037 -0.0165606 -0.00689768)
(0.00138441 -0.0168276 -0.00766075)
(0.00166664 -0.0145233 -0.00492655)
(0.00162938 -0.0143394 -0.00533768)
(0.00192531 -0.0120663 -0.0033077)
(0.00188661 -0.0108392 -0.0026041)
(0.00177858 -0.0114297 -0.00301912)
(0.00160935 -0.0120852 -0.00360167)
(0.00208816 -0.0110817 -0.00264788)
(0.00216502 -0.0105224 -0.00225526)
(0.00263918 -0.0184488 -0.00860495)
(0.00273198 -0.0180908 -0.00934835)
(0.00245757 -0.0176754 -0.00838712)
(0.00228071 -0.0177913 -0.00794558)
(0.00304322 -0.0190307 -0.00969506)
(0.00343994 -0.0191138 -0.00975249)
(0.00176203 -0.0150526 -0.00712651)
(0.00243112 -0.0159285 -0.00773715)
(0.00164122 -0.0147409 -0.00667054)
(0.00220867 -0.0158491 -0.0077292)
(0.00241443 -0.0164832 -0.00835713)
(0.00200124 -0.0157537 -0.0072423)
(0.000991455 -0.00924125 -0.00276454)
(0.00105874 -0.0102588 -0.00322181)
(0.00108086 -0.00855156 -0.00253987)
(0.00109755 -0.00993287 -0.00314547)
(0.00124623 -0.00862394 -0.00233215)
(0.00125536 -0.0091323 -0.00252534)
(0.00226797 -0.00821558 -0.00193881)
(0.00223905 -0.00876394 -0.00182504)
(0.00196577 -0.00859488 -0.00199943)
(0.00241555 -0.00780082 -0.00169668)
(0.00263551 -0.00783223 -0.00168333)
(0.00248457 -0.00805563 -0.001671)
(0.00267167 -0.00762126 -0.00169726)
(0.00288528 -0.00807907 -0.00182672)
(0.00298249 -0.00771345 -0.00177685)
(0.00329454 -0.00788588 -0.00225471)
(0.00301889 -0.00772882 -0.00207053)
(0.00329956 -0.00793065 -0.00202164)
(0.00283002 -0.00768947 -0.00193474)
(0.00339174 -0.00807666 -0.00212481)
(0.00344426 -0.00804211 -0.00225654)
(0.00273859 -0.0075638 -0.00177407)
(0.00276621 -0.00781705 -0.00178958)
(0.00288205 -0.008056 -0.00188972)
(0.00265601 -0.0079395 -0.00190873)
(0.00227645 -0.00756967 -0.00178085)
(0.00223708 -0.00773333 -0.00177599)
(0.0021538 -0.00722365 -0.00178604)
(0.00240993 -0.00768222 -0.00179885)
(0.00238205 -0.00791714 -0.00187962)
(0.00236356 -0.00807275 -0.00176622)
(0.00243603 -0.00780689 -0.00186544)
(0.00198539 -0.00764852 -0.00188941)
(0.00178127 -0.00758917 -0.00153797)
(0.00205857 -0.00796097 -0.00167038)
(0.0020925 -0.00773002 -0.00177558)
(0.00215647 -0.00810432 -0.00171834)
(0.00155272 -0.00738897 -0.00157355)
(0.00178286 -0.00789255 -0.00158185)
(0.00305212 -0.00911448 -0.00253552)
(0.00264916 -0.0083011 -0.00218439)
(0.00287468 -0.00890716 -0.00254801)
(0.00291095 -0.00830531 -0.0023561)
(0.00273191 -0.00820217 -0.00211164)
(0.00242481 -0.00801368 -0.00194598)
(0.00435414 -0.0105524 -0.00501793)
(0.00388805 -0.00937114 -0.00404879)
(0.00449794 -0.0100885 -0.00540295)
(0.00427509 -0.00966904 -0.0048167)
(0.00472243 -0.0114392 -0.00579309)
(0.00496184 -0.0115461 -0.00654049)
(-3.40127e-05 -0.0105923 -0.00395279)
(0.000137415 -0.00998602 -0.00337002)
(0.000922847 -0.0119372 -0.00473551)
(0.000626336 -0.0116498 -0.00448994)
(0.00133049 -0.012935 -0.00523751)
(0.000428506 -0.00781744 -0.00180147)
(-0.000148881 -0.00785349 -0.00166871)
(0.000200965 -0.00759039 -0.00144342)
(-6.8973e-05 -0.00794671 -0.00186865)
(0.000163047 -0.00748527 -0.00149279)
(-0.000522781 -0.00764227 -0.00173791)
(-6.32322e-06 -0.00750808 -0.00130734)
(-0.00038777 -0.00735024 -0.00158105)
(0.000471426 -0.00779133 -0.000856869)
(0.00091362 -0.00830273 -0.000946991)
(0.00097311 -0.00775571 -0.000945763)
(0.000961969 -0.00832218 -0.000887813)
(0.000556214 -0.00805932 -0.00082926)
(0.000881598 -0.00759611 -0.00102775)
(0.00015973 -0.0074968 -0.000837235)
(0.000219597 -0.00756743 -0.000700274)
(-9.50672e-05 -0.00770595 -0.000910302)
(0.000575237 -0.0102226 -0.00368177)
(0.000741799 -0.0110935 -0.00396903)
(0.00125461 -0.0117772 -0.00460157)
(0.000439956 -0.0101081 -0.00385075)
(0.000579605 -0.0107705 -0.00434315)
(0.00099612 -0.0114959 -0.00442504)
(0.000291084 -0.00879099 -0.00289582)
(0.000659896 -0.00893174 -0.00251047)
(0.000659932 -0.00828951 -0.00243665)
(0.000452289 -0.00792091 -0.00244016)
(0.000453806 -0.00951268 -0.0030884)
(0.000562583 -0.00903312 -0.00276588)
(0.00129574 -0.0123 -0.00543558)
(0.00176031 -0.0137917 -0.00629371)
(0.00121888 -0.0124169 -0.00521007)
(0.00193612 -0.0133847 -0.0060025)
(0.00114819 -0.0119776 -0.00486264)
(0.00166188 -0.0128015 -0.00555834)
(0.00713305 -0.0218939 -0.0107268)
(0.00771684 -0.0214814 -0.00981662)
(0.00642822 -0.0203078 -0.0100037)
(0.00787278 -0.0233028 -0.010753)
(0.00645448 -0.0191662 -0.00979773)
(0.00654535 -0.0221092 -0.010885)
(0.00929877 -0.0245085 -0.00930716)
(0.00938228 -0.0242726 -0.00871161)
(0.0084429 -0.0224034 -0.00938939)
(0.00881698 -0.0234183 -0.00994682)
(0.00895046 -0.0231834 -0.00926008)
(0.00847522 -0.0241232 -0.00767689)
(0.00912224 -0.0274409 -0.00781439)
(0.00826571 -0.0250299 -0.00662901)
(0.00976431 -0.0268242 -0.00817352)
(0.009219 -0.0246575 -0.0079209)
(0.00667769 -0.0207891 -0.0085431)
(0.00749694 -0.0223843 -0.00873081)
(0.0071688 -0.0228972 -0.00855048)
(0.00777521 -0.0232843 -0.00872002)
(0.00693063 -0.021615 -0.00864366)
(0.00744194 -0.0225966 -0.00790455)
(0.00615477 -0.0211515 -0.00696585)
(0.00600082 -0.0235584 -0.00687345)
(0.00567477 -0.0214924 -0.0054301)
(0.00623164 -0.0203918 -0.00691009)
(0.00547028 -0.0193025 -0.00685394)
(0.00502145 -0.0191354 -0.00679435)
(0.00456577 -0.0173898 -0.00715675)
(0.00329425 -0.0153112 -0.00655096)
(0.00363455 -0.0174797 -0.00781912)
(0.00427089 -0.0175437 -0.00715304)
(0.0040488 -0.016887 -0.0069882)
(0.00243155 -0.0144778 -0.00689591)
(0.00313351 -0.0151886 -0.00679511)
(0.00211157 -0.0141619 -0.00657688)
(0.00207341 -0.0136877 -0.00633674)
(0.00283809 -0.015366 -0.0068002)
(0.00334658 -0.0156927 -0.00687323)
(0.00285811 -0.0159389 -0.0074503)
(0.00342841 -0.0165398 -0.0079844)
(0.00296126 -0.0157813 -0.00719666)
(0.00263258 -0.0155484 -0.00704394)
(0.00371139 -0.0171524 -0.00816462)
(0.00370644 -0.0173947 -0.0084404)
(0.00163544 -0.0142521 -0.00661784)
(0.00114558 -0.0133651 -0.00609361)
(0.00113711 -0.0129836 -0.00579799)
(0.00182124 -0.0139695 -0.00661671)
(0.00203329 -0.0147305 -0.00702157)
(0.00142483 -0.013763 -0.0062018)
(0.00706791 -0.0232105 -0.0073103)
(0.00681015 -0.0217305 -0.00693943)
(0.00737503 -0.0239527 -0.00662643)
(0.00674577 -0.022873 -0.0056146)
(0.00767599 -0.0243407 -0.00690814)
(0.00670443 -0.0230664 -0.00660061)
(0.00416655 -0.0280663 -0.00501386)
(0.00456669 -0.030119 -0.00670263)
(0.00386558 -0.0293234 -0.00568134)
(0.00372916 -0.0298646 -0.00598868)
(0.00550529 -0.0288599 -0.0060292)
(0.00427815 -0.0281742 -0.00563615)
(0.00558925 -0.0277964 -0.0055669)
(0.00505761 -0.0272173 -0.00466223)
(0.00491665 -0.0274495 -0.00528037)
(0.00504088 -0.0294881 -0.00619019)
(0.00675272 -0.0285913 -0.00579049)
(0.00544265 -0.0279488 -0.00564842)
(0.0021617 -0.0270739 -0.00709195)
(0.0035458 -0.028849 -0.00656295)
(0.00334437 -0.0290472 -0.00738042)
(0.00383645 -0.0273286 -0.00651426)
(0.00254532 -0.0284046 -0.00694747)
(-7.00758e-05 -0.0244304 -0.0111296)
(0.000705159 -0.0260986 -0.00904327)
(0.000231972 -0.024043 -0.0103144)
(0.000393389 -0.0255163 -0.00977167)
(0.000294945 -0.0251702 -0.00931375)
(-0.000263064 -0.0246348 -0.0106254)
(0.0010619 -0.0249966 -0.0101143)
(0.00217719 -0.0246683 -0.0101388)
(0.00200823 -0.0239957 -0.0104955)
(0.00230944 -0.0244472 -0.00938338)
(0.00192411 -0.0221978 -0.0100862)
(0.00212181 -0.0230948 -0.0116824)
(0.00250433 -0.02156 -0.0116857)
(0.00181121 -0.0233855 -0.011911)
(0.00248681 -0.0218017 -0.0119702)
(0.00175383 -0.0228642 -0.0121866)
(0.00271992 -0.0208602 -0.0117227)
(0.00363288 -0.0169132 -0.0112285)
(0.00291558 -0.0182662 -0.012045)
(0.00259366 -0.0213592 -0.0125397)
(0.00327543 -0.0189495 -0.0120917)
(0.00328384 -0.0169073 -0.0118912)
(0.00376143 -0.0164525 -0.0114268)
(0.00414357 -0.0177938 -0.0103386)
(0.0039787 -0.0190635 -0.00958444)
(0.00457682 -0.0177744 -0.00939106)
(0.00436743 -0.0184398 -0.00938712)
(0.00404316 -0.0203293 -0.0101781)
(0.00411994 -0.0199959 -0.0108262)
(0.00101152 -0.0104045 -0.000395944)
(0.00114879 -0.0105111 -0.000412501)
(0.00155707 -0.0119308 -0.00016517)
(0.00126328 -0.00910185 -0.000997079)
(0.00166678 -0.0116226 -0.000823721)
(0.0020232 -0.0106882 -0.00126818)
(0.000996278 -0.00899448 -0.000729564)
(0.00138624 -0.0101582 -0.000741679)
(0.00174522 -0.00982234 -0.00123899)
(0.00267651 -0.0114261 -0.00170724)
(0.00229828 -0.010199 -0.00167516)
(0.00288298 -0.0116626 -0.00236437)
(0.00265692 -0.0111884 -0.00184743)
(0.00268316 -0.011103 -0.00214817)
(0.0023016 -0.0103335 -0.00161035)
(0.0047776 -0.0164421 -0.00668875)
(0.00416779 -0.0154032 -0.00543088)
(0.00434367 -0.0165959 -0.00598676)
(0.000850442 -0.0276282 -0.00652879)
(0.00117166 -0.0279848 -0.00634075)
(0.00307035 -0.0292485 -0.00462137)
(0.00219442 -0.0288369 -0.00470045)
(0.00173309 -0.0276597 -0.00361269)
(0.00212828 -0.0273963 -0.00319081)
(0.00184576 -0.0269045 -0.00394884)
(0.00277216 -0.0289024 -0.00400551)
(0.00451487 -0.01976 -0.0053459)
(0.00465387 -0.0190132 -0.00409989)
(0.0045644 -0.0195349 -0.00567316)
(0.0039094 -0.0170576 -0.00407546)
(0.00443986 -0.0181041 -0.00408137)
(0.00448322 -0.0183677 -0.00479032)
(0.00218687 -0.0283114 -0.00822537)
(0.00105977 -0.0264167 -0.00924077)
(0.00168968 -0.0265123 -0.0072249)
(0.000935576 -0.025996 -0.0082681)
(0.000901601 -0.0270623 -0.00934542)
(0.00243264 -0.0267716 -0.00689901)
(0.00191911 -0.026495 -0.00984453)
(0.000652041 -0.0246041 -0.0105131)
(0.00113064 -0.0247812 -0.0115934)
(0.00132663 -0.0244173 -0.010959)
(0.000836609 -0.0246641 -0.0113707)
(0.00140061 -0.0253773 -0.0101907)
(0.00214661 -0.0263912 -0.00754157)
(0.00193882 -0.0252426 -0.00808645)
(0.00154515 -0.0271028 -0.00945341)
(0.00170814 -0.0267085 -0.00954353)
(0.00236994 -0.0284139 -0.0102827)
(0.00111253 -0.0270314 -0.00846404)
(0.00279399 -0.028663 -0.00828445)
(0.00258456 -0.0278215 -0.0072902)
(0.00301367 -0.0283294 -0.00795555)
(0.00269969 -0.0265446 -0.00651967)
(0.00293589 -0.028945 -0.00770357)
(0.00343995 -0.0293382 -0.00702305)
(0.00279442 -0.028965 -0.00683556)
(0.00792669 -0.0228923 -0.0111844)
(0.00872123 -0.0231542 -0.0114935)
(0.008284 -0.025642 -0.0123655)
(0.00254495 -0.0167495 -0.0117257)
(0.0014813 -0.0184248 -0.0128247)
(0.00256444 -0.0189649 -0.0123342)
(0.00287511 -0.0154194 -0.0111698)
(0.00165121 -0.0176643 -0.0122802)
(0.00273204 -0.0163689 -0.0117034)
(0.0045564 -0.0194824 -0.0100289)
(0.00287934 -0.0169375 -0.00871098)
(0.0033302 -0.0176478 -0.00925334)
(0.00312757 -0.0167097 -0.00876839)
(0.00349481 -0.016699 -0.00918899)
(0.00461176 -0.0181031 -0.00957847)
(0.00510118 -0.0199374 -0.00946962)
(0.00470243 -0.0188492 -0.00954447)
(0.00574532 -0.019938 -0.00892548)
(0.00549591 -0.0196263 -0.00898065)
(0.00613924 -0.0209523 -0.00913308)
(0.004987 -0.0188171 -0.0089204)
(0.00168639 -0.0177844 -0.0114434)
(0.00296463 -0.0165184 -0.0116136)
(0.00213252 -0.0165807 -0.0118128)
(0.00346276 -0.0162974 -0.0115557)
(0.00265753 -0.0170148 -0.0118211)
(0.00297993 -0.0163397 -0.0114701)
(0.00484385 -0.0104497 -0.00620456)
(0.00491826 -0.0114282 -0.00754123)
(0.0049935 -0.010675 -0.00675961)
(0.00614002 -0.0226267 -0.0117516)
(0.000742804 -0.0254701 -0.00780048)
(0.000773195 -0.0233365 -0.0110805)
(0.00109079 -0.0247183 -0.010721)
(0.00091579 -0.0252765 -0.00884379)
(0.000567807 -0.0244333 -0.00947107)
(0.000761497 -0.0244406 -0.0105901)
(0.000536827 -0.0255456 -0.00953583)
(0.000352037 -0.0249736 -0.00991682)
(0.000421168 -0.0252028 -0.010112)
(0.00134169 -0.0277084 -0.00945595)
(0.00182717 -0.028845 -0.00825454)
(0.00097712 -0.025571 -0.00739985)
(0.00096053 -0.0251873 -0.00823579)
(0.00464527 -0.01936 -0.00385455)
(0.00335957 -0.0290484 -0.0037203)
(0.00418347 -0.0277452 -0.0037893)
(0.00463814 -0.0275218 -0.00389102)
(0.00394969 -0.0272176 -0.00301286)
(0.00366164 -0.0270286 -0.00266366)
(0.00189587 -0.028164 -0.00454516)
(0.00185497 -0.0279885 -0.0051035)
(0.00156062 -0.0281606 -0.00546352)
(0.00413539 -0.0128848 -0.00449963)
(0.00376236 -0.011814 -0.00385561)
(0.00467598 -0.0138701 -0.00667526)
(0.00498549 -0.0135923 -0.00635996)
(0.00453464 -0.0120804 -0.00582799)
(0.00448824 -0.0130133 -0.00512796)
(0.00455068 -0.0133705 -0.00570076)
(0.00503464 -0.0153666 -0.00701243)
(0.0045453 -0.0151029 -0.00583689)
(0.00436565 -0.0140699 -0.00519911)
(0.00399603 -0.0137752 -0.00450881)
(0.00384249 -0.0148183 -0.00420777)
(0.00413065 -0.0155548 -0.0048779)
(0.0044277 -0.0153695 -0.00492516)
(0.0034928 -0.0118242 -0.00341461)
(0.00403097 -0.01346 -0.00397237)
(0.00331343 -0.0112449 -0.00299635)
(0.0035168 -0.0133708 -0.0032671)
(0.00340332 -0.0130801 -0.00326146)
(0.0031466 -0.0130206 -0.0026106)
(0.00324745 -0.0129193 -0.00247476)
(0.00310469 -0.0130418 -0.00189681)
(0.00223162 -0.0098155 -0.00165258)
(0.0024658 -0.0129753 -0.000970666)
(0.00261326 -0.0126278 -0.00116816)
(0.0022878 -0.0114536 -0.00139792)
(0.000895879 -0.00996652 -0.000427273)
(0.00196069 -0.0119325 -0.0011621)
(0.00145841 -0.0116755 -0.000530459)
(0.00478889 -0.0194531 -0.00344542)
(0.00458382 -0.0191804 -0.00355515)
(0.00455827 -0.0187479 -0.0028899)
(0.00459521 -0.0183645 -0.00239034)
(0.00154846 -0.0118371 0.000110099)
(0.00325149 -0.0155555 -0.000417231)
(0.00258844 -0.0137861 -0.000417249)
(0.00232339 -0.013203 -0.000342552)
(0.00488018 -0.0153546 -0.00721292)
(0.0049579 -0.0154608 -0.00725484)
(0.0052638 -0.0177575 -0.00770534)
(0.00449977 -0.0137897 -0.00717052)
(0.00478882 -0.013249 -0.00738922)
(0.00439629 -0.0126415 -0.00612122)
(0.00445164 -0.0123836 -0.00554113)
(0.00348989 -0.0197394 -0.0114658)
(0.00416076 -0.0147124 -0.00789167)
(0.00482704 -0.0168705 -0.00836666)
(0.00454556 -0.0161832 -0.00902928)
(0.00476587 -0.016825 -0.00805828)
(0.00336638 -0.0198346 -0.0114641)
(0.0035251 -0.018933 -0.0110638)
(0.00483635 -0.0164292 -0.00919362)
(0.00405004 -0.0170159 -0.0103569)
(0.0042379 -0.0183165 -0.0108062)
(0.00445611 -0.0173251 -0.0104286)
(0.00329602 -0.0167354 -0.0116345)
(0.0035684 -0.0189789 -0.0111898)
(0.00405265 -0.0175967 -0.0109173)
(0.00314709 -0.0194387 -0.0117416)
(0.00262958 -0.0182906 -0.0123233)
(0.00186223 -0.0240991 -0.012049)
(0.00184491 -0.0203973 -0.012768)
(0.00398133 -0.016386 -0.0105123)
(0.00472275 -0.0183249 -0.00626593)
(0.00462429 -0.0187699 -0.00610043)
(0.00463603 -0.0177412 -0.00664022)
(0.00438334 -0.0173584 -0.00543951)
(0.00443444 -0.0171586 -0.00434095)
(0.00459657 -0.0184124 -0.00542046)
(0.00449497 -0.0181578 -0.00862378)
(0.00483708 -0.0173965 -0.0072689)
(0.00455322 -0.0191446 -0.00882763)
(0.00476932 -0.0186985 -0.00909537)
(0.00437551 -0.018222 -0.00674243)
(0.0044925 -0.0200504 -0.00765639)
(0.0042792 -0.0180582 -0.00721622)
(0.00456865 -0.0188312 -0.00847747)
(0.00451142 -0.0205233 -0.00852785)
(0.00422551 -0.0188646 -0.00796411)
(0.00431102 -0.0203291 -0.00949383)
(0.00400049 -0.019527 -0.0085519)
(0.00403681 -0.0201233 -0.010014)
(0.00137775 -0.0225708 -0.0114161)
(0.00191914 -0.0222 -0.0116632)
(0.00184979 -0.0212967 -0.012807)
(0.00227133 -0.0266415 -0.0115107)
(0.00351938 -0.0216643 -0.0113951)
(0.00210232 -0.0222675 -0.0108649)
(0.00303602 -0.0224353 -0.0108029)
(0.00267812 -0.0206313 -0.011528)
(0.00279901 -0.0211623 -0.0114867)
(0.00257057 -0.0279433 -0.00625909)
(0.0014069 -0.0263444 -0.00663769)
(0.0011442 -0.0272129 -0.0070557)
(0.00104943 -0.0278617 -0.00693008)
(0.00330229 -0.0304262 -0.00802838)
(0.00332669 -0.0298798 -0.00746314)
(0.00292398 -0.0273322 -0.00739029)
(0.00500466 -0.0290724 -0.00654745)
(0.00357096 -0.0275051 -0.00714911)
(0.00309667 -0.0288278 -0.00725572)
(0.00210644 -0.0237192 -0.0106898)
(0.00278277 -0.0232008 -0.0107018)
(0.00245969 -0.0243214 -0.0103548)