/*--------------------------------*- C++ -*----------------------------------*\
| =========                 |                                                 |
| \\      /  F ield         | OpenFOAM: The Open Source CFD Toolbox           |
|  \\    /   O peration     | Version:  v1612+                                |
|   \\  /    A nd           | Web:      www.OpenFOAM.com                      |
|    \\/     M anipulation  |                                                 |
\*---------------------------------------------------------------------------*/
FoamFile
{
    version     2.0;
    format      ascii;
    class       volScalarField;
    location    "100";
    object      p;
}
// * * * * * * * * * * * * * * * * * * * * * * * * * * * * * * * * * * * * * //

dimensions      [0 2 -2 0 0 0 0];

internalField   nonuniform List<scalar> 
18908
(
2.6292
2.63266
2.58301
2.54295
2.64263
2.65744
2.63565
2.64739
2.63543
2.64842
2.64827
2.63667
2.63233
2.64685
2.6343
2.63329
2.6338
2.65936
2.62143
2.62355
2.64385
2.61198
2.61952
2.6134
2.63
2.62524
2.62138
2.59121
2.60937
2.62561
2.63135
2.60658
2.59459
2.60953
2.6207
2.61277
2.50878
2.50339
2.50796
2.5074
2.50693
2.50593
2.50417
2.5048
2.50006
2.50133
2.50435
2.50404
2.50854
2.50645
2.51382
2.51153
2.5088
2.51173
2.51229
2.51323
2.52642
2.51629
2.51826
2.49712
2.50638
2.52064
2.52152
2.51879
2.50272
2.526
2.52506
2.5281
2.5294
2.48897
2.5013
2.49881
2.51748
2.52842
2.50878
2.53836
2.54147
2.53375
2.52936
2.53137
2.53082
2.53016
2.53153
2.52863
2.52297
2.52575
2.52479
2.52655
2.67647
2.67038
2.66858
2.66113
2.66046
2.67544
2.68539
2.69205
2.54458
2.54788
2.5478
2.54892
2.54981
2.55322
2.54687
2.54864
2.54698
2.55678
2.55625
2.55039
2.56
2.55489
2.55659
2.55731
2.55991
2.57297
2.56973
2.564
2.56654
2.57004
2.56324
2.57146
2.56722
2.56891
2.57157
2.57155
2.57334
2.57412
2.57182
2.57116
2.51534
2.51368
2.51081
2.51684
2.52026
2.51912
2.51225
2.52017
2.51475
2.52301
2.51778
2.54096
2.53967
2.5477
2.54856
2.54013
2.5408
2.54259
2.54266
2.54854
2.54641
2.54552
2.54099
2.54877
2.54928
2.54484
2.5476
2.5439
2.54588
2.5388
2.54199
2.54591
2.54703
2.65953
2.66992
2.66011
2.66018
2.61537
2.61646
2.66433
2.65157
2.64836
2.63185
2.61615
2.61011
2.63112
2.63594
2.63684
2.62061
2.64584
2.63814
2.52896
2.52969
2.53112
2.5293
2.52332
2.52248
2.51799
2.52251
2.52711
2.52916
2.52846
2.52328
2.52086
2.51619
2.52054
2.5218
2.61118
2.6157
2.61535
2.61561
2.56958
2.5781
2.60477
2.59572
2.59583
2.61193
2.57895
2.58395
2.57898
2.60251
2.60151
2.58939
2.59325
2.59432
2.58339
2.58098
2.58633
2.59092
2.57617
2.58266
2.58252
2.58166
2.58308
2.57697
2.58383
2.62224
2.64149
2.63971
2.62465
2.62937
2.62167
2.60469
2.59819
2.5971
2.57628
2.58468
2.58624
2.57913
2.59916
2.57923
2.59622
2.57013
2.57349
2.58359
2.57912
2.58022
2.5752
2.58523
2.56463
2.57505
2.57569
2.55755
2.55788
2.55393
2.55398
2.56038
2.55764
2.55729
2.55747
2.55728
2.55468
2.55513
2.55413
2.56159
2.55816
2.66689
2.67786
2.6892
2.66993
2.68375
2.66566
2.68225
2.68144
2.66487
2.66641
2.66002
2.66326
2.66066
2.57678
2.57781
2.57677
2.57567
2.57248
2.57166
2.57763
2.57455
2.57316
2.56943
2.56336
2.57501
2.57619
2.57215
2.57065
2.57132
2.57118
2.57019
2.56705
2.56796
2.5106
2.51018
2.50264
2.51077
2.49716
2.4931
2.51002
2.49859
2.49857
2.49263
2.51667
2.51325
2.51166
2.49168
2.5095
2.50094
2.60434
2.61596
2.61656
2.62098
2.62002
2.63217
2.62829
2.60911
2.61249
2.61015
2.60963
2.60703
2.62314
2.60467
2.61384
2.61238
2.55334
2.54567
2.54791
2.55073
2.55015
2.55003
2.5476
2.55105
2.5427
2.54855
2.55282
2.54246
2.54784
2.54565
2.54398
2.54649
2.54267
2.54954
2.53892
2.54766
2.59377
2.57039
2.56777
2.57103
2.58619
2.59773
2.59277
2.57988
2.59175
2.59404
2.5857
2.53108
2.53185
2.52638
2.52457
2.52655
2.53301
2.52657
2.52456
2.51584
2.53395
2.53239
2.51958
2.52784
2.53325
2.52591
2.5233
2.52201
2.52009
2.52554
2.53201
2.52777
2.51935
2.52458
2.52396
2.5527
2.55008
2.55518
2.55043
2.55332
2.54855
2.54699
2.55081
2.55632
2.55197
2.54798
2.54774
2.5473
2.64081
2.63558
2.64393
2.64822
2.63841
2.65244
2.65162
2.64596
2.50961
2.50768
2.50619
2.50553
2.50977
2.50783
2.49822
2.49945
2.50863
2.50495
2.50388
2.49774
2.48838
2.50214
2.50274
2.49626
2.49685
2.51519
2.52174
2.51975
2.51448
2.52123
2.52764
2.50464
2.51421
2.50649
2.51676
2.5172
2.50861
2.57323
2.58389
2.57645
2.56959
2.57995
2.56683
2.56441
2.57602
2.56786
2.5522
2.55064
2.55501
2.5571
2.56294
2.57205
2.55839
2.56203
2.55884
2.58495
2.60852
2.6009
2.5849
2.59024
2.58944
2.59036
2.6041
2.61599
2.62481
2.59477
2.61025
2.60285
2.6735
2.65067
2.661
2.67354
2.6629
2.66205
2.6466
2.67693
2.66528
2.64554
2.65138
2.64618
2.64997
2.65914
2.63439
2.63079
2.61149
2.62478
2.61945
2.64379
2.63188
2.60013
2.60355
2.6095
2.60728
2.60539
2.61495
2.63652
2.62454
2.54587
2.54125
2.55292
2.54583
2.55329
2.55398
2.53798
2.55454
2.53594
2.5556
2.53226
2.53187
2.53976
2.56127
2.56173
2.55692
2.54944
2.55369
2.61086
2.60411
2.6135
2.62537
2.60122
2.61097
2.60724
2.5987
2.6005
2.59531
2.59314
2.47555
2.47875
2.46265
2.47862
2.47894
2.47157
2.46778
2.45707
2.46776
2.47517
2.46523
2.4664
2.56787
2.56742
2.57211
2.58333
2.59153
2.5548
2.58327
2.56782
2.57776
2.55929
2.55797
2.56989
2.54825
2.55173
2.57095
2.55563
2.56727
2.71894
2.72672
2.71806
2.72159
2.73585
2.70543
2.70409
2.71601
2.72572
2.7103
2.71859
2.71534
2.69574
2.70579
2.71545
2.71539
2.71618
2.71815
2.57177
2.57259
2.58245
2.58099
2.57069
2.57336
2.57117
2.57754
2.58002
2.58151
2.57238
2.57649
2.574
2.57204
2.5763
2.57262
2.65212
2.65077
2.66691
2.65284
2.67482
2.66569
2.67388
2.67765
2.67176
2.66526
2.63265
2.66245
2.66369
2.64934
2.6457
2.6168
2.61174
2.61364
2.63165
2.6279
2.63938
2.62769
2.60691
2.6304
2.63665
2.63147
2.62113
2.62967
2.61551
2.6197
2.61652
2.61102
2.62432
2.61676
2.62985
2.60938
2.61014
2.61194
2.62972
2.62513
2.61349
2.6126
2.6051
2.61876
2.62351
2.58785
2.57638
2.5795
2.59661
2.60785
2.58376
2.57883
2.59159
2.58526
2.58474
2.58038
2.62531
2.64031
2.63152
2.6344
2.63067
2.63332
2.63216
2.64158
2.65819
2.64896
2.63706
2.66172
2.65741
2.64352
2.64149
2.64222
2.64293
2.64087
2.63625
2.64592
2.64724
2.65316
2.55183
2.55102
2.55084
2.55152
2.54959
2.55074
2.55153
2.5492
2.5509
2.54649
2.54907
2.55106
2.54707
2.55029
2.50522
2.50897
2.51147
2.50494
2.50548
2.51232
2.51365
2.50623
2.51369
2.51576
2.51067
2.51349
2.51561
2.50191
2.50281
2.49614
2.49996
2.49712
2.48632
2.50408
2.50381
2.50275
2.50375
2.50367
2.493
2.50263
2.49635
2.51598
2.51076
2.5114
2.50967
2.50534
2.51495
2.50792
2.498
2.50116
2.50401
2.51328
2.5118
2.54182
2.53496
2.53905
2.5388
2.53515
2.53696
2.53881
2.53954
2.54072
2.53925
2.53946
2.54092
2.5365
2.54228
2.5319
2.53773
2.53777
2.5302
2.52709
2.5526
2.55659
2.55435
2.55889
2.55042
2.54781
2.55868
2.5648
2.56586
2.56162
2.56193
2.54417
2.551
2.55287
2.55393
2.55203
2.55137
2.55843
2.56074
2.55915
2.55139
2.54696
2.54758
2.57085
2.55987
2.55952
2.56931
2.57793
2.56691
2.56936
2.5779
2.55283
2.55227
2.57029
2.55246
2.55763
2.54457
2.49617
2.49211
2.47774
2.48807
2.50224
2.49561
2.49054
2.49416
2.48235
2.48369
2.49476
2.49094
2.49131
2.48518
2.49891
2.50326
2.50903
2.48051
2.53112
2.52338
2.52967
2.53257
2.52979
2.53304
2.52739
2.52937
2.52865
2.53198
2.53059
2.52593
2.52268
2.53077
2.53128
2.52902
2.52563
2.53126
2.52959
2.57398
2.58079
2.56804
2.55463
2.56018
2.54829
2.56516
2.55135
2.5803
2.59245
2.57114
2.57014
2.57049
2.56673
2.56024
2.55073
2.58277
2.58534
2.59217
2.56782
2.54989
2.56891
2.57631
2.58059
2.57366
2.57099
2.57662
2.57522
2.57256
2.57258
2.57437
2.57277
2.56855
2.56954
2.57525
2.57347
2.57412
2.57316
2.57658
2.56619
2.57265
2.57046
2.57403
2.57272
2.53868
2.54418
2.55677
2.56692
2.55114
2.57052
2.54516
2.55027
2.54597
2.53824
2.55013
2.55086
2.5691
2.56038
2.55523
2.57138
2.53602
2.54907
2.54486
2.54238
2.54904
2.56694
2.5608
2.54515
2.55248
2.56224
2.55505
2.56986
2.56736
2.55239
2.56133
2.55898
2.55464
2.57306
2.56952
2.51045
2.50857
2.5027
2.5072
2.51195
2.51568
2.51714
2.51876
2.51506
2.51769
2.51278
2.50307
2.51796
2.52708
2.5133
2.51061
2.51947
2.54863
2.54011
2.55874
2.55887
2.54782
2.54895
2.55943
2.57245
2.55401
2.57191
2.56683
2.56583
2.56464
2.58432
2.55861
2.57626
2.58178
2.57472
2.56989
2.5764
2.57819
2.57933
2.57394
2.57387
2.57351
2.58805
2.59018
2.59492
2.58073
2.58925
2.59889
2.59721
2.58803
2.59788
2.59414
2.60388
2.59981
2.59935
2.60106
2.59956
2.60113
2.60388
2.59631
2.58694
2.55694
2.55675
2.55792
2.55761
2.5589
2.56285
2.55551
2.55905
2.55559
2.56526
2.56342
2.56007
2.55916
2.56395
2.56341
2.55914
2.5644
2.57007
2.57951
2.56703
2.56578
2.56367
2.57636
2.57653
2.57755
2.57813
2.58207
2.5978
2.57656
2.58633
2.59602
2.58949
2.58591
2.59169
2.585
2.58882
2.59565
2.57886
2.58865
2.60958
2.60094
2.59988
2.57414
2.58822
2.58875
2.59062
2.59757
2.60637
2.59831
2.61388
2.61088
2.61585
2.60383
2.60587
2.59031
2.58219
2.58068
2.60857
2.6109
2.58596
2.60306
2.59063
2.60643
2.59583
2.57004
2.56938
2.56807
2.56789
2.56957
2.56988
2.56901
2.57211
2.57307
2.57125
2.5672
2.57299
2.57057
2.57107
2.56689
2.56894
2.57041
2.56341
2.57292
2.57236
2.50561
2.50072
2.50017
2.59296
2.58519
2.58977
2.582
2.5951
2.58699
2.59242
2.47007
2.47209
2.46128
2.47441
2.46064
2.46182
2.52325
2.51342
2.49689
2.50053
2.53901
2.54042
2.53188
2.51817
2.52367
2.52284
2.49655
2.49812
2.561
2.56856
2.56254
2.5935
2.5878
2.58273
2.52797
2.52596
2.56226
2.55937
2.53846
2.53954
2.54279
2.46423
2.46888
2.52903
2.53143
2.52783
2.51176
2.50964
2.51493
2.6064
2.6036
2.59395
2.49172
2.58709
2.58052
2.54607
2.54911
2.54605
2.54513
2.54124
2.6079
2.60488
2.53754
2.53591
2.53698
2.5416
2.55989
2.55714
2.56086
2.52869
2.52173
2.529
2.47412
2.48715
2.48737
2.50651
2.50809
2.58948
2.59069
2.58404
2.62139
2.61089
2.61
2.51778
2.51958
2.51141
2.50309
2.5108
2.56584
2.56913
2.57011
2.56075
2.61391
2.60474
2.60285
2.52856
2.52411
2.52352
2.61638
2.60867
2.5542
2.5563
2.55293
2.56245
2.56587
2.57245
2.54607
2.54507
2.65007
2.65201
2.63853
2.64167
2.56573
2.55846
2.56423
2.56203
2.56847
2.56162
2.5776
2.53133
2.53166
2.53485
2.63171
2.63312
2.62767
2.5521
2.55534
2.55318
2.55287
2.62807
2.61245
2.61823
2.60123
2.58231
2.61896
2.62942
2.62374
2.57764
2.5727
2.57427
2.52548
2.53687
2.53279
2.62933
2.63543
2.55256
2.55406
2.58391
2.57267
2.56858
2.53332
2.53525
2.52937
2.68531
2.68491
2.67807
2.57917
2.5767
2.56345
2.56216
2.64736
2.64537
2.63322
2.63383
2.62067
2.54622
2.54996
2.54216
2.67837
2.66458
2.66949
2.59345
2.59058
2.59675
2.57229
2.57394
2.55479
2.55676
2.5571
2.68373
2.70739
2.71294
2.69023
2.681
2.57139
2.57557
2.56594
2.56179
2.56199
2.54761
2.55555
2.55319
2.55589
2.61906
2.61589
2.70934
2.70035
2.69819
2.68841
2.64194
2.66685
2.66527
2.64167
2.58753
2.58861
2.56174
2.55975
2.56484
2.56069
2.59682
2.59596
2.59333
2.5898
2.70902
2.71954
2.72114
2.63763
2.63679
2.7235
2.73105
2.72596
2.73165
2.70999
2.58475
2.58431
2.58112
2.56424
2.56558
2.60179
2.58689
2.58492
2.6947
2.69123
2.56431
2.56163
2.56453
2.61145
2.606
2.60907
2.60017
2.64358
2.5749
2.57789
2.57488
2.57285
2.57012
2.56532
2.5769
2.57612
2.60437
2.59936
2.59279
2.58379
2.56875
2.56526
2.57223
2.56542
2.56821
2.56846
2.56899
2.5835
2.58742
2.58169
2.58236
2.58322
2.57017
2.57361
2.57934
2.57396
2.57521
2.57682
2.57743
2.57767
2.66963
2.66739
2.66451
2.61741
2.62302
2.6452
2.64695
2.65069
2.65772
2.65752
2.66245
2.64135
2.62086
2.63504
2.64059
2.64083
2.63401
2.6411
2.63978
2.63316
2.63858
2.63917
2.64552
2.63384
2.64373
2.6459
2.73087
2.71849
2.71629
2.72659
2.72101
2.72679
2.59317
2.59887
2.59779
2.59965
2.60775
2.60724
2.6147
2.61354
2.614
2.62563
2.62329
2.62246
2.62513
2.62511
2.55832
2.56627
2.55811
2.56503
2.56201
2.55839
2.56422
2.55747
2.55846
2.57069
2.57131
2.57909
2.56467
2.56885
2.56596
2.55993
2.56232
2.56326
2.55973
2.56584
2.70388
2.69845
2.71039
2.70545
2.69409
2.66865
2.66833
2.68388
2.68882
2.6906
2.68891
2.66628
2.67007
2.67745
2.6623
2.66483
2.66641
2.68187
2.67896
2.65756
2.65388
2.66176
2.64853
2.58987
2.59857
2.58311
2.59252
2.62634
2.6247
2.60755
2.61349
2.60852
2.57232
2.5701
2.57226
2.56383
2.56449
2.5651
2.57062
2.56781
2.56889
2.56639
2.56727
2.56936
2.56944
2.57212
2.56416
2.57072
2.55901
2.56693
2.56597
2.55917
2.56111
2.55768
2.56069
2.56453
2.56443
2.56682
2.56736
2.56692
2.55997
2.55933
2.56797
2.56539
2.58223
2.58673
2.59026
2.5837
2.58072
2.57646
2.57964
2.57762
2.57289
2.57018
2.57274
2.7281
2.73093
2.715
2.69573
2.70605
2.70556
2.70434
2.64959
2.64505
2.63805
2.62175
2.615
2.61934
2.6225
2.61344
2.61951
2.62943
2.62421
2.61781
2.63205
2.63123
2.72546
2.70339
2.7173
2.71319
2.71223
2.69835
2.70396
2.72331
2.71433
2.58395
2.58654
2.58496
2.59057
2.58799
2.58346
2.58952
2.58633
2.5921
2.58673
2.60045
2.59819
2.59402
2.59118
2.60517
2.59913
2.58749
2.59353
2.58292
2.5854
2.58791
2.5882
2.59583
2.59676
2.59258
2.59129
2.59681
2.59639
2.55249
2.56932
2.57735
2.57066
2.56508
2.56378
2.56272
2.56548
2.55671
2.55878
2.55474
2.56219
2.57443
2.57127
2.57529
2.58088
2.58155
2.57671
2.56952
2.55665
2.55873
2.55878
2.56195
2.55177
2.55781
2.5583
2.55566
2.55859
2.55893
2.55682
2.56208
2.56001
2.55797
2.56397
2.59866
2.5913
2.5949
2.5865
2.58566
2.5842
2.61574
2.60866
2.61858
2.66586
2.68019
2.68049
2.64228
2.63675
2.65289
2.64871
2.68437
2.66252
2.6492
2.67691
2.67999
2.70075
2.71832
2.72674
2.72025
2.70328
2.7081
2.70619
2.70955
2.71339
2.7116
2.71216
2.71352
2.7126
2.70902
2.66228
2.65436
2.6458
2.64186
2.64206
2.63461
2.62978
2.62433
2.60998
2.6158
2.62306
2.6146
2.60808
2.60826
2.60514
2.61291
2.61067
2.61289
2.54797
2.55156
2.55263
2.5572
2.55467
2.55231
2.55974
2.56094
2.56407
2.56375
2.57067
2.56929
2.57277
2.56947
2.56612
2.56744
2.56204
2.56843
2.57484
2.57074
2.5724
2.60491
2.58965
2.59884
2.59169
2.58223
2.57683
2.59343
2.58165
2.57509
2.587
2.57521
2.60553
2.57025
2.56371
2.56381
2.56236
2.55447
2.56255
2.57248
2.56717
2.5566
2.5547
2.56861
2.57737
2.67969
2.68697
2.67691
2.68038
2.67497
2.6649
2.70396
2.71871
2.71184
2.70295
2.69131
2.70357
2.69553
2.66673
2.66723
2.66203
2.64743
2.65814
2.65224
2.67375
2.67091
2.65445
2.64565
2.66153
2.6676
2.66788
2.64732
2.65052
2.66696
2.68302
2.67904
2.68192
2.65854
2.66531
2.67785
2.6715
2.55722
2.5615
2.55859
2.56123
2.56063
2.5564
2.55748
2.5517
2.55303
2.55495
2.55508
2.55549
2.57137
2.57282
2.5713
2.56344
2.56855
2.56689
2.57634
2.57527
2.58127
2.59057
2.58673
2.58574
2.5893
2.59299
2.57799
2.58228
2.58137
2.58333
2.57454
2.58002
2.59095
2.59187
2.58517
2.59497
2.5913
2.62916
2.64105
2.64615
2.65189
2.65845
2.66946
2.67464
2.67129
2.6603
2.65247
2.65863
2.66836
2.66749
2.70492
2.69831
2.7073
2.70216
2.69077
2.68885
2.67889
2.69967
2.69553
2.55041
2.54218
2.5468
2.53821
2.5389
2.54565
2.53121
2.54214
2.54636
2.55742
2.55563
2.55585
2.5498
2.54314
2.55151
2.54627
2.54506
2.55569
2.56014
2.5517
2.54953
2.54529
2.5492
2.54414
2.54705
2.54953
2.5559
2.55442
2.59202
2.5946
2.60648
2.62171
2.60799
2.62352
2.63433
2.62115
2.62716
2.5586
2.55967
2.55991
2.55907
2.56651
2.5707
2.56775
2.56429
2.57617
2.58219
2.5748
2.57278
2.57718
2.57833
2.57386
2.58219
2.57798
2.5812
2.58284
2.58076
2.58211
2.57867
2.66209
2.66321
2.65986
2.67375
2.67311
2.66219
2.67194
2.67047
2.66117
2.669
2.68955
2.69675
2.68162
2.68324
2.67886
2.68769
2.69783
2.69465
2.68757
2.67658
2.70317
2.67872
2.52431
2.52759
2.5288
2.52703
2.51752
2.52913
2.55939
2.58254
2.56235
2.56127
2.57185
2.57748
2.55365
2.54463
2.55122
2.55566
2.54612
2.53905
2.56128
2.55173
2.55374
2.55892
2.55746
2.55718
2.55523
2.55682
2.5527
2.55459
2.61089
2.60734
2.60803
2.6026
2.617
2.61184
2.6038
2.61212
2.59524
2.604
2.59875
2.60767
2.61869
2.61707
2.51811
2.52675
2.521
2.52237
2.54421
2.53974
2.52912
2.54121
2.53927
2.53488
2.53468
2.53572
2.52923
2.52384
2.52275
2.59252
2.59171
2.57976
2.58297
2.57169
2.58018
2.57213
2.57705
2.57583
2.56957
2.56625
2.569
2.56985
2.56826
2.56521
2.64119
2.6525
2.64542
2.65068
2.65112
2.65252
2.63863
2.6496
2.64324
2.6321
2.64812
2.63569
2.64136
2.61987
2.63211
2.61927
2.64161
2.64064
2.59051
2.59687
2.59908
2.5934
2.58695
2.59042
2.61721
2.61825
2.5594
2.56177
2.55904
2.60726
2.61962
2.61594
2.61282
2.61014
2.6267
2.66184
2.6489
2.64763
2.63941
2.65508
2.65562
2.6563
2.64208
2.62999
2.64976
2.64584
2.63773
2.63974
2.64147
2.53779
2.53969
2.54207
2.5302
2.53153
2.53057
2.53167
2.54621
2.54712
2.54059
2.54382
2.53683
2.53911
2.5434
2.54295
2.54392
2.54094
2.54206
2.54372
2.54169
2.61562
2.5841
2.5898
2.57154
2.58246
2.59863
2.57532
2.58232
2.56011
2.56074
2.55975
2.56288
2.55768
2.55867
2.56103
2.55621
2.63434
2.64022
2.63877
2.62185
2.64725
2.64301
2.65582
2.64055
2.65368
2.66276
2.65756
2.6657
2.65427
2.66481
2.53995
2.53839
2.54312
2.53886
2.55011
2.5526
2.55153
2.54762
2.54766
2.54025
2.53634
2.54077
2.53943
2.54383
2.54297
2.54234
2.54263
2.54459
2.55078
2.54865
2.54872
2.55279
2.55313
2.55112
2.55074
2.56515
2.5656
2.56019
2.5757
2.54807
2.53455
2.54596
2.54114
2.53156
2.57684
2.56953
2.57349
2.55449
2.56117
2.55122
2.55829
2.55489
2.55943
2.55845
2.55312
2.55664
2.55554
2.55539
2.55795
2.55382
2.55868
2.55794
2.55599
2.55513
2.55688
2.55642
2.55366
2.55767
2.55114
2.54997
2.54908
2.54883
2.5513
2.55324
2.55199
2.55302
2.6294
2.63063
2.62139
2.61924
2.57705
2.58816
2.57817
2.5887
2.59064
2.63859
2.62551
2.61539
2.62051
2.61486
2.62238
2.6057
2.61179
2.60671
2.59822
2.60809
2.59868
2.58905
2.60989
2.60963
2.60806
2.60404
2.61471
2.51197
2.51614
2.53132
2.51867
2.51899
2.52148
2.52501
2.5301
2.57014
2.56661
2.56689
2.5652
2.57509
2.57766
2.56488
2.57419
2.57423
2.57404
2.56387
2.57034
2.56442
2.56225
2.56149
2.5577
2.57551
2.56617
2.57973
2.58001
2.56578
2.56791
2.5799
2.56647
2.57042
2.56837
2.48725
2.49395
2.52863
2.52377
2.5133
2.52581
2.50649
2.50223
2.50045
2.50611
2.50229
2.50197
2.50826
2.50006
2.487
2.49218
2.50075
2.50783
2.49976
2.49047
2.50709
2.51407
2.49333
2.49483
2.52963
2.52805
2.52029
2.5173
2.54641
2.52415
2.51233
2.53769
2.55101
2.54275
2.55339
2.51956
2.5321
2.5284
2.60699
2.60748
2.61472
2.6189
2.62116
2.61427
2.61742
2.61136
2.61726
2.60078
2.59384
2.60348
2.6071
2.60605
2.61279
2.60791
2.61598
2.60189
2.56735
2.56765
2.56759
2.58027
2.5793
2.57405
2.58889
2.61599
2.60842
2.60705
2.59512
2.4723
2.4892
2.50155
2.50879
2.50661
2.50718
2.48531
2.49774
2.50104
2.49909
2.50118
2.47371
2.47979
2.48078
2.49867
2.48208
2.48986
2.48736
2.48151
2.48148
2.48451
2.47038
2.47392
2.47797
2.53041
2.52746
2.52874
2.52734
2.5245
2.5183
2.51219
2.52573
2.52479
2.5169
2.52076
2.5242
2.51576
2.51571
2.51112
2.53522
2.53044
2.53246
2.53545
2.53795
2.52449
2.52389
2.52101
2.51577
2.51582
2.51657
2.52396
2.52421
2.5146
2.51739
2.52855
2.54468
2.55219
2.54868
2.55467
2.5518
2.54645
2.55219
2.55532
2.57272
2.58403
2.57511
2.55774
2.5475
2.56632
2.5611
2.55199
2.55202
2.5517
2.56841
2.56217
2.56484
2.56547
2.56284
2.56058
2.55876
2.55033
2.56124
2.5597
2.55652
2.55914
2.55826
2.56765
2.55675
2.55474
2.55507
2.56437
2.56163
2.54473
2.54383
2.54593
2.54171
2.5422
2.53913
2.54156
2.53651
2.54171
2.54159
2.54225
2.54123
2.53757
2.53649
2.54182
2.53739
2.53816
2.53639
2.53613
2.59955
2.59323
2.60958
2.59721
2.60912
2.59769
2.59409
2.58407
2.59984
2.60365
2.60518
2.59879
2.58054
2.57099
2.61103
2.59886
2.60897
2.60643
2.60112
2.59309
2.60327
2.5962
2.58846
2.5933
2.59859
2.59982
2.59943
2.59591
2.60011
2.60565
2.60421
2.59281
2.54047
2.5363
2.54176
2.54212
2.54142
2.54044
2.53724
2.55234
2.5442
2.54851
2.5456
2.54913
2.54615
2.60769
2.60716
2.59576
2.58575
2.58933
2.59384
2.59825
2.58975
2.5809
2.58849
2.45962
2.46798
2.46183
2.50804
2.49454
2.50744
2.51506
2.59972
2.58822
2.59601
2.59897
2.58931
2.58298
2.57987
2.5805
2.59396
2.59233
2.60078
2.58988
2.60284
2.59823
2.60615
2.50848
2.5125
2.51062
2.52338
2.52053
2.51573
2.51342
2.5191
2.52179
2.52832
2.53066
2.52743
2.53426
2.53626
2.53659
2.53318
2.53089
2.53627
2.53543
2.52364
2.52467
2.52545
2.52802
2.52782
2.52596
2.52593
2.47057
2.46641
2.46561
2.46244
2.46634
2.48205
2.5487
2.54679
2.54109
2.54944
2.54263
2.54344
2.53903
2.54319
2.54407
2.54075
2.5362
2.5376
2.5384
2.53995
2.54092
2.54707
2.54396
2.53604
2.53399
2.56648
2.56091
2.56974
2.56349
2.55883
2.57287
2.58169
2.56785
2.55866
2.55651
2.58032
2.57656
2.56571
2.56362
2.52893
2.52764
2.53606
2.54929
2.53681
2.52873
2.57459
2.57008
2.56599
2.54808
2.54656
2.55145
2.55157
2.53764
2.47674
2.49219
2.50787
2.49765
2.47686
2.47652
2.499
2.51501
2.49788
2.50557
2.54402
2.53723
2.54198
2.52007
2.54914
2.56231
2.56376
2.58707
2.59814
2.59015
2.58225
2.57955
2.57955
2.56605
2.56823
2.55487
2.59924
2.59777
2.60501
2.60382
2.6031
2.59109
2.60242
2.58862
2.55378
2.54845
2.55918
2.55176
2.55726
2.55361
2.54939
2.55447
2.5395
2.55042
2.54199
2.55282
2.55027
2.55284
2.54385
2.55761
2.54158
2.57114
2.55245
2.55567
2.55007
2.55605
2.57711
2.56564
2.48816
2.48955
2.48694
2.49612
2.48734
2.48378
2.49245
2.4986
2.52307
2.52773
2.52232
2.51725
2.5164
2.51774
2.51936
2.52134
2.52196
2.51191
2.51218
2.51217
2.51735
2.51846
2.52486
2.52517
2.52362
2.52324
2.52248
2.52171
2.52888
2.53886
2.53472
2.52987
2.53742
2.53673
2.54244
2.53528
2.46805
2.49155
2.48125
2.47464
2.49087
2.47719
2.47524
2.44404
2.45181
2.46363
2.4469
2.45967
2.45947
2.4593
2.48338
2.48568
2.59182
2.5984
2.58942
2.58545
2.44645
2.57539
2.58854
2.57602
2.57817
2.58782
2.57264
2.59698
2.59942
2.58869
2.59847
2.57747
2.58965
2.49224
2.49003
2.49195
2.4988
2.49068
2.48667
2.47515
2.49602
2.47918
2.47605
2.49187
2.49871
2.49622
2.49861
2.51379
2.50302
2.51172
2.52466
2.53444
2.54408
2.52534
2.50638
2.5752
2.57407
2.57519
2.563
2.56519
2.59964
2.60202
2.59759
2.58554
2.52858
2.54724
2.53471
2.54143
2.53076
2.53907
2.53273
2.54803
2.5441
2.50696
2.50251
2.50352
2.50698
2.508
2.50436
2.50548
2.5014
2.49799
2.51745
2.5137
2.51245
2.51219
2.51399
2.5199
2.51878
2.51463
2.521
2.47247
2.47238
2.47117
2.47696
2.48432
2.47195
2.4773
2.46672
2.47662
2.47832
2.47934
2.47688
2.47397
2.48525
2.48564
2.50719
2.50333
2.50952
2.50626
2.49961
2.50089
2.50143
2.49872
2.49512
2.50789
2.50693
2.50786
2.49978
2.49702
2.58886
2.59398
2.58704
2.6024
2.58738
2.6037
2.5992
2.60801
2.59732
2.58829
2.58886
2.57903
2.59495
2.57399
2.57539
2.5724
2.56663
2.57559
2.56967
2.56475
2.58084
2.58435
2.57732
2.57547
2.56564
2.55287
2.5556
2.55147
2.56029
2.55792
2.55764
2.54196
2.53885
2.53203
2.54507
2.53674
2.52532
2.53299
2.52967
2.541
2.53896
2.54633
2.55524
2.54792
2.5489
2.54339
2.5542
2.5512
2.55666
2.54647
2.5598
2.46437
2.45698
2.46893
2.45838
2.45896
2.45715
2.46532
2.46279
2.45848
2.45911
2.45598
2.45392
2.45865
2.44911
2.44596
2.45185
2.44807
2.45111
2.52439
2.52606
2.52802
2.5284
2.5309
2.53002
2.53096
2.5888
2.59698
2.5932
2.59551
2.59065
2.59968
2.59009
2.58291
2.59388
2.5862
2.58238
2.58769
2.57484
2.57006
2.5839
2.57951
2.59098
2.57436
2.5828
2.57475
2.55835
2.57655
2.56556
2.47077
2.48171
2.49201
2.50307
2.47125
2.47486
2.46479
2.4654
2.47051
2.46735
2.55004
2.54905
2.54804
2.54629
2.54839
2.54804
2.55215
2.55114
2.5559
2.55034
2.55105
2.55025
2.55347
2.55339
2.54392
2.54239
2.52854
2.52981
2.5314
2.5323
2.53198
2.53213
2.53671
2.53633
2.53463
2.53538
2.58422
2.58317
2.54925
2.5494
2.54518
2.54627
2.54312
2.54171
2.54292
2.54371
2.54545
2.54579
2.54507
2.54178
2.53993
2.57198
2.56821
2.55442
2.56403
2.57363
2.54404
2.53987
2.5472
2.54512
2.55411
2.54924
2.54329
2.54808
2.54908
2.54653
2.54493
2.5431
2.54379
2.55067
2.55007
2.48506
2.48252
2.49942
2.48272
2.48832
2.49027
2.49319
2.48271
2.48904
2.49054
2.48237
2.48681
2.49595
2.54767
2.55757
2.57088
2.5785
2.56392
2.56145
2.55497
2.54371
2.5271
2.52822
2.51468
2.56291
2.54417
2.5463
2.53035
2.54405
2.59426
2.57113
2.57593
2.5951
2.59004
2.58191
2.57656
2.58196
2.60832
2.59501
2.60671
2.62024
2.6049
2.60813
2.59622
2.61341
2.61827
2.60548
2.6114
2.59502
2.52672
2.50719
2.51885
2.51872
2.50484
2.4963
2.50685
2.50219
2.52408
2.52255
2.5219
2.52842
2.51639
2.52562
2.52728
2.56155
2.57361
2.57083
2.57489
2.56935
2.55785
2.574
2.56758
2.56613
2.56994
2.57247
2.56611
2.52052
2.52016
2.52
2.51842
2.51938
2.51182
2.51698
2.50749
2.51196
2.5058
2.51008
2.51942
2.51746
2.52013
2.52464
2.5135
2.52487
2.52159
2.51553
2.51432
2.5128
2.5178
2.63776
2.62043
2.63923
2.63207
2.63189
2.61823
2.63799
2.63502
2.60159
2.59027
2.57842
2.59249
2.58219
2.58604
2.60322
2.5914
2.59763
2.60024
2.59156
2.60801
2.60273
2.60578
2.60539
2.60065
2.62345
2.61738
2.61576
2.611
2.62163
2.54551
2.54102
2.54265
2.54156
2.54342
2.54374
2.5474
2.54317
2.54393
2.54615
2.54772
2.54635
2.5462
2.54672
2.54563
2.54718
2.54129
2.54303
2.59929
2.59794
2.60196
2.6114
2.60429
2.61867
2.59593
2.61228
2.62312
2.61833
2.62459
2.62346
2.61589
2.63466
2.60862
2.6219
2.60954
2.62622
2.63882
2.62964
2.61252
2.62034
2.61765
2.62115
2.55263
2.55304
2.55555
2.55735
2.55507
2.55125
2.55022
2.55727
2.55333
2.55115
2.55147
2.5496
2.54966
2.56005
2.5635
2.5612
2.56158
2.56157
2.53177
2.53242
2.53382
2.53612
2.53646
2.53425
2.53476
2.53314
2.52642
2.54059
2.53166
2.52898
2.52846
2.52817
2.56074
2.55697
2.56327
2.56153
2.5645
2.56383
2.56367
2.56107
2.55967
2.56123
2.56265
2.55925
2.56472
2.56334
2.56227
2.56784
2.56193
2.55997
2.55861
2.56256
2.56722
2.56457
2.58566
2.57427
2.57545
2.57633
2.57099
2.57786
2.57065
2.56779
2.56029
2.57825
2.60347
2.59218
2.60414
2.59343
2.60423
2.58645
2.58004
2.60141
2.60933
2.6071
2.58989
2.58619
2.55133
2.55011
2.55074
2.5521
2.55062
2.54759
2.54467
2.54472
2.54325
2.52779
2.52977
2.52865
2.52433
2.52465
2.52999
2.5249
2.52515
2.52493
2.52402
2.52288
2.67537
2.6591
2.6579
2.65448
2.68006
2.6713
2.6748
2.66655
2.67984
2.67061
2.63327
2.64218
2.65354
2.6389
2.65988
2.64715
2.65729
2.62374
2.64057
2.66218
2.64
2.65646
2.66712
2.64637
2.65461
2.57829
2.58147
2.57679
2.5749
2.5697
2.55288
2.54953
2.555
2.55495
2.55605
2.55637
2.55581
2.55363
2.5552
2.55572
2.55669
2.55179
2.55552
2.54918
2.55106
2.55691
2.55249
2.54809
2.53898
2.53663
2.54511
2.54355
2.54802
2.54652
2.54177
2.54497
2.5485
2.53844
2.54011
2.53395
2.53749
2.69498
2.70041
2.7043
2.70808
2.69698
2.69839
2.70065
2.70428
2.70008
2.67814
2.68795
2.69204
2.68377
2.67861
2.69134
2.70308
2.67352
2.67321
2.68447
2.66393
2.66434
2.67556
2.68224
2.67254
2.68554
2.68376
2.6787
2.66531
2.68794
2.6926
2.62225
2.63691
2.62013
2.64182
2.63564
2.64477
2.65507
2.64023
2.64758
2.61435
2.61328
2.62899
2.62532
2.58136
2.58201
2.57287
2.58337
2.58226
2.57818
2.58119
2.57821
2.57692
2.57669
2.57432
2.58394
2.58079
2.57077
2.57014
2.56874
2.56835
2.57115
2.56494
2.56553
2.56657
2.56526
2.57057
2.56929
2.57099
2.57288
2.57315
2.57402
2.57084
2.57344
2.57469
2.6475
2.68155
2.66257
2.67206
2.6634
2.66825
2.65526
2.65954
2.65775
2.6544
2.66205
2.67327
2.66973
2.67105
2.66641
2.66596
2.67519
2.61772
2.60994
2.5914
2.61211
2.59121
2.59781
2.59562
2.62944
2.6223
2.63216
2.63002
2.55836
2.55448
2.55042
2.55593
2.54843
2.54916
2.5506
2.55503
2.5437
2.53935
2.54239
2.54758
2.55305
2.56553
2.56444
2.56382
2.56504
2.56457
2.56336
2.56698
2.56699
2.60433
2.60224
2.60676
2.60268
2.59338
2.58889
2.59353
2.60667
2.60468
2.60177
2.59774
2.60488
2.60031
2.60077
2.58734
2.58968
2.64477
2.62643
2.62488
2.63006
2.61602
2.6255
2.62645
2.67977
2.68793
2.65171
2.65753
2.64222
2.66687
2.65184
2.64714
2.68
2.647
2.66014
2.65905
2.65516
2.60615
2.58891
2.59557
2.60582
2.59773
2.60053
2.60205
2.61539
2.62069
2.607
2.60437
2.60982
2.6074
2.70862
2.70197
2.70282
2.71044
2.69883
2.68635
2.68655
2.70368
2.70299
2.69167
2.69219
2.68562
2.68286
2.68789
2.70062
2.70244
2.70956
2.67544
2.67867
2.57817
2.57938
2.57516
2.57907
2.57894
2.58177
2.5807
2.58455
2.58056
2.55994
2.5652
2.56629
2.55983
2.56202
2.56054
2.55992
2.5648
2.56511
2.56889
2.56659
2.56697
2.56562
2.5645
2.56665
2.57025
2.56454
2.5661
2.56832
2.56901
2.57122
2.57127
2.56969
2.57642
2.57214
2.57303
2.5761
2.57617
2.57642
2.56999
2.56905
2.57061
2.569
2.64458
2.64685
2.65072
2.63659
2.65062
2.64398
2.66987
2.65998
2.65066
2.67052
2.6739
2.60793
2.60223
2.62199
2.61789
2.64712
2.62829
2.6255
2.63384
2.61273
2.61245
2.56939
2.56543
2.56299
2.56454
2.56805
2.56842
2.56396
2.56223
2.56925
2.56657
2.56571
2.56017
2.55565
2.56199
2.55759
2.56409
2.56501
2.56431
2.55761
2.55826
2.70875
2.70064
2.69927
2.71793
2.71152
2.70886
2.7039
2.59518
2.59708
2.60098
2.59426
2.58672
2.59027
2.5904
2.58474
2.58638
2.5897
2.58933
2.58894
2.58424
2.58103
2.58433
2.57375
2.58556
2.5888
2.57938
2.59101
2.59098
2.57317
2.57114
2.5709
2.56738
2.56713
2.57218
2.56376
2.56667
2.56822
2.56162
2.56807
2.56729
2.57201
2.56371
2.57203
2.57129
2.57139
2.56579
2.56629
2.60844
2.62269
2.61556
2.60642
2.6061
2.62281
2.61748
2.63718
2.62149
2.59687
2.59655
2.62576
2.63106
2.60114
2.60021
2.60513
2.6035
2.60842
2.60391
2.61518
2.60719
2.60327
2.61215
2.69787
2.67501
2.70042
2.69152
2.69199
2.68793
2.67764
2.69699
2.68396
2.67653
2.68337
2.56103
2.56835
2.56578
2.56474
2.56607
2.56352
2.56496
2.56645
2.56484
2.63266
2.63622
2.64152
2.63688
2.63289
2.62927
2.63521
2.64939
2.63443
2.63631
2.62227
2.63904
2.62628
2.63518
2.63882
2.62842
2.55494
2.54625
2.5491
2.54682
2.5434
2.54408
2.54354
2.5826
2.57701
2.59367
2.57855
2.59079
2.57899
2.59026
2.58597
2.57247
2.5405
2.54654
2.54552
2.54804
2.52438
2.52518
2.51951
2.55249
2.54446
2.5546
2.55144
2.53253
2.55671
2.54728
2.53929
2.53385
2.53315
2.54742
2.54291
2.54098
2.55203
2.60504
2.60312
2.60614
2.59842
2.59049
2.58803
2.59348
2.59126
2.6437
2.63924
2.61016
2.61166
2.62924
2.63919
2.63241
2.62772
2.62447
2.57275
2.57258
2.59714
2.59687
2.57341
2.57664
2.5889
2.56776
2.56891
2.57371
2.57633
2.5778
2.58216
2.5843
2.58131
2.57727
2.58167
2.57839
2.58384
2.63354
2.63962
2.68209
2.69116
2.66644
2.67843
2.61203
2.60375
2.59992
2.5982
2.61838
2.61863
2.60881
2.60434
2.61289
2.61289
2.60663
2.60073
2.6377
2.6482
2.66152
2.65252
2.6501
2.65903
2.64509
2.66744
2.64427
2.57365
2.56949
2.5719
2.5671
2.57189
2.57203
2.57303
2.57314
2.56919
2.5742
2.56756
2.57126
2.63811
2.62221
2.61931
2.62362
2.62777
2.6181
2.6221
2.64108
2.63613
2.63098
2.6383
2.62821
2.61262
2.60885
2.62148
2.61526
2.61137
2.61447
2.61048
2.6133
2.61581
2.62303
2.62274
2.62001
2.70396
2.70414
2.70642
2.70694
2.71355
2.72259
2.72105
2.71204
2.57891
2.58735
2.58999
2.57579
2.56058
2.59609
2.60366
2.59006
2.5929
2.59319
2.58845
2.59272
2.59646
2.59331
2.60025