/*--------------------------------*- C++ -*----------------------------------*\
| =========                 |                                                 |
| \\      /  F ield         | OpenFOAM: The Open Source CFD Toolbox           |
|  \\    /   O peration     | Version:  v1612+                                |
|   \\  /    A nd           | Web:      www.OpenFOAM.com                      |
|    \\/     M anipulation  |                                                 |
\*---------------------------------------------------------------------------*/
FoamFile
{
    version     2.0;
    format      ascii;
    class       surfaceScalarField;
    location    "100";
    object      phi;
}
// * * * * * * * * * * * * * * * * * * * * * * * * * * * * * * * * * * * * * //

dimensions      [0 3 -1 0 0 0 0];

internalField   nonuniform List<scalar> 
41553
(
-4.11332e-09
8.30527e-09
-4.36076e-09
1.68828e-10
-4.15085e-09
-3.08991e-09
8.02272e-09
-7.81867e-10
-4.38634e-09
1.37728e-09
3.74588e-09
-7.36812e-10
6.53564e-09
-6.47271e-09
9.57313e-09
-9.6361e-09
1.60475e-08
-1.47928e-08
2.16337e-08
-2.28886e-08
5.30394e-09
8.37985e-09
2.36358e-09
2.15348e-08
-6.89821e-09
-1.61504e-08
1.51364e-09
-1.09394e-08
2.233e-08
1.00403e-09
-1.23947e-08
2.16879e-08
-1.10925e-08
3.51871e-10
8.70026e-09
-1.48909e-08
5.83888e-09
1.02991e-08
-1.73177e-08
7.37024e-09
5.27682e-09
-1.755e-08
2.09733e-08
-8.39347e-09
2.39693e-08
1.08114e-08
-3.37225e-09
-2.00797e-08
1.3341e-08
-5.35853e-10
-1.97308e-08
5.47374e-09
-2.48775e-08
1.74434e-08
2.26156e-09
-1.42753e-08
-8.36111e-09
9.96932e-09
2.88794e-08
4.60491e-09
-1.18507e-08
2.17844e-08
1.54748e-08
2.80805e-08
-1.03379e-08
-1.31379e-08
-1.48037e-08
1.98591e-08
2.3025e-08
8.06041e-09
-3.12253e-08
3.325e-08
-2.41433e-09
-8.49924e-09
5.3332e-09
5.58035e-09
4.99758e-10
-3.43342e-09
5.19298e-10
-3.82773e-09
-2.47808e-10
-4.3685e-09
8.44401e-09
-3.9341e-09
6.06117e-10
6.3005e-09
-5.66574e-09
-4.06819e-09
7.22734e-10
-2.92149e-09
1.16947e-08
-6.60929e-09
-5.29967e-09
2.30095e-09
-1.36981e-09
-1.64887e-09
-7.58492e-09
5.66106e-09
-1.29757e-08
-1.92279e-08
1.05719e-08
1.4317e-08
5.46007e-09
1.04443e-08
-5.29517e-09
-1.06092e-08
6.60208e-09
1.42804e-11
-1.1563e-09
9.52989e-09
-4.9285e-10
1.40732e-09
5.34484e-09
1.07871e-08
3.17978e-09
-8.75101e-10
-5.43321e-09
3.12863e-09
-6.67747e-10
9.19238e-09
3.20937e-09
3.34925e-09
-2.99744e-09
-3.56117e-09
3.79663e-09
-5.7298e-10
-2.43217e-09
-3.55509e-09
5.31971e-09
-3.97222e-09
6.65223e-10
-3.56644e-09
3.80798e-09
-2.75559e-11
-1.89613e-10
-3.28362e-09
-3.87781e-09
3.18923e-09
-3.2076e-09
-1.03561e-10
-1.01481e-09
4.13504e-09
-8.41539e-09
-5.82478e-09
-1.01285e-10
2.5006e-09
-6.51285e-09
-2.89155e-09
7.41515e-10
-1.72777e-09
-3.59854e-09
-9.48224e-10
3.84116e-09
1.72516e-09
2.19688e-09
-7.76324e-09
3.41301e-09
1.45642e-09
-1.02829e-09
6.0447e-09
5.51324e-09
-9.83281e-09
6.87218e-09
2.58552e-09
-1.61504e-08
3.26145e-09
7.38421e-09
5.50468e-09
6.70619e-09
-1.73433e-08
2.6025e-09
4.51002e-09
-4.91566e-09
4.60726e-09
-5.48354e-10
3.8162e-09
6.31743e-09
-1.64544e-08
1.52802e-08
8.55839e-09
-8.76581e-10
-8.87169e-09
1.02212e-08
-6.58779e-09
-1.38463e-09
-7.3749e-09
8.12847e-09
6.30998e-10
-3.85438e-09
-4.2501e-09
8.49654e-09
-3.92105e-10
3.4275e-10
-3.80959e-10
-4.07147e-09
1.64115e-10
1.56153e-10
8.68041e-09
-6.3873e-09
-7.5754e-09
6.91926e-10
-2.02601e-09
4.75943e-09
-7.72076e-09
4.98736e-09
7.46607e-09
4.39054e-09
-1.26174e-09
-1.05949e-08
3.93364e-09
-5.34151e-09
8.8739e-09
6.09981e-09
-8.91927e-09
7.21001e-09
-4.53652e-09
1.457e-08
2.73495e-09
1.96268e-09
-6.7236e-09
5.86483e-09
-4.17733e-09
1.04743e-09
-1.9016e-09
-2.25821e-09
1.42835e-11
5.09062e-10
-5.96267e-09
-6.11348e-09
7.53966e-09
-5.27212e-09
-2.59208e-09
5.65657e-09
-8.96599e-09
-4.42659e-10
1.07748e-08
1.78925e-08
3.17484e-09
-2.13264e-08
1.67793e-09
1.64734e-08
-1.78793e-08
3.95286e-09
1.71012e-08
-3.43618e-09
-2.86011e-09
-6.32417e-09
-1.44659e-09
1.61741e-08
4.19577e-09
1.31639e-08
1.52543e-08
1.30854e-08
-5.63926e-09
-1.71752e-09
-5.72862e-09
-6.35748e-09
9.23182e-09
1.02111e-08
2.06936e-08
-6.41523e-09
-1.99177e-08
9.65468e-09
4.6814e-09
-1.9462e-09
4.35156e-09
6.82644e-09
-9.5985e-09
2.7109e-09
4.94137e-09
-4.85598e-09
-6.46005e-09
-8.17092e-09
-2.40204e-09
1.49245e-08
-1.12256e-08
1.27093e-08
5.54199e-09
-8.25896e-09
5.42782e-09
-1.21219e-08
1.52618e-08
-4.43128e-09
-1.07969e-08
3.1063e-09
-1.06832e-08
-2.00704e-09
1.08164e-08
-1.92991e-08
2.06734e-09
-5.4285e-09
-3.42311e-09
-1.9454e-09
-7.95815e-09
-8.1536e-09
-3.8323e-09
1.48206e-09
-1.12587e-08
-3.90108e-09
1.36777e-08
-5.45624e-09
-1.9085e-09
8.8468e-09
9.93859e-09
-1e-09
-4.89327e-09
-4.04528e-09
1.36446e-09
3.16186e-09
5.41226e-09
-1.20079e-09
-1.43333e-08
4.27537e-09
-6.74197e-09
8.49224e-11
2.29948e-09
-1.26291e-08
6.4286e-09
6.55818e-09
-6.16721e-09
-1.01237e-08
4.74624e-09
-5.41005e-09
-5.71366e-09
-7.0729e-09
6.41747e-09
-6.45247e-09
7.10793e-09
-8.24031e-10
-1.11421e-08
3.44041e-09
-7.60342e-09
-1.01703e-08
-2.77126e-09
-1.38375e-08
5.34653e-09
-7.12039e-09
3.80859e-10
1.39301e-09
-9.95194e-09
3.7187e-09
1.15798e-08
-7.2804e-09
-3.46552e-09
7.93974e-10
-5.49606e-09
-8.90473e-09
5.71952e-09
-7.56233e-09
2.22368e-09
7.19628e-09
2.63237e-09
-1.53247e-08
-3.37674e-09
7.1075e-09
2.67935e-09
-8.70739e-09
1.17475e-08
1.30517e-08
-6.6536e-09
9.70833e-09
-1.46383e-08
-1.12208e-09
2.12302e-09
4.72694e-09
6.44492e-09
-7.04693e-09
-4.12504e-09
6.26505e-09
-4.2481e-09
2.70994e-09
-4.50581e-09
4.78722e-09
-2.62138e-09
2.33982e-09
2.66475e-10
-3.99065e-09
-7.81746e-10
-1.20033e-09
-5.80513e-11
7.52332e-09
-6.28513e-10
5.87304e-09
-5.10206e-09
-1.67847e-09
-4.81877e-09
1.10409e-10
3.20201e-10
4.38803e-09
-4.78527e-09
9.8221e-10
-1.01583e-09
4.37871e-10
4.76579e-09
-4.99786e-09
-2.05887e-10
-4.51003e-09
1.62561e-10
-4.33065e-10
4.59171e-09
4.42307e-09
-3.1311e-09
-5.2828e-09
2.38136e-09
-5.79756e-10
-3.6244e-09
3.30169e-09
-2.60905e-10
2.05926e-09
-8.27097e-10
-6.33431e-09
5.23269e-10
-2.71214e-09
5.02788e-09
9.42168e-10
-8.30449e-10
-4.62184e-09
-3.53244e-09
-4.7887e-09
1.78826e-08
3.346e-09
-9.22718e-09
-1.20013e-08
1.5502e-08
-4.20606e-09
6.5867e-09
1.35174e-08
-4.33247e-09
1.19738e-08
1.70455e-08
4.35479e-08
4.07071e-09
-3.42777e-08
1.48129e-08
6.68646e-09
2.20485e-08
1.11152e-08
3.54953e-09
-1.88708e-08
6.52946e-09
-2.07188e-08
1.08173e-08
8.18004e-09
-4.93472e-09
3.2842e-09
1.2268e-08
2.35182e-08
3.4618e-08
-6.8732e-09
-2.3674e-08
1.81636e-08
2.31409e-08
2.20114e-08
-2.07045e-08
1.55289e-08
5.69181e-09
7.90694e-10
-4.03226e-12
2.42459e-08
1.22725e-08
2.14199e-08
1.28582e-08
3.94884e-09
2.51267e-08
2.57793e-09
3.51595e-09
-2.12722e-09
-3.96671e-09
-7.82599e-10
3.42381e-09
-6.32391e-11
2.75966e-09
1.34611e-09
-1.144e-09
-2.96179e-09
2.08321e-09
-1.06185e-10
3.10257e-09
1.40706e-09
-9.93688e-10
2.99871e-09
3.52771e-09
1.3899e-09
1.40633e-09
2.02611e-10
-2.15907e-09
3.60923e-09
-6.02442e-11
-3.74551e-09
4.01555e-09
1.81316e-09
4.45776e-10
-2.84518e-09
1.23358e-09
-4.50482e-09
-2.71469e-11
1.88364e-09
-2.98375e-09
-2.4477e-10
4.63559e-09
-5.77054e-09
3.24536e-09
2.49803e-09
-2.34434e-09
-2.98044e-09
-4.09453e-09
-7.42387e-09
-1.32423e-08
1.68741e-08
3.79205e-09
-2.00836e-08
1.71044e-08
-4.44478e-09
3.47439e-10
-1.46862e-08
-5.74479e-09
-3.98718e-09
-8.90761e-09
1.689e-08
-2.49974e-08
1.27989e-08
-4.69154e-09
-9.68138e-09
3.75057e-09
-2.7352e-08
3.32828e-08
-5.27532e-09
1.11749e-08
1.12048e-08
2.68914e-08
-4.08097e-09
-3.24918e-08
1.25026e-08
9.11348e-09
-2.17542e-08
2.98702e-09
9.46857e-09
-1.1231e-08
1.86525e-08
-2.81117e-09
2.15736e-08
-9.29384e-09
-1.66238e-08
-4.623e-09
1.40221e-08
-1.14993e-09
4.00194e-09
2.23858e-08
2.86943e-09
-1.52503e-08
-1.28152e-08
-2.39371e-09
1.19652e-08
3.24376e-09
-9.18375e-09
2.79052e-09
-6.42197e-09
-1.60475e-08
1.27212e-08
9.32584e-10
-4.93465e-09
-2.02805e-09
-9.08483e-09
-3.87256e-09
-1.02459e-08
-5.96878e-09
-4.58728e-09
1.33466e-08
-5.15307e-09
-6.83836e-09
9.96332e-09
2.02704e-09
2.0139e-09
-7.91351e-09
4.29353e-09
-8.23527e-09
-9.46052e-10
6.15635e-09
-6.30494e-10
-4.57976e-09
-6.96476e-09
3.20867e-09
8.0496e-09
-7.0217e-09
3.88249e-09
6.98929e-09
-2.02148e-09
-5.91387e-09
7.16679e-09
-1.22073e-08
-1.97307e-09
7.01342e-09
9.95708e-09
-2.28832e-10
-2.56155e-09
9.99403e-09
7.11787e-10
-1.32783e-08
2.57232e-09
5.74185e-09
7.1416e-10
3.50101e-09
9.23439e-09
6.50143e-09
-8.76493e-09
-1.21292e-08
6.89028e-09
1.40038e-08
6.34376e-10
3.816e-10
-9.781e-09
-8.36956e-09
1.52001e-08
-9.94159e-09
3.11093e-09
1.43377e-09
-9.16904e-09
-1.14378e-08
-2.54014e-09
6.55731e-09
7.42057e-09
5.08925e-10
-4.98242e-09
-6.9643e-09
-4.3368e-09
1.34277e-08
-8.58205e-09
1.15277e-08
-2.12654e-09
-1.3738e-08
-1.46034e-08
-3.40025e-09
1.38671e-08
4.13661e-09
6.82362e-09
-9.89936e-09
9.11595e-09
9.1152e-10
-2.44371e-08
9.86621e-09
1.20308e-08
-6.59675e-09
-2.28228e-08
-3.36144e-09
1.18943e-08
5.33424e-09
3.39971e-09
6.23489e-11
8.28878e-09
7.38449e-09
-2.10626e-08
1.23393e-08
7.639e-10
1.94192e-08
8.45092e-09
1.57886e-08
-1.43733e-08
1.2025e-08
-7.9451e-10
-7.83082e-09
2.12398e-08
3.90794e-09
9.02957e-10
-1.91704e-10
-4.61914e-09
4.91014e-09
1.42795e-09
-2.4301e-09
1.70074e-09
1.67345e-09
1.53598e-09
2.55468e-09
-9.19868e-10
-2.06839e-10
-2.97155e-10
-5.12446e-09
6.32461e-09
2.15046e-09
2.10497e-09
2.21564e-09
2.10295e-10
-2.61761e-09
1.57173e-09
-2.75943e-10
7.04339e-10
-3.23799e-09
2.74397e-09
-2.23535e-09
3.83964e-09
5.46174e-10
2.10834e-09
6.80257e-10
4.77802e-10
-3.26637e-09
2.4457e-09
-2.57269e-09
4.62675e-09
-4.21955e-09
1.6689e-09
3.63811e-09
6.95994e-09
-8.35769e-10
1.33356e-09
-7.4572e-09
5.87339e-09
1.06601e-09
-1.50241e-08
8.08497e-09
6.54609e-09
-6.22579e-09
5.5532e-09
-5.61348e-09
4.95298e-09
7.62059e-09
2.69743e-09
-1.05677e-08
2.257e-09
-3.47122e-09
1.35303e-08
-5.1059e-09
-5.38564e-09
-1.92621e-09
-1.74315e-09
9.05532e-09
-8.85238e-09
1.00129e-08
-1.5824e-08
9.09393e-09
1.47758e-08
-8.04512e-09
-7.79377e-09
-1.84682e-08
1.04381e-08
8.10133e-09
-1.48289e-08
6.84695e-09
4.1893e-10
1.24697e-08
-1.65566e-09
8.17047e-09
-9.55711e-10
-5.55906e-09
6.06328e-09
-1.26584e-09
-6.45309e-09
3.71542e-09
2.91676e-09
-5.68901e-10
5.97343e-09
5.91247e-09
6.05426e-09
-9.37963e-10
-2.19955e-09
-4.12969e-10
8.51486e-10
5.61576e-09
-1.48858e-09
4.18184e-09
-3.64899e-09
6.30019e-10
1.7605e-09
-3.65639e-09
2.37784e-09
-3.23639e-09
-4.89988e-09
3.41158e-10
4.14572e-09
-3.07e-09
-2.76785e-09
2.52194e-10
6.57277e-09
-1.17944e-09
4.40912e-09
9.5218e-10
2.08303e-09
-3.39254e-09
2.30234e-09
1.43048e-10
-3.62375e-10
1.59624e-09
-3.97844e-10
3.96823e-10
2.24669e-09
-2.59525e-10
4.92085e-09
1.99152e-09
-2.52229e-10
2.12883e-09
-2.16588e-09
9.85271e-09
1.79999e-08
-2.56868e-08
8.67697e-09
1.68747e-08
-2.77176e-08
5.90371e-09
1.51419e-08
-1.1193e-08
1.52446e-08
9.3458e-09
-6.5905e-09
-1.00534e-10
1.49263e-08
-1.61442e-08
1.31843e-09
-2.04431e-08
1.89843e-08
1.35827e-09
8.5797e-09
1.95516e-08
-1.94543e-08
-5.95966e-09
5.71152e-09
-4.32536e-09
1.75981e-08
2.03177e-08
3.20053e-10
-7.32202e-09
-7.32125e-10
2.32987e-08
1.80824e-08
-8.52971e-09
2.02847e-08
4.20293e-09
5.98015e-09
-2.57283e-09
1.02097e-08
5.74967e-09
3.40798e-09
2.06545e-08
5.49578e-09
-1.49386e-08
2.7179e-09
6.72479e-09
-1.56933e-08
1.58034e-08
5.38555e-09
-1.1455e-10
1.92459e-09
4.49602e-09
-6.30612e-09
2.51909e-09
4.32842e-09
-6.96211e-09
1.2378e-09
5.87588e-09
-5.18912e-09
-2.3547e-09
-5.89626e-09
9.48872e-09
5.84371e-09
-5.67937e-09
7.52741e-10
6.73994e-09
-3.16433e-09
6.42883e-09
-1.18011e-09
-2.63018e-09
-7.21939e-09
-1.08288e-08
-4.28452e-09
-5.44371e-09
8.9379e-09
7.90266e-10
2.72405e-09
3.06523e-09
8.653e-11
-7.3321e-09
5.76545e-09
-3.14255e-09
4.22879e-10
-4.04583e-09
1.68894e-08
-1.49335e-08
-9.45018e-09
7.49417e-09
-8.25504e-09
2.07354e-08
4.40895e-09
1.52466e-08
-2.1917e-09
2.14209e-09
-1.51971e-08
4.75186e-09
2.23968e-09
-1.05441e-09
-1.60708e-08
1.68846e-09
2.7182e-08
-8.1351e-09
1.32506e-08
-1.11038e-08
-4.71012e-12
1.12623e-08
6.74017e-09
-2.41648e-08
1.45282e-08
3.74553e-09
5.89104e-09
-5.77542e-10
3.16543e-09
-2.67527e-08
1.34508e-08
-1.50828e-08
1.76789e-08
1.03e-08
2.30518e-08
-1.64384e-08
1.10655e-08
1.65095e-09
1.59546e-08
5.4462e-09
1.23819e-08
4.03549e-09
-5.15514e-09
-2.24788e-08
1.71305e-08
9.09386e-09
-2.18581e-08
2.54476e-09
-4.37003e-09
1.84404e-08
1.53466e-08
1.24585e-08
-1.06747e-08
1.26275e-08
-3.11241e-09
1.01744e-08
-1.56441e-08
-1.05018e-08
-1.4821e-08
6.66094e-09
1.86618e-08
4.30699e-10
-3.5119e-09
-1.03933e-08
-3.997e-09
8.1354e-09
-1.82121e-08
-1.17113e-08
8.86202e-09
3.76082e-09
4.86302e-09
-6.39992e-09
4.93134e-09
-7.18924e-09
-1.11842e-08
7.8769e-09
1.21693e-08
-1.38984e-09
2.19223e-08
2.34779e-08
-2.92513e-08
9.14788e-09
-3.37444e-09
-9.50649e-10
7.61189e-09
1.68167e-08
-2.01012e-08
5.80826e-09
1.33423e-08
-5.01595e-09
-5.09218e-09
-9.99311e-09
-1.53762e-08
1.7065e-08
-1.13315e-08
9.64262e-09
-1.06824e-08
-9.70967e-09
-1.23057e-08
-2.20378e-08
-1.4712e-08
2.77997e-09
1.95438e-08
-1.38847e-08
8.3206e-09
6.39765e-09
1.64756e-08
3.93035e-09
-7.91202e-09
-6.70079e-09
-5.32973e-09
-2.0714e-09
-8.79974e-09
3.13254e-09
1.33291e-08
-7.66192e-09
-1.4662e-09
-1.52456e-08
4.91724e-09
1.31085e-08
-6.62974e-09
-1.13961e-08
1.31786e-08
-5.12881e-09
2.3799e-08
-5.69064e-10
-1.01215e-08
1.68883e-09
8.22546e-09
-1.08122e-08
1.99898e-08
1.12606e-08
-3.26134e-09
6.86456e-09
-1.49605e-08
-6.0102e-09
8.98256e-09
5.88483e-09
9.43098e-09
-4.75353e-09
3.88378e-09
-4.03071e-09
4.90047e-09
-3.82575e-09
-1.05644e-09
1.28646e-10
-3.55919e-09
-6.40266e-09
6.13611e-09
-1.24153e-08
7.51993e-09
-4.30503e-09
9.20047e-09
4.58439e-09
-5.97946e-09
-1.10202e-08
3.91339e-09
-3.14578e-09
-5.30914e-09
4.54151e-09
1.11787e-09
4.19226e-10
2.3762e-09
6.3966e-09
4.09351e-10
-2.22153e-09
3.23447e-09
1.06821e-08
-8.71005e-09
2.00508e-09
6.68224e-10
-7.82131e-09
2.84801e-09
-2.10257e-10
4.3831e-09
-9.38384e-10
5.72831e-09
-1.07515e-09
-4.86342e-09
3.08693e-08
1.98691e-08
-1.5468e-08
2.79287e-08
-2.07265e-08
2.36672e-08
9.10637e-09
1.58629e-09
1.72362e-08
-2.31579e-08
2.94041e-08
1.26573e-08
5.36027e-09
8.35914e-09
-1.8348e-08
1.36102e-08
1.26743e-08
1.03662e-08
-4.12399e-09
5.88946e-10
-6.83117e-09
-6.352e-10
2.59217e-09
8.40923e-09
-2.15751e-09
3.8873e-09
5.28051e-09
-7.01031e-09
2.32203e-09
4.71281e-09
6.67187e-09
-8.47384e-09
9.83844e-09
-5.36216e-09
-8.83603e-10
-7.31964e-10
6.89605e-09
-1.52094e-09
5.35012e-09
-7.88054e-09
5.75154e-09
1.49381e-09
3.97348e-09
-5.18214e-09
1.23108e-09
8.46155e-09
1.45804e-10
-3.95441e-10
-2.39002e-10
-6.44734e-09
7.08182e-09
-4.8886e-10
5.70472e-09
-5.61129e-09
-4.17937e-09
5.3812e-09
4.54973e-09
-2.25414e-11
-1.83345e-10
-1.33068e-09
-4.7517e-10
-4.95132e-09
-2.69098e-10
4.92908e-09
1.29208e-08
-4.63795e-09
-1.32119e-08
9.54443e-09
-1.43476e-09
-3.18057e-09
-5.33843e-09
7.74461e-09
7.13825e-09
6.62161e-09
9.60762e-10
4.80791e-09
3.9303e-09
-1.33761e-08
6.23423e-09
-2.86108e-09
-4.32172e-09
9.15678e-09
1.78657e-09
1.01512e-08
-1.46362e-08
-4.77977e-09
-7.6825e-09
6.52238e-09
1.05882e-09
-2.39649e-09
1.10669e-08
-5.02816e-10
6.13937e-09
-2.35585e-09
-1.07261e-08
6.94267e-09
1.40945e-09
6.24633e-09
-1.51639e-09
-4.1139e-09
7.19583e-09
-1.67246e-09
2.70599e-09
1.5509e-08
-1.41708e-08
-4.04411e-09
8.66568e-09
-1.59438e-09
-8.24946e-10
5.30557e-09
4.31254e-09
-1.1974e-08
7.15138e-09
-5.9597e-09
-8.61406e-10
6.23063e-09
1.82664e-09
4.56093e-11
1.13261e-08
-8.38876e-09
-2.51081e-10
6.26879e-09
2.37107e-09
-6.58029e-09
3.13292e-09
9.48126e-09
-7.5173e-09
2.40816e-09
-4.37205e-09
1.89156e-09
7.33861e-09
5.34615e-09
9.43938e-10
-1.50655e-09
7.78279e-09
-9.78504e-09
-8.948e-09
9.33303e-09
-1.19364e-09
1.9517e-09
-3.03127e-09
1.4387e-08
-1.33076e-08
-2.05486e-09
2.03522e-08
-1.63457e-08
-5.27305e-09
2.02689e-08
6.42399e-09
-2.03002e-09
1.42345e-08
-1.52359e-08
-3.69018e-10
4.30631e-09
-5.96745e-09
-5.84068e-09
-5.71686e-09
8.73734e-09
2.82003e-09
-3.22687e-09
-1.70223e-08
1.44085e-08
-1.36635e-08
-1.75325e-09
1.33619e-08
1.07832e-08
-2.63101e-09
-1.34253e-08
-5.91671e-09
3.03637e-09
-8.33368e-09
6.21136e-09
9.94552e-09
-4.30489e-09
2.30463e-09
-1.13328e-08
2.94945e-09
6.07865e-09
-2.59178e-09
-7.47521e-09
1.83838e-08
-8.31663e-09
-7.7361e-09
-7.58333e-09
1.27278e-08
-8.4176e-09
2.98617e-09
-4.41501e-09
-1.02313e-09
-9.77561e-09
1.52136e-08
-1.20724e-08
-3.67542e-09
-1.08356e-08
-5.71349e-09
9.0739e-09
6.44886e-09
-4.52897e-09
-1.03374e-08
-5.437e-09
4.30263e-09
-3.46967e-09
-8.38902e-09
7.36462e-09
-4.5853e-09
-6.24892e-09
-1.47051e-08
1.17735e-08
1.02963e-08
-1.88786e-08
-4.11779e-10
6.23063e-10
7.12529e-09
-5.48039e-09
1.7717e-08
-1.9362e-08
-2.28687e-09
2.93038e-08
-1.98916e-08
-3.09648e-09
7.5546e-09
1.72329e-08
-2.16911e-08
-2.19868e-08
1.34098e-08
2.50826e-08
-1.9815e-08
-1.84503e-09
1.1083e-08
8.47899e-09
1.63662e-08
1.65704e-08
1.04414e-09
1.80376e-08
7.09767e-09
-5.28744e-11
1.43062e-08
2.00976e-08
-1.47736e-08
5.06718e-09
1.31085e-08
-3.40221e-09
8.8944e-09
-4.30069e-09
1.31713e-08
1.45882e-09
-3.54718e-09
1.36944e-08
-4.82378e-09
9.6046e-11
1.04923e-09
-1.37163e-08
1.2571e-08
9.6285e-10
-1.19848e-08
1.1118e-08
-1.75889e-10
-3.60132e-10
-8.29983e-09
8.83584e-09
-9.10623e-09
9.89321e-09
-1.34688e-08
1.4158e-08
1.58037e-09
-1.82288e-09
-1.34738e-08
-4.59003e-09
-1.12019e-08
6.68574e-09
-1.3716e-08
8.26148e-10
-7.83679e-09
-7.94509e-09
4.57993e-09
8.72705e-09
-1.25749e-08
-3.98891e-09
-9.61666e-09
4.07461e-09
-6.4427e-09
-1.61937e-08
-1.36806e-09
2.00303e-09
1.79737e-09
-1.9994e-08
9.17068e-10
-1.28055e-08
1.34505e-10
-5.12347e-09
2.23493e-09
-1.28068e-08
1.23856e-09
1.35902e-08
-1.30313e-08
-8.15565e-09
1.16292e-08
7.23543e-09
2.14792e-09
-1.57833e-08
4.03256e-09
9.12015e-09
-5.91729e-09
5.15329e-09
5.93407e-09
-8.93946e-09
8.75858e-09
4.27307e-10
3.64838e-09
9.23259e-09
-1.16337e-08
-3.16907e-09
9.91356e-09
4.88928e-09
7.81266e-09
-1.06877e-08
8.95313e-10
3.74831e-09
1.14915e-08
-6.94731e-09
-5.79582e-09
1.90412e-08
-1.07601e-09
6.59104e-09
-1.35186e-08
-1.51071e-08
1.62996e-08
-4.59819e-09
-1.3546e-09
-7.56588e-09
-1.78613e-09
-9.3306e-09
2.44192e-09
1.56788e-08
-5.46039e-09
-1.48167e-08
1.89011e-09
1.12382e-08
-8.30759e-09
3.10237e-09
-6.03306e-09
1.71366e-09
-8.79379e-09
-9.6328e-10
-3.95516e-09
-6.7301e-09
6.93346e-10
-1.44614e-08
-6.64238e-09
9.50918e-10
-9.90421e-09
1.02236e-08
-5.05501e-09
-2.19829e-09
-2.9702e-09
5.36463e-09
1.01458e-08
-5.2868e-09
-8.46134e-09
-4.07222e-09
7.4786e-09
8.99471e-09
-5.72521e-09
-4.96584e-09
1.69653e-09
5.3869e-09
2.52305e-09
1.08483e-09
1.28062e-09
1.00896e-08
-6.00558e-09
-5.69106e-09
-8.49547e-09
1.09592e-08
-9.88899e-09
2.86146e-10
-1.35628e-09
3.60066e-09
1.26689e-08
-5.3104e-09
3.92891e-09
-3.77889e-09
-8.38694e-09
8.23696e-09
1.14088e-08
-6.52754e-09
-7.66953e-09
-8.65574e-09
6.43632e-09
-1.33669e-08
5.82754e-09
3.27304e-09
4.2663e-09
-7.8724e-11
-9.35929e-09
9.30818e-10
-1.04008e-08
-3.56384e-09
-8.49408e-09
1.19792e-08
-1.03025e-08
-5.52593e-09
-5.30811e-09
5.67539e-09
5.15882e-09
-6.78959e-09
1.89231e-10
1.07452e-09
-8.34244e-09
5.0842e-10
2.52595e-09
-1.46464e-09
-9.16357e-09
2.28589e-09
-8.87454e-09
6.20335e-10
2.04391e-09
-1.11155e-08
4.39432e-09
4.67745e-09
-8.11211e-09
6.55971e-09
3.59636e-09
-4.55246e-09
-8.03969e-09
6.1219e-09
6.47037e-09
-5.19042e-09
8.27301e-10
-1.19526e-08
4.34899e-09
6.75718e-09
-4.70018e-09
-1.09314e-08
2.12043e-09
-4.52682e-09
-9.10546e-09
1.1834e-08
-1.38438e-08
2.14229e-09
-4.29398e-09
-6.9536e-09
2.5319e-09
-3.97663e-09
-3.74571e-09
-3.36541e-09
-3.65416e-09
-6.17792e-09
-8.75905e-09
8.22614e-11
9.58072e-09
1.4336e-10
-1.20106e-08
2.28638e-09
-6.92348e-09
2.36771e-09
1.41364e-08
2.06647e-09
4.24037e-09
-1.50344e-08
8.72721e-09
-1.84312e-08
1.35741e-08
6.07806e-09
-8.07011e-09
2.13528e-09
-3.11221e-09
1.15579e-08
-8.05982e-09
-8.83846e-09
1.37859e-08
-1.15541e-08
7.73456e-09
-3.1197e-09
-1.22568e-09
-1.40859e-08
-3.00935e-09
-1.51448e-08
-8.66816e-09
5.93559e-10
-7.63922e-10
-8.01573e-09
-1.22066e-08
-3.13146e-09
-1.01049e-08
-6.89256e-09
-5.84053e-10
1.43431e-09
-1.24595e-08
-8.58975e-09
7.07388e-09
1.53617e-08
6.9685e-09
1.12514e-08
-2.35395e-08
-1.81613e-08
2.14944e-09
7.70602e-09
8.30586e-09
-1.54147e-08
-1.41235e-08
1.13768e-08
1.2335e-08
-1.81345e-08
7.9491e-09
-1.49507e-08
1.09177e-08
1.6368e-08
-1.52644e-08
-4.22334e-09
4.53726e-09
-2.43095e-08
-9.08958e-09
-5.67792e-09
-8.02724e-09
-1.06044e-08
2.20783e-08
-1.65048e-08
-2.06803e-08
1.35095e-08
4.34549e-09
-8.79707e-09
1.31914e-08
1.51957e-08
-1.25782e-08
1.40189e-09
-4.01945e-09
8.73084e-09
2.10584e-09
4.35907e-09
1.01677e-08
1.13348e-08
-1.27717e-08
-1.87245e-09
-9.93183e-09
3.56632e-09
8.23777e-09
-7.4392e-09
6.69848e-09
1.25915e-09
-5.18584e-10
-6.68727e-09
7.92573e-09
-8.67767e-09
3.70667e-09
1.17407e-08
-1.30028e-08
-2.4448e-09
6.31661e-09
4.67761e-09
-8.88838e-09
-1.20885e-08
3.52869e-09
-1.07451e-08
1.03315e-08
7.11203e-09
-6.36609e-09
3.54676e-09
-2.005e-10
1.40749e-08
3.42743e-09
1.0731e-08
-3.82693e-09
9.54357e-09
4.36378e-09
8.09596e-09
-8.61836e-09
-3.84137e-09
1.95486e-09
8.44962e-09
-6.35223e-09
-4.05226e-09
1.06301e-08
-4.31148e-09
3.53454e-09
3.9978e-09
5.63646e-10
7.30905e-10
5.90553e-09
5.28065e-10
-7.16458e-09
7.16748e-09
2.05615e-09
-8.49275e-09
7.85608e-09
6.30859e-09
-1.42415e-08
1.77846e-09
-1.06408e-09
1.35271e-08
1.65471e-09
-7.44665e-09
1.42008e-09
6.75584e-09
-1.00845e-09
4.99556e-09
4.22316e-10
-3.4818e-10
9.98272e-09
-1.08158e-08
8.12197e-10
-3.25553e-09
-1.11079e-09
5.75817e-09
6.45725e-09
4.78755e-10
1.78151e-08
-7.45102e-09
-1.08429e-08
-1.17651e-08
2.19198e-09
5.21436e-09
4.35877e-09
-5.59447e-09
-1.2513e-08
6.34226e-09
1.86104e-08
-2.76027e-09
1.08337e-08
8.13577e-09
2.95049e-09
7.52418e-09
-4.58923e-09
1.22555e-08
-7.18755e-09
-7.19238e-09
4.7951e-09
3.1512e-09
-3.03974e-09
-5.706e-09
-3.48764e-09
-5.53588e-10
6.71429e-09
-1.9797e-09
5.20632e-09
-2.15708e-09
-7.13882e-09
2.98975e-09
-5.78698e-09
3.32011e-09
3.09747e-10
-2.0822e-09
6.07258e-10
-5.66396e-09
-1.19738e-09
-6.67186e-09
-1.1772e-08
3.83746e-09
9.72314e-10
-1.93033e-09
-1.07705e-08
8.13508e-09
6.47286e-09
-1.57603e-09
-1.11249e-08
-1.33537e-10
8.55e-09
-9.99264e-09
6.33696e-09
-7.66787e-09
-2.71768e-09
8.48633e-10
-3.03547e-09
6.78977e-09
4.79569e-09
5.83798e-10
2.89611e-09
-4.40398e-10
3.78959e-09
-7.58399e-09
-5.12823e-09
2.78032e-09
-9.23322e-09
-1.85092e-09
3.49996e-09
5.61873e-09
-7.124e-09
1.75651e-09
-1.26619e-09
-4.28814e-09
-1.77889e-09
8.84704e-09
2.25956e-10
1.11698e-08
-5.69151e-09
4.95713e-09
3.57245e-09
-3.07451e-09
-5.45513e-09
5.38338e-09
1.26538e-09
-1.69168e-09
-1.72555e-09
1.52239e-09
5.58648e-09
2.2863e-09
-4.39473e-10
-4.09387e-09
6.91148e-10
4.25571e-09
-8.53052e-10
-7.03007e-11
-1.73732e-09
1.15294e-09
2.06028e-09
-6.28777e-09
-2.73278e-09
1.34828e-09
-3.27628e-09
4.66062e-09
-6.15365e-09
4.57377e-09
5.33398e-09
-4.50037e-09
-1.42556e-10
-5.3927e-09
6.5928e-09
6.52646e-11
1.39148e-09
-4.72391e-09
6.24007e-09
-2.2859e-10
5.81313e-10
-3.51713e-09
6.25687e-09
-2.48008e-09
-2.44701e-09
5.24471e-09
-3.17642e-10
-6.59029e-09
-4.77649e-11
3.45196e-09
3.1861e-09
-5.05992e-09
-4.01044e-09
-2.06671e-09
-4.95804e-09
1.73236e-09
5.29237e-09
-4.03894e-09
-4.7477e-10
2.10244e-09
2.44906e-09
-1.92572e-09
-2.62578e-09
-1.84537e-09
-9.11351e-11
-4.03215e-09
-6.86268e-09
9.19221e-09
1.70265e-09
-7.82225e-09
3.74233e-09
7.41418e-11
-2.685e-09
-5.20778e-09
5.85129e-09
-2.4889e-09
-9.04975e-09
1.91625e-09
-4.33472e-09
-3.4134e-09
4.48321e-10
4.44919e-10
1.93328e-09
-8.34764e-09
-4.66218e-09
8.54622e-09
-8.15532e-09
4.27127e-09
-7.33317e-09
3.29012e-09
-6.19151e-10
1.99877e-09
-3.14177e-09
9.68922e-09
-6.57195e-09
-1.02862e-09
9.59934e-09
-9.23063e-09
9.98157e-09
-9.77841e-09
9.02746e-09
1.16203e-10
-6.26161e-09
-3.08522e-09
-5.77248e-09
-2.26663e-09
-5.50047e-09
-7.60519e-09
1.43477e-09
5.40499e-09
-3.20395e-09
-7.78637e-11
5.25634e-09
-1.33199e-08
9.49832e-09
-1.14135e-08
1.56412e-08
-1.09469e-08
2.7351e-09
-1.56666e-09
-5.6457e-09
-1.15628e-08
9.58216e-10
5.70146e-09
-1.23054e-08
4.54464e-09
-9.08689e-09
2.2127e-09
6.18331e-09
-3.85138e-09
8.32854e-09
-3.23009e-09
-2.88577e-09
-3.24243e-09
8.53966e-09
3.03128e-09
-2.63083e-10
-1.09164e-09
-1.78221e-09
-1.08042e-08
-3.60739e-09
8.19587e-09
-5.72452e-09
1.26791e-10
-1.16663e-09
-2.23842e-09
8.45749e-09
-5.05261e-09
6.64762e-09
-2.78646e-09
5.14175e-09
-4.1089e-10
7.10217e-09
-1.18331e-08
7.89346e-09
-4.99012e-09
-6.30648e-09
-3.5908e-10
-4.0447e-09
1.07101e-08
7.35628e-09
-4.32597e-09
-9.33684e-09
1.29162e-09
9.37206e-10
5.12723e-09
1.26779e-09
4.8514e-09
2.33812e-09
4.68502e-09
3.23026e-09
-1.04971e-08
9.06959e-09
-5.22226e-09
6.64975e-09
-6.27252e-09
-4.58365e-09
-7.29648e-09
1.03189e-08
4.87103e-09
-6.46684e-09
1.95519e-10
1.6053e-08
-7.17902e-09
4.43685e-09
1.53972e-09
6.30586e-09
-1.20922e-09
-5.88774e-09
1.05201e-08
5.26953e-09
5.83191e-10
-1.03673e-08
4.99369e-09
4.7901e-09
-7.02593e-09
3.59542e-09
4.01366e-09
-9.52216e-09
-2.63021e-09
5.12643e-09
6.68659e-10
-5.7775e-09
-4.41356e-09
-1.28362e-08
-9.75294e-09
1.22218e-08
-8.12267e-09
-4.04494e-09
3.37557e-09
-3.00067e-09
-6.15271e-09
9.74871e-09
-5.61506e-10
-5.81178e-09
2.73404e-09
4.38431e-09
-8.22417e-09
9.7097e-10
8.58657e-10
6.39422e-09
-3.43375e-09
-5.35206e-09
-4.78926e-09
-6.98919e-09
8.60154e-09
3.17687e-09
-5.92325e-09
-1.71326e-09
2.84693e-09
1.46689e-09
-7.77485e-09
3.84599e-10
-7.28198e-09
1.75963e-09
-7.98577e-09
1.85578e-09
-3.62305e-09
-4.01692e-09
-1.20916e-08
-4.64354e-09
4.48517e-09
1.12924e-09
-8.1762e-10
-7.2598e-09
-7.83528e-09
5.70882e-10
2.36975e-09
-4.65415e-09
2.5607e-09
-5.85039e-09
-2.86553e-09
1.64741e-09
-9.38538e-09
-9.92758e-11
7.83734e-09
8.65297e-09
-9.34439e-09
2.33886e-09
-4.73455e-09
1.29088e-08
4.78827e-10
-4.82952e-09
-1.26151e-08
1.10511e-08
6.3936e-09
-7.43568e-09
5.74708e-09
-3.14086e-09
-7.70071e-09
1.84881e-09
-6.76313e-09
-2.18708e-10
-1.49177e-08
-1.97052e-09
-1.66776e-09
1.31136e-09
-9.51691e-09
-1.13875e-09
9.07228e-10
-4.33043e-09
8.91006e-09
-2.38217e-09
4.52323e-09
5.91269e-09
-1.2711e-08
6.57962e-09
-5.57473e-09
-5.26289e-09
1.37299e-08
-6.61811e-09
9.47863e-09
-4.69577e-09
2.55416e-09
-7.33702e-09
2.42826e-09
6.54723e-09
5.03136e-10
-5.86796e-09
2.60569e-09
5.10929e-09
-1.84702e-09
-7.01131e-10
-4.85223e-09
-3.14604e-10
3.66333e-09
1.05535e-08
-1.17885e-08
1.15368e-08
-1.68132e-08
6.38899e-09
-1.11258e-09
1.39919e-08
-6.9629e-09
4.50771e-09
1.2294e-10
1.75323e-08
1.47155e-09
8.2641e-09
-7.12996e-09
-4.99639e-09
5.24643e-09
6.40532e-09
-6.65538e-09
-2.46851e-09
5.25477e-09
-7.78265e-09
-7.49753e-09
9.092e-09
-1.00284e-08
-4.43204e-09
1.08119e-09
-1.72129e-09
5.88652e-09
2.88022e-09
-1.09667e-08
5.61796e-09
1.06957e-08
7.15065e-09
-1.49661e-08
8.75104e-09
-1.48686e-08
-1.79656e-09
1.56676e-08
1.66785e-09
-4.48446e-09
-1.2851e-08
1.6506e-09
2.70174e-09
1.13152e-08
-1.42894e-08
3.91001e-09
1.203e-08
-3.19761e-09
-9.42393e-09
3.19467e-09
3.73584e-09
-6.35118e-10
-6.29539e-09
6.50596e-09
-6.50889e-09
4.94202e-09
-2.08949e-09
-7.33701e-09
1.75147e-09
-5.75875e-09
2.26237e-09
1.7449e-09
-4.55055e-09
3.309e-09
2.99302e-09
1.87286e-09
3.46252e-09
-1.59953e-09
8.52509e-09
-1.46258e-10
-6.70881e-09
8.11326e-09
1.29731e-09
-2.45352e-09
6.86713e-10
3.02465e-09
-5.74928e-09
1.44229e-09
-3.73854e-09
-1.80632e-09
-1.30195e-09
-2.29285e-09
3.72366e-09
8.31619e-10
1.01423e-08
-1.23519e-09
-4.99727e-09
5.38048e-09
4.10674e-09
-4.4899e-09
5.39348e-09
-1.33871e-08
2.99641e-09
5.49735e-10
-6.29296e-09
5.58757e-09
1.5567e-10
4.78917e-09
3.91477e-09
2.88816e-10
-8.99271e-09
8.36296e-10
-4.5965e-09
-4.9182e-09
8.67843e-09
-5.55736e-09
1.11828e-08
-4.83151e-09
-3.57968e-09
1.07732e-09
7.33388e-09
-9.17459e-09
-5.16807e-10
1.74356e-09
-3.35814e-09
2.13146e-09
3.51567e-09
2.2135e-09
-3.35685e-10
-7.4984e-09
1.02059e-09
-6.9093e-09
4.10684e-10
-6.40253e-09
5.69497e-09
2.96902e-10
7.32645e-09
1.10584e-09
-7.8825e-09
3.01878e-09
-2.1784e-09
-2.32702e-09
9.25776e-10
-9.04301e-09
-2.30995e-09
3.97812e-09
6.43406e-10
3.83492e-10
-5.11848e-09
4.29973e-09
4.35304e-10
-2.31939e-09
4.32817e-09
2.04761e-10
2.53669e-09
-8.21197e-09
-9.82375e-09
-1.30981e-08
4.96914e-09
-1.87842e-09
-2.01337e-09
2.27242e-09
6.38633e-09
-5.4552e-09
-3.20364e-09
5.11429e-09
-2.76562e-09
-7.64327e-11
5.00809e-09
3.49111e-09
-2.11324e-09
1.47603e-09
8.64634e-09
5.0675e-10
2.25e-09
1.90058e-09
-4.65752e-09
1.99249e-09
1.81562e-09
-3.30148e-09
-3.9524e-09
-6.27301e-09
4.77e-09
-2.60213e-10
3.77876e-09
-1.52615e-09
-1.96265e-09
4.8796e-09
-4.63921e-09
1.17325e-09
-1.41426e-09
2.65497e-09
-6.26184e-09
8.48641e-09
-8.69973e-10
-1.48601e-09
2.66393e-09
-3.0824e-10
-3.99644e-09
4.9347e-09
-1.80834e-09
-1.8119e-10
4.79864e-09
-2.71696e-09
-2.36202e-09
-4.72876e-10
-2.91271e-09
7.04367e-09
4.02336e-09
-6.56533e-10
1.56773e-09
3.77455e-09
8.08946e-09
-7.9301e-09
1.17108e-09
-3.00764e-09
-1.14646e-08
-5.15599e-10
1.49879e-08
-1.72071e-08
-4.77927e-09
1.89788e-08
-1.19667e-08
6.87554e-09
-1.2116e-08
7.52561e-09
-2.25281e-08
9.26412e-09
5.7384e-09
-9.10407e-09
-1.22741e-08
2.44022e-08
-3.02401e-09
-2.12084e-08
1.963e-08
-1.71429e-08
-1.3708e-08
1.85768e-08
-1.8959e-08
5.30581e-09
-3.48969e-09
1.71966e-08
-4.62294e-09
-2.45403e-08
1.56128e-09
4.17077e-09
1.73603e-08
-1.46063e-08
-2.1713e-08
5.21362e-09
-8.35378e-09
-7.29871e-09
-1.63398e-08
4.3725e-10
1.03266e-08
-2.95558e-08
-1.43669e-08
1.04502e-08
-1.05238e-09
-1.01229e-08
7.25083e-10
-1.71894e-09
-3.29555e-09
1.54647e-08
-1.20024e-08
-5.65231e-09
1.59358e-08
-3.62778e-10
-1.26921e-08
-1.01847e-08
1.35645e-08
6.13591e-09
-9.5157e-09
-7.86888e-09
1.08625e-09
-3.40207e-09
7.49383e-10
3.4417e-09
-1.206e-08
-1.07015e-08
-3.92267e-09
1.13286e-08
3.43087e-11
7.87785e-09
7.06948e-09
3.56599e-09
-9.88608e-09
1.37264e-09
-9.29144e-09
1.13605e-08
-6.72154e-09
1.06233e-08
-2.81556e-09
1.01809e-08
-9.83292e-09
7.95244e-09
-1.00093e-08
-8.06606e-09
-3.29445e-09
5.45429e-10
-9.52494e-09
5.63659e-09
-5.07063e-09
-6.5354e-09
7.63381e-09
3.51023e-10
-6.30611e-09
-7.35474e-09
6.628e-09
7.03285e-09
-1.99014e-09
-4.17967e-09
-1.3632e-10
-5.00758e-09
-2.38841e-09
2.41413e-09
4.98186e-09
-3.69987e-09
-1.11657e-09
-1.91151e-10
5.34271e-09
-4.21786e-10
1.13079e-09
-6.05173e-09
-3.4729e-10
1.15145e-08
-1.04236e-08
-5.27056e-09