/*--------------------------------*- C++ -*----------------------------------*\
| =========                 |                                                 |
| \\      /  F ield         | OpenFOAM: The Open Source CFD Toolbox           |
|  \\    /   O peration     | Version:  v1612+                                |
|   \\  /    A nd           | Web:      www.OpenFOAM.com                      |
|    \\/     M anipulation  |                                                 |
\*---------------------------------------------------------------------------*/
FoamFile
{
    version     2.0;
    format      ascii;
    class       volVectorField;
    location    "150";
    object      wallShearStress;
}
// * * * * * * * * * * * * * * * * * * * * * * * * * * * * * * * * * * * * * //

dimensions      [0 2 -2 0 0 0 0];

internalField   uniform (0 0 0);

boundaryField
{
    WALL
    {
        type            calculated;
        value           nonuniform List<vector> 
1532
(
(-0.00445441 -0.0107945 -0.000229786)
(-0.00387946 -0.0102443 8.62929e-05)
(-0.00497598 -0.0116223 1.52789e-05)
(-0.00496812 -0.0118255 0.000267322)
(-0.00498755 -0.0116692 -7.10324e-06)
(-0.00476458 -0.011761 8.71632e-05)
(-0.00499738 -0.0117891 0.000193214)
(-0.00506249 -0.0120017 0.000158037)
(-0.00503304 -0.0119257 -3.07982e-05)
(-0.0048491 -0.0118549 -2.91998e-05)
(-0.00478099 -0.0119263 0.000320845)
(-0.00443301 -0.0113694 0.000370318)
(-0.00491664 -0.0119749 9.36214e-05)
(-0.00490637 -0.0122333 3.44808e-05)
(-0.00487932 -0.0114969 -0.000581712)
(-0.00479675 -0.0113221 -0.000625171)
(-0.00484503 -0.0118124 -5.9472e-05)
(-0.00476067 -0.0118506 -4.80428e-05)
(-0.00524873 -0.0122574 -0.000123003)
(-0.00493152 -0.0118799 -3.36607e-05)
(-0.00500515 -0.0120632 0.000101025)
(-0.00516847 -0.0123599 -0.000155845)
(-0.00502709 -0.0118361 -0.000208128)
(-0.00517003 -0.0125074 -0.000118154)
(-0.00459115 -0.0111724 0.00026276)
(-0.00437704 -0.0108489 0.000457893)
(-0.00410393 -0.0104913 0.000259131)
(-0.0043299 -0.0107328 0.000240352)
(-0.004427 -0.010729 0.000213106)
(-0.0043816 -0.0106851 5.00038e-05)
(-0.0048744 -0.0118737 -7.70183e-05)
(-0.00481104 -0.0117312 9.69638e-05)
(-0.00480807 -0.0118786 0.000192175)
(-0.00469528 -0.0120992 0.000328202)
(-0.00476403 -0.0118128 3.63588e-05)
(-0.00440229 -0.0110725 0.000371518)
(-0.00530148 -0.0126682 9.68278e-05)
(-0.00541157 -0.0130338 -0.000160776)
(-0.00518265 -0.0126812 -0.000291316)
(-0.00541056 -0.0126377 0.000122334)
(-0.0052292 -0.012591 -9.03717e-05)
(-0.00484794 -0.0121607 -0.000335577)
(-0.00515563 -0.0119406 0.000160195)
(-0.00499884 -0.0115894 0.000183404)
(-0.00501056 -0.0121463 3.54078e-06)
(-0.00508555 -0.0120832 3.50109e-05)
(-0.00514355 -0.0121217 0.000168174)
(-0.00471458 -0.0113675 0.000181549)
(-0.00461999 -0.0114766 0.000258009)
(-0.00499919 -0.0117748 0.000123333)
(-0.00497252 -0.0118507 0.000152457)
(-0.00471013 -0.0115301 0.000138589)
(-0.00464549 -0.011172 0.000192514)
(-0.00486285 -0.0116273 0.000261993)
(-0.00504471 -0.012301 -9.39946e-05)
(-0.00493785 -0.0114638 0.000216438)
(-0.00496494 -0.0115534 0.000319803)
(-0.00482946 -0.011424 1.79507e-05)
(-0.00502309 -0.0117197 0.000307365)
(-0.00485564 -0.0119255 -4.14975e-05)
(-0.00499025 -0.0118771 0.000253703)
(-0.00499402 -0.0119822 0.000155149)
(-0.00484006 -0.0119811 -7.4658e-05)
(-0.00534605 -0.0127203 0.000253598)
(-0.00490614 -0.0119024 -4.47507e-05)
(-0.00488199 -0.012113 -0.000567793)
(-0.00499142 -0.0120992 -0.000791768)
(-0.00476109 -0.0116208 -0.000816535)
(-0.00496775 -0.0120884 -0.000861787)
(-0.00483475 -0.011847 -0.000768626)
(-0.00479875 -0.0113404 -0.000146178)
(-0.0049933 -0.0114779 -0.000105407)
(-0.00476872 -0.0109883 -0.000127177)
(-0.00490967 -0.0114117 -0.000274756)
(-0.00487992 -0.0115611 -2.18422e-05)
(-0.00483243 -0.0113835 -0.000113732)
(-0.00457083 -0.0112586 0.000163778)
(-0.00477758 -0.0115439 0.000117561)
(-0.00471273 -0.0115712 7.06601e-05)
(-0.00480967 -0.0111495 0.00016254)
(-0.00457582 -0.0113344 0.000199953)
(-0.00489828 -0.0120819 4.67961e-05)
(-0.00563762 -0.0132009 -0.000212578)
(-0.00549628 -0.0128651 -0.000228406)
(-0.00548875 -0.0126781 -7.31927e-05)
(-0.00477479 -0.0116981 0.000111051)
(-0.00500026 -0.0121617 0.000127954)
(-0.00488446 -0.0120356 -6.91929e-05)
(-0.00476934 -0.0116733 -0.00019466)
(-0.00489589 -0.0120175 0.000227588)
(-0.00510908 -0.0125075 7.66101e-06)
(-0.00521463 -0.0128919 1.07328e-05)
(-0.00528482 -0.0124368 1.53858e-05)
(-0.005168 -0.0125744 0.000119075)
(-0.0054065 -0.0133099 -3.26615e-05)
(-0.00541043 -0.0127559 -6.9524e-05)
(-0.00530589 -0.0125554 -4.98223e-05)
(-0.00508831 -0.0119126 -4.3031e-05)
(-0.00505186 -0.0119307 8.95815e-05)
(-0.00513156 -0.0124393 2.51089e-05)
(-0.00552556 -0.0127404 5.1951e-05)
(-0.00522893 -0.0125142 -1.44519e-05)
(-0.00503106 -0.011937 -0.000121043)
(-0.00499099 -0.0123802 7.95534e-06)
(-0.00472692 -0.0119183 6.01466e-05)
(-0.00501964 -0.0121574 8.37288e-05)
(-0.00500662 -0.0123646 2.22392e-05)
(-0.00482322 -0.0117322 9.40356e-05)
(-0.00495082 -0.0122357 -1.6551e-05)
(-0.00490827 -0.0122026 -9.2291e-05)
(-0.00490962 -0.0120346 1.38357e-06)
(-0.00493374 -0.0119366 9.49165e-05)
(-0.00491861 -0.0118473 4.75414e-05)
(-0.00480912 -0.0118527 0.000215993)
(-0.00500548 -0.0115901 -1.24361e-05)
(-0.00481022 -0.0114933 3.7536e-05)
(-0.0047784 -0.0121833 0.000247675)
(-0.00473327 -0.011962 0.00035607)
(-0.00497122 -0.0117972 -0.000190385)
(-0.00457495 -0.0113835 0.000142424)
(-0.00460098 -0.0117168 0.000126588)
(-0.00515696 -0.0120192 4.5256e-06)
(-0.00484876 -0.0120083 4.05073e-05)
(-0.00483103 -0.0116452 -7.29859e-05)
(-0.00504783 -0.0124575 -4.86501e-05)
(-0.00532774 -0.0131168 -0.000393609)
(-0.00519445 -0.0129311 -0.000370257)
(-0.00523194 -0.0125425 -0.000225664)
(-0.00533758 -0.013071 -0.000331957)
(-0.00490922 -0.0121298 -0.000375477)
(-0.00512014 -0.0123572 -0.000374559)
(-0.00489841 -0.0118899 -1.21299e-05)
(-0.00497239 -0.0121241 -0.00033869)
(-0.00501281 -0.0124557 8.57078e-05)
(-0.00512738 -0.0124095 -0.000125185)
(-0.00482503 -0.0118822 -0.000161355)
(-0.00512306 -0.0125649 -0.000341435)
(-0.00549166 -0.0127581 -4.30006e-05)
(-0.00497021 -0.0129218 0.000229125)
(-0.0056266 -0.0134532 -5.625e-05)
(-0.00522794 -0.0127409 -0.000150673)
(-0.00519266 -0.0123328 -0.000265948)
(-0.00518743 -0.012433 -0.000460609)
(-0.0050677 -0.0120836 -0.000324202)
(-0.00522337 -0.0126276 -0.000519048)
(-0.00515026 -0.0124278 -0.00029231)
(-0.00448177 -0.0111985 -9.7534e-05)
(-0.00440918 -0.0109955 7.40464e-05)
(-0.00450379 -0.0106458 2.22163e-05)
(-0.00452043 -0.0108806 0.000262232)
(-0.00426104 -0.0108933 -1.33129e-05)
(-0.0045035 -0.0111561 0.000193784)
(-0.00472114 -0.0115477 -0.000115822)
(-0.00432292 -0.0110003 -0.000110125)
(-0.00465586 -0.0107188 0.000393724)
(-0.00471545 -0.0117767 -7.15244e-05)
(-0.0047613 -0.0115782 0.000211117)
(-0.0050112 -0.0119863 7.63561e-05)
(-0.00453237 -0.0114504 8.50856e-05)
(-0.0044925 -0.0113472 0.000110972)
(-0.00473363 -0.0113299 -5.90301e-06)
(-0.00458556 -0.0113369 -9.80126e-06)
(-0.00474309 -0.0113083 0.000275561)
(-0.00457889 -0.0114839 6.92739e-05)
(-0.004994 -0.011609 -0.000433326)
(-0.00492968 -0.0117378 -0.000337794)
(-0.00515387 -0.0117175 -0.000302656)
(-0.00500169 -0.011711 -0.000420282)
(-0.00479733 -0.011289 -0.000340646)
(-0.00506122 -0.0119485 -0.000263489)
(-0.00481917 -0.0118707 6.11481e-05)
(-0.00489378 -0.0118348 9.02103e-05)
(-0.00457511 -0.0112308 6.73283e-05)
(-0.00458645 -0.011135 0.000164863)
(-0.00480449 -0.0115698 0.000178488)
(-0.00481612 -0.0114105 -6.85924e-05)
(-0.00467404 -0.0114064 3.70014e-05)
(-0.00478847 -0.011646 3.01422e-05)
(-0.00472862 -0.0108485 -0.000115669)
(-0.00477367 -0.011082 -2.55479e-05)
(-0.00505132 -0.0118804 1.79775e-05)
(-0.00467585 -0.0110473 -0.000216896)
(-0.00493619 -0.0109776 -0.000360516)
(-0.00525756 -0.0117822 -0.000350033)
(-0.00479545 -0.0114467 -0.000195558)
(-0.00523028 -0.0113606 -0.000536465)
(-0.00508796 -0.011633 -0.000628443)
(-0.00477217 -0.0110851 -0.000276886)
(-0.00451409 -0.0111588 0.000101263)
(-0.0051307 -0.0117497 -0.000190998)
(-0.0045859 -0.0111296 -4.0682e-05)
(-0.00464632 -0.0112847 -2.66157e-05)
(-0.00465217 -0.0114066 -0.000268985)
(-0.00465127 -0.0101672 -0.000336443)
(-0.00450079 -0.0105263 -9.01137e-05)
(-0.00456508 -0.0106813 -0.000203244)
(-0.00473363 -0.0105159 -0.000186039)
(-0.00479991 -0.0110334 -0.000355521)
(-0.00502206 -0.0108555 -0.000420103)
(-0.00481846 -0.0114806 -0.000722434)
(-0.00505671 -0.0117897 -0.000628778)
(-0.00508156 -0.0116663 -0.000685193)
(-0.00516071 -0.0118302 -0.000702659)
(-0.00515939 -0.0121772 -0.000683907)
(-0.00516119 -0.0123231 -0.000563395)
(-0.00499375 -0.0120265 -5.6521e-05)
(-0.0048538 -0.0120144 -2.51624e-06)
(-0.00493296 -0.0120652 4.02975e-05)
(-0.00480105 -0.0117486 -5.19807e-06)
(-0.00483879 -0.0116734 2.95145e-05)
(-0.0048848 -0.011885 8.78846e-05)
(-0.00505351 -0.0120639 0.000175349)
(-0.00475988 -0.0116028 2.14735e-05)
(-0.00481434 -0.0120173 7.27898e-05)
(-0.00462039 -0.011942 0.00030445)
(-0.00457148 -0.0115624 0.00035461)
(-0.00483355 -0.0119159 4.73647e-05)
(-0.00467333 -0.0115132 -7.21456e-05)
(-0.00482816 -0.0115132 -1.63368e-05)
(-0.00477856 -0.0118386 -7.7938e-05)
(-0.00486843 -0.0115505 -8.65365e-06)
(-0.00526921 -0.0125333 1.10327e-06)
(-0.00490899 -0.0116951 -3.81341e-05)
(-0.00433017 -0.0111012 0.000104734)
(-0.00433695 -0.0107847 -0.000159721)
(-0.004262 -0.0111673 3.50482e-05)
(-0.00417289 -0.0108085 -1.56772e-06)
(-0.00426879 -0.0108991 8.73865e-05)
(-0.00438171 -0.0110501 -7.56843e-05)
(-0.00477321 -0.0115575 -7.70895e-06)
(-0.00477513 -0.0120894 0.000153469)
(-0.00489926 -0.0115293 3.46786e-06)
(-0.00470054 -0.0115935 5.00191e-06)
(-0.00468353 -0.0115096 7.48095e-05)
(-0.00478807 -0.0117917 0.000112011)
(-0.00476355 -0.0114475 1.72978e-05)
(-0.00476674 -0.0118307 0.000107647)
(-0.00501096 -0.0118117 5.21456e-05)
(-0.00489126 -0.0117425 5.78182e-05)
(-0.00496545 -0.0117366 -4.43203e-05)
(-0.00505862 -0.0123881 0.000120684)
(-0.00474501 -0.011493 9.76535e-07)
(-0.00502422 -0.012077 0.000333853)
(-0.0048445 -0.0114767 0.000293974)
(-0.00458439 -0.0112022 -2.3194e-05)
(-0.00512285 -0.0120306 2.57173e-05)
(-0.00482559 -0.0117904 -7.6924e-05)
(-0.00484714 -0.0118496 2.5174e-05)
(-0.00513587 -0.0120576 0.000111482)
(-0.00517524 -0.0120381 0.000132031)
(-0.00510108 -0.011676 0.000164163)
(-0.00515389 -0.0117376 0.000188876)
(-0.00483811 -0.0117729 -0.000127324)
(-0.00516558 -0.012187 0.000165533)
(-0.00497757 -0.0119891 -6.96491e-05)
(-0.00500806 -0.0121364 -2.20976e-05)
(-0.0049698 -0.0123804 3.09707e-06)
(-0.00496877 -0.0122826 2.78262e-05)
(-0.00502928 -0.0121911 -5.99544e-05)
(-0.00499432 -0.0118194 4.18543e-05)
(-0.00486391 -0.0120855 2.04121e-05)
(-0.00480173 -0.0116013 3.11173e-05)
(-0.00493606 -0.0120655 -8.83203e-07)
(-0.00493776 -0.0124595 1.55627e-05)
(-0.00485555 -0.0121833 9.72425e-05)
(-0.00467514 -0.0119923 -2.33993e-05)
(-0.00487513 -0.0120171 5.41936e-05)
(-0.00484885 -0.0122045 -8.46181e-05)
(-0.00468243 -0.0120459 3.99685e-06)
(-0.00473637 -0.0118344 -5.4109e-05)
(-0.00481312 -0.0121968 -8.79124e-05)
(-0.00467421 -0.0108642 -6.3474e-05)
(-0.00434513 -0.010706 5.25198e-05)
(-0.00471747 -0.0110977 -4.70066e-05)
(-0.00459164 -0.0108625 4.95946e-05)
(-0.00458688 -0.0110693 -1.28338e-06)
(-0.00445521 -0.0116468 0.000213287)
(-0.00458579 -0.0117744 7.09306e-05)
(-0.00470733 -0.0116463 -4.04725e-05)
(-0.00446558 -0.0112933 9.87571e-05)
(-0.00452521 -0.0117443 0.0001867)
(-0.00468014 -0.0119289 0.000105363)
(-0.00458511 -0.0116458 0.000116809)
(-0.00475114 -0.0115709 -6.41463e-05)
(-0.00506706 -0.0120274 0.00010905)
(-0.00478168 -0.0119168 7.80939e-05)
(-0.00432164 -0.0116467 0.000432254)
(-0.00441168 -0.0118235 0.000347593)
(-0.00477695 -0.0116577 4.20988e-05)
(-0.00438394 -0.0102587 -0.000240822)
(-0.00466366 -0.0106579 -0.000625673)
(-0.00434668 -0.0101746 -0.000255378)
(-0.00451116 -0.0111514 -0.000159406)
(-0.00430809 -0.0108296 -0.000125385)
(-0.00454463 -0.0111262 -0.000133113)
(-0.00425402 -0.0105876 2.86302e-06)
(-0.00468626 -0.0112426 0.00011787)
(-0.00443317 -0.0110681 0.000299912)
(-0.00482513 -0.0114993 0.00033155)
(-0.0048084 -0.011405 0.000502012)
(-0.00455195 -0.0112406 0.000317847)
(-0.00434619 -0.0107535 0.000169393)
(-0.00461037 -0.0110185 0.000455909)
(-0.00468585 -0.0114513 0.000320957)
(-0.00459213 -0.0114238 0.000203371)
(-0.00469256 -0.0117946 0.000514476)
(-0.00480264 -0.0117113 0.000281171)
(-0.00469448 -0.0113993 0.000207525)
(-0.00471171 -0.0116738 0.000391892)
(-0.00494777 -0.0114464 0.000290907)
(-0.00434155 -0.0104783 8.30071e-05)
(-0.00470974 -0.0114337 0.000252495)
(-0.00468042 -0.0114255 8.74477e-05)
(-0.00461623 -0.0112382 0.000232286)
(-0.00473977 -0.0113609 -1.68846e-05)
(-0.00458304 -0.0108776 -3.75112e-05)
(-0.00431021 -0.010327 6.04214e-05)
(-0.004403 -0.0109617 0.000279929)
(-0.00428775 -0.0104292 0.000140229)
(-0.00423054 -0.0105837 0.00030834)
(-0.00486525 -0.0114737 5.78301e-05)
(-0.00490049 -0.011818 8.49852e-06)
(-0.00492104 -0.0116174 3.47541e-05)
(-0.00496615 -0.0119426 -6.3318e-05)
(-0.00496162 -0.0114729 5.77447e-05)
(-0.00517771 -0.0118369 -1.35843e-05)
(-0.00492679 -0.0116683 0.000149027)
(-0.00520148 -0.0119034 -2.41034e-05)
(-0.00481744 -0.0115685 5.7051e-05)
(-0.00502147 -0.0119408 -7.03965e-06)
(-0.00487103 -0.0118544 6.96142e-05)
(-0.00501551 -0.0116958 -7.93032e-06)
(-0.00505442 -0.0122146 -5.07483e-05)
(-0.0052927 -0.0124254 -2.05048e-05)
(-0.00445158 -0.011538 2.43706e-05)
(-0.00493644 -0.0114895 0.000198947)
(-0.00468893 -0.0112062 -1.11089e-05)
(-0.00522159 -0.0116617 0.000197442)
(-0.00521896 -0.0118906 0.000202646)
(-0.00505849 -0.0116875 0.000128597)
(-0.00485197 -0.0116175 -2.60171e-06)
(-0.00516186 -0.0119136 0.000112929)
(-0.00482623 -0.0114673 6.49868e-05)
(-0.00495044 -0.0116443 0.000258216)
(-0.00472592 -0.0113884 9.14688e-05)
(-0.00508402 -0.0118724 8.44323e-05)
(-0.00477302 -0.0114789 0.000108864)
(-0.00471857 -0.0118021 -1.72277e-05)
(-0.00509062 -0.0119977 0.000145961)
(-0.00492069 -0.0115242 0.000140494)
(-0.00492975 -0.012187 -3.94102e-05)
(-0.00495049 -0.0115719 -9.33023e-05)
(-0.00506868 -0.0116913 0.000195703)
(-0.00452772 -0.0108632 1.12267e-05)
(-0.00481934 -0.0115127 -7.71505e-05)
(-0.00490581 -0.0118292 0.000137447)
(-0.00429221 -0.0109623 0.000169379)
(-0.00478668 -0.0118279 8.92662e-05)
(-0.00504272 -0.0118722 4.48933e-05)
(-0.00440078 -0.0111361 -3.1282e-05)
(-0.00486747 -0.0114471 0.000154002)
(-0.00494654 -0.0114304 -6.45039e-06)
(-0.00484431 -0.011607 -3.78521e-05)
(-0.00487464 -0.0122458 -5.14154e-05)
(-0.00515429 -0.0117832 2.36963e-05)
(-0.00491981 -0.0121671 -6.57604e-05)
(-0.00495035 -0.0120182 3.30691e-05)
(-0.00508498 -0.0120976 -0.000146626)
(-0.00476303 -0.0116834 -5.59704e-06)
(-0.00515138 -0.0122052 -0.000172716)
(-0.00495395 -0.0119274 -0.000315229)
(-0.00467107 -0.0112783 -0.000227298)
(-0.00477049 -0.0116552 -5.41568e-05)
(-0.00490308 -0.0121129 -0.000137844)
(-0.00548083 -0.0125524 7.39247e-05)
(-0.00528262 -0.0127224 -8.20693e-05)
(-0.00533698 -0.0124965 7.12838e-06)
(-0.00504119 -0.01248 -7.92072e-05)
(-0.00534174 -0.0126104 5.84824e-05)
(-0.00504281 -0.0120864 4.69088e-05)
(-0.0052698 -0.0123171 8.78849e-05)
(-0.0047634 -0.0119382 -4.45188e-05)
(-0.00521303 -0.0121618 4.25284e-05)
(-0.00528464 -0.0126823 -5.55735e-05)
(-0.00536804 -0.012897 0.000131633)
(-0.00520089 -0.0124898 -0.000386388)
(-0.00507552 -0.0124426 -0.000543605)
(-0.00489053 -0.0122418 -0.000442473)
(-0.00500572 -0.0123235 -0.000334887)
(-0.00503949 -0.01277 -0.000283815)
(-0.00526595 -0.0129117 -0.000481762)
(-0.00490168 -0.0121161 6.19883e-06)
(-0.00531778 -0.012205 2.88505e-05)
(-0.00505622 -0.0122019 -3.96389e-05)
(-0.00497067 -0.0119058 -1.04419e-06)
(-0.00509512 -0.012005 -2.01271e-05)
(-0.00498955 -0.0124291 -0.000213988)
(-0.00502589 -0.0123022 -0.000187391)
(-0.00474283 -0.0118091 -0.000121946)
(-0.00496969 -0.0121892 -0.000159972)
(-0.00512437 -0.0126845 7.17952e-06)
(-0.00479905 -0.0119155 -0.000140018)
(-0.00507712 -0.0121309 3.48131e-06)
(-0.00518504 -0.0132224 -0.000153808)
(-0.00555332 -0.012933 -3.76601e-06)
(-0.00535316 -0.0126091 1.76748e-05)
(-0.00535279 -0.013402 -0.00014413)
(-0.00510226 -0.0130052 -0.000278305)
(-0.00501379 -0.0126733 -0.000292097)
(-0.0049632 -0.0121071 0.000349746)
(-0.00516995 -0.0120464 0.000381359)
(-0.00528899 -0.0128888 0.000168256)
(-0.0045994 -0.0114811 0.000255601)
(-0.00489825 -0.0122548 4.373e-05)
(-0.00501405 -0.0125932 0.000675839)
(-0.00478943 -0.0114344 0.000327415)
(-0.00469942 -0.0115627 7.50895e-05)
(-0.0050356 -0.0117708 9.31638e-05)
(-0.00500044 -0.0117887 0.000124293)
(-0.00481219 -0.0116773 0.00011274)
(-0.00473188 -0.0115288 0.00019307)
(-0.00485732 -0.0116497 0.000160735)
(-0.00495535 -0.0121708 0.000296737)
(-0.00489964 -0.0118332 6.55202e-05)
(-0.00503097 -0.0124014 -2.82315e-06)
(-0.00479661 -0.0121113 -3.33234e-05)
(-0.00483337 -0.0119897 9.29403e-06)
(-0.00503277 -0.011948 0.000147211)
(-0.00476169 -0.0119384 -0.000124982)
(-0.00518113 -0.0122462 0.000220667)
(-0.00474869 -0.0119587 -0.000174996)
(-0.00489639 -0.0120296 -4.30824e-05)
(-0.00483084 -0.0117179 -3.32674e-05)
(-0.00457628 -0.0117961 -0.000116334)
(-0.00494919 -0.0121059 2.61946e-05)
(-0.00467763 -0.0119242 -9.56999e-05)
(-0.0044048 -0.0122244 -7.00143e-05)
(-0.00455811 -0.0123673 -0.000137302)
(-0.0045699 -0.0121169 1.64282e-05)
(-0.00468074 -0.0124634 -0.000127795)
(-0.00476511 -0.0123526 1.04988e-05)
(-0.00456837 -0.0119447 -4.21821e-05)
(-0.00508921 -0.0119246 5.41261e-05)
(-0.00515601 -0.0120789 -0.000100032)
(-0.00509226 -0.0119539 -4.62947e-05)
(-0.00476907 -0.0117977 5.44743e-05)
(-0.00522013 -0.0121325 -2.5899e-05)
(-0.00503011 -0.0119439 4.70287e-05)
(-0.00478679 -0.0120573 0.000132308)
(-0.00500245 -0.0117691 1.87992e-05)
(-0.00461483 -0.0117555 8.76917e-05)
(-0.00445154 -0.0114296 0.000206321)
(-0.00454138 -0.0122385 0.000230793)
(-0.0043703 -0.0113582 0.000248589)
(-0.00495892 -0.0119211 -4.32368e-05)
(-0.00492881 -0.0119594 -7.99046e-05)
(-0.00501305 -0.0114701 2.65398e-05)
(-0.00485171 -0.0117288 5.10521e-05)
(-0.00478749 -0.0117807 9.78848e-05)
(-0.00455111 -0.0113373 2.08617e-05)
(-0.00522606 -0.0121226 -5.54159e-05)
(-0.00530119 -0.012624 -5.22098e-05)
(-0.00532913 -0.0128301 8.02342e-06)
(-0.00517213 -0.0122107 3.12311e-05)
(-0.00527059 -0.0124003 6.81003e-05)
(-0.005249 -0.0122189 5.51353e-05)
(-0.00529268 -0.012901 5.01896e-06)
(-0.00527921 -0.0127233 1.42053e-05)
(-0.00558686 -0.0130995 -0.000106183)
(-0.00534638 -0.0132013 -0.000108903)
(-0.00531817 -0.0128297 -3.32486e-05)
(-0.00525616 -0.0128583 1.80475e-05)
(-0.00485724 -0.0115749 -0.000128218)
(-0.004948 -0.0118189 -0.000223854)
(-0.00461092 -0.0112963 0.000159482)
(-0.00477579 -0.0118688 0.000226641)
(-0.00471593 -0.0112651 0.000191766)
(-0.00473166 -0.0117757 0.000211861)
(-0.0049997 -0.0123423 -1.47496e-05)
(-0.00497089 -0.0117911 0.000182177)
(-0.00505367 -0.0119656 0.000450312)
(-0.00462288 -0.0115478 0.000405892)
(-0.00471096 -0.0111174 0.000491405)
(-0.00502697 -0.0125101 0.000572271)
(-0.00480976 -0.0112679 0.00018568)
(-0.00457167 -0.0109792 0.000116839)
(-0.00507232 -0.0120343 0.000371662)
(-0.00446404 -0.0111867 0.0002516)
(-0.00455404 -0.011697 5.98499e-05)
(-0.00458825 -0.0111393 0.000159969)
(-0.00477564 -0.0114843 0.000107474)
(-0.00455108 -0.0113155 9.18985e-05)
(-0.00427052 -0.0111102 0.000177944)
(-0.00472269 -0.0112158 0.000130046)
(-0.00430579 -0.0105147 0.00025375)
(-0.00446353 -0.0108215 4.07532e-05)
(-0.00441216 -0.0111186 0.000200365)
(-0.00423399 -0.0111449 6.72958e-05)
(-0.00458445 -0.0112906 0.000161892)
(-0.00452257 -0.0106266 0.000114612)
(-0.00504468 -0.0123269 3.00379e-05)
(-0.00443826 -0.010775 -6.0898e-05)
(-0.00444277 -0.010694 -9.75798e-05)
(-0.0043914 -0.0106263 -0.000124369)
(-0.00413391 -0.0101686 -3.88284e-06)
(-0.00447749 -0.011016 -0.000237719)
(-0.00417213 -0.0107503 -0.00014485)
(-0.00448998 -0.0106267 -6.55515e-05)
(-0.00469591 -0.0114776 0.00010722)
(-0.00417659 -0.0102934 7.10673e-06)
(-0.00472526 -0.0115618 0.000325557)
(-0.0044944 -0.0109531 0.000119309)
(-0.00470823 -0.0119212 0.000234712)
(-0.0045188 -0.011134 0.000173441)
(-0.00459455 -0.0112993 0.000294697)
(-0.00456497 -0.0115431 0.000402905)
(-0.00462217 -0.0111888 3.06087e-05)
(-0.00467818 -0.0113889 0.000174647)
(-0.00485272 -0.0115456 4.59869e-05)
(-0.00500153 -0.0120401 0.000193547)
(-0.00481325 -0.0116409 3.48134e-05)
(-0.00460894 -0.0111059 6.04988e-05)
(-0.00473086 -0.0115607 -1.10832e-05)
(-0.00437519 -0.0109802 -0.000124508)
(-0.00469307 -0.0116143 7.86876e-05)
(-0.00416734 -0.0107167 0.000211872)
(-0.00437881 -0.0112551 8.50536e-05)
(-0.00460652 -0.0115543 4.52265e-05)
(-0.00482776 -0.0118582 8.71012e-05)
(-0.00483417 -0.0119563 9.23553e-05)
(-0.00475279 -0.0116406 0.000143077)
(-0.00442604 -0.0116154 0.000352653)
(-0.00441306 -0.0115138 0.000354658)
(-0.0045656 -0.0112719 0.000319561)
(-0.0046749 -0.011234 0.000338464)
(-0.00466194 -0.011429 0.000555946)
(-0.004745 -0.0115681 0.000430797)
(-0.00457673 -0.0112949 0.000320032)
(-0.00436053 -0.011021 0.00031757)
(-0.00444952 -0.0106673 8.60446e-05)
(-0.00419018 -0.0103486 -6.73433e-05)
(-0.0041289 -0.0106015 0.000164822)
(-0.00479145 -0.0111586 0.000226783)
(-0.00465317 -0.0110985 -0.000183842)
(-0.00437865 -0.0105318 -9.83481e-05)
(-0.00450963 -0.0106722 -0.000139222)
(-0.00491492 -0.0112743 2.12444e-05)
(-0.00473184 -0.0108508 0.000124374)
(-0.00470343 -0.011204 -5.66598e-05)
(-0.00487453 -0.0113693 -6.75139e-05)
(-0.00465586 -0.0113566 -0.000168058)
(-0.00440866 -0.0110646 -0.000149529)
(-0.00444444 -0.0106566 7.85049e-05)
(-0.00464072 -0.0108189 5.80147e-05)
(-0.0045372 -0.0110818 4.90362e-05)
(-0.0043754 -0.0103889 2.06753e-05)
(-0.00419303 -0.0100987 -1.0999e-05)
(-0.00432843 -0.0103931 7.97195e-06)
(-0.00426071 -0.0103844 0.000102272)
(-0.00427973 -0.0104934 4.13131e-05)
(-0.0045434 -0.0106649 2.41413e-05)
(-0.00519862 -0.0127234 -0.000148556)
(-0.0050438 -0.0119674 -6.15302e-05)
(-0.00519531 -0.0125234 -0.000393812)
(-0.00512584 -0.0125737 -0.00017285)
(-0.00526509 -0.0128461 -0.00021673)
(-0.00527793 -0.0124865 -0.000403441)
(-0.00500063 -0.0118521 -0.000222712)
(-0.00543194 -0.0124272 -0.000144757)
(-0.00500579 -0.0123003 9.7843e-06)
(-0.00489735 -0.0118642 -6.57245e-05)
(-0.0051408 -0.0121477 -3.15083e-05)
(-0.00527263 -0.0126093 -0.000344815)
(-0.00510566 -0.0125068 -0.000222529)
(-0.00473847 -0.0115876 -3.20869e-05)
(-0.00489492 -0.0120155 4.99377e-05)
(-0.00506977 -0.0120973 6.63898e-05)
(-0.00507419 -0.0121693 -0.000194552)
(-0.00506546 -0.0125777 -0.000154043)
(-0.00471123 -0.011007 -5.71574e-05)
(-0.00477661 -0.0116039 0.000154987)
(-0.00476577 -0.0111717 0.000133654)
(-0.00461487 -0.0113586 -0.000105335)
(-0.0045636 -0.0107707 0.000237809)
(-0.00467208 -0.0110125 0.000165918)
(-0.00454574 -0.0107973 -2.33448e-05)
(-0.00484447 -0.0117349 0.000180088)
(-0.00483582 -0.0128458 -0.000293981)
(-0.00463524 -0.0116384 -3.37678e-05)
(-0.00441942 -0.0114146 0.000138977)
(-0.0041334 -0.0104048 -1.03458e-06)
(-0.00409139 -0.0103286 1.48579e-05)
(-0.00479135 -0.0116024 8.14508e-06)
(-0.00428697 -0.0113717 0.000408059)
(-0.00405024 -0.0106045 0.000149458)
(-0.00388224 -0.0103184 7.77794e-05)
(-0.00449942 -0.0110232 0.000201116)
(-0.00409328 -0.0101912 0.000108408)
(-0.00423355 -0.0112404 0.000326218)
(-0.00460717 -0.0120211 0.00018207)
(-0.00473225 -0.0116195 0.000141047)
(-0.00474979 -0.0116986 0.000369787)
(-0.00462921 -0.0114051 0.000274095)
(-0.00430967 -0.010949 0.000185236)
(-0.00461892 -0.0116333 3.97878e-05)
(-0.00477794 -0.0115957 6.672e-05)
(-0.00433732 -0.0107848 0.000149787)
(-0.00452568 -0.0115362 0.000170185)
(-0.00456418 -0.0113094 0.000293682)
(-0.00462699 -0.0111146 0.000118139)
(-0.00448773 -0.0112723 0.000176053)
(-0.00450768 -0.0113564 0.000231906)
(-0.00461833 -0.0113714 0.000101067)
(-0.00458295 -0.010918 0.00011869)
(-0.00465229 -0.0114079 5.00461e-05)
(-0.00465444 -0.0111516 5.82957e-05)
(-0.00440996 -0.0113891 0.000271928)
(-0.00455085 -0.0113456 0.000176556)
(-0.00455964 -0.0112509 0.0001676)
(-0.00491384 -0.0120951 -2.58346e-05)
(-0.00455616 -0.0112685 2.95853e-05)
(-0.00436974 -0.0104839 6.12766e-05)
(-0.00462104 -0.0116262 0.000296713)
(-0.00458992 -0.0115999 7.02427e-05)
(-0.00470006 -0.0115628 0.000235649)
(-0.00467093 -0.0118561 0.000246824)
(-0.00504401 -0.0120794 4.18887e-06)
(-0.00480545 -0.0118777 5.21016e-05)
(-0.00486806 -0.0115735 9.97899e-05)
(-0.00467634 -0.0113592 0.000175926)
(-0.00462626 -0.0116108 0.000160844)
(-0.00500452 -0.0118328 0.0002043)
(-0.00479648 -0.0121232 0.000188742)
(-0.00460206 -0.0114919 0.000377833)
(-0.00472795 -0.0113506 0.000157521)
(-0.0048348 -0.0113686 0.000232289)
(-0.00490209 -0.0118678 0.000242525)
(-0.00449524 -0.0108795 0.000247637)
(-0.0047496 -0.0113706 0.000171089)
(-0.00458119 -0.01093 4.36533e-05)
(-0.00462833 -0.0109541 -3.1166e-05)
(-0.00491929 -0.0113202 0.000200995)
(-0.00489444 -0.0115066 8.50535e-05)
(-0.00504287 -0.0117537 0.00022393)
(-0.00495819 -0.0119488 0.000247158)
(-0.00502046 -0.0118257 0.000399814)
(-0.00467469 -0.0112279 0.000565109)
(-0.00450543 -0.0106624 -7.5721e-06)
(-0.00477603 -0.0118422 0.000414805)
(-0.00442183 -0.0113836 0.000701349)
(-0.00478011 -0.0117342 0.000306681)
(-0.00459296 -0.0117359 0.000536518)
(-0.00448861 -0.0108693 0.000333357)
(-0.00470503 -0.0116358 0.000260291)
(-0.00476445 -0.0113608 0.000295666)
(-0.00496666 -0.0122849 0.000122389)
(-0.00463926 -0.0112417 0.000363429)
(-0.00483538 -0.0115794 0.000323202)
(-0.00487665 -0.0118248 0.000274186)
(-0.00518353 -0.0129485 1.83928e-05)
(-0.00541017 -0.0134417 -0.000102156)
(-0.00516003 -0.0129067 3.25631e-05)
(-0.00493157 -0.0119672 -7.19025e-05)
(-0.00464815 -0.0115687 0.000278169)
(-0.00464974 -0.0109422 -7.37808e-05)
(-0.00484898 -0.0114379 8.34127e-05)
(-0.0048461 -0.0118823 1.74155e-05)
(-0.00456749 -0.0117453 0.000108828)
(-0.00495557 -0.0118714 5.29577e-05)
(-0.00444137 -0.0115081 0.000191544)
(-0.00496266 -0.0117909 -5.56968e-05)
(-0.00472466 -0.0119135 4.93319e-05)
(-0.00479839 -0.0114909 -9.13097e-05)
(-0.00483438 -0.0118397 0.000204308)
(-0.0048152 -0.0117816 0.000288062)
(-0.00444642 -0.01111 0.000199335)
(-0.00461017 -0.0115359 0.00020604)
(-0.00472858 -0.0118592 4.07096e-05)
(-0.00456826 -0.0117091 0.000344796)
(-0.00443256 -0.0112177 0.000354973)
(-0.00462035 -0.0115958 0.000327173)
(-0.00471727 -0.0116604 0.000135401)
(-0.00460812 -0.0114645 0.000390033)
(-0.0046024 -0.0116342 0.000230871)
(-0.00457607 -0.0114447 0.000193416)
(-0.00463486 -0.0117693 0.000194782)
(-0.00494453 -0.0117127 7.02643e-05)
(-0.00447492 -0.011224 -1.10131e-05)
(-0.00454212 -0.0122798 -0.000234397)
(-0.00477035 -0.0125264 -5.81913e-05)
(-0.00469467 -0.0116932 -5.22959e-05)
(-0.00510386 -0.0120872 4.39914e-05)
(-0.00478208 -0.01203 0.000173456)
(-0.00482768 -0.0117329 0.0001179)
(-0.00499507 -0.0120292 0.000398133)
(-0.0048395 -0.0118216 0.0002088)
(-0.00491966 -0.0118918 0.000215567)
(-0.00504689 -0.0119609 0.000291739)
(-0.0049737 -0.0120683 0.000437585)
(-0.00493616 -0.0117631 0.00033276)
(-0.00509804 -0.0121584 0.000261689)
(-0.0050001 -0.0116492 0.000571702)
(-0.00498688 -0.0117959 0.000537542)
(-0.00488974 -0.011689 0.00021627)
(-0.00484076 -0.0115263 0.000440661)
(-0.00507341 -0.0121532 0.000332303)
(-0.00490789 -0.011653 0.000412257)
(-0.00496475 -0.0121534 0.000594232)
(-0.00495019 -0.0115757 0.000322824)
(-0.00494466 -0.0117936 8.18216e-05)
(-0.0050007 -0.0120469 0.00026586)
(-0.00471581 -0.0124969 -0.000157364)
(-0.0047353 -0.0123198 -0.000134047)
(-0.00451778 -0.0122235 -0.00040339)
(-0.00528089 -0.0131575 -0.000141111)
(-0.00540515 -0.0129579 6.27058e-06)
(-0.00527359 -0.0129669 -2.00563e-05)
(-0.00497814 -0.0130385 -0.000140142)
(-0.00527358 -0.0129748 -0.000207116)
(-0.00525944 -0.0132278 -0.000161476)
(-0.00536227 -0.0129569 -3.07583e-06)
(-0.00552823 -0.0129856 -7.4471e-05)
(-0.00520415 -0.013159 -0.000364498)
(-0.00541129 -0.0128169 -0.000101961)
(-0.00531603 -0.0130614 -0.000171038)
(-0.00528637 -0.0132424 -0.000290172)
(-0.0049972 -0.0129269 -0.000333375)
(-0.005414 -0.0134559 -0.000480802)
(-0.00527526 -0.0129117 -0.000511393)
(-0.005002 -0.0120746 -7.84346e-05)
(-0.00530784 -0.0130657 -0.000247411)
(-0.00489067 -0.0123621 -8.40399e-05)
(-0.00470526 -0.0120564 -0.000165089)
(-0.00508483 -0.0127653 2.44017e-05)
(-0.00492621 -0.0123688 4.09079e-05)
(-0.00512762 -0.0126415 -2.02731e-06)
(-0.00536222 -0.0126661 -0.000334248)
(-0.00507439 -0.0124798 -0.000201198)
(-0.00492395 -0.0118789 -8.3562e-05)
(-0.00494464 -0.0118718 -0.000184394)
(-0.00519107 -0.0121109 4.5791e-05)
(-0.00517413 -0.0121478 4.86255e-05)
(-0.00519736 -0.0121211 0.000280916)
(-0.00504032 -0.0119506 0.000157803)
(-0.00513163 -0.0122326 -0.000174724)
(-0.00489624 -0.011993 -0.000104906)
(-0.00479617 -0.0117627 8.71472e-05)
(-0.00505591 -0.011539 0.000176443)
(-0.00530584 -0.0118253 0.000228669)
(-0.00465353 -0.0115387 0.000130235)
(-0.00467022 -0.0114498 6.2661e-05)
(-0.0047299 -0.0116761 0.000275347)
(-0.00441415 -0.0111953 0.000178638)
(-0.00467955 -0.0116113 8.91959e-05)
(-0.00469222 -0.0115085 -2.39619e-05)
(-0.00467942 -0.0110604 7.10035e-06)
(-0.00470934 -0.0113542 3.57444e-07)
(-0.00486852 -0.0116378 0.000143206)
(-0.00432424 -0.011051 6.27411e-05)
(-0.00494645 -0.0120535 -9.35691e-05)
(-0.00491645 -0.011629 9.83997e-05)
(-0.00489587 -0.011835 9.11352e-05)
(-0.00508288 -0.0116988 5.67234e-05)
(-0.00493496 -0.0114157 0.000104236)
(-0.00532466 -0.0123096 2.91876e-05)
(-0.00459956 -0.011543 -8.67834e-05)
(-0.00473973 -0.0114331 -3.08959e-05)
(-0.00538354 -0.012134 0.000214582)
(-0.00478573 -0.011371 9.01021e-05)
(-0.00500677 -0.0116786 6.5808e-05)
(-0.00501759 -0.0119384 -8.8185e-05)
(-0.00484035 -0.01151 1.15416e-05)
(-0.00450412 -0.0110661 -8.1929e-05)
(-0.00480326 -0.0115528 0.000260327)
(-0.00505377 -0.0116809 0.000129057)
(-0.00473093 -0.0113769 4.18835e-05)
(-0.00485333 -0.0112832 0.000170384)
(-0.00512132 -0.0119054 0.000159801)
(-0.00468751 -0.0119269 -4.77721e-05)
(-0.00508757 -0.0120188 0.000107696)
(-0.00506688 -0.0117015 4.67607e-05)
(-0.00494051 -0.011835 7.09143e-05)