/*--------------------------------*- C++ -*----------------------------------*\
| =========                 |                                                 |
| \\      /  F ield         | OpenFOAM: The Open Source CFD Toolbox           |
|  \\    /   O peration     | Version:  v1612+                                |
|   \\  /    A nd           | Web:      www.OpenFOAM.com                      |
|    \\/     M anipulation  |                                                 |
\*---------------------------------------------------------------------------*/
FoamFile
{
    version     2.0;
    format      ascii;
    class       volVectorField;
    location    "100";
    object      U;
}
// * * * * * * * * * * * * * * * * * * * * * * * * * * * * * * * * * * * * * //

dimensions      [0 1 -1 0 0 0 0];

internalField   nonuniform List<vector> 
21462
(
(0.141609 0.601627 0.473845)
(0.0431482 0.294559 0.402372)
(-0.077457 0.369919 0.404339)
(0.100734 0.554116 0.480629)
(-0.032299 0.604987 0.610859)
(-0.0792454 0.353444 0.492775)
(-0.145962 0.488751 0.609887)
(0.040187 0.437798 0.570424)
(0.227309 0.542159 0.507678)
(0.0727852 0.531779 0.529441)
(0.34817 0.618045 0.387297)
(0.189142 0.66342 0.681173)
(-0.00543796 0.575087 0.625226)
(-0.0312425 0.516225 0.497456)
(0.0751758 0.489161 0.597751)
(0.142936 0.650404 0.47358)
(-0.0927893 0.551731 0.629143)
(-0.0475041 0.507778 0.543281)
(-0.0358787 0.437855 0.466334)
(0.301843 0.681024 0.582836)
(0.0870542 0.396041 0.530859)
(0.0485561 0.595365 0.538666)
(0.0927701 0.630891 0.503553)
(0.10545 0.657623 0.516398)
(0.111271 0.65604 0.519355)
(0.191431 0.62684 0.413633)
(0.195972 0.722545 0.554598)
(0.0787005 0.398799 0.42256)
(-0.0140147 0.473003 0.441658)
(0.0371623 0.596959 0.500155)
(0.0139484 0.614853 0.533246)
(0.0846207 0.396971 0.498742)
(0.206603 0.613239 0.567054)
(0.199589 0.608599 0.55544)
(0.166193 0.533126 0.519333)
(-0.015963 0.458789 0.611657)
(0.00519571 0.412812 0.551818)
(-0.0421783 0.408225 0.514732)
(0.262238 0.606597 0.490484)
(0.278334 0.546555 0.419542)
(-0.126306 0.421842 0.616474)
(-0.153009 0.455152 0.667806)
(-0.0579934 0.330031 0.511742)
(-0.125375 0.357326 0.563832)
(0.158167 0.607502 0.40501)
(0.0707145 0.290567 0.317922)
(0.315395 0.580405 0.54564)
(0.283531 0.626285 0.600988)
(-0.0139508 0.483133 0.422494)
(0.332515 0.650633 0.493357)
(0.358617 0.613301 0.407393)
(-0.0850095 0.483723 0.555434)
(0.247539 0.473186 0.500814)
(0.212759 0.442156 0.496691)
(0.110649 0.525373 0.555776)
(0.0729234 0.584997 0.613339)
(-0.0694772 0.382819 0.548077)
(0.145995 0.580675 0.48707)
(0.13771 0.613098 0.490449)
(0.167427 0.465099 0.450505)
(-0.131441 0.466382 0.574951)
(0.103055 0.525959 0.462956)
(-0.0606317 0.426808 0.527396)
(-0.173663 0.538766 0.674059)
(0.0714302 0.548789 0.401247)
(0.149513 0.515149 0.540559)
(-0.0324876 0.490464 0.53884)
(-0.114663 0.415431 0.465036)
(-0.132203 0.419791 0.604578)
(0.132561 0.423814 0.466414)
(0.076996 0.575389 0.581921)
(0.112289 0.61098 0.51517)
(0.152533 0.608091 0.468333)
(-0.122703 0.365446 0.486849)
(-0.0276883 0.511743 0.52467)
(-0.00544637 0.565317 0.54145)
(0.00290037 0.556827 0.564195)
(-0.0157109 0.563997 0.609098)
(-0.0218959 0.470425 0.471785)
(-0.0320341 0.503331 0.53405)
(0.0226668 0.434586 0.44004)
(0.000615146 0.421844 0.439063)
(-0.0166622 0.499039 0.50934)
(-0.102814 0.514556 0.594372)
(0.336714 0.627876 0.483659)
(-0.141138 0.465873 0.568901)
(0.227677 0.487856 0.534723)
(0.238249 0.680569 0.442122)
(0.0962393 0.315508 0.323215)
(-0.0917261 0.467329 0.513664)
(-0.0957288 0.456823 0.527409)
(-0.0412716 0.407418 0.420279)
(-0.147599 0.467222 0.585353)
(0.00858988 0.498603 0.433309)
(0.0366617 0.569578 0.58331)
(-0.128605 0.436108 0.534077)
(-0.0230128 0.342881 0.466971)
(0.0123811 0.632672 0.583378)
(0.0754832 0.654789 0.620194)
(0.0585211 0.564622 0.518072)
(0.102557 0.533604 0.523211)
(0.0870951 0.490834 0.503878)
(0.0582948 0.516129 0.563028)
(-0.137652 0.399357 0.546347)
(0.1366 0.655586 0.482641)
(0.049053 0.418521 0.557232)
(0.188283 0.56055 0.59705)
(0.190854 0.564873 0.592698)
(0.00193765 0.481196 0.408909)
(0.0807535 0.341824 0.272245)
(0.074286 0.476956 0.472141)
(0.0525153 0.499559 0.530906)
(0.083408 0.52819 0.498486)
(-0.170548 0.496459 0.635662)
(0.105651 0.529431 0.609516)
(0.125115 0.439131 0.529236)
(0.0551238 0.568371 0.474357)
(-0.0630232 0.480449 0.572073)
(-0.0151307 0.474372 0.547785)
(-0.0337499 0.492092 0.490499)
(0.0495838 0.470493 0.518963)
(-0.057714 0.37664 0.549326)
(0.216465 0.592679 0.517338)
(-0.0629436 0.4848 0.51274)
(-0.0793119 0.44119 0.479187)
(-0.103648 0.489365 0.551948)
(0.204229 0.638206 0.564598)
(0.231717 0.587809 0.383588)
(0.343181 0.585302 0.499443)
(0.332998 0.49034 0.389442)
(0.340686 0.539594 0.424951)
(-0.0511336 0.464054 0.537189)
(0.00341492 0.54808 0.456623)
(-0.171192 0.536974 0.682544)
(0.136407 0.57261 0.558446)
(0.269423 0.646039 0.398611)
(-0.133588 0.495017 0.583872)
(-0.117839 0.513957 0.572949)
(-0.0526709 0.408254 0.474733)
(0.100998 0.564677 0.455819)
(0.0978038 0.620658 0.505741)
(0.131557 0.648973 0.495082)
(0.125544 0.631859 0.473166)
(0.12718 0.569024 0.450627)
(0.233523 0.592855 0.580851)
(0.176848 0.539431 0.566209)
(0.0417583 0.505989 0.540632)
(0.0308531 0.507063 0.5512)
(0.33635 0.595811 0.440919)
(0.0847903 0.550603 0.566403)
(0.0527171 0.549061 0.586022)
(0.0360434 0.423217 0.562389)
(0.0035943 0.463875 0.603295)
(0.0509885 0.455977 0.581587)
(-0.0141684 0.54624 0.615926)
(0.013831 0.511793 0.501971)
(-0.0750971 0.362186 0.454624)
(-0.0741006 0.363285 0.500175)
(0.176535 0.615984 0.420511)
(0.182932 0.601543 0.478977)
(0.187079 0.625949 0.446498)
(0.295602 0.646753 0.381964)
(-0.0452558 0.479019 0.464982)
(-0.0986063 0.523552 0.584736)
(-0.0773728 0.514824 0.542516)
(-0.135288 0.455894 0.57576)
(-0.100884 0.503244 0.56565)
(-0.131682 0.390042 0.523829)
(0.00659747 0.38203 0.496769)
(-0.00545155 0.450062 0.585635)
(0.112677 0.587088 0.479239)
(0.175577 0.561258 0.384959)
(0.25894 0.589021 0.35277)
(-0.137729 0.377679 0.582327)
(-0.123735 0.319502 0.525074)
(0.00539219 0.408014 0.546538)
(-0.0290782 0.474543 0.626121)
(0.00185584 0.472597 0.604674)
(0.0478886 0.43963 0.548187)
(-0.108224 0.416162 0.575252)
(0.127422 0.572752 0.500812)
(0.173796 0.524861 0.495249)
(0.203263 0.557773 0.490391)
(0.190838 0.504199 0.49802)
(0.191022 0.528264 0.524227)
(0.167155 0.54997 0.570141)
(0.142531 0.360586 0.399488)
(0.100649 0.321853 0.320825)
(0.10379 0.295812 0.300526)
(0.297394 0.510959 0.434168)
(0.287114 0.599839 0.452766)
(-0.102438 0.494998 0.533432)
(0.272178 0.583241 0.461124)
(-0.107441 0.398418 0.584672)
(-0.171269 0.406604 0.555554)
(-0.123897 0.439764 0.555611)
(0.148773 0.654282 0.467127)
(0.13335 0.615245 0.420254)
(0.16218 0.647159 0.468273)
(-0.0480548 0.442727 0.411476)
(0.175695 0.622187 0.39533)
(0.193935 0.629055 0.421415)
(0.169341 0.614886 0.426213)
(-0.0933147 0.522819 0.542766)
(0.117589 0.457045 0.543307)
(0.0213008 0.508502 0.408974)
(0.202353 0.383356 0.451048)
(0.222023 0.429182 0.480856)
(0.105886 0.348551 0.468114)
(0.0587757 0.27478 0.37184)
(0.0543411 0.308195 0.388094)
(0.118376 0.435149 0.5267)
(0.118346 0.400552 0.513383)
(-0.113998 0.359342 0.478851)
(-0.171852 0.44564 0.562427)
(0.0234307 0.358406 0.361698)
(0.0172403 0.450945 0.351462)
(-0.00606567 0.437751 0.436181)
(0.0291138 0.310702 0.300845)
(0.0249465 0.333092 0.345349)
(0.0208868 0.330749 0.36191)
(0.0337992 0.39379 0.450784)
(-0.0505299 0.272822 0.466811)
(-0.0725815 0.317957 0.513707)
(-0.0590818 0.305856 0.499809)
(-0.0385898 0.353638 0.520154)
(-0.112602 0.448677 0.638004)
(0.116563 0.505453 0.561587)
(-0.000479926 0.498255 0.504407)
(-0.0190954 0.529507 0.618513)
(0.130482 0.529201 0.525483)
(0.124405 0.50486 0.522713)
(0.227734 0.54718 0.265114)
(0.182151 0.535282 0.24478)
(-0.0186674 0.553018 0.512148)
(0.0608438 0.453197 0.343063)
(0.0726865 0.44567 0.324196)
(0.0388215 0.344594 0.258992)
(0.0363537 0.347358 0.281828)
(0.0302882 0.348285 0.316622)
(-0.126241 0.406532 0.502848)
(-0.112811 0.433973 0.511843)
(-0.098146 0.452118 0.504401)
(0.0325086 0.526537 0.496567)
(0.0583623 0.566144 0.536151)
(0.0649533 0.603485 0.57934)
(0.0780427 0.592004 0.526709)
(-0.0891331 0.490204 0.559582)
(-0.0670205 0.386573 0.471489)
(-0.0853448 0.399029 0.492663)
(-0.0981336 0.401308 0.50888)
(-0.123742 0.449803 0.585807)
(-0.0732804 0.468816 0.524093)
(-0.0345697 0.471394 0.464765)
(0.0550826 0.452791 0.498488)
(-0.110723 0.435366 0.479886)
(-0.15392 0.474711 0.560284)
(-0.126514 0.4698 0.510869)
(0.0882194 0.588371 0.451759)
(0.0491676 0.60505 0.49887)
(0.0433468 0.622083 0.546705)
(0.0455998 0.610937 0.500549)
(0.058789 0.645874 0.553059)
(0.0303401 0.657995 0.608749)
(0.0432711 0.653806 0.579494)
(0.358134 0.621905 0.472228)
(0.266991 0.677773 0.582455)
(0.361941 0.540175 0.404378)
(0.337921 0.612097 0.526996)
(0.369229 0.608667 0.484355)
(0.0898635 0.577347 0.428229)
(0.139346 0.586238 0.433351)
(0.0163416 0.586632 0.501482)
(0.0362933 0.539132 0.438784)
(0.0557885 0.613604 0.505671)
(0.0222626 0.51793 0.451143)
(0.0101342 0.503469 0.441395)
(0.0545139 0.578462 0.466474)
(-0.0180357 0.574168 0.571368)
(0.000850074 0.572137 0.510567)
(-0.00329185 0.594707 0.586926)
(0.0353277 0.539714 0.442351)
(0.0328973 0.562578 0.503945)
(0.0379484 0.607699 0.525375)
(0.0469129 0.60031 0.497074)
(0.119838 0.399723 0.518593)
(0.149048 0.489276 0.524123)
(0.216466 0.684185 0.44572)
(-0.0710782 0.429021 0.462012)
(-0.076047 0.386398 0.424209)
(0.0919164 0.563627 0.501826)
(0.0851384 0.543774 0.42455)
(0.0930221 0.552019 0.438484)
(0.209143 0.528572 0.487983)
(-0.0700908 0.425329 0.544735)
(-0.0372562 0.410591 0.501223)
(-0.142199 0.429813 0.625499)
(0.233798 0.423588 0.477087)
(-0.0121067 0.481508 0.476852)
(-0.0622363 0.517356 0.544725)
(-0.0881243 0.401044 0.557488)
(-0.0604322 0.513158 0.518955)
(-0.0711688 0.511119 0.556384)
(-0.0779015 0.476519 0.499179)
(0.0185523 0.542965 0.44636)
(0.0644798 0.512322 0.356239)
(0.382182 0.550596 0.387879)
(0.356797 0.656393 0.442926)
(0.321516 0.631347 0.39425)
(0.344449 0.609567 0.393065)
(0.344587 0.608714 0.365016)
(0.371075 0.566586 0.360977)
(0.367992 0.611695 0.374445)
(0.307674 0.68881 0.468023)
(0.0842604 0.378058 0.493447)
(0.0336113 0.441633 0.573661)
(0.0234587 0.528664 0.45934)
(0.083469 0.391556 0.528529)
(0.128631 0.377946 0.497233)
(0.0935126 0.551808 0.48558)
(0.0999744 0.529922 0.443754)
(0.117242 0.599608 0.494723)
(0.0808072 0.564139 0.482992)
(0.0137164 0.475348 0.588871)
(0.0137596 0.299716 0.281654)
(0.0201179 0.356903 0.279681)
(-0.0298364 0.335523 0.436278)
(0.06308 0.59719 0.478728)
(-0.0347346 0.394047 0.500238)
(-0.0412112 0.332847 0.446866)
(0.062133 0.555791 0.527998)
(0.0220391 0.537593 0.497197)
(0.0312765 0.54676 0.476681)
(0.0155628 0.353253 0.349534)
(0.110584 0.457609 0.234619)
(-0.000161584 0.407638 0.438157)
(-0.0150116 0.302939 0.463258)
(-0.0534112 0.399984 0.564589)
(-0.0235844 0.447612 0.597169)
(0.0112818 0.340033 0.463673)
(0.111127 0.599609 0.438363)
(-0.161399 0.462249 0.605442)
(0.110883 0.469577 0.562217)
(0.232735 0.624005 0.373491)
(0.19465 0.571733 0.307323)
(0.0104456 0.497869 0.641627)
(0.00633685 0.429158 0.557211)
(0.0147448 0.472642 0.596637)
(-0.0487449 0.50028 0.609079)
(-0.0590999 0.33733 0.472286)
(0.110753 0.509925 0.307486)
(-0.100256 0.458849 0.521405)
(0.00562501 0.396906 0.541851)
(-0.0239007 0.374403 0.533114)
(0.00118075 0.403848 0.55796)
(0.0227776 0.374287 0.513951)
(0.0272664 0.38718 0.530424)
(-0.0297971 0.448951 0.614023)
(-0.0637593 0.38614 0.51062)
(-0.0966299 0.368208 0.493135)
(-0.0977193 0.39458 0.521111)
(-0.0468717 0.369044 0.465719)
(-0.061956 0.417103 0.552608)
(0.146965 0.546182 0.596915)
(-0.0945981 0.362254 0.539244)
(-0.145559 0.447126 0.648083)
(-0.0322771 0.479695 0.586174)
(-0.119587 0.368873 0.54584)
(-0.0831626 0.295829 0.504528)
(-0.103372 0.312097 0.526076)
(-0.102082 0.335449 0.549725)
(0.0164939 0.375555 0.521439)
(0.0552627 0.386691 0.398684)
(0.0307491 0.310898 0.265941)
(-0.111512 0.467737 0.506366)
(0.34581 0.497783 0.397734)
(0.273042 0.649442 0.419048)
(0.2558 0.57533 0.471454)
(0.290783 0.608978 0.43852)
(-0.0646362 0.474461 0.576635)
(0.0396973 0.606383 0.507824)
(0.00271547 0.554702 0.515238)
(-0.0815318 0.424288 0.581119)
(-0.066606 0.402205 0.549488)
(0.221045 0.58155 0.489407)
(0.17062 0.563748 0.390581)
(0.167093 0.517035 0.441352)
(-0.0160117 0.384859 0.477276)
(-0.120091 0.414614 0.527842)
(-0.0968873 0.371634 0.439631)
(-0.121069 0.425409 0.553847)
(-0.104529 0.385326 0.425337)
(-0.0717668 0.530338 0.542406)
(-0.0674113 0.443074 0.425616)
(0.0973889 0.510651 0.610368)
(0.0792311 0.505353 0.589462)
(0.109187 0.488096 0.571912)
(0.210503 0.649712 0.428163)
(-0.00849248 0.414459 0.570833)
(-0.00877388 0.437389 0.583551)
(0.0482222 0.427073 0.549339)
(-0.0979033 0.494641 0.580363)
(0.22721 0.542542 0.560307)
(0.0745637 0.593484 0.453702)
(-0.121587 0.367341 0.478888)
(-0.0107324 0.325416 0.394805)
(-0.00645266 0.295261 0.35484)
(0.00482499 0.593431 0.539957)
(0.137564 0.634602 0.500448)
(-0.102513 0.313593 0.502193)
(0.187187 0.606165 0.53396)
(0.180972 0.618645 0.572886)
(0.284892 0.645991 0.487189)
(-0.0915835 0.320704 0.516027)
(0.143403 0.484243 0.209939)
(-0.0972815 0.463892 0.514717)
(-0.0925425 0.43064 0.562264)
(0.222751 0.568004 0.425038)
(-0.101178 0.336894 0.462925)
(0.242181 0.591631 0.597417)
(0.225095 0.707182 0.489497)
(0.0615313 0.298954 0.256756)
(0.00449998 0.329437 0.476834)
(0.320992 0.5634 0.531329)
(0.0625301 0.567494 0.466563)
(0.34697 0.606337 0.374531)
(0.208297 0.507671 0.543207)
(0.192064 0.393747 0.474145)
(0.0970047 0.540207 0.466724)
(0.218637 0.683898 0.456213)
(0.257151 0.570558 0.411228)
(0.158244 0.582141 0.384137)
(0.155336 0.577055 0.388126)
(0.18442 0.551089 0.342033)
(0.240307 0.583478 0.467463)
(0.194045 0.606129 0.517509)
(-0.0413578 0.363899 0.382939)
(0.283846 0.394707 0.42635)
(-0.0136365 0.436727 0.478845)
(0.0237017 0.39171 0.534319)
(0.052305 0.331494 0.451241)
(-0.0140633 0.415084 0.54925)
(0.143759 0.655413 0.470703)
(0.0169886 0.489957 0.503967)
(-0.0225778 0.511652 0.533012)
(0.0326521 0.373179 0.4998)
(0.0583697 0.369117 0.500837)
(0.0242459 0.35536 0.470412)
(0.0437034 0.477582 0.412736)
(0.0947595 0.403429 0.46257)
(0.00956084 0.496474 0.516586)
(-0.0702054 0.396084 0.392791)
(-0.0561509 0.445788 0.467958)
(-0.0896337 0.438833 0.4984)
(-0.128573 0.513622 0.615829)
(-0.0664033 0.44867 0.474577)
(-0.124895 0.46902 0.557916)
(-0.10148 0.464077 0.551715)
(-0.0836799 0.456483 0.542729)
(-0.0584059 0.440047 0.505971)
(-0.114435 0.46419 0.518532)
(-0.0518906 0.502847 0.568941)
(-0.0754583 0.494048 0.543071)
(-0.0647179 0.467742 0.487555)
(-0.0588551 0.481295 0.505406)
(-0.0814135 0.340025 0.545586)
(-0.0539929 0.346737 0.531227)
(-0.0852382 0.397617 0.517092)
(-0.0691134 0.381434 0.532904)
(-0.0608399 0.477019 0.536763)
(-0.0693194 0.379045 0.5183)
(-0.0514264 0.382993 0.51009)
(-0.0426021 0.374636 0.526082)
(0.368944 0.583546 0.336811)
(0.139793 0.436576 0.526512)
(0.198863 0.515625 0.504769)
(0.213805 0.524359 0.492446)
(0.321219 0.638314 0.520058)
(-0.0848473 0.375375 0.486805)
(0.0354338 0.593247 0.510483)
(0.0690784 0.564262 0.468812)
(0.0849454 0.558827 0.442999)
(0.116767 0.571818 0.440967)
(0.145419 0.536962 0.604093)
(0.146934 0.528096 0.587604)
(0.00593281 0.581174 0.513784)
(0.0783127 0.582996 0.469079)
(-0.0719313 0.467652 0.486949)
(-0.0647233 0.472359 0.489179)
(-0.0558079 0.515501 0.485111)
(0.162364 0.305121 0.404809)
(0.223776 0.582606 0.343081)
(0.124841 0.609075 0.503779)
(0.122737 0.578233 0.432869)
(0.12141 0.575005 0.511338)
(-0.0963504 0.380682 0.559566)
(-0.0695007 0.419616 0.598265)
(-0.116771 0.48253 0.546972)
(-0.0579238 0.405262 0.414815)
(-0.0266618 0.293981 0.403936)
(0.0960749 0.544664 0.454018)
(0.113624 0.586321 0.551928)
(0.0669331 0.616813 0.544386)
(0.13058 0.46972 0.23018)
(0.112772 0.504368 0.299563)
(0.0376847 0.438296 0.530126)
(0.00747307 0.407994 0.529674)
(-0.0354942 0.426847 0.543177)
(0.101889 0.507693 0.545918)
(0.12083 0.534071 0.535579)
(0.134582 0.50333 0.478402)
(0.0983367 0.57125 0.580215)
(0.0628719 0.594068 0.481582)
(0.105982 0.511735 0.333378)
(0.0929078 0.518613 0.564298)
(0.0939657 0.442945 0.518257)
(0.0532628 0.444051 0.5442)
(0.341938 0.355942 0.373376)
(0.198785 0.640103 0.441236)
(0.14776 0.638439 0.530258)
(0.060403 0.317158 0.248043)
(0.127232 0.606023 0.428106)
(0.220694 0.615829 0.430253)
(-0.127407 0.445711 0.62146)
(-0.149256 0.416712 0.607084)
(-0.158393 0.438305 0.586163)
(-0.131077 0.394878 0.542405)
(0.175512 0.532426 0.388723)
(0.0612133 0.577687 0.50794)
(0.0760895 0.517071 0.382768)
(0.0608351 0.557029 0.452468)
(0.154709 0.53705 0.370721)
(0.204772 0.535829 0.526735)
(0.068023 0.345347 0.473127)
(-0.0286788 0.546229 0.563147)
(0.351174 0.576469 0.373224)
(-0.186362 0.473798 0.649999)
(0.0262859 0.51492 0.514812)
(0.188135 0.508601 0.544008)
(0.314045 0.580421 0.473638)
(0.129752 0.59472 0.416355)
(-0.0661254 0.527359 0.601535)
(0.129059 0.531473 0.428982)
(0.00776102 0.505929 0.552095)
(-0.0419919 0.47013 0.463517)
(0.191551 0.620718 0.452961)
(0.233785 0.674472 0.44006)
(0.0779025 0.319645 0.436848)
(0.165579 0.641309 0.470874)
(0.149951 0.630934 0.563443)
(0.123859 0.529407 0.3141)
(0.0830635 0.469397 0.447184)
(0.342221 0.523748 0.41758)
(0.181024 0.628023 0.485046)
(0.0559074 0.488673 0.53832)
(0.00616258 0.492471 0.556562)
(-0.121508 0.421293 0.522187)
(-0.0465694 0.52858 0.573266)
(-0.122472 0.344199 0.538223)
(-0.132556 0.426689 0.505581)
(0.195237 0.619953 0.526566)
(0.032367 0.35339 0.489453)
(-0.0282751 0.491113 0.455756)
(-0.0551659 0.496946 0.50784)
(-0.0391837 0.519451 0.513338)
(-0.0461491 0.484956 0.508256)
(-0.0587718 0.479053 0.489194)
(-0.115078 0.440711 0.563876)
(-0.0644495 0.425301 0.523803)
(0.137423 0.582977 0.482362)
(-0.0729337 0.370252 0.466556)
(0.203628 0.531585 0.320308)
(0.14443 0.626829 0.438576)
(0.0404427 0.34493 0.339297)
(-0.0633527 0.469737 0.499117)
(0.277378 0.584838 0.559484)
(-0.165762 0.510106 0.645226)
(0.183498 0.591012 0.532331)
(0.226887 0.613333 0.562011)
(-0.0443379 0.399877 0.504089)
(-0.044511 0.468793 0.549041)
(-0.0383212 0.373965 0.539803)
(0.0772733 0.375498 0.496574)
(0.0508266 0.393974 0.522254)
(0.120456 0.383314 0.466844)
(0.118722 0.438391 0.491577)
(0.0878974 0.253499 0.317214)
(0.110059 0.317778 0.403629)
(-0.0356466 0.288582 0.457184)
(-0.0434397 0.304812 0.475358)
(0.000135831 0.284574 0.430656)
(-0.00796777 0.310111 0.457446)
(-0.0489583 0.309168 0.476418)
(-0.0802911 0.47227 0.483621)
(0.135656 0.489044 0.234243)
(0.0868424 0.483648 0.585378)
(0.0938199 0.52016 0.600709)
(0.17328 0.498056 0.541197)
(-0.0547365 0.487428 0.519175)
(-0.0127217 0.403384 0.539949)
(0.071981 0.458892 0.299661)
(0.102833 0.355752 0.341177)
(0.191992 0.368793 0.405629)
(-0.113227 0.449429 0.509307)
(-0.154624 0.46674 0.573723)
(0.149029 0.465076 0.503151)
(0.154425 0.566071 0.596633)
(0.0596239 0.386811 0.45742)
(-0.0565504 0.44767 0.616841)
(-0.14173 0.397335 0.54723)
(-0.120348 0.408472 0.590608)
(0.112827 0.573542 0.564008)
(0.115352 0.577181 0.602982)
(0.0427152 0.528881 0.490036)
(0.233981 0.531346 0.485793)
(-0.00500763 0.392363 0.483798)
(0.0395148 0.429752 0.492365)
(0.0307951 0.391476 0.476175)
(0.220512 0.358457 0.434579)
(0.15688 0.320612 0.413494)
(-0.101653 0.411091 0.517586)
(0.234566 0.585914 0.433424)
(-0.0534514 0.386698 0.549254)
(-0.001413 0.420983 0.524639)
(0.106622 0.345784 0.452664)
(0.13541 0.352237 0.435997)
(-0.0371738 0.481832 0.481389)
(0.143336 0.345656 0.445556)
(-0.0148072 0.318663 0.442025)
(-0.0767087 0.433186 0.581907)
(0.0838473 0.490571 0.455211)
(0.265346 0.573069 0.568594)
(0.0707364 0.481909 0.550008)
(0.0680367 0.554035 0.632889)
(0.0241802 0.617724 0.5722)
(0.00922462 0.458063 0.592561)
(0.273885 0.564614 0.270332)
(0.18886 0.620845 0.431801)
(0.209042 0.568404 0.305854)
(0.255946 0.505097 0.505996)
(0.269059 0.511364 0.509559)
(0.212838 0.480781 0.506747)
(0.156979 0.538608 0.55464)
(0.246535 0.689307 0.453288)
(0.266045 0.662122 0.403637)
(0.178995 0.605493 0.405701)
(0.18987 0.346665 0.401083)
(0.135367 0.374247 0.437266)
(0.192048 0.272965 0.346579)
(0.112046 0.522344 0.514201)
(0.133282 0.530249 0.537561)
(0.297502 0.567045 0.419547)
(0.292026 0.566458 0.419315)
(0.191474 0.572865 0.493358)
(0.243604 0.544506 0.466061)
(0.216008 0.560061 0.580859)
(0.244051 0.574797 0.585966)
(0.255055 0.473091 0.500051)
(0.0946844 0.601001 0.517803)
(0.0793617 0.54305 0.435219)
(0.166294 0.612117 0.483407)
(0.211426 0.618522 0.461034)
(0.0104436 0.549543 0.58407)
(0.0124928 0.441382 0.542701)
(-0.0111483 0.433195 0.536103)
(0.04928 0.473039 0.5912)
(0.0400062 0.423532 0.550576)
(-0.0284405 0.428036 0.562509)
(-0.033643 0.365718 0.513329)
(-0.0228093 0.311198 0.38955)
(-0.0370024 0.335901 0.415467)
(-0.0118299 0.468845 0.503722)
(0.138502 0.493293 0.469893)
(0.149686 0.478039 0.482583)
(0.167896 0.425791 0.434352)
(0.0574508 0.495641 0.425593)
(0.0759444 0.349058 0.45276)
(0.00305588 0.427197 0.563381)
(-0.0685621 0.403892 0.411762)
(-0.0908622 0.483094 0.497885)
(-0.0211996 0.45341 0.516875)
(-0.0406874 0.477064 0.559438)
(0.000212935 0.403625 0.362009)
(-0.0881296 0.418133 0.496056)
(0.221755 0.569983 0.445521)
(0.194593 0.579081 0.441067)
(0.176712 0.594432 0.563353)
(0.154578 0.587632 0.520008)
(0.00891278 0.480941 0.439654)
(0.0941863 0.714358 0.732864)
(-0.107859 0.671834 0.805411)
(0.130734 0.661681 0.669853)
(0.138867 0.646451 0.485435)
(0.129373 0.637346 0.498897)
(-0.0669093 0.539502 0.627537)
(0.05847 0.408149 0.516263)
(-0.15244 0.38481 0.564361)
(0.215086 0.566818 0.589394)
(0.212641 0.715298 0.706064)
(0.122921 0.704587 0.742005)
(-0.0677015 0.392991 0.514274)
(-0.191561 0.611273 0.810543)
(-0.12429 0.654118 0.823948)
(-0.11163 0.505234 0.652152)
(0.111629 0.510644 0.531862)
(-0.0672201 0.374247 0.42366)
(-0.151624 0.659401 0.831998)
(-0.216794 0.534088 0.766711)
(-0.0785492 0.482842 0.553163)
(-0.210475 0.553296 0.787596)
(-0.0807596 0.451112 0.457772)
(0.146531 0.514295 0.590674)
(-0.0831855 0.406581 0.438138)
(0.133001 0.754211 0.688349)
(0.192513 0.715071 0.662688)
(0.0833389 0.657602 0.674662)
(0.139018 0.719072 0.725995)
(0.131586 0.751449 0.719632)
(0.124045 0.730237 0.736077)
(0.0634271 0.68446 0.722703)
(0.117582 0.266542 0.280606)
(0.202514 0.706188 0.640442)
(0.0729696 0.382642 0.383107)
(0.123695 0.702261 0.706441)
(0.0775904 0.62888 0.643264)
(-0.0238219 0.704959 0.812734)
(-0.0510985 0.604984 0.657269)
(-0.035895 0.663459 0.768117)
(-0.104993 0.635208 0.778374)
(-0.0690905 0.681784 0.818393)
(-0.101882 0.678168 0.833325)
(-0.0871286 0.62346 0.746901)
(-0.0266684 0.593194 0.598957)
(0.00937229 0.490379 0.433215)
(-0.0234948 0.650459 0.705491)
(0.129545 0.585268 0.44124)
(0.120303 0.621876 0.559218)
(-0.0234712 0.634534 0.688789)
(0.116039 0.237875 0.28618)
(0.232314 0.636427 0.599477)
(0.263044 0.460648 0.50034)
(0.251435 0.372485 0.423531)
(0.00424446 0.716651 0.766851)
(0.147459 0.759879 0.655108)
(0.0372553 0.728088 0.775362)
(0.12561 0.736779 0.637999)
(0.10594 0.703211 0.682924)
(0.146529 0.706335 0.594994)
(0.0721288 0.721779 0.702883)
(0.0582469 0.523138 0.544244)
(0.0800439 0.587817 0.4614)
(0.086701 0.597415 0.580991)
(0.179346 0.661529 0.51227)
(0.0978799 0.711442 0.657264)
(0.122372 0.672942 0.63637)
(0.0477103 0.504156 0.572063)
(0.0113934 0.636727 0.722829)
(-0.0182557 0.68234 0.780233)
(-0.0713977 0.676397 0.792486)
(-0.030498 0.68461 0.750791)
(0.0144833 0.716674 0.74392)
(0.0504065 0.707729 0.686963)
(-0.0591145 0.68445 0.751105)
(-0.0793633 0.510712 0.577093)
(-0.0263144 0.603599 0.594446)
(-0.0444292 0.505525 0.506648)
(-0.00335565 0.510058 0.443671)
(0.00778506 0.523827 0.564752)
(0.0600168 0.52909 0.422827)
(-0.0779521 0.618935 0.6818)
(-0.0211345 0.598655 0.693052)
(-0.0540874 0.671025 0.732613)
(-0.0822073 0.652559 0.756478)
(-0.0937384 0.346952 0.475633)
(-0.0992531 0.333784 0.46629)
(0.101223 0.629091 0.562908)
(0.173082 0.466359 0.453146)
(0.101601 0.623319 0.650626)
(0.134822 0.508481 0.454899)
(0.115293 0.386944 0.505063)
(0.107675 0.483724 0.524166)
(0.162072 0.392495 0.438812)
(-0.0231043 0.311117 0.446963)
(-0.144426 0.53858 0.714695)
(-0.0426547 0.409938 0.482789)
(-0.141969 0.529861 0.733722)
(-0.0581916 0.404364 0.569617)
(-0.0954421 0.392803 0.545184)
(0.0939816 0.356847 0.305753)
(0.181864 0.631639 0.658025)
(0.179745 0.758132 0.689918)
(0.236257 0.645184 0.635249)
(0.14148 0.686515 0.645875)
(0.128942 0.71601 0.720617)
(0.236712 0.684204 0.636353)
(0.276727 0.618807 0.605195)
(0.183019 0.597504 0.597439)
(0.225492 0.565755 0.588842)
(0.200731 0.530956 0.549365)
(0.202528 0.601115 0.495817)
(0.252065 0.61238 0.339768)
(0.05643 0.481547 0.390265)
(0.108985 0.584553 0.482205)
(0.144633 0.620551 0.453594)
(0.0752399 0.400825 0.244768)
(0.197587 0.573623 0.272299)
(0.163014 0.593553 0.37709)
(0.265012 0.667481 0.560808)
(0.0212156 0.675396 0.730749)
(0.183275 0.672684 0.614894)
(0.146669 0.631868 0.476545)
(0.150658 0.700256 0.680029)
(0.0901051 0.662908 0.647312)
(0.267577 0.52357 0.48916)
(0.260533 0.601224 0.483661)
(0.255015 0.578113 0.449577)
(-0.0174136 0.364398 0.472665)
(-0.186712 0.467348 0.701766)
(-0.0977421 0.427245 0.508649)
(-0.169458 0.514514 0.723748)
(-0.178276 0.571183 0.765063)
(-0.107355 0.550397 0.707056)
(-0.159496 0.650999 0.83177)
(-0.0370343 0.661158 0.792404)
(-0.112416 0.625047 0.795707)
(-0.0927505 0.646699 0.778551)
(-0.117822 0.668445 0.821902)
(-0.0446646 0.592726 0.74398)
(-0.059813 0.504991 0.629168)
(-0.035799 0.413585 0.546023)
(0.0391914 0.397871 0.532065)
(-0.150518 0.640629 0.831214)
(-0.147445 0.628993 0.797888)
(-0.120345 0.443388 0.64503)
(-0.107773 0.559395 0.731796)
(-0.201249 0.620701 0.839481)
(-0.176065 0.60076 0.799387)
(-0.0845199 0.480899 0.667697)
(0.0411746 0.569937 0.684064)
(0.0132015 0.528211 0.655781)
(0.0926246 0.44658 0.555295)
(0.132858 0.491479 0.588798)
(0.0777743 0.475991 0.585936)
(-0.00224948 0.496012 0.418378)
(-0.0615908 0.347097 0.39076)
(-0.145779 0.609508 0.755266)
(-0.056302 0.564027 0.690647)
(-0.139734 0.575167 0.741205)
(-0.108356 0.608217 0.731003)
(-0.0561375 0.472215 0.623412)
(-0.182569 0.569285 0.732339)
(-0.153853 0.499178 0.615828)
(-0.228331 0.610467 0.838523)
(-0.248144 0.592839 0.839413)
(-0.211698 0.539899 0.743203)
(-0.194128 0.565912 0.751511)
(-0.128485 0.471062 0.528669)
(-0.176747 0.627736 0.812048)
(-0.203952 0.631322 0.84877)
(-0.237194 0.594151 0.827361)
(-0.145314 0.553168 0.728549)
(-0.138759 0.521912 0.717792)
(-0.177511 0.495451 0.649746)
(-0.163638 0.57192 0.733806)
(-0.226408 0.628342 0.849328)
(-0.258994 0.605813 0.860339)
(-0.219175 0.599777 0.823736)
(-0.240375 0.595676 0.833785)
(-0.244371 0.618382 0.859435)
(-0.089974 0.447381 0.458926)
(0.198938 0.464678 0.479228)
(0.142962 0.554721 0.479103)
(0.155707 0.500613 0.490517)
(0.242593 0.65531 0.574539)
(0.156693 0.644455 0.626208)
(0.183416 0.553192 0.430054)
(0.297044 0.564034 0.368991)
(0.239602 0.510859 0.464852)
(0.247664 0.643667 0.432785)
(0.309244 0.466629 0.413774)
(-0.011318 0.470722 0.445328)
(0.039931 0.491604 0.540012)
(-0.0164793 0.523937 0.529553)
(-0.0123852 0.484543 0.461299)
(0.131221 0.668127 0.712003)
(0.0728078 0.720904 0.777211)
(0.161994 0.6771 0.708533)
(0.0837281 0.719277 0.770233)
(0.0951478 0.694133 0.740105)
(0.0761856 0.709517 0.751372)
(0.100589 0.708742 0.757958)
(0.223022 0.780457 0.636452)
(0.156851 0.740937 0.687359)
(0.166847 0.742914 0.671488)
(0.232036 0.751413 0.633959)
(0.222727 0.739068 0.622737)
(0.178268 0.74989 0.675333)
(-0.144545 0.649862 0.813287)
(-0.107821 0.647454 0.80263)
(-0.15942 0.65977 0.842167)
(-0.129617 0.673453 0.826433)
(-0.115923 0.660319 0.79858)
(-0.115717 0.6679 0.799605)
(-0.132088 0.671074 0.836643)
(-0.092746 0.394595 0.529484)
(-0.0956344 0.418579 0.563853)
(0.0714423 0.648133 0.732339)
(0.00834875 0.696443 0.79432)
(0.0568091 0.645179 0.731306)
(0.030105 0.679705 0.762982)
(0.100886 0.667473 0.722019)
(0.110267 0.666248 0.708134)
(0.0252602 0.680057 0.768913)
(0.090897 0.666443 0.550444)
(0.159127 0.585598 0.404707)
(0.134884 0.659323 0.500395)
(0.122247 0.601575 0.449097)
(0.134924 0.634946 0.453419)
(0.0670434 0.647662 0.54781)
(0.126213 0.620852 0.451873)
(0.137882 0.600366 0.443135)
(0.0294905 0.649782 0.608922)
(0.0423343 0.523881 0.398984)
(-0.0179475 0.466272 0.550154)
(-0.0509403 0.515559 0.567768)
(-0.0256297 0.485947 0.563906)
(-0.0519884 0.512006 0.585776)
(-0.047546 0.46432 0.491279)
(-0.053573 0.285484 0.474978)
(-0.108405 0.332301 0.525045)
(-0.0793435 0.299941 0.491265)
(-0.0108635 0.592575 0.635782)
(0.0261646 0.598125 0.665662)
(0.0337117 0.580982 0.565447)
(0.0526588 0.59852 0.632785)
(0.0844016 0.519857 0.525325)
(0.109637 0.503353 0.537045)
(0.0318585 0.620517 0.637237)
(-0.0140608 0.581529 0.679958)
(-0.0411661 0.595755 0.697432)
(0.0666123 0.459291 0.571023)
(0.0622686 0.45133 0.563563)
(-0.209703 0.528768 0.771577)
(-0.154327 0.456137 0.667213)
(-0.181519 0.487799 0.70925)
(-0.151206 0.450672 0.655423)
(0.223204 0.534195 0.561444)
(0.26985 0.667975 0.641405)
(0.233326 0.719901 0.696186)
(0.224632 0.721627 0.695953)
(0.0340111 0.708179 0.790683)
(0.141283 0.66646 0.659429)
(0.0589523 0.687523 0.765226)
(0.139581 0.667283 0.699282)
(0.0818957 0.703504 0.763)
(0.111889 0.706456 0.742912)
(0.116424 0.666472 0.720301)
(0.335971 0.601471 0.408125)
(-0.0212201 0.367577 0.475979)
(-0.133109 0.618322 0.755445)
(-0.134129 0.549658 0.657859)
(-0.132704 0.609192 0.742954)
(-0.150473 0.575895 0.722942)
(-0.17329 0.612102 0.782955)
(-0.173651 0.604624 0.779723)
(-0.146171 0.582202 0.710941)
(0.0970632 0.431657 0.527305)
(0.0909774 0.499335 0.584369)
(0.0125811 0.591845 0.641913)
(-0.0668794 0.590146 0.726774)
(0.00535058 0.578565 0.607746)
(-0.0809962 0.595467 0.73821)
(-0.0848858 0.643294 0.787145)
(-0.0925792 0.636745 0.804113)
(-0.0453524 0.600805 0.700328)
(-0.023388 0.35969 0.498395)
(-0.0612953 0.402366 0.532711)
(-0.0609592 0.45633 0.584623)
(-0.0737246 0.412838 0.567226)
(-0.0961935 0.460356 0.621634)
(-0.0395451 0.441621 0.582604)
(-0.0222326 0.531347 0.650313)