/*--------------------------------*- C++ -*----------------------------------*\
| =========                 |                                                 |
| \\      /  F ield         | OpenFOAM: The Open Source CFD Toolbox           |
|  \\    /   O peration     | Version:  v1612+                                |
|   \\  /    A nd           | Web:      www.OpenFOAM.com                      |
|    \\/     M anipulation  |                                                 |
\*---------------------------------------------------------------------------*/
FoamFile
{
    version     2.0;
    format      ascii;
    class       volVectorField;
    location    "50";
    object      wallShearStress;
}
// * * * * * * * * * * * * * * * * * * * * * * * * * * * * * * * * * * * * * //

dimensions      [0 2 -2 0 0 0 0];

internalField   uniform (0 0 0);

boundaryField
{
    WALL
    {
        type            calculated;
        value           nonuniform List<vector> 
1510
(
(0.00133668 -0.0103379 0.00642071)
(0.00138958 -0.0102939 0.00573287)
(0.00225482 -0.00981539 0.00411679)
(0.00226992 -0.00958568 0.00421287)
(0.0015707 -0.00963949 0.00390341)
(0.00159263 -0.00978473 0.00395365)
(0.00156472 -0.00928585 0.0037238)
(0.00165257 -0.00905927 0.00354946)
(0.00200648 -0.0105782 0.00366102)
(0.00154143 -0.0105222 0.00401302)
(0.00226362 -0.0106067 0.00418022)
(0.00271108 -0.010768 0.00442692)
(0.00174965 -0.0102692 0.00472779)
(0.00162023 -0.0101194 0.00496153)
(0.00130513 -0.0104074 0.00651478)
(0.00121478 -0.0102524 0.00720385)
(0.00170087 -0.0103769 0.00410203)
(0.00171087 -0.0104268 0.00391241)
(0.00347802 -0.0101526 0.00580069)
(0.00374552 -0.0099141 0.00635156)
(0.00144722 -0.00953527 0.00411041)
(0.00172589 -0.00991131 0.00430038)
(0.00151048 -0.00925315 0.00384917)
(0.00165408 -0.0088054 0.00345507)
(0.00471526 -0.0109967 0.00700748)
(0.00446925 -0.0115776 0.00724945)
(0.00142602 -0.0118294 0.00672784)
(0.00154342 -0.0118606 0.00634341)
(0.00183197 -0.0104378 0.00385062)
(0.00176672 -0.0102225 0.00377935)
(0.00184011 -0.0104215 0.00386174)
(0.00175065 -0.0103808 0.00389139)
(0.00187357 -0.0104608 0.003873)
(0.00174847 -0.0106269 0.00394089)
(0.00221109 -0.0102796 0.00419335)
(0.00251066 -0.0104149 0.00436426)
(0.00213339 -0.0105743 0.0042266)
(0.00229067 -0.010889 0.00459323)
(0.00231773 -0.0105654 0.00450998)
(0.00229463 -0.0108341 0.00451444)
(0.00146786 -0.00937583 0.00464066)
(0.00178139 -0.0100203 0.00497577)
(0.00162885 -0.0100863 0.00498072)
(0.00162716 -0.00992623 0.0050437)
(0.00145658 -0.00923221 0.00494572)
(0.0016901 -0.00967152 0.00480135)
(0.0019572 -0.0108586 0.00400225)
(0.00221908 -0.0111037 0.00413798)
(0.00226227 -0.0112466 0.00413523)
(0.00235902 -0.0115729 0.00418599)
(0.00214836 -0.0109255 0.00410075)
(0.00195714 -0.010672 0.00399721)
(0.00132135 -0.0109225 0.00684026)
(0.00131334 -0.0111925 0.00676202)
(0.00127556 -0.0111495 0.00648475)
(0.00129278 -0.0115383 0.00685531)
(0.00116474 -0.0107202 0.00692237)
(0.00226189 -0.0115308 0.00499761)
(0.0021074 -0.0109788 0.00452115)
(0.00204564 -0.0119007 0.00471059)
(0.00197916 -0.0111528 0.00433639)
(0.00207861 -0.0112727 0.00460638)
(0.00211836 -0.0114469 0.00456256)
(0.00204174 -0.0108907 0.00421273)
(0.00225641 -0.0105626 0.00406863)
(0.00218481 -0.0107595 0.00411675)
(0.00182524 -0.0105584 0.00400648)
(0.00222954 -0.0107463 0.00421895)
(0.00225194 -0.0104356 0.00415784)
(0.00368995 -0.0128551 0.00601698)
(0.00356808 -0.0126526 0.00622787)
(0.00358782 -0.0120271 0.00574994)
(0.00388095 -0.0128385 0.0062814)
(0.00364153 -0.0123968 0.00572416)
(0.00374673 -0.0125821 0.00573764)
(0.00429657 -0.0118645 0.00752507)
(0.00426972 -0.0112113 0.00770076)
(0.00437035 -0.01189 0.00726084)
(0.00459362 -0.0121863 0.00725346)
(0.00453764 -0.0114105 0.0075574)
(0.00213212 -0.0109922 0.00590174)
(0.00201283 -0.0109732 0.00595202)
(0.00199137 -0.0114471 0.00589769)
(0.00195563 -0.011362 0.00529998)
(0.0018974 -0.0115465 0.00536671)
(0.00215685 -0.0121045 0.00587364)
(0.00141672 -0.0095068 0.00434903)
(0.00133916 -0.0096351 0.00415218)
(0.00138912 -0.0095239 0.00420523)
(0.00148115 -0.00960106 0.00420397)
(0.0014228 -0.00934447 0.00391325)
(0.00147026 -0.0100225 0.00461398)
(0.00216057 -0.0090247 0.00365141)
(0.00174372 -0.0090344 0.00354433)
(0.00184077 -0.00890378 0.00358088)
(0.00197164 -0.00894774 0.00344638)
(0.00180949 -0.00877993 0.00327905)
(0.00203879 -0.00906334 0.00340685)
(0.00212658 -0.00928171 0.00368129)
(0.00259508 -0.00966774 0.00387707)
(0.00251273 -0.00971757 0.0039887)
(0.00217596 -0.00929092 0.00359027)
(0.0024745 -0.00953429 0.00403565)
(0.00231217 -0.0093502 0.00367762)
(0.00194208 -0.00951016 0.00370024)
(0.00153826 -0.00945833 0.00387699)
(0.00155244 -0.00942426 0.00386675)
(0.00175953 -0.00917011 0.00358949)
(0.0017615 -0.00882525 0.00342077)
(0.00151695 -0.00930989 0.00373718)
(0.00194646 -0.0110255 0.00443769)
(0.00215527 -0.0109479 0.00433173)
(0.00202734 -0.0110454 0.00455498)
(0.00182541 -0.010578 0.00445734)
(0.00199772 -0.0108576 0.00430406)
(0.00201984 -0.0111297 0.00434972)
(0.00161398 -0.0092722 0.00430983)
(0.0018965 -0.00974268 0.00445337)
(0.00187356 -0.00966193 0.00451811)
(0.00217023 -0.0102513 0.00446769)
(0.00182716 -0.00995453 0.00439173)
(0.00176815 -0.0105171 0.00438012)
(0.00165104 -0.0107535 0.0042647)
(0.00144079 -0.0108466 0.00427041)
(0.00147107 -0.0105433 0.00414146)
(0.00158125 -0.0106038 0.00411595)
(0.00166757 -0.0107017 0.0040491)
(0.00162118 -0.0107019 0.00411577)
(0.00192819 -0.0111833 0.00481857)
(0.00170011 -0.0108963 0.00446044)
(0.00176298 -0.0111323 0.00469615)
(0.00185228 -0.011103 0.00495077)
(0.00195664 -0.0118707 0.00516618)
(0.0015996 -0.0116716 0.00518883)
(0.00176255 -0.0110711 0.0046935)
(0.00159588 -0.0111929 0.00494373)
(0.00167682 -0.0111307 0.00489504)
(0.00171207 -0.0112269 0.00472421)
(0.00186226 -0.0115202 0.0046339)
(0.00218844 -0.0113174 0.00418446)
(0.00219139 -0.0116719 0.00426906)
(0.00192144 -0.011135 0.00413053)
(0.00200883 -0.0115264 0.00430569)
(0.00179695 -0.0109749 0.00411522)
(0.00182301 -0.0113496 0.00420867)
(0.00146447 -0.0107741 0.00425643)
(0.00176758 -0.0110385 0.00401476)
(0.00173472 -0.0108554 0.00406918)
(0.00155803 -0.0109096 0.00415243)
(0.00168451 -0.0108236 0.00417873)
(0.00175199 -0.0112368 0.00449351)
(0.00160191 -0.0112896 0.00473998)
(0.00172737 -0.0108554 0.00422129)
(0.00171841 -0.0116978 0.00464212)
(0.00167906 -0.0109908 0.00427819)
(0.00165478 -0.0110281 0.00457195)
(0.00228066 -0.0113093 0.00500294)
(0.00202923 -0.011278 0.0049863)
(0.00207668 -0.011257 0.00543382)
(0.00213466 -0.011049 0.00519326)
(0.00224595 -0.0119583 0.00611173)
(0.00207957 -0.0111953 0.00562712)
(0.00198211 -0.0120089 0.00495277)
(0.00195785 -0.0120759 0.00506316)
(0.00190628 -0.0124084 0.00522113)
(0.00192216 -0.012563 0.00538421)
(0.00196088 -0.0120603 0.00512157)
(0.00189147 -0.0124684 0.00516281)
(0.00243813 -0.0129667 0.00500543)
(0.00234374 -0.0127352 0.00499168)
(0.00254206 -0.0132497 0.0051441)
(0.00249916 -0.0131542 0.0050862)
(0.00241278 -0.012875 0.00491763)
(0.00233256 -0.012589 0.00478948)
(0.00188349 -0.0116658 0.00455785)
(0.00190622 -0.0120744 0.00475964)
(0.00196496 -0.0124079 0.00503629)
(0.00180969 -0.0123195 0.00509366)
(0.00211955 -0.0126655 0.00496935)
(0.00209397 -0.0123876 0.00485618)
(0.00177585 -0.0121116 0.00570279)
(0.00150842 -0.0111914 0.00591966)
(0.00175399 -0.0118455 0.00563779)
(0.00181144 -0.012953 0.00588146)
(0.00211073 -0.0125866 0.00609459)
(0.00208755 -0.0122547 0.00581494)
(0.00169406 -0.0111491 0.00585095)
(0.00192231 -0.0116833 0.00531471)
(0.0018619 -0.011579 0.00566127)
(0.00184689 -0.0117162 0.00569356)
(0.00184963 -0.0118847 0.00552247)
(0.00197081 -0.0119763 0.00524325)
(0.00230834 -0.0105922 0.00612813)
(0.00230108 -0.0110867 0.00551026)
(0.00244195 -0.0110602 0.00607017)
(0.00241638 -0.0113467 0.00575148)
(0.00254711 -0.0105449 0.00599095)
(0.00224951 -0.0116963 0.00573434)
(0.00429437 -0.0114016 0.00572276)
(0.00442178 -0.0110112 0.00613072)
(0.00434489 -0.0119172 0.00609974)
(0.0045116 -0.0115029 0.00627155)
(0.00458189 -0.011814 0.00621194)
(0.0041643 -0.011815 0.00577674)
(0.00380464 -0.0128291 0.00535349)
(0.00323857 -0.0125651 0.00521992)
(0.00329654 -0.0124744 0.00531401)
(0.00358435 -0.0120586 0.00516619)
(0.0034667 -0.01262 0.00522967)
(0.00351442 -0.0124353 0.00528223)
(0.00373415 -0.0111773 0.00748428)
(0.00370859 -0.0102873 0.00779553)
(0.00296431 -0.00984964 0.00728066)
(0.00303056 -0.0101538 0.00692157)
(0.00303 -0.00979311 0.00770104)
(0.00403145 -0.0110376 0.00899272)
(0.00456555 -0.0119561 0.0066972)
(0.00457122 -0.0121726 0.00618729)
(0.00441526 -0.0120278 0.00611487)
(0.00453654 -0.0123679 0.00662421)
(0.00443371 -0.0118956 0.00623664)
(0.00458523 -0.0123385 0.00650878)
(0.00414404 -0.0117835 0.00630001)
(0.0042069 -0.0116246 0.00670282)
(0.00407394 -0.0120878 0.00632255)
(0.00373968 -0.0115872 0.00622919)
(0.0045267 -0.0123027 0.00681349)
(0.00390235 -0.0118284 0.00648309)
(0.00324505 -0.0115549 0.00556443)
(0.00284311 -0.0110113 0.00521375)
(0.00302169 -0.0114345 0.00548645)
(0.00347179 -0.0121086 0.00587928)
(0.00306515 -0.0112806 0.0056454)
(0.00304076 -0.0117241 0.0052292)
(0.0026884 -0.0129568 0.00504123)
(0.00285863 -0.0125684 0.00516954)
(0.00282349 -0.0125017 0.00484394)
(0.00180982 -0.0112645 0.00522977)
(0.00184875 -0.011757 0.005384)
(0.00166859 -0.0115712 0.00560112)
(0.00184336 -0.0121298 0.00553578)
(0.00156702 -0.012075 0.0059938)
(0.00157806 -0.011955 0.00612755)
(0.00154976 -0.010913 0.0065089)
(0.00169084 -0.0108095 0.00644249)
(0.00170566 -0.010909 0.00627537)
(0.00149438 -0.011057 0.00634609)
(0.00140206 -0.0110557 0.00665191)
(0.00180456 -0.0115843 0.00613109)
(0.00407038 -0.00922986 0.00592618)
(0.00429694 -0.00967854 0.00580782)
(0.00380476 -0.00961919 0.00578294)
(0.00391681 -0.00992395 0.00634393)
(0.00393042 -0.0097574 0.00607624)
(0.00391088 -0.0100296 0.00574507)
(0.00386898 -0.00934516 0.00657804)
(0.00394682 -0.00957864 0.00704557)
(0.00407278 -0.00901901 0.00669674)
(0.00393937 -0.0100469 0.00726278)
(0.00423676 -0.00932661 0.0065856)
(0.0041026 -0.00972861 0.00671649)
(0.00281934 -0.0105571 0.00689717)
(0.00273698 -0.0103714 0.00611805)
(0.00255107 -0.0108796 0.00654726)
(0.00292675 -0.0109814 0.00699362)
(0.00275796 -0.0103891 0.00598433)
(0.00288603 -0.0103115 0.0062453)
(0.00412496 -0.00961215 0.00558901)
(0.00420438 -0.00945175 0.00560225)
(0.0044795 -0.00953242 0.00609411)
(0.00448208 -0.00923023 0.00615843)
(0.00409816 -0.00952309 0.00599574)
(0.00410478 -0.00922498 0.00550679)
(0.00424929 -0.00934087 0.00623878)
(0.00429411 -0.00868341 0.00639576)
(0.00448825 -0.0091181 0.00703321)
(0.00189475 -0.0108737 0.00413093)
(0.00145593 -0.0100745 0.00375189)
(0.00201183 -0.0107424 0.0039375)
(0.00156901 -0.0104891 0.003964)
(0.00197464 -0.0102684 0.00387525)
(0.00169697 -0.0100343 0.00374091)
(0.00218162 -0.0117429 0.00456742)
(0.00207853 -0.0115963 0.00437072)
(0.00229414 -0.0115525 0.00444209)
(0.00219204 -0.0109476 0.00418734)
(0.00221219 -0.0112837 0.00434177)
(0.00213154 -0.0113329 0.0042929)
(0.00215365 -0.0116951 0.00493029)
(0.00210131 -0.0118244 0.00500171)
(0.00186655 -0.0116065 0.00493184)
(0.00199388 -0.011992 0.00516493)
(0.00194452 -0.0113246 0.00491478)
(0.00207814 -0.0113457 0.0047621)
(0.0021994 -0.0114927 0.00473554)
(0.00211105 -0.0117288 0.00471924)
(0.00219649 -0.0118953 0.00519809)
(0.00237367 -0.0109037 0.00510524)
(0.00223221 -0.0116022 0.00515424)
(0.00203981 -0.0104975 0.00415126)
(0.00218498 -0.010718 0.00414761)
(0.00215965 -0.0107488 0.00421962)
(0.00223991 -0.0109694 0.0042853)
(0.00226971 -0.0107844 0.00429365)
(0.0021534 -0.0108353 0.00434571)
(0.00180487 -0.0104726 0.00409844)
(0.00177546 -0.0107079 0.00414534)
(0.00172368 -0.0104873 0.004114)
(0.00168655 -0.0104959 0.00396847)
(0.00167114 -0.0101877 0.00391946)
(0.00184133 -0.0103419 0.00382578)
(0.00158657 -0.010178 0.00405907)
(0.00164011 -0.010278 0.00410616)
(0.00173643 -0.0102208 0.00400338)
(0.00157445 -0.0101379 0.00398561)
(0.00161036 -0.0100205 0.00386035)
(0.00254905 -0.00929262 0.00408619)
(0.00281737 -0.00927262 0.00414589)
(0.00269745 -0.00963784 0.00413223)
(0.00130508 -0.00998469 0.00616279)
(0.00159267 -0.01073 0.00692644)
(0.0015022 -0.0102531 0.00675967)
(0.00163798 -0.0102542 0.00680696)
(0.00120555 -0.0102939 0.00659856)
(0.00131046 -0.0100443 0.005832)
(0.00125514 -0.0102476 0.0057748)
(0.0013216 -0.0105378 0.00638849)
(0.00124616 -0.0100312 0.00600041)
(0.00130519 -0.0101841 0.00618241)
(0.00151528 -0.0100536 0.00650559)
(0.00148941 -0.00970714 0.00638823)
(0.00147427 -0.00997903 0.00619199)
(0.00140167 -0.0103227 0.00616562)
(0.00174461 -0.0103003 0.00751831)
(0.00161768 -0.00973617 0.00775698)
(0.00244696 -0.0108986 0.00804638)
(0.0019067 -0.0105029 0.00751455)
(0.0022119 -0.00995445 0.0086022)
(0.00204781 -0.0100303 0.00816686)
(0.0031416 -0.00874737 0.00782732)
(0.00266304 -0.00970084 0.00868817)
(0.00330719 -0.00996435 0.00904858)
(0.00273624 -0.00939294 0.00793172)
(0.00236328 -0.00875023 0.00810962)
(0.00467903 -0.0117821 0.00612749)
(0.00413433 -0.0119975 0.00582739)
(0.00423631 -0.0118248 0.00584356)
(0.00301584 -0.0126629 0.00514139)
(0.00288436 -0.0126047 0.00520239)
(0.00258233 -0.0120921 0.00513067)
(0.00286297 -0.0125062 0.00521596)
(0.00314956 -0.0124922 0.00511928)
(0.00265372 -0.0124046 0.00517405)
(0.0025585 -0.0124096 0.00574884)
(0.00231345 -0.0122092 0.00549459)
(0.00207548 -0.0124602 0.0058575)
(0.00223069 -0.0118855 0.00535441)
(0.00274714 -0.0123798 0.00551041)
(0.00216752 -0.0123109 0.00590343)
(0.00350495 -0.0119773 0.00551852)
(0.00327212 -0.0122453 0.00565658)
(0.00153728 -0.0101578 0.00795334)
(0.00156293 -0.0108171 0.00819827)
(0.0012082 -0.0104793 0.00742711)
(0.00127857 -0.010679 0.00758814)
(0.00160471 -0.0104395 0.00751489)
(0.00120697 -0.010329 0.00780946)
(0.00153012 -0.01127 0.00573987)
(0.00170108 -0.0113366 0.00578721)
(0.00148192 -0.0118143 0.00586596)
(0.00180277 -0.0117075 0.00555936)
(0.00207909 -0.0120519 0.00558761)
(0.00180571 -0.0119745 0.00579392)
(0.00235356 -0.011855 0.00458733)
(0.00230825 -0.011805 0.00451359)
(0.00230007 -0.0114012 0.00442536)
(0.00222104 -0.0113495 0.00451293)
(0.00231169 -0.0113473 0.00440608)
(0.00257385 -0.0116429 0.00462524)
(0.00223015 -0.0115875 0.00459551)
(0.00239235 -0.010761 0.00480033)
(0.00213345 -0.011699 0.00436818)
(0.0022073 -0.0115372 0.0043731)
(0.00215255 -0.0106892 0.0042803)
(0.00248567 -0.0116987 0.00474335)
(0.00218643 -0.0111775 0.0042283)
(0.00224348 -0.0111417 0.0042589)
(0.00222184 -0.0105427 0.00415717)
(0.00235458 -0.0115515 0.00424606)
(0.00240615 -0.0109452 0.00425932)
(0.00230772 -0.0111093 0.00425851)
(0.00258794 -0.0113064 0.00461725)
(0.00225503 -0.0114448 0.00441649)
(0.00266476 -0.0122239 0.00474611)
(0.00225178 -0.0112775 0.00438957)
(0.00255469 -0.0116434 0.00450437)
(0.00237018 -0.0118552 0.00458742)
(0.00212233 -0.01166 0.00445473)
(0.00193921 -0.0113557 0.00447301)
(0.00240813 -0.0111004 0.00397438)
(0.0023322 -0.0115714 0.00415576)
(0.00399706 -0.00963343 0.00519072)
(0.00405278 -0.00933497 0.00516729)
(0.00399224 -0.00998472 0.00495649)
(0.00381321 -0.00988665 0.00518368)
(0.00375184 -0.00985548 0.00485957)
(0.00396591 -0.00985356 0.00490407)
(0.00282325 -0.0101844 0.0041578)
(0.00322755 -0.010235 0.00447831)
(0.0027342 -0.0104885 0.00442651)
(0.00344603 -0.0098257 0.00437668)
(0.00336883 -0.0103593 0.00473451)
(0.0028357 -0.0104265 0.00427212)
(0.00284228 -0.00974679 0.00416441)
(0.00360523 -0.0101454 0.00507839)
(0.0034852 -0.00989062 0.00493739)
(0.00370583 -0.010078 0.0049959)
(0.00398449 -0.00985633 0.0056336)
(0.00358324 -0.0100641 0.00540633)
(0.00393216 -0.0101322 0.00553972)
(0.00299726 -0.00995385 0.00431487)
(0.00305011 -0.00989298 0.00427905)
(0.00321741 -0.00984708 0.00453679)
(0.00333328 -0.0100593 0.0046768)
(0.00325982 -0.00985461 0.00429915)
(0.00322972 -0.00971547 0.00449686)
(0.00175204 -0.0101292 0.00453013)
(0.00185642 -0.0102774 0.0045517)
(0.00177919 -0.0105497 0.0048102)
(0.00168338 -0.0101609 0.00459563)
(0.0015574 -0.0104713 0.00499667)
(0.00135381 -0.0104074 0.00572034)
(0.00134048 -0.0102856 0.00535327)
(0.00116189 -0.0102156 0.00566485)
(0.00133907 -0.0104062 0.00542815)
(0.0012052 -0.00994464 0.00516234)
(0.00110015 -0.0101521 0.00583688)
(0.0022062 -0.00994258 0.00416319)
(0.00235865 -0.00979327 0.00407708)
(0.00228334 -0.0105771 0.00435157)
(0.00181891 -0.00993783 0.0041805)
(0.00193813 -0.0100244 0.00427177)
(0.00219019 -0.0102932 0.00430858)
(0.00377889 -0.0119179 0.00658489)
(0.00360918 -0.0127244 0.00632902)
(0.00337126 -0.0117521 0.00652351)
(0.00341613 -0.0118009 0.00644719)
(0.00378015 -0.0118158 0.00671668)
(0.00323402 -0.0120223 0.00632882)
(0.00373216 -0.0112216 0.00667992)
(0.00353198 -0.0112387 0.00691526)
(0.00369484 -0.0117234 0.00695587)
(0.00353017 -0.0115079 0.00718008)
(0.00324102 -0.0111114 0.00688104)
(0.00367671 -0.0115633 0.00671232)
(0.00210177 -0.0100165 0.00583066)
(0.0018986 -0.0100727 0.00587578)
(0.0022274 -0.0107876 0.00610409)
(0.0019426 -0.0102895 0.00554137)
(0.00232573 -0.0109961 0.00557637)
(0.00189935 -0.0101796 0.00517342)
(0.00136564 -0.00952033 0.00436085)
(0.00165228 -0.00998983 0.0044709)
(0.00127543 -0.00950304 0.00485171)
(0.00135981 -0.00960948 0.00462352)
(0.00130756 -0.00982869 0.00511829)
(0.0012859 -0.00944942 0.00444672)
(0.00203843 -0.0102931 0.00494128)
(0.00199084 -0.0102839 0.00501746)
(0.00204956 -0.010662 0.00527017)
(0.00206712 -0.0105571 0.00522704)
(0.00197573 -0.0096556 0.0051573)
(0.00201933 -0.00937352 0.00368918)
(0.00191305 -0.00921806 0.00350202)
(0.00197127 -0.00954557 0.0035716)
(0.00219202 -0.00936299 0.00358266)
(0.00196787 -0.00959504 0.00352597)
(0.00207142 -0.00969878 0.00379654)
(0.0017512 -0.00942735 0.0035089)
(0.00196996 -0.00954964 0.00352332)
(0.00174589 -0.00974497 0.00366741)
(0.0017848 -0.00934907 0.00345585)
(0.00180436 -0.00930984 0.00353207)
(0.00176559 -0.00949806 0.0034896)
(0.00225179 -0.0109301 0.00439665)
(0.00219108 -0.0105679 0.00438463)
(0.00203226 -0.0107867 0.00428078)
(0.0019579 -0.0106508 0.00417057)
(0.0021381 -0.0111137 0.0044888)
(0.00231704 -0.0103405 0.00424079)
(0.00229137 -0.0108738 0.00475437)
(0.00215544 -0.0105866 0.00448346)
(0.00229591 -0.0108814 0.00472876)
(0.0023762 -0.0109089 0.00471549)
(0.00229427 -0.0109904 0.00476229)
(0.00220176 -0.0108983 0.00459256)
(0.00212519 -0.0111358 0.00479344)
(0.00207032 -0.0111132 0.0045809)
(0.00217693 -0.0111583 0.00482792)
(0.00223352 -0.0108359 0.00472613)
(0.00216784 -0.0113819 0.00491829)
(0.00203939 -0.010967 0.00453152)
(0.00247679 -0.0101273 0.00458688)
(0.0023929 -0.0105691 0.0046818)
(0.00228968 -0.0103451 0.00448731)
(0.00221261 -0.00975787 0.00412246)
(0.0023079 -0.0109076 0.00490595)
(0.00222941 -0.0107745 0.00469677)
(0.00233312 -0.0106678 0.004649)
(0.00245595 -0.0103346 0.00468785)
(0.001429 -0.00932288 0.00395797)
(0.00125078 -0.00912092 0.00405416)
(0.00123538 -0.00908288 0.00402436)
(0.00149461 -0.00907879 0.0038261)
(0.00134866 -0.0090202 0.00381808)
(0.00148947 -0.00944615 0.004065)
(0.00151595 -0.0091956 0.00372289)
(0.00140228 -0.00924112 0.00382211)
(0.00159379 -0.00941884 0.00377252)
(0.00155479 -0.00922545 0.00364373)
(0.00169406 -0.0091487 0.00348757)
(0.0015381 -0.00927633 0.00368168)
(0.00174289 -0.00926158 0.0034252)
(0.001657 -0.00939799 0.00345275)
(0.00169128 -0.00909361 0.00346403)
(0.00176525 -0.00898205 0.00337759)
(0.00160047 -0.00921272 0.00347032)
(0.00177573 -0.00901312 0.00333488)
(0.00159358 -0.00980134 0.00452029)
(0.00154069 -0.00965831 0.00432846)
(0.00167016 -0.010228 0.0043593)
(0.00160393 -0.0100533 0.00472215)
(0.00198552 -0.010947 0.00441051)
(0.00168469 -0.0101438 0.0042783)
(0.00340997 -0.00959962 0.00445792)
(0.00392049 -0.00943375 0.00482)
(0.00352943 -0.00919821 0.00440499)
(0.00161761 -0.0103279 0.00396318)
(0.00167059 -0.0105366 0.00402403)
(0.00176026 -0.0104176 0.00396787)
(0.0016292 -0.0105035 0.00412729)
(0.00169931 -0.0103369 0.00384994)
(0.00163444 -0.0101604 0.00386691)
(0.00202214 -0.0099154 0.00807577)
(0.0023525 -0.00995888 0.00779121)
(0.00241471 -0.00943469 0.0079451)
(0.00235807 -0.0099491 0.00796116)
(0.00184427 -0.00990538 0.00758956)
(0.0020332 -0.0101758 0.00764066)
(0.00186683 -0.0104184 0.0069964)
(0.00174075 -0.0105922 0.00704046)
(0.00188351 -0.0101825 0.00744148)
(0.00353979 -0.00950989 0.00753711)
(0.00320187 -0.00985286 0.00726692)
(0.00278066 -0.00987219 0.00756908)
(0.00347584 -0.00976807 0.00758521)
(0.00310896 -0.00967264 0.00760066)
(0.00339793 -0.00933704 0.00762839)
(0.00343542 -0.00975819 0.00682521)
(0.00363644 -0.00963116 0.00643946)
(0.00373799 -0.00982678 0.00679585)
(0.00362919 -0.00957897 0.00634022)
(0.00323532 -0.00960039 0.00647996)
(0.00321263 -0.00933695 0.00664381)
(0.00218262 -0.0123191 0.00515101)
(0.00212284 -0.0127886 0.00550468)
(0.00242079 -0.0126305 0.00537111)
(0.0021916 -0.0126371 0.00555144)
(0.00241887 -0.0128063 0.00531589)
(0.00244722 -0.0125489 0.00514765)
(0.00265441 -0.013326 0.00532996)
(0.00260023 -0.0133043 0.00522078)
(0.00287042 -0.0135418 0.00523632)
(0.00281876 -0.0128945 0.00516486)
(0.00282731 -0.0130281 0.00516943)
(0.00303549 -0.0125676 0.00512344)
(0.00373376 -0.0135131 0.00560702)
(0.00344747 -0.012226 0.00529209)
(0.00298761 -0.0129457 0.00516512)
(0.00293284 -0.012973 0.00513377)
(0.00353043 -0.0121763 0.00509639)
(0.00311664 -0.0122935 0.00520218)
(0.00357839 -0.0130511 0.00527199)
(0.00295512 -0.0127111 0.00510622)
(0.00301707 -0.012906 0.00545805)
(0.00299557 -0.0135422 0.00533139)
(0.00269094 -0.0106037 0.00674896)
(0.00305262 -0.0103956 0.00627863)
(0.00265128 -0.0100281 0.00755465)
(0.0028927 -0.0097775 0.00715188)
(0.00306918 -0.0098833 0.00724263)
(0.00376521 -0.0095937 0.00724357)
(0.00240527 -0.0104714 0.00728173)
(0.00212857 -0.00995813 0.00698346)
(0.00242345 -0.0103536 0.0075189)
(0.00261684 -0.00967091 0.00743678)
(0.00263365 -0.00931808 0.00744741)
(0.00367638 -0.00930382 0.00443921)
(0.00250321 -0.0100915 0.00442956)
(0.00157427 -0.00962286 0.0039821)
(0.0015481 -0.00962951 0.00425591)
(0.0015685 -0.00974937 0.00407098)
(0.00151498 -0.00955305 0.00420403)
(0.00166576 -0.00981068 0.00393188)
(0.00145079 -0.00956194 0.0038931)
(0.00159071 -0.00996814 0.00417019)
(0.00128151 -0.0096787 0.00409668)
(0.00137358 -0.00969946 0.00395404)
(0.00157486 -0.0100081 0.00382614)
(0.00167554 -0.00962805 0.00359298)
(0.00177957 -0.00903303 0.00340017)
(0.00189876 -0.00915485 0.0034026)
(0.00157174 -0.0095045 0.00355291)
(0.00168677 -0.00951093 0.0035968)
(0.00180528 -0.00919913 0.0034819)
(0.00163025 -0.00905861 0.00354561)
(0.00160577 -0.00915621 0.00371569)
(0.00153579 -0.00894104 0.0036011)
(0.00142152 -0.00934053 0.00392919)
(0.00142598 -0.00929939 0.00388505)
(0.0014193 -0.00942064 0.00412446)
(0.00136996 -0.00953193 0.00393719)
(0.00146976 -0.00948933 0.00382184)
(0.00141551 -0.00955833 0.00403189)
(0.00144505 -0.00940109 0.00381284)
(0.00150164 -0.00912445 0.0038306)
(0.00248067 -0.009989 0.00442624)
(0.00232528 -0.0110948 0.0048124)
(0.00221263 -0.0106716 0.00484362)
(0.00233927 -0.00996075 0.00443506)
(0.00221735 -0.0105804 0.0044509)
(0.00160091 -0.00998497 0.00388178)
(0.00157552 -0.0099924 0.00377779)
(0.00154167 -0.00963277 0.00366913)
(0.00169936 -0.00970812 0.0036484)
(0.00174591 -0.00978128 0.00356673)
(0.00182342 -0.00997354 0.00366454)
(0.00160831 -0.00953895 0.00355218)
(0.00183192 -0.00903449 0.00345312)
(0.00185479 -0.0089497 0.0033545)
(0.00174447 -0.00919492 0.00354223)
(0.0016641 -0.00974574 0.00368732)
(0.00172888 -0.0097478 0.00358555)
(0.00169063 -0.00894053 0.00339943)
(0.00185075 -0.00962566 0.00349207)
(0.00186136 -0.0104702 0.00382325)
(0.00166482 -0.00966161 0.00360021)
(0.00187808 -0.00970079 0.00359075)
(0.00174654 -0.0103569 0.00386481)
(0.00179883 -0.0103321 0.00385441)
(0.0015397 -0.00992491 0.00375341)
(0.00179546 -0.00990107 0.00365097)
(0.0018689 -0.00994197 0.00361657)
(0.00167878 -0.0101494 0.00380106)
(0.0018972 -0.00993845 0.00354034)
(0.00190903 -0.00977357 0.00354476)
(0.00188459 -0.00934646 0.00346719)
(0.00198163 -0.009282 0.00349817)
(0.00190604 -0.00915905 0.00352183)
(0.00177314 -0.00981101 0.00366289)
(0.00193983 -0.0102355 0.00384831)
(0.00163453 -0.0100741 0.0037589)
(0.002691 -0.0101004 0.00425887)
(0.002549 -0.00964081 0.00412773)
(0.00209865 -0.00910084 0.00356243)
(0.00177559 -0.00882453 0.00327098)
(0.00185796 -0.00874878 0.00346226)
(0.00229273 -0.00994058 0.00416173)
(0.00208533 -0.00978003 0.00380141)
(0.00204353 -0.00941559 0.00357733)
(0.00216429 -0.00967753 0.0039178)
(0.00190141 -0.00884508 0.00350338)
(0.00174043 -0.0091979 0.00347354)
(0.00242217 -0.00971248 0.00397658)
(0.00225256 -0.0096547 0.00407361)
(0.00246175 -0.0101976 0.00434041)
(0.00228322 -0.00932344 0.00403166)
(0.00223891 -0.00929482 0.00370111)
(0.00208307 -0.00942841 0.00371047)
(0.0021602 -0.00973924 0.00388429)
(0.00233816 -0.00965696 0.0039879)
(0.00222228 -0.00975195 0.00395074)
(0.00262448 -0.00938666 0.00389498)
(0.00227348 -0.00954261 0.0038376)
(0.00240066 -0.00920595 0.00355641)
(0.0023311 -0.0103113 0.00399461)
(0.00216055 -0.0105372 0.0041385)
(0.00217628 -0.00997484 0.0040135)
(0.00215626 -0.0101051 0.003886)
(0.0019641 -0.00990041 0.00383535)
(0.00215321 -0.0101205 0.00406374)
(0.00167442 -0.00995093 0.00374453)
(0.00192226 -0.0101794 0.00379641)
(0.00216012 -0.00997131 0.00386981)
(0.00144327 -0.00916256 0.00392083)
(0.0014457 -0.00901929 0.00375602)
(0.00146711 -0.00901326 0.00386378)
(0.00150722 -0.00940816 0.00399107)
(0.00143394 -0.00936268 0.00418328)
(0.00137823 -0.0093681 0.00423047)
(0.00144305 -0.00949766 0.00431651)
(0.00138496 -0.00926065 0.00406361)
(0.00139708 -0.00944962 0.004163)
(0.00123472 -0.00989549 0.0051862)
(0.00182846 -0.00970716 0.00466926)
(0.00163824 -0.0091493 0.0049658)
(0.00144081 -0.00997716 0.00504553)
(0.00142385 -0.00978431 0.0054786)
(0.00181803 -0.0107823 0.00613694)
(0.00190388 -0.0100113 0.00606052)
(0.00190572 -0.0102506 0.00555633)
(0.00145621 -0.0092576 0.00430554)
(0.00133195 -0.00924559 0.00432775)
(0.00143961 -0.00922135 0.00419271)
(0.00174376 -0.00997002 0.00438408)
(0.00152247 -0.00938641 0.00423154)
(0.00157236 -0.00965543 0.00440024)
(0.001634 -0.00968509 0.0043242)
(0.0017135 -0.010823 0.00501646)
(0.00175592 -0.00961919 0.00442562)
(0.00190652 -0.00987244 0.00430822)
(0.00162776 -0.0096984 0.00428726)
(0.00193331 -0.0101816 0.00453634)
(0.00187749 -0.00965642 0.00517783)
(0.00203096 -0.0106556 0.00521086)
(0.00301485 -0.0108656 0.00677661)
(0.00299922 -0.010694 0.00664844)
(0.00254444 -0.0104677 0.00650068)
(0.00254748 -0.00976911 0.00683502)
(0.00294427 -0.0113342 0.00680864)
(0.00222384 -0.0108527 0.00631869)
(0.00249863 -0.0106379 0.00644197)
(0.00229111 -0.010364 0.00639283)
(0.00247692 -0.0106833 0.00668442)
(0.0022475 -0.0106241 0.00487852)
(0.00251272 -0.0102328 0.00526767)
(0.00269944 -0.0108578 0.00528793)
(0.00252772 -0.0107311 0.00539608)
(0.0028175 -0.0111691 0.00574451)
(0.00258466 -0.0112609 0.00596767)
(0.00246954 -0.0106578 0.00549466)
(0.00246567 -0.0108391 0.00523538)
(0.0021103 -0.0106771 0.00498716)
(0.00238345 -0.0103445 0.00527697)
(0.00268701 -0.0112102 0.00564475)
(0.00327739 -0.0120382 0.0061147)
(0.00324098 -0.0121173 0.00692925)
(0.00335955 -0.0118735 0.00673752)
(0.00364962 -0.0116873 0.00661018)
(0.0017252 -0.0101384 0.00447256)
(0.00263847 -0.00955054 0.00407413)
(0.00350734 -0.010038 0.00465565)
(0.00223255 -0.00997584 0.00418549)
(0.00358569 -0.0103124 0.00495319)
(0.00360622 -0.0102023 0.00457688)
(0.00362362 -0.0100124 0.00478305)
(0.00401634 -0.00963078 0.00519041)
(0.00233764 -0.0114408 0.00426934)
(0.00197709 -0.0112237 0.00413691)
(0.00211783 -0.0107875 0.00410364)
(0.00203099 -0.0108401 0.00395386)
(0.00200729 -0.010939 0.00402202)
(0.00209097 -0.010651 0.0037229)
(0.00204465 -0.0111136 0.00400905)
(0.00212804 -0.0113209 0.00413546)
(0.0020492 -0.0112008 0.0040371)
(0.00212564 -0.0113868 0.00407538)
(0.00191094 -0.0112779 0.00390356)
(0.00205753 -0.0109481 0.00408271)
(0.00192371 -0.0104915 0.00371864)
(0.00208281 -0.0107573 0.0038748)
(0.00196496 -0.0109493 0.00411862)
(0.00204416 -0.0115342 0.00413212)
(0.00174248 -0.0108315 0.00411671)
(0.00245231 -0.0113811 0.00428906)
(0.00270693 -0.0116354 0.00446872)
(0.00267028 -0.0113472 0.00446965)
(0.00251917 -0.0115421 0.0045049)
(0.00260691 -0.0110018 0.00419386)
(0.00220299 -0.010597 0.00400921)
(0.00242008 -0.0111115 0.00422719)
(0.00234592 -0.0117057 0.00444959)
(0.00241723 -0.0106186 0.00423456)
(0.00243696 -0.0114147 0.00439928)
(0.0026367 -0.0111172 0.00434657)
(0.00237436 -0.011208 0.00454778)
(0.00248013 -0.0110113 0.00415447)
(0.00226734 -0.0108859 0.00402135)
(0.00235288 -0.0107445 0.00406815)
(0.00238043 -0.0106084 0.00421074)
(0.00224578 -0.0106826 0.00425593)
(0.00199508 -0.0112315 0.00442599)
(0.00238346 -0.0114551 0.00463661)
(0.00229651 -0.011351 0.00435745)
(0.00240355 -0.0102846 0.00416208)
(0.00218734 -0.0104537 0.00412088)
(0.00232828 -0.0107724 0.0043893)
(0.00208629 -0.010428 0.00404771)
(0.00233181 -0.010636 0.00434456)
(0.00229237 -0.0108422 0.0043116)
(0.00238479 -0.0107419 0.00433947)
(0.00224927 -0.0112138 0.00452678)
(0.00200959 -0.0106995 0.00426527)
(0.00201272 -0.0101816 0.0041437)
(0.0023672 -0.0102727 0.00422748)
(0.00206172 -0.0104218 0.00405744)
(0.00227181 -0.0108262 0.00425511)
(0.00174647 -0.0104753 0.00429814)
(0.00185789 -0.0105643 0.00441434)
(0.00190556 -0.0102841 0.00416465)
(0.00191143 -0.0105701 0.00440152)
(0.00194469 -0.0108064 0.00425484)
(0.00178785 -0.0105968 0.00405662)
(0.00197411 -0.0108223 0.00422496)
(0.0017924 -0.0101328 0.0039192)
(0.00160383 -0.010149 0.00414)
(0.0017107 -0.0104958 0.00430405)
(0.00179566 -0.0104494 0.00444433)
(0.00161435 -0.0101127 0.00398407)
(0.0016112 -0.00988899 0.00380178)
(0.00147637 -0.00979253 0.00378371)
(0.00150541 -0.0100738 0.00408652)
(0.00151406 -0.00989758 0.00398138)
(0.00160951 -0.0100746 0.00413836)
(0.00158817 -0.0101114 0.00409075)
(0.00196813 -0.00969061 0.00468843)
(0.00193664 -0.00985435 0.00441408)
(0.00230552 -0.0107385 0.00516539)
(0.00239869 -0.0105824 0.0050493)