/*--------------------------------*- C++ -*----------------------------------*\
| =========                 |                                                 |
| \\      /  F ield         | OpenFOAM: The Open Source CFD Toolbox           |
|  \\    /   O peration     | Version:  v1612+                                |
|   \\  /    A nd           | Web:      www.OpenFOAM.com                      |
|    \\/     M anipulation  |                                                 |
\*---------------------------------------------------------------------------*/
FoamFile
{
    version     2.0;
    format      ascii;
    class       volVectorField;
    location    "50";
    object      wallShearStress;
}
// * * * * * * * * * * * * * * * * * * * * * * * * * * * * * * * * * * * * * //

dimensions      [0 2 -2 0 0 0 0];

internalField   uniform (0 0 0);

boundaryField
{
    WALL
    {
        type            calculated;
        value           nonuniform List<vector> 
1663
(
(-0.00893385 -0.0205549 -0.00294821)
(-0.0114749 -0.0207372 -0.00439989)
(-0.0156183 -0.0166386 -0.00182393)
(-0.0155735 -0.0175378 -0.00115435)
(-0.00206191 -0.00404454 -0.00513452)
(-0.00236673 -0.00384104 -0.00524901)
(-0.00164256 -0.00955099 -0.0103551)
(-0.00448262 -0.0108322 -0.0128485)
(-0.00134264 -0.00615344 -0.00495105)
(-0.00129469 -0.00452493 -0.00429906)
(-0.00127201 -0.00617094 -0.00633548)
(-0.00317111 -0.00478301 -0.00688479)
(-0.00239732 -0.00464407 -0.00611608)
(-0.00681437 -0.00470672 -0.00766405)
(-0.00961323 -0.005652 -0.00795023)
(-0.0101538 -0.015073 -0.00673213)
(-0.00955372 -0.0170269 -0.00691777)
(-0.0160391 -0.01329 -0.00103902)
(-0.0159825 -0.012032 -0.00116632)
(-0.0132774 -0.0184964 0.00534229)
(-0.0143399 -0.0177297 0.00505972)
(-0.0140803 -0.0186089 0.00375816)
(-0.0144488 -0.0144658 0.00254836)
(-0.0141159 -0.0197229 8.7382e-06)
(-0.0155284 -0.0177784 0.00010392)
(-0.00157937 -0.00401234 -0.00459044)
(-0.00123967 -0.00418176 -0.00453032)
(-0.00114645 -0.00469317 -0.00475113)
(-0.000703319 -0.00560342 -0.00519458)
(-0.00727297 -0.00734657 -0.00569126)
(-0.0055373 -0.00650669 -0.00611335)
(-0.00339026 -0.00647844 -0.00671545)
(-0.00465747 -0.00697245 -0.00669577)
(-0.00870853 -0.0180974 -0.00713837)
(-0.00983986 -0.0161694 -0.0063452)
(-0.00383789 -0.012803 -0.0136873)
(-0.00303348 -0.0124678 -0.0127089)
(-0.00357744 -0.0122619 -0.01342)
(-0.00116642 -0.0114615 -0.0109803)
(-0.00655524 -0.0202295 -0.0186032)
(-0.00863085 -0.0210441 -0.0198248)
(-0.0136461 -0.0220214 -0.0189141)
(-0.014826 -0.0203524 -0.01754)
(-0.0116011 -0.0185988 -0.00626798)
(-0.0100971 -0.0194555 -0.00443859)
(-0.001747 -0.00795062 -0.00495133)
(-0.0019661 -0.00836963 -0.00425418)
(-0.00189659 -0.00789957 -0.0050416)
(-0.00204576 -0.00825255 -0.00496696)
(-0.00318421 -0.00900981 -0.00490969)
(-0.00376861 -0.00988723 -0.00499834)
(-0.00623368 -0.013492 -0.00472722)
(-0.00854004 -0.0149379 -0.00533173)
(-0.0122855 -0.020438 -0.00388179)
(-0.0154577 -0.0223367 -0.00639968)
(-0.00602576 -0.00510567 -0.008651)
(-0.00805253 -0.00578075 -0.00913956)
(-0.00989333 -0.0117411 -0.0118962)
(-0.01064 -0.0133671 -0.0138471)
(-0.00156315 -0.0102982 -0.00346007)
(-0.00142249 -0.00852603 -0.00333244)
(-0.00461105 -0.0124708 -0.00318768)
(-0.00458995 -0.0134951 -0.00355636)
(-0.0116803 -0.0192405 -0.00325339)
(-0.0142261 -0.0170981 -0.00440529)
(-0.000263334 -0.00622428 -0.00446466)
(-0.000277601 -0.00653457 -0.0042738)
(-0.00038264 -0.00723683 -0.00401804)
(-0.000305371 -0.00795712 -0.00391204)
(-0.000509818 -0.00569678 -0.00460259)
(-0.000316826 -0.00564709 -0.00473583)
(-0.0175508 -0.0198386 -0.00929563)
(-0.0169529 -0.0209305 -0.00780445)
(-0.0173542 -0.0221799 -0.0077026)
(-0.0180798 -0.0213176 -0.0110462)
(-0.0178277 -0.0224452 -0.0103856)
(-0.0171217 -0.0216255 -0.00907881)
(-0.000438871 -0.0105344 -0.00999127)
(-0.00339421 -0.010635 -0.0115982)
(-0.0100113 -0.0193484 -0.00458151)
(-0.0125796 -0.0177837 -0.00298501)
(-0.0131866 -0.0175959 -0.0040609)
(-0.0103277 -0.0198067 -0.00481118)
(-0.0112371 -0.0198551 -0.00499735)
(-0.0120943 -0.0178414 -0.00480749)
(-0.0086671 -0.00602964 -0.00605681)
(-0.0124562 -0.00677118 -0.00546495)
(-0.00927307 -0.00586776 -0.00618719)
(-0.00983685 -0.00661169 -0.00545964)
(-0.0122101 -0.00702411 -0.00530847)
(-0.0110522 -0.00649872 -0.00618071)
(-0.00665177 -0.0106342 -0.00627791)
(-0.00583723 -0.00972415 -0.00535466)
(0.00176811 -0.00901796 -0.00540493)
(0.0023722 -0.0104016 -0.00520666)
(0.00155276 -0.00855711 -0.00577787)
(-0.00150039 -0.0039871 -0.00462523)
(-0.0013243 -0.00403831 -0.00462184)
(-0.00190905 -0.0038047 -0.00464414)
(-0.00124314 -0.00412069 -0.00441705)
(-0.00170491 -0.00392026 -0.00471563)
(-0.00143663 -0.00409246 -0.00465708)
(-0.0068309 -0.0250114 0.0016207)
(-0.00633398 -0.0250791 0.000354177)
(-0.00798511 -0.0245095 0.00111048)
(-0.00894239 -0.0232608 0.00186237)
(-0.0101411 -0.0242427 0.00327164)
(-0.008591 -0.0244823 0.00296888)
(-0.00649963 -0.00431529 -0.00658482)
(-0.00593355 -0.00429191 -0.00694627)
(-0.0073328 -0.00453056 -0.00723294)
(-0.00545686 -0.00455539 -0.0067988)
(-0.00829524 -0.0050224 -0.00722678)
(-0.00843407 -0.00488448 -0.00710988)
(-0.0157975 -0.0152055 -0.00348591)
(-0.0160671 -0.0136642 -0.00367176)
(-0.015856 -0.0116476 -0.00316539)
(-0.016158 -0.0143359 -0.00325041)
(-0.015518 -0.0114299 -0.00468115)
(-0.0157666 -0.0125051 -0.00469544)
(-0.00182072 -0.00648467 -0.00660092)
(-0.00243662 -0.00655003 -0.00660767)
(-0.000860468 -0.00642709 -0.00644005)
(0.00363437 -0.0127267 -0.00439807)
(0.00304087 -0.0162441 0.000392997)
(0.00235359 -0.0144769 0.00153892)
(0.00409781 -0.0141584 -0.00176559)
(0.0033918 -0.0140596 6.08941e-05)
(0.00359446 -0.0141947 -0.00184625)
(-0.0016012 -0.0219215 -0.0150357)
(-0.000433105 -0.0225642 -0.0129968)
(-0.000934125 -0.0223174 -0.0139836)
(-0.00087975 -0.0195359 -0.0131332)
(-0.00249966 -0.0214577 -0.0162286)
(-0.00196604 -0.0211358 -0.0154902)
(-0.0105419 -0.0216748 -0.00406243)
(-0.00714972 -0.0194014 -0.00215958)
(-0.00651607 -0.0192501 -0.00265119)
(-0.00754075 -0.0199931 -0.0034054)
(-0.0091551 -0.0194733 -0.00346996)
(-0.00877476 -0.020978 -0.00302493)
(-0.0110412 -0.0208453 -0.00452454)
(-0.0098606 -0.0196821 -0.00303836)
(0.000236518 -0.0147943 -0.00280148)
(0.00101336 -0.0149975 -0.00366262)
(0.000384849 -0.0135224 -0.00404363)
(-0.000973578 -0.0163909 -0.00344811)
(-0.000222793 -0.0169459 -0.00361322)
(-0.000366134 -0.0141728 -0.00313647)
(-0.00208191 -0.0240496 -0.0115766)
(-0.00130042 -0.025165 -0.0106939)
(-0.00266722 -0.0257793 -0.0150544)
(-0.00183475 -0.025814 -0.0141239)
(-0.00181361 -0.0255098 -0.00855919)
(-0.00254514 -0.0274931 -0.0097705)
(-0.00205329 -0.0240822 -0.0110298)
(-0.0101593 -0.0123679 -0.0130159)
(-0.0102241 -0.0119744 -0.0112677)
(-0.00968883 -0.0124253 -0.0136702)
(-0.00948853 -0.0129769 -0.0145129)
(-0.00866328 -0.0126383 -0.0146652)
(-0.0100119 -0.0131464 -0.0141042)
(-0.010401 -0.0143837 -0.0158522)
(-0.00953777 -0.0134946 -0.0149411)
(-0.0110485 -0.0144439 -0.014334)
(-0.0104955 -0.0143805 -0.0150846)
(-0.00645409 -0.0150098 -0.0168861)
(-0.00666895 -0.016945 -0.0188352)
(-0.00524155 -0.0158696 -0.0162029)
(-0.00619699 -0.0157192 -0.0163796)
(-0.00589707 -0.0157699 -0.0167822)
(-0.00501983 -0.0194891 -0.0165193)
(-0.00474257 -0.0178852 -0.0162285)
(-0.0103564 -0.00746232 -0.00864858)
(-0.00964986 -0.00698077 -0.00916637)
(-0.00974023 -0.00697029 -0.00941765)
(-0.0102611 -0.00924466 -0.00866861)
(-0.0112779 -0.0091376 -0.00904017)
(-0.00983905 -0.00830162 -0.00943415)
(-0.00404588 -0.0196857 0.00621545)
(-0.00163936 -0.0184955 0.00626079)
(0.000704267 -0.0192114 0.00371559)
(-0.00421102 -0.0211235 0.0067514)
(5.3634e-05 -0.018927 0.00513023)
(-0.00207194 -0.0216161 0.00609924)
(-0.00165673 -0.022559 -0.0149866)
(-0.00252651 -0.0217915 -0.0156567)
(-0.00106326 -0.0230169 -0.0127311)
(-0.00070152 -0.0239445 -0.0124087)
(-0.000733061 -0.0228884 -0.0132792)
(-0.00188225 -0.0235833 -0.0144039)
(0.0010293 -0.0204571 -0.00963979)
(0.00104649 -0.0203714 -0.0105426)
(0.000989917 -0.0228467 -0.0101305)
(0.00141956 -0.0228011 -0.00714647)
(0.000575637 -0.0187477 -0.0101932)
(0.00111629 -0.0169018 -0.00662508)
(-0.0123184 -0.0171724 -0.00887813)
(-0.0101368 -0.0159418 -0.00688309)
(-0.00999673 -0.0152161 -0.00668395)
(-0.0112175 -0.0168537 -0.00788649)
(-0.0109582 -0.0170046 -0.00853398)
(-0.0116678 -0.0161019 -0.00877391)
(-0.0130606 -0.016822 -0.0118991)
(-0.0141394 -0.018076 -0.0131884)
(-0.0133448 -0.0171364 -0.0105736)
(-0.0135451 -0.0186694 -0.0123776)
(-0.0130697 -0.0171875 -0.0110601)
(-0.0130639 -0.0181132 -0.00821777)
(-0.0151437 -0.0198015 -0.0110674)
(-0.01388 -0.0185258 -0.0108009)
(-0.0140086 -0.0191035 -0.00933452)
(-0.0136719 -0.0192519 -0.0101488)
(-0.0131012 -0.0186721 -0.00830764)
(-0.00988651 -0.0183214 -0.00281859)
(-0.0107337 -0.0186078 -0.00355512)
(-0.0135983 -0.0203183 -0.00537105)
(-0.0121427 -0.0193949 -0.00404071)
(-0.00873367 -0.0178834 -0.00309412)
(-0.00824346 -0.0181694 -0.00292253)
(-0.0114146 -0.0187409 -0.00588266)
(-0.0142341 -0.0210262 -0.00754314)
(-0.0134482 -0.0197884 -0.00561882)
(-0.0122907 -0.0203439 -0.00552377)
(-0.0139121 -0.0204716 -0.00815324)
(-0.0131665 -0.0193065 -0.0068759)
(-0.00522405 -0.0125398 -0.00546658)
(-0.00503067 -0.0120945 -0.00514057)
(-0.00563343 -0.011904 -0.00504494)
(-0.00448808 -0.0113456 -0.00464311)
(-0.00422319 -0.0111369 -0.0047785)
(-0.00572415 -0.0118871 -0.00492971)
(-0.00457435 -0.00950523 -0.00513595)
(-0.00400622 -0.00981488 -0.0051159)
(-0.00464814 -0.0101768 -0.0052023)
(-0.00408129 -0.00937904 -0.00494127)
(-0.00511873 -0.00997649 -0.00546453)
(-0.00561312 -0.0107523 -0.0055841)
(-0.00264154 -0.00964463 -0.00429927)
(-0.00329966 -0.0103812 -0.00485062)
(-0.00280002 -0.00919109 -0.00462151)
(-0.00298019 -0.0103282 -0.00484338)
(-0.00115381 -0.00981214 -0.00339438)
(-0.00234556 -0.0113754 -0.00340976)
(-0.000775174 -0.00859573 -0.00318411)
(-0.00137505 -0.00885385 -0.00349485)
(-0.000758892 -0.0076785 -0.00405814)
(-0.000883872 -0.00738598 -0.00390315)
(-0.0014228 -0.0081644 -0.0041308)
(-0.00160226 -0.00826624 -0.00391624)
(-0.0024109 -0.00989914 -0.00378287)
(-0.00224045 -0.00940013 -0.0038487)
(-0.00280638 -0.010226 -0.003696)
(-0.00182072 -0.00904824 -0.00391252)
(-0.00324958 -0.0113749 -0.00375354)
(-0.0051004 -0.013597 -0.00444132)
(-0.00542652 -0.014082 -0.0037634)
(-0.00604635 -0.013953 -0.00451993)
(-0.00679289 -0.0152204 -0.00421213)
(-0.0046 -0.0122909 -0.00309718)
(-0.00421822 -0.0136209 -0.00280012)
(-0.00547911 -0.0150693 -0.00295322)
(-0.00298828 -0.0123134 -0.00285446)
(-0.00292126 -0.0126434 -0.00279208)
(-0.00544668 -0.0160351 -0.00267639)
(-0.00401549 -0.0133012 -0.00180339)
(6.21816e-05 -0.0101942 -0.00398952)
(-0.000518204 -0.0105122 -0.00359885)
(-7.78152e-05 -0.00809682 -0.00403996)
(0.000182243 -0.0090057 -0.00404176)
(-0.000360919 -0.0121848 -0.0036604)
(-0.000205797 -0.00875729 -0.00361991)
(0.0012906 -0.013082 -0.00360334)
(0.00191687 -0.0121703 -0.00473474)
(0.00152439 -0.0119676 -0.00364495)
(0.00220069 -0.0130965 -0.00460797)
(0.00253799 -0.0127666 -0.00473104)
(0.00168832 -0.0141833 -0.00413749)
(-0.0138594 -0.0200405 -0.00491841)
(-0.016378 -0.0201972 -0.0062141)
(-0.0158822 -0.0223651 -0.00575824)
(-0.0127511 -0.0204752 -0.00414394)
(-0.0139448 -0.0208183 -0.00382088)
(-0.0161863 -0.0202066 -0.00615367)
(-0.00328629 -0.0178451 -0.00176522)
(-0.00585787 -0.0189073 -0.00202642)
(-0.00606186 -0.0195492 -0.00220958)
(-0.00271897 -0.0172007 -0.00234389)
(-0.00398421 -0.0181223 -0.00242257)
(-0.00429216 -0.0203671 -0.00302016)
(-0.0100087 -0.0211151 -0.00311938)
(-0.00710835 -0.0195265 -0.00236971)
(-0.010306 -0.0201897 -0.00267016)
(-0.0081219 -0.0209539 -0.00313707)
(-0.00875448 -0.0201858 -0.0029627)
(-0.00701434 -0.0184711 -0.00238595)
(-0.0127886 -0.0205326 -0.0189211)
(-0.0149384 -0.0211663 -0.0175437)
(-0.0149506 -0.0200479 -0.016655)
(-0.0124998 -0.0200044 -0.0182448)
(-0.0142435 -0.0211969 -0.0182124)
(-0.0138086 -0.0213083 -0.0186309)
(-0.00914142 -0.0200977 -0.0197549)
(-0.00784689 -0.020822 -0.0197105)
(-0.00673972 -0.021701 -0.0193682)
(-0.00930742 -0.019445 -0.0192415)
(-0.00839529 -0.0218657 -0.0200181)
(-0.00696071 -0.0208504 -0.0191324)
(-0.0124415 -0.0202747 -0.019232)
(-0.00882313 -0.0207354 -0.0192272)
(-0.0112914 -0.0212101 -0.0197308)
(-0.0102825 -0.0193345 -0.0187864)
(-0.00963867 -0.0204611 -0.0195487)
(-0.00806599 -0.0201342 -0.0192333)
(-0.00529508 -0.0205726 -0.0184192)
(-0.00451794 -0.0204527 -0.0174513)
(-0.00776839 -0.0199176 -0.0188373)
(-0.00692178 -0.0201759 -0.0189783)
(-0.00542247 -0.0172524 -0.0163896)
(-0.00367553 -0.0215766 -0.0174003)
(-0.00385562 -0.0209938 -0.0173772)
(-0.0045008 -0.0209676 -0.0182005)
(-0.00592567 -0.0206512 -0.0185635)
(-0.00551967 -0.0220608 -0.0187127)
(-0.0122079 -0.0164545 -0.0162489)
(-0.0128606 -0.0153066 -0.0148797)
(-0.0146777 -0.0170695 -0.0146731)
(-0.0149334 -0.0173278 -0.014717)
(-0.0140969 -0.0170547 -0.0156568)
(-0.0115507 -0.016457 -0.0163035)
(-0.00877456 -0.0128355 -0.0143154)
(-0.00540609 -0.0119396 -0.0136545)
(-0.00892516 -0.0139811 -0.0155399)
(-0.00701517 -0.0124164 -0.0143757)
(-0.00993551 -0.0129106 -0.0143927)
(-0.00644361 -0.0125942 -0.014332)
(0.00175563 -0.0142905 -0.00829605)
(0.00238141 -0.0145574 -0.00684441)
(0.00246604 -0.0166448 -0.00636042)
(0.00165959 -0.0161068 -0.00858281)
(0.00256585 -0.016061 -0.00523279)
(0.000965254 -0.0142131 -0.00941412)
(-0.0010776 -0.0117356 -0.0115767)
(-0.0022732 -0.0129508 -0.0124231)
(-0.00484409 -0.0140696 -0.0144572)
(-0.000180691 -0.0129347 -0.0110828)
(-0.000889753 -0.0128525 -0.0122903)
(-0.000114332 -0.00597138 -0.0044662)
(-0.000434444 -0.00548927 -0.0045414)
(-0.00062505 -0.00503799 -0.00444083)
(-9.60942e-05 -0.00648568 -0.00444848)
(-0.000243505 -0.0061487 -0.00430558)
(-0.000415009 -0.00529513 -0.00411318)
(-0.00084705 -0.00620218 -0.0060596)
(-0.00118569 -0.00568111 -0.00569914)
(-0.000659439 -0.00589968 -0.00556233)
(-0.000414287 -0.00631258 -0.00585396)
(-0.0014771 -0.0060789 -0.00615208)
(-0.00159621 -0.00564955 -0.00587605)
(0.000306396 -0.00671588 -0.00517245)
(0.000455643 -0.00711633 -0.00568935)
(0.000846349 -0.00758103 -0.00509024)
(0.000711318 -0.00761019 -0.00499279)
(0.00106021 -0.00803804 -0.00523677)
(0.000798289 -0.00739455 -0.00563896)
(-0.00925595 -0.0246485 -0.00324703)
(-0.011775 -0.0224431 -0.000297989)
(-0.0100338 -0.0240207 -0.00213009)
(-0.0105409 -0.0235635 -0.00200788)
(-0.0113008 -0.0222098 -0.00208868)
(-0.0124821 -0.0228095 -0.00170045)
(-0.00703053 -0.0227241 -0.00645767)
(-0.00865894 -0.0217442 -0.0048)
(-0.00641221 -0.022348 -0.00693804)
(-0.00743043 -0.0202388 -0.0054262)
(-0.00813148 -0.0221511 -0.00494904)
(-0.00722883 -0.0218064 -0.0063635)
(-0.0032491 -0.0243018 -0.0107069)
(-0.00410666 -0.0238766 -0.00911298)
(-0.00310768 -0.0245607 -0.0114237)
(-0.00385145 -0.0239229 -0.013914)
(-0.0050289 -0.0269379 -0.0131906)
(-0.0142977 -0.00830813 -0.00518405)
(-0.0147776 -0.0102681 -0.00448238)
(-0.0134762 -0.00754272 -0.00585732)
(-0.0143138 -0.00855286 -0.0050973)
(-0.0158949 -0.0104158 -0.00487825)
(-0.0133391 -0.0072672 -0.0055438)
(-0.0139736 -0.0165689 -0.00333876)
(-0.013962 -0.018073 -0.00263441)
(-0.0147924 -0.0145619 -0.00307261)
(-0.0120488 -0.016629 -0.00312643)
(-0.0122457 -0.0083573 -0.00731769)
(-0.0124831 -0.00864298 -0.00747857)
(-0.0131047 -0.0103508 -0.00669661)
(-0.0129953 -0.0102193 -0.00662135)
(-0.0129379 -0.00901061 -0.00682585)
(-0.0130724 -0.0106813 -0.00789653)
(-0.00372219 -0.0190287 -0.0127336)
(-0.00479375 -0.0200386 -0.0118777)
(-0.00323086 -0.0165352 -0.0122304)
(-0.00508345 -0.0203412 -0.0153878)
(-0.00488833 -0.0216975 -0.0158735)
(-0.00543118 -0.022395 -0.0120997)
(-0.00401906 -0.0200654 -0.0136708)
(-0.0101055 -0.0189997 -0.00670442)
(-0.00739558 -0.0180034 -0.00791688)
(-0.00829028 -0.0190936 -0.00766841)
(-0.00803804 -0.0184602 -0.00807662)
(-0.00882556 -0.017594 -0.00729079)
(-0.00912872 -0.0175939 -0.00723504)
(-0.0114681 -0.0148639 -0.00732393)
(-0.0106522 -0.0149627 -0.00729388)
(-0.0110081 -0.0143883 -0.00619712)
(-0.00984523 -0.0163721 -0.00709508)
(-0.01052 -0.0166335 -0.0072724)
(-0.0112647 -0.0157468 -0.00447633)
(-0.012069 -0.0175086 -0.00506309)
(-0.0104664 -0.0177981 -0.00501983)
(-0.0121436 -0.0166561 -0.00507178)
(-0.0103029 -0.0183403 -0.0053061)
(-0.0111825 -0.0176206 -0.00506419)
(-0.0122025 -0.0110457 -0.00658661)
(-0.0125514 -0.0125745 -0.0068665)
(-0.0125251 -0.0112469 -0.00676333)
(-0.0118054 -0.0126928 -0.00680866)
(-0.0128013 -0.0137212 -0.00631601)
(-0.0113944 -0.0132483 -0.00615764)
(-0.0121716 -0.0140413 -0.00509623)
(-0.0131424 -0.0134292 -0.00574215)
(-0.0125522 -0.0139155 -0.00504808)
(-0.0130409 -0.0119718 -0.00567621)
(-0.0129283 -0.0118979 -0.00557366)
(-0.0127878 -0.0139883 -0.00602472)
(-0.00780712 -0.0186773 -0.00668113)
(-0.00824661 -0.0202542 -0.00641484)
(-0.0076595 -0.0189299 -0.00786389)
(-0.00689286 -0.0182465 -0.00670527)
(-0.00872715 -0.0174605 -0.00607269)
(-0.00910957 -0.018488 -0.00652012)
(-0.00489738 -0.0194022 -0.0102038)
(-0.00543895 -0.0206591 -0.0104054)
(-0.005246 -0.0207217 -0.00975103)
(-0.00523761 -0.0194428 -0.00842291)
(-0.00653761 -0.0205173 -0.0087203)
(-0.00601833 -0.0205423 -0.00936878)
(-0.0152812 -0.00955258 -0.00344436)
(-0.0156534 -0.0110606 -0.00276996)
(-0.0156299 -0.0109109 -0.00318622)
(-0.0144316 -0.00950562 -0.00444722)
(-0.0145912 -0.00833409 -0.00395558)
(-0.0134526 -0.00853164 -0.00472802)
(-0.0170158 -0.0151862 -0.00135532)
(-0.0166242 -0.0136642 -0.00323172)
(-0.0164689 -0.0126011 -0.00322789)
(-0.0169483 -0.0125954 -0.00129873)
(-0.016957 -0.0151822 -0.00220274)
(-0.0159946 -0.0149354 -0.00200199)
(-0.0167104 -0.0161544 -0.00154546)
(-0.014696 -0.0180738 -0.00154589)
(-0.00712459 -0.00857553 -0.00617441)
(-0.0069367 -0.00795105 -0.00579718)
(-0.00534916 -0.00701484 -0.00633367)
(-0.00546161 -0.00742188 -0.00652695)
(-0.00603972 -0.00788973 -0.006182)
(-0.00632631 -0.00769268 -0.00641501)
(-0.00503868 -0.00581665 -0.00598644)
(-0.00397629 -0.0055751 -0.00571576)
(-0.00413512 -0.00606728 -0.0061467)
(-0.00568919 -0.00620493 -0.00598062)
(-0.00149694 -0.00491681 -0.00515967)
(-0.00178679 -0.00470327 -0.00508535)
(-0.00111903 -0.00434943 -0.00457085)
(-0.00172328 -0.00452603 -0.00482296)
(-0.00147476 -0.00447383 -0.00479303)
(-0.00332197 -0.00476739 -0.00548843)
(-0.00420805 -0.00548988 -0.00597479)
(-0.00400403 -0.00529653 -0.00569677)
(-0.00343124 -0.0050965 -0.00563959)
(-0.00284541 -0.00489487 -0.00555538)
(-0.00267402 -0.00462871 -0.0052438)
(-0.00934597 -0.00538205 -0.0070425)
(-0.0100631 -0.00584078 -0.00658923)
(-0.00850722 -0.00505798 -0.00651722)
(-0.00757741 -0.00446392 -0.00657877)
(-0.00717853 -0.00481305 -0.00649566)
(-0.0106457 -0.00559469 -0.00657814)
(-0.00239473 -0.0039687 -0.00499411)
(-0.00366906 -0.00424463 -0.00596652)
(-0.00361053 -0.00409612 -0.00566324)
(-0.00235202 -0.00392992 -0.00494564)
(-0.00282379 -0.0036658 -0.00508343)
(-0.0027635 -0.00410921 -0.00525746)
(-0.00520931 -0.0250988 0.00330545)
(-0.00438189 -0.0253772 0.00125916)
(-0.00572951 -0.0260028 0.00149953)
(-0.00798023 -0.025365 0.00336041)
(-0.00869554 -0.0245733 0.00466834)
(-0.00663154 -0.024308 0.00405029)
(-0.012914 -0.0218924 0.00322903)
(-0.0146629 -0.019467 0.00211955)
(-0.0139696 -0.0213932 0.00268954)
(-0.014739 -0.0189088 0.00181325)
(-0.0133674 -0.0213855 0.00354973)
(-0.013911 -0.0203579 0.0026223)
(-0.00432629 -0.0248887 -0.00192487)
(-0.00471068 -0.0247536 -0.00291079)
(-0.00256269 -0.0254945 -0.00497606)
(-0.00280311 -0.0244565 -0.00309763)
(-0.00558274 -0.0256444 -0.00147289)
(-0.00361192 -0.0258055 -0.00464599)
(-0.00701296 -0.0252078 -0.00415448)
(-0.00424634 -0.0250795 -0.00691984)
(-0.00578787 -0.0261465 -0.00598147)
(-0.00460566 -0.0259638 -0.00597558)
(-0.00593805 -0.0249523 -0.00329122)
(-0.00733084 -0.0255239 -0.00302513)
(-0.00877869 -0.00968237 -0.00456136)
(-0.00866976 -0.00889925 -0.00484633)
(-0.00843877 -0.00952405 -0.00527384)
(-0.00966049 -0.0108794 -0.00403106)
(-0.010251 -0.0106428 -0.00362551)
(-0.00976847 -0.00943199 -0.00423179)
(-0.00728687 -0.0102065 -0.00584769)
(-0.00686076 -0.0086648 -0.00610342)
(-0.00759982 -0.00951923 -0.00530884)
(-0.00690256 -0.00915598 -0.00607859)
(-0.00737032 -0.00933233 -0.00592078)
(-0.00634976 -0.0201209 0.00751455)
(-0.00811194 -0.0195535 0.00686941)
(-0.00829937 -0.0194726 0.00730311)
(-0.00398662 -0.0212375 0.00554918)
(-0.00437876 -0.0222519 0.00629623)
(-0.00673743 -0.0208631 0.0069723)
(-0.0104355 -0.0140716 0.000721414)
(-0.00871432 -0.0151848 -0.00106319)
(-0.00923974 -0.0149308 -0.00190783)
(-0.00902284 -0.0157512 4.37631e-05)
(-0.00947962 -0.0143576 -0.00114385)
(-0.0102407 -0.0159826 0.00145212)
(-0.0121516 -0.0222553 0.00328887)
(-0.0106571 -0.0226181 0.00414182)
(-0.0143006 -0.0206142 0.00449697)
(-0.0133099 -0.0223794 0.00424331)
(-0.0139631 -0.0206594 0.00454142)
(-0.0114747 -0.0233827 0.00437541)
(-0.011613 -0.0164132 0.00488013)
(-0.0110409 -0.0175359 0.00549821)
(-0.0121652 -0.016137 0.00312384)
(-0.0131691 -0.0171248 0.00400073)
(-0.0115929 -0.0191072 0.00593054)
(-0.0151141 -0.0136878 -0.000551719)
(-0.015789 -0.0131935 -5.33032e-05)
(-0.0123187 -0.0102802 -0.00277169)
(-0.0136322 -0.0106737 -0.00242456)
(-0.0153411 -0.0117817 -0.00122342)
(-0.0133043 -0.011041 -0.00149057)
(-0.0154764 -0.0190372 0.00213983)
(-0.016419 -0.0153602 0.000616849)
(-0.0164145 -0.0175043 0.0014665)
(-0.0155919 -0.0160474 0.0021863)
(-0.0170678 -0.0157877 0.000985708)
(-0.00615864 -0.0050691 -0.00812936)
(-0.00642779 -0.00523546 -0.00843396)
(-0.00745729 -0.00549315 -0.0086041)
(-0.00734085 -0.00526704 -0.0083318)
(-0.00530783 -0.00469682 -0.00783811)
(-0.00524475 -0.00492372 -0.00780792)
(-0.0113846 -0.010282 -0.00774422)
(-0.0117595 -0.0117406 -0.00771758)
(-0.0107937 -0.0124077 -0.00699036)
(-0.0122136 -0.0128944 -0.0073762)
(-0.0115464 -0.0109725 -0.00795758)
(-0.0109124 -0.0118633 -0.00757196)
(-0.0110905 -0.00776312 -0.00806996)
(-0.0111469 -0.00771493 -0.00825575)
(-0.0122152 -0.00951328 -0.00755415)
(-0.012081 -0.00922963 -0.00752608)
(-0.0121142 -0.00923635 -0.00831189)
(-0.0117988 -0.00875394 -0.00806545)
(-0.00601743 -0.00505682 -0.00862167)
(-0.00403594 -0.00495659 -0.0075288)
(-0.00477132 -0.00484144 -0.00794991)
(-0.00411 -0.00485232 -0.00761583)
(-0.00522603 -0.00515318 -0.00840281)
(-0.000986266 -0.00484718 -0.00450286)
(-0.00103925 -0.00453212 -0.00462696)
(-0.00112242 -0.00418279 -0.0045382)
(-0.000736662 -0.005475 -0.00429271)
(-0.00108348 -0.00430019 -0.00467624)
(-0.000815331 -0.00504531 -0.00448885)
(-0.00223953 -0.00381652 -0.0051099)
(-0.00287581 -0.00409137 -0.00562757)
(-0.00204193 -0.00392323 -0.00513952)
(-0.00288255 -0.004101 -0.00579492)
(-0.00370892 -0.00387965 -0.00612544)
(-0.00411926 -0.00427333 -0.0066136)
(-0.00454906 -0.00421339 -0.00683003)
(-0.00325126 -0.00351706 -0.00576293)
(0.000694752 -0.00893188 -0.00507278)
(0.000526638 -0.00779402 -0.00465925)
(0.00097858 -0.00925399 -0.00474627)
(0.000624841 -0.0097292 -0.00423283)
(0.00117897 -0.0114387 -0.00482479)
(-0.0139843 -0.0199265 -0.0161404)
(-0.0151923 -0.0210878 -0.0170282)
(-0.015352 -0.0205168 -0.0154485)
(-0.0142558 -0.0192479 -0.013423)
(-0.0159466 -0.0206467 -0.0141946)
(-0.0145845 -0.019789 -0.015001)
(-0.0126367 -0.0169168 -0.0174298)
(-0.0111124 -0.0156424 -0.0167665)
(-0.0123683 -0.0161513 -0.0158663)
(-0.0117165 -0.0170072 -0.0172066)
(-0.0113675 -0.0162193 -0.0175394)
(-0.0123293 -0.0151845 -0.0152717)
(-0.0116402 -0.0167769 -0.0179592)
(-0.0108888 -0.0193187 -0.0193815)
(-0.00979184 -0.0185804 -0.0195075)
(-0.00915952 -0.0176821 -0.0182179)
(-0.0102347 -0.0191107 -0.0186083)
(-0.00111316 -0.00456633 -0.00468876)
(-0.000990895 -0.0053285 -0.00456296)
(-0.00104308 -0.00446085 -0.00441172)
(-0.000946496 -0.00441317 -0.00431122)
(-0.00115317 -0.00554227 -0.00521936)
(-0.0011643 -0.00479792 -0.0047273)
(-0.00751925 -0.0192366 -0.0191296)
(-0.00624172 -0.0204889 -0.0187068)
(-0.00534915 -0.0194636 -0.0175021)
(-0.00671536 -0.0196258 -0.0184397)
(-0.00729584 -0.0189178 -0.0185239)
(-0.00487845 -0.020873 -0.0169846)
(-0.00202724 -0.00486703 -0.00572473)
(-0.00207121 -0.00478194 -0.00573706)
(-0.00283131 -0.00483061 -0.0067174)
(-0.00287107 -0.00477445 -0.00700421)
(-0.00266458 -0.005318 -0.006961)
(-0.00230025 -0.00468987 -0.0060738)
(-0.0014874 -0.00422147 -0.00506527)
(-0.00177584 -0.00444978 -0.00549397)
(-0.00166415 -0.00439865 -0.00526105)
(-0.00171613 -0.00433454 -0.00547779)
(-0.00134539 -0.00504004 -0.00481812)
(-0.00147175 -0.00448403 -0.00482452)
(-0.00157492 -0.00744068 -0.00497022)
(-0.0014344 -0.00708399 -0.00489572)
(-0.00145465 -0.00687582 -0.00508804)
(-0.00143419 -0.00624023 -0.0049454)
(-0.00133004 -0.00595293 -0.00531779)
(-0.00150565 -0.00741717 -0.004981)
(-0.00790752 -0.0109976 -0.00741377)
(-0.00861702 -0.0108961 -0.00804997)
(-0.00947735 -0.0112534 -0.00902804)
(-0.00255564 -0.00806465 -0.00461875)
(-0.00215143 -0.00853589 -0.00532247)
(-0.00239439 -0.00860642 -0.0053244)
(-0.00314098 -0.00879159 -0.00479867)
(-0.00282645 -0.00864442 -0.00495484)
(-0.00172672 -0.00690848 -0.00487498)
(-0.0013035 -0.00633209 -0.00557778)
(-0.00155373 -0.00706952 -0.00586653)
(-0.0021264 -0.00772522 -0.00492955)
(0.0028412 -0.0119475 -0.00656308)
(0.000732529 -0.00944303 -0.00814965)
(0.00167461 -0.0107798 -0.00748865)
(-0.016791 -0.0199961 -0.0111441)
(-0.0163685 -0.0189937 -0.0125196)
(-0.0166291 -0.0196478 -0.00949752)
(-0.0163339 -0.0188083 -0.0106795)
(-0.0163539 -0.0185852 -0.0120811)
(-0.0172778 -0.0199203 -0.00936417)
(-0.0165477 -0.0204193 -0.015253)
(-0.0165958 -0.0184577 -0.0133359)
(-0.0184686 -0.0202628 -0.0128896)
(-0.0168842 -0.0203139 -0.0157165)
(-0.0177393 -0.0201221 -0.0121159)
(-0.017016 -0.0219299 -0.0143565)
(-0.00862538 -0.0143197 -0.0162239)
(-0.00767715 -0.0154388 -0.0168117)
(-0.00781288 -0.0135731 -0.0156954)
(-0.00756296 -0.0146833 -0.0165637)
(-0.00927144 -0.0149245 -0.0167434)
(-0.00810043 -0.0138757 -0.0162367)
(-0.0113627 -0.0197446 -0.00290635)
(-0.0129858 -0.0210175 -0.00372296)
(-0.00953676 -0.0131169 -0.014172)
(-0.0075981 -0.0113141 -0.0129952)
(-0.00878332 -0.0118294 -0.0125992)
(-0.010108 -0.0118912 -0.0123971)
(-0.00654699 -0.0104855 -0.0127799)
(-0.00725249 -0.0112526 -0.0133745)
(-0.0031397 -0.0105725 -0.0117746)
(0.000810592 -0.0108065 -0.00888726)
(-0.00168762 -0.0102455 -0.0109103)
(-0.000749001 -0.0109898 -0.010647)
(-0.00211407 -0.00757259 -0.00474116)
(-0.00203035 -0.00551135 -0.00606629)
(-0.00176991 -0.00508428 -0.00580118)
(-0.00163854 -0.00559234 -0.00591088)
(-0.00657024 -0.0108912 -0.00630901)
(-0.00831297 -0.0125553 -0.00750802)
(-0.00820051 -0.0117176 -0.00745675)
(-0.00743048 -0.0103012 -0.00635776)
(-0.0074728 -0.0107894 -0.00659303)
(-0.00952723 -0.0123948 -0.00866159)
(-0.00123602 -0.00489556 -0.00446239)
(-0.00120038 -0.00473442 -0.00490829)
(-0.00147136 -0.00594756 -0.00557526)
(-0.00121848 -0.00556567 -0.00505773)
(-0.00149013 -0.00609746 -0.00525705)
(-0.00148891 -0.00526863 -0.00524061)
(-0.00124782 -0.00550225 -0.00486345)
(-0.00125682 -0.00587898 -0.0049505)
(-0.00118919 -0.00553404 -0.00473329)
(-0.00126216 -0.00650398 -0.0057128)
(-0.00142261 -0.00646132 -0.00543172)
(-0.00139446 -0.00645838 -0.00515008)
(-0.00127126 -0.0059716 -0.00512815)
(-0.00220351 -0.00468445 -0.0060202)
(-0.00548777 -0.0199292 -0.0179938)
(-0.00387325 -0.0214128 -0.0165094)
(-0.00449312 -0.0215132 -0.017172)
(-0.00490438 -0.022558 -0.0189523)
(-0.00981576 -0.012749 -0.00908156)
(-0.000763093 -0.00602379 -0.00431072)
(-0.0124555 -0.0180962 -0.0177436)
(-0.0113139 -0.0162457 -0.0166441)
(-0.0126125 -0.0180154 -0.0179436)
(-0.0139966 -0.0187824 -0.0165358)
(-0.0134797 -0.020673 -0.0190841)
(-0.012799 -0.0162631 -0.0129088)
(-0.0113555 -0.0146597 -0.0119827)
(-0.0127176 -0.0152219 -0.0132559)
(-0.0129571 -0.0163797 -0.0148449)
(0.00117379 -0.00901762 -0.00496722)
(0.00191611 -0.0101451 -0.0051138)
(0.00160843 -0.0100925 -0.00461312)
(-0.00135197 -0.00409104 -0.00424017)
(-0.0011724 -0.00425044 -0.00423257)
(-0.0013634 -0.00413525 -0.00455693)
(-0.00113752 -0.00474809 -0.00461026)
(-0.000658717 -0.00549362 -0.00439457)
(-0.00166133 -0.00385557 -0.00460432)
(-0.00179319 -0.00399499 -0.00498882)
(-0.00176666 -0.00400596 -0.00483042)
(-0.00082639 -0.00475074 -0.0041957)
(-0.000697575 -0.00425737 -0.00405527)
(-0.00100956 -0.0041942 -0.00400306)
(-0.00329077 -0.00481182 -0.00700619)
(-0.00322662 -0.00478865 -0.00715235)
(-0.00250412 -0.00541952 -0.00633186)
(-0.00334716 -0.00507978 -0.00739285)
(-0.00349383 -0.00527302 -0.00777087)
(-0.00396694 -0.00512081 -0.00832404)
(-0.00433999 -0.00555067 -0.00855745)
(-0.00254841 -0.00463773 -0.0063003)
(-0.00370671 -0.00463869 -0.00714101)
(-0.0109558 -0.00718914 -0.00870361)
(-0.0114488 -0.00726913 -0.00820168)
(-0.0122604 -0.00878551 -0.00845497)
(-0.0100664 -0.00688368 -0.00819413)
(-0.0122866 -0.0114707 -0.00788243)
(-0.0109253 -0.00927874 -0.00788659)
(-0.00468631 -0.00503307 -0.00793022)
(-0.00915412 -0.00629549 -0.00853876)
(-0.00937422 -0.00619762 -0.00840634)
(-0.00829015 -0.00597428 -0.00863492)
(-0.008543 -0.00563488 -0.00851049)
(-0.00494795 -0.00550416 -0.00879413)
(-0.00488159 -0.00544319 -0.0088329)
(-0.0107628 -0.0132951 -0.00683582)
(-0.0163049 -0.0151468 -0.000137939)
(-0.0146248 -0.0171397 0.00234162)
(-0.0119621 -0.0142601 0.00204781)
(-0.0118133 -0.0139258 0.000197497)
(-0.0108475 -0.0165382 0.00369819)
(-0.00848995 -0.0162436 0.00146352)
(-0.010484 -0.0203964 0.00652987)
(-0.00997482 -0.019767 0.00608006)
(-0.0088775 -0.018698 0.0055121)
(-0.0110949 -0.012618 -0.000835027)
(-0.00987086 -0.0126501 -0.00165457)
(-0.00884623 -0.0138757 -0.00280603)
(-0.0125039 -0.0121769 -0.00129109)
(-0.0110115 -0.0121034 -0.00206071)
(-0.0116119 -0.0113087 -0.00251377)
(-0.00988966 -0.0111013 -0.00294655)
(-0.00783722 -0.0100485 -0.00500395)
(-0.007625 -0.00895779 -0.00572737)
(-0.00598841 -0.0264626 -0.00741417)
(-0.0109417 -0.0232871 0.000404347)
(-0.00824411 -0.0234669 -0.00159099)
(-0.00913298 -0.0241385 -0.000942294)
(-0.00624871 -0.0251101 -0.0021892)
(-0.00781323 -0.0239797 -0.000564809)
(-0.00231339 -0.0255815 -0.00202476)