/*--------------------------------*- C++ -*----------------------------------*\
| =========                 |                                                 |
| \\      /  F ield         | OpenFOAM: The Open Source CFD Toolbox           |
|  \\    /   O peration     | Version:  v1612+                                |
|   \\  /    A nd           | Web:      www.OpenFOAM.com                      |
|    \\/     M anipulation  |                                                 |
\*---------------------------------------------------------------------------*/
FoamFile
{
    version     2.0;
    format      ascii;
    class       volScalarField;
    location    "206";
    object      p;
}
// * * * * * * * * * * * * * * * * * * * * * * * * * * * * * * * * * * * * * //

dimensions      [0 2 -2 0 0 0 0];

internalField   nonuniform List<scalar> 
19069
(
3.89906
3.92717
3.9308
3.931
3.92144
3.92514
3.92904
3.93023
3.9249
3.92657
3.92557
3.93045
3.92692
3.92461
3.92509
3.92712
3.92393
3.92746
3.92573
3.92718
3.92517
3.92583
3.92162
3.92342
3.92747
3.9028
3.90192
3.90274
3.9066
3.90632
3.90182
3.90532
3.90347
3.90605
3.90456
3.90269
3.90773
3.90675
3.90134
3.91293
3.91204
3.91694
3.91625
3.91278
3.91769
3.91105
3.91476
3.91111
3.90678
3.91567
3.91649
3.91964
3.91197
3.91351
3.91437
3.91317
3.91211
3.91184
3.92584
3.91898
3.92548
3.92317
3.92578
3.92477
3.92196
3.92543
3.92594
3.91878
3.91661
3.92213
3.92688
3.9229
3.91495
3.92234
3.92399
3.91991
3.92552
3.92135
3.92615
3.91962
3.91901
3.91626
3.92306
3.92369
3.91852
3.92304
3.91969
3.91928
3.91776
3.91873
3.91655
3.9178
3.88692
3.88203
3.88492
3.8817
3.89196
3.88339
3.89193
3.8826
3.88838
3.88208
3.88476
3.89167
3.90031
3.89762
3.89959
3.89918
3.89821
3.90025
3.89678
3.89947
3.89883
3.89964
3.89721
3.89675
3.89916
3.89913
3.89681
3.89756
3.90001
3.90118
3.90354
3.90445
3.9052
3.90361
3.90029
3.90581
3.90378
3.89928
3.90547
3.90489
3.90667
3.90462
3.89914
3.90393
3.90278
3.90377
3.84883
3.8497
3.85899
3.85445
3.84002
3.85183
3.85589
3.86097
3.8404
3.83883
3.84332
3.85561
3.85696
3.86024
3.85357
3.85148
3.85115
3.84531
3.84573
3.85327
3.84081
3.80508
3.8053
3.81468
3.81927
3.82017
3.83015
3.80791
3.80744
3.832
3.8251
3.81805
3.82464
3.83246
3.83451
3.84375
3.83299
3.81847
3.81265
3.83028
3.84451
3.90614
3.90481
3.90652
3.90517
3.90998
3.91146
3.90376
3.90933
3.91301
3.91071
3.90856
3.90656
3.90601
3.91083
3.90934
3.90992
3.89907
3.90199
3.90212
3.9061
3.90034
3.90586
3.90559
3.90828
3.91175
3.90571
3.90559
3.90259
3.90811
3.91006
3.90788
3.91253
3.90814
3.90513
3.90583
3.91226
3.91105
3.91332
3.91197
3.91152
3.91305
3.91152
3.91408
3.82691
3.82138
3.8361
3.82441
3.83032
3.83847
3.84184
3.83355
3.82424
3.84995
3.83958
3.82554
3.84039
3.84657
3.84628
3.85299
3.84591
3.81933
3.81822
3.81872
3.8205
3.82401
3.82853
3.82702
3.81381
3.82685
3.83514
3.83951
3.83764
3.83848
3.82028
3.83312
3.83088
3.88424
3.88259
3.88784
3.87807
3.88184
3.87815
3.88378
3.87351
3.88091
3.8777
3.8832
3.87992
3.87103
3.87456
3.8729
3.87119
3.93072
3.93031
3.92549
3.92972
3.93299
3.9347
3.93108
3.92624
3.92687
3.92854
3.9298
3.92539
3.9307
3.92664
3.92749
3.9228
3.93241
3.92687
3.92535
3.92732
3.92772
3.90818
3.90709
3.9089
3.90535
3.90983
3.90946
3.90524
3.90915
3.9066
3.90579
3.9041
3.90514
3.90308
3.90832
3.91675
3.91793
3.91709
3.91763
3.91731
3.92212
3.91846
3.91205
3.92073
3.91962
3.92029
3.91574
3.91912
3.92656
3.92128
3.84549
3.84781
3.84843
3.83744
3.84631
3.85095
3.85672
3.85181
3.85313
3.85442
3.85767
3.85699
3.85985
3.85687
3.85754
3.86002
3.86257
3.86026
3.90079
3.89782
3.89174
3.89727
3.90117
3.90309
3.88639
3.89858
3.8963
3.89916
3.89449
3.89254
3.9063
3.90317
3.90541
3.89589
3.89397
3.88052
3.89454
3.88844
3.90063
3.90062
3.90551
3.89983
3.90617
3.9095
3.89809
3.90271
3.89917
3.90159
3.90822
3.90696
3.90614
3.90153
3.90069
3.90427
3.90604
3.90586
3.89483
3.8901
3.89166
3.89457
3.88584
3.88818
3.89705
3.88938
3.89243
3.88955
3.89274
3.89559
3.89424
3.88821
3.88946
3.89648
3.89567
3.8741
3.8781
3.87136
3.87611
3.8705
3.87262
3.87462
3.8733
3.87276
3.87024
3.87107
3.87236
3.868
3.87314
3.87346
3.86396
3.86394
3.87179
3.87161
3.86755
3.85122
3.85241
3.85517
3.85868
3.85845
3.8564
3.85026
3.86157
3.84665
3.84352
3.846
3.85504
3.85746
3.85729
3.8551
3.85066
3.83905
3.84405
3.86144
3.85242
3.86194
3.84434
3.84982
3.8582
3.85751
3.85317
3.86967
3.86305
3.86287
3.89235
3.8895
3.88845
3.88464
3.8914
3.89385
3.88386
3.87952
3.88668
3.88649
3.87934
3.87955
3.88733
3.88497
3.88486
3.88372
3.90026
3.90114
3.90412
3.90414
3.91103
3.90309
3.90783
3.90712
3.89999
3.89663
3.90478
3.90447
3.89807
3.90023
3.90165
3.88886
3.88546
3.8865
3.88667
3.88614
3.88952
3.88887
3.88224
3.88214
3.88679
3.88521
3.88136
3.88442
3.8811
3.88363
3.89079
3.88453
3.88472
3.88829
3.83817
3.84166
3.829
3.82216
3.817
3.81935
3.8475
3.82691
3.81596
3.83803
3.82515
3.83722
3.83682
3.83206
3.8347
3.90213
3.90162
3.89751
3.89675
3.90337
3.90177
3.90342
3.90364
3.89843
3.89525
3.89702
3.90283
3.89008
3.906
3.90184
3.93424
3.92961
3.93157
3.93474
3.9289
3.92999
3.93125
3.93299
3.93607
3.93442
3.93393
3.93249
3.92859
3.93492
3.92648
3.93414
3.92788
3.93526
3.93608
3.92656
3.92492
3.9232
3.92767
3.92669
3.91976
3.92552
3.92084
3.91997
3.92403
3.92313
3.9202
3.92362
3.91765
3.92331
3.91906
3.92029
3.89285
3.89526
3.8934
3.89858
3.88987
3.889
3.88881
3.89089
3.89267
3.89857
3.89529
3.89017
3.89294
3.91925
3.91871
3.92324
3.92492
3.9131
3.92202
3.92477
3.92916
3.92345
3.9191
3.91735
3.92457
3.92421
3.91633
3.91955
3.90717
3.90187
3.90308
3.90592
3.90334
3.91037
3.90142
3.91273
3.90753
3.90534
3.90834
3.9036
3.91115
3.91169
3.90524
3.92836
3.92692
3.92651
3.92399
3.92272
3.9333
3.92717
3.92554
3.91044
3.90658
3.90304
3.90442
3.90778
3.90608
3.90805
3.90872
3.90232
3.90137
3.903
3.90484
3.90068
3.90218
3.90596
3.93411
3.93143
3.9308
3.92956
3.92721
3.92921
3.93133
3.92893
3.93092
3.93153
3.92853
3.9291
3.92022
3.91168
3.91828
3.91744
3.91646
3.92081
3.92434
3.92606
3.92543
3.92379
3.92046
3.91714
3.9192
3.92208
3.92819
3.92148
3.91791
3.92058
3.92687
3.9253
3.92694
3.92297
3.84248
3.84032
3.83314
3.84127
3.84649
3.82989
3.82837
3.83884
3.83539
3.83314
3.8387
3.83624
3.82548
3.83075
3.91871
3.91829
3.92179
3.91707
3.91771
3.91961
3.92712
3.91921
3.91717
3.91406
3.91694
3.92084
3.92037
3.91758
3.92047
3.91715
3.91641
3.9196
3.92184
3.92114
3.92982
3.9298
3.9266
3.92831
3.92809
3.92737
3.91938
3.92816
3.92578
3.92987
3.93321
3.92543
3.92622
3.93018
3.92485
3.9298
3.9261
3.92624
3.83874
3.84686
3.84201
3.83631
3.83271
3.83785
3.85024
3.84534
3.83065
3.84179
3.84244
3.81833
3.82301
3.8439
3.83634
3.87642
3.87389
3.87507
3.87024
3.8802
3.88549
3.87868
3.8747
3.8684
3.86693
3.87931
3.87628
3.87725
3.87836
3.88347
3.88839
3.87761
3.87751
3.88815
3.88782
3.88319
3.87823
3.87957
3.88398
3.87895
3.88429
3.88743
3.88434
3.88487
3.88431
3.88164
3.88088
3.90381
3.90313
3.90516
3.90117
3.90273
3.90429
3.90376
3.90298
3.90701
3.90411
3.90877
3.90381
3.90738
3.90243
3.90168
3.90586
3.9062
3.9052
3.90717
3.89911
3.89705
3.89959
3.9012
3.9001
3.89622
3.92263
3.92722
3.92183
3.91802
3.91995
3.91981
3.91585
3.91829
3.91564
3.91631
3.92172
3.92085
3.91926
3.92228
3.9143
3.9231
3.92288
3.92304
3.92499
3.90704
3.91117
3.9073
3.90748
3.91668
3.91379
3.91226
3.91694
3.91622
3.91747
3.91632
3.92089
3.91976
3.91765
3.91548
3.91573
3.91822
3.91516
3.91128
3.91341
3.87209
3.88062
3.8807
3.87973
3.89399
3.88792
3.87942
3.87181
3.87481
3.88786
3.88617
3.88871
3.89334
3.88592
3.88838
3.89436
3.88467
3.88493
3.92318
3.9225
3.91785
3.91792
3.92436
3.92474
3.92199
3.92417
3.92194
3.92064
3.91645
3.91908
3.92182
3.92052
3.92072
3.92417
3.92426
3.92306
3.9254
3.93427
3.93407
3.92451
3.92529
3.92678
3.92496
3.92743
3.92564
3.92989
3.93267
3.92873
3.9231
3.92821
3.92528
3.92544
3.92154
3.92263
3.92357
3.92202
3.91812
3.92632
3.92012
3.92536
3.92469
3.92257
3.92025
3.92274
3.91894
3.92281
3.92559
3.92752
3.91958
3.92411
3.93221
3.92893
3.92652
3.91714
3.9137
3.91065
3.92115
3.9195
3.92319
3.91747
3.91283
3.91505
3.91335
3.91743
3.92109
3.92649
3.91053
3.9203
3.91798
3.92044
3.91746
3.92766
3.92351
3.9191
3.92
3.89248
3.89648
3.89162
3.8904
3.89608
3.89514
3.89425
3.89549
3.89671
3.89369
3.89609
3.89539
3.89471
3.89257
3.89468
3.89335
3.88999
3.89608
3.89548
3.88899
3.89707
3.88605
3.88364
3.91862
3.91613
3.91665
3.91986
3.91922
3.92168
3.92016
3.91536
3.90028
3.89755
3.89528
3.89589
3.89155
3.89796
3.89729
3.89188
3.8957
3.89497
3.89425
3.89999
3.89893
3.8945
3.89256
3.89823
3.90404
3.90269
3.89689
3.89576
3.89748
3.89684
3.89872
3.89732
3.90105
3.89848
3.89941
3.89605
3.89477
3.89749
3.89572
3.90027
3.91435
3.91005
3.91386
3.91123
3.90933
3.91045
3.9081
3.91125
3.90706
3.90809
3.9096
3.91362
3.91203
3.91328
3.91517
3.91068
3.91304
3.8919
3.89211
3.89878
3.89741
3.89341
3.89135
3.89819
3.89396
3.89098
3.89104
3.88342
3.89225
3.88917
3.89025
3.89495
3.89595
3.89423
3.89389
3.89852
3.89757
3.89968
3.90119
3.90296
3.90347
3.90823
3.90823
3.90439
3.90828
3.90659
3.90598
3.90542
3.90236
3.90976
3.9119
3.90337
3.90859
3.9136
3.90864
3.86208
3.87249
3.85687
3.86425
3.87299
3.84821
3.86654
3.86038
3.86523
3.87019
3.86665
3.86435
3.86519
3.8579
3.86196
3.85951
3.87111
3.87111
3.86819
3.86565
3.85446
3.85514
3.85719
3.87559
3.87981
3.88232
3.87652
3.88453
3.88419
3.88271
3.88492
3.87873
3.88341
3.87714
3.79956
3.80183
3.81362
3.8113
3.80089
3.81284
3.79194
3.79534
3.81918
3.80593
3.79879
3.88531
3.88751
3.91268
3.91626
3.90412
3.9071
3.89178
3.89131
3.90851
3.90184
3.89762
3.90066
3.91291
3.89676
3.90902
3.90809
3.91167
3.90105
3.71778
3.72318
3.74258
3.75629
3.75899
3.77709
3.78062
3.78078
3.75103
3.75287
3.93915
3.93543
3.86054
3.85187
3.85489
3.84851
3.84224
3.93853
3.93528
3.92706
3.923
3.92436
3.92329
3.94702
3.9462
3.94623
3.94713
3.84553
3.9023
3.9007
3.90746
3.80388
3.80274
3.79896
3.89032
3.89673
3.89529
3.88486
3.88906
3.92912
3.93072
3.92665
3.81394
3.80748
3.8121
3.90693
3.91094
3.86418
3.83743
3.84032
3.83658
3.85982
3.85252
3.85807
3.91521
3.915
3.91896
3.91241
3.88942
3.88681
3.88395
3.90282
3.90568
3.90313
3.83918
3.83305
3.83178
3.90397
3.90482
3.89701
3.89641
3.85239
3.84701
3.85544
3.84508
3.86002
3.85757
3.88164
3.8861
3.88607
3.90011
3.90853
3.90222
3.90777
3.87478
3.86891
3.87684
3.89217
3.89681
3.90384
3.90521
3.9004
3.89177
3.88345
3.89018
3.89328
3.8668
3.86175
3.85397
3.86662
3.86696
3.89006
3.88693
3.88197
3.87444
3.88007
3.87624
3.89226
3.89265
3.90438
3.91008
3.90502
3.90622
3.90482
3.90092
3.90485
3.90815
3.90469
3.9027
3.90068
3.90087
3.89293
3.88747
3.8857
3.87658
3.88093
3.89612
3.89851
3.90194
3.90786
3.90912
3.89157
3.90072
3.8989
3.89042
3.89355
3.88954
3.8893
3.91577
3.91026
3.90566
3.9041
3.88742
3.88614
3.90367
3.90216
3.91076
3.9085
3.90619
3.89819
3.89411
3.89146
3.91493
3.9128
3.91684
3.91088
3.9102
3.89967
3.89422
3.89965
3.89442
3.90552
3.90158
3.89944
3.90933
3.90908
3.90342
3.90698
3.89728
3.89967
3.90821
3.90738
3.90557
3.90396
3.91101
3.90183
3.91388
3.91087
3.90806
3.91778
3.91461
3.92161
3.92633
3.92599
3.91784
3.91833
3.90762
3.90685
3.92039
3.91635
3.91284
3.92549
3.92127
3.91913
3.91408
3.91511
3.91671
3.91447
3.91722
3.91229
3.91319
3.91147
3.9211
3.92261
3.93172
3.92336
3.92222
3.91732
3.91864
3.91699
3.91896
3.92328
3.92156
3.92084
3.91682
3.91373
3.9232
3.91775
3.93036
3.92875
3.93528
3.92957
3.92977
3.934
3.92699
3.93462
3.92996
3.93286
3.93277
3.92688
3.92619
3.93342
3.92999
3.9281
3.93278
3.92789
3.92438
3.93142
3.93037
3.92821
3.93546
3.93318
3.9315
3.93196
3.92398
3.93255
3.93603
3.93053
3.92562
3.92591
3.92578
3.93274
3.93651
3.92994
3.92895
3.92684
3.92463
3.92238
3.92494
3.92953
3.93576
3.93364
3.93164
3.93394
3.92916
3.92758
3.93052
3.93021
3.92508
3.92507
3.92846
3.92574
3.92564
3.92516
3.93001
3.93339
3.93011
3.93596
3.93327
3.92701
3.92948
3.92224
3.93359
3.93059
3.92375
3.93105
3.92847
3.9293
3.92702
3.92712
3.92892
3.92167
3.93021
3.92849
3.92178
3.92358
3.92329
3.92459
3.9198
3.93039
3.92726
3.92395
3.92811
3.92571
3.92441
3.93115
3.93511
3.93093
3.9304
3.92881
3.92849
3.92411
3.92645
3.9315
3.92775
3.93056
3.9346
3.92845
3.92923
3.92762
3.93059
3.92637
3.92746
3.93058
3.92748
3.9251
3.9308
3.93024
3.93149
3.92771
3.92718
3.93581
3.92829
3.92874
3.92967
3.93095
3.92856
3.92326
3.9192
3.92541
3.92154
3.92205
3.92899
3.92355
3.93457
3.93026
3.91744
3.92132
3.9251
3.92536
3.91759
3.92215
3.91502
3.91594
3.91023
3.91474
3.91329
3.91891
3.9155
3.92062
3.91801
3.92386
3.92932
3.92415
3.91853
3.91807
3.91963
3.92059
3.91564
3.91423
3.92314
3.91804
3.91831
3.91981
3.91641
3.91397
3.91884
3.91611
3.91558
3.91055
3.91383
3.92023
3.92466
3.92124
3.91651
3.92528
3.91925
3.92071
3.92208
3.92112
3.9285
3.92137
3.92651
3.92544
3.92259
3.91838
3.9113
3.91994
3.91551
3.91513
3.92562
3.91692
3.91449
3.91747
3.9134
3.91449
3.91718
3.91192
3.91864
3.92399
3.91908
3.92465
3.92551
3.92484
3.92032
3.92437
3.91952
3.93111
3.92421
3.91976
3.92103
3.92044
3.92646
3.92145
3.92313
3.92789
3.93043
3.92588
3.92384
3.9256
3.91665
3.91822
3.924
3.9189
3.92404
3.91594
3.92176
3.91948
3.91938
3.91538
3.91993
3.9195
3.92722
3.92959
3.93183
3.91955
3.92635
3.9242
3.92103
3.92172
3.92269
3.92799
3.92216
3.92479
3.92132
3.92372
3.92234
3.91914
3.91543
3.92292
3.9198
3.91869
3.90966
3.90726
3.91021
3.90892
3.91694
3.91516
3.9114
3.90767
3.90978
3.91238
3.91457
3.91293
3.91356
3.90801
3.91406
3.90832
3.91342
3.91101
3.90809
3.90639
3.91103
3.91435
3.91816
3.91406
3.91748
3.91318
3.91189
3.91892
3.91443
3.91621
3.91606
3.91687
3.91316
3.91333
3.91805
3.9085
3.91535
3.91553
3.91116
3.9095
3.91447
3.92075
3.91819
3.91589
3.91612
3.91567
3.92297
3.91766
3.91617
3.91839
3.92206
3.92447
3.92256
3.92264
3.91992
3.92751
3.92665
3.92523
3.92549
3.92076
3.91738
3.92585
3.92069
3.92153
3.90782
3.90632
3.9171
3.91536
3.92307
3.91705
3.9127
3.91368
3.91724
3.91923
3.91829
3.91901
3.91759
3.9186
3.90733
3.90517
3.90169
3.90896
3.90801
3.90546
3.90588
3.90676
3.91353
3.91067
3.91199
3.91016
3.90881
3.91836
3.91505
3.90646
3.907
3.90981
3.91091
3.91523
3.91169
3.91877
3.91612
3.92159
3.91611
3.91726
3.91578
3.91591
3.91538
3.91887
3.91296
3.91375
3.91286
3.91478
3.91777
3.91469
3.91791
3.91779
3.91899
3.92263
3.91914
3.9164
3.91415
3.92263
3.91935
3.9095
3.90148
3.91199
3.90806
3.90836
3.91169
3.91385
3.91183
3.91637
3.91417
3.91395
3.91342
3.91119
3.91603
3.91924
3.91311
3.91069
3.90752
3.9049
3.8977
3.90197
3.89252
3.90205
3.89921
3.90485
3.90207
3.90055
3.90607
3.89658
3.90193
3.90057
3.90738
3.89893
3.9108
3.90522
3.90468
3.90494
3.90848
3.90765
3.89569
3.88705
3.88952
3.89076
3.90018
3.89753
3.89299
3.88947
3.90016
3.89966
3.89514
3.89751
3.89778
3.90148
3.90945
3.9078
3.90547
3.9045
3.90491
3.89513
3.89615
3.89799
3.89621
3.90052
3.90576
3.90335
3.9051
3.90022
3.9073
3.90299
3.90322
3.90595
3.90928
3.90411
3.9028
3.90594
3.90998
3.90932
3.90973
3.90702
3.91066
3.91286
3.90763
3.90578
3.91353
3.90853
3.90801
3.9018
3.90334
3.91107
3.90407
3.90541
3.90771
3.91153
3.90866
3.91758
3.91757
3.91314
3.89444
3.9045
3.89473
3.89653
3.90358
3.90079
3.90512
3.89975
3.90444
3.90139
3.8917
3.88925
3.88902
3.89531
3.89235
3.89126
3.88977
3.88743
3.89168
3.88954
3.89212
3.89064
3.88163
3.91148
3.90515
3.8999
3.8948
3.89549
3.89723
3.89975
3.91247
3.90509
3.90418
3.90815
3.9118
3.91115
3.91304
3.90379
3.90446
3.90252
3.90787
3.91016
3.90828
3.90668
3.90567
3.91412
3.91229
3.91307
3.91458
3.91431
3.91877
3.91418
3.91186
3.91973
3.89698
3.89611
3.89466
3.88965
3.88788
3.89405
3.89038
3.88772
3.88796
3.89226
3.89464
3.88889
3.89577
3.89587
3.89239
3.89248
3.89217
3.89942
3.89848
3.89658
3.91039
3.90663
3.90508
3.9134
3.91067
3.91086
3.91738
3.91241
3.9125
3.91367
3.91152
3.9081
3.90611
3.89929
3.90436
3.90152
3.90289
3.9079
3.9009
3.90421
3.91084
3.90133
3.90202
3.90183
3.90643
3.90577
3.87605
3.88295
3.8803
3.88257
3.88717
3.88111
3.8828
3.87651
3.88358
3.88154
3.88032
3.89309
3.88718
3.88818
3.8861
3.88337
3.88182
3.89448
3.89326
3.89357
3.89044
3.88437
3.8859
3.88678
3.88578
3.90597
3.90326
3.91071
3.90556
3.90765
3.90576
3.90444
3.89183
3.89426
3.88914
3.89365
3.89341
3.88522
3.88067
3.88738
3.88552
3.88319
3.87924
3.88111
3.88859
3.88496
3.88285
3.89792
3.89817
3.89725
3.89125
3.88687
3.88683
3.89123
3.88917
3.88918
3.90005
3.90124
3.89699
3.90497
3.90884
3.90944
3.90584
3.90483
3.90884
3.90843
3.91493
3.91142
3.90966
3.90822
3.91328
3.90819
3.91038
3.89539
3.89466
3.89959
3.89201
3.90345
3.90253
3.9051
3.9033
3.90203
3.89792
3.90658
3.90305
3.90449
3.90212
3.90384
3.90042
3.90239
3.87255
3.86958
3.86902
3.87099
3.87009
3.87612
3.87341
3.87865
3.87378
3.87334
3.8779
3.87604
3.87144
3.88126
3.88
3.88673
3.89058
3.89014
3.88942
3.88337
3.88255
3.88688
3.88363
3.87695
3.87959
3.88399
3.88047
3.87331
3.8812
3.88306
3.89413
3.89448
3.89988
3.89411
3.89755
3.90124
3.90082
3.9013
3.90255
3.90442
3.90174
3.90197
3.90041
3.90805
3.90436
3.90197
3.90332
3.90211
3.90356
3.9004
3.90588
3.9071
3.90103
3.90356
3.89709
3.90258
3.90276
3.90539
3.90443
3.9041
3.9084
3.90689
3.90253
3.90507
3.90682
3.9032
3.90555
3.9061
3.90506
3.90521
3.9052
3.90435
3.90663
3.90238
3.90425
3.90358
3.90197
3.90739
3.9066
3.9053
3.90533
3.89967
3.90319
3.90421
3.90447
3.89936
3.89791
3.90056
3.8956
3.89367
3.8863
3.89477
3.8828
3.88567
3.88557
3.88538
3.87654
3.87665
3.89462
3.89974
3.89294
3.8891
3.89073
3.89339
3.86316
3.86669
3.86818
3.87216
3.87154
3.86985
3.86507
3.8736
3.87021
3.86607
3.8678
3.86879
3.86538
3.86963
3.8711
3.87833
3.87485
3.88456
3.88459
3.88335
3.88435
3.88589
3.89067
3.88949
3.88643
3.88439
3.87945
3.88797
3.88721
3.87969
3.88017
3.87862
3.89196
3.89709
3.89562
3.89583
3.85492
3.8537
3.86366
3.86125
3.86217
3.86881
3.86034
3.86476
3.8617
3.87078
3.86966
3.86605
3.8753
3.87649
3.87543
3.87282
3.84608
3.84859
3.85023
3.84938
3.8505
3.87316
3.871
3.87821
3.86895
3.87036
3.86422
3.87504
3.86887
3.86969
3.89477
3.89202
3.88673
3.88985
3.88193
3.88452
3.87996
3.88182
3.89782
3.89866
3.88986
3.89528
3.89384
3.89029
3.88818
3.90105
3.89743
3.89859
3.90093
3.89809
3.90182
3.90108
3.88686
3.89337
3.89318
3.88973
3.88769
3.88665
3.89137
3.88778
3.89826
3.8944
3.89746
3.89204
3.87164
3.86538
3.87876
3.87586
3.87009
3.8693
3.87271
3.88195
3.8789
3.8786
3.87847
3.88068
3.87999
3.90531
3.90355
3.90852
3.91036
3.90753
3.90865
3.91459
3.9071
3.90392
3.90711
3.87661
3.88023
3.88369
3.87689
3.88143
3.88266
3.88737
3.85022
3.84158
3.84157
3.85175
3.84929
3.8475
3.85091
3.85555
3.86607
3.87057
3.85866
3.85635
3.85434
3.8551
3.86167
3.85982
3.85539
3.86392
3.86595
3.84175
3.84049
3.84328
3.84261
3.84767
3.84478
3.83605
3.84084
3.83291
3.84303
3.84068
3.8385
3.84158
3.85731
3.84945
3.86709
3.86433
3.8632
3.86304
3.86181
3.90231
3.90583
3.90738
3.91475
3.91244
3.90332
3.91155
3.90761
3.90925
3.90962
3.90702
3.90826
3.90699
3.9103
3.90673
3.91033
3.90534
3.90669
3.90832
3.90938
3.90224
3.9078
3.90341
3.91116
3.90335
3.90515
3.90399
3.8341
3.82367
3.82926
3.8265
3.80662
3.82043
3.81138
3.81221
3.91246
3.91098
3.90912
3.911
3.91369
3.90604
3.90791
3.9049
3.9053
3.90702
3.89988
3.90728
3.90287
3.90289
3.89879
3.90539
3.90689
3.90084
3.90019
3.89153
3.89206
3.89549
3.89884
3.89423
3.89102
3.90395
3.90052
3.90293
3.89269
3.87946
3.88282
3.884
3.883
3.87999
3.87592
3.87741
3.89945
3.90443
3.90183
3.90295
3.8994
3.89948
3.91815
3.91787
3.92228
3.9191
3.91541
3.91616
3.9181
3.91754
3.91446
3.8409
3.84298
3.8459
3.84699
3.84596
3.84335
3.86187
3.87157
3.85968
3.85985
3.8777
3.86316
3.86899
3.87793
3.87431
3.87016
3.86485
3.86555
3.86371
3.8631
3.86573
3.84185
3.8436
3.83784
3.80634
3.81174
3.8128
3.82631
3.82753
3.82181
3.81787
3.81859
3.82993
3.83507
3.83423
3.81675
3.81469
3.82791
3.83356
3.83288
3.83198
3.8207
3.82315
3.84374
3.8547
3.84611
3.84493
3.85139
3.84992
3.8552
3.91256
3.91523
3.90917
3.91818
3.90136
3.91094
3.90856
3.90892
3.90239
3.90173
3.90809
3.90927
3.91884
3.91579
3.91764
3.91584
3.9144
3.80419
3.80463
3.80692
3.76927
3.78659
3.79024
3.79665
3.795
3.79735
3.82386
3.81933
3.82554
3.83729
3.82355
3.82023
3.81563
3.84021
3.84002
3.92423
3.92919
3.92619
3.93061
3.92685
3.93366
3.9366
3.9272
3.92517
3.93389
3.9289
3.92843
3.92511
3.92973
3.92944
3.91911
3.92119
3.91549
3.92126
3.92219
3.92255
3.91316
3.91309
3.9187
3.92392
3.9219
3.91556
3.91559
3.91597
3.91856
3.87544
3.87765
3.87853
3.88139
3.86857
3.87994
3.87299
3.86948
3.87187
3.87741
3.87847
3.87336
3.88185
3.88381
3.8969
3.8841
3.89032
3.88853
3.88632
3.88881
3.88829
3.88388
3.88495
3.87879
3.89919
3.89785
3.90591
3.89776
3.90146
3.91044
3.91309
3.90757
3.91851
3.85251
3.86181
3.86537
3.86114
3.89205
3.87924
3.89122
3.8887
3.89305
3.89875
3.90548
3.88213
3.88373
3.87647
3.87136
3.86597
3.87172
3.86192
3.86904
3.8949
3.89766
3.88686
3.88686
3.89719
3.88527
3.88051
3.88948
3.88549
3.89495
3.89394
3.90553
3.90994
3.88896
3.90993
3.89853
3.90115
3.89907
3.77248
3.78078
3.78769
3.77577
3.78409
3.78379
3.76867
3.78647
3.79092
3.77248
3.77635
3.81165
3.82214
3.80095
3.80953
3.80681
3.82207
3.82334
3.82316
3.82492
3.79974
3.79718
3.79682
3.91733
3.91778
3.9191
3.90039
3.90577
3.90039
3.89914
3.89778
3.90014
3.89817
3.9049
3.90098
3.90207
3.82176
3.83613
3.84299
3.84032
3.83193
3.8638
3.85517
3.84995
3.84966
3.85751
3.84403
3.8439
3.84988
3.84827
3.95009
3.94674
3.95188
3.94722
3.95319
3.945
3.94393
3.93968
3.93911
3.92763
3.9376
3.93076
3.93542
3.9389
3.93839
3.93442
3.93598
3.93005
3.92895
3.92723
3.92284
3.92994
3.9258
3.92524
3.91008
3.91337
3.91965
3.91221
3.91384
3.90868
3.9152
3.91922
3.91691
3.91396
3.91895
3.9175
3.91704
3.91631
3.91913
3.92224
3.91335
3.90941
3.91406
3.90393
3.92105
3.91727
3.917
3.91868
3.92217
3.92175
3.91962
3.91756
3.91483
3.92194
3.92198
3.92377
3.92139
3.92031
3.92266
3.9171
3.93168
3.92882
3.92295
3.93348
3.93317
3.79126
3.80399
3.80309
3.80745
3.83518
3.82679
3.83602
3.83522
3.84411
3.85167
3.84447
3.84713
3.85305
3.85349
3.86164
3.86714
3.86816
3.85886
3.8513
3.83805
3.83518
3.82926
3.84299
3.84859
3.87876
3.87821
3.86545
3.86663
3.86516
3.88741
3.89367
3.88607
3.86703
3.87583
3.92568
3.91273
3.92614
3.92856
3.92512
3.9211
3.91433
3.92943
3.92364
3.94297
3.94657
3.94561
3.94053
3.93609
3.94128
3.94089
3.94369
3.93078
3.93103
3.94506
3.93448
3.93413
3.93534
3.93979
3.93897
3.72076
3.72574
3.72227
3.72379
3.72915
3.74035
3.73857
3.74128
3.74863
3.74356
3.75011
3.73516
3.74229
3.75186
3.73912
3.74779
3.74199
3.74148
3.74533
3.79074
3.79476
3.81977
3.78218
3.78806
3.74058
3.73648
3.738
3.74837
3.72753
3.7716
3.78268
3.79157
3.77427
3.76443
3.75663
3.77206
3.77904
3.76969
3.77405
3.78783
3.79327
3.78457
3.78016
3.78552
3.77886
3.72824
3.71814
3.71788
3.71942
3.87089
3.87852
3.85885
3.87131
3.86286
3.85533
3.84976
3.84872
3.73966
3.73664
3.73493
3.81587
3.81169
3.81432
3.80814
3.79314
3.79841
3.79207
3.79232
3.79641
3.81104
3.79751
3.80906
3.80736
3.79799
3.78939
3.80777
3.80327
3.80189
3.79178
3.79505
3.78264
3.76394
3.76089
3.75276
3.75671
3.75695
3.75186
3.76953
3.78311
3.75275
3.75329
3.78597
3.77253
3.77914
3.7856
3.77413
3.79464
3.78687
3.78554
3.77158
3.77294
3.76851
3.75506
3.76664
3.75797
3.76015
3.75436
3.76091
3.76038
3.94071
3.93625
3.94345
3.90904
3.90592
3.91311
3.88932
3.88059
3.87778
3.88717
3.84533
3.85063
3.85517
3.83595
3.83674
3.8371
3.85366
3.85426
3.82972
3.82659
3.81868
3.82257
3.81669
3.83598
3.82894
3.83557
3.8411
3.82523
3.82137
3.81008
3.82165
3.81993
3.81088
3.8089
3.8153
3.81704
3.92198
3.9256
3.92933
3.92836
3.9242
3.91711
3.92362
3.92194
3.92099
3.92451
3.91871
3.93813
3.94121
3.94337
3.93849
3.8801
3.88879
3.89163
3.89372
3.88656
3.8888
3.88201
3.89591
3.9029
3.89707
3.89984
3.901
3.89232
3.89025
3.91355
3.91382
3.90793
3.91561
3.89386
3.88372
3.88575
3.88508
3.89274
3.88365
3.9125
3.91738
3.9147
3.9214
3.91207
3.91724
3.90984
3.90904
3.90695
3.91217
3.91144
3.91549
3.90543
3.93502
3.93975
3.93156
3.93682
3.93116
3.93013
3.93563
3.93399
3.93556
3.93222
3.83857
3.85072
3.85014
3.83845
3.83263
3.83487
3.83902
3.85236
3.85018
3.84857
3.85146
3.8502
3.79519
3.80202
3.80079
3.80157
3.80465
3.81132
3.81733
3.81566
3.80745
3.80267
3.82024
3.83769
3.82706
3.82571
3.824
3.83892
3.83054
3.85436
3.85892
3.86195
3.86559
3.85208
3.85395
3.85019
3.86312
3.85375
3.85297
3.86847
3.86189
3.92584
3.92427
3.92723
3.92033
3.92298
3.91557
3.923
3.91299
3.91402
3.91263
3.90328
3.90113
3.90359
3.90314
3.90176
3.90415
3.90234
3.90017
3.90474
3.89794
3.90398
3.90209
3.90257
3.90353
3.90368
3.90341
3.9022
3.86155
3.84998
3.85829
3.85956
3.86798
3.86538
3.85696
3.85131
3.89084
3.8877
3.88244
3.88328
3.89289
3.88563
3.88993
3.89027
3.90319
3.90974
3.90563
3.90177
3.90481
3.90467
3.90238
3.90288
3.90475
3.90452
3.90776
3.90964
3.91279
3.91373
3.91646
3.91095
3.91362
3.9133
3.91432
3.90796
3.90214
3.90956
3.90553
3.90398
3.90392
3.90333
3.89928
3.90459
3.90105
3.90275
3.90382
3.88837
3.88589
3.8866
3.88129
3.87884
3.88414
3.89073
3.88377
3.88816
3.88657
3.90129
3.89696
3.89923
3.90332
3.89572
3.8962
3.89928
3.89613
3.89731
3.89622
3.8985
3.89294
3.89864
3.89432
3.89076
3.89538
3.89372
3.89235
3.89671
3.89445
3.89814
3.90195
3.89638
3.89375
3.89451
3.89766
3.8955
3.89418
3.89773
3.89778
3.89632
3.89087
3.90125
3.86694
3.86527
3.86374
3.86999
3.87315
3.86774
3.85894
3.86682
3.87287
3.87243
3.86703
3.86366
3.8683
3.85062
3.86102
3.85346
3.86048
3.85811
3.86562
3.86577
3.86557
3.86699
3.88739
3.88514
3.88305
3.88554
3.88802
3.89224
3.88064
3.88588
3.88383
3.8868
3.90534
3.90443
3.90407
3.89874
3.90973
3.90323
3.9062
3.89954
3.90559
3.9024
3.9077
3.90109
3.9021
3.90013
3.90203
3.90178
3.90391
3.90723
3.9005
3.90443
3.90214
3.90546
3.9037
3.90401
3.90513
3.8617
3.86655
3.86172
3.86688
3.86473
3.86671
3.90687
3.90176
3.89725
3.89626
3.89629
3.89588
3.89967
3.89706
3.90673
3.90406
3.90102
3.90346
3.89689
3.90509
3.90139
3.92042
3.91499
3.91439
3.90972
3.91478
3.91037
3.90076
3.90849
3.90327
3.90219
3.90286
3.89906
3.90328
3.90325
3.9065
3.90788
3.9057
3.90581
3.9085
3.90358
3.91061
3.91479
3.90857
3.90723
3.91005
3.9173
3.91522
3.91459
3.91455
3.91816
3.90462
3.9064
3.90854
3.90371
3.90741
3.91072
3.89522
3.88492
3.88587
3.88794
3.8843
3.8827
3.89147
3.89116
3.8974
3.8892
3.89717
3.89936
3.89739
3.89865
3.91496
3.91871
3.91836
3.91488
3.90968
3.91536
3.91317
3.91719
3.91756
3.90761
3.90876
3.91208
3.91085
3.90849
3.91029
3.90839
3.91145
3.90982
3.91132
3.90916
3.90458
3.89154
3.90233
3.88963
3.89701
3.89288
3.89142
3.88722
3.89954
3.89753
3.90332
3.89786
3.90357
3.89903
3.90116
3.89873
3.9052
3.90338
3.90335
3.90656
3.89294
3.89886
3.89538
3.8934
3.89038
3.90125
3.89839
3.89588
3.89822
3.90659
3.90348
3.90128
3.902
3.90231
3.90395
3.90076
3.90067
3.89815
3.90009
3.90893
3.90778
3.91114
3.90746
3.9047
3.9071
3.90923
3.90818
3.91057
3.92588
3.92195
3.92105
3.92271
3.92055
3.92213
3.92435
3.91646
3.91558
3.92053
3.92127
3.92174
3.92512
3.92407
3.92879
3.9233
3.92565
3.92449
3.92225
3.92484
3.92037
3.90764
3.91013
3.91501
3.91441
3.91642
3.91988
3.91552
3.91674
3.92031
3.91862
3.92025
3.91515
3.91866
3.91777
3.91461
3.91589
3.91806
3.91801
3.92599
3.9218
3.91627
3.91482
3.92235
3.90858
3.91192
3.91328
3.91279
3.91117
3.92816
3.92573
3.93081
3.9292
3.92489
3.92457
3.92523
3.92277
3.92555
3.92505
3.92194
3.92978
3.93037
3.93048
3.93037
3.93141
3.92838
3.91639
3.91716
3.91477
3.9175
3.91314
3.91367
3.9134
3.91981
3.91729
3.9249
3.92428
3.92133
3.91595
3.92686
3.9226
3.92111
3.91886
3.92395
3.92541
3.92237
3.91787
3.92031
3.92672
3.92773
3.92932
3.9253
3.92111
3.92038
3.9072
3.91556
3.91179
3.91153
3.90789
3.90535
3.90273
3.91273
3.91469
3.90968
3.91102
3.91897
3.91094
3.91342
3.91762
3.91525
3.91498
3.9159
3.91447
3.91551
3.9116
3.91212
3.90788
3.9182
3.91596
3.92423
3.91911
3.92042
3.92065
3.91915
3.91566
3.92253
3.91865
3.92109
3.92993
3.93023
3.9271
3.9228
3.92636
3.92754
3.93195
3.92657
3.92894
3.93237
3.93112
3.93099
3.93356
3.92488
3.93004
3.92778
3.93236
3.92533
3.9262
3.93188
3.93255
3.92254
3.92471
3.92452
3.9297
3.9327
3.92344
3.92621
3.92278
3.92559
3.92816
3.93419
3.92518
3.92545
3.92702
3.92149
3.93943
3.93152
3.93208
3.93165
3.93364
3.93168
3.93072
3.92443
3.92134
3.92809
3.93206
3.93126
3.92765
3.93037
3.93167
3.93258
3.93142
3.91626
3.92252
3.91898
3.91752
3.92624
3.91695
3.92088
3.92208
3.9211
3.92204
3.89594
3.89891
3.89725
3.89256
3.89662
3.89327
3.89077
3.89959
3.89484
3.89306
3.91067
3.91906
3.91177
3.91258
3.90859
3.91425
3.91256
3.90795
3.91887
3.91163
3.91429
3.91148
3.91412
3.88382
3.88275
3.8826
3.87639
3.87532
3.87258
3.87172
3.88101
3.87864
3.88195
3.88236
3.87446
3.87588
3.84989
3.85917
3.8484
3.84701
3.8579
3.85804
3.85293
3.8519
3.84933
3.85858
3.85973
3.90047
3.90501
3.90261
3.89898
3.90084
3.90058
3.89503
3.90479
3.89636
3.90369
3.90162
3.9031
3.90436
3.90078
3.90099
3.90123
3.87873
3.88014
3.8723
3.87652
3.8678
3.86962
3.89786
3.89411
3.89765
3.89455
3.90123
3.9044
3.90037
3.90024
3.90036
3.90101
3.90253
3.89834
3.90776
3.91074
3.90623
3.90497
3.90324
3.90152
3.90255
3.90479
3.90041
3.89809
3.90541
3.90693
3.92986
3.93088
3.93485
3.93561
3.92972
3.93528
3.92754
3.93478
3.9256
3.9232
3.93087
3.92661
3.93134
3.9311
3.92379
3.93239
3.93177
3.91936
3.92243
3.9263
3.92684
3.92831
3.92242
3.9241
3.92548
3.92069
3.91579
3.92603
3.91967
3.9237
3.92078
3.92309
3.93144
3.9271
3.93049
3.92895
3.93205
3.93165
3.93055
3.93246
3.91977
3.9189
3.91635
3.92142
3.91841
3.91067
3.91289
3.91367
3.91588
3.9143
3.91519
3.91237
3.91517
3.91687
3.91269
3.91292
3.9247
3.91557
3.91758
3.91375
3.91514
3.91955
3.92139
3.91582
3.91931
3.91668
3.91888
3.91879
3.92061
3.91049
3.90834
3.91272
3.91203
3.91671
3.91107
3.91875
3.90973
3.91452
3.91426
3.9129
3.91602
3.92382
3.92207
3.91645
3.92122
3.91776
3.91841
3.9206
3.92234
3.92319
3.92404
3.92272
3.92108
3.92535
3.92535
3.91331
3.91498
3.91046
3.90975
3.9135
3.9108
3.92002
3.91725
3.9212
3.91235
3.92033
3.91948
3.91655
3.92198
3.92344
3.91552
3.91352
3.90973
3.91319
3.9088
3.91307
3.9209
3.91816
3.91669
3.91587
3.91727
3.91751
3.9133
3.91603
3.89523
3.90009
3.89339
3.89856
3.90424
3.89841
3.8975
3.90497
3.87691
3.88872
3.88921
3.88738
3.88311
3.87794
3.88309
3.88064
3.88545
3.88336
3.88443
3.8827
3.88518
3.88684
3.87588
3.91751
3.91941
3.91771
3.92197
3.9184
3.91745
3.91785
3.91981
3.9163
3.91948