/*--------------------------------*- C++ -*----------------------------------*\
| =========                 |                                                 |
| \\      /  F ield         | OpenFOAM: The Open Source CFD Toolbox           |
|  \\    /   O peration     | Version:  v1612+                                |
|   \\  /    A nd           | Web:      www.OpenFOAM.com                      |
|    \\/     M anipulation  |                                                 |
\*---------------------------------------------------------------------------*/
FoamFile
{
    version     2.0;
    format      ascii;
    class       volScalarField;
    location    "100";
    object      p;
}
// * * * * * * * * * * * * * * * * * * * * * * * * * * * * * * * * * * * * * //

dimensions      [0 2 -2 0 0 0 0];

internalField   nonuniform List<scalar> 
16880
(
3.56015
3.60309
3.61143
3.60705
3.5773
3.58027
3.56118
3.56073
3.56225
3.56924
3.5632
3.56666
3.55508
3.55759
3.55964
3.55708
3.56431
3.55593
3.56075
3.55981
3.55973
3.55982
3.55784
3.55732
3.5563
3.55975
3.56044
3.5461
3.54963
3.55019
3.56025
3.55387
3.5516
3.55081
3.54978
3.55544
3.5515
3.55317
3.60239
3.60182
3.59863
3.59322
3.60714
3.60537
3.60606
3.59827
3.59711
3.59676
3.60534
3.6028
3.60409
3.59884
3.59995
3.60227
3.6045
3.55245
3.55085
3.55652
3.55398
3.55726
3.55149
3.55342
3.55271
3.55538
3.55419
3.55272
3.55056
3.55688
3.55172
3.55046
3.55151
3.61506
3.61287
3.61556
3.61686
3.61179
3.61837
3.60856
3.61203
3.61402
3.61094
3.6115
3.54364
3.55074
3.55189
3.54663
3.55637
3.55289
3.55198
3.55003
3.54914
3.5541
3.55478
3.55733
3.55625
3.55283
3.55192
3.55212
3.55342
3.55092
3.55485
3.55957
3.60763
3.60418
3.60695
3.60574
3.61051
3.61027
3.60677
3.60343
3.60115
3.60458
3.60807
3.60673
3.60257
3.60697
3.59939
3.5987
3.60492
3.60356
3.60042
3.59913
3.6004
3.60843
3.60712
3.60601
3.60266
3.60128
3.60715
3.60499
3.60452
3.60105
3.60201
3.60062
3.60896
3.59991
3.6032
3.60589
3.60568
3.6032
3.60446
3.60272
3.60153
3.60686
3.57385
3.57384
3.57262
3.56613
3.57009
3.57605
3.57239
3.56969
3.57408
3.57513
3.57236
3.5702
3.57063
3.57189
3.56869
3.57875
3.58828
3.58546
3.5817
3.58638
3.58429
3.59002
3.57984
3.58965
3.58183
3.5797
3.58038
3.5796
3.57778
3.57532
3.58121
3.58346
3.58286
3.57975
3.60826
3.61203
3.61038
3.61033
3.61007
3.60966
3.61051
3.61103
3.61367
3.61008
3.60435
3.61226
3.58048
3.58688
3.58199
3.57735
3.58172
3.58187
3.58287
3.58048
3.57951
3.57498
3.57582
3.57881
3.57848
3.58548
3.59176
3.59151
3.58922
3.59613
3.59198
3.59249
3.59773
3.58604
3.58839
3.58994
3.59496
3.59505
3.59124
3.59438
3.5904
3.59406
3.59094
3.59304
3.59864
3.59634
3.5937
3.59567
3.59779
3.59533
3.59865
3.59478
3.5977
3.59351
3.59208
3.58917
3.59092
3.59453
3.59376
3.59536
3.6012
3.58914
3.60042
3.60027
3.59406
3.61047
3.61319
3.60698
3.61077
3.60382
3.60214
3.60981
3.60879
3.60196
3.60651
3.61004
3.60752
3.60788
3.6052
3.60523
3.61223
3.60565
3.60461
3.60699
3.56079
3.56265
3.56068
3.55867
3.56417
3.56178
3.56177
3.55696
3.56255
3.56145
3.56454
3.56399
3.55436
3.55848
3.55709
3.56362
3.56477
3.56371
3.55776
3.55907
3.56433
3.56184
3.55493
3.55962
3.5643
3.5651
3.56986
3.56056
3.57225
3.56172
3.56224
3.56801
3.56474
3.57115
3.56742
3.57039
3.56922
3.56577
3.56443
3.56614
3.56538
3.56561
3.56121
3.5634
3.56972
3.56457
3.56538
3.55844
3.60514
3.60549
3.60561
3.60667
3.60314
3.60714
3.60652
3.60357
3.60892
3.59954
3.60617
3.59714
3.60073
3.59818
3.60428
3.60243
3.56755
3.56304
3.56867
3.56508
3.56246
3.56104
3.56368
3.57117
3.56118
3.5646
3.56098
3.56488
3.56877
3.56759
3.5691
3.56471
3.56701
3.5659
3.56656
3.56816
3.56035
3.59068
3.59482
3.59284
3.5948
3.59461
3.59265
3.58398
3.5926
3.59333
3.59471
3.59161
3.59302
3.59018
3.59171
3.58483
3.59167
3.57943
3.57976
3.57801
3.58099
3.5773
3.58376
3.57722
3.5776
3.57854
3.57633
3.57224
3.57787
3.57785
3.58183
3.57323
3.57958
3.57591
3.57964
3.57925
3.58518
3.57517
3.57994
3.58212
3.57832
3.57944
3.58492
3.59067
3.5859
3.58209
3.58393
3.5826
3.57972
3.57382
3.57377
3.58536
3.58394
3.58336
3.58948
3.58781
3.58546
3.58383
3.58576
3.58681
3.5803
3.58315
3.5836
3.58488
3.58424
3.58273
3.58543
3.58399
3.58149
3.58098
3.57359
3.58068
3.57403
3.57702
3.57876
3.58038
3.57754
3.58121
3.5806
3.57623
3.57821
3.57672
3.57337
3.57761
3.57502
3.58253
3.57745
3.55219
3.56384
3.55543
3.56425
3.56345
3.56408
3.56495
3.558
3.5571
3.56531
3.56345
3.56549
3.55479
3.56313
3.56041
3.55886
3.55913
3.55164
3.55105
3.55349
3.55488
3.55617
3.54733
3.55068
3.55279
3.55136
3.55083
3.54826
3.54452
3.5514
3.54908
3.55169
3.55351
3.55557
3.54916
3.54857
3.55117
3.55172
3.54379
3.55158
3.54815
3.5547
3.55395
3.55461
3.54663
3.55032
3.55547
3.54749
3.55003
3.54978
3.54219
3.55288
3.54935
3.5534
3.55092
3.55062
3.5528
3.55254
3.55459
3.5496
3.54975
3.5566
3.56021
3.55625
3.5501
3.55288
3.55355
3.55489
3.55414
3.55461
3.5568
3.55522
3.55254
3.56207
3.5619
3.56463
3.56375
3.55817
3.56336
3.5612
3.56304
3.55719
3.55965
3.55635
3.56248
3.56166
3.55928
3.56169
3.56524
3.5611
3.55676
3.55704
3.56076
3.57398
3.57183
3.56556
3.56587
3.55719
3.56981
3.56855
3.56566
3.56533
3.56643
3.57537
3.5691
3.56861
3.56629
3.57058
3.56408
3.56478
3.59438
3.59196
3.59084
3.58645
3.59897
3.59257
3.59864
3.59965
3.59978
3.59884
3.5933
3.5945
3.59431
3.59315
3.59647
3.5983
3.59653
3.59649
3.59657
3.59672
3.55296
3.55304
3.55366
3.54909
3.55026
3.55822
3.55363
3.55829
3.55349
3.55405
3.55158
3.55712
3.55759
3.56124
3.55983
3.55703
3.55854
3.55697
3.55861
3.5582
3.5606
3.56077
3.5557
3.55683
3.55927
3.5618
3.55771
3.56252
3.56122
3.61437
3.60493
3.60382
3.60654
3.60522
3.61021
3.6098
3.60727
3.60337
3.6075
3.61397
3.61461
3.60873
3.60265
3.60981
3.60868
3.60014
3.60481
3.60956
3.60888
3.60441
3.60626
3.60703
3.60599
3.61468
3.61055
3.60953
3.61158
3.60957
3.61004
3.61078
3.6122
3.56275
3.56466
3.56106
3.56015
3.56567
3.56893
3.56852
3.56505
3.5651
3.56178
3.56608
3.5632
3.56731
3.56536
3.57608
3.57504
3.56844
3.56722
3.5703
3.55978
3.56265
3.56104
3.56388
3.56177
3.56235
3.55951
3.56337
3.56355
3.55702
3.55684
3.55879
3.55617
3.56805
3.56184
3.55932
3.56625
3.55621
3.55482
3.5597
3.56485
3.56844
3.56313
3.56054
3.56047
3.56382
3.56461
3.56172
3.55782
3.55843
3.56114
3.5632
3.56432
3.56055
3.55949
3.56048
3.55768
3.56323
3.55952
3.5575
3.58949
3.58737
3.57996
3.58729
3.58516
3.57449
3.58628
3.57869
3.58846
3.58695
3.5903
3.59132
3.58818
3.58273
3.58812
3.56987
3.57151
3.57768
3.56961
3.57402
3.57131
3.57197
3.57445
3.57246
3.57154
3.57628
3.57453
3.57113
3.57397
3.56971
3.56824
3.57137
3.56808
3.57035
3.54579
3.54781
3.54764
3.54407
3.54892
3.54516
3.60873
3.60296
3.60713
3.61133
3.6039
3.59942
3.60462
3.60131
3.60637
3.60178
3.60997
3.60921
3.60771
3.61118
3.60504
3.60522
3.61002
3.60785
3.58736
3.584
3.58023
3.59191
3.58742
3.58189
3.58456
3.58545
3.5857
3.58521
3.55914
3.56319
3.5639
3.56158
3.55503
3.56214
3.56309
3.56226
3.56628
3.5609
3.56275
3.5621
3.56143
3.56325
3.56331
3.56572
3.56226
3.56149
3.56988
3.56173
3.55723
3.55908
3.56124
3.56776
3.56029
3.55963
3.5627
3.57087
3.57116
3.57831
3.57777
3.57701
3.57529
3.57438
3.57613
3.57801
3.57677
3.57271
3.58025
3.57982
3.57093
3.57955
3.57959
3.58322
3.58067
3.58406
3.59023
3.5872
3.58975
3.58809
3.58937
3.58799
3.59045
3.59297
3.5896
3.59135
3.58834
3.58858
3.59105
3.59403
3.59278
3.59397
3.59454
3.6017
3.59828
3.59845
3.6011
3.59837
3.60089
3.60504
3.60632
3.60175
3.6026
3.60471
3.60272
3.60198
3.60276
3.60144
3.59995
3.59865
3.60276
3.60458
3.60742
3.6051
3.58747
3.58053
3.57674
3.58307
3.57713
3.58594
3.58061
3.58186
3.58748
3.59055
3.57992
3.58058
3.58391
3.58417
3.58938
3.58988
3.58306
3.58585
3.59152
3.59778
3.59398
3.59464
3.59185
3.59313
3.59444
3.59115
3.58949
3.59442
3.5889
3.59254
3.5945
3.58877
3.58717
3.59447
3.59137
3.59078
3.59245
3.58681
3.59026
3.58942
3.58564
3.59021
3.59043
3.58994
3.58197
3.58761
3.58429
3.59224
3.58828
3.58828
3.59088
3.58683
3.59215
3.59173
3.59671
3.60089
3.59629
3.60183
3.60358
3.59976
3.59572
3.59942
3.597
3.59455
3.60466
3.60185
3.60804
3.60009
3.60063
3.59959
3.60369
3.60228
3.60171
3.60364
3.60026
3.60839
3.60342
3.60521
3.60546
3.60649
3.60238
3.60495
3.60743
3.60773
3.6058
3.606
3.60175
3.60305
3.60638
3.61146
3.60452
3.60536
3.60384
3.60734
3.60479
3.60509
3.61125
3.60739
3.60366
3.60433
3.60144
3.59908
3.59996
3.60658
3.61612
3.60932
3.60045
3.60077
3.59617
3.59876
3.60528
3.60277
3.60657
3.60598
3.60853
3.59886
3.58714
3.57755
3.59011
3.58904
3.58547
3.58384
3.5834
3.58377
3.58669
3.58743
3.58648
3.58673
3.58283
3.55289
3.55325
3.5516
3.55187
3.54908
3.54587
3.55019
3.54629
3.57506
3.57299
3.56846
3.57872
3.57638
3.5724
3.57003
3.57265
3.57407
3.57226
3.56985
3.57696
3.5704
3.57476
3.56917
3.57847
3.59218
3.59075
3.59201
3.58612
3.59179
3.58869
3.59425
3.58645
3.58313
3.58253
3.58675
3.58841
3.58861
3.58604
3.5897
3.56036
3.56122
3.56378
3.56031
3.5645
3.56669
3.5671
3.57298
3.57318
3.56732
3.57288
3.56668
3.5682
3.56641
3.57533
3.56415
3.56788
3.56811
3.56823
3.56832
3.56353
3.56844
3.56777
3.57011
3.57182
3.57041
3.57246
3.57323
3.57384
3.57048
3.57022
3.57608
3.57177
3.57337
3.57758
3.57761
3.5792
3.57593
3.57623
3.56721
3.57068
3.57682
3.57516
3.57344
3.57352
3.57432
3.57565
3.56058
3.56204
3.56353
3.55832
3.55714
3.5635
3.55653
3.56187
3.55879
3.5591
3.55677
3.56683
3.56954
3.55866
3.56187
3.57467
3.57271
3.56849
3.57339
3.57871
3.57392
3.57189
3.57489
3.57295
3.57483
3.57964
3.57421
3.57607
3.56374
3.56139
3.56194
3.56303
3.56244
3.56122
3.55981
3.56714
3.5629
3.56345
3.56538
3.54358
3.54433
3.54582
3.54614
3.54552
3.54459
3.5474
3.54943
3.54316
3.54506
3.5413
3.54253
3.54347
3.54179
3.55005
3.54094
3.54044
3.54439
3.54088
3.54502
3.54183
3.54824
3.5499
3.54903
3.54473
3.55188
3.55302
3.54935
3.54965
3.55587
3.55116
3.54777
3.55273
3.553
3.55664
3.55341
3.55498
3.55776
3.55315
3.55839
3.5595
3.55942
3.55425
3.55917
3.55909
3.56044
3.55919
3.55399
3.55328
3.56578
3.56323
3.56099
3.56121
3.56146
3.56584
3.55945
3.56021
3.56508
3.56247
3.56368
3.5669
3.56652
3.56167
3.56211
3.56317
3.56812
3.56889
3.56543
3.56554
3.57336
3.57169
3.57097
3.57222
3.57372
3.56771
3.57111
3.57342
3.57331
3.57496
3.56592
3.56678
3.57131
3.56852
3.57738
3.57652
3.57589
3.57666
3.58452
3.58284
3.577
3.57442
3.572
3.57342
3.57598
3.57644
3.57898
3.58202
3.57375
3.57812
3.58233
3.5836
3.58273
3.57998
3.5863
3.57994
3.57949
3.57971
3.57504
3.58258
3.58266
3.5795
3.58519
3.58175
3.57936
3.5859
3.58373
3.59101
3.59046
3.59087
3.5857
3.58654
3.58421
3.58444
3.58756
3.58125
3.59078
3.59201
3.58483
3.58906
3.58994
3.59461
3.59299
3.59136
3.58907
3.58628
3.59501
3.58904
3.58972
3.5952
3.58856
3.59468
3.58784
3.59176
3.59112
3.59299
3.58823
3.59322
3.59466
3.59627
3.58706
3.59899
3.59815
3.59228
3.59494
3.6018
3.60274
3.5974
3.59615
3.5999
3.59896
3.59623
3.59535
3.60069
3.60304
3.60099
3.5991
3.59925
3.59679
3.59599
3.6014
3.60261
3.60138
3.6035
3.60617
3.60189
3.60793
3.60792
3.61234
3.60718
3.60522
3.60687
3.6022
3.60018
3.60329
3.60685
3.60966
3.60947
3.60992
3.60251
3.60798
3.60714
3.60948
3.61008
3.61431
3.61653
3.61219
3.61093
3.61281
3.61346
3.61417
3.60889
3.6095
3.61098
3.61047
3.61913
3.6198
3.61463
3.61429
3.62142
3.61555
3.62031
3.61601
3.61095
3.61566
3.61077
3.61271
3.62277
3.61997
3.61699
3.61787
3.62731
3.61957
3.62288
3.6133
3.6209
3.61244
3.61435
3.61355
3.61927
3.6238
3.61775
3.61773
3.61959
3.61402
3.62079
3.61552
3.61628
3.61644
3.6163
3.6184
3.62891
3.62359
3.61863
3.62434
3.61999
3.61973
3.61718
3.62428
3.61033
3.62456
3.6212
3.61062
3.61301
3.61181
3.61057
3.61367
3.61503
3.61468
3.6232
3.61347
3.61137
3.61073
3.60305
3.61099
3.60949
3.60438
3.61498
3.61279
3.61387
3.61165
3.61788
3.61191
3.61819
3.61074
3.61574
3.61564
3.61368
3.6155
3.6091
3.60738
3.60766
3.61331
3.61234
3.6071
3.61096
3.61597
3.61333
3.61127
3.60369
3.6097
3.61002
3.60449
3.61024
3.60777
3.60897
3.60194
3.60675
3.60883
3.60566
3.6038
3.61053
3.60597
3.60518
3.60707
3.61086
3.61511
3.61555
3.6081
3.60755
3.60846
3.61597
3.61258
3.60643
3.60687
3.60853
3.60595
3.61045
3.60634
3.61405
3.60984
3.61506
3.61105
3.61174
3.60964
3.60997
3.60578
3.61294
3.61065
3.61046
3.60496
3.61418
3.6089
3.61272
3.60832
3.60481
3.61383
3.61012
3.60882
3.61556
3.60968
3.61161
3.60531
3.60755
3.60942
3.60698
3.61135
3.61044
3.61389
3.6108
3.61448
3.61524
3.61018
3.61712
3.61145
3.61158
3.61166
3.61487
3.60879
3.60897
3.61261
3.60639
3.61135
3.60354
3.60774
3.61214
3.60933
3.6083
3.60617
3.61028
3.6082
3.60661
3.60775
3.60871
3.61486
3.61487
3.61615
3.6118
3.6126
3.60606
3.6063
3.60686
3.59803
3.60683
3.61015
3.60573
3.60924
3.60163
3.60692
3.60609
3.60685
3.60446
3.60702
3.60475
3.61237
3.60814
3.60995
3.60736
3.60657
3.60661
3.61119
3.59999
3.60593
3.60104
3.60696
3.6006
3.59896
3.60271
3.60637
3.60438
3.60019
3.60211
3.59436
3.60398
3.60015
3.59954
3.60222
3.60714
3.60611
3.59222
3.60171
3.60063
3.6054
3.6003
3.60399
3.59964
3.60692
3.59979
3.59965
3.60256
3.6
3.5991
3.6096
3.60919
3.59975
3.60119
3.60399
3.59905
3.60345
3.61035
3.59512
3.60062
3.60249
3.60553
3.5988
3.59659
3.60679
3.60746
3.6084
3.60274
3.60434
3.59869
3.6003
3.60522
3.60445
3.60728
3.61225
3.61213
3.60905
3.60731
3.60378
3.60463
3.60314
3.59796
3.60316
3.59988
3.60212
3.59969
3.60148
3.60751
3.59901
3.61241
3.6107
3.60501
3.60618
3.60988
3.60885
3.60983
3.60142
3.60394
3.6022
3.60321
3.60458
3.59519
3.59206
3.5958
3.60265
3.60302
3.60001
3.60057
3.59564
3.59438
3.6005
3.60101
3.59763
3.60328
3.60381
3.5958
3.59333
3.59878
3.60117
3.59781
3.59802
3.59886
3.59965
3.60102
3.5997
3.60173
3.60724
3.60317
3.60295
3.58669
3.59528
3.6
3.59341
3.59554
3.59232
3.58877
3.59757
3.59889
3.59127
3.59822
3.59469
3.59403
3.59537
3.6014
3.59645
3.59592
3.59782
3.60522
3.60315
3.59942
3.59664
3.59724
3.59748
3.59634
3.60045
3.59394
3.59593
3.60138
3.59308
3.59286
3.60049
3.59743
3.59624
3.59011
3.59885
3.59544
3.59792
3.59589
3.59922
3.59656
3.59949
3.60041
3.59658
3.61097
3.603
3.59985
3.60242
3.60374
3.6055
3.59596
3.60301
3.6052
3.59192
3.59454
3.59734
3.59099
3.5908
3.59302
3.59627
3.59181
3.59482
3.59188
3.59495
3.59742
3.59355
3.60103
3.59769
3.59682
3.58835
3.59099
3.59552
3.59368
3.59257
3.58884
3.59007
3.59245
3.59131
3.59618
3.58677
3.58791
3.5885
3.59407
3.59263
3.5993
3.60192
3.59217
3.59903
3.59395
3.5915
3.591
3.59087
3.59688
3.60298
3.60649
3.60465
3.60282
3.59961
3.5949
3.59839
3.59051
3.59873
3.59367
3.59145
3.59737
3.5939
3.60382
3.60808
3.60041
3.60073
3.60013
3.60035
3.59064
3.58998
3.59792
3.59424
3.59034
3.59127
3.59856
3.59451
3.60085
3.59738
3.59159
3.59972
3.59853
3.60036
3.5956
3.58857
3.59187
3.58567
3.59645
3.59114
3.5899
3.59404
3.59148
3.59224
3.59482
3.59655
3.59114
3.59135
3.59194
3.59919
3.59545
3.60011
3.59701
3.5966
3.59481
3.597
3.59751
3.58655
3.57899
3.58303
3.59103
3.5882
3.58963
3.59285
3.59813
3.5985
3.59431
3.59055
3.59056
3.57986
3.58193
3.5924
3.59015
3.58868
3.58532
3.58742
3.58623
3.59035
3.59582
3.58535
3.58459
3.59239
3.58471
3.58377
3.5879
3.58808
3.58635
3.58945
3.58892
3.58615
3.59146
3.58803
3.58905
3.58789
3.58123
3.58971
3.59632
3.59168
3.6003
3.59534
3.59757
3.58919
3.59839
3.5894
3.59059
3.59055
3.59114
3.59534
3.59123
3.58449
3.58473
3.58872
3.58757
3.58596
3.59013
3.5857
3.59292
3.5903
3.59054
3.58983
3.58589
3.59049
3.58781
3.59378
3.59054
3.58761
3.58463
3.58664
3.58447
3.58422
3.58461
3.58836
3.59307
3.58788
3.58619
3.59234
3.58802
3.58985
3.59426
3.59336
3.58964
3.58956
3.58856
3.59053
3.59234
3.58332
3.58217
3.58211
3.59193
3.58998
3.58737
3.58055
3.58679
3.59322
3.58494
3.59619
3.59524
3.59191
3.58816
3.5794
3.58243
3.58858
3.58793
3.58097
3.58675
3.58142
3.58004
3.58101
3.58651
3.59386
3.59174
3.57785
3.57394
3.57676
3.58361
3.58083
3.58592
3.58038
3.57373
3.57665
3.57675
3.58224
3.57851
3.59213
3.57805
3.58237
3.58726
3.58485
3.58365
3.58656
3.5821
3.5804
3.5846
3.58703
3.58485
3.58529
3.58944
3.58796
3.58315
3.58142
3.5864
3.58382
3.58194
3.57864
3.58718
3.58412
3.58293
3.58845
3.58561
3.59011
3.59499
3.59117
3.59178
3.58842
3.59015
3.59032
3.57707
3.57957
3.58371
3.5749
3.58152
3.58857
3.57681
3.58021
3.57668
3.57696
3.58098
3.58384
3.57994
3.58138
3.58616
3.58218
3.57534
3.57517
3.58321
3.58464
3.58312
3.58408
3.59303
3.59012
3.57855
3.58683
3.58525
3.5858
3.5899
3.58586
3.58734
3.58698
3.58729
3.58466
3.58464
3.58544
3.58442
3.58382
3.58754
3.57701
3.57602
3.58256
3.57758
3.58444
3.57873
3.57934
3.57731
3.58382
3.58072
3.57808
3.57663
3.58238
3.57578
3.58168
3.58523
3.58265
3.5936
3.58896
3.58646
3.59089
3.57786
3.58482
3.58275
3.58099
3.5831
3.57301
3.58067
3.57124
3.57817
3.5733
3.57586
3.57001
3.57284
3.57946
3.57963
3.5714
3.56694
3.5836
3.57921
3.58
3.58108
3.57809
3.58116
3.56969
3.5759
3.5734
3.57614
3.58481
3.57985
3.58288
3.58601
3.57495
3.57989
3.57364
3.57477
3.57474
3.57676
3.5752
3.58067
3.57634
3.578
3.57922
3.5751
3.57622
3.58566
3.57775
3.5801
3.58197
3.57992
3.5761
3.57612
3.58067
3.57579
3.58006
3.5745
3.5879
3.58334
3.58019
3.58127
3.57854
3.58082
3.57348
3.5732
3.57026
3.57708
3.57048
3.57774
3.5703
3.57185
3.57243
3.57174
3.57024
3.57589
3.57162
3.5771
3.56917
3.57247
3.57279
3.57767
3.57824
3.57097
3.57542
3.57515
3.57414
3.57696
3.57459
3.57144
3.58217
3.57708
3.58593
3.576
3.5743
3.58159
3.57632
3.5696
3.57806
3.575
3.56874
3.57711
3.57632
3.57562
3.57398
3.57474
3.58193
3.58121
3.57408
3.57606
3.57564
3.56495
3.5677
3.5714
3.56592
3.5661
3.57423
3.57018
3.56646
3.56967
3.56847
3.56752
3.57464
3.56253
3.56904
3.56928
3.56856
3.56921
3.56504
3.56689
3.572
3.56621
3.56487
3.56933
3.56896
3.56065
3.56675
3.57007
3.56719
3.56583
3.56878
3.56908
3.56983
3.57445
3.56843
3.56822
3.57018
3.56705
3.57577
3.56955
3.56991
3.56859
3.56462
3.5642
3.57028
3.56791
3.57259
3.57471
3.57638
3.581
3.58043
3.57589
3.5723
3.57898
3.57716
3.57282
3.5704
3.57062
3.56782
3.57592
3.57062
3.567
3.56959
3.57318
3.5742
3.57229
3.57484
3.579
3.57399
3.57645
3.57915
3.57833
3.57221
3.57423
3.57632
3.5711
3.57481
3.57394
3.57062
3.5645
3.56244
3.56873
3.56854
3.56418
3.5698
3.57429
3.57594
3.5662
3.56948
3.57124
3.57482
3.56841
3.56708
3.57037
3.56992
3.57795
3.57203
3.5721
3.57188
3.57002
3.57852
3.57311
3.57259
3.57189
3.57306
3.56949
3.56341
3.57059
3.56433
3.56784
3.57277
3.57035
3.57865
3.57892
3.57829
3.57639
3.57322
3.56842
3.56748
3.57079
3.5662
3.56565
3.56896
3.57022
3.57297
3.57249
3.57283
3.57513
3.5716
3.56579
3.57037
3.57116
3.57351
3.57194
3.56372
3.57615
3.56886
3.57097
3.57819
3.56245
3.56462
3.56927
3.55847
3.56633
3.56411
3.56459
3.55378
3.56501
3.56724
3.56355
3.56287
3.56058
3.56152
3.56271
3.56858
3.566
3.56651
3.56565
3.5642
3.56856
3.56341
3.5629
3.57152
3.57088
3.57476
3.57073
3.5623
3.56596
3.56988
3.56886
3.57277
3.56946
3.57477
3.56607
3.56524
3.56739
3.5677
3.56753
3.56596
3.56634
3.56106
3.55989
3.56658
3.56918
3.55952
3.56107
3.56547
3.56608
3.56828
3.57701
3.57193
3.57001
3.55687
3.56459
3.56709
3.56627
3.56469
3.56122
3.56839
3.56374
3.56729
3.56375
3.56836
3.56799
3.55603
3.56571
3.56682
3.5642
3.56195
3.55519
3.55462
3.56171
3.55775
3.56371
3.55905
3.56757
3.56806
3.56534
3.556
3.56624
3.56518
3.56057
3.56234
3.56241
3.56245
3.56753
3.56613
3.56557
3.56185
3.57035
3.57066
3.56473
3.56811
3.56633
3.56099
3.56449
3.55574
3.55899
3.56324
3.56282
3.56159
3.56193
3.5633
3.56189
3.55839
3.55441
3.56363
3.5653
3.56233
3.56156
3.55971
3.56398
3.56682
3.56189
3.56057
3.56007
3.56287
3.56327
3.55433
3.56008
3.55278
3.5668
3.56306
3.56145
3.56521
3.56373
3.5677
3.5673
3.55852
3.56127
3.559
3.55472
3.55854
3.55748
3.5611
3.55462
3.55884
3.55004
3.55988
3.55176
3.55591
3.55629
3.56265
3.5546
3.55856
3.55897
3.55893
3.55883
3.55441
3.55815
3.56198
3.56144
3.56553
3.56796
3.56988
3.56578
3.56346
3.56827
3.56361
3.56035
3.5657
3.56242
3.56461
3.56615
3.56542
3.55493
3.55905
3.56251
3.55149
3.5573
3.5498
3.55625
3.55921
3.55629
3.55935
3.55841
3.55945
3.55829
3.55947
3.55505
3.56405
3.56068
3.56629
3.56082
3.56177
3.55074
3.55517
3.55327
3.55518
3.55826
3.55939
3.56238
3.56062
3.55798
3.55857
3.55512
3.55621
3.56045
3.54957
3.55498
3.55324
3.55064
3.55654
3.55616
3.55495
3.55864
3.55797
3.55516
3.56449
3.55804
3.5524
3.55609
3.55193
3.55766
3.55447
3.56197
3.54873
3.54783
3.55082
3.55246
3.5539
3.5479
3.54814
3.55107
3.55662
3.55437
3.55565
3.55898
3.55474
3.55143
3.54198
3.54978
3.5479
3.5537
3.5503
3.55359
3.54617
3.55178
3.55024
3.55064
3.55005
3.5511
3.5479
3.54473
3.55991
3.56087
3.55334
3.55623
3.56287
3.55873
3.5496
3.55287
3.55279
3.55418
3.55539
3.55326
3.55424
3.5412
3.54162
3.54888
3.5454
3.54608
3.54514
3.55052
3.54773
3.54308
3.54799
3.55164
3.55057
3.55043
3.54743
3.54543
3.54245
3.544
3.54757
3.54363
3.54599
3.54546
3.5512
3.54894
3.54999
3.5482
3.54716
3.54532
3.55379
3.55217
3.54907
3.55696
3.56021
3.55528
3.55278
3.55368
3.5541
3.55244
3.54845
3.55259
3.55017
3.5483
3.55507
3.55088
3.55766
3.5537
3.55092
3.55259
3.55195
3.54439
3.5502
3.55292
3.5514
3.55293
3.55066
3.55052
3.54868
3.55421
3.54964
3.55277
3.55069
3.54454
3.55129
3.55398
3.55323
3.55818
3.55239
3.55056
3.55302
3.55237
3.55614
3.55123
3.55146
3.55201
3.54969
3.54667
3.54973
3.54921
3.54599
3.55609
3.5523
3.55377
3.54893
3.54197
3.54234
3.54908
3.54986
3.54166
3.54872
3.55196
3.54868
3.54999
3.5502
3.54851
3.53892
3.54155
3.53784
3.54556
3.56817
3.56142
3.56445
3.56392
3.56259
3.55955
3.56802
3.5688
3.55701
3.56562
3.56355
3.55861
3.55718
3.55686
3.56109
3.55671
3.55959
3.56031
3.56539
3.56341
3.56439
3.56898
3.56727
3.56437
3.56435
3.56199
3.55858
3.55969
3.56058
3.55874
3.55854
3.56028
3.56083
3.56173
3.55802
3.56495
3.56136
3.55689
3.55496
3.56332
3.55821
3.56049
3.55885
3.55678
3.55693
3.55314
3.54809
3.55561
3.55152
3.56562
3.56408
3.56152
3.57049
3.56511
3.56618
3.55858
3.56111
3.55478
3.55687
3.55198
3.55568
3.55473
3.55386
3.56139
3.55866
3.56216
3.5582
3.55565
3.55568
3.55895
3.56109
3.56273
3.5599
3.5575
3.55946
3.55548
3.55698
3.55734
3.56288
3.55962
3.55569
3.55371
3.5587
3.55739
3.55596
3.56062
3.56344
3.56329
3.55859
3.56681
3.56982
3.55542
3.55819
3.55493
3.55268
3.56517
3.56596
3.55867
3.55725
3.56527
3.55953
3.5594
3.56324
3.56176
3.55977
3.5619
3.55978
3.55673
3.56468
3.56608
3.56088
3.56502
3.55902
3.5587
3.56098
3.56142
3.56171
3.562
3.55836
3.55596
3.55659
3.5714
3.5746
3.5719
3.57819
3.57213
3.57535
3.5725
3.57297
3.57207
3.56309
3.56259
3.56551
3.56133
3.56996
3.57049
3.56761
3.5654
3.56039
3.56852
3.56849
3.5667
3.57207
3.56471
3.561
3.56262
3.56875
3.56794
3.57012
3.57067
3.56684
3.56256
3.57107
3.56967
3.56583
3.58492
3.57825
3.57966
3.58372
3.57833
3.58018
3.57299
3.57626
3.57253
3.57632
3.56955
3.57703
3.57127
3.58049
3.57386
3.57005
3.57852
3.57854
3.57298
3.57668
3.57569
3.56924
3.5652
3.56191
3.56294
3.57125
3.56936
3.56999
3.56988
3.56352
3.57063
3.5708
3.56423
3.56771
3.57007
3.5621
3.56413
3.56498
3.56714
3.5715
3.5687
3.57232
3.56805
3.56675
3.56542
3.56766
3.57624
3.57297
3.57006
3.56815
3.57162
3.56801
3.57461
3.56969
3.57434
3.57136
3.57184
3.57671
3.57634
3.58581
3.57755
3.58332
3.57644
3.57885
3.58089
3.58184
3.58346
3.57537
3.57533
3.58247
3.58494
3.5808
3.57859
3.57568
3.57377
3.58151
3.57736
3.57262
3.58182
3.57872
3.57896
3.58266
3.57912
3.57876
3.57865
3.57742
3.58142
3.58491
3.58125
3.58304
3.58227
3.58426
3.58482
3.58254
3.58268
3.57789
3.57527
3.58169
3.58004
3.58038
3.5797
3.58054
3.58003
3.58045
3.58075
3.58932
3.58541
3.58641
3.58533
3.5899
3.59264
3.58606
3.58129
3.5878
3.58372
3.57413
3.57609
3.57509
3.57653
3.57656
3.57654
3.57948
3.57262
3.57087
3.57659
3.57262
3.57459
3.57498
3.57262
3.57442
3.57405
3.57692
3.57666
3.58734
3.58264
3.58646
3.58461
3.57666
3.58771
3.58183
3.58883
3.58088
3.57907
3.58349
3.57962
3.58636
3.58582
3.58184
3.58077
3.58233
3.57724
3.58572
3.57906
3.5863
3.58837
3.58596
3.58941
3.58509
3.585
3.58034
3.58428
3.58406
3.58895
3.58939
3.58802
3.58114
3.58798
3.58971
3.58592
3.59444
3.59158
3.58732
3.58596
3.59479
3.59548
3.59712
3.59373
3.59962
3.60163
3.5969
3.59725
3.59269
3.60004
3.59774
3.59746
3.58271
3.58263
3.58986
3.58823
3.58658
3.58233
3.58471
3.57731
3.58529
3.58727
3.58274
3.58027
3.58165
3.58292
3.5832
3.58043
3.58117
3.59019
3.58037
3.58693
3.58749
3.58318
3.59042
3.58205
3.58549
3.58372
3.59035
3.59148
3.58304
3.59318
3.59131
3.58673
3.58941
3.59
3.58701
3.58977
3.59496
3.59741
3.60003
3.59582
3.59376
3.59
3.59919
3.59565
3.60597
3.60655
3.60586
3.60462
3.60281
3.59027
3.58798
3.59121
3.58989
3.59132
3.58824
3.59633
3.59039
3.5958
3.58674
3.59059
3.59153
3.58974
3.58468
3.5876
3.59704
3.5905
3.58698
3.597
3.59307
3.58801
3.59363
3.58897
3.59072
3.58873
3.59132
3.60015
3.59814
3.59999
3.59667
3.59867
3.59568
3.59914
3.59253
3.59189
3.58514
3.59538
3.58898
3.58932
3.58544
3.59422
3.59002
3.58893
3.58962
3.5961
3.59118
3.58926
3.58708
3.58967
3.59082
3.60754
3.60475
3.5995
3.60062
3.59828
3.59752
3.60245
3.59767
3.60522
3.60464
3.60378
3.60141
3.59557
3.59608
3.59558
3.59373
3.59784
3.59504
3.59026
3.59238
3.59615
3.58621
3.58788
3.59503
3.59197
3.5983
3.59858
3.595
3.59862
3.59693
3.60237
3.59853
3.59557
3.60249
3.60257
3.59877
3.5973
3.59796
3.6018
3.60129
3.60086
3.59321
3.59475
3.5987
3.59295
3.5983
3.60028
3.59471
3.59682
3.59863
3.59391
3.59675
3.59468
3.60037
3.59634
3.59339
3.592
3.58636
3.59523
3.59348
3.59603
3.59422
3.60663
3.61382
3.60556
3.60517
3.60756
3.60928
3.60699
3.60211
3.60972
3.61331
3.61178
3.61049
3.60952
3.61733
3.60962
3.61054
3.61158
3.61026
3.61104
3.60502
3.61303
3.61388
3.59665
3.59708
3.59903
3.60195
3.60082
3.59983
3.61062
3.61124
3.60773
3.59304
3.60206
3.60159
3.6061
3.60195
3.60317
3.60249
3.60239
3.59802
3.5978
3.60346
3.60297
3.5984
3.5995
3.59473
3.59173
3.59638
3.59399
3.60383
3.60293
3.60293
3.60503
3.60581
3.60089
3.60415
3.59424
3.59602
3.5968
3.59769
3.60022
3.59774
3.59864
3.59478
3.597
3.59508
3.59623
3.61108
3.60927
3.61267
3.61
3.60756
3.61716
3.61273
3.60707
3.60855
3.61172
3.60943
3.61873
3.61631
3.60005
3.60051
3.60399
3.6059
3.61088
3.60723
3.60317
3.60222
3.5992
3.60916
3.60498
3.60856
3.61368
3.61134
3.5995
3.60444
3.60249
3.60516
3.60396
3.60356
3.60177
3.60417
3.60712
3.60838
3.60948
3.60143
3.59875
3.60259
3.60277
3.60399
3.61269
3.60981
3.60498
3.60346
3.60661
3.60916
3.61216
3.60907
3.60884
3.60602
3.60676
3.60457
3.6124
3.61629
3.61289
3.60999
3.61187
3.6095
3.61496
3.61003
3.61153
3.61294
3.60397
3.60504
3.60775
3.60754
3.61179
3.61393
3.61106
3.61676
3.61579
3.61526
3.6171
3.60907
3.61282
3.5824
3.57539
3.57554
3.57513
3.57569
3.57408
3.57297
3.58268
3.57936
3.57782
3.57822
3.57457
3.57459
3.57965
3.58302
3.57414
3.57935
3.58096
3.59113
3.59175
3.59181
3.59604
3.59375
3.59282
3.59209
3.58667
3.59306
3.58939
3.59638
3.58581
3.55509
3.55214
3.54723
3.54927
3.55305
3.54892
3.55218
3.54874
3.5599
3.5606
3.55894
3.5565
3.56095
3.56204
3.56238
3.56208
3.56685
3.56405
3.56367
3.5633
3.61628
3.60612
3.61908
3.61233
3.6227
3.6181
3.61555
3.61629
3.6111
3.60924
3.62027
3.61969
3.61544
3.62363
3.60656
3.61634
3.61327
3.60754
3.61595
3.60934
3.62058
3.61912
3.61607
3.62305
3.62172
3.61023
3.61354
3.60856
3.61065
3.6102
3.60848
3.61726
3.61785
3.61565
3.62239
3.62284
3.61116
3.61528
3.60512
3.60545
3.60629
3.60738
3.60902
3.61101
3.61039
3.60975
3.60704
3.60925
3.6149
3.6171
3.61811
3.61153
3.60952
3.6136
3.60349
3.6128
3.60832
3.6074
3.60418
3.60247
3.60341
3.60237
3.60774
3.60692
3.60624
3.59938
3.60357
3.61092
3.60185
3.60233
3.60554
3.60358
3.60421
3.60533
3.59532
3.60391
3.60484
3.60218
3.58902
3.59289
3.59391
3.58418
3.5888
3.58889
3.60098
3.59852
3.59698
3.59403
3.59575
3.59376
3.59496
3.61042
3.61212
3.61009
3.60293
3.60505
3.60916
3.61009
3.58364
3.58929
3.59052
3.59532
3.59307
3.59683
3.59205
3.58912
3.59529
3.59295
3.5943
3.59312
3.59224
3.59307
3.59624
3.6001
3.59646
3.59674
3.59725
3.59739
3.5892
3.59498
3.59886
3.5984
3.59836
3.59487
3.5951
3.59869
3.59424
3.59948
3.60168
3.60412
3.5955
3.59911
3.59071
3.593
3.60076
3.60708
3.59883
3.59905
3.59745
3.59814
3.59658
3.58937
3.58814
3.58735
3.58743
3.59064
3.58066
3.58507
3.58714
3.58668
3.58317
3.58875
3.58149
3.58916
3.58521
3.59264
3.59561
3.58957
3.59181
3.59352
3.59183
3.59548
3.59432
3.5921
3.59503
3.5837
3.58402
3.58787
3.58493
3.58726
3.5862
3.58592
3.59266
3.59163
3.58974
3.58852
3.59592
3.59488
3.59543
3.59159
3.60119
3.5999
3.60123
3.59827
3.58092
3.57778
3.5799
3.57919
3.5865
3.58363
3.58289
3.58293
3.58352
3.58566
3.58655
3.58847
3.58864
3.58805
3.58966
3.59022
3.58927
3.58347
3.58427
3.58738
3.59205
3.58393
3.57678
3.58275
3.57761
3.58439
3.57603
3.57832
3.58694
3.58286
3.58291
3.57804
3.59337
3.59
3.58577
3.59627
3.58137
3.58283
3.58936
3.58601
3.58267
3.5839
3.58622
3.58473
3.58471
3.57835
3.58068
3.5806
3.58408
3.59079
3.58356
3.58834
3.58524
3.58362
3.58435
3.58766
3.58617
3.58593
3.58665
3.58415
3.58461
3.58416
3.58409
3.57711
3.58145
3.57837
3.57861
3.57814
3.58323
3.585
3.57777
3.57684
3.57003
3.57657
3.57878
3.58715
3.58198
3.57479
3.57469
3.57888
3.57087
3.57183
3.57638
3.57983
3.57728
3.58177
3.57371
3.57535
3.58061
3.57635
3.5736
3.57282
3.58157
3.57698
3.56728
3.56324
3.57014
3.5739
3.57357
3.56938
3.57314
3.57288
3.57129
3.57565
3.57354
3.57289
3.58028
3.58004
3.57658
3.57687
3.579
3.57903
3.58411
3.58112
3.57933
3.57463
3.57885
3.57062
3.5775
3.57602
3.57514
3.57236
3.57853
3.57515
3.57933
3.57479
3.57465
3.57682
3.5785
3.57454
3.57733
3.57642
3.57342
3.57046
3.57723
3.5797
3.56423
3.57136
3.56197
3.56551
3.56654
3.56791
3.57051
3.57162
3.56572
3.57268
3.56959
3.56749
3.56522
3.56741
3.56979
3.57435
3.56481
3.56391
3.56461
3.57219
3.56968
3.57365
3.57035
3.57425
3.57486
3.57109
3.57289
3.57488
3.57517
3.57186
3.56152
3.56739
3.56574
3.57146
3.54937
3.54992
3.56003
3.5572
3.55501
3.55968
3.55524
3.56198
3.56048
3.55692
3.55867
3.55842
3.55722
3.55597
3.55814
3.5589
3.55199
3.55428
3.55593
3.55924
3.56141
3.56355
3.56331
3.55955
3.55489
3.56287
3.55629
3.56337
3.56274
3.56405
3.56352
3.56693
3.55883
3.55595
3.55762
3.55983
3.56131
3.56225
3.56399
3.56037
3.56208
3.55901
3.55871
3.55921
3.56195
3.55606
3.55705
3.55564
3.56025
3.55851
3.55459
3.54916
3.55285
3.55221
3.54996
3.55293
3.55119
3.55986
3.56498
3.56227
3.5574
3.56575
3.56447
3.56487
3.56875
3.54841
3.54922
3.55129
3.55448
3.55434
3.5563
3.55466
3.55451
3.55428
3.54658
3.54972