/*--------------------------------*- C++ -*----------------------------------*\
| =========                 |                                                 |
| \\      /  F ield         | OpenFOAM: The Open Source CFD Toolbox           |
|  \\    /   O peration     | Version:  v1612+                                |
|   \\  /    A nd           | Web:      www.OpenFOAM.com                      |
|    \\/     M anipulation  |                                                 |
\*---------------------------------------------------------------------------*/
FoamFile
{
    version     2.0;
    format      ascii;
    class       surfaceScalarField;
    location    "239";
    object      phi;
}
// * * * * * * * * * * * * * * * * * * * * * * * * * * * * * * * * * * * * * //

dimensions      [0 3 -1 0 0 0 0];

internalField   nonuniform List<scalar> 
37175
(
4.39678e-09
-2.25304e-09
2.02484e-09
-4.16856e-09
1.92256e-09
-2.74146e-09
-1.20779e-09
2.02667e-09
-4.52489e-10
-2.47239e-09
2.01661e-08
-1.72412e-08
-4.96847e-09
-4.88825e-09
4.93308e-09
4.92367e-09
-9.15688e-09
-5.64075e-09
7.91453e-09
6.88315e-09
-4.69283e-09
-6.1354e-09
1.4528e-09
9.37538e-09
-7.0445e-09
-2.69746e-09
5.04916e-09
-7.07395e-09
-6.2767e-09
7.21523e-09
-1.36525e-08
-4.65964e-10
2.64854e-09
-9.69077e-09
4.34477e-09
-4.34998e-09
1.10577e-10
-2.03735e-09
-1.02731e-08
-4.98334e-09
1.60396e-09
-4.02055e-09
-1.06025e-08
-6.39474e-10
8.7408e-09
-6.03528e-09
-2.06604e-09
4.49008e-09
-7.27048e-09
5.42887e-09
-4.35005e-09
1.02929e-08
-6.2488e-09
4.29125e-09
-3.0258e-09
-6.94447e-10
-9.5749e-09
9.41168e-09
-6.94747e-09
2.67966e-09
-5.14384e-09
1.28056e-08
-4.03343e-09
4.43019e-09
-3.07008e-09
-1.24958e-09
-5.63061e-09
5.71071e-09
-9.93601e-10
4.10377e-09
-3.78729e-09
-5.31805e-09
-1.14292e-08
-2.71987e-09
4.54155e-09
6.60953e-09
-1.77487e-09
-7.16786e-09
2.33321e-09
4.45356e-09
6.06313e-10
1.54966e-09
-4.12359e-09
2.82374e-09
1.05088e-08
-9.20903e-09
-1.21847e-09
4.95953e-09
7.12493e-10
3.24419e-09
-1.29316e-10
-4.88973e-09
2.41071e-09
-3.84986e-10
8.2409e-09
-1.39185e-09
-6.13484e-09
-7.14221e-10
6.20683e-10
3.49659e-09
-1.06592e-09
8.84919e-09
-3.22376e-09
-4.30406e-09
3.00653e-09
4.52126e-09
-4.02203e-09
1.06719e-09
-2.68944e-10
5.43529e-09
-3.59155e-09
-5.86578e-09
1.75191e-09
-5.11272e-09
-3.75462e-09
5.69523e-09
-2.76724e-10
1.38821e-08
-2.10663e-09
-1.22279e-08
3.81422e-09
-9.3036e-09
4.14638e-09
1.34298e-09
1.39687e-08
3.72764e-09
-2.58761e-09
-8.82259e-09
8.37441e-09
-9.13069e-09
1.4725e-08
7.36503e-09
-7.4563e-09
-2.49634e-09
7.65172e-09
3.85971e-09
4.99443e-09
-2.40573e-09
5.06309e-09
-5.00967e-09
1.64062e-09
-7.20242e-09
1.05715e-08
8.08773e-09
-1.1061e-08
5.00878e-10
-1.83688e-09
-4.89131e-09
1.71856e-09
9.51845e-09
7.0771e-09
-8.50783e-09
1.50095e-08
-4.90124e-09
6.58686e-10
-2.87058e-10
6.59073e-10
-1.56107e-09
1.18921e-09
5.24437e-10
1.40184e-10
-9.51654e-10
5.93135e-10
-4.01835e-11
-2.846e-11
-3.01128e-10
2.63313e-09
-1.67281e-09
-6.01727e-10
-1.38948e-09
1.69012e-09
7.40542e-10
-1.20207e-09
2.20064e-09
-1.35349e-09
-1.11065e-09
2.63474e-10
4.69442e-10
3.42213e-09
-1.69098e-09
8.02641e-10
1.26443e-09
5.66204e-10
8.20055e-10
1.32837e-09
-1.3458e-09
2.71379e-10
-8.84317e-10
2.96138e-10
-4.65104e-10
9.88999e-10
-6.03567e-10
1.36913e-09
-9.15491e-10
-1.53205e-10
-5.09757e-11
2.43209e-09
9.5851e-11
-3.56233e-09
1.0344e-09
-7.67842e-10
1.99917e-10
3.00001e-09
-2.01036e-09
1.4872e-09
6.19013e-10
-2.78066e-09
4.71536e-09
2.29095e-09
-4.22568e-09
9.36412e-10
-1.997e-09
-1.72006e-09
7.42111e-10
1.18494e-09
-3.52508e-09
1.59792e-09
3.53903e-09
-1.91913e-09
-6.83494e-10
-2.46677e-09
5.33491e-10
8.92206e-10
1.041e-09
-2.27117e-09
-2.19641e-09
2.00079e-09
2.44362e-09
3.01383e-09
2.0925e-09
1.98005e-09
2.62033e-10
3.11764e-09
-1.94531e-09
-1.43441e-09
4.79816e-09
-7.5429e-09
-5.36322e-10
-3.13347e-09
-8.05161e-09
-3.90481e-09
-1.21938e-08
-5.64877e-09
-1.50254e-08
-4.91797e-09
1.8725e-09
5.86513e-09
-3.35158e-10
-7.40246e-09
4.40856e-09
-3.74659e-09
1.21058e-09
7.157e-09
-1.92904e-09
6.37085e-10
-3.03782e-09
3.70749e-09
6.48733e-09
1.02135e-08
-1.72758e-09
-1.04151e-08
4.06734e-09
-1.55712e-09
7.70324e-09
4.95914e-10
8.74704e-10
-7.71327e-10
8.54609e-09
-2.73367e-09
-2.67609e-09
4.63829e-09
-3.0061e-09
7.68332e-10
2.90389e-09
2.88925e-09
-3.00577e-10
-5.49259e-09
2.24906e-09
1.61932e-09
-9.64477e-10
-4.776e-09
5.21907e-09
1.80596e-09
2.78956e-09
-4.67623e-09
6.35621e-10
-1.44587e-09
1.23159e-09
-4.21371e-10
2.64003e-09
-3.85091e-10
1.28552e-09
-3.03197e-09
-1.09047e-09
1.28927e-09
5.02028e-09
7.98845e-09
-1.32135e-09
-3.8775e-09
-2.21716e-10
7.11972e-09
1.89189e-10
3.74012e-09
5.95759e-09
-2.39482e-09
-4.8841e-09
7.11894e-10
5.02398e-09
-2.31368e-09
2.8848e-09
6.60473e-10
-3.42299e-09
3.78587e-09
2.95766e-09
-3.22529e-09
-3.28204e-09
3.54964e-09
-1.97171e-09
-3.4027e-09
8.33204e-09
-1.49132e-09
-4.6738e-09
2.93981e-09
-1.67191e-09
-3.61744e-09
3.31767e-09
-4.29286e-09
1.12972e-09
-3.12602e-09
7.59821e-09
-9.12242e-09
2.7143e-09
-2.19401e-09
3.31726e-09
4.30287e-09
-7.91002e-09
1.41313e-09
-2.22295e-09
-2.79149e-09
7.21636e-10
2.79833e-09
-5.34833e-09
3.27088e-10
1.28452e-09
8.37608e-10
5.12795e-09
2.53507e-09
3.40279e-09
9.29834e-10
1.17697e-08
-3.25446e-09
-9.44508e-09
-2.10563e-09
1.56554e-08
-1.26199e-08
1.24337e-08
-1.4975e-09
-1.30418e-08
9.44722e-09
4.68637e-09
-1.69987e-09
-3.97818e-09
-6.09043e-09
5.58006e-10
9.51059e-09
1.12881e-08
-7.44201e-09
7.59082e-09
1.11393e-08
6.87212e-09
1.34128e-09
9.1251e-09
7.19423e-09
7.10675e-09
2.26217e-09
-1.08664e-08
1.4723e-08
-1.87025e-09
-8.6239e-09
1.08233e-09
8.25275e-09
-9.76988e-09
5.41462e-09
-6.40692e-09
9.37005e-11
-6.63529e-10
-5.82104e-10
2.30292e-10
-7.75416e-09
1.17008e-08
-4.17689e-09
-9.26863e-09
5.20992e-09
-9.78844e-09
1.38472e-08
-1.02975e-08
-1.5276e-09
2.55641e-09
3.65909e-09
-7.00594e-09
1.6247e-09
1.72216e-09
9.0993e-09
-5.79486e-09
-1.62588e-09
-3.33423e-10
-9.60033e-09
2.1407e-10
-4.02194e-10
-7.11714e-09
-1.27806e-08
-7.0092e-09
-3.13273e-10
-1.95848e-09
2.44972e-09
-7.50046e-09
2.22383e-09
-1.12995e-08
1.4648e-09
6.57186e-09
-5.81286e-09
-2.69716e-09
6.61167e-09
-2.20019e-10
-3.67964e-08
5.14525e-09
1.93171e-09
2.97193e-08
-1.29634e-08
-6.51996e-09
-1.7313e-08
1.61859e-08
2.52934e-08
-5.17275e-09
-3.63065e-08
1.75743e-08
6.70909e-09
-8.09749e-09
1.53502e-08
-9.07034e-09
-1.92433e-08
1.24348e-08
4.83853e-09
-1.9231e-09
1.40476e-08
3.53239e-09
-2.09323e-09
1.94794e-08
1.88125e-10
2.64526e-08
-3.25248e-09
1.99384e-09
-1.27618e-08
1.43655e-08
-3.59756e-09
2.41178e-08
-2.64462e-09
-1.21417e-09
-1.46865e-08
8.89399e-09
2.0158e-08
-2.90383e-09
1.23351e-08
1.00696e-08
-2.17672e-08
8.79376e-09
1.33197e-08
-2.19453e-08
1.86953e-08
1.65602e-08
-3.08033e-08
8.12671e-09
2.85142e-08
-2.25933e-08
3.75029e-08
-2.74627e-08
9.51919e-09
2.26386e-09
2.57198e-08
3.03404e-08
1.61894e-08
-1.1504e-08
3.76327e-09
1.29259e-08
-2.32718e-08
-6.07935e-09
1.64253e-08
-2.19425e-08
3.04805e-08
4.38787e-09
-2.21055e-09
-7.50604e-09
-1.35552e-08
-9.73851e-09
-1.44145e-08
-4.69664e-09
-1.72513e-08
2.05128e-08
1.43513e-09
-1.61857e-08
-5.40361e-09
1.68927e-08
4.92888e-09
-5.38661e-09
-1.67936e-08
-2.43762e-09
-8.81925e-09
-1.60739e-08
5.27823e-09
4.71628e-09
-1.909e-08
2.04191e-08
-1.10676e-08
-1.79718e-09
1.03273e-08
-1.60362e-08
-7.95689e-09
8.53264e-09
1.9937e-08
-1.93862e-09
1.13018e-08
-1.18008e-08
1.80646e-08
-2.53898e-08
-1.83273e-08
-4.30679e-09
1.07088e-08
-7.55682e-09
4.08853e-09
-7.24057e-09
9.22572e-09
-3.47569e-10
1.83068e-09
3.71401e-09
8.17617e-09
4.74237e-09
-1.66326e-08
7.14986e-09
8.24687e-09
-1.16827e-08
8.04479e-09
1.33669e-08
-1.32355e-08
-5.66453e-09
2.08592e-08
9.56757e-09
-1.2382e-08
9.02079e-09
-3.56832e-09
-1.36397e-09
1.18805e-08
6.36601e-09
1.06091e-08
4.9495e-09
-5.99106e-09
1.78814e-09
8.47343e-09
7.95616e-09
-3.27762e-09
7.78613e-09
6.55832e-09
-9.77495e-10
-1.09942e-09
1.3835e-08
1.36095e-08
-1.18655e-08
6.21221e-09
9.07841e-09
1.18121e-09
1.20109e-09
-1.14608e-08
-1.46653e-09
2.36389e-09
8.181e-09
1.45806e-09
5.8937e-09
-8.44202e-10
-6.5076e-09
1.45841e-09
-5.03618e-09
4.75893e-09
-7.2173e-09
9.60657e-09
-6.47488e-09
4.0856e-09
-7.11733e-09
-2.19325e-09
2.09324e-09
2.97384e-09
-1.83136e-08
1.65408e-08
1.18892e-08
-1.07239e-08
2.9272e-10
8.69115e-09
-6.88412e-10
1.60382e-09
-9.02409e-10
-4.75653e-09
1.44996e-08
-1.24282e-08
-2.3917e-09
1.04165e-08
-4.07783e-09
5.59761e-09
7.17942e-10
1.18453e-08
-8.84159e-09
1.29381e-08
-1.59418e-08
-2.06675e-09
-5.92543e-09
1.98376e-08
1.02089e-08
-2.55706e-08
6.52007e-09
6.67533e-09
-2.45363e-09
8.71652e-09
-5.26069e-09
1.64815e-08
-4.5455e-09
-1.50076e-08
2.15994e-08
-1.18525e-08
-1.00289e-08
1.85622e-08
7.0862e-09
-1.56195e-08
7.80871e-09
-5.09467e-09
-1.27428e-08
1.43651e-09
3.24534e-09
-1.92908e-08
1.46091e-08
1.52284e-08
3.76793e-09
-1.75598e-08
1.03167e-08
-1.51153e-08
-4.67841e-09
1.97713e-08
6.50657e-09
1.08311e-08
9.72056e-10
-1.85597e-08
-3.93649e-09
4.05001e-09
1.84462e-08
-2.37333e-09
3.585e-09
1.60711e-08
-2.91878e-09
5.41004e-09
-9.81338e-11
1.99065e-08
-3.73717e-09
1.23558e-09
1.06885e-08
3.30436e-09
2.11894e-08
-3.06398e-09
8.13026e-09
1.91643e-08
-3.48304e-10
2.31162e-08
-1.31773e-08
1.50051e-08
4.28468e-09
-6.11254e-09
-1.53118e-08
9.54289e-09
-7.40844e-09
-6.61689e-09
8.93254e-09
7.27194e-09
-9.58766e-09
-7.43875e-09
-1.70684e-09
2.5287e-09
-4.02153e-09
-1.24565e-08
1.16623e-09
4.4114e-09
7.77167e-10
4.35429e-09
7.23848e-09
1.2178e-08
1.48984e-09
-2.8349e-09
-3.04924e-09
4.39423e-09
-3.15498e-09
-1.38663e-09
6.03138e-09
-1.52365e-09
-4.46626e-09
1.47844e-08
-8.1082e-10
-1.01241e-08
3.49609e-09
8.02308e-09
-3.98413e-09
-8.06051e-09
3.52682e-09
5.27339e-09
-3.07959e-09
3.55716e-09
-4.2339e-09
-1.78052e-09
2.93478e-09
-9.02887e-09
-6.25699e-09
-7.652e-09
2.09333e-09
1.18156e-08
-3.87689e-09
-4.12979e-09
1.74964e-09
-7.84234e-09
4.29406e-09
-8.59625e-09
-3.12301e-09
-5.0229e-09
-5.63938e-09
-5.51549e-09
-4.98488e-09
5.13797e-09
5.36234e-09
-7.4184e-10
-4.88082e-09
1.0718e-10
-4.95896e-09
8.73574e-11
-8.40093e-09
-1.58094e-09
-5.78438e-09
-4.50106e-10
-5.86551e-09
-4.79969e-09
1.2942e-08
-6.46258e-10
4.34578e-09
9.0158e-09
-1.27153e-08
1.09717e-08
4.5494e-09
-1.61674e-08
-2.23439e-08
-1.25174e-08
2.2445e-08
1.24163e-08
-2.53326e-08
1.76019e-08
-1.46132e-08
-1.0196e-08
-1.37146e-09
1.94295e-08
-7.86201e-09
1.26134e-08
-5.95665e-09
-1.68527e-08
9.43039e-09
-8.12782e-09
-2.66352e-08
-4.45842e-09
4.03569e-09
-1.44696e-08
1.47797e-08
-1.41193e-08
2.12279e-08
-3.07289e-09
1.01181e-08
4.1213e-09
3.36249e-09
1.84439e-08
1.64921e-08
-7.02051e-09
-2.15146e-08
1.2043e-08
1.3146e-08
5.72037e-09
-2.37422e-09
5.65591e-09
1.16114e-08
-4.82381e-09
-5.78503e-09
1.61025e-08
-5.49369e-09
-9.15626e-09
1.41162e-08
-1.3667e-09
-2.1105e-08
1.10783e-09
7.50358e-10
-4.38209e-09
2.52386e-09
1.48012e-09
5.89874e-11
1.59218e-09
-3.13153e-09
1.31129e-09
3.03423e-09
-2.86541e-09
-1.41813e-10
3.74212e-09
-3.36243e-09
-2.3788e-10
-2.55468e-09
2.47282e-09
-5.99778e-11
2.36937e-09
1.47038e-09
-2.73192e-09
-8.01128e-12
-1.77333e-10
6.78038e-09
2.69113e-09
-4.18221e-09
-5.28933e-09
-7.99613e-10
1.14464e-09
6.43529e-09
1.95047e-09
1.04575e-09
2.73835e-09
-1.68808e-10
4.95665e-09
-2.6462e-09
7.54119e-10
-4.32924e-09
8.97376e-10
6.0738e-09
-5.09798e-09
-5.32089e-10
-8.92491e-09
-5.68334e-10
1.00254e-08
-6.15995e-09
-1.29487e-09
6.9228e-09
2.65593e-09
-7.10697e-09
-4.4738e-09
-3.18255e-09
-3.21429e-10
-3.59795e-09
6.82504e-11
8.02732e-09
-4.49751e-09
-9.99632e-10
6.6108e-09
-9.20905e-09
-2.62903e-09
-6.00593e-09
4.64181e-09
3.99322e-09
-6.97939e-09
1.16784e-09
3.70492e-09
3.93372e-09
-8.63821e-09
5.4041e-09
-1.63088e-09
3.25513e-09
-4.83041e-09
-2.37486e-09
-3.75867e-10
5.91927e-09
4.17309e-09
-6.15858e-09
4.18387e-09
-6.39441e-10
2.58496e-09
-1.66454e-09
6.70555e-09
2.49026e-09
-8.28253e-09
-7.96835e-10
8.51108e-09
-2.03543e-09
5.38243e-09
6.49263e-09
2.66432e-10
-2.5859e-09
6.99311e-09
3.68345e-09
-1.31053e-09
4.16087e-09
-9.90663e-09
2.98171e-09
8.52896e-10
6.07203e-09
-1.18328e-10
3.44335e-10
-1.01326e-08
-8.95673e-09
2.96945e-10
-4.16143e-09
1.28212e-08
5.47609e-09
-5.39469e-09
-1.99715e-10
5.14903e-09
3.30877e-09
2.22264e-09
-1.03265e-08
2.44709e-09
7.16567e-09
-9.50235e-09
-1.10401e-10
-7.00288e-09
9.01949e-09
4.30491e-10
-7.48299e-09
1.23763e-08
-4.59631e-09
7.43777e-09
7.2238e-11
6.02681e-09
4.39781e-09
5.6259e-09
-4.87093e-09
-5.15278e-09
9.14026e-09
-3.92639e-09
-8.16049e-10
6.83325e-09
-1.54742e-09
3.40064e-10
6.50194e-09
9.47158e-09
-1.20969e-08
8.7535e-10
6.08073e-09
5.14086e-09
-5.91163e-10
-9.63697e-10
-1.05421e-08
8.48122e-09
-1.85055e-09
-7.22183e-09
1.03488e-08
-8.75943e-09
6.89185e-09
-4.95296e-11
3.54533e-09
-1.0884e-08
7.38825e-09
8.17234e-09
-1.21483e-08
-3.78803e-09
9.52708e-09
-6.00882e-09
2.69772e-10
-9.78404e-09
4.64057e-09
2.72548e-10
-7.61997e-09
5.88494e-09
5.28036e-09
1.20365e-08
-9.75179e-10
-1.2025e-08
8.90639e-09
-4.48987e-09
6.07137e-09
-3.28911e-09
-1.02248e-08
2.62988e-09
-1.64717e-08
-3.33955e-10
1.35165e-08
7.07758e-09
-1.45281e-09
-7.47531e-09
-1.39478e-09
-2.87073e-10
-8.26072e-10
-1.03739e-08
6.0018e-10
-1.78979e-08
1.0588e-08
-1.14406e-08
-5.9084e-10
3.71177e-09
-4.51839e-09
-4.76353e-09
5.57017e-09
-7.83717e-10
1.31661e-09
3.17889e-09
2.10458e-09
2.37236e-10
-3.12557e-09
8.80503e-10
1.15841e-09
-4.65462e-09
2.61567e-09
-3.27688e-11
-2.70017e-09
2.77313e-09
-4.02172e-11
1.047e-09
1.25705e-09
-2.26323e-09
-4.09033e-11
4.03738e-09
-3.51129e-09
1.40185e-09
-1.92793e-09
2.77949e-10
6.7639e-09
-3.00447e-09
1.13058e-09
-4.76848e-09
4.26445e-09
-3.73874e-10
-2.76002e-09
-1.61483e-10
9.14592e-10
-1.69777e-09
-2.24207e-09
2.3473e-09
1.59249e-09
-2.69634e-09
1.15036e-09
-1.51886e-10
9.09498e-10
1.38841e-09
1.41813e-09
-1.64816e-09
-5.08808e-11
-2.72231e-09
5.34754e-09
-2.38318e-09
8.11188e-10
3.64362e-09
-2.59939e-09
1.09891e-09
-1.21805e-09
-6.12774e-09
9.31835e-10
6.41399e-09
-6.3151e-09
-3.80619e-10
5.4777e-09
-1.02301e-08
4.63232e-09
-4.92538e-09
1.05232e-08
-9.26532e-09
1.5386e-09
-2.50337e-09
2.388e-12
-6.43845e-09
3.26267e-09
3.17342e-09
-5.98416e-09
1.0399e-08
2.17438e-10
-7.12611e-09
2.20312e-09
-4.86402e-09
-1.15274e-08
-9.11526e-09
8.17831e-10
2.3133e-09
-6.33764e-09
-1.23904e-09
3.53563e-09
-2.01566e-09
-7.85759e-09
1.49241e-09
7.09295e-09
-5.04973e-09
-1.40011e-09
-3.42258e-09
-2.70235e-09
-5.1362e-09
1.78306e-09
-9.58204e-09
-4.06112e-09
3.88739e-09
-5.86197e-11
2.32339e-10
2.1455e-09
-2.49933e-09
-3.70728e-09
-9.45943e-10
4.78109e-09
5.22487e-11
4.77696e-09
1.25753e-09
-3.88901e-09
3.7682e-09
6.2798e-11
4.71832e-09
2.01427e-10
-7.41905e-09
4.5352e-09
1.24501e-10
-1.83403e-09
2.62053e-09
3.99458e-09
-6.39752e-09
5.12047e-09
5.04522e-09
-3.43907e-09
-1.70091e-09
-6.24712e-09
5.80262e-09
-7.00416e-09
7.44867e-09
-1.06788e-08
4.63313e-09
1.15302e-09
1.54814e-09
-1.66939e-09
-5.04671e-10
4.79456e-09
-8.4181e-10
4.29288e-09
1.559e-09
5.42015e-09
-7.82096e-09
1.41911e-09
7.4104e-09
-3.02691e-09
2.54415e-09
2.79807e-11
4.79886e-09
5.15569e-09
5.85318e-09
1.91056e-08
6.6326e-09
-7.84038e-09
-1.78978e-08
5.24374e-09
5.07677e-09
8.78508e-09
3.4404e-09
9.29103e-09
-8.38668e-09
1.69241e-08
-1.92669e-09
-8.36482e-09
1.16111e-08
1.05567e-08
5.47815e-09
-1.37052e-08
3.86669e-10
-7.93331e-09
1.06916e-08
-7.44282e-09
1.58079e-08
-2.93623e-09
1.23595e-08
-6.90476e-09
-7.38141e-09
1.07393e-08
6.16168e-09
1.49077e-08
-1.47413e-09
-1.06135e-08
-4.07236e-09
1.616e-08
-9.00061e-09
2.59722e-08
-1.84457e-08
-3.21097e-09
1.56085e-08
-1.93769e-08
6.97938e-09
1.03363e-08
-1.86883e-08
5.14102e-09
1.15054e-08
-9.23203e-09
1.33351e-08
-1.9743e-08
-9.68054e-11
1.08392e-08
-1.77685e-08
4.66062e-09
2.49436e-09
9.87226e-09
1.42024e-08
-3.89697e-09
-2.01777e-08
1.58489e-08
-2.15957e-08
1.6083e-08
1.63458e-09
-1.46295e-08
2.18227e-08
7.00927e-09
1.30389e-08
-1.25362e-08
-1.51322e-08
9.60182e-09
1.2124e-08
-2.21255e-08
2.76549e-08
-4.86395e-09
-4.2226e-09
-6.78351e-09
1.15449e-08
-7.87009e-09
-1.03928e-08
6.71795e-09
-5.37767e-09
-1.92047e-09
1.88431e-08
-1.1193e-08
-5.30442e-09
1.11198e-08
-1.53275e-08
-3.73553e-09
-7.27018e-09
-5.54123e-09
1.0891e-08
1.36831e-09
-1.19457e-08
3.30725e-09
-1.38169e-08
4.7924e-09
-6.61975e-10
-1.79414e-08
1.3299e-08
-2.00614e-08
5.97249e-09
1.3427e-08
5.19095e-09
-1.83506e-08
-4.78174e-09
-1.57898e-08
9.19347e-10
1.00242e-09
-7.31441e-09
-5.63374e-09
-7.03664e-09
-5.7778e-09
-1.0955e-08
1.13863e-08
3.33822e-09
-4.71502e-09
-1.69738e-08
-9.26924e-10
-1.15247e-08
-6.70025e-09
-1.56639e-08
-3.09579e-09
-8.78617e-09
1.84841e-09
-1.32637e-08
-8.56178e-09
2.37947e-09
1.54264e-08
-1.96043e-09
-1.58454e-08
1.20563e-09
-1.34126e-08
1.45865e-08
1.02861e-08
2.43516e-09
2.7051e-09
1.37315e-09
3.01686e-09
3.0136e-09
-7.40366e-09
6.67016e-09
-1.25712e-08
7.27418e-09
-5.28151e-10
1.57846e-08
-1.40508e-08
1.33927e-08
-3.4951e-10
-1.35714e-08
-8.6257e-10
6.82887e-09
-7.92674e-09
5.54829e-09
1.55882e-10
-1.2609e-08
9.56693e-10
-7.27908e-09
1.29925e-08
-1.86753e-09
5.84106e-09
-1.16211e-08
-7.57563e-09
1.19176e-08
5.89857e-09
-4.12703e-09
-2.5047e-09
-4.16797e-09
-8.06268e-09
1.17434e-08
-4.54144e-09
6.76485e-09
6.98258e-09
-8.19467e-09
1.397e-09
8.9042e-10
2.29088e-09
6.08869e-09
7.69964e-09
-6.72013e-09
-4.7674e-11
1.21399e-09
7.00829e-09
-5.22659e-10
2.29391e-09
-2.72499e-09
-1.0657e-08
1.10881e-08
-4.52652e-10
-1.0597e-08
1.33436e-08
8.90466e-09
-1.2306e-09
4.3126e-10
-5.36835e-09
-8.16069e-09
8.92204e-09
7.35992e-09
-1.11952e-08
-6.82177e-09
-3.88331e-09
6.46203e-10
-8.93179e-09
-3.11221e-09
2.50233e-09
-1.13842e-08
-5.99818e-09
-2.96945e-09
1.10774e-08
2.22375e-09
-1.03317e-08
9.23806e-09
-5.87358e-10
-1.16201e-08
4.11991e-09
8.97749e-09
-3.85934e-09
1.49323e-08
2.65031e-10
-2.34587e-09
1.89307e-08
-1.4361e-08
-1.26133e-09
1.44593e-08
-4.22049e-09
1.64664e-08
-1.67547e-08
9.92018e-09
-9.63185e-09
-6.89953e-09
1.7623e-08
5.74297e-09
-3.10027e-09
1.72201e-08
-1.64657e-08
9.63215e-09
-1.33198e-08
6.04654e-09
-1.31691e-08
-2.11435e-09
-1.20826e-08
-1.87159e-09
6.50215e-09
7.45209e-09
-1.35229e-08
2.03709e-08
-5.26553e-09
1.25468e-08
7.17806e-09
7.79518e-09
1.60312e-08
-4.88321e-09
-1.2278e-09
2.0396e-08
1.32582e-08
1.46967e-08
-2.35974e-09
1.65601e-08
-2.55017e-10
-1.60834e-09
2.29753e-08
-9.72387e-09
3.30862e-09
-3.16569e-10
-8.66025e-09
1.00076e-09
-9.5346e-09
4.0675e-10
-1.10256e-09
-1.21978e-09
-1.11251e-08
1.34475e-08
-8.09766e-09
-1.14089e-08
7.02555e-09
-4.51666e-09
-1.22413e-08
3.24317e-09
-1.32711e-08
-8.97009e-10
-9.11333e-09
2.8219e-09
1.31439e-08
-1.21706e-09
-1.30294e-08
-9.6197e-10
4.99252e-09
-1.65083e-08
4.26265e-09
8.36777e-10
-2.83818e-09
-1.48899e-08
-1.46486e-08
6.15881e-09
-1.41389e-08
3.81403e-09
-4.3237e-09
-3.38069e-11
-1.69433e-08
-1.15651e-08
2.10805e-09
-1.2816e-08
-4.56505e-09
1.81273e-09
7.46291e-10
2.00603e-09
1.18827e-09
-1.71064e-09
-4.04268e-09
-1.43275e-09
1.13962e-09
3.27048e-09
-2.97727e-09
-5.99088e-10
-2.50644e-09
5.29367e-09
-2.96577e-09
2.24734e-09
4.85907e-09
2.34196e-09
2.19298e-09
3.22103e-09
-2.52074e-09
-1.97663e-09
1.27633e-09
2.30598e-09
1.66131e-09
-3.24937e-10
-3.90642e-09
-2.89002e-10
4.8783e-09
4.12212e-09
-2.10515e-09
-2.31349e-09
4.18863e-10
3.82449e-10
1.9114e-09
-2.71266e-09
2.0646e-09
-2.1826e-09
5.36853e-10
-1.32618e-09
-2.99617e-09
-1.08971e-10
-3.61502e-09
5.9841e-10
-7.71512e-10
-8.75542e-12
4.78915e-09
-1.39496e-08
1.16355e-08
-2.47496e-09
-6.44155e-09
1.37816e-08
-2.55092e-09
1.58736e-08
-1.10021e-08
1.25633e-08
1.51469e-08
1.22734e-09
-1.21487e-08
1.34157e-08
1.12964e-08
-1.08422e-08
9.58109e-09
8.30039e-09
-3.8662e-10
-1.04019e-08
8.45423e-09
1.70946e-08
2.50622e-09
-1.1543e-08
-1.41037e-09
2.0387e-09
1.09147e-08
-3.5064e-09
-5.76052e-09
-2.27612e-09
5.95752e-09
3.0097e-09
-2.3689e-09
-6.59832e-09
9.76251e-11
2.3535e-09
1.57793e-10
-6.38632e-09
9.23823e-09
1.26307e-08
-9.77623e-09
-8.61498e-09
-2.02633e-08
2.7052e-09
1.61477e-08
-1.1412e-08
3.7794e-09
8.25038e-09
-3.46157e-09
3.61234e-09
-8.40113e-09
3.57695e-10
-1.25028e-08
-1.27248e-08
-6.92533e-09
8.23808e-09
1.21058e-10
1.0168e-08
-1.10097e-08
7.54407e-09
4.11292e-12
-3.08488e-09
-7.76708e-09
3.01158e-09
-1.53787e-08
1.68295e-09
1.75701e-08
-1.65479e-08
9.34807e-09
-8.84711e-09
8.77382e-09
-8.57849e-09
-1.16973e-09
2.71553e-09
7.03261e-09
3.18852e-09
-4.00551e-09
-2.99171e-09
7.55635e-09
2.61487e-11
6.75651e-09
1.15428e-09
-9.0806e-09
4.58122e-09
-2.70595e-09
-2.18503e-09
2.84651e-09
-1.61426e-09
9.52827e-10
1.39093e-09
1.0054e-09
1.04684e-08
1.66802e-09
-6.16458e-09
-5.97184e-09
5.03796e-09
3.44236e-09
1.98806e-09
5.90287e-11
3.46637e-09
3.25989e-09
-2.64729e-09
7.78398e-10
6.09663e-09
1.6569e-09
6.20011e-09
-2.01776e-09
-2.51423e-09
4.3631e-09
5.27941e-09
-2.01572e-09
3.79931e-09
3.01097e-09
2.04806e-09
-6.92406e-11
-2.97191e-09
3.27813e-09
5.24958e-09
-5.55583e-09
7.29734e-10
-3.53969e-09
-1.61973e-10
-2.31098e-09
1.83873e-09
6.32539e-09
2.9726e-10
2.54742e-09
2.79141e-09
-1.36395e-11
3.26609e-10
5.31143e-09
9.55194e-10
2.62016e-09
4.07323e-09
-7.24239e-09
9.18944e-09
-7.33696e-09
5.38991e-09
2.48872e-09
-9.62391e-09
-1.07225e-10
-5.48929e-09
3.594e-09
1.10847e-08
-4.7804e-09
1.77982e-09
2.39148e-09
-6.49211e-09
-5.52331e-09
-5.07502e-09
1.3717e-08
-3.16144e-09
-5.48067e-09
1.29318e-08
-6.78303e-09
-3.75729e-09
1.77793e-09
6.37347e-09
8.19681e-09
-1.54587e-09
-1.12114e-08
4.56038e-09
9.39082e-09
-6.26905e-09
-1.20896e-08
-2.36381e-09
8.22392e-09
6.2295e-09
1.66974e-09
-4.36858e-09
4.01625e-09
6.34263e-09
5.25023e-09
-9.81495e-09
8.93192e-09
-1.06268e-08
1.30131e-08
-1.13183e-08
1.39419e-08
-4.36378e-09
-4.89924e-09
-3.51331e-09
1.20065e-08
-5.98658e-09
9.31125e-09
-3.7176e-09
-5.99271e-10
-7.51093e-09
1.03402e-08
-1.7249e-08
5.07628e-09
4.49452e-09
4.80099e-09
1.09255e-08
3.59176e-09
-6.07199e-09
-2.05339e-09
4.53366e-09
-1.24233e-09
-4.18609e-09
-2.38419e-09
-7.62817e-09
3.94038e-09
5.54453e-09
-9.03293e-09
1.10424e-09
-4.03891e-09
-4.32217e-09
-7.41703e-09
1.32475e-09
4.89384e-09
-3.53538e-09
-5.18826e-09
-9.16289e-11
-2.34828e-09
-1.06571e-08
-3.56404e-09
-4.00062e-09
-3.50801e-09
9.63145e-09
5.48597e-09
-1.32181e-08
-1.89932e-09
-2.64464e-09
7.90189e-09
4.37424e-09
-1.1593e-09
5.53954e-09
-1.9598e-09
6.97111e-10
4.91103e-09
-5.27088e-09
-3.37272e-10
3.65272e-09
-3.69882e-09
7.43282e-10
5.49476e-09
2.81575e-09
-3.39921e-09
-3.26963e-09
4.17598e-09
4.58849e-09
-4.61151e-10
8.4436e-10
9.10948e-10
1.10714e-09
-7.28897e-09
-3.67228e-09
8.84414e-10
-2.03111e-09
8.18056e-09
6.07003e-10
5.79906e-09
-6.72299e-09
2.68716e-09
-1.5973e-09
1.72709e-09
-7.2238e-10
7.58556e-09
1.28289e-09
7.8722e-09
-3.35589e-09
1.21623e-08
-2.69878e-09
-2.56106e-09
-2.95025e-09
4.78901e-09
-4.48818e-09
9.18622e-09
-7.25918e-09
-4.01827e-09
6.06941e-10
5.26669e-10
-5.18169e-09
6.36755e-10
-2.4355e-09
1.01097e-08
3.83955e-09
-2.23201e-09
6.07933e-09
9.4165e-10
1.68153e-10
6.78599e-09
8.59258e-09
-7.09637e-09
-8.8922e-10
1.62855e-09
7.09162e-09
-5.0593e-11
-8.66962e-09
5.37029e-09
2.86242e-09
-9.2477e-10
-7.30799e-09
6.55815e-09
-7.84987e-09
-7.9491e-09
9.2408e-09
9.47571e-09
2.45273e-09
1.28252e-08
1.12178e-08
-1.5256e-08
-8.78708e-09
1.31995e-08
1.25423e-09
8.29506e-09
1.65897e-09
7.2828e-10
1.28556e-08
-4.10814e-09
-2.67457e-09
3.41747e-09
1.24565e-08
7.34851e-09
1.1947e-09
1.24408e-08
-1.87661e-08
1.45305e-08
1.04921e-08
-6.25645e-09
-4.93877e-09
-1.22401e-08
-1.58721e-09
4.76529e-09
1.31752e-08
-1.65112e-08
-1.42924e-09
4.76295e-09
1.45328e-08
1.25936e-08
-1.77642e-08
6.79804e-10
4.49088e-09
9.35164e-09
-1.15516e-08
1.47935e-08
-5.00943e-09
-2.21739e-08
9.40505e-09
1.77783e-08
9.73917e-10
1.33022e-08
-4.92451e-09
1.62344e-08
-1.04976e-08
-9.1902e-09
1.1064e-09
-3.46776e-09
-1.34826e-08
-1.34718e-08
-6.29252e-09
-6.17086e-09
7.52462e-09
3.5511e-09
-2.20431e-08
-1.58276e-08
1.30862e-08
-4.00949e-10
2.24981e-10
-6.23099e-09
6.4289e-09
1.55857e-10
-6.98572e-09
-9.15102e-09
8.87125e-10
4.65064e-09
-5.3128e-09
5.26543e-09
-4.22245e-09
5.92236e-09
4.79261e-09
-6.06434e-09
1.05292e-09
5.01752e-09
-1.48104e-10
4.72626e-09
-4.57356e-09
-8.66064e-11
5.13428e-09
-9.2376e-10
5.70354e-09
4.44827e-09
8.01346e-09
1.54445e-09
-6.20842e-10
1.24619e-09
-2.16983e-09
1.10222e-10
1.63325e-09
-1.99081e-10
-1.525e-09
1.78383e-09
-1.48631e-10
7.76006e-10
-2.92185e-09
2.13437e-09
-4.39033e-09
2.95239e-10
-1.58387e-09
-6.30399e-11
-1.76734e-09
2.0854e-09
-2.55063e-10
1.68416e-09
-1.1395e-10
9.41958e-10
-1.46312e-09
1.07347e-09
2.88991e-10
-2.10235e-09
-5.3255e-10
3.29534e-09
-8.65157e-10
1.38868e-09
1.36895e-09
2.9415e-09
-3.60828e-10
-3.34885e-09
-4.36298e-10
4.14595e-09
-3.97782e-09
4.53159e-09
1.18721e-09
-2.20162e-09
2.11324e-09
-2.02166e-09
-2.67537e-09
7.19167e-10
-2.7647e-09
-3.79925e-09
3.21508e-09
-5.4159e-09
6.29589e-10
-2.58253e-09
3.33346e-09
2.44947e-09
-2.23344e-09
-2.81544e-09
4.366e-10
-1.88769e-10
-2.54226e-09
-1.86186e-09
1.82148e-09
-1.91529e-09
-1.90394e-10
-3.16849e-09
-2.26691e-09
-1.18855e-09
-4.26439e-10
-2.18428e-09
-1.85237e-09
-4.75209e-09
-1.62434e-09
-6.63909e-10
-1.67722e-09
-1.86248e-09
-2.98189e-10
-4.72268e-09
-4.20886e-09
2.32588e-09
-2.25252e-09
6.60197e-09
-6.67532e-09
9.15427e-09
-9.40959e-10
-5.88742e-09
6.37099e-09
3.24453e-10
-8.94794e-09
1.50629e-10
-5.90127e-09
-1.35123e-09
7.10188e-09
-3.56802e-09
-5.48199e-10
4.26685e-09
-1.20367e-09
4.23764e-09
4.01913e-09
3.93146e-09
2.15017e-09
-1.68044e-09
3.18253e-09
7.533e-09
-1.03911e-08
9.13132e-09
-6.88975e-09
-5.30141e-09
6.23137e-09
-4.10475e-10
-5.1947e-10
8.65611e-09
1.02707e-09
-4.25375e-09
-6.43053e-09
7.57404e-10
9.92688e-09
-3.99075e-09
8.39313e-09
-7.94464e-09
6.66236e-09
-5.24384e-09
1.55156e-09
-1.76195e-09
5.03547e-10
-2.93122e-10
-1.64405e-09
2.22196e-09
9.73674e-10
-4.21195e-10
2.59325e-09
-2.24498e-09
7.29632e-11
1.8374e-09
-2.12945e-09
-1.2912e-10
1.88956e-09
-1.9267e-09
-1.72479e-09
3.09557e-10
-6.40189e-11
-2.14839e-09
2.67116e-09
2.07049e-09
-1.43566e-12
5.32486e-10
4.11843e-10
1.27765e-09
1.48522e-10
7.6332e-11
-2.35427e-09
4.96108e-10
-2.5925e-09
-4.51581e-10
-4.72075e-09
2.81826e-09
2.35407e-09
2.57492e-09
-4.47482e-09
1.44832e-09
7.12697e-09
-1.61805e-11
-8.87669e-10
-6.2231e-09
-1.32981e-09
3.73602e-09
1.83858e-10
-8.33787e-10
3.22485e-09
-9.04297e-10
-2.6853e-09
-2.0878e-09
-9.39521e-11
2.24921e-09
3.52034e-10
-2.20239e-09
-3.9443e-09
5.26702e-10
-3.60844e-09
-4.86638e-09
6.15713e-09
4.01132e-09
-6.42679e-09
-3.74161e-09
7.25401e-09
2.01126e-09
-3.10809e-09
2.41438e-09
-7.53499e-10
-1.04362e-08
8.77539e-09
1.4753e-09
-7.74429e-09
8.68341e-09
-5.5715e-09
3.51647e-09
9.30904e-09
-2.24815e-09
6.87961e-10
8.02393e-10
-7.98265e-09
2.24701e-10
9.5109e-09
-8.26033e-09
1.15059e-08
-1.39016e-09
-9.89108e-09
-1.13133e-08
9.78375e-09
1.10404e-08
4.52951e-09
-4.33685e-09
-2.4347e-09
1.263e-08
-6.67882e-09
5.04016e-09
-5.62794e-09
-6.10576e-09
1.34548e-08
-2.3665e-09
7.90239e-10
4.25512e-10
7.49344e-09
-5.43064e-09
5.63248e-09
-7.69532e-09
-2.52523e-09
8.32902e-09
1.68957e-09
-4.93129e-09
3.71865e-09
-1.31271e-09
-1.62572e-09
-8.73623e-09
5.1444e-09
-4.22694e-09
-2.81932e-09
1.90183e-09
3.6924e-09
4.89313e-10
-9.59239e-10
-3.22254e-09
-8.41704e-10
2.1669e-09
2.36717e-09
2.16514e-09
2.13751e-09
-8.0732e-09
5.26939e-09
1.11328e-08
-5.43129e-10
-1.89758e-09
4.65032e-09
-4.42357e-10
-1.29554e-09
-1.1025e-09
-1.8289e-09
-5.39006e-09
3.12231e-09
2.02116e-09
2.46549e-10
-1.93797e-09
-9.79184e-10
5.08398e-09
-3.18216e-09
3.40929e-09
8.94051e-09
-4.1241e-10
-3.31288e-09
1.23355e-09
3.03283e-09
-3.60544e-09
-6.60992e-10
8.51467e-10
2.7865e-09
-2.40448e-09
-1.61905e-09
-7.0273e-10
2.11925e-09
-1.54753e-09
-2.72957e-10
-2.98779e-10
-3.3074e-09
-2.78647e-09
3.22461e-09
-4.69146e-09
-1.26283e-09
-3.39465e-09
1.48965e-09
1.76103e-09
-2.12284e-09
-9.29983e-10
-9.55347e-11
-8.19556e-11
3.46277e-09
3.5107e-09
-1.46649e-08
4.58085e-09
-1.22431e-08
-9.36479e-10
-8.32126e-09
-8.62484e-09
7.63777e-09
-4.79938e-09
-6.66069e-09
3.8223e-09
1.13191e-09
6.60793e-09
-1.02067e-10
-2.32342e-09
-4.60234e-09
5.43827e-09
1.48751e-09
-4.53135e-09
3.33985e-09
4.94046e-09
-5.16113e-09
-4.31068e-09
5.37855e-11
2.84337e-10
7.40208e-09
-5.32147e-09
-7.33125e-09
5.25065e-09
8.3607e-09
-2.07775e-09
1.11915e-09
2.42844e-09
-9.72518e-10
-6.61705e-09
4.91669e-09
1.50865e-09
-3.9969e-09
4.76584e-09
2.04641e-10
1.73414e-09
-7.50602e-09
6.07547e-09
-1.21853e-09
-3.34829e-09
5.63495e-09
5.20638e-09
-4.80587e-09
-5.65206e-09
-5.69736e-10
7.46968e-09
-1.2478e-09
-2.13784e-09
5.74937e-09
5.26362e-10
2.76312e-10
4.00899e-09
-1.55225e-09
5.10048e-09
2.92594e-09
5.9807e-09
5.12766e-09
-4.96903e-09
-7.49872e-10
5.27648e-09
1.98613e-09
-8.85224e-10
-6.06995e-09
-2.06714e-09
-3.32397e-09
5.46579e-09
-7.46676e-11
5.04511e-09
4.31552e-10
-6.22655e-09
-4.3891e-09
5.0479e-09
4.38633e-09
3.75303e-10
-4.62605e-09
-1.38342e-10
5.91549e-09
-1.8295e-09
-8.74477e-11
-3.99858e-09
-5.32537e-09
5.50158e-09
5.73926e-09
-5.16874e-09
1.13439e-09
6.3959e-10
3.2739e-09
4.80295e-09
1.60791e-09
9.87732e-10
-7.25978e-09
5.38682e-09
-5.87583e-09
5.95819e-09
-5.34028e-10
4.51667e-10
-1.13106e-09
-4.8322e-09
-4.29876e-09
1.23186e-09
3.70649e-09
-4.07321e-09
1.4974e-10
6.63289e-09
5.5717e-10
4.47211e-09
-4.61545e-09
-1.35125e-10
4.7579e-09
3.51746e-09
2.66193e-09
-1.09373e-08
3.21391e-09
6.04519e-09
-4.50118e-09
1.26267e-08
8.4187e-09
-1.75279e-08
7.02191e-09
1.23651e-08
-6.76026e-09
4.70947e-09
3.95967e-09
-6.00721e-09
-3.19161e-09
-2.33568e-09
8.77857e-09
-3.25125e-09
5.79916e-09
-4.28128e-09
1.37824e-09
6.17843e-09
-3.59701e-09
7.42332e-09
-2.83116e-09
1.90855e-09
-1.24598e-08
1.57183e-10
1.03941e-08
-6.32598e-10
9.11244e-09
-6.57126e-09
1.09407e-08
2.1264e-09
9.42046e-09
-3.33744e-09
1.25794e-08
9.2061e-09
-5.43874e-09
7.00623e-09
7.21113e-09
-6.47337e-10
1.00777e-09
-4.58362e-09
5.84158e-09
6.16537e-09
9.47507e-10
-4.08164e-09
2.56257e-09
1.92259e-09
1.08141e-08
8.29625e-09
4.21247e-09
5.60314e-09
-8.8963e-09
-9.19309e-10
9.10431e-09
-4.44306e-09
-4.48788e-10
8.94027e-09
-2.98889e-09
-3.48247e-10
5.35363e-09
8.74978e-09
-1.36973e-08
-4.06064e-10
-8.6714e-09
1.38401e-08
1.84947e-10
-8.75841e-09
1.70322e-08
4.75963e-10
3.51628e-10
-2.89568e-09
2.95775e-09
-4.13717e-10
-3.41117e-09
-4.27151e-09
-6.71053e-10
-8.58196e-09
6.29364e-09
-1.12284e-09
5.66657e-09
-8.84228e-09