/*--------------------------------*- C++ -*----------------------------------*\
| =========                 |                                                 |
| \\      /  F ield         | OpenFOAM: The Open Source CFD Toolbox           |
|  \\    /   O peration     | Version:  v1612+                                |
|   \\  /    A nd           | Web:      www.OpenFOAM.com                      |
|    \\/     M anipulation  |                                                 |
\*---------------------------------------------------------------------------*/
FoamFile
{
    version     2.0;
    format      ascii;
    class       volVectorField;
    location    "239";
    object      U;
}
// * * * * * * * * * * * * * * * * * * * * * * * * * * * * * * * * * * * * * //

dimensions      [0 1 -1 0 0 0 0];

internalField   nonuniform List<vector> 
16902
(
(0.0112712 0.0699968 -0.540003)
(0.0815671 0.0394563 -0.421008)
(0.193984 0.33207 -0.968767)
(0.286427 0.0648696 -0.682765)
(0.298117 0.233477 -0.86083)
(-0.0378804 0.214519 -0.52879)
(-0.0401334 0.221274 -0.570148)
(-0.0331652 0.203626 -0.504701)
(-0.0214196 0.222529 -0.568911)
(-0.0288074 0.227483 -0.57482)
(-0.0393777 0.19413 -0.468064)
(-0.0279222 0.219317 -0.542693)
(-0.0250859 0.200469 -0.537078)
(0.0146263 0.2198 -0.450137)
(-0.0235238 0.213703 -0.517881)
(-0.0295807 0.213085 -0.50451)
(-0.0290581 0.236176 -0.577791)
(-0.031045 0.205116 -0.520764)
(-0.0186641 0.202652 -0.492765)
(0.0140898 0.217049 -0.520488)
(-0.0214756 0.193723 -0.408128)
(-0.00842774 0.202572 -0.443568)
(0.00801541 0.219281 -0.473322)
(-0.0140464 0.211459 -0.436)
(-0.0131154 0.202395 -0.47647)
(-0.0209839 0.237139 -0.575884)
(0.0145862 0.224276 -0.509571)
(0.255559 0.0609407 -0.76077)
(0.245427 0.0712979 -0.769525)
(0.218969 0.145427 -0.837915)
(0.265306 0.0311463 -0.729029)
(0.291101 0.0594479 -0.730072)
(0.289638 0.0344389 -0.697287)
(0.216584 0.18051 -0.86716)
(0.239095 0.190222 -0.870228)
(0.254796 0.0797196 -0.767552)
(0.316316 0.119202 -0.783364)
(0.330595 0.0823684 -0.744486)
(0.323166 0.114152 -0.782511)
(0.320033 0.133781 -0.805593)
(0.297828 0.118586 -0.784121)
(0.309097 0.0707388 -0.726606)
(0.309473 0.0262614 -0.67704)
(0.18094 0.329571 -0.997878)
(0.246147 0.288875 -0.945803)
(0.228659 0.312423 -0.951506)
(0.244738 0.269411 -0.936197)
(0.198706 0.326316 -0.994374)
(0.342211 0.212354 -0.851615)
(0.296572 0.260097 -0.908985)
(0.340951 0.239107 -0.867801)
(0.348876 0.287433 -0.889914)
(0.295756 0.309589 -0.869569)
(0.355992 0.261212 -0.849158)
(0.312282 0.279846 -0.867592)
(0.31446 0.288164 -0.901846)
(0.366701 0.226578 -0.804705)
(0.0290905 0.140206 -0.198703)
(0.0241917 0.136924 -0.185539)
(0.0213967 0.131688 -0.156294)
(0.0342972 0.139084 -0.259084)
(0.0344168 0.141199 -0.268925)
(0.0288262 0.139405 -0.225383)
(0.0261571 0.138971 -0.246627)
(0.0282254 0.146364 -0.259091)
(0.0295982 0.145913 -0.258026)
(0.0264178 0.142541 -0.210961)
(0.0212926 0.140836 -0.21061)
(0.0263643 0.145033 -0.175492)
(0.0219332 0.14679 -0.187168)
(0.0178221 0.13845 -0.155178)
(0.0149019 0.134705 -0.158839)
(0.0526272 0.0564256 -0.334345)
(0.0391939 0.070556 -0.317669)
(0.0576104 0.0614912 -0.309931)
(0.040733 0.0758339 -0.427949)
(0.0423253 0.0836146 -0.476465)
(0.0383856 0.0713563 -0.295658)
(0.0549647 0.078663 -0.489991)
(0.0590139 0.0640155 -0.359864)
(0.0710624 0.0524161 -0.343182)
(0.0398084 0.0820586 -0.388462)
(0.0597292 0.0824151 -0.462316)
(0.0442947 0.0740659 -0.31126)
(0.0534126 0.0863424 -0.396456)
(0.0808412 0.275216 -0.674848)
(0.105388 0.272588 -0.68518)
(0.0947649 0.33181 -0.817974)
(0.118449 0.330549 -0.829427)
(-0.0383746 0.14548 -0.680475)
(-0.0264406 0.119817 -0.636995)
(-0.0314551 0.178658 -0.768054)
(-0.0202382 0.144409 -0.712303)
(-0.0571615 0.231299 -0.855431)
(-0.0283032 0.18541 -0.838708)
(-0.00608108 0.0867435 -0.632732)
(-0.0140338 0.160875 -0.787634)
(0.00235546 0.109497 -0.72671)
(0.00899841 0.0701048 -0.638318)
(0.146702 0.209285 -0.340073)
(0.156657 0.215835 -0.317941)
(0.170083 0.227194 -0.361696)
(0.162154 0.232954 -0.400102)
(0.113282 0.191872 -0.266755)
(0.1359 0.203396 -0.277542)
(0.112766 0.19211 -0.30144)
(0.141095 0.227709 -0.377434)
(0.0982185 0.21944 -0.461213)
(0.0961897 0.224124 -0.424369)
(0.125485 0.213981 -0.314331)
(0.0514471 0.188448 -0.398238)
(0.0589973 0.193648 -0.391135)
(0.0881813 0.186659 -0.274298)
(0.0853138 0.186533 -0.302802)
(0.0894896 0.1979 -0.316779)
(0.0348205 0.280301 -0.672752)
(0.0596469 0.279877 -0.648721)
(0.0349239 0.255208 -0.585621)
(0.0533188 0.276134 -0.622507)
(0.0554329 0.251311 -0.555499)
(-0.0223144 0.318184 -0.777649)
(-0.0381451 0.314974 -0.767471)
(-0.0483409 0.296525 -0.748699)
(-0.00332404 0.243348 -0.598355)
(0.0215108 0.251025 -0.545562)
(-0.0027282 0.250208 -0.576432)
(0.0418454 0.240576 -0.538165)
(0.03558 0.274891 -0.596958)
(0.0268712 0.285132 -0.667376)
(0.160568 0.276365 -0.960836)
(0.100414 0.315253 -0.988889)
(0.0872941 0.333148 -1.01438)
(0.0850585 0.361864 -1.03319)
(0.230621 0.241388 -0.919514)
(0.207161 0.233459 -0.910795)
(0.172939 0.286385 -0.949518)
(0.081886 0.315595 -0.983455)
(0.079176 0.353912 -1.03915)
(0.160496 0.315782 -0.974078)
(0.136278 0.327044 -0.980807)
(0.149465 0.319614 -0.989119)
(0.193898 0.287796 -0.970356)
(0.187628 0.259316 -0.938911)
(0.207636 0.291818 -0.975502)
(0.232361 0.258835 -0.939044)
(0.0406704 0.208272 -0.507926)
(-0.0111562 0.233892 -0.656717)
(-0.00978825 0.228867 -0.6238)
(-0.0105143 0.163959 -0.478417)
(-0.00951858 0.204142 -0.546808)
(0.0457925 0.229837 -0.54477)
(-0.00922625 0.234234 -0.644148)
(-0.00922538 0.238497 -0.65647)
(0.0258392 0.220433 -0.561481)
(0.0398745 0.219639 -0.546086)
(0.00778076 0.225529 -0.533565)
(-0.00335461 0.164893 -0.424551)
(0.0123152 0.178365 -0.457105)
(0.00392638 0.181302 -0.490051)
(0.023178 0.364751 -0.969691)
(0.0188044 0.363474 -1.02576)
(0.0293647 0.347905 -1.0836)
(0.0320572 0.307294 -1.01437)
(-0.00984753 0.337178 -0.968577)
(-0.0136327 0.33982 -0.948128)
(-0.00539086 0.342951 -0.926964)
(0.049038 0.315077 -1.05455)
(0.040538 0.35388 -1.06598)
(0.0269107 0.312017 -0.938479)
(0.0461701 0.298277 -1.00535)
(0.026771 0.324141 -0.997339)
(0.0468884 0.315213 -0.9882)
(0.0546446 0.315311 -1.04137)
(0.0637159 0.347679 -1.08852)
(0.0617792 0.352618 -1.10185)
(0.00572233 0.367728 -1.05699)
(0.011874 0.349894 -0.973357)
(0.0241094 0.374109 -1.07582)
(0.0436919 0.388267 -1.1184)
(0.0541464 0.341911 -1.03873)
(0.0639444 0.336509 -1.10255)
(0.054796 0.365481 -1.11127)
(-0.105486 0.381555 -1.07599)
(-0.122912 0.407511 -1.11401)
(-0.131044 0.408024 -1.09129)
(-0.123548 0.426825 -1.15296)
(-0.120672 0.36989 -1.04307)
(-0.114506 0.36909 -1.02807)
(-0.146543 0.412933 -1.09295)
(-0.141661 0.395324 -1.05404)
(-0.141278 0.388673 -1.05762)
(-0.139258 0.403227 -1.11139)
(-0.11989 0.388695 -1.08892)
(-0.122387 0.397805 -1.08388)
(-0.159349 0.398488 -1.07632)
(-0.169084 0.417802 -1.12733)
(-0.155292 0.386499 -1.0401)
(-0.135203 0.422343 -1.10834)
(-0.0320343 0.186131 -0.909632)
(-0.00337364 0.167764 -0.895309)
(-0.07439 0.291894 -1.01978)
(-0.0778511 0.279528 -1.011)
(-0.0917845 0.291099 -0.997532)
(-0.0992004 0.312472 -1.03142)
(-0.0753497 0.253719 -0.958355)
(-0.0111899 0.194078 -0.951595)
(-0.0063703 0.178948 -0.928117)
(-0.0426381 0.210201 -0.908211)
(-0.0202849 0.19756 -0.893696)
(-0.0802921 0.273646 -1.02984)
(-0.0451479 0.27517 -1.00038)
(-0.0481033 0.264735 -0.977159)
(-0.0632342 0.300358 -1.04866)
(-0.0124123 0.179518 -0.480794)
(-0.00938398 0.186516 -0.479001)
(-0.00432641 0.179293 -0.41188)
(-0.00553064 0.150893 -0.380231)
(0.00476909 0.15473 -0.45218)
(0.00445985 0.140031 -0.368823)
(-0.01763 0.187594 -0.544276)
(-0.0126572 0.205549 -0.516739)
(0.000942529 0.17231 -0.462163)
(-0.00136424 0.14092 -0.423485)
(0.00522991 0.169816 -0.54274)
(0.00771158 0.181783 -0.566563)
(0.0471113 0.269431 -0.609021)
(0.064464 0.237075 -0.531947)
(0.129762 0.384241 -1.1122)
(0.123871 0.38749 -1.11029)
(0.101892 0.403826 -1.10036)
(0.175153 0.405653 -1.0934)
(0.188455 0.401409 -1.07387)
(0.151595 0.401801 -1.08487)
(0.0996836 0.401256 -1.14204)
(0.0528156 0.416224 -1.12263)
(0.141555 0.393566 -1.13314)
(0.165361 0.400995 -1.12079)
(0.136502 0.40326 -1.09835)
(0.168118 0.413718 -1.10623)
(0.206625 0.40623 -1.08152)
(0.15761 0.421625 -1.10513)
(0.169656 0.435287 -1.1143)
(0.0658541 0.404426 -1.15362)
(0.13112 0.419437 -1.16408)
(0.169672 0.425538 -1.1546)
(0.122299 0.417384 -1.1203)
(0.195371 0.405856 -1.09916)
(0.0987754 0.417565 -1.11307)
(0.131992 0.417673 -1.13298)
(0.160538 0.260152 -0.636415)
(0.129409 0.245532 -0.568398)
(0.24625 0.251825 -0.689216)
(0.289591 0.234313 -0.673146)
(0.159888 0.256127 -0.576019)
(0.122685 0.240329 -0.553786)
(0.144437 0.25936 -0.591838)
(0.287228 0.2851 -0.543403)
(0.296313 0.287517 -0.550885)
(0.346276 0.275523 -0.528305)
(0.196395 0.252406 -0.63876)
(0.26896 0.245491 -0.651402)
(0.279195 0.262303 -0.521403)
(0.218926 0.274207 -0.530501)
(0.270164 0.261761 -0.506911)
(0.334488 0.264238 -0.482199)
(0.287228 0.269616 -0.566215)
(0.0644716 0.269765 -0.443386)
(0.0673122 0.276762 -0.415555)
(0.044381 0.249281 -0.479697)
(0.100679 0.295013 -0.469)
(0.058765 0.254543 -0.447685)
(0.000804953 0.202926 -0.352132)
(0.0191034 0.218721 -0.343434)
(0.0369131 0.252676 -0.379318)
(0.0558366 0.254058 -0.411805)
(-0.00371729 0.184928 -0.377539)
(0.0116492 0.190222 -0.35254)
(0.00818535 0.213431 -0.417744)
(0.228812 0.442168 -1.15652)
(0.220816 0.457433 -1.14658)
(0.129535 0.418983 -1.16269)
(0.0978576 0.438859 -1.16314)
(0.14599 0.408269 -1.16974)
(0.165777 0.396326 -1.17467)
(0.113795 0.417522 -1.12436)
(0.134756 0.410788 -1.14778)
(0.173026 0.437941 -1.17993)
(0.148723 0.453616 -1.16876)
(0.0929137 0.462011 -1.15197)
(0.120382 0.447785 -1.17519)
(0.173709 0.45605 -1.14436)
(0.19816 0.463898 -1.1476)
(0.164246 0.46638 -1.15557)
(0.214152 0.425722 -1.1496)
(0.147871 0.41838 -1.18941)
(0.171853 0.405313 -1.18215)
(0.145567 0.44091 -1.16994)
(0.19243 0.297785 -0.302501)
(0.193337 0.307589 -0.293456)
(0.186653 0.292536 -0.268202)
(0.129586 0.257331 -0.215696)
(0.156695 0.252829 -0.200174)
(0.177 0.266172 -0.244906)
(0.174166 0.262907 -0.223947)
(0.152611 0.290455 -0.372159)
(0.156547 0.295565 -0.366585)
(0.160508 0.301886 -0.356654)
(0.166103 0.271944 -0.231366)
(0.136571 0.272043 -0.239979)
(0.135739 0.261058 -0.236172)
(0.149567 0.286228 -0.317014)
(0.128108 0.270758 -0.300359)
(0.175669 0.218675 -0.709134)
(0.228555 0.198217 -0.632328)
(0.144542 0.233855 -0.730453)
(0.202549 0.214221 -0.608452)
(0.19284 0.223096 -0.705301)
(0.21614 0.20828 -0.733878)
(0.29661 0.174015 -0.499336)
(0.290119 0.190732 -0.524754)
(0.286771 0.167587 -0.599947)
(0.268898 0.190869 -0.613145)
(0.267996 0.176939 -0.539511)
(0.30637 0.144129 -0.470597)
(0.305018 0.146711 -0.559752)
(0.317264 0.125288 -0.491436)
(0.180995 0.209079 -0.704611)
(0.189131 0.210737 -0.710783)
(0.229161 0.194978 -0.68246)
(0.30689 0.184208 -0.538264)
(0.314135 0.138023 -0.611209)
(0.316168 0.134381 -0.558265)
(0.212159 0.202971 -0.720024)
(0.318012 0.141708 -0.576442)
(0.315686 0.258893 -0.902894)
(0.336661 0.237288 -0.881227)
(0.258451 0.323992 -0.981255)
(0.358148 0.167111 -0.818188)
(0.353667 0.209699 -0.86913)
(0.239947 0.288849 -0.953528)
(0.353291 0.247016 -0.892215)
(0.348881 0.283122 -0.909074)
(0.321663 0.297974 -0.943893)
(0.372875 0.238718 -0.874269)
(0.346736 0.237032 -0.896602)
(0.169609 0.432859 -1.13467)
(0.124833 0.470384 -1.18324)
(0.179094 0.428023 -1.08692)
(0.156471 0.447922 -1.15372)
(0.166889 0.424462 -1.16026)
(0.161226 0.422422 -1.15127)
(0.18038 0.389635 -1.15757)
(0.179624 0.401959 -1.12414)
(0.13022 0.479894 -1.20438)
(0.126642 0.482226 -1.18989)
(0.123816 0.482889 -1.10549)
(0.163737 0.443154 -1.09514)
(0.115374 0.462298 -1.16918)
(0.13903 0.444056 -1.1606)
(0.109357 0.443232 -1.15085)
(0.179245 0.417878 -1.15579)
(0.115846 0.480346 -1.21419)
(0.137089 0.481685 -1.21172)
(0.187132 0.396738 -1.14576)
(0.178474 0.419773 -1.09983)
(0.125181 0.464784 -1.21091)
(0.154715 0.443749 -1.18757)
(0.175341 0.424209 -1.12761)
(0.182278 0.430138 -1.13286)
(0.114116 0.288351 -0.32368)
(0.112292 0.293869 -0.301078)
(0.118265 0.291856 -0.234974)
(0.115743 0.278803 -0.240524)
(0.146951 0.268901 -0.191778)
(0.113784 0.262516 -0.201867)
(0.0522076 0.257171 -0.275655)
(0.0695582 0.276741 -0.288726)
(0.101208 0.278248 -0.288199)
(0.0676936 0.244702 -0.253684)
(0.0583557 0.240842 -0.248649)
(0.105939 0.283408 -0.197784)
(0.0902618 0.253204 -0.17454)
(0.120237 0.287672 -0.220056)
(0.101324 0.256522 -0.191998)
(0.103834 0.258046 -0.184379)
(0.0740665 0.273172 -0.211144)
(0.0619087 0.247384 -0.192556)
(0.0767953 0.245451 -0.190978)
(0.0616652 0.241343 -0.201265)
(0.226037 0.235894 -0.602359)
(0.224366 0.222798 -0.511495)
(0.0722483 0.248511 -0.668289)
(0.058488 0.24699 -0.694316)
(0.157789 0.234713 -0.555268)
(0.10624 0.246008 -0.696114)
(0.0762276 0.2388 -0.622243)
(0.0752408 0.238886 -0.645757)
(0.145367 0.238925 -0.698504)
(0.120525 0.241821 -0.70262)
(0.153335 0.23733 -0.663358)
(0.221205 0.233076 -0.60648)
(0.211423 0.225534 -0.534693)
(0.174344 0.226369 -0.536758)
(0.198311 0.231011 -0.633422)
(0.125742 0.244568 -0.627266)
(0.420146 0.235243 -0.560693)
(0.414839 0.223563 -0.594417)
(0.419067 0.225891 -0.561509)
(0.430634 0.212447 -0.654089)
(0.427918 0.218105 -0.594444)
(0.410443 0.2386 -0.60637)
(0.424822 0.239593 -0.577944)
(0.429196 0.246607 -0.562394)
(0.423665 0.226099 -0.677444)
(0.416109 0.240373 -0.749201)
(0.343433 0.251493 -0.714427)
(0.352372 0.251009 -0.700167)
(0.431378 0.260268 -0.585065)
(0.408334 0.263027 -0.631365)
(0.412995 0.247801 -0.681562)
(0.357486 0.288788 -0.702621)
(0.324709 0.277177 -0.668998)
(0.376763 0.284171 -0.607356)
(0.339866 0.271754 -0.64986)
(0.349755 0.277846 -0.661716)
(0.0166763 0.279024 -0.756489)
(0.0113922 0.271911 -0.745523)
(-0.0356763 0.272664 -0.635288)
(0.0560552 0.267809 -0.70796)
(0.0338481 0.277529 -0.740839)
(-0.0147299 0.261506 -0.64476)
(-0.0215728 0.246843 -0.628385)
(-0.00540687 0.235829 -0.607481)
(0.0435108 0.261105 -0.661106)
(0.0231477 0.230441 -0.579703)
(0.0333467 0.25683 -0.661299)
(-0.0100312 0.326715 -0.953776)
(-0.0135305 0.368044 -1.02898)
(-0.040429 0.363608 -1.0313)
(-0.0465637 0.314615 -0.921473)
(-0.0186114 0.368743 -1.09881)
(-0.0106685 0.370051 -1.06805)
(-0.0317019 0.319528 -0.923317)
(-0.017757 0.373977 -1.04141)
(-0.0508506 0.328539 -0.944464)
(-0.0149093 0.380655 -1.07312)
(-0.0200794 0.339691 -0.962947)
(-0.0314587 0.307902 -0.895219)
(-0.0236745 0.348114 -0.978912)
(-0.0244378 0.314928 -0.89799)
(-0.0359327 0.293141 -0.836132)
(-0.0307293 0.332146 -0.931971)
(0.00864951 0.284278 -0.769779)
(0.0053737 0.28753 -0.804841)
(-0.0150524 0.300283 -0.877932)
(-0.0268937 0.301246 -0.837911)
(0.0485799 0.263707 -0.749355)
(0.0764197 0.267892 -0.71317)
(0.0283495 0.263946 -0.716784)
(-0.009827 0.303088 -0.934619)
(0.0193426 0.277786 -0.912751)
(-0.0292792 0.302725 -0.946421)
(0.0314508 0.272526 -0.862576)
(0.0699737 0.259789 -0.711388)
(0.00883394 0.259329 -0.71008)
(0.0627322 0.258294 -0.791934)
(-0.020029 0.306388 -0.917067)
(0.0311537 0.275821 -0.879365)
(-0.0107059 0.301232 -0.827898)
(0.081951 0.26499 -0.721324)
(-0.0125109 0.313314 -0.84794)
(0.038007 0.278422 -0.792312)
(0.148091 0.277845 -0.620456)
(0.0671275 0.244733 -0.62693)
(0.103877 0.270939 -0.581761)
(0.237565 0.281125 -0.750063)
(0.230601 0.290724 -0.782501)
(0.0766673 0.264592 -0.763982)
(0.144537 0.265387 -0.801019)
(0.178384 0.279399 -0.671204)
(0.0535461 0.253159 -0.627283)
(0.191419 0.293792 -0.772)
(0.188447 0.284712 -0.735295)
(0.112046 0.275301 -0.809943)
(0.152327 0.274552 -0.823179)
(0.226698 0.276537 -0.79956)
(0.116092 0.264576 -0.624219)
(0.167665 0.283379 -0.635451)
(0.20432 0.2585 -0.780256)
(0.0700955 0.276683 -0.736379)
(0.218934 0.290748 -0.657377)
(0.189917 0.272593 -0.741764)
(0.27641 0.229582 -0.598627)
(0.252009 0.236196 -0.615073)
(0.124331 0.252605 -0.785614)
(0.168552 0.241022 -0.783266)
(0.140637 0.250663 -0.679737)
(0.259931 0.217108 -0.625766)
(0.24309 0.216683 -0.715278)
(0.101641 0.257433 -0.819613)
(0.174393 0.228849 -0.784058)
(0.266947 0.204537 -0.710416)
(0.141709 0.244944 -0.771391)
(0.228895 0.222525 -0.709752)
(0.0184679 0.329525 -0.753497)
(-0.0251027 0.288206 -0.667543)
(-0.025924 0.261446 -0.642671)
(-0.000212667 0.283404 -0.698483)
(-0.005325 0.360351 -0.793802)
(-0.0422695 0.23632 -0.573463)
(-0.0188876 0.288167 -0.707278)
(-0.0506523 0.231734 -0.612515)
(-0.00441801 0.3681 -0.813743)
(-0.0335646 0.320483 -0.749974)
(-0.0390615 0.285064 -0.665917)
(-0.0602513 0.274504 -0.627841)
(0.00900377 0.372244 -0.814051)
(0.039449 0.372136 -0.839619)
(-0.0462743 0.265256 -0.632583)
(-0.00553924 0.317532 -0.722684)
(-0.00985203 0.40129 -0.849136)
(-0.0300888 0.321703 -0.743989)
(-0.0150251 0.392933 -0.849011)
(-0.0195199 0.403524 -0.825485)
(0.0039546 0.417772 -0.86661)
(0.197468 0.396829 -1.09286)
(0.236543 0.383189 -1.02847)
(0.153392 0.389176 -1.10698)
(0.161256 0.388274 -1.07259)
(0.171884 0.387794 -1.09903)
(0.217387 0.340967 -0.989205)
(0.220563 0.354282 -1.01884)
(0.206761 0.352792 -1.05238)
(0.229434 0.361049 -1.05523)
(0.110558 0.387482 -1.02762)
(0.149055 0.378012 -1.05655)
(0.136253 0.357949 -0.979496)
(0.143657 0.350546 -0.944674)
(0.148759 0.346272 -1.0152)
(0.183145 0.345739 -1.00242)
(0.221246 0.32157 -1.02133)
(0.0219232 0.159787 -0.448279)
(0.0258441 0.150225 -0.443715)
(0.0158969 0.14391 -0.303631)
(0.0363387 0.134552 -0.299051)
(0.0161249 0.151698 -0.373724)
(0.0179328 0.152106 -0.396412)
(0.0139952 0.145877 -0.275391)
(0.0454763 0.152897 -0.387603)
(0.0396622 0.15397 -0.415008)
(0.0446933 0.139302 -0.394765)
(0.0177217 0.152534 -0.333688)
(0.0325169 0.154441 -0.351406)
(0.0415765 0.140902 -0.318173)
(-0.0108856 0.20785 -0.185881)
(-0.00687098 0.21559 -0.162474)
(-0.00893277 0.232802 -0.242874)
(-0.0149763 0.205006 -0.230706)
(-0.0130053 0.209875 -0.170455)
(-0.00997283 0.20887 -0.152868)
(-0.124809 0.326684 -0.988826)
(-0.121245 0.335256 -1.00279)
(-0.121912 0.300813 -0.957665)
(-0.167308 0.390129 -1.06159)
(-0.167669 0.373702 -1.05314)
(-0.132857 0.331415 -0.935995)
(-0.15201 0.374379 -1.04647)
(-0.151572 0.375967 -1.04387)
(-0.150287 0.367905 -1.01311)
(-0.0342746 0.21863 -0.643427)
(-0.0204921 0.203557 -0.571094)
(-0.0267284 0.181312 -0.555875)
(-0.0234343 0.170176 -0.531194)
(-0.0227391 0.140242 -0.510931)
(-0.0408316 0.256869 -0.716336)
(-0.0512025 0.276958 -0.776355)
(-0.0603665 0.28396 -0.777503)
(-0.0203491 0.150177 -0.535671)
(-0.0587952 0.242347 -0.706366)
(-0.080987 0.301031 -0.855044)
(-0.0329768 0.193905 -0.604767)
(-0.0321419 0.174561 -0.638099)
(-0.0323178 0.18928 -0.64029)
(-0.0730435 0.258399 -0.761711)
(-0.0623198 0.277697 -0.819034)
(-0.0400066 0.194408 -0.648469)
(-0.0580573 0.235458 -0.757457)
(-0.0819759 0.21427 -0.82022)
(-0.0846488 0.228995 -0.8362)
(-0.0571101 0.115379 -0.67437)
(-0.0819656 0.206575 -0.814267)
(-0.0663128 0.117084 -0.64568)
(-0.0341471 0.0966898 -0.652191)
(-0.0343141 0.0876672 -0.611124)
(-0.0857542 0.227953 -0.77424)
(-0.0775657 0.23723 -0.804014)
(-0.0711527 0.147444 -0.652034)
(-0.02326 0.110315 -0.594546)
(-0.0485288 0.206828 -0.817647)
(-0.0487998 0.136294 -0.61337)
(-0.0657104 0.181095 -0.681273)
(0.419496 0.250941 -0.583882)
(0.420586 0.246954 -0.532296)
(0.398943 0.279115 -0.491223)
(0.400111 0.257296 -0.445596)
(0.360927 0.297093 -0.647539)
(0.350209 0.28378 -0.638796)
(0.405485 0.246047 -0.471484)
(0.399994 0.271802 -0.597723)
(0.382165 0.296453 -0.527553)
(0.404581 0.266944 -0.500569)
(0.353945 0.0826024 -0.827788)
(0.398203 0.0723011 -0.733747)
(0.387492 0.0846949 -0.775343)
(0.377589 0.109766 -0.723499)
(0.369076 0.0652629 -0.791963)
(0.311451 0.0778766 -0.841216)
(0.370432 0.100256 -0.72459)
(0.371473 0.0935354 -0.733736)
(0.248366 0.150109 -0.895612)
(0.264653 0.138111 -0.914853)
(0.268691 0.138028 -0.945626)
(0.211506 0.179266 -0.992538)
(0.317057 0.0858139 -0.871562)
(0.316274 0.167686 -0.79195)
(0.175933 0.215 -0.944624)
(0.227175 0.207651 -0.828695)
(0.276509 0.154581 -0.875215)
(0.223123 0.193496 -0.952814)
(0.199151 0.224208 -0.953879)
(0.265221 0.183216 -0.844501)
(0.250314 0.172771 -0.893751)
(0.176766 0.196412 -0.965895)
(0.188845 0.204475 -0.890155)
(0.270607 0.37182 -0.6544)
(0.24338 0.376711 -0.659804)
(0.291674 0.375289 -0.641669)
(0.324143 0.370186 -0.647003)
(0.193925 0.32848 -0.664971)
(0.165761 0.327611 -0.65123)
(0.303694 0.378503 -0.675302)
(0.268386 0.363939 -0.640699)
(0.299876 0.353294 -0.673452)
(0.167969 0.310672 -0.668184)
(0.191504 0.316827 -0.735344)
(0.162446 0.321018 -0.72625)
(0.17152 0.312639 -0.72505)
(0.201701 0.332803 -0.725977)
(0.00519206 0.0788155 -0.732163)
(0.00534716 0.0523131 -0.659714)
(0.0221183 0.0691414 -0.739022)
(0.0353639 0.0522404 -0.704974)
(0.0213834 0.0315301 -0.638707)
(-0.0149155 0.105648 -0.726844)
(-0.00355443 0.0429113 -0.623808)
(-0.0450972 0.171763 -0.805643)
(-0.0550853 0.164612 -0.794116)
(0.0163108 0.104498 -0.78217)
(0.0247266 0.0711183 -0.74325)
(-0.0661154 0.207671 -0.839928)
(-0.0560053 0.180487 -0.808359)
(0.0144519 0.0418815 -0.677867)
(-0.0382391 0.138602 -0.76884)
(0.0162406 0.0298301 -0.618961)
(-0.01126 0.0512328 -0.628117)
(-0.0433969 0.177343 -0.837397)
(-0.03449 0.167211 -0.857377)
(0.00516934 0.0591803 -0.694096)
(-0.0322565 0.097617 -0.738262)
(-0.0441079 0.131282 -0.722233)
(0.193165 0.19171 -0.900366)
(0.239444 0.134431 -0.860167)
(0.200512 0.143447 -0.930816)
(0.238819 0.117949 -0.882593)
(0.111282 0.22168 -0.936181)
(0.141856 0.21425 -0.921962)
(0.253944 0.152495 -0.845057)
(0.221366 0.153776 -0.908664)
(0.132551 0.205373 -0.935959)
(0.127022 0.205709 -0.929617)
(0.201729 0.172222 -0.905604)
(0.0402777 0.309156 -1.04745)
(0.067206 0.306631 -1.04912)
(0.0519958 0.326627 -1.16691)
(0.0515543 0.317384 -1.09132)
(0.0288217 0.227768 -1.03963)
(0.0657627 0.214813 -1.04266)
(0.00438731 0.326644 -1.12324)
(0.054526 0.248897 -1.07421)
(0.0718208 0.26777 -1.05387)
(0.067355 0.240788 -1.06108)
(0.0282888 0.238004 -1.03614)
(0.0687206 0.274275 -1.0289)
(-0.0172736 0.299275 -1.10648)
(0.032801 0.255455 -1.04583)
(0.2106 0.232395 -0.921778)
(0.1943 0.224522 -0.907918)
(0.183589 0.22613 -0.917237)
(0.299952 0.192766 -0.834582)
(0.295102 0.159988 -0.819567)
(0.322192 0.173381 -0.832615)
(0.346063 0.147467 -0.790234)
(0.308377 0.124101 -0.785028)
(0.341263 0.107713 -0.759644)
(0.313553 0.202273 -0.864869)
(0.334821 0.180491 -0.834232)
(0.310845 0.192145 -0.851528)
(0.0939314 0.144846 -0.187606)
(0.0971354 0.146668 -0.168563)
(0.110589 0.161451 -0.196518)
(0.10452 0.166549 -0.223281)
(0.109407 0.185506 -0.290122)
(0.0758476 0.176134 -0.304362)
(0.0714277 0.134392 -0.162947)
(0.0853014 0.134165 -0.149811)
(0.0723125 0.13808 -0.181307)
(0.112542 0.172754 -0.211695)
(0.0677584 0.158957 -0.233252)
(0.0513715 0.148676 -0.242712)
(0.0931338 0.154977 -0.17325)
(0.0769302 0.147423 -0.172637)
(0.0206363 0.18984 -0.236458)
(0.0322976 0.209568 -0.263711)
(0.0566082 0.222152 -0.178357)
(0.027483 0.203735 -0.273991)
(0.0168851 0.169106 -0.250201)
(0.0142649 0.182441 -0.274108)
(0.0391697 0.207625 -0.17913)
(0.0645855 0.221027 -0.181873)
(0.0568194 0.201356 -0.157462)
(0.0377013 0.184789 -0.158707)
(0.0479319 0.186407 -0.145728)
(0.0514644 0.223593 -0.26039)
(0.021969 0.165826 -0.225525)
(0.028876 0.177059 -0.253996)
(0.0307378 0.180235 -0.169673)
(0.0456102 0.18837 -0.161927)
(0.0495273 0.211348 -0.223236)
(0.0491514 0.211995 -0.195166)
(0.131735 0.167232 -0.592507)
(0.181198 0.19307 -0.683216)
(0.120723 0.174565 -0.677839)
(0.0932892 0.174478 -0.617222)
(0.109371 0.155089 -0.593163)
(0.123482 0.170786 -0.617824)
(0.151232 0.178781 -0.639008)
(0.0950125 0.179705 -0.669963)
(0.119095 0.216066 -0.76184)
(0.143946 0.221479 -0.779241)
(0.130313 0.252642 -0.75294)
(0.11221 0.204904 -0.741933)
(0.132613 0.266138 -0.823584)
(0.0829341 0.218758 -0.735576)
(0.169005 0.248318 -0.793659)
(0.169292 0.283167 -0.859985)
(0.0353617 0.125539 -0.253831)
(0.0326154 0.129446 -0.241205)
(0.0615444 0.125706 -0.359854)
(0.0569314 0.116401 -0.305949)
(0.0409271 0.115529 -0.256154)
(0.0404854 0.119565 -0.231911)
(0.0578456 0.121684 -0.323322)
(0.0518927 0.121738 -0.252214)
(0.0297412 0.13906 -0.260554)
(0.0489034 0.114416 -0.306805)
(0.0499276 0.115533 -0.367146)
(0.0443113 0.127175 -0.468535)
(0.0624215 0.13053 -0.478032)
(0.046624 0.127194 -0.478041)
(0.045002 0.126342 -0.449402)
(0.058029 0.142074 -0.417259)
(0.0442087 0.142302 -0.410461)
(0.0385956 0.142211 -0.30783)
(0.0395939 0.134902 -0.322529)
(0.0480541 0.12878 -0.318441)
(0.0428809 0.115539 -0.286975)
(0.0432708 0.125606 -0.368522)
(0.0426055 0.121699 -0.362159)
(0.0697168 0.12994 -0.459615)
(0.232306 0.134045 -1.058)
(0.218728 0.164778 -1.08871)
(0.186249 0.211068 -1.09283)
(0.177185 0.226049 -1.10549)
(0.237042 0.145411 -1.0654)
(0.241606 0.138169 -1.02904)
(0.212765 0.161137 -1.07114)
(0.175045 0.269309 -1.13249)
(0.191158 0.222942 -1.0926)
(0.185951 0.242734 -1.13258)
(0.198528 0.210202 -1.08582)
(0.201842 0.204365 -1.09368)
(0.220473 0.154574 -1.05491)
(0.221986 0.206767 -1.08624)
(0.242046 0.174553 -1.03536)
(0.229948 0.158286 -1.03488)
(0.0818251 0.29769 -0.423535)
(0.0974811 0.320232 -0.439232)
(0.128574 0.343062 -0.406082)
(0.117919 0.333591 -0.382329)
(0.122938 0.326075 -0.26148)
(0.144126 0.355612 -0.288498)
(0.123811 0.356143 -0.28019)
(0.114833 0.342362 -0.268322)
(0.0669691 0.297371 -0.424128)
(0.0437719 0.269193 -0.394373)
(0.147738 0.384519 -0.368912)
(0.101515 0.313002 -0.258059)
(0.157873 0.334637 -0.234063)
(0.0856289 0.336985 -0.324288)
(0.0652137 0.316063 -0.311123)
(0.112274 0.344543 -0.386566)
(0.0563524 0.290637 -0.321492)
(0.0692138 0.325363 -0.218077)
(0.0419033 0.313545 -0.266215)
(0.0655364 0.341619 -0.283022)
(0.0807512 0.328121 -0.196439)
(0.0360897 0.296171 -0.193319)
(0.0354306 0.296779 -0.219441)
(0.0513007 0.30424 -0.22169)
(0.0545362 0.295437 -0.18702)
(0.0543435 0.292393 -0.158111)
(0.0722289 0.307268 -0.175656)
(0.164712 0.493365 -1.01202)
(0.179167 0.437039 -0.96809)
(0.128929 0.410757 -0.928195)
(0.160769 0.465345 -1.00203)
(0.322832 0.317592 -0.775736)
(0.318078 0.326493 -0.749539)
(0.413406 0.334329 -0.683495)
(0.389455 0.336161 -0.70907)
(0.423565 0.30967 -0.705599)
(0.417913 0.319764 -0.675717)
(0.330146 0.349656 -0.67046)
(0.304004 0.351069 -0.682167)
(0.406214 0.320542 -0.717104)
(0.413247 0.315443 -0.644843)
(0.426413 0.318944 -0.62433)
(0.363079 0.330487 -0.722035)
(0.371848 0.34199 -0.619305)
(0.406823 0.330873 -0.623482)
(0.353138 0.345691 -0.697766)
(0.0653599 0.261319 -0.781529)
(0.0417209 0.253793 -0.828052)
(0.202767 0.167316 -0.563461)
(0.0660413 0.243417 -0.730356)
(0.169532 0.159696 -0.65225)
(0.149377 0.2141 -0.623333)
(0.178331 0.392196 -0.399131)
(0.196454 0.389799 -0.414613)
(0.204392 0.354416 -0.283441)
(0.201776 0.387227 -0.323477)
(0.212001 0.38466 -0.304464)
(0.211185 0.366727 -0.280807)
(0.239071 0.419877 -0.463839)
(0.217687 0.413986 -0.471828)
(0.183041 0.385941 -0.459317)
(0.197946 0.40163 -0.314965)
(0.181829 0.405032 -0.375002)
(0.229944 0.393993 -0.345794)
(0.295289 0.416274 -0.408495)
(0.281057 0.416559 -0.425911)
(0.244554 0.402084 -0.333547)
(0.260742 0.388028 -0.333004)
(0.271647 0.431469 -0.39591)
(0.279087 0.392655 -0.37233)
(0.271272 0.3953 -0.355507)
(0.0661875 0.309996 -0.860871)
(0.084746 0.314522 -0.877155)
(0.0339024 0.335905 -0.912066)
(0.0195761 0.340566 -0.98501)
(0.109992 0.286758 -0.776344)
(0.118302 0.317955 -0.823627)
(0.134189 0.279467 -0.727435)
(0.155616 0.280991 -0.727537)
(0.137746 0.282309 -0.77749)
(0.0976707 0.324326 -0.93944)
(0.157153 0.328746 -0.829432)
(0.07841 0.330482 -0.918386)
(0.0747586 0.326036 -0.901022)
(0.0618277 0.325676 -0.925673)
(0.13825 0.296801 -0.760989)
(0.17316 0.265776 -0.698766)
(0.186934 0.276557 -0.750505)
(0.202805 0.264048 -0.708232)
(0.0764005 0.32209 -0.936091)
(0.0872285 0.333639 -0.926276)
(0.155621 0.319204 -0.830074)
(0.177878 0.561517 -1.08901)
(0.166262 0.541537 -1.01132)
(0.160616 0.54918 -1.04714)
(0.153947 0.496872 -1.15675)
(0.14645 0.484234 -1.16506)
(0.140882 0.520571 -1.17251)
(0.130931 0.359569 -0.230197)
(0.179886 0.368739 -0.768128)
(0.184085 0.370462 -0.799139)
(0.215811 0.408682 -0.868877)
(-0.00237709 0.18406 -0.199221)
(0.000689329 0.176765 -0.17887)
(0.00386626 0.18354 -0.175455)
(-0.00832893 0.19078 -0.193828)
(0.397653 0.355839 -0.725668)
(0.387463 0.339157 -0.80131)
(0.385685 0.338587 -0.757133)
(0.251394 0.329894 -1.04649)
(0.234572 0.351754 -1.07635)
(0.248246 0.330911 -1.06251)
(0.232676 0.354002 -1.11038)
(0.0107152 0.188319 -0.140869)
(0.0129207 0.198994 -0.149274)
(0.184761 0.336517 -0.26781)
(0.170201 0.332754 -0.240527)
(0.199221 0.483692 -1.16723)
(0.194612 0.505309 -1.14394)
(0.189091 0.480445 -1.16561)
(0.137385 0.244949 -0.609452)
(0.11193 0.222056 -0.562252)
(0.424082 0.282051 -0.696526)
(0.420274 0.264328 -0.756575)
(0.22564 0.323285 -1.12185)
(0.232903 0.302897 -1.10054)
(0.0285829 0.145455 -0.239527)
(0.028628 0.150329 -0.253932)
(0.0324314 0.145534 -0.30904)
(0.248308 0.2905 -0.79055)
(0.254251 0.27541 -0.810573)
(0.219003 0.261701 -0.727724)
(0.131661 0.26794 -0.220436)
(0.0945638 0.227318 -0.174432)
(0.0810641 0.222913 -0.159523)
(0.213443 0.36549 -1.14872)
(0.209689 0.370383 -1.1526)
(0.202522 0.404104 -1.15492)
(0.40426 0.199741 -0.821931)
(0.419208 0.190292 -0.7482)
(0.405487 0.192818 -0.817939)
(0.0366039 0.129337 -0.143588)
(0.0299738 0.115523 -0.13266)
(0.0342546 0.120823 -0.1278)
(0.122861 0.125685 -0.485582)
(0.100103 0.131976 -0.422532)
(0.106237 0.113656 -0.456792)
(0.303338 0.166796 -1.02868)
(0.279969 0.193739 -1.04181)
(0.27146 0.207517 -0.739268)
(0.278145 0.227266 -0.776937)
(0.21409 0.251338 -0.265266)
(0.199955 0.235727 -0.236451)
(0.176052 0.230981 -0.217424)
(0.402773 0.134366 -0.802322)
(0.423096 0.140182 -0.740669)
(0.28385 0.442766 -1.08322)
(0.264584 0.454975 -1.12613)
(0.277783 0.443505 -1.08739)
(0.253911 0.447057 -1.12016)
(0.110443 0.0617054 -0.465835)
(0.0852023 0.0762167 -0.353647)
(0.101503 0.0771841 -0.394704)
(0.24952 0.148436 -1.05697)
(0.278265 0.121231 -1.01077)
(0.0595425 0.133261 -0.132612)
(0.0826088 0.157556 -0.157105)
(0.0729388 0.144485 -0.136097)