/*--------------------------------*- C++ -*----------------------------------*\
| =========                 |                                                 |
| \\      /  F ield         | OpenFOAM: The Open Source CFD Toolbox           |
|  \\    /   O peration     | Version:  v1612+                                |
|   \\  /    A nd           | Web:      www.OpenFOAM.com                      |
|    \\/     M anipulation  |                                                 |
\*---------------------------------------------------------------------------*/
FoamFile
{
    version     2.0;
    format      ascii;
    class       volVectorField;
    location    "200";
    object      U;
}
// * * * * * * * * * * * * * * * * * * * * * * * * * * * * * * * * * * * * * //

dimensions      [0 1 -1 0 0 0 0];

internalField   nonuniform List<vector> 
18894
(
(0.0253761 0.558865 -0.138209)
(0.0327061 0.794158 0.0246371)
(-0.165506 0.927037 0.200938)
(-0.152209 0.889793 0.204565)
(-0.15366 0.985072 0.209911)
(-0.151263 0.850462 0.184762)
(-0.14803 0.827751 0.174512)
(-0.151574 0.97513 0.203552)
(-0.154587 1.01041 0.198471)
(-0.135461 0.859259 0.189396)
(-0.124384 0.883912 0.188911)
(-0.148887 0.907956 0.187067)
(-0.141341 0.901354 0.179479)
(-0.121753 0.791031 0.162527)
(-0.159095 0.885626 0.101639)
(-0.149156 0.839826 0.0841667)
(-0.159159 0.890849 0.0907788)
(-0.153911 0.898917 0.0766624)
(-0.16532 0.900697 0.109344)
(-0.155958 0.865675 0.103647)
(-0.149434 0.892577 0.0885928)
(-0.137551 0.874067 0.067383)
(-0.108958 0.711315 0.00140135)
(-0.142142 0.879232 0.0869277)
(-0.117105 0.777852 0.0573757)
(-0.0858403 0.671608 0.0271048)
(-0.081629 0.668733 -0.0205994)
(-0.0758751 0.630709 -0.0158326)
(-0.0880161 0.71464 0.0434197)
(-0.111418 0.747256 0.0330225)
(-0.102356 0.707969 0.0216098)
(-0.0942872 0.684752 0.0152266)
(-0.0875607 1.02448 -0.0481076)
(-0.0806865 1.0263 -0.0467694)
(-0.0753625 1.01942 -0.0394609)
(-0.0756739 1.04813 -0.0391889)
(-0.0587531 1.03083 -0.0375495)
(-0.0909961 1.0414 -0.0409896)
(-0.0976369 1.04529 -0.041479)
(-0.0682173 1.03291 -0.0313788)
(-0.0545403 1.00237 -0.0225836)
(-0.0510745 1.02042 -0.0300428)
(-0.0626185 1.00423 -0.0390496)
(-0.0687054 1.03784 -0.0225542)
(-0.0578686 1.02512 -0.00987749)
(-0.0492057 0.958461 -0.0340067)
(-0.0122593 0.593246 0.0531677)
(-0.0328828 0.62366 0.0599143)
(-0.0313012 0.655559 0.0594142)
(-0.0481637 0.69849 0.0674629)
(-0.0310004 0.636362 0.0705419)
(0.0185222 0.571274 0.0657234)
(0.026689 0.559252 0.0762924)
(0.0111583 0.564761 0.0681317)
(0.00663958 0.577221 0.0601284)
(0.0132308 0.583416 0.0889332)
(0.0150589 0.57039 0.0777792)
(-0.000308037 0.608987 0.0927278)
(0.00788294 0.62076 0.0919324)
(-0.0494721 0.75335 0.0884477)
(-0.0409262 0.75143 0.0988743)
(-0.0196488 0.655619 0.0700257)
(0.0120884 0.605774 0.0709307)
(0.0112709 0.619964 0.0909744)
(-0.020035 0.666237 0.0931455)
(-0.039896 0.739113 0.0876451)
(-0.011171 0.637667 0.104055)
(-0.0108052 0.638736 0.0982889)
(-0.0160608 0.681027 0.0892763)
(-0.223941 0.91548 0.152184)
(-0.224631 0.949053 0.166732)
(-0.210911 0.901113 0.137524)
(-0.215293 0.881638 0.115757)
(-0.233181 0.968219 0.167253)
(-0.213672 0.924953 0.140135)
(-0.236164 0.966427 0.178504)
(-0.245909 0.961389 0.163098)
(-0.249574 0.944269 0.147722)
(-0.25299 0.972734 0.162903)
(-0.245631 0.95586 0.14859)
(-0.254571 0.979957 0.157535)
(-0.241567 0.945395 0.12717)
(-0.23775 0.927111 0.126172)
(-0.22798 0.978786 0.172664)
(-0.243678 0.986023 0.181662)
(-0.250161 0.981183 0.148284)
(-0.245906 0.987301 0.16737)
(-0.204582 1.01643 0.0820855)
(-0.196056 0.962483 0.0755922)
(-0.208414 1.05849 0.139321)
(-0.206642 1.05444 0.13034)
(-0.210115 0.983006 0.0949007)
(-0.215667 1.05751 0.128106)
(-0.209827 1.01646 0.110885)
(-0.215229 1.02809 0.0985908)
(-0.201728 1.04807 0.0941461)
(-0.206198 1.05847 0.107919)
(-0.201018 1.0382 0.123794)
(-0.199915 1.04594 0.113204)
(-0.211336 1.00291 0.0712872)
(-0.203518 1.05753 0.133178)
(-0.201079 1.03599 0.133571)
(-0.195718 0.996138 0.103393)
(-0.201307 1.02519 0.0903101)
(-0.20768 1.04757 0.100564)
(-0.201496 1.05115 0.10261)
(-0.191616 1.04706 0.119842)
(-0.204982 1.0371 0.104694)
(-0.19465 0.995472 0.0930486)
(-0.209359 1.05327 0.113443)
(-0.104237 0.817001 -0.0718095)
(-0.106323 0.775986 -0.0818845)
(-0.100766 0.858553 -0.0650336)
(-0.0966626 0.952717 -0.058731)
(-0.104687 0.947646 -0.0658717)
(-0.0951336 0.89536 -0.0703844)
(-0.0938058 0.873624 -0.0829442)
(-0.0993646 0.907206 -0.0758993)
(-0.0954458 0.625919 -0.135468)
(-0.0910949 0.604064 -0.129144)
(-0.0892658 0.626857 -0.135828)
(-0.0945114 0.664621 -0.12138)
(-0.0871335 0.795516 -0.093454)
(-0.106867 0.840456 -0.0764652)
(-0.0926835 0.807221 -0.100884)
(-0.10053 0.714516 -0.133508)
(-0.111939 0.628959 -0.140633)
(-0.0988604 0.614589 -0.142087)
(-0.0924389 0.703157 -0.124211)
(-0.0863766 0.771907 -0.116643)
(-0.100849 0.70824 -0.114177)
(-0.0829619 0.579392 0.00399808)
(-0.0857901 0.589725 0.0158848)
(-0.0599215 0.531884 0.00296712)
(-0.0525964 0.516875 0.00571768)
(-0.0891187 0.624033 0.024557)
(-0.097995 0.622385 0.00893837)
(-0.114105 0.667732 0.0185082)
(-0.0340735 0.591117 0.014228)
(-0.0281709 0.564967 0.00255014)
(-0.050853 0.523837 -0.00239108)
(-0.0303623 0.509782 0.0101683)
(-0.0462529 0.582991 0.0217148)
(-0.0262298 0.506076 0.0108625)
(-0.0708328 0.621206 0.0237529)
(-0.0869728 0.646812 0.0172571)
(-0.0214444 0.581878 0.0216621)
(-0.0169041 0.546888 0.00413652)
(-0.0401987 0.55667 -8.47915e-05)
(-0.0376305 0.512456 -0.00524155)
(-0.0243159 0.503048 -0.000576201)
(-0.0181248 0.54547 0.0190172)
(-0.0637528 0.642824 0.0284804)
(-0.0410257 0.583775 0.0183869)
(-0.117896 0.593413 0.0402746)
(-0.128573 0.603924 0.0536954)
(-0.139055 0.71677 0.0733403)
(-0.127059 0.680081 0.0708977)
(-0.0966386 0.553675 0.0487863)
(-0.106369 0.576405 0.0409907)
(-0.108238 0.647758 0.0673788)
(-0.102731 0.66503 0.0706459)
(-0.138222 0.644217 0.0593908)
(-0.121596 0.703498 0.0739977)
(-0.0697454 0.554801 0.0549915)
(-0.0824462 0.54952 0.0482222)
(-0.0862271 0.59323 0.0599344)
(-0.0829814 0.61624 0.0646866)
(-0.0908973 0.60918 0.0500967)
(-0.0840924 0.63505 0.0650413)
(-0.127678 0.700695 0.0640525)
(-0.112614 0.690288 0.0695275)
(-0.15016 0.734817 0.0634677)
(-0.149191 0.697948 0.0560298)
(-0.10831 0.639336 0.050872)
(-0.126139 0.628784 0.0458596)
(-0.155531 1.06773 -0.0738078)
(-0.146463 1.08462 -0.0779286)
(-0.152248 1.0477 -0.0926609)
(-0.147262 1.01864 -0.0911109)
(-0.143809 1.09021 -0.0520853)
(-0.136838 1.08094 -0.0702611)
(-0.149281 1.05423 -0.0929095)
(-0.148402 1.01989 -0.0836842)
(-0.13711 1.07018 -0.0888199)
(-0.151023 1.07331 -0.0996765)
(-0.140317 1.07822 -0.0739733)
(-0.153475 1.0697 -0.0596955)
(-0.148948 1.09767 -0.0565363)
(-0.15168 1.08485 -0.0865776)
(-0.150811 1.07657 -0.0885096)
(-0.123511 1.05414 -0.089599)
(-0.143844 1.07806 -0.101045)
(-0.131179 1.04655 -0.0766638)
(-0.128574 1.05822 -0.0830776)
(-0.0868414 0.702082 0.173946)
(-0.0818366 0.683463 0.172499)
(-0.119893 0.792926 0.176475)
(-0.0997104 0.753545 0.179707)
(-0.119767 0.771454 0.166639)
(-0.0875708 0.681329 0.176557)
(-0.072412 0.641156 0.169731)
(-0.151512 0.853749 0.198739)
(-0.129494 0.792086 0.199977)
(-0.0997314 0.722852 0.18694)
(-0.164461 0.865828 0.200803)
(-0.126315 0.76941 0.199054)
(-0.0884814 0.673218 0.174323)
(-0.1128 0.754761 0.180358)
(-0.128509 0.787919 0.179196)
(-0.142234 0.82973 0.188841)
(-0.114932 0.78193 0.19566)
(-0.193884 0.959766 0.128514)
(-0.189777 0.960458 0.128496)
(-0.186835 0.959492 0.109979)
(-0.203379 1.03758 0.142165)
(-0.201572 0.994483 0.132066)
(-0.192105 0.995062 0.120664)
(-0.197871 1.05941 0.145962)
(-0.206882 1.03478 0.156687)
(-0.185285 1.01855 0.138938)
(-0.185283 1.06457 0.188015)
(-0.187589 1.06535 0.167624)
(-0.191815 1.04699 0.165191)
(-0.191168 1.04786 0.169646)
(-0.199713 1.02028 0.152767)
(-0.188289 1.06495 0.175939)
(0.0471373 0.399155 -0.0335164)
(0.0421762 0.428426 -0.0266652)
(-0.0103567 0.496814 -0.0283628)
(0.032759 0.423063 -0.0407231)
(0.047501 0.395578 -0.0393271)
(0.0193826 0.445144 -0.0279222)
(-0.0294032 0.518289 -0.0212434)
(0.0210217 0.441709 -0.0381858)
(0.0278278 0.424742 -0.0337373)
(-0.233631 1.03934 0.158574)
(-0.227015 1.0564 0.166205)
(-0.237799 1.0706 0.169877)
(-0.233688 1.07681 0.173307)
(-0.241608 1.06619 0.168804)
(-0.233112 1.07647 0.172309)
(-0.231854 1.00163 0.13786)
(-0.2274 0.995914 0.138097)
(-0.226304 1.07938 0.169482)
(-0.246734 1.04699 0.160682)
(-0.235429 0.986363 0.1352)
(-0.229741 1.0069 0.139928)
(-0.236689 1.0657 0.159957)
(-0.242294 1.0043 0.143155)
(-0.0943528 0.648004 0.089046)
(-0.0590482 0.562678 0.0793411)
(-0.0377225 0.503144 0.0734864)
(-0.0464432 0.50374 0.0640714)
(-0.0241713 0.489611 0.0612146)
(-0.0227621 0.452948 0.0613191)
(-0.0839548 0.572148 0.0524473)
(-0.0545227 0.581534 0.0744842)
(-0.0213151 0.462209 0.0581128)
(-0.0212474 0.47624 0.052147)
(-0.0654268 0.543791 0.0521368)
(-0.0520451 0.763077 0.0927922)
(-0.0562873 0.762015 0.0762249)
(-0.0431812 0.770137 0.0854784)
(-0.0432281 0.799565 0.0967143)
(-0.0348251 0.691027 0.0661788)
(0.01766 0.65163 0.0755511)
(0.0276205 0.583312 0.0654251)
(0.0376757 0.57202 0.0686959)
(-0.0175536 0.741035 0.104946)
(-0.00847343 0.651615 0.0953795)
(-0.0410292 0.771769 0.06866)
(-0.00947273 0.710064 0.0894931)
(0.000555248 0.633188 0.0681375)
(0.0188309 0.607886 0.0835135)
(-0.000512519 0.663576 0.098239)
(0.00561554 0.595942 0.0796867)
(-0.208194 0.949343 0.204771)
(-0.202744 0.961857 0.197673)
(-0.207246 0.952771 0.197247)
(-0.198015 0.91951 0.206642)
(-0.18847 0.885403 0.205987)
(-0.210031 0.931648 0.208271)
(-0.225433 0.969459 0.201999)
(-0.227087 0.978905 0.199054)
(-0.204223 0.955855 0.197752)
(-0.188816 0.939697 0.20633)
(-0.241758 1.00046 0.203385)
(-0.237609 0.981654 0.162628)
(-0.241161 0.987458 0.172385)
(-0.215862 0.969603 0.187667)
(-0.204468 0.956231 0.200488)
(-0.244749 1.00799 0.194191)
(-0.23283 0.997235 0.196663)
(-0.1686 0.979522 0.223875)
(-0.17546 0.990166 0.226543)
(-0.149329 0.898436 0.225625)
(-0.151918 0.934501 0.228715)
(-0.176574 0.960668 0.234449)
(-0.152857 0.937592 0.223829)
(-0.173013 0.959747 0.219875)
(-0.177364 0.941914 0.220992)
(-0.166869 0.890144 0.214006)
(-0.156116 0.873239 0.213815)
(-0.161878 0.851421 0.214093)
(-0.159494 0.873927 0.232292)
(-0.152356 0.882786 0.231257)
(-0.142226 0.813908 0.205237)
(-0.168388 0.839676 0.209093)
(-0.158078 0.81817 0.206145)
(-0.14452 0.793035 0.198072)
(-0.168095 0.893436 0.246643)
(-0.159571 0.868892 0.232357)
(-0.155404 0.841042 0.218434)
(-0.116373 0.898971 0.0574497)
(-0.116584 0.944961 0.0740961)
(-0.139341 1.0584 0.0541283)
(-0.111763 0.935881 0.0673162)
(-0.127405 1.03501 0.106287)
(-0.128894 1.08345 0.0564323)
(-0.133868 1.03832 0.0521885)
(-0.142581 1.04738 0.0902641)
(-0.141902 1.0506 0.0689199)
(-0.123191 0.948496 0.0872617)
(-0.130642 1.07123 0.0706195)
(-0.13759 1.0684 0.0802087)
(-0.113892 0.971881 0.0787708)
(-0.127379 1.07205 0.0748143)
(-0.0146124 0.530006 -0.0479431)
(0.0109631 0.486416 -0.0797061)
(0.0203772 0.449746 -0.0845486)
(-0.0166512 0.550014 -0.0540698)
(-0.00395213 0.516961 -0.0631004)
(-0.0270686 0.588151 -0.0588338)
(-0.0352379 0.607165 -0.0588332)
(-0.0472413 0.600533 -0.0470905)
(-0.0371487 0.584175 -0.0553853)
(0.0131442 0.483645 -0.0816859)
(0.013948 0.458499 -0.0697309)
(0.0268978 0.414925 -0.0801103)
(-0.0104674 0.531382 -0.0668448)
(-0.0578965 0.612474 -0.0469452)
(0.0247423 0.457016 -0.0782589)
(0.0339137 0.39957 -0.0739925)
(0.0330662 0.424088 -0.07871)
(0.00686151 0.467858 -0.0604483)
(0.025981 0.422579 -0.0714372)
(-0.0218188 0.541629 -0.0521046)
(-0.0987316 0.529312 0.0663641)
(-0.0910654 0.474175 0.056338)
(-0.106792 0.535781 0.0626839)
(-0.0577573 0.435752 0.0622127)
(-0.0464597 0.392911 0.0539568)
(-0.0546017 0.400173 0.0489325)
(-0.0421442 0.427513 0.0591656)
(-0.0520493 0.446468 0.0599874)
(-0.076047 0.508811 0.0677255)
(-0.084069 0.510175 0.062952)
(-0.0822063 0.476842 0.055719)
(-0.0661625 0.503217 0.0667293)
(-0.0700528 0.515016 0.0701467)
(-0.0434544 0.409637 0.05711)
(-0.0318507 0.36466 0.0516567)
(-0.0549726 0.439899 0.0665418)
(-0.0423121 0.383261 0.0446929)
(-0.0308891 0.363269 0.0474746)
(-0.0374149 0.40545 0.056384)
(-0.0465015 0.413892 0.0482871)
(-0.135456 1.05295 0.158934)
(-0.146202 1.06424 0.159475)
(-0.143377 1.07261 0.153674)
(-0.134853 1.04436 0.140356)
(-0.12787 0.976374 0.152869)
(-0.127609 1.03199 0.147842)
(-0.165746 1.07641 0.114589)
(-0.157408 1.0537 0.130432)
(-0.130771 1.0554 0.159014)
(-0.123706 0.992803 0.145134)
(-0.116418 0.908428 0.129302)
(-0.118864 0.921829 0.118993)
(-0.126876 1.03207 0.136838)
(-0.150324 1.07682 0.147551)
(-0.14337 1.07474 0.120283)
(-0.147209 1.07786 0.134507)
(-0.141157 1.03723 0.149337)
(-0.127589 1.0016 0.145728)
(-0.153288 1.06697 0.125321)
(-0.126114 1.02209 0.122726)
(-0.130338 0.988738 0.133037)
(-0.128587 0.998958 0.138074)
(-0.165046 0.846853 0.000235893)
(-0.161912 0.850858 0.00436871)
(-0.164369 0.858589 0.0027038)
(-0.188588 0.913114 0.0521362)
(-0.179249 0.894685 0.0195115)
(-0.168344 0.916336 0.0251612)
(-0.161284 0.88393 0.0357094)
(-0.176519 0.876129 0.0345818)
(-0.192332 0.997877 0.0527767)
(-0.202642 1.00001 0.0616173)
(-0.179223 0.912794 0.0235548)
(-0.167403 0.884824 0.00118236)
(-0.167633 0.892678 0.0144376)
(-0.165378 0.898448 0.00747546)
(-0.183464 0.929998 0.020882)
(-0.17714 0.85443 0.0310526)
(-0.180149 0.857121 0.0270138)
(-0.184899 0.91572 0.0524386)
(-0.192547 0.958454 0.0469508)
(8.59843e-05 0.722518 0.0922074)
(0.00549464 0.686096 0.093489)
(-0.0159133 0.744372 0.098553)
(-0.0151805 0.739716 0.116199)
(-0.00912538 0.712064 0.106114)
(-0.00343247 0.738234 0.0931905)
(-0.00310756 0.729856 0.0964277)
(-0.0397362 0.805013 0.0863862)
(-0.0292653 0.758185 0.111479)
(-0.028324 0.754803 0.122729)
(-0.0121352 0.681733 0.0976931)
(-0.0426751 0.823283 0.0964479)
(-0.0529824 0.850208 0.107852)
(-0.0509586 0.842689 0.126666)
(-0.0355484 0.777444 0.118271)
(-0.037909 0.811186 0.111705)
(-0.0639089 0.876284 0.110282)
(0.0701622 0.616727 -0.0360288)
(0.074513 0.587827 -0.0183843)
(0.0615764 0.695791 -0.00976487)
(0.0711707 0.625406 -0.00795934)
(0.0638408 0.653825 -0.0276335)
(0.0666776 0.63546 -0.0404887)
(0.0694623 0.607913 -0.0301079)
(0.0707956 0.596881 -0.026668)
(0.0442213 0.747761 -0.00851564)
(0.0261519 0.689386 -0.0432347)
(0.0260863 0.67629 -0.0462578)
(0.0576187 0.63625 -0.0229306)
(0.0675271 0.616865 -0.0109084)
(0.0198023 0.758043 -0.0313507)
(0.040676 0.735125 0.00128226)
(0.0552525 0.652233 -0.00666637)
(0.0115098 0.750621 -0.0287201)
(0.0030178 0.772435 -0.0228707)
(0.0147458 0.686534 -0.0441935)
(-0.075022 0.733249 -0.0304823)
(-0.0692651 0.756117 -0.0184717)
(-0.0292802 0.582122 -0.0655237)
(-0.01851 0.556018 -0.0847612)
(-0.0785124 0.742334 -0.0128097)
(-0.0733739 0.741663 -0.020384)
(-0.043126 0.635076 -0.0663771)
(-0.0276653 0.553078 -0.0751891)
(-0.0120395 0.508539 -0.0915581)
(-0.05631 0.644362 -0.0663467)
(-0.0516269 0.632191 -0.0577014)
(-0.0450473 0.600595 -0.070544)
(-0.0236908 0.514674 -0.097346)
(-0.0632638 0.78202 -0.0708061)
(-0.0625533 0.77931 -0.0771365)
(-0.0844773 0.86001 -0.093882)
(-0.0690571 0.752366 -0.0811004)
(-0.0841509 0.904716 -0.0899706)
(-0.0919248 0.942748 -0.088108)
(-0.0602418 0.710884 -0.0742535)
(-0.0984971 0.974298 -0.0739433)
(-0.0983228 0.96498 -0.085625)
(-0.094153 0.875681 -0.0920394)
(-0.0850796 0.736935 -0.0769048)
(-0.0678214 0.733943 -0.0691338)
(-0.0710491 0.630956 -0.0674431)
(-0.090577 0.860684 -0.0710936)
(-0.0955875 0.931779 -0.0810279)
(-0.0887946 0.905703 -0.0836659)
(-0.093507 0.903452 -0.0806264)
(-0.0846944 0.682909 -0.0762669)
(-0.0718575 0.628838 -0.0738878)
(-0.0782127 0.726328 -0.0719969)
(-0.0661494 0.706752 -0.0690088)
(-0.0770841 0.77236 -0.0588926)
(-0.168151 1.09113 -0.0196301)
(-0.164688 1.10361 -0.0288705)
(-0.165959 1.08788 -0.0329308)
(-0.149638 1.07967 -0.011575)
(-0.163002 1.05705 -0.0375914)
(-0.166374 1.05407 -0.0303224)
(-0.154797 1.08543 -0.0228055)
(-0.163352 1.06575 -0.0210791)
(-0.164661 1.06416 0.00824378)
(-0.168019 1.04444 0.000763599)
(-0.167492 1.04868 -0.0420478)
(-0.154078 1.07119 -0.0125163)
(-0.167721 1.01018 -0.0319188)
(-0.15625 1.01406 -0.010999)
(-0.0774118 0.536879 -0.193018)
(-0.0747061 0.486761 -0.202083)
(-0.0663584 0.65292 -0.18996)
(-0.0830039 0.722154 -0.168372)
(-0.0791165 0.693329 -0.190317)
(-0.0836058 0.576277 -0.184376)
(-0.0860812 0.51473 -0.198266)
(-0.0811597 0.458754 -0.207445)
(-0.0866433 0.671978 -0.177071)
(-0.09533 0.562233 -0.188911)
(-0.0854201 0.514567 -0.19259)
(-0.0845546 0.555871 -0.203607)
(0.030791 0.504623 -0.112374)
(0.0495345 0.42891 -0.107325)
(0.0420005 0.469191 -0.112243)
(0.0486118 0.411661 -0.107942)
(0.0506836 0.442588 -0.104935)
(0.0459136 0.480703 -0.110648)
(0.00501106 0.543073 -0.0954922)
(0.043132 0.470896 -0.104546)
(0.0434379 0.446121 -0.110827)
(0.0554419 0.38196 -0.103669)
(0.0570116 0.44642 -0.113594)
(0.0539669 0.405467 -0.10674)
(-0.00300731 0.580313 -0.103109)
(0.0275636 0.509143 -0.110985)
(0.00783898 0.546081 -0.104198)
(0.0390199 0.472394 -0.11404)
(0.00226832 0.562813 -0.10941)
(0.00754705 0.547552 -0.107617)
(-0.135525 0.986514 0.113026)
(-0.139577 1.01543 0.107941)
(-0.145891 0.9744 0.11967)
(-0.144397 0.962249 0.0808597)
(-0.131981 0.964057 0.0993873)
(-0.144081 0.98504 0.0922808)
(-0.154961 0.902516 0.070759)
(-0.136903 0.947466 0.115801)
(-0.13278 0.899487 0.103975)
(-0.143002 0.964608 0.103016)
(-0.157969 0.940352 0.0824452)
(-0.163791 0.90924 0.0954344)
(-0.157446 0.910155 0.073235)
(-0.156194 0.896536 0.0749025)
(-0.150617 0.892952 0.113397)
(-0.0583776 0.438302 0.0737206)
(-0.0588439 0.435379 0.0615185)
(-0.0702029 0.514302 0.0818184)
(-0.0870863 0.555349 0.0926005)
(-0.0518203 0.420414 0.0675547)
(-0.0502041 0.402166 0.0703302)
(-0.0527109 0.436945 0.0719652)
(-0.0515874 0.477031 0.0863028)
(-0.0635423 0.494029 0.0810298)
(-0.0627116 0.444882 0.0800606)
(-0.0833463 0.471738 0.0741554)
(-0.0933527 0.501433 0.0801988)
(-0.0824768 0.518894 0.0789257)
(-0.103914 0.589067 0.093638)
(-0.0832794 0.554013 0.0943315)
(-0.0523421 0.409526 0.0662756)
(-0.0367602 0.385677 0.0764696)
(-0.0524654 0.456185 0.0837582)
(-0.0749427 0.522531 0.0847131)
(-0.220435 1.03023 0.11688)
(-0.220004 1.01109 0.112885)
(-0.187461 0.983808 0.114735)
(-0.201566 1.02289 0.126547)
(-0.177761 0.980365 0.109259)
(-0.195495 1.01151 0.117889)
(-0.213247 1.05894 0.143153)
(-0.20888 1.03215 0.0941985)
(-0.21797 1.03277 0.102256)
(-0.202657 1.02942 0.123509)
(-0.19494 1.04125 0.120871)
(-0.220071 1.06711 0.13803)
(-0.222957 1.05566 0.136431)
(-0.217512 1.07723 0.103194)
(-0.210825 1.07277 0.12205)
(-0.21758 1.07283 0.129627)
(-0.207855 1.06368 0.11319)
(-0.201424 1.05694 0.145597)
(-0.202918 1.0976 0.156269)
(-0.202665 1.07536 0.165067)
(-0.212213 1.04876 0.138472)
(-0.207214 0.967489 0.122052)
(-0.221644 1.00141 0.129767)
(-0.213381 1.08544 0.159223)
(-0.215011 1.09055 0.178642)
(-0.215115 1.07274 0.157389)
(-0.216688 0.984344 0.134346)
(-0.229378 1.03852 0.142834)
(-0.215921 1.06457 0.170075)
(-0.216 1.06894 0.150762)
(-0.205566 1.02317 0.144572)
(-0.210751 1.06232 0.165309)
(-0.0855331 0.898615 -0.136089)
(-0.0799513 0.88603 -0.139248)
(-0.0868404 0.878033 -0.147456)
(-0.100615 0.953496 -0.109998)
(-0.106287 0.944374 -0.103732)
(-0.097008 0.893774 -0.121597)
(-0.0725883 0.841379 -0.154186)
(-0.10151 0.972641 -0.109618)
(-0.10422 0.967229 -0.0948881)
(-0.101612 0.91006 -0.100083)
(-0.0809557 0.853679 -0.142003)
(-0.0793505 0.850491 -0.145297)
(-0.102209 0.970849 -0.110735)
(-0.0951516 0.851289 -0.126971)
(-0.0969191 0.92255 -0.111386)
(-0.100967 0.927545 -0.10465)
(-0.112926 1.06753 -0.139785)
(-0.109952 1.02337 -0.113246)
(-0.110777 1.051 -0.130486)
(-0.106753 1.0252 -0.133059)
(-0.0991371 1.02393 -0.0952445)
(-0.096051 1.03679 -0.112035)
(-0.0934629 0.927617 -0.106775)
(-0.104775 0.960605 -0.105928)
(-0.20821 0.811412 0.0700436)
(-0.205992 0.838444 0.0845975)
(-0.19889 0.819063 0.0907427)
(-0.193912 0.838417 0.0865672)
(-0.211802 0.866313 0.0786424)
(-0.21017 0.834779 0.0725805)
(-0.197848 0.793954 0.0687064)
(-0.189377 0.822982 0.089388)
(-0.190958 0.838814 0.0916185)
(-0.194338 0.824352 0.0662172)
(-0.185254 0.759902 0.0552129)
(-0.195064 0.864289 0.0841653)
(-0.195322 0.770189 0.0693788)
(-0.192958 0.786736 0.0617009)
(-0.186804 0.832621 0.0918976)
(-0.192772 0.822363 0.0715699)
(-0.194271 0.784037 0.0720683)
(-0.0287231 0.671072 -0.133706)
(0.0154388 0.638388 -0.126663)
(-0.0108143 0.668061 -0.125331)
(0.0201502 0.597845 -0.133788)
(0.0344941 0.573572 -0.12791)
(0.0346224 0.581823 -0.128563)
(-0.0266635 0.661771 -0.118965)
(0.0166853 0.599615 -0.117999)
(0.0347164 0.584872 -0.117707)
(-0.157566 0.821056 0.107807)
(-0.162862 0.842188 0.10255)
(-0.155114 0.78025 0.0561486)
(-0.140221 0.780835 0.0744671)
(-0.151011 0.794458 0.0871092)
(-0.134317 0.689733 0.0574475)
(-0.120237 0.670762 0.047041)
(-0.141704 0.709749 0.0302142)
(-0.1527 0.733404 0.0474037)
(-0.133204 0.708867 0.0781537)
(-0.131131 0.711858 0.0702745)
(-0.109205 0.705457 0.0512176)
(-0.109121 0.687837 0.0573748)
(-0.0996383 0.692678 0.0071411)
(-0.112627 0.710152 0.0436469)
(-0.111823 0.715236 0.0394027)
(-0.100707 0.703176 0.0248967)
(-0.0840512 0.634425 -0.0140798)
(-0.143973 0.855301 0.0763561)
(-0.13993 0.836975 0.0647815)
(-0.133906 0.846703 0.0689192)
(-0.140036 0.768235 0.0504071)
(-0.141549 0.783809 0.0621331)
(-0.0776633 0.636025 -0.00662241)
(-0.0679133 0.624938 0.00235029)
(-0.0977515 0.721176 0.0246259)
(-0.0704146 0.660694 0.0066472)
(-0.0802017 0.668285 0.021307)
(-0.18678 0.789535 0.0659591)
(-0.169968 0.79125 0.0707854)
(-0.14627 0.759499 0.0999046)
(-0.160679 0.775801 0.100181)
(-0.151259 0.789995 0.105925)
(-0.160095 0.743272 0.0758125)
(-0.192708 0.853122 0.0964691)
(-0.183034 0.833985 0.087352)
(-0.157086 0.80068 0.104189)
(-0.164593 0.83092 0.111121)
(-0.151002 0.79411 0.110986)
(-0.171591 0.858542 0.12498)
(-0.187315 0.812223 0.0908409)
(-0.151152 0.772421 0.0864423)
(-0.154151 0.75556 0.0886177)
(-0.182885 0.857179 0.118947)
(-0.198276 0.868713 0.118836)
(-0.118745 1.05027 0.0549782)
(-0.114282 1.04974 0.0323847)
(-0.119618 1.05209 0.0329664)
(-0.0896807 0.934997 0.0345187)
(-0.0940427 0.905122 0.0280191)
(-0.112765 0.964596 0.0507672)
(-0.0831683 0.821281 0.0498272)
(-0.10701 0.900347 0.0529444)
(-0.089302 0.984416 0.0510209)
(-0.101396 0.946691 0.0427829)
(-0.0901725 0.892323 0.0326663)
(-0.100121 0.910625 0.0272011)
(-0.0758074 0.861943 0.0321205)
(-0.109002 0.912302 0.0422558)
(-0.0790619 0.794362 0.030891)
(-0.0950727 0.9139 0.0433078)
(-0.0763625 0.794942 0.026794)
(-0.0891995 0.890298 0.0461538)
(-0.0902568 0.964794 -0.0881229)
(-0.0940974 1.0068 -0.0891594)
(-0.0937789 0.992972 -0.0918916)
(-0.0996352 1.00647 -0.0725833)
(-0.0831323 0.93081 -0.0500969)
(-0.0899585 0.97823 -0.0818125)
(-0.0922063 0.933395 -0.0781619)
(-0.066337 0.820095 -0.0749286)
(-0.0947535 0.97133 -0.0670629)
(-0.0882685 0.92263 -0.0765112)
(-0.0979251 1.035 -0.0888064)
(-0.101731 1.02362 -0.0763091)
(-0.0947767 1.00583 -0.063644)
(-0.0807996 0.889846 -0.072058)
(0.0185372 0.753214 0.0492773)
(0.0276003 0.734764 0.061551)
(-0.00739936 0.789538 0.0797202)
(-0.00138691 0.744683 0.0634364)
(-0.0170242 0.839818 0.0754149)
(-0.0114684 0.811765 0.0739876)
(-0.00746766 0.803928 0.0745358)
(-0.0126896 0.842153 0.0685021)
(0.0203215 0.735754 0.0453247)
(0.021801 0.735489 0.0622408)
(-0.00424204 0.828936 0.0685414)
(0.00120936 0.793276 0.0791627)
(0.00423608 0.767302 0.0728581)
(-0.0641252 0.816632 -0.110804)
(-0.0772047 0.920083 -0.104843)
(-0.056438 0.717439 -0.0995833)
(-0.077771 0.702021 -0.0841573)
(-0.0556859 0.77928 -0.105079)
(-0.057821 0.645589 -0.0895757)
(-0.112894 0.685669 -0.0493442)
(-0.0713535 0.630886 -0.0528112)
(-0.0695695 0.641772 -0.0725389)
(-0.0897577 0.657139 -0.0665953)
(-0.0909101 0.68027 -0.0449918)
(-0.106953 0.718657 -0.0418915)
(-0.102847 0.743347 -0.0496542)
(-0.13118 0.82777 -0.0418993)
(-0.128813 0.86211 -0.029487)
(-0.11628 0.804327 -0.0198914)
(-0.102532 0.864038 -0.042766)
(-0.0854672 0.767346 -0.0581263)
(-0.0963164 0.84076 -0.0222163)
(-0.0933308 0.778397 -0.0410921)
(-0.0813248 0.67292 -0.0766151)
(-0.0901312 0.681431 -0.079308)
(-0.102657 0.857211 -0.0214688)
(-0.0922058 0.824279 -0.0554405)
(-0.0753895 0.745046 -0.0664034)
(-0.0934036 0.730846 -0.0542024)
(-0.0965766 0.721357 -0.0682954)
(-0.104499 0.894118 -0.0276941)
(-0.105622 1.04679 -0.0462242)
(-0.0822477 1.0348 -0.040837)
(-0.105644 0.987287 -0.0679755)
(-0.103593 1.03103 -0.0604298)
(-0.116548 1.02262 -0.0868169)
(-0.109595 1.02512 -0.0788186)
(-0.0807272 1.04056 -0.054979)
(-0.0872653 1.02534 -0.0676779)
(-0.0705911 1.03107 -0.0376289)
(-0.0817888 1.03405 -0.029053)
(-0.0978029 0.983999 -0.0876066)
(-0.0783942 1.011 -0.04706)
(-0.093322 0.983552 -0.0708027)
(-0.059405 0.695773 -0.0417122)
(-0.0490434 0.656343 -0.045844)
(-0.0261821 0.697984 -0.0297056)
(-0.011108 0.594024 -0.0518255)
(-0.0102318 0.642239 -0.0373474)
(-0.034447 0.690385 -0.0192968)
(-0.00726934 0.726105 -0.00393738)
(0.00386035 0.68604 -0.0168658)
(0.00764151 0.592172 -0.0447742)
(-0.0178299 0.626071 -0.0234913)
(-0.000153273 0.5963 -0.0354201)
(0.0151753 0.654166 -0.0142986)
(0.014057 0.583683 -0.029275)
(-0.156181 0.960286 0.109819)
(-0.145746 0.981913 0.145252)
(-0.144468 0.969441 0.129454)
(-0.153173 0.957368 0.102777)
(-0.164838 0.928112 0.143154)
(-0.147041 0.925447 0.139587)
(-0.168041 0.929148 0.100448)
(-0.163361 0.895218 0.134142)
(-0.147174 0.993707 0.119245)
(-0.135671 0.911602 0.114358)
(-0.153654 0.917823 0.131895)
(-0.169463 0.906606 0.0877609)
(-0.159546 0.880847 0.115958)
(-0.154793 0.888126 0.124259)
(-0.135759 0.875652 0.184993)
(-0.13517 0.854784 0.168635)
(-0.136129 0.837907 0.161429)
(-0.162959 0.89114 0.177803)
(-0.153838 0.87366 0.167619)
(-0.167147 0.921013 0.166943)
(-0.146353 0.856162 0.160105)
(-0.170673 0.917027 0.181204)
(-0.165543 0.937289 0.178213)
(-0.161841 0.91206 0.173388)
(-0.177005 0.944314 0.172475)
(-0.190712 0.981341 0.182999)
(-0.197711 1.00597 0.174405)
(-0.149782 0.949441 0.161666)
(-0.138325 0.878726 0.141121)
(-0.132704 0.794971 0.133727)
(-0.124315 0.733284 0.115866)
(-0.134831 0.796207 0.151008)
(-0.139918 0.824226 0.148698)
(-0.128818 0.831611 0.132723)
(-0.167964 1.01045 0.194411)
(-0.163689 0.935819 0.180345)
(-0.146772 0.869715 0.163987)
(-0.134207 0.8853 0.160127)
(-0.137573 0.930759 0.175288)
(-0.133384 0.815504 0.158433)
(-0.149794 0.923803 0.182645)
(-0.14187 0.906702 0.172906)
(-0.129424 0.796927 0.12877)
(-0.122771 0.732609 0.113263)
(-0.149628 0.991045 0.177967)
(-0.129208 0.808291 0.13601)
(-0.189077 0.896162 0.147259)
(-0.184301 0.90808 0.155052)
(-0.195089 0.83125 0.124206)
(-0.194165 0.824113 0.102861)
(-0.186255 0.851783 0.11477)
(-0.189613 0.929482 0.193101)
(-0.193434 0.916289 0.205465)
(-0.191519 0.783084 0.111324)
(-0.200326 0.922017 0.197101)
(-0.190934 0.870039 0.20347)
(-0.188364 0.834154 0.121066)
(-0.196838 0.89398 0.201978)
(-0.198945 0.750472 0.158476)
(-0.191664 0.780713 0.111824)
(-0.192646 0.86283 0.173181)
(-0.192048 0.831862 0.193296)
(-0.191052 0.790539 0.183611)
(-0.187121 0.799303 0.177251)
(-0.189254 0.819218 0.188695)
(-0.203526 0.922884 0.123777)
(-0.19834 0.947959 0.137195)
(-0.210629 0.992571 0.151121)
(-0.208488 0.952516 0.126363)
(-0.217116 0.935416 0.115537)
(-0.215564 0.942607 0.112024)
(-0.19933 1.0019 0.150892)
(-0.198245 0.929685 0.10948)
(-0.105943 0.524161 0.0726398)
(-0.0824875 0.473045 0.068838)
(-0.112373 0.531646 0.0767599)
(-0.130997 0.582502 0.0745945)
(-0.11797 0.574721 0.0725902)
(-0.100438 0.520922 0.0648271)
(-0.0907923 0.492018 0.0686772)
(-0.123069 0.572289 0.0762225)
(-0.134131 0.618331 0.0792314)
(-0.15082 0.612412 0.0743377)
(-0.0874 0.50841 0.0676202)
(-0.11427 0.626153 0.105287)
(-0.119004 0.642282 0.0903085)
(-0.087343 0.48768 0.0363266)
(-0.0619777 0.462423 0.0292454)
(-0.0619178 0.495141 0.0310934)
(-0.0900984 0.528607 0.0337542)
(-0.109958 0.548659 0.0363178)
(-0.111623 0.557071 0.0335619)
(-0.072973 0.479317 0.0281196)
(-0.0852676 0.521945 0.0290118)
(-0.0636042 0.463255 0.021584)
(-0.0666986 0.516308 0.02232)
(-0.0905207 0.546229 0.0266041)
(-0.0906777 0.538002 0.0278303)
(-0.118813 0.57592 0.0299806)
(-0.107829 0.560516 0.0362949)
(-0.119576 0.584269 0.0277279)
(-0.080358 0.846039 -0.10034)
(-0.07468 0.910125 -0.0843299)
(-0.0957769 0.851627 -0.115356)
(-0.0922848 0.894625 -0.0992306)
(-0.0687913 0.927761 -0.100146)
(-0.0678414 0.809621 -0.103084)
(-0.017416 0.83039 -0.0989101)
(-0.081856 0.91893 -0.101195)
(-0.0302154 0.924223 -0.0786662)
(-0.0594865 0.82463 -0.106229)
(-0.0409674 0.832531 -0.099572)
(-0.0811989 0.890969 -0.109952)
(-0.083093 0.850485 -0.115734)
(-0.0415141 0.878626 -0.101097)
(-0.100358 0.595608 0.0832845)
(-0.107525 0.64425 0.0993957)
(-0.0942562 0.644102 0.114532)
(-0.0737604 0.579503 0.101474)
(-0.136515 0.701547 0.0979364)
(-0.130366 0.660695 0.0925605)
(-0.0923554 0.582409 0.0909399)
(-0.12179 0.718154 0.135897)
(-0.110928 0.682557 0.134335)
(-0.0872562 0.599655 0.110301)
(-0.131277 0.677954 0.101014)
(-0.146792 0.704251 0.104406)
(-0.149255 0.748064 0.120264)
(-0.128246 0.713703 0.134894)
(-0.158998 0.745741 0.116592)
(-0.188587 1.0167 0.148254)
(-0.177426 0.998738 0.161497)
(-0.168455 1.01292 0.146199)
(-0.195449 1.03129 0.135422)
(-0.168276 1.00081 0.154961)
(-0.176316 0.997806 0.166762)
(-0.192539 1.01042 0.147532)
(-0.174961 0.960212 0.124697)
(-0.188524 0.991634 0.137761)
(-0.168221 1.00091 0.135003)
(-0.154162 0.992681 0.156865)
(-0.172674 0.98101 0.143307)
(-0.190535 0.986544 0.107388)
(-0.183721 0.98509 0.102823)
(-0.185806 0.964591 0.110207)
(-0.192569 0.975685 0.10561)
(-0.155837 0.990637 0.147039)
(-0.155187 0.970959 0.151171)
(-0.179367 0.964493 0.10814)
(-0.156713 0.961821 0.136178)
(-0.218264 1.01083 0.183016)
(-0.218283 1.00042 0.170957)
(-0.224885 1.02259 0.177566)
(-0.223173 1.00945 0.173342)
(-0.170641 0.912644 0.201835)
(-0.173031 0.909092 0.193869)
(-0.206429 0.994145 0.202713)
(-0.21156 0.985035 0.191829)
(-0.173565 0.860969 0.178755)
(-0.218099 1.02241 0.174229)
(-0.195714 0.99351 0.175611)
(-0.192952 0.96259 0.185342)
(-0.193856 0.940915 0.193441)