/*--------------------------------*- C++ -*----------------------------------*\
| =========                 |                                                 |
| \\      /  F ield         | OpenFOAM: The Open Source CFD Toolbox           |
|  \\    /   O peration     | Version:  v1612+                                |
|   \\  /    A nd           | Web:      www.OpenFOAM.com                      |
|    \\/     M anipulation  |                                                 |
\*---------------------------------------------------------------------------*/
FoamFile
{
    version     2.0;
    format      ascii;
    class       volScalarField;
    location    "150";
    object      p;
}
// * * * * * * * * * * * * * * * * * * * * * * * * * * * * * * * * * * * * * //

dimensions      [0 2 -2 0 0 0 0];

internalField   nonuniform List<scalar> 
17027
(
1.39119
1.2869
1.23102
1.35191
1.29647
1.26233
1.29447
1.22327
1.34156
1.45302
1.43971
1.51472
1.15345
1.21936
1.18527
1.46716
1.18682
1.42693
1.22074
1.21503
1.21335
1.25914
1.23213
1.29979
1.25173
1.26894
1.38519
1.33986
1.44066
1.35479
1.32312
1.32566
1.45798
1.38909
1.29931
1.39786
1.46886
1.34984
1.47009
1.81659
1.81805
1.81734
1.81386
1.81274
1.80766
1.80811
1.80962
1.81396
1.80392
1.80855
1.81555
1.81245
1.80868
1.81261
1.80907
1.81402
1.81119
1.66919
1.60367
1.58514
1.60122
1.68564
1.62828
1.6696
1.69839
1.58095
1.59696
1.64718
1.62765
1.61193
1.59331
1.52319
1.65497
1.58825
1.64391
1.62674
1.51205
1.54271
1.65671
1.61429
1.48766
1.5429
1.64484
1.60455
1.49985
1.54705
1.83625
1.81753
1.82898
1.84309
1.82943
1.83145
1.83414
1.82588
1.82285
1.84023
1.83579
1.83966
1.73733
1.74238
1.71128
1.71913
1.74656
1.72868
1.75537
1.75526
1.75494
1.76014
1.74117
1.70001
1.7164
1.77498
1.76688
1.76242
1.76808
1.75465
1.76962
1.76998
1.81268
1.79553
1.8029
1.79167
1.79572
1.80528
1.80659
1.80884
1.77038
1.76307
1.80664
1.79263
1.7663
1.7752
1.7799
1.78633
1.80603
1.81159
1.79781
1.77612
1.78911
1.66979
1.64411
1.58569
1.60016
1.67263
1.66691
1.59967
1.60432
1.58412
1.59689
1.63979
1.62828
1.67254
1.63203
1.61406
1.58438
1.58346
1.55111
1.59301
1.67509
1.6685
1.60376
1.58827
1.56639
1.63852
1.60157
1.66934
1.71789
1.59564
1.6916
1.68411
1.76509
1.76846
1.77849
1.78055
1.7623
1.77778
1.77659
1.77147
1.75425
1.7508
1.76973
1.75941
1.73666
1.74502
1.71616
1.69661
1.68218
1.6743
1.70475
1.76549
1.7832
1.75061
1.74101
1.70446
1.76582
1.73219
1.72243
1.79391
1.77885
1.71281
1.75718
1.7745
1.77515
1.75645
1.54388
1.55423
1.53823
1.52945
1.53975
1.52557
1.4853
1.51068
1.39116
1.44793
1.40165
1.38097
1.43279
1.39328
1.44458
1.45094
1.37274
1.43327
1.48195
1.49944
1.83572
1.84075
1.82937
1.83085
1.82939
1.83166
1.83553
1.82693
1.82342
1.83149
1.8165
1.80944
1.83013
1.80554
1.81684
1.80222
1.78104
1.77551
1.8123
1.81705
1.7907
1.80141
1.75555
1.80233
1.80102
1.74874
1.8094
1.09323
1.17561
1.12877
1.18896
1.15448
1.12417
1.13072
1.17614
1.09367
1.14582
1.14525
1.1065
1.09944
1.10093
1.15959
1.1169
1.09367
1.1394
1.75229
1.78217
1.79663
1.80862
1.77913
1.75557
1.79171
1.81511
1.73054
1.75696
1.76547
1.75798
1.78004
1.8048
1.74119
1.74065
1.77071
1.60136
1.60741
1.70929
1.67166
1.66207
1.60763
1.61316
1.60783
1.70128
1.6659
1.73258
1.70394
1.68301
1.68555
1.68601
1.70924
1.70111
1.74361
1.70712
1.71698
1.73401
1.7359
1.77162
1.77184
1.78533
1.7833
1.73339
1.76494
1.77592
1.77767
1.74088
1.75576
1.76695
1.77949
1.75505
1.77348
1.75171
1.74099
1.73512
1.7345
1.72525
1.74421
1.7296
1.71211
1.68013
1.68296
1.6896
1.7271
1.68278
1.66991
1.68267
1.65136
1.69251
1.67727
1.68781
1.63584
1.64856
1.66928
1.71402
1.73988
1.75164
1.77423
1.77716
1.65505
1.71082
1.72821
1.74979
1.77176
1.76797
1.75041
1.69361
1.64636
1.67132
1.643
1.68859
1.73149
1.70311
1.70586
1.73183
1.69834
1.6727
1.75436
1.76868
1.71399
1.70042
1.73803
1.74629
1.64213
1.6564
1.6732
1.69938
1.71559
1.35267
1.32116
1.42409
1.34278
1.3924
1.31806
1.42333
1.40849
1.39299
1.33571
1.67146
1.7094
1.6568
1.63683
1.67594
1.71164
1.74625
1.74969
1.60938
1.69257
1.66571
1.7217
1.70401
1.54617
1.48677
1.53069
1.48948
1.62169
1.63998
1.60948
1.64046
1.51486
1.53121
1.49222
1.58949
1.63581
1.62968
1.71504
1.76041
1.71546
1.7284
1.68909
1.74754
1.6866
1.63943
1.64332
1.68681
1.76819
1.68847
1.76137
1.67531
1.69605
1.70724
1.69188
1.71538
1.78565
1.80796
1.79988
1.79117
1.8085
1.76644
1.78319
1.79629
1.78467
1.77963
1.78689
1.76065
1.77197
1.80157
1.77968
1.77305
1.76427
1.67873
1.70304
1.67436
1.70277
1.74838
1.71622
1.75406
1.75895
1.72253
1.67574
1.68711
1.71741
1.70891
1.73182
1.74183
1.82105
1.81894
1.82549
1.81985
1.82729
1.83495
1.83102
1.8369
1.82987
1.8354
1.81797
1.83154
1.82402
1.83511
1.83718
1.83236
1.83081
1.83351
1.83616
1.8358
1.79698
1.77879
1.79552
1.77003
1.77701
1.76658
1.7366
1.75355
1.75351
1.76282
1.77418
1.77402
1.79339
1.78082
1.77873
1.79982
1.74409
1.81839
1.82451
1.81785
1.81977
1.80904
1.81454
1.82366
1.81005
1.83264
1.82057
1.80597
1.80777
1.8002
1.82131
1.83757
1.83994
1.84052
1.84151
1.84606
1.8399
1.84634
1.84348
1.83945
1.84442
1.84128
1.8425
1.84028
1.84339
1.83709
1.83208
1.84166
1.84204
1.78596
1.79386
1.77933
1.79983
1.77436
1.7586
1.8033
1.77845
1.7811
1.79206
1.80165
1.80472
1.80312
1.76989
1.8073
1.78521
1.78011
1.71619
1.68323
1.6942
1.68788
1.62364
1.66238
1.69432
1.65048
1.69287
1.63064
1.64262
1.593
1.58576
1.65465
1.64147
1.58293
1.57775
1.66891
1.69648
1.71168
1.67701
1.66252
1.4073
1.29873
1.33632
1.40131
1.42203
1.40282
1.22016
1.28727
1.26496
1.17178
1.25971
1.27669
1.37367
1.18916
1.33679
1.25671
1.28749
1.22678
1.18484
1.75119
1.74857
1.7733
1.77917
1.79067
1.77394
1.74108
1.78223
1.76037
1.76948
1.77918
1.78776
1.76407
1.76186
1.7884
1.77925
1.69752
1.73039
1.75322
1.72129
1.67743
1.7253
1.77228
1.73718
1.67916
1.74543
1.68696
1.70958
1.76158
1.73349
1.72907
1.736
1.74942
1.73207
1.82988
1.82479
1.84073
1.84014
1.82235
1.8269
1.80097
1.80223
1.83193
1.82639
1.83389
1.81642
1.82306
1.81088
1.79875
1.80336
1.83345
1.83885
1.83891
1.82818
1.83025
1.82444
1.84099
1.8392
1.84081
1.84187
1.84009
1.84311
1.84427
1.84342
1.84741
1.84393
1.842
1.83871
1.83627
1.84245
1.84572
1.84056
1.84492
1.84212
1.8417
1.73238
1.72524
1.74201
1.72441
1.74169
1.71561
1.71213
1.7136
1.72257
1.73736
1.71211
1.72811
1.7614
1.77255
1.72947
1.77624
1.73449
1.73722
1.72012
1.71355
1.67653
1.72809
1.68462
1.7712
1.78172
1.81674
1.78386
1.81588
1.75301
1.74703
1.70141
1.72001
1.81422
1.8223
1.78594
1.80834
1.8266
1.8065
1.7562
1.79073
1.71312
1.76459
1.79481
1.77515
1.8181
1.7672
1.73429
1.70349
1.78902
1.821
1.79514
1.75824
1.79664
1.80549
1.80675
1.77513
1.79497
1.79353
1.8194
1.77426
1.76015
1.77812
1.81257
1.80534
1.7588
1.75074
1.75219
1.71021
1.71032
1.72024
1.7298
1.74614
1.77522
1.7906
1.67981
1.65651
1.74568
1.75708
1.78165
1.76846
1.73215
1.68912
1.53719
1.52626
1.47942
1.46423
1.47847
1.54887
1.58897
1.54413
1.65129
1.63812
1.67609
1.65337
1.66481
1.67691
1.72125
1.71404
1.64094
1.63449
1.63488
1.69515
1.71378
1.71915
1.65015
1.66197
1.66046
1.6972
1.67678
1.68708
1.84202
1.84045
1.83759
1.83439
1.83844
1.8394
1.83729
1.83677
1.83649
1.83506
1.8435
1.8434
1.83561
1.84243
1.8397
1.83808
1.84318
1.83814
1.84181
1.70872
1.73158
1.81103
1.83063
1.79075
1.79735
1.77519
1.77138
1.75788
1.71812
1.75605
1.79881
1.81075
1.75241
1.8167
1.82741
1.7975
1.81701
1.77529
1.78505
1.80997
1.8049
1.78514
1.81281
1.7962
1.77305
1.76793
1.74466
1.75407
1.76269
1.81397
1.81283
1.80634
1.79391
1.80772
1.77507
1.76234
1.77942
1.72862
1.70479
1.72406
1.73613
1.7569
1.75137
1.72917
1.72423
1.75044
1.75915
1.76891
1.75541
1.75645
1.76626
1.73866
1.72091
1.76529
1.09458
1.08909
1.10157
1.10314
1.09737
1.09937
1.09854
1.09766
1.09908
1.10025
1.04765
1.07807
1.09117
1.09063
1.66996
1.66659
1.09631
1.09507
1.09781
1.09658
1.05294
1.08205
1.0865
1.09229
1.09215
1.09631
1.44708
1.48639
1.47123
1.45815
1.09218
1.08275
1.08576
1.58402
1.62238
1.62213
1.08045
1.05839
1.07919
1.21253
1.24098
1.19114
1.80639
1.80912
1.10845
1.04474
1.08787
1.72494
1.74361
1.69592
1.08592
1.0876
1.09046
1.09887
1.08881
1.43369
1.3775
1.36896
1.11501
1.08633
1.8435
1.83224
1.41405
1.3802
1.2632
1.24224
1.10524
1.23777
1.25859
1.27131
1.23769
1.24631
1.22601
1.84002
1.83278
1.55168
1.57747
1.50155
1.43829
1.42945
1.83938
1.84434
1.8428
1.82435
1.18329
1.18482
1.16689
1.62226
1.72063
1.65799
1.67743
1.24881
1.22801
1.1976
1.47092
1.37719
1.42348
1.38793
1.84269
1.84644
1.84752
1.84392
1.85046
1.85613
1.85243
1.86173
1.71806
1.71135
1.63837
1.67623
1.31102
1.29609
1.26861
1.22248
1.78414
1.79489
1.77375
1.6809
1.69317
1.85159
1.85429
1.78996
1.77713
1.60624
1.63587
1.26379
1.84171
1.8459
1.84502
1.84472
1.84416
1.54927
1.52991
1.83912
1.84282
1.84007
1.84186
1.31342
1.32287
1.83095
1.82906
1.77405
1.75564
1.76467
1.74552
1.8351
1.83534
1.83299
1.48819
1.51087
1.78289
1.78389
1.6789
1.69818
1.82306
1.82301
1.82178
1.80913
1.80984
1.79358
1.78842
1.81753
1.81398
1.8156
1.81333
1.81358
1.81122
1.8322
1.83679
1.82634
1.82889
1.83597
1.84164
1.67519
1.71425
1.67679
1.63765
1.61469
1.83706
1.83527
1.82437
1.82772
1.82486
1.80928
1.8302
1.81855
1.83151
1.84155
1.84486
1.84373
1.64411
1.67821
1.70662
1.68278
1.75867
1.76961
1.74779
1.84642
1.84773
1.84716
1.83329
1.84473
1.83358
1.82979
1.81709
1.84345
1.82468
1.84956
1.84311
1.82148
1.82334
1.82092
1.8267
1.83202
1.8107
1.81176
1.807
1.83146
1.84273
1.84613
1.83917
1.84137
1.8373
1.83766
1.82522
1.82952
1.83062
1.81317
1.83746
1.83515
1.81959
1.82423
1.8375
1.84292
1.83742
1.83575
1.82591
1.81984
1.82998
1.8093
1.79953
1.77712
1.82663
1.81763
1.84194
1.84456
1.81417
1.83565
1.81142
1.78967
1.82477
1.79642
1.83019
1.84259
1.8279
1.82173
1.80565
1.83569
1.82494
1.79483
1.81775
1.51608
1.56417
1.55146
1.58754
1.43618
1.47603
1.40228
1.38195
1.83046
1.824
1.81765
1.74434
1.72189
1.71648
1.70553
1.68638
1.62837
1.77376
1.77022
1.66415
1.64637
1.6994
1.70505
1.58984
1.59063
1.59288
1.61747
1.63316
1.67881
1.55691
1.57541
1.57602
1.84254
1.84213
1.8429
1.83914
1.84339
1.83764
1.83863
1.84219
1.84063
1.85064
1.83863
1.83464
1.82637
1.84111
1.83518
1.83106
1.81394
1.83587
1.82549
1.83114
1.81975
1.83709
1.82596
1.83573
1.82985
1.82916
1.82289
1.84013
1.82906
1.82519
1.81028
1.83947
1.84156
1.83481
1.83132
1.82492
1.83337
1.82429
1.82343
1.82456
1.80714
1.84247
1.83936
1.8358
1.8363
1.83624
1.81031
1.80989
1.81226
1.80595
1.80943
1.80255
1.80711
1.80716
1.80382
1.81646
1.81793
1.81594
1.81058
1.81151
1.81287
1.81177
1.81125
1.81404
1.81424
1.8116
1.81402
1.81507
1.81406
1.81556
1.80882
1.80494
1.80899
1.80886
1.80559
1.80859
1.81133
1.81072
1.80558
1.80596
1.81008
1.79536
1.78602
1.79207
1.73923
1.80786
1.79536
1.79683
1.80682
1.80035
1.79594
1.79866
1.80543
1.8031
1.80252
1.6008
1.59218
1.56105
1.55441
1.6348
1.62264
1.82247
1.82053
1.82229
1.81006
1.81021
1.81181
1.81464
1.81351
1.79806
1.80344
1.81635
1.8144
1.81482
1.80611
1.80686
1.80822
1.80031
1.79905
1.80808
1.80167
1.8032
1.80646
1.80178
1.79941
1.7983
1.79608
1.80053
1.80186
1.8175
1.82081
1.82005
1.81933
1.79187
1.78636
1.80156
1.80664
1.80395
1.81733
1.8175
1.81538
1.81572
1.81154
1.80873
1.81191
1.81311
1.80987
1.8054
1.81154
1.81098
1.82834
1.82696
1.82943
1.82906
1.82027
1.81868
1.81996
1.82013
1.82046
1.81964
1.82126
1.82193
1.82067
1.81568
1.82616
1.82436
1.82565
1.82389
1.82728
1.82698
1.82582
1.82635
1.82456
1.8224
1.82681
1.6143
1.62212
1.59443
1.59858
1.63249
1.64694
1.73942
1.73795
1.72908
1.72034
1.75376
1.75613
1.77239
1.61845
1.61119
1.63511
1.59151
1.58297
1.64161
1.62369
1.64605
1.66339
1.73556
1.74971
1.76675
1.75486
1.74354
1.73831
1.771
1.76088
1.75013
1.73033
1.71725
1.7765
1.77507
1.76929
1.80844
1.80668
1.81233
1.8098
1.80741
1.61163
1.62738
1.59644
1.62755
1.62138
1.74108
1.71168
1.67962
1.64606
1.64411
1.66973
1.65378
1.4132
1.47797
1.38425
1.35284
1.3756
1.37565
1.83552
1.83665
1.83692
1.83632
1.82631
1.82724
1.82846
1.83905
1.84017
1.84238
1.83573
1.83678
1.83535
1.83355
1.83171
1.83339
1.83167
1.83447
1.8328
1.83472
1.83367
1.83496
1.83589
1.8349
1.83453
1.77899
1.77471
1.7826
1.77944
1.76322
1.76767
1.76091
1.76069
1.74287
1.75819
1.73546
1.7501
1.7268
1.72056
1.73855
1.73837
1.81501
1.8258
1.8232
1.82254
1.82563
1.7999
1.80017
1.80672
1.83389
1.83535
1.82683
1.8279
1.83093
1.82951
1.82613
1.82326
1.83038
1.82639
1.8288
1.82665
1.8285
1.83389
1.82931
1.82928
1.83223
1.8331
1.83384
1.83146
1.82946
1.83362
1.83532
1.83203
1.82477
1.83629
1.83841
1.83982
1.84354
1.84414
1.84132
1.84056
1.8396
1.83884
1.83638
1.83824
1.83928
1.84006
1.43241
1.84546
1.85306
1.84318
1.84237
1.84564
1.84667
1.84612
1.84175
1.84227
1.8395
1.84558
1.84119
1.83587
1.84367
1.84423
1.84865
1.83839
1.83401
1.8407
1.84752
1.83968
1.84726
1.66192
1.67845
1.69803
1.709
1.70738
1.70127
1.76459
1.77415
1.76621
1.74841
1.76087
1.73094
1.7767
1.74749
1.74753
1.70299
1.69252
1.72993
1.76129
1.7683
1.77569
1.81643
1.81476
1.80395
1.78653
1.82189
1.80789
1.81082
1.81377
1.78463
1.79228
1.80012
1.79296
1.81479
1.82362
1.80331
1.81183
1.81977
1.8147
1.81902
1.79853
1.81021
1.81287
1.80493
1.80051
1.82444
1.81871
1.82074
1.84555
1.83261
1.85564
1.85488
1.83385
1.8226
1.84024
1.83129
1.84839
1.84145
1.8341
1.8476
1.8448
1.25141
1.33438
1.36407
1.30538
1.27191
1.34279
1.43922
1.41098
1.37772
1.4028
1.42682
1.43377
1.38114
1.43301
1.53986
1.55565
1.53042
1.48178
1.57042
1.70416
1.65075
1.62851
1.67153
1.70889
1.60927
1.69432
1.71516
1.52119
1.55171
1.55667
1.58143
1.61617
1.58818
1.60756
1.64619
1.66152
1.62004
1.64544
1.74139
1.77271
1.76961
1.78185
1.7915
1.81377
1.81929
1.77602
1.80378
1.77676
1.73228
1.77186
1.72426
1.73201
1.73704
1.71008
1.70651
1.75695
1.76293
1.76302
1.72467
1.73965
1.74046
1.72199
1.71441
1.7099
1.70416
1.67374
1.69326
1.83292
1.84752
1.84765
1.79783
1.80836
1.79522
1.82462
1.82501
1.87143
1.87472
1.85764
1.83059
1.82405
1.83633
1.8375
1.82901
1.82894
1.8071
1.81935
1.8176
1.82649
1.8608
1.83318
1.8645
1.86398
1.84449
1.85066
1.8565
1.85424
1.8429
1.82856
1.84054
1.83384
1.82082
1.82077
1.83996
1.84014
1.84078
1.8387
1.29352
1.28095
1.25146
1.38075
1.33216
1.22183
1.33011
1.38462
1.54262
1.54507
1.57535
1.59929
1.51466
1.54257
1.54084
1.46312
1.49687
1.49432
1.53314
1.47504
1.12475
1.13215
1.21928
1.43925
1.44412
1.40398
1.4904
1.58695
1.72499
1.80035
1.78897
1.75235
1.8124
1.8204
1.58455
1.62617
1.61192
1.21549
1.28806
1.36681
1.22806
1.28067
1.22341
1.8113
1.8279
1.83462
1.82942
1.85362
1.85242
1.82399
1.83993
1.83331
1.84817
1.83198
1.83612
1.8331
1.79313
1.82962
1.80071
1.79648
1.78674
1.82755
1.83397
1.82985
1.80081
1.79996
1.81679
1.80752
1.28674
1.30371
1.33041
1.41474
1.36652
1.39952
1.43141
1.48594
1.50791
1.45797
1.4933
1.52609
1.31819
1.3615
1.36779
1.38805
1.67694
1.69813
1.72286
1.65198
1.61345
1.75792
1.72294
1.54855
1.60723
1.63363
1.67625
1.73471
1.70792
1.69534
1.72746
1.64529
1.77366
1.77663
1.79346
1.78015
1.76996
1.8013
1.80262
1.75404
1.69614
1.77528
1.76243
1.69408
1.72496
1.84195
1.85934
1.85893
1.8601
1.82929
1.16823
1.17989
1.23378
1.21643
1.36632
1.27263
1.32997
1.26636
1.09828
1.13152
1.10529
1.11058
1.15757
1.17477
1.22387
1.27218
1.24746
1.13561
1.12958
1.12144
1.15981
1.2365
1.27967
1.22468
1.12011
1.18463
1.13073
1.28606
1.22087
1.25022
1.12276
1.16289
1.12328
1.18215
1.1286
1.1871
1.15353
1.12494
1.40022
1.41913
1.46691
1.16698
1.20367
1.16307
1.6092
1.58826
1.46705
1.51314
1.52934
1.45824
1.80024
1.81672
1.82458
1.8417
1.84987
1.81765
1.81468
1.85004
1.78652
1.81978
1.83978
1.86111
1.82128
1.84382
1.81881
1.82923
1.83239
1.83009
1.81248
1.82121
1.76545
1.79716
1.82586
1.80898
1.09176
1.06542
1.10739
1.0968
1.15837
1.15
1.13854
1.13083
1.17493
1.1715
1.13345
1.19312
1.23864
1.16641
1.06905
1.13834
1.0879
1.2194
1.41642
1.37538
1.36467
1.45358
1.51908
1.37247
1.31323
1.30089
1.50854
1.54564
1.46013
1.37632
1.28612
1.33503
1.25161
1.25693
1.33831
1.36955
1.69019
1.64702
1.69117
1.57966
1.52497
1.5711
1.46016
1.498
1.63207
1.68255
1.52925
1.49161
1.11686
1.07899
1.07425
1.08747
1.10489
1.18328
1.17198
1.1137
1.10789
1.08762
1.10735
1.51753
1.54147
1.50957
1.57176
1.63688
1.67185
1.70697
1.65817
1.73364
1.70632
1.6743
1.69343
1.61653
1.58698
1.59673
1.57579
1.64572
1.79904
1.82162
1.78986
1.8125
1.81899
1.81356
1.78683
1.75431
1.73549
1.80791
1.78472
1.8125
1.82364
1.81341
1.7916
1.76111
1.77326
1.82592
1.81579
1.82357
1.80049
1.81197
1.76789
1.77998
1.78813
1.79538
1.81972
1.80223
1.07335
1.09296
1.08013
1.0749
1.71216
1.7441
1.74262
1.76913
1.76179
1.78805
1.77149
1.75957
1.78094
1.78249
1.82255
1.82805
1.81875
1.74987
1.76015
1.79492
1.76017
1.76414
1.78651
1.804
1.80246
1.75664
1.09061
1.0765
1.113
1.12118
1.1423
1.16395
1.28105
1.2107
1.25144
1.23458
1.18688
1.17071
1.13429
1.2775
1.31072
1.22585
1.2719
1.37982
1.17024
1.14132
1.2262
1.21883
1.11451
1.10346
1.10049
1.15914
1.21291
1.07029
1.06623
1.07815
1.08085
1.09579
1.09096
1.07375
1.09313
1.60974
1.27802
1.24563
1.30841
1.54063
1.65159
1.60894
1.57115
1.47318
1.50958
1.45053
1.46334
1.51942
1.54105
1.55289
1.55012
1.51027
1.53662
1.53882
1.58753
1.55226
1.50691
1.59495
1.58609
1.31372
1.33476
1.28182
1.32713
1.45019
1.49471
1.48178
1.44065
1.40748
1.33313
1.63323
1.50042
1.61496
1.67633
1.08939
1.09925
1.09946
1.09771
1.10202
1.07339
1.09797
1.09662
1.08716
1.08858
1.09889
1.09301
1.10429
1.09882
1.09683
1.09899
1.0871
1.0959
1.10333
1.10093
1.61101
1.61989
1.58858
1.64541
1.09317
1.09831
1.10148
1.0917
1.09571
1.09407
1.1024
1.62738
1.69963
1.62927
1.64388
1.68945
1.69698
1.66144
1.09503
1.09671
1.10327
1.10039
1.10267
1.10314
1.10121
1.10201
1.09675
1.08917
1.09307
1.03668
1.06188
1.06528
1.09921
1.1005
1.09895
1.10015
1.09884
1.08331
1.08907
1.09751
1.08067
1.07873
1.07748
1.08639
1.08159
1.61336
1.71129
1.67636
1.6789
1.63503
1.71191
1.68883
1.67295
1.65656
1.63927
1.64252
1.6864
1.66609
1.62133
1.63225
1.63382
1.64175
1.65713
1.75054
1.75001
1.78078
1.77277
1.71542
1.69354
1.51574
1.5435
1.56693
1.56663
1.53735
1.55998
1.57397
1.60352
1.63771
1.60905
1.57822
1.5498
1.62818
1.59178
1.56743
1.57133
1.47803
1.50866
1.49762
1.27563
1.26182
1.38182
1.41967
1.319
1.3147
1.34037
1.36071
1.79125
1.70103
1.75081
1.7533
1.79387
1.75957
1.82914
1.78679
1.66997
1.63365
1.7228
1.68817
1.09879
1.06126
1.14896
1.17262
1.19733
1.15235
1.08346
1.09557
1.08795
1.10519
1.09027
1.1053
1.10194
1.1004
1.07887
1.07724
1.08143
1.09166
1.09173
1.77679
1.81936
1.79307
1.80581
1.80766
1.81364
1.79129
1.76842
1.82395
1.82805
1.82324
1.80365
1.82356
1.80829
1.79337
1.79439
1.80119
1.79575
1.82435
1.82154
1.81387
1.78968
1.81835
1.7625
1.80664
1.74128
1.76061
1.7708
1.74762
1.59576
1.60776
1.6836
1.6833
1.62777
1.60579
1.71098
1.69647
1.70706
1.78915
1.77337
1.71524
1.77938
1.73853
1.77894
1.75505
1.7561
1.76889
1.70419
1.65853
1.67188
1.65399
1.71521
1.69584
1.69081
1.68041
1.08999
1.08949
1.09525
1.09214
1.10081
1.10952
1.10886
1.06834
1.10996
1.08118
1.08839
1.08058
1.06341
1.09267
1.09238
1.08245
1.07718
1.47655
1.30856
1.295
1.52014
1.54568
1.41558
1.33032
1.35838
1.70908
1.71313
1.67092
1.7345
1.77599
1.83748
1.81211
1.83148
1.84074
1.80879
1.79
1.81307
1.78379
1.77747
1.80765
1.8206
1.80752
1.80638
1.7957
1.85423
1.79128
1.84559
1.82754
1.84258
1.83214
1.80965
1.8337
1.80773
1.81164
1.81273
1.82387
1.80674
1.77783
1.62276
1.57921
1.58474
1.53691
1.54646
1.60681
1.62522
1.62235
1.25288
1.29102
1.21151
1.35125
1.15459
1.18064
1.22564
1.26449
1.29121
1.38971
1.32815
1.37046
1.33601
1.10306
1.1553
1.14859
1.11373
1.1181
1.0651
1.11539
1.17351
1.29791
1.20985
1.11735
1.15859
1.18011
1.11827
1.17816
1.2733
1.21348
1.16117
1.18139
1.20166
1.22239
1.18426
1.12427
1.14358
1.0909
1.12133
1.11715
1.07863
1.11977
1.48814
1.44972
1.51077
1.51073
1.52449
1.51437
1.44197
1.43779
1.47984
1.4576
1.5729
1.59708
1.51647
1.77512
1.79387
1.8084
1.83855
1.8137
1.84019
1.77286
1.84716
1.80991
1.81688
1.80048
1.80123
1.82373
1.80225
1.7911
1.76682
1.80733
1.74697
1.78896
1.78983
1.82687
1.7931
1.82437
1.43147
1.46515
1.5319
1.46369
1.44806
1.42204
1.36967
1.31352
1.40226
1.38762
1.32749
1.45403
1.47635
1.39252
1.41535
1.43209
1.46482
1.42722
1.27304
1.35944
1.33553
1.39102
1.34532
1.32946
1.26684
1.79617
1.83637
1.82626
1.80441
1.82697
1.81372
1.85786
1.8286
1.80864
1.86017
1.86121
1.83008
1.40393
1.4691
1.49401
1.44471
1.44883
1.39376
1.48116
1.52672
1.24102
1.30932
1.27132
1.31183
1.20352
1.28257
1.34975
1.19855
1.2781
1.20865
1.19
1.2674
1.74088
1.77244
1.75417
1.78276
1.78992
1.84481
1.83864
1.82636
1.8474
1.83503
1.82392
1.80574
1.80165
1.83509
1.82329
1.82098
1.81043
1.83408
1.83141
1.8211
1.81223
1.78638
1.84204
1.8336
1.80356
1.80862
1.80832
1.83076
1.82255
1.81683
1.83501
1.81102
1.80572
1.83652
1.83348
1.83459
1.81901
1.83427
1.82334
1.83003
1.83242
1.82707
1.83744
1.83447
1.77846
1.78489
1.74883
1.79742
1.79611
1.80655
1.80238
1.81801
1.84274
1.83574
1.84132
1.8361
1.8464
1.84346
1.84413
1.83692
1.83323
1.83889
1.84155
1.83898
1.838
1.8378
1.83932
1.84032
1.83802
1.83899
1.82059
1.8071
1.82561
1.80313
1.81535
1.82955
1.83486
1.83433
1.83944
1.84062
1.84246
1.84942
1.84631
1.82617
1.85443
1.83642
1.85556
1.84848
1.84246
1.83794
1.83467
1.83035
1.83761
1.84718
1.84247
1.52751
1.51003
1.51263
1.49005
1.5477
1.84069
1.84043
1.84136
1.84266
1.83851
1.84133
1.84061
1.83791
1.84179
1.84009
1.83849
1.84061
1.84074
1.84095
1.84225
1.83972
1.83958
1.84505
1.84051
1.8405
1.84349
1.83482
1.82937
1.83156
1.83395
1.83535
1.83241
1.83114
1.83182
1.83253
1.83244
1.8324
1.83298
1.82958
1.83201
1.80455
1.79557
1.8264
1.82492
1.83087
1.82401
1.81585
1.82544
1.8253
1.82727
1.82733
1.82675
1.82621
1.82451
1.82715
1.82041
1.82484
1.82035
1.8257
1.78173
1.79575
1.79672
1.76065
1.75656
1.77651
1.76361
1.78455
1.78618
1.83615
1.83825
1.84003
1.83767
1.83582
1.83702
1.83722
1.8287
1.83174
1.82685
1.8287
1.82809
1.82564
1.82752
1.82894
1.82642
1.82759
1.82843
1.8254
1.82969
1.82731
1.83757
1.83309
1.83537
1.83687
1.8332
1.83493
1.83591
1.83583
1.83556
1.83582
1.83663
1.83757
1.83462
1.80979
1.80594
1.81086
1.81993
1.81672
1.81038
1.80118
1.73378
1.67721
1.71498
1.7218
1.73696
1.70079
1.71871
1.68507
1.66268
1.8244
1.82276
1.82111
1.82201
1.82295
1.81881
1.81648
1.81781
1.81827
1.81604
1.82266
1.82238
1.82241
1.82116
1.81875
1.81869
1.82077
1.82302
1.82118
1.81919
1.82024
1.81952
1.81992
1.81331
1.81102
1.81493
1.81501
1.81418
1.81397
1.8166
1.81078
1.81511
1.81326
1.82076
1.81778
1.81672
1.81891
1.82048
1.81827
1.81257
1.81993
1.81656
1.65922
1.62633
1.6348
1.64924
1.64705
1.65971
1.67615
1.79007
1.78112
1.78637
1.83985
1.84388
1.84275
1.84136
1.84304
1.8395
1.84108
1.84206
1.83827
1.8392
1.8265
1.82875
1.83671
1.80838
1.82127
1.83033
1.81647
1.83931
1.83645
1.8391
1.8414
1.83897
1.83056
1.82507
1.82537
1.83714
1.84256
1.83005
1.81788
1.83429
1.83286
1.84134
1.84819
1.8425
1.83817
1.83591
1.81761
1.84564
1.81063
1.8439
1.83465
1.83256
1.81387
1.85731
1.8604
1.83818
1.80126
1.79675
1.82277
1.80136
1.81287
1.81675
1.80295
1.80134
1.81243
1.81897
1.81601
1.83388
1.84203
1.84131
1.83447
1.83757
1.84409
1.8385
1.84395
1.84033
1.83987
1.81995
1.83594
1.82488
1.83199
1.82877
1.82991
1.74103
1.78608
1.78804
1.76281
1.73556
1.71813
1.68791
1.53671
1.56018
1.53611
1.55074
1.51552
1.52392
1.48421
1.47577
1.84225
1.83585
1.80149
1.84577
1.82592
1.83496
1.84167
1.83617
1.81085
1.79789
1.78409
1.78646
1.78704
1.77639
1.73629
1.7646
1.8081
1.79895
1.84454
1.84176
1.84936
1.83896
1.8463
1.8434
1.8548
1.84706
1.65723
1.6122
1.64684
1.68432
1.72082
1.69655
1.72105
1.73908
1.74811
1.74063
1.76878
1.78295
1.74755
1.72124
1.69124
1.7008
1.61941
1.65527
1.64504
1.66395
1.69463
1.84554
1.84235
1.83952
1.83054
1.84477
1.83688
1.84207
1.83984
1.83811
1.84004
1.84279
1.84309
1.84153
1.84418
1.83935
1.54756
1.60147
1.57288
1.57627
1.52226
1.53871
1.5697
1.60239
1.61359
1.54713
1.5448
1.84973
1.84363
1.84139
1.84133
1.84836
1.85188
1.84699
1.84646
1.84266
1.84367
1.79936
1.83527
1.81907
1.82641
1.81451
1.79122
1.82098
1.81773
1.79558
1.77937
1.81834
1.81901
1.82263
1.81955
1.81605
1.82082
1.81553
1.82109
1.81718
1.81819
1.81906
1.81338
1.81133
1.81256
1.81221
1.81242
1.81109
1.8162
1.81569
1.81613
1.81625
1.81696
1.81397
1.83793
1.84176
1.84117
1.8382
1.84332
1.84155
1.84176
1.84169
1.8431
1.84233
1.84215
1.84327
1.84146
1.84029
1.84033
1.84021
1.84109
1.83971
1.84139
1.83962
1.83985
1.84445
1.8427
1.84004
1.83867
1.83635
1.83449
1.83915
1.83932
1.83934
1.84066
1.84996
1.84449
1.84437
1.8401
1.83716
1.84685
1.84261
1.84249
1.83788
1.84003
1.83404
1.82853
1.83537
1.83097
1.8566
1.84302
1.85346
1.83893
1.82819
1.83844
1.79645
1.84328
1.81207
1.79696
1.81903
1.82535
1.81354
1.78771
1.80893
1.64384
1.59359
1.60898
1.65379
1.67209
1.66447
1.66014
1.65085
1.64981
1.68807
1.66171
1.67115
1.68417
1.70818
1.75647
1.739
1.72346
1.72605
1.65216
1.69791
1.66186
1.65601
1.63483
1.69235
1.58521
1.60366
1.84206
1.83597
1.8398
1.8389
1.83793
1.84
1.83971
1.84025
1.82412
1.83269
1.81828
1.84604
1.84126
1.84172
1.84555
1.83963
1.84978
1.83557
1.83488
1.82953
1.82308
1.82535
1.82874
1.80678
1.80505
1.82351
1.83442
1.82311
1.82748
1.81739
1.80768
1.81878
1.81243
1.84043
1.82769
1.82664
1.82935
1.09883
1.10075
1.095
1.09439
1.09807
1.09019
1.09595
1.10017
1.08695
1.12036
1.10071
1.1008
1.10169
1.09973
1.09824
1.06515
1.09488
1.09087
1.08647
1.11894
1.1027
1.10983
1.13971
1.11529
1.11782
1.10351
1.13794
1.12811
1.1017
1.09865
1.31408
1.31628
1.4573
1.48581
1.47492
1.37268
1.3586
1.43438
1.41401
1.48892
1.25317
1.31881
1.25066
1.25457
1.29873
1.25452
1.33038
1.2956
1.35533
1.31333
1.50741
1.56404
1.61587
1.50468
1.52625
1.54821
1.53905
1.59158
1.60775
1.56524
1.57364
1.58657
1.5344
1.43984
1.39362
1.46807
1.43477
1.44736
1.82683
1.76871
1.80093
1.8307
1.82399
1.83634
1.83223
1.83488
1.83515
1.82147
1.83975
1.83127
1.83642
1.83624
1.7687
1.72763
1.75722
1.72393
1.73498
1.80159
1.78914
1.77237
1.78065
1.75837
1.73621
1.63196
1.60259
1.68665
1.7028
1.6496
1.71743
1.66087
1.68724
1.82776
1.82788
1.79751
1.80069
1.77942
1.80939
1.67365
1.66432
1.71373
1.70287
1.68987
1.7068
1.80465
1.80806
1.80044
1.80493
1.80934
1.81211
1.81159
1.81133
1.80862
1.81041
1.81648
1.81379
1.79179
1.77813
1.79345
1.80092
1.79739
1.8
1.79537
1.80403
1.80082
1.81592
1.72873
1.69523
1.70925
1.73518
1.73905
1.72548
1.7102
1.67898
1.67296
1.73145
1.6437
1.65564
1.62627
1.6449
1.77477
1.78138
1.79324
1.76406
1.76599
1.78275
1.78422
1.78524
1.7976
1.79586
1.80312
1.78037
1.79131
1.62078
1.74494
1.68681
1.71361
1.82689
1.82914
1.83038
1.83228
1.8301
1.83444
1.83115
1.83272
1.83253
1.82947
1.83141
1.7839
1.79178
1.8306
1.82887
1.83404
1.83283
1.83206
1.83166
1.83338
1.8307
1.82764
1.8248
1.83454
1.83395
1.8321
1.82568
1.82615
1.83214
1.83538
1.83317
1.83503
1.83581
1.83549
1.8361
1.83379
1.83502
1.5919
1.60269
1.578
1.56318
1.52391
1.54264
1.5479
1.51504
1.34173
1.38416
1.4409
1.37042
1.84591
1.84233
1.83961
1.8446
1.83957
1.83726
1.84403
1.84371
1.83981
1.84369
1.84345
1.84599
1.84206
1.83672
1.83702
1.83572
1.83725
1.75449
1.82719
1.82664
1.78215
1.79469
1.80397
1.8177
1.80315
1.79863
1.83002
1.82803
1.84321
1.85112
1.83749
1.84399
1.81941
1.39757
1.38832
1.78016
1.79398
1.78142
1.81149
1.80666
1.8025
1.79712
1.80253
1.83555
1.82071
1.58863
1.55597
1.57451
1.64149
1.57058
1.592
1.53279
1.66961
1.6336
1.64917
1.68337
1.62156
1.58041
1.40017
1.45598
1.34316
1.37335
1.30396
1.31616
1.44851
1.46278
1.40158
1.37182
1.31982
1.45251
1.46707
1.37682
1.43159
1.72101
1.55946
1.51993
1.57645
1.60104
1.62492
1.47389
1.42182
1.52603
1.4775
1.64846
1.58357
1.27043
1.26417
1.28885
1.77975
1.76474
1.75457
1.75774
1.71377
1.67463
1.65233
1.12713
1.12776
1.1181
1.10643
1.11927
1.09884
1.10864
1.37722
1.30833
1.43079
1.30466
1.18156
1.2832
1.20218
1.19374
1.18562
1.25763
1.2291
1.1781
1.14818
1.18064
1.14888
1.12792
1.11704
1.11628
1.12999
1.11707
1.123
1.09109
1.11685
1.64697
1.72239
1.56425
1.62526
1.59761
1.53485
1.54718
1.59633
1.54912
1.68706
1.73958
1.61253
1.62785
1.78655
1.79045
1.79294
1.77698
1.78317
1.78727
1.81047
1.80842
1.7879
1.12636
1.10837
1.11747
1.1038
1.12053
1.11595
1.07265
1.06732
1.09573
1.13788
1.11449
1.20176
1.28047
1.13935
1.13688
1.1227
1.177
1.22946
1.20835
1.25702
1.1371
1.13929
1.62588
1.60875
1.649
1.67912
1.70831
1.71118
1.71814
1.68832
1.65635
1.74748
1.72134
1.72699
1.71503
1.46771
1.53255
1.50135
1.41741
1.4423
1.38711
1.43909
1.47884
1.41321
1.36557
1.44198
1.42337
1.47531
1.45999
1.09976
1.10106
1.10163
1.10127
1.09996
1.10183
1.09534
1.0999
1.10133
1.10116
1.09769
1.09512
1.09476
1.09719
1.09762
1.09994
1.09907
1.58829
1.58319
1.62246
1.73803
1.73092
1.7456
1.74136
1.69576
1.69792
1.69066
1.67111
1.66635
1.74088
1.09805
1.10894
1.10421
1.1053
1.09627
1.07924
1.08417
1.09746
1.10612
1.10501
1.07973
1.07399
1.10692
1.09963
1.09007
1.07995
1.09674
1.09167
1.07843
1.07846
1.07021
1.11431
1.11367
1.77304
1.74447
1.78016
1.77936
1.78802
1.7864
1.7726
1.81534
1.80908
1.66767
1.70564
1.72434
1.35506
1.41238
1.28224
1.27074
1.35131
1.39552
1.42685
1.38778
1.39379
1.72515
1.70425
1.66006
1.70078
1.74345
1.79515
1.73442
1.72088
1.68061
1.76537
1.78718
1.76029
1.78274
1.7436
1.74264
1.75284
1.84467
1.86173
1.84646
1.86647
1.85061
1.8122
1.74998
1.827
1.78667
1.80323
1.8053
1.82333
1.82113
1.80159
1.8038
1.79127
1.82259
1.81802
1.79637
1.84304
1.83859
1.82649
1.82657
1.81868
1.81368
1.83675
1.8381
1.84352
1.84405
1.63422
1.55478
1.60008
1.61458
1.58118
1.51037
1.4352
1.46179
1.52352
1.51305
1.46045
1.43451
1.40751
1.20218
1.1944
1.15928
1.16169
1.16142
1.75153
1.75882
1.74696
1.76864
1.74309
1.52288
1.57954
1.62614
1.55916
1.47411
1.6002
1.62766
1.46329
1.51528
1.50211
1.44227
1.37603
1.35138
1.47239
1.40992
1.43675
1.47194
1.37953
1.33018
1.40526
1.43199
1.80018
1.79775
1.80963
1.83766
1.83522
1.84247
1.84475
1.8423
1.83635
1.83871
1.84079
1.84096
1.83914
1.83972
1.83787
1.8262
1.82942
1.83
1.81428
1.82978
1.82728
1.82752
1.8298
1.83332
1.8267
1.81324
1.82139
1.83319
1.82804
1.81645
1.82606
1.82594
1.8243
1.8111
1.83472
1.8306
1.83753
1.8327
1.8183
1.81236
1.74595
1.70468
1.68458
1.72952
1.7666
1.7328
1.69723
1.83792
1.83828
1.83354
1.84036
1.83982
1.84244
1.84276
1.84343
1.83907
1.84242
1.84172
1.83689
1.83756
1.83923
1.83624
1.83488
1.84012
1.83867
1.83968
1.83791
1.83844
1.83599
1.81756
1.81612
1.81111
1.80654
1.81802