/*--------------------------------*- C++ -*----------------------------------*\
| =========                 |                                                 |
| \\      /  F ield         | OpenFOAM: The Open Source CFD Toolbox           |
|  \\    /   O peration     | Version:  v1612+                                |
|   \\  /    A nd           | Web:      www.OpenFOAM.com                      |
|    \\/     M anipulation  |                                                 |
\*---------------------------------------------------------------------------*/
FoamFile
{
    version     2.0;
    format      ascii;
    class       surfaceScalarField;
    location    "150";
    object      phi;
}
// * * * * * * * * * * * * * * * * * * * * * * * * * * * * * * * * * * * * * //

dimensions      [0 3 -1 0 0 0 0];

internalField   nonuniform List<scalar> 
37427
(
-1.08006e-09
-1.14161e-08
1.15947e-08
9.0036e-10
-9.89497e-09
-1.40864e-09
-1.83665e-08
2.96693e-08
9.40903e-09
-4.15267e-09
-1.51541e-08
-2.18125e-08
2.98904e-08
-9.48674e-09
2.14072e-08
-1.95941e-08
-2.01807e-08
-1.33372e-08
2.31352e-08
7.22165e-10
-1.05218e-08
1.43667e-08
1.97244e-08
-5.83773e-09
-2.82523e-08
-2.25166e-08
7.74282e-09
2.91408e-08
-5.73154e-09
1.98865e-09
2.34676e-08
-1.36522e-08
-2.33644e-08
1.5205e-08
2.31011e-08
-1.49528e-08
-2.44155e-08
1.62672e-08
6.65432e-09
2.79337e-09
-4.90196e-09
3.37844e-09
-2.09924e-08
6.29305e-09
4.96486e-09
-3.23855e-08
2.11275e-08
1.19021e-08
-1.71861e-08
1.15778e-08
-2.82588e-08
-8.38115e-10
-3.63017e-09
1.06302e-08
-3.82471e-08
-1.93346e-09
1.74023e-08
-6.89223e-10
-1.4779e-08
-1.36639e-08
1.41042e-08
-2.37367e-09
-6.15012e-09
-1.67986e-09
-5.8339e-09
-1.29861e-09
1.12166e-08
7.4847e-09
4.84979e-09
7.95585e-09
1.01078e-08
1.22247e-08
-5.74527e-09
-1.6588e-08
5.26594e-09
-1.30821e-09
-6.01709e-09
3.82931e-09
-9.73319e-09
1.19196e-08
1.02763e-08
1.4597e-08
-1.26492e-08
1.47324e-08
8.09321e-10
1.34026e-08
-1.0473e-08
6.16113e-09
-9.0945e-09
4.58387e-10
2.08266e-08
-7.88395e-09
7.30098e-09
-1.90651e-08
-9.0977e-09
-6.82056e-09
1.97435e-08
1.52787e-09
1.21091e-08
9.57669e-10
1.44427e-08
1.81717e-09
-8.81053e-09
1.41182e-08
1.27464e-08
-1.45443e-08
1.41368e-08
-1.6238e-09
-4.05933e-10
1.97689e-08
6.4925e-10
-2.30264e-09
3.79399e-09
-3.94478e-11
-1.45209e-09
-3.70722e-09
-2.8379e-09
4.24245e-09
-1.11839e-09
-4.31862e-09
1.72962e-09
4.9534e-10
9.17452e-10
2.38073e-09
2.70051e-09
-4.91939e-10
-1.13484e-09
-1.07393e-09
-1.02968e-09
1.90447e-09
-4.35098e-09
3.47631e-09
-5.18598e-09
3.03796e-09
3.14758e-09
-4.59605e-09
4.61969e-10
9.86297e-10
7.23267e-10
-3.14794e-09
5.57234e-09
-2.40166e-09
5.18988e-09
-7.38428e-09
3.58262e-09
1.60167e-09
-7.58575e-09
2.44207e-09
7.53916e-10
-2.00672e-09
-1.98196e-09
4.71189e-09
1.1188e-09
-2.66365e-09
3.55562e-09
-2.14288e-09
-1.51945e-09
1.95434e-09
-1.24381e-09
1.70403e-09
7.92569e-10
-7.61875e-09
-1.01398e-08
5.91254e-09
1.18457e-08
1.85136e-09
-1.00794e-08
6.09095e-10
5.30859e-09
-5.77881e-09
2.32125e-09
2.26331e-09
-2.69342e-09
5.73865e-09
-6.49272e-09
-2.20319e-10
-3.42683e-09
-3.67282e-09
-1.28993e-08
9.84338e-09
-1.66759e-09
-2.21584e-09
-2.21743e-09
4.21286e-09
1.7855e-09
-5.0217e-09
-2.54265e-09
-1.47566e-09
5.67683e-10
3.35686e-09
8.86726e-11
-5.66134e-09
1.46154e-09
4.19651e-10
-8.60586e-09
3.81918e-09
3.20068e-09
-2.88934e-09
-4.13098e-09
1.74839e-08
-2.20035e-11
-8.51163e-09
-8.9513e-09
5.10607e-09
3.63483e-09
4.0871e-09
-1.2829e-08
9.50136e-09
1.30877e-08
-3.72449e-09
4.99218e-09
2.55116e-09
-6.10324e-09
-3.00121e-09
5.37984e-09
2.3477e-09
5.34836e-09
-2.67262e-09
-5.02392e-09
4.29662e-09
1.25152e-09
6.60344e-09
-5.79338e-09
2.82392e-09
1.10665e-09
-2.71299e-09
8.20831e-09
7.64107e-09
-2.31492e-09
-3.55662e-09
1.41641e-08
3.48926e-09
-4.29095e-09
-6.15821e-10
1.39091e-09
-2.48666e-09
6.57068e-09
1.19371e-09
-1.55085e-10
-1.17565e-09
-2.28383e-09
3.61457e-09
4.93563e-09
-3.19744e-09
-1.89321e-09
5.83353e-09
-4.56668e-09
-9.63135e-09
8.36524e-09
1.82852e-09
3.38585e-09
6.19999e-10
-6.77998e-10
5.91693e-10
2.13202e-09
-2.04589e-09
3.29472e-10
2.87475e-09
-3.88199e-09
-2.30778e-09
1.1977e-10
1.01264e-09
6.04879e-10
-4.84211e-09
-2.49683e-09
3.6934e-09
-2.70987e-09
2.25461e-09
9.13286e-10
-7.48553e-10
7.37514e-10
-4.30139e-09
-2.24347e-09
1.52367e-09
5.0212e-09
-3.36506e-09
-1.52249e-09
5.86227e-10
-5.73088e-09
-1.12494e-10
3.60003e-09
-5.57112e-09
-3.52481e-09
1.3558e-08
-9.84871e-09
3.78995e-09
-7.49918e-09
-3.41103e-09
5.14352e-09
1.18257e-08
4.83927e-09
-2.19932e-09
1.38163e-09
-4.02149e-09
2.89837e-09
4.18406e-10
-5.76205e-09
2.12099e-10
7.07367e-09
-3.76958e-09
9.05957e-10
5.50537e-11
-7.82546e-09
-6.41935e-09
2.89594e-09
-4.89991e-09
-1.13681e-08
-1.15863e-08
2.54974e-09
1.41802e-08
-3.82484e-09
-3.97152e-09
-8.32438e-09
1.10863e-08
-8.59449e-09
-3.49937e-09
2.27249e-09
-7.11731e-09
-4.94154e-09
-7.47776e-09
-1.2874e-09
-2.90793e-09
2.65281e-09
2.57109e-12
2.52635e-10
3.95923e-09
4.41132e-09
8.16133e-10
4.58514e-09
-1.44216e-09
5.7536e-09
-2.071e-09
1.03811e-09
-4.72083e-09
-3.65416e-09
5.33963e-09
4.06769e-09
4.3158e-09
1.75655e-10
-8.14592e-09
6.96521e-09
-2.35619e-09
4.0497e-09
-8.65839e-09
2.99151e-09
-3.70703e-10
4.34457e-09
-5.89648e-09
8.11418e-09
-4.76415e-09
2.54728e-09
1.32369e-08
-1.01505e-08
-8.98308e-09
5.84752e-09
-4.20404e-09
2.6722e-09
1.84344e-09
9.34358e-09
6.73507e-09
-4.8292e-09
1.13311e-08
1.66933e-08
-3.45949e-09
-8.55189e-10
-5.83524e-09
-1.13889e-09
7.42083e-09
-9.74155e-09
5.98728e-09
-9.48265e-09
1.48489e-09
7.49381e-09
-8.59497e-09
1.17894e-08
5.85865e-10
8.34449e-11
-9.11662e-09
-2.05442e-10
1.33087e-09
-9.58146e-09
8.45588e-09
9.00839e-10
-6.01037e-09
4.90411e-09
-6.17217e-11
-7.77716e-09
7.27498e-09
5.64005e-10
-5.88884e-09
5.46012e-09
3.66975e-10
6.55604e-09
-2.36157e-09
3.80265e-09
-7.99742e-09
1.20194e-08
-3.43229e-10
-1.03455e-08
-1.85182e-09
1.18171e-09
-7.10701e-09
-6.83979e-09
-6.44938e-09
5.33539e-09
8.38881e-09
-1.83186e-09
8.42663e-10
-4.12683e-09
4.45807e-09
6.2248e-09
-6.15921e-09
2.00495e-10
4.59587e-09
5.06183e-09
-1.01539e-08
1.09923e-08
1.41881e-08
-4.39488e-09
3.34819e-09
4.47041e-09
2.61134e-09
-1.04322e-08
2.40368e-09
1.153e-08
-1.05857e-08
1.20593e-08
-5.18625e-09
1.39371e-08
-8.14465e-09
6.26632e-09
1.36566e-08
-7.28013e-09
-1.06905e-08
4.31327e-09
-3.39733e-09
7.84543e-09
9.20779e-09
4.70509e-09
-1.40624e-08
-1.73651e-09
1.10919e-08
-7.49144e-09
6.10498e-09
6.09037e-09
-1.33215e-09
7.77743e-09
9.56362e-09
-1.46954e-08
7.74257e-09
7.01213e-09
-1.17421e-08
1.04434e-08
4.05417e-09
-6.65285e-09
-1.391e-08
1.10775e-08
6.12918e-09
-3.29815e-09
9.74281e-10
-3.50895e-09
-1.25948e-08
-3.418e-10
-1.1275e-08
8.24319e-09
1.57603e-09
-3.47566e-09
-3.98181e-09
5.88155e-09
-3.50581e-09
-2.7253e-09
7.80719e-09
-4.15317e-09
-2.89874e-09
3.54617e-09
-7.60162e-10
5.21512e-10
-3.30005e-09
-3.40821e-09
3.98304e-09
-4.6142e-09
3.7849e-10
3.79097e-10
1.53381e-10
2.13001e-10
1.83586e-10
-4.38513e-09
2.19843e-10
1.02871e-09
-1.99694e-09
3.87481e-09
1.3038e-10
-8.86188e-09
-1.09139e-09
3.48496e-09
6.46781e-09
-8.50928e-09
-2.34082e-09
1.9878e-09
5.2322e-09
-3.55762e-09
-1.01841e-08
-1.09934e-08
3.66451e-09
6.23699e-09
-7.83079e-09
2.06965e-09
-1.30635e-09
6.95291e-09
4.17064e-09
-9.81782e-09
1.85892e-09
-4.13731e-09
9.71968e-10
8.8091e-10
-4.99918e-09
8.71527e-09
-4.59766e-09
-3.24852e-09
7.73162e-09
-3.60248e-09
-1.8482e-10
-8.37221e-09
2.90944e-09
-6.34293e-09
2.86405e-09
7.75317e-09
4.50578e-09
1.86857e-09
-3.20634e-09
1.84989e-10
5.88501e-09
-2.30469e-09
9.57154e-10
-6.25803e-09
6.24193e-09
4.52169e-09
2.97491e-09
-1.50148e-09
4.29168e-09
-4.54408e-09
3.1617e-09
-2.98172e-09
6.65141e-09
-2.77748e-09
6.03749e-09
-8.4922e-10
1.04634e-09
1.13777e-09
-1.50709e-08
9.91116e-09
1.65351e-09
3.50627e-09
-1.58114e-08
-1.7742e-09
2.51462e-09
-1.31747e-08
1.75359e-08
1.06235e-10
-4.46742e-09
-3.05625e-09
7.29353e-09
-1.7412e-08
-1.03409e-08
1.20654e-08
-9.15006e-09
-4.23139e-09
1.34877e-08
9.72861e-09
4.5875e-09
-1.73723e-08
4.32421e-09
-3.7456e-09
1.57127e-08
-1.21742e-08
-1.4143e-08
1.06043e-08
-6.75145e-09
2.01384e-08
2.32571e-09
-1.37197e-08
5.92574e-09
2.15683e-08
-1.37743e-08
-6.01107e-09
-8.37801e-09
6.69397e-10
-7.0697e-09
6.79656e-09
7.36006e-09
-7.08694e-09
-1.16018e-08
-1.47885e-09
7.49038e-09
-9.6543e-09
2.12684e-10
2.17898e-08
-1.00296e-08
-4.23924e-09
1.69616e-08
9.51148e-09
-4.46785e-09
2.24984e-09
1.06312e-08
-5.35901e-09
2.59474e-10
7.78735e-10
2.74929e-10
-1.31162e-09
2.558e-10
6.81545e-10
-6.88849e-10
-1.01923e-09
-4.33751e-10
2.08831e-09
-6.38741e-10
1.23547e-09
-1.48033e-09
7.20897e-10
1.73535e-09
-2.17137e-09
1.71648e-10
2.22653e-09
-1.68604e-09
1.13738e-09
-6.97976e-10
2.11984e-10
-2.75982e-10
1.28076e-09
1.97408e-09
-2.40301e-11
-3.12837e-10
1.22201e-09
2.01046e-10
1.73827e-09
1.61032e-10
2.93783e-09
7.59553e-10
1.89107e-10
-5.94448e-10
1.61459e-09
1.39091e-09
-4.30181e-10
4.3592e-09
-5.32993e-09
-5.36979e-11
3.93947e-09
-2.50342e-09
4.8268e-09
-1.88486e-09
2.60798e-09
-5.55273e-09
5.98695e-09
2.04161e-09
-3.20553e-09
-9.51484e-10
3.521e-09
3.41092e-09
9.09826e-10
-3.22996e-09
-1.1022e-09
1.95051e-09
-6.64549e-10
3.79883e-09
1.21701e-09
4.31366e-10
2.84086e-09
4.2641e-09
1.57289e-09
5.82217e-09
-2.95031e-09
-2.79508e-10
3.12381e-09
1.7446e-09
8.05756e-09
-2.76943e-10
5.07478e-09
-5.28929e-09
3.33488e-09
-4.27682e-10
3.30693e-09
6.88516e-09
-9.76265e-09
1.234e-08
5.44523e-09
-3.76523e-09
-1.40188e-08
2.55214e-09
9.3604e-09
1.51032e-08
-1.34632e-08
3.80524e-09
1.44765e-09
1.62089e-08
1.2784e-08
-7.35363e-09
-1.03281e-08
4.89969e-09
-3.54803e-09
1.77812e-08
-1.43611e-08
-6.45602e-09
1.02602e-08
-1.05012e-08
5.86824e-09
9.61052e-09
-6.4094e-09
-9.06971e-09
-2.39704e-09
-1.65649e-09
9.92141e-09
-6.7281e-09
-3.00404e-09
-5.9542e-10
-7.1091e-09
-1.16031e-09
3.79085e-09
4.47936e-09
-5.643e-09
-1.27758e-08
1.13099e-08
-7.92902e-09
3.17867e-09
8.469e-10
7.44899e-09
-1.47052e-08
-7.19308e-09
-7.20851e-09
6.6567e-09
-4.19756e-09
3.81199e-09
-6.2899e-09
-5.28393e-10
6.16905e-09
1.01499e-09
-4.61167e-09
3.61933e-09
5.84424e-09
-4.85252e-09
-2.65952e-09
-3.69364e-09
1.74012e-09
-1.1746e-08
6.24315e-09
-3.50042e-09
9.00109e-09
-5.38638e-09
-2.59925e-09
-3.76459e-09
3.91854e-09
-1.83961e-10
-7.93514e-09
7.30106e-10
1.50605e-09
1.09009e-09
1.1865e-09
2.733e-09
4.94099e-09
-7.92781e-10
7.1444e-09
1.16329e-08
-6.18389e-09
6.39082e-09
-4.61881e-09
-7.16041e-09
1.36663e-09
1.52341e-09
-4.16399e-09
-2.59052e-09
7.83906e-09
-3.96299e-09
-1.01787e-08
9.97406e-09
-8.7677e-09
-6.49606e-09
1.9455e-08
-1.22884e-08
-6.77672e-10
-1.4578e-08
1.47611e-08
-6.67884e-09
8.17482e-09
2.37662e-10
3.04775e-09
-1.14597e-08
8.02961e-09
-1.78339e-10
3.22746e-10
6.23571e-09
-2.05748e-08
1.79168e-08
4.87083e-09
1.57978e-09
3.80928e-09
1.25202e-08
7.36819e-09
1.36633e-08
2.13865e-08
7.05532e-09
-2.22047e-08
6.58749e-09
2.50913e-09
8.87005e-09
3.89311e-09
-9.71661e-09
7.2884e-09
1.40076e-09
-8.04806e-10
-6.03889e-09
1.42054e-08
-7.75472e-09
1.07533e-08
-1.96477e-08
9.28253e-09
1.69544e-08
-3.67458e-09
-8.91953e-09
-5.78498e-09
5.31249e-09
1.12551e-08
-1.104e-08
-9.11896e-09
1.23603e-08
-3.65141e-09
7.93906e-09
1.66778e-09
-6.25359e-09
-3.35319e-09
5.31844e-09
-4.49666e-09
7.07979e-09
-3.39967e-10
-9.81021e-09
3.07038e-09
4.71334e-09
2.98763e-09
-6.21153e-10
-1.42906e-10
6.36414e-09
-1.50789e-09
-4.61523e-09
6.70387e-09
-2.23153e-09
-1.94849e-09
-4.20913e-09
2.28063e-09
-7.23582e-09
-5.54143e-09
5.70199e-09
6.20361e-09
4.03835e-09
-2.87591e-09
-2.15423e-09
2.13469e-09
-1.92896e-09
3.25003e-09
-3.12362e-09
-4.54541e-09
8.96e-09
-8.3488e-10
3.27934e-10
-2.20045e-09
3.13731e-10
2.14702e-10
-1.41906e-08
5.65639e-09
2.21637e-09
6.31847e-09
3.44053e-09
-9.54931e-09
-8.08162e-09
-9.57894e-09
7.18345e-09
8.05254e-09
-4.08724e-09
-2.0495e-09
-1.39348e-08
6.95389e-09
9.19888e-09
-9.27351e-09
-1.42101e-08
9.63064e-09
-1.18079e-08
-1.90878e-09
4.4619e-09
-8.73614e-09
-1.26898e-08
-3.42172e-09
3.4982e-09
-1.68398e-08
6.53081e-10
4.39276e-09
6.04879e-09
-8.36856e-09
-6.95132e-09
-1.27485e-08
1.91131e-08
-3.11679e-10
1.20222e-08
-1.73662e-08
-7.40097e-09
1.3704e-08
8.09872e-09
-2.68352e-09
1.71059e-08
-1.19858e-08
8.58746e-09
8.52054e-09
6.53219e-09
7.25917e-09
-1.05828e-08
-8.48271e-09
6.22063e-09
-6.18182e-09
-3.35887e-09
2.7704e-09
5.78106e-09
-1.3375e-08
4.82405e-09
-5.47749e-10
-4.99666e-09
8.70078e-09
-3.15654e-09
6.7002e-09
-1.18346e-08
7.90592e-09
-7.08837e-09
1.32408e-08
1.23814e-08
-2.92558e-09
-4.97363e-09
-4.48242e-09
-4.45783e-09
9.75028e-09
7.55794e-09
-3.83305e-09
2.22414e-09
-5.94953e-09
-2.61952e-10
6.38295e-09
1.43687e-09
-9.54966e-10
-5.84321e-09
1.80095e-09
-7.53964e-09
-7.2209e-09
7.47848e-09
-5.64494e-09
-6.80732e-09
2.06528e-09
-7.64593e-09
1.73916e-09
-1.78305e-09
-9.69593e-09
-4.17716e-09
1.9534e-09
-4.76441e-09
6.98726e-09
6.65938e-09
-1.26198e-08
-2.81106e-09
6.98821e-09
-8.75102e-09
7.87072e-09
8.32192e-09
-2.84358e-09
-5.63616e-09
1.52883e-10
5.81384e-10
-2.70125e-09
1.04405e-08
-6.7984e-09
-1.22948e-09
8.60825e-09
-5.74769e-09
-2.28356e-09
1.23239e-09
9.03111e-09
-8.41479e-09
-3.46203e-09
7.83577e-09
-1.50657e-09
-4.05194e-10
-7.04995e-09
1.81521e-09
-7.30561e-09
1.15143e-09
7.14618e-09
-8.52408e-09
-9.06261e-10
8.1363e-09
-2.21968e-09
4.52718e-09
-1.38105e-09
-1.01971e-08
3.66606e-09
-6.445e-09
-1.22216e-08
-5.79826e-09
8.54012e-09
9.47755e-09
5.45072e-09
-3.80984e-09
-1.38632e-08
1.91901e-09
-2.26765e-09
-1.36058e-08
-2.93946e-09
-3.30171e-09
6.90133e-09
4.28964e-09
-7.89079e-09
5.53778e-10
5.21048e-09
-9.06742e-09
2.08019e-09
-7.00014e-09
6.45314e-09
-1.53422e-09
6.28863e-11
7.89549e-09
-1.5297e-08
7.33701e-09
5.55078e-09
-1.22791e-08
6.79029e-09
5.75784e-09
2.6907e-09
7.08518e-09
2.70613e-11
-1.56245e-09
5.66766e-09
2.45514e-10
1.17057e-09
-1.07002e-09
1.01776e-08
-3.44038e-09
1.23971e-08
-7.70916e-09
-5.05947e-09
2.27439e-09
-5.44191e-09
8.2266e-09
-4.77915e-09
-1.55908e-09
1.27861e-09
1.15766e-08
-4.62524e-09
-4.6776e-09
-1.26596e-08
-2.05285e-09
7.4836e-09
7.22722e-09
-5.91565e-10
-1.03853e-08
-1.68359e-09
-6.74283e-09
-3.59426e-09
4.89417e-09
5.22123e-11
2.97319e-09
-9.76921e-09
-6.36373e-09
1.63658e-09
4.25507e-09
7.86107e-09
-1.41716e-08
-1.05121e-09
-6.38087e-09
6.84019e-09
-1.00584e-08
4.195e-09
-6.10294e-09
-1.31224e-09
-1.13372e-08
3.53635e-10
9.24111e-10
2.59018e-08
-1.74243e-08
-1.44171e-08
5.92275e-09
5.92627e-10
2.47804e-08
5.21204e-10
1.12885e-08
2.04876e-08
-1.926e-08
-3.86045e-09
2.13069e-08
1.57545e-09
-3.31129e-10
1.35203e-08
-1.4788e-08
-5.7329e-10
1.97426e-08
-1.76006e-08
1.789e-08
-1.84075e-08
1.47124e-08
1.46612e-08
2.88645e-09
-1.91162e-08
1.91334e-08
-7.6243e-09
-1.17347e-08
1.39219e-08
2.67695e-10
8.48252e-09
1.92167e-08
6.03806e-09
-1.81071e-08
-7.1475e-09
-3.76893e-09
6.96994e-09
1.60146e-08
8.37811e-09
-3.67911e-09
-2.90921e-10
-4.40598e-09
-1.35278e-09
6.2102e-09
3.5205e-09
1.19778e-08
-4.39207e-09
-1.12622e-08
9.00246e-09
7.94726e-09
-4.97219e-09
1.23718e-08
-9.11925e-09
6.03273e-09
-9.28421e-09
2.76099e-09
8.70972e-09
9.01019e-10
1.53441e-08
-3.05239e-10
-1.11331e-08
1.80757e-09
5.55643e-09
-7.50568e-09
-2.17337e-08
-4.05091e-09
-5.35788e-09
3.84049e-09
2.75388e-09
-1.5947e-08
6.63224e-09
2.33832e-09
5.6657e-09
2.17333e-09
4.58354e-09
9.79184e-09
9.73972e-09
9.44347e-09
-1.51096e-10
1.68595e-08
1.10645e-08
5.06751e-09
-9.91217e-09
6.75086e-09
-1.90569e-09
-1.16749e-08
4.7295e-09
7.04679e-09
-1.0111e-10
7.00859e-09
-3.15881e-09
-1.55244e-08
9.1356e-09
3.54004e-09
-5.66665e-09
4.14196e-09
9.72339e-09
1.28747e-08
-8.4284e-09
8.9753e-09
-1.34214e-08
9.82116e-09
3.23487e-09
-1.81251e-10
1.39495e-09
6.82025e-09
-3.6862e-09
-4.52815e-09
-4.16191e-09
1.06244e-08
5.08213e-09
-1.66693e-08
-3.60017e-09
-5.33782e-09
1.24784e-08
1.22879e-08
-1.93385e-09
-1.37877e-09
1.21969e-08
1.68341e-09
8.59847e-09
-1.21178e-08
1.06052e-08
-2.64923e-09
1.25961e-08
-1.11143e-08
-1.45557e-09
-1.31531e-08
-1.34242e-08
5.78052e-09
2.07966e-08
-5.72746e-09
-5.90964e-09
-1.51555e-09
-8.95845e-09
-1.01937e-08
-5.00843e-09
8.37962e-09
-1.46472e-08
-1.43863e-08
4.16687e-09
5.21033e-09
1.93772e-08
-5.21763e-09
-7.18129e-09
-4.02622e-09
8.60552e-09
-1.28577e-08
-5.55433e-09
1.12288e-08
-9.77766e-09
-1.60647e-10
5.04541e-09
-1.2854e-08
-1.15076e-09
-1.65434e-09
-2.93059e-09
-1.00623e-08
-1.07576e-08
-5.28394e-09
3.47409e-09
-1.15688e-08
-1.68423e-09
1.78008e-09
-7.6488e-09
-4.88943e-09
-7.60406e-09
6.28342e-09
-1.27555e-09
-7.80316e-09
2.79507e-09
-5.13984e-10
6.73857e-09
5.87451e-11
-5.12471e-09
4.32899e-09
7.95858e-09
-7.1626e-09
-9.61114e-10
-3.29847e-09
-8.64918e-10
4.75856e-09
-1.90582e-09
2.01145e-09
-4.86396e-09
-1.27196e-10
3.54008e-09
1.34579e-09
2.92008e-09
-5.5455e-10
-4.27128e-09
2.00539e-09
7.87609e-10
3.54548e-09
-5.37547e-09
3.18812e-09
-1.56639e-10
4.86146e-09
3.14785e-09
-1.27084e-09
-1.71998e-09
-9.89666e-10
7.03889e-09
1.89263e-09
-8.41802e-10
2.85643e-09
2.57629e-09
3.14533e-10
5.15926e-09
-2.28566e-09
3.74831e-09
-1.42832e-09
-1.323e-09
4.4645e-09
-1.29176e-09
3.15842e-09
-4.18513e-10
2.87506e-09
3.41765e-09
5.31714e-09
2.04736e-09
-1.13295e-08
3.96528e-09
4.34585e-09
-9.19939e-09
1.01709e-08
6.02409e-09
-8.82631e-09
4.84974e-09
1.34058e-08
-3.03578e-09
-1.29081e-08
7.26817e-09
3.41563e-09
2.22419e-09
3.18312e-09
-3.89441e-09
-1.21968e-08
2.94668e-09
-1.54376e-08
1.85656e-09
1.06344e-08
1.61137e-08
-1.78083e-09
-1.11498e-08
1.04263e-08
1.29556e-08
-1.02951e-08
4.04238e-09
-1.05237e-08
6.3378e-09
-6.10906e-09
1.10537e-09
3.29348e-09
-1.49224e-08
-5.27712e-09
2.8553e-10
2.57923e-09
9.30925e-09
3.89867e-09
-1.39249e-08
-3.97921e-09
8.37971e-10
6.83587e-09
-3.69457e-09
-3.99229e-09
-1.53928e-10
1.67268e-10
-4.78155e-09
6.42684e-10
6.94592e-10
3.44463e-09
-4.22263e-09
-4.51579e-09
3.95694e-09
5.13713e-09
-6.65272e-09
-1.30734e-08
1.45892e-08
6.11145e-11
5.71852e-09
-3.31676e-09
6.72137e-09
-2.56659e-09
-6.45569e-09
3.59243e-09
-4.53455e-10
-6.06473e-09
5.08314e-09
-3.01056e-09
-2.54754e-09
-3.43115e-09
-8.58444e-11
7.49709e-09
-3.49091e-09
-1.04617e-08
4.44744e-09
1.38369e-09
-8.72916e-09
2.89848e-09
-2.7884e-09
5.83321e-10
-5.38651e-09
1.76385e-09
-2.2533e-09
-1.1734e-09
1.66191e-09
2.59153e-09
-4.19304e-10
1.28144e-09
-3.45418e-09
6.73183e-10
1.58133e-09
6.65409e-10
-2.92045e-09
1.73647e-09
1.52792e-09
1.06392e-09
2.80312e-10
5.44878e-10
-5.52291e-10
1.58735e-09
-9.79067e-11
2.37901e-09
2.69315e-11
9.08583e-10
1.27506e-10
1.3509e-10
1.97664e-09
-8.24428e-10
-1.2877e-09
1.58418e-09
-3.5276e-10
-1.09664e-09
9.49183e-10
1.45586e-09
-8.21788e-10
8.71986e-10
1.03767e-10
-3.38735e-10
1.14898e-09
-2.08617e-09
4.42692e-10
1.91143e-10
1.44945e-09
2.00028e-09
-2.11029e-09
1.89027e-09
4.66039e-10
1.18021e-09
9.99131e-10
2.52016e-09
-5.42382e-09
1.30746e-08
-4.53259e-09
-1.47591e-09
8.52882e-09
-1.84367e-09
5.33737e-09
1.77908e-09
-5.27263e-09
4.06057e-09
-6.33675e-09
4.32631e-10
-1.66356e-10
6.56787e-09
-1.25106e-08
1.00919e-08
-7.60751e-09
1.55798e-09
-5.25162e-09
4.68426e-09
1.74949e-10
4.49333e-09
-3.32807e-09
2.02759e-09
4.22661e-09
-9.1706e-09
4.77767e-09
8.15229e-09
-3.64013e-09
2.10653e-09
8.61646e-10
1.37889e-09
-4.34644e-09
3.80818e-09
2.35885e-09
5.65214e-10
-1.60482e-09
3.76226e-09
-5.66739e-09
6.14753e-09
2.35193e-10
3.51545e-09
-1.26908e-08
6.53036e-09
2.64649e-09
-2.3265e-08
1.53143e-08
1.14672e-08
7.22779e-09
-1.44859e-08
-5.43252e-09
-1.29943e-08
-3.04244e-09
-9.2599e-10
-1.79024e-09
1.80354e-08
-9.80573e-09
-1.62879e-09
1.05106e-08
-9.26721e-09
5.99249e-09
-1.16754e-08
-2.34212e-08
2.2103e-08
6.67844e-09
-1.67472e-08
-4.41645e-09
3.75506e-09
-1.72915e-08
1.17486e-08
-1.01842e-08
1.23111e-08
-5.71129e-09
-1.76419e-08
6.06124e-09
9.84245e-09
-1.6918e-08
1.3648e-09
-2.04347e-08
-9.33627e-09
1.95873e-08
-1.25235e-08
1.93163e-09
4.77598e-09
-1.87086e-09
-1.98228e-08
-1.59077e-08
1.3298e-08
-1.68755e-08
-8.94541e-09
-8.55931e-10
4.81838e-09
-1.303e-08
2.90752e-09
-2.31889e-09
-1.61435e-08
-2.10649e-08
-9.21907e-09
-3.36863e-08
1.12762e-08
3.16292e-08
-1.12599e-08
-4.49252e-09
6.53399e-09
-2.54507e-08
-1.9495e-08
1.24934e-08
-1.43596e-08
-2.35842e-08
-2.49342e-08
-2.09412e-11
3.62315e-08
-9.65169e-09
-2.78912e-09
3.80771e-09
-2.58016e-09
-1.22355e-08
1.10081e-08
-1.60183e-08
1.98049e-08
-1.33006e-08
-1.53279e-08
1.26103e-08
-1.06153e-08
4.14709e-10
-3.10027e-09
9.2815e-09
-1.63542e-08
2.18359e-08
-1.24332e-08
-2.00182e-08
-3.14378e-09
-9.68523e-09
-2.13559e-09
-3.45861e-09
-6.08839e-09
-4.81241e-09
-5.63648e-09
-1.0137e-08
1.23146e-08
3.17512e-10
-1.88393e-08
9.06952e-09
-1.43885e-08
2.93509e-09
-3.5512e-09
-1.14136e-08
3.49163e-09
-1.34162e-09
9.26352e-09
-1.08155e-09
3.70761e-09
-1.40397e-08
6.5504e-09
1.94089e-09
-9.57299e-09
1.67422e-09
5.83384e-09
-9.57725e-10
-9.85404e-09
1.02168e-08
1.31137e-09
3.58882e-09
-1.15021e-08
5.074e-10
-1.07187e-08
1.39188e-08
7.10356e-09
2.22187e-09
1.22752e-08
-8.17909e-09
3.04172e-09
-3.94102e-09
5.473e-09
-4.57379e-09
-2.69874e-09
-3.98933e-09
9.72975e-09
2.22751e-09
5.17331e-09
2.81587e-09
6.92965e-09
7.57308e-09
7.98751e-09
-3.75664e-09
-3.8859e-09
5.06983e-09
-7.23366e-10
1.63006e-08
4.69385e-09
-1.06027e-08
-1.03863e-08
-7.00143e-09
1.20416e-08
6.95174e-09
6.12833e-09
-1.07251e-08
-2.34453e-09
1.29047e-08
-8.20632e-09
2.25668e-09
-6.02309e-09
-5.22855e-09
8.41172e-09
-8.66513e-09
-1.0346e-08
-1.09183e-09
2.50542e-09
6.85703e-09
-4.38491e-09
3.66009e-09
1.44042e-08
2.38223e-09
-3.09841e-09
-9.99042e-09
-8.19842e-09
-6.02121e-09
5.91463e-10
-6.40639e-09
4.82361e-09
-7.39887e-09
1.48864e-09
-2.1805e-09
2.60015e-09
1.67194e-09
-9.74319e-09
6.47856e-10
-6.37172e-09
-5.62351e-09
-9.37116e-10
-8.0722e-09
-2.15072e-09
3.62005e-09
1.30568e-09
-2.77591e-09
4.43841e-10
5.30526e-09
-7.89995e-09
1.99885e-10
5.44508e-09
-2.02549e-09
-5.46037e-09
8.09454e-09
-2.43454e-09
2.76492e-09
6.47258e-09
-8.79387e-09
9.57023e-10
6.44554e-09
-4.6374e-09
4.77518e-09
8.27817e-09
-6.58066e-09
-3.54451e-09
8.4917e-09
-1.70635e-10
5.16422e-09
-2.90168e-09
6.46117e-09
-6.61648e-09
1.27951e-09
3.50047e-09
3.31461e-09
2.64606e-09
2.56317e-10
-6.77106e-09
4.03934e-09
4.01061e-09
-4.70075e-10
1.60238e-10
6.65651e-09
1.15147e-09
5.47268e-09
9.67425e-09
8.49423e-10
3.86412e-09
4.49858e-10
5.36382e-09
9.30248e-10
3.20644e-09
5.65769e-09
4.32182e-09
2.18745e-09
-1.08339e-10
9.62045e-09
7.41956e-09
2.54211e-10
1.43437e-09
-5.59613e-10
-1.13096e-09
1.68976e-09
-6.30265e-10
-8.07058e-10
3.28131e-10
1.07993e-09
2.5306e-11
1.32244e-09
6.95053e-10
5.88955e-10
5.22909e-11
-1.20425e-09
4.22101e-10
-4.64897e-10
-3.25025e-10
6.40288e-10
1.00471e-09
5.91035e-10
6.46377e-10
-1.18737e-09
9.61517e-10
4.98983e-11
-7.8186e-12
-1.83001e-10
1.26881e-09
-1.15131e-09
1.20059e-09
-1.99155e-10
1.44813e-10
9.06652e-10
-1.41205e-09
-7.91812e-10
-6.96415e-10
1.4791e-09
3.75298e-12
-8.93557e-10
1.30266e-09
5.91231e-10
4.30806e-11
5.40521e-12
-9.23662e-10
6.95358e-10
2.68055e-11
-8.75036e-10
-1.46141e-09
3.84284e-11
1.18647e-08
-3.89479e-09
5.92899e-09
-8.2828e-09
-2.68893e-10
8.79517e-10
7.67673e-09
-2.7264e-09
-1.58965e-09
-3.96574e-09
-9.20996e-09
4.9361e-10
8.44169e-09
-4.85952e-09
-7.07652e-09
-1.24643e-09
-6.68366e-09
8.42986e-09
-2.01076e-10
-6.2881e-09
5.25533e-09
-6.92243e-09
7.60141e-09
-5.20435e-09
-3.30938e-09
-7.46197e-09
1.25095e-08
2.91506e-09
-7.96381e-09
-3.7135e-09
1.67122e-09
-4.24873e-09
-7.79731e-09
-1.12223e-09
-6.37187e-09
-3.16368e-09
1.72657e-09
1.48162e-09
-3.18051e-09
-3.16647e-09
2.42623e-09
-7.6295e-09
9.05642e-09
-1.29272e-08
9.6498e-09
-5.77781e-09
-3.73891e-09
8.83421e-09
3.96001e-09
1.11037e-08
5.74914e-09
-1.1853e-09
-1.56673e-08
7.38278e-09
-1.95339e-11
-1.61184e-08
-7.00952e-09
1.14523e-08
1.16744e-08
-7.44891e-09
-1.49512e-09
-7.17584e-09
-1.17237e-08
7.53169e-09
-2.81476e-09
-1.38964e-08
-5.27761e-09
6.81254e-10
-7.85823e-09
-5.02856e-09
5.8331e-09
8.0305e-09
1.83418e-09
2.78752e-09
-4.50115e-09
2.62604e-09
7.70697e-09
-6.16027e-09
-4.45133e-10
2.10597e-09
7.52472e-09
3.80634e-09
-1.25163e-08
-1.17189e-08
4.65277e-09
1.85181e-08
-5.83177e-09
-2.049e-08
1.41201e-08
9.51286e-09
-5.02379e-09
-6.93729e-09
2.61193e-09
-3.98009e-09
1.12602e-08
-6.12906e-09
1.70454e-09
5.99972e-09
-3.4236e-09
4.48772e-09
-4.6162e-09
-8.73856e-09
-2.60516e-11
6.03887e-09
2.72375e-09
-1.04606e-08
8.07849e-09
-6.35387e-09
-8.07693e-09
5.86568e-09
2.18028e-09
3.93231e-09
-4.08835e-09
-7.91874e-09
-2.19053e-09
-4.33727e-09
-5.72478e-09
5.61463e-09
6.14971e-09
6.83009e-10
1.6705e-09
2.98125e-09
-9.05944e-09
1.96485e-09
1.65362e-08
-3.50193e-09
-6.45464e-09
3.70167e-09
-5.64054e-09
8.3932e-09
-7.49623e-09
1.72469e-09
7.13613e-09
-6.34477e-09
1.12813e-08
-4.20824e-09
1.32112e-09
-4.56787e-09
4.78424e-09
-5.78932e-09
3.67016e-09
-2.66519e-09
-4.20757e-09
5.17093e-09
3.81996e-09
-1.18565e-09
3.21789e-09
3.16037e-09
-5.19454e-09
3.49226e-09
1.33983e-09
-6.01824e-09
4.80881e-09
1.90094e-09
4.24331e-09
-8.69363e-09
1.37155e-09
-1.33468e-09
-3.20802e-09
7.49694e-09
8.80976e-10
-1.26777e-09
1.72956e-09
1.94622e-09
1.59372e-09
7.1592e-09
4.02424e-09
-8.02328e-09
6.08497e-09
3.02016e-09
-8.61318e-10
6.2562e-09
4.6719e-09
2.61492e-09
-1.12297e-08
3.94217e-09
4.30578e-09
-1.12836e-08
1.16486e-08
1.67705e-09
-3.68764e-09
6.31554e-09
5.12619e-09
-7.79561e-09
-4.52101e-09
1.13239e-08
-8.47575e-09
-5.96183e-09
9.91627e-09
-3.22645e-09
-5.40508e-09
1.55358e-10
2.79082e-09
-8.17879e-09
-5.84229e-09
-7.39777e-10
1.11105e-09
1.08623e-09
-7.76517e-09
-3.25711e-09
6.27833e-09
-5.03214e-09
1.42739e-09
-1.54488e-10
-1.14344e-09
-2.09665e-09
-1.10953e-08
1.25099e-08
-1.29367e-08
3.9986e-10
-7.87184e-09
-3.62403e-09
1.252e-08
3.48868e-09
-3.8711e-09
-1.21377e-08
-9.30996e-09
-5.42139e-09
-7.82199e-09
-1.83453e-09
3.0493e-09
6.3368e-10
-1.29811e-08
8.43189e-09
3.91462e-09
-1.10595e-08
-5.05435e-09
3.35612e-09
-9.33413e-09
1.10323e-08
-9.40322e-11
-7.34153e-09
2.38129e-09
-4.71776e-09
-3.69468e-09
1.17685e-08
-7.34458e-09
2.53284e-09
-1.14561e-08
9.90862e-09
-5.7971e-09
-5.93998e-09
-7.09598e-09
1.57989e-09
1.28605e-08
5.36101e-10
-7.43945e-09
-5.95705e-09
1.01323e-08
7.26658e-09
-4.53832e-09
1.24623e-08
-4.76175e-09
-1.23997e-09
-6.46058e-09
-7.90201e-09
1.10302e-08
-5.67028e-09
-6.433e-09
-7.85529e-09
1.42929e-08
-4.14151e-09
-3.17762e-09
-4.88483e-09
-8.15547e-09
5.60087e-09
1.58725e-08
-7.91291e-09
-9.19948e-09
-2.20098e-09
1.01715e-08
-2.19146e-09
-9.41876e-09
-1.18013e-08
5.45887e-09
-4.13264e-09
-1.55816e-08
-1.12089e-08
1.17959e-09
-2.34886e-11
-1.91796e-10
-9.64837e-10
5.97199e-10
6.51439e-10
-7.08343e-11
-3.60667e-10
7.12333e-10
2.45477e-10
-5.97025e-10
2.36706e-09
-2.67877e-10
-2.45945e-09
-1.40864e-09
-2.66442e-09
1.3254e-09
2.74403e-09
-1.37704e-09
-8.43419e-11
5.1101e-11
-1.63545e-09
-1.6196e-09
5.90276e-10
-1.58798e-09
-1.42443e-09
-1.61668e-09
1.99766e-09
3.32387e-10
-8.70736e-10
-1.51453e-09
1.73616e-09
-1.22215e-10
-9.31603e-10
8.61352e-10
-1.97793e-09
-6.30848e-10
3.11057e-10
-5.06257e-10
8.24648e-10
8.7485e-11
-8.03792e-10
-5.05105e-10
2.14216e-09
-2.86705e-10
8.34384e-10
-1.05552e-09
-4.19452e-10
1.91202e-09
-1.58142e-09
9.91625e-09
2.15976e-09
-7.46739e-09
-4.6112e-09
7.59398e-09
7.56683e-09
-5.2455e-09
-1.94924e-09
-5.40518e-09
5.37296e-09
1.98283e-09
-5.52559e-09
3.10528e-09
4.70605e-10
-3.29471e-09
-6.9484e-10
-1.41494e-09
-1.57864e-09
3.08514e-09
-4.80141e-09
3.74632e-09
1.81853e-09
5.85833e-09
-2.80811e-09
-4.12175e-09
1.2078e-09
1.05083e-08
-2.67648e-09
7.09274e-10
5.98392e-09
-3.00779e-10
2.04862e-09
3.62443e-09
-4.2453e-09
1.8053e-09
2.88016e-09
-5.33148e-09
1.51867e-09
5.86043e-09
-2.81689e-09
5.90342e-10
-5.3027e-09
8.02881e-09
-2.2123e-09
-5.90662e-09
-1.02111e-08
-3.24897e-09
2.53012e-09
1.09293e-08
1.06893e-09
-9.79562e-09
-1.4845e-09
-1.02065e-08
-4.84368e-10
7.44171e-09
-8.97753e-09
5.25545e-09
-9.24943e-09
-2.15796e-09
6.15166e-09
7.66092e-09
-3.52198e-09
1.11628e-09
8.09202e-09
5.61294e-09
-6.81766e-09
-6.88767e-09
-2.34459e-09
1.18705e-09
1.13791e-08
-7.53553e-09
-1.31371e-09
-2.31221e-09
-2.06017e-09
-5.49956e-09
9.87182e-09
-4.2755e-09
-8.80597e-09
1.07689e-08
-5.32644e-09
-6.52944e-09
4.05677e-09
-8.884e-09
-4.15043e-09
-8.98709e-09
2.6943e-09
5.80838e-09
-3.23631e-09
-1.69429e-09
6.61786e-09
3.73727e-09
-1.14555e-09
4.11508e-09
1.09467e-09
-1.20276e-08
-2.50525e-09
-1.31159e-08
-1.15732e-09
-5.91662e-09
-7.79394e-10
7.85331e-09
-7.53285e-09
8.27413e-09
-1.89852e-09
-2.55708e-09
7.62661e-09
1.36941e-09
-6.43899e-09
5.0735e-09
8.60013e-10
-8.49051e-09
1.90932e-09
-9.97655e-09
9.83141e-09
-1.76424e-09
-7.47611e-10
7.37905e-09
-5.05482e-09
1.19337e-08
4.6899e-09
-7.46328e-09
-4.75948e-09
-2.21044e-09
9.83749e-10
-5.96855e-09
7.09843e-09
-3.09359e-09
-6.58182e-09
3.70687e-09
-5.79354e-09
4.89523e-10
1.91454e-09
-3.51077e-09
-4.19728e-09
-1.89582e-09
-2.77145e-09
4.25615e-09
-6.90688e-09
-1.83775e-09
1.37466e-09
-3.76313e-10
-8.14265e-10
2.46813e-09
-1.80886e-09
-1.76904e-09
-1.81922e-10
4.05528e-10
-3.61398e-10
4.37081e-10
-2.74196e-10
4.36088e-11
-5.81699e-10
6.32751e-10
-9.39597e-11
-3.74106e-10
4.70842e-10
-1.05575e-10
8.75813e-10
-6.97517e-10
-7.18751e-11
-5.2309e-10
-1.64159e-10
2.32116e-10
-1.56592e-11
4.09348e-10
-1.75149e-09
7.98394e-09
-3.9046e-09
-2.32803e-09
5.20462e-09
-4.62928e-09
-2.32704e-09
7.4329e-10
6.45062e-09
-1.98961e-09
-4.94184e-09
8.15321e-09
-1.35014e-09
7.55848e-09
-7.12911e-09
9.18917e-10
-8.00224e-09
8.02424e-10
2.38363e-10
-6.01598e-10
4.11688e-10
-4.24115e-11
-6.62643e-10
9.76871e-10
-7.82202e-11
8.15946e-10
-6.04355e-10
-5.63354e-10
1.38398e-10
-1.76092e-10
-3.22902e-09
8.62753e-09
-2.95732e-09
-2.44097e-09
5.6273e-09
-5.94737e-09
-2.90883e-09
-9.39593e-10
8.33963e-09
-1.77265e-09
-9.84119e-09
1.42173e-08
-5.31583e-09
-1.15377e-09
1.85351e-09
3.3021e-10
-1.02981e-09
-6.27722e-10
3.72173e-10
-8.95027e-10
5.7563e-09
-6.94246e-09
1.05006e-10
-1.12575e-09
6.07625e-09
-6.12464e-09
1.17273e-09
3.83892e-09
7.91074e-10
4.27532e-09
1.64348e-09
1.29735e-09
2.56801e-09
-1.14794e-09
-2.71584e-09
-1.90454e-10
5.50206e-09
-2.0121e-09
-3.29947e-09
2.76336e-09
-1.65441e-09
-3.16364e-09
-6.22924e-09
7.52311e-09
1.869e-09
4.27866e-09
-9.10778e-09
1.66413e-09
7.46199e-09
-4.45317e-09
1.26909e-09
-4.4899e-09
6.00495e-09
1.14313e-09
-2.65847e-09
-2.36237e-09
7.31953e-09
-2.36969e-09
-2.58732e-09
-3.6437e-09
-3.20832e-09
-3.10158e-09
-5.80026e-09