/*--------------------------------*- C++ -*----------------------------------*\
| =========                 |                                                 |
| \\      /  F ield         | OpenFOAM: The Open Source CFD Toolbox           |
|  \\    /   O peration     | Version:  v1612+                                |
|   \\  /    A nd           | Web:      www.OpenFOAM.com                      |
|    \\/     M anipulation  |                                                 |
\*---------------------------------------------------------------------------*/
FoamFile
{
    version     2.0;
    format      ascii;
    class       volVectorField;
    location    "150";
    object      wallShearStress;
}
// * * * * * * * * * * * * * * * * * * * * * * * * * * * * * * * * * * * * * //

dimensions      [0 2 -2 0 0 0 0];

internalField   uniform (0 0 0);

boundaryField
{
    WALL
    {
        type            calculated;
        value           nonuniform List<vector> 
1520
(
(0.00479263 -0.00403246 0.00213343)
(0.00626404 -0.00514016 0.00210529)
(0.0140566 -0.0391071 -0.0131235)
(0.0125051 -0.0308873 -0.0035839)
(0.0356835 -0.0301998 -0.0279942)
(0.0275991 -0.0237251 -0.0158573)
(0.0285772 -0.0241916 0.0106171)
(0.0389839 -0.0326727 0.0194256)
(0.00691413 -0.00660967 0.0015487)
(0.00852209 -0.00788629 0.000565691)
(0.013314 -0.0141377 -0.00308216)
(0.0106164 -0.0106184 -0.00062397)
(0.0182392 -0.0244593 -0.00564043)
(0.0211754 -0.0270706 -0.0108886)
(-0.00100573 -0.000155627 0.00170028)
(-0.000694037 -0.000136663 0.00224013)
(0.0053265 -0.00407747 0.00255254)
(0.00584594 -0.00477772 0.00279942)
(0.0416184 -0.0336428 -0.0500683)
(-0.00490018 0.00316138 -0.00209742)
(0.00313062 -0.0085727 0.0212366)
(0.0115964 -0.0165484 0.00251188)
(0.00283448 -0.0131686 0.00844679)
(0.042901 -0.0315864 -0.0301814)
(0.0422498 -0.0398251 -0.03971)
(0.0358836 -0.0442286 -0.00788955)
(0.0313649 -0.0449636 -0.0133686)
(0.000551914 -0.0115428 -0.00147298)
(-0.00607854 -0.0191558 -0.00214099)
(0.0164336 -0.0455265 -0.0412257)
(0.0147341 -0.0461206 -0.0347297)
(0.013196 -0.0140151 0.00785431)
(0.0154231 -0.0127678 0.00653634)
(0.0114602 -0.0154171 0.000816546)
(0.019213 -0.0202079 -0.00633963)
(-0.00102253 0.00278246 0.00128871)
(0.00017081 -0.000483735 0.000883086)
(0.000136067 -0.000720765 0.00131444)
(0.00755082 -0.0343485 -0.0136362)
(0.00580856 -0.0214941 0.00414032)
(0.006782 -0.0263617 0.0038284)
(0.00622121 -0.0278986 -0.00900192)
(0.00396144 -0.0232963 -0.00294279)
(0.00664449 -0.0266697 -0.00459053)
(0.0018344 -0.00147272 0.00200351)
(0.00333157 -0.00301733 0.0030087)
(0.00614275 -0.00547846 0.0023623)
(0.0030173 -0.00253019 0.00241267)
(0.00280158 -0.00208777 0.00253066)
(0.00467123 -0.00353789 0.00246221)
(0.00398346 -0.00290815 0.00219197)
(0.00169409 -0.00159494 0.00227156)
(-0.00100026 -0.000469113 0.000464152)
(-0.0010204 -0.000441602 0.000101827)
(-0.000986638 -0.000293177 -0.000276312)
(-0.0010838 -0.000458163 0.000264148)
(-0.00104899 -0.000431887 0.000262338)
(-0.00104644 -0.000331361 -0.000246263)
(0.000291965 -0.000217742 0.00320778)
(-0.000441816 -0.000142989 0.00235207)
(-0.000414447 -6.18378e-05 0.00234312)
(-4.10809e-05 -0.0001868 0.00269001)
(-2.00135e-06 -0.000101304 0.00294557)
(0.00825421 -0.0507755 -0.0336505)
(0.0120537 -0.0613069 -0.0359826)
(0.00919808 -0.0562249 -0.030873)
(0.0144929 -0.0536038 -0.0406591)
(0.0172698 -0.0525861 -0.0409478)
(0.0187969 -0.0627977 -0.0414349)
(0.015775 -0.0203809 0.00645349)
(0.0126252 -0.0164217 0.00799922)
(0.0105268 -0.0199282 0.00396494)
(0.0136668 -0.0103744 0.00856612)
(0.015085 -0.0143798 0.00786113)
(0.0129816 -0.0231022 0.00408462)
(0.00950485 -0.0316981 0.00163226)
(-0.00165493 -0.0262963 0.00455867)
(0.000372696 -0.0307024 0.00170264)
(-0.00417488 -0.0302356 0.00372273)
(0.00525508 -0.0287456 0.00370592)
(0.00666074 -0.0355208 0.00145134)
(-0.000257796 -0.00413924 -0.000501133)
(-0.00344368 -0.0016019 -0.00106302)
(-0.00104853 -0.000497818 -3.56207e-05)
(0.000330496 -0.00253305 -2.4782e-05)
(-0.00230237 -0.00845768 -0.00111315)
(-0.00628074 -0.00853141 -0.000856474)
(-0.00614571 -0.00709089 0.00709037)
(-0.00380547 -0.00825392 0.00772033)
(-0.00157499 -0.00600163 0.00658422)
(0.00195689 -0.00775583 0.00584822)
(-0.00438051 -0.00623616 0.00665369)
(-0.000884027 -0.00909443 0.00803074)
(-0.000490793 -0.00197854 0.00127875)
(-0.000707149 -0.00227763 0.00124247)
(0.000515191 -0.00166837 0.00166643)
(-0.000322245 -0.00169451 0.0011852)
(0.000306182 -0.0016895 0.00106092)
(-0.000962946 -0.00222111 0.00140953)
(0.0388171 -0.0257768 -0.0419422)
(0.0377302 -0.0206357 -0.0377896)
(0.0353106 -0.0236403 -0.0464241)
(0.031417 -0.0160909 -0.0336149)
(0.0338555 -0.017688 -0.0414971)
(0.0366238 -0.0269336 -0.0473199)
(0.002612 -0.00345073 -0.000388709)
(0.0037379 -0.0130924 -0.00480572)
(0.00403214 -0.00859586 -0.000904527)
(0.00351394 -0.0070911 -0.00202741)
(0.00332065 -0.01071 -0.00505916)
(0.00281547 -0.00376555 0.000744173)
(0.0311186 -0.0294357 0.0360221)
(0.0348692 -0.0291104 0.0309521)
(0.0340106 -0.0296625 0.0393707)
(0.0319211 -0.0217592 0.040614)
(0.0294803 -0.0226229 0.0375077)
(0.0272489 -0.0221892 0.0452773)
(-0.00334587 -0.00473127 0.00294824)
(-0.00235745 -0.00358969 0.00205094)
(-0.00472199 -0.00514518 0.00378685)
(-0.0024532 -0.00382427 0.00223329)
(-0.00367777 -0.00530436 0.00418491)
(-0.00338275 -0.00397541 0.00298897)
(0.0114487 -0.0139896 0.000607243)
(0.00953619 -0.017219 0.00374797)
(0.00753208 -0.0131862 0.0036915)
(0.0150909 -0.0189976 -0.000938789)
(0.0160061 -0.0186849 -0.00208897)
(0.00675632 -0.0150343 0.005887)
(0.004505 -0.0149362 0.00565784)
(-0.00531571 -0.0142801 0.00914204)
(-0.000827871 -0.0150687 0.00881457)
(-0.00852665 -0.0142545 0.00881422)
(0.000391336 -0.016044 0.00742174)
(-0.00532416 -0.0153474 0.00862051)
(-0.0118203 -0.0115538 0.00358618)
(-0.010223 -0.0153337 0.00688097)
(-0.0129737 -0.0144012 0.00294947)
(-0.0111775 -0.0122743 0.00562606)
(-0.0113423 -0.0162185 0.00488334)
(-0.0117088 -0.0123241 0.00237315)
(-0.00134211 -0.00317356 0.000373951)
(-0.000990254 -0.00296895 0.000804073)
(-0.000945801 -0.00191117 0.000299051)
(-0.000826699 -0.00202383 0.000756924)
(-0.00150763 -0.00435741 0.000174906)
(-0.00136586 -0.0042075 0.000444816)
(0.00186864 -0.0195293 -0.00439051)
(0.00304965 -0.0216601 -0.00815794)
(0.00617654 -0.0258961 -0.010114)
(0.00307526 -0.0204724 -0.00830297)
(0.00602708 -0.0258327 -0.00591091)
(0.00782094 -0.0262468 -0.00968035)
(0.0062817 -0.025206 0.00676197)
(0.00388125 -0.0235949 0.00281216)
(0.00921198 -0.0278128 0.00433926)
(0.00661015 -0.0257358 0.003128)
(0.00242574 -0.0203177 0.00343494)
(0.00346895 -0.0231131 0.00518935)
(-0.00160219 -0.00418221 0.000298185)
(-0.00160288 -0.0044088 0.000281774)
(-0.00179226 -0.00928712 0.00112347)
(-0.00185325 -0.00595132 0.000920873)
(-0.00176319 -0.00776036 0.00141515)
(-0.0018729 -0.00655956 -0.000194921)
(0.0172529 -0.0352715 -0.00343593)
(0.00919064 -0.0284132 -0.00651346)
(0.0144238 -0.032924 -0.00785229)
(0.00829755 -0.0266584 -0.00474321)
(0.0117191 -0.0322089 -0.00263586)
(0.0189373 -0.0374084 -0.00509954)
(0.0363733 -0.0426106 0.00143719)
(0.0317144 -0.0413385 0.00445754)
(0.029648 -0.042947 -0.00194888)
(0.0340519 -0.0418049 -0.00460943)
(0.0348925 -0.041208 0.00599314)
(0.0273272 -0.040944 6.81351e-05)
(0.0242063 -0.0367075 -0.00641926)
(0.0222095 -0.0411251 -0.00552651)
(0.0354165 -0.0412034 -0.0169704)
(0.0322122 -0.0395959 -0.0131266)
(0.0349772 -0.0458401 -0.0153565)
(0.0271074 -0.0416981 -0.00927171)
(-0.00854162 -0.0173994 0.000145366)
(-0.00923984 -0.0240499 0.00401836)
(-0.0095279 -0.0205974 -0.000116755)
(-0.00980223 -0.02084 0.00383907)
(-0.00821515 -0.0231139 0.00126217)
(-0.0111527 -0.0173858 0.00105236)
(0.0127277 -0.0430543 -0.0232761)
(0.00958353 -0.029008 -0.00625053)
(0.0124564 -0.0399894 -0.0204368)
(0.0114024 -0.0379373 -0.0111496)
(0.0122553 -0.0413568 -0.0196665)
(0.0102673 -0.0346504 -0.00992893)
(0.0106468 -0.038101 -0.0190269)
(0.0149173 -0.0367092 -0.00423044)
(0.00732804 -0.0200571 0.00507441)
(0.00648704 -0.0237335 -0.00148997)
(0.0108013 -0.0201326 0.00805127)
(0.0101842 -0.023345 0.00316233)
(0.00907198 -0.0171107 0.00774471)
(0.00871389 -0.0290477 -0.000784589)
(0.016592 -0.0185191 0.004534)
(0.0166479 -0.0132023 0.00563432)
(0.0186106 -0.0212631 0.00456927)
(0.0147726 -0.0125722 0.00335632)
(0.0154466 -0.0112809 0.00215566)
(0.0189248 -0.0178116 0.00357192)
(0.0173093 -0.0485006 -0.0269274)
(0.0152965 -0.0470945 -0.0299921)
(0.0179862 -0.0478554 -0.0197677)
(0.0194854 -0.0511168 -0.0213391)
(0.0154848 -0.0492972 -0.0273622)
(0.0147554 -0.0495235 -0.0342775)
(0.0183073 -0.0374057 -0.0117482)
(0.0146163 -0.0279855 -0.0068441)
(0.0173305 -0.028979 -0.00547233)
(0.0197962 -0.0385412 -0.0112257)
(0.0200985 -0.0353829 -0.008568)
(0.0142293 -0.0322766 -0.0098177)
(0.0189072 -0.0464129 -0.0185779)
(0.0215123 -0.0473009 -0.0178565)
(0.0196411 -0.0479082 -0.0225363)
(0.02106 -0.0493695 -0.0233424)
(0.0203257 -0.0442506 -0.0157036)
(0.0197769 -0.0505169 -0.0248022)
(-0.00865839 -0.0238975 -0.00141231)
(-0.00336654 -0.018812 -0.00372982)
(-0.00430549 -0.0181802 -0.00480665)
(-0.00591746 -0.0265622 -0.000826225)
(-0.00501042 -0.0287199 -0.00410794)
(0.0203278 -0.0379641 -0.00696843)
(0.0186106 -0.0423334 -0.00686916)
(0.00581017 -0.0334486 -0.0016337)
(0.0124767 -0.039512 -0.00195818)
(0.00806188 -0.0350921 -0.00267466)
(0.0299961 -0.0460496 -0.0134656)
(0.0351472 -0.043849 -0.0172107)
(0.035677 -0.0447403 -0.0191823)
(0.0314937 -0.0445985 -0.0152888)
(0.036208 -0.0461821 -0.0197269)
(0.0290827 -0.0433963 -0.0124887)
(0.0273846 -0.0270751 -0.0116929)
(0.0369088 -0.0328823 -0.0241329)
(0.0311767 -0.0298388 -0.0194033)
(0.0160347 -0.0319877 0.000896028)
(0.0223459 -0.0307209 -0.00508515)
(0.0207976 -0.0269928 -0.00342342)
(0.0322413 -0.0299279 -0.015388)
(0.0286294 -0.0319094 -0.0104758)
(0.0431476 -0.0398361 -0.0282557)
(0.0444209 -0.0380072 -0.0407564)
(0.0406394 -0.0381323 -0.0250692)
(0.0448051 -0.0368744 -0.0364002)
(0.0445314 -0.0372391 -0.0393544)
(0.0399357 -0.0341867 -0.0296282)
(0.0310939 -0.0362362 -0.0229738)
(0.0273634 -0.0336583 -0.017841)
(0.0280192 -0.0282669 -0.0186039)
(0.0233852 -0.0271399 -0.00918699)
(0.0238992 -0.0256876 -0.013569)
(0.0291439 -0.0354348 -0.0267139)
(0.0316034 -0.0481186 -0.0466618)
(0.0320352 -0.0455418 -0.0426538)
(0.0281369 -0.0537108 -0.0462865)
(0.0350209 -0.0480778 -0.0404409)
(0.0294218 -0.047165 -0.0387262)
(0.028587 -0.0534745 -0.0403758)
(0.00088422 -0.00902293 0.00320406)
(0.000514798 -0.0147068 -0.00361983)
(-5.66025e-05 -0.00818217 0.000787441)
(0.00121997 -0.0129405 0.00119791)
(0.000292435 -0.0111463 0.000932493)
(-0.000156883 -0.00494291 0.00209511)
(-0.000552561 -0.00456963 0.00205298)
(0.000520829 -0.00347533 0.00313462)
(-6.64281e-05 -0.00322182 0.00212368)
(-0.000532599 -0.00790295 0.00110769)
(-0.000773243 -0.00679379 0.00135718)
(0.00100471 -0.00157408 0.00263205)
(0.000981682 -0.00109417 0.00226838)
(0.000734456 -0.00158246 0.00286116)
(0.000499157 -0.00223867 0.00251669)
(0.00058129 -0.000824624 0.00177697)
(0.000634721 -0.00101077 0.00178488)
(0.000319727 -0.0018463 0.00233461)
(0.0229338 -0.0454428 -0.0264446)
(0.0146188 -0.0357691 -0.0243011)
(0.0124195 -0.0313072 -0.0238288)
(0.02399 -0.0378707 -0.0323236)
(0.0185465 -0.038395 -0.0212276)
(0.0113512 -0.0344464 -0.020366)
(0.0208137 -0.0422624 -0.0383797)
(0.0241837 -0.0410757 -0.0519082)
(0.0174748 -0.0458361 -0.0369264)
(0.0213246 -0.0467407 -0.0445365)
(0.014062 -0.0412972 -0.0358216)
(0.0342129 -0.0392357 -0.0454376)
(0.0344284 -0.0424823 -0.0510524)
(0.039937 -0.0393412 -0.0481271)
(0.0364795 -0.0342478 -0.0429143)
(0.0321436 -0.0436699 -0.0477695)
(0.0353489 -0.0347137 -0.0508716)
(0.0409674 -0.0249501 -0.0319962)
(0.041407 -0.0279722 -0.0365877)
(0.0472182 -0.037784 -0.0331542)
(0.037541 -0.0247134 -0.022896)
(0.0436896 -0.0343787 -0.0373582)
(0.0442688 -0.0294207 -0.0270014)
(-0.00137982 -0.00252589 0.00170916)
(-0.000817922 -0.00176799 0.00128798)
(-0.00159664 -0.00193942 0.00150037)
(-0.000961297 -0.00164606 0.00108638)
(-0.00123364 -0.00170944 0.00123648)
(-0.00187015 -0.00236081 0.00195644)
(0.0223896 -0.0382468 -0.0175351)
(0.0191514 -0.0454734 -0.0235557)
(0.019788 -0.043056 -0.0143831)
(0.0210442 -0.0334115 -0.0120589)
(0.0209397 -0.0344341 -0.0151285)
(0.0211084 -0.040848 -0.0209525)
(0.0112721 -0.0357177 0.00262975)
(0.0128157 -0.0385183 -0.0020241)
(0.0140983 -0.0315746 -0.00154332)
(0.0143795 -0.0326349 -0.00415687)
(0.0121261 -0.0402218 -0.00505896)
(0.0392135 -0.0314103 0.0370642)
(0.0274735 -0.0216933 0.0398271)
(0.0291877 -0.0276159 0.0266648)
(0.027538 -0.0218419 0.0433344)
(0.0180925 -0.018848 0.0267423)
(0.0221454 -0.0203188 0.021716)
(0.0187349 -0.0180434 0.0129416)
(0.0329214 -0.0272596 0.0124455)
(0.0407093 -0.0333369 0.00740275)
(0.035676 -0.0315945 0.00365269)
(0.0478471 -0.0378457 -0.00256206)
(0.0431147 -0.0368162 0.00700604)
(0.0417865 -0.0330185 -0.00259564)
(0.00599401 -0.0232109 0.0115616)
(0.0014837 -0.0186611 0.00934116)
(0.00524551 -0.023435 0.00950494)
(0.00371765 -0.0209451 0.0124815)
(0.00258237 -0.0207052 0.00688597)
(0.000501059 -0.0172307 0.00806842)
(-0.0119597 -0.0264351 0.0309556)
(-0.021049 -0.0285914 0.0348288)
(-0.0189844 -0.0343934 0.0398366)
(-0.0138991 -0.0320428 0.0272668)
(-0.00819075 -0.0512796 0.0248657)
(-0.0124707 -0.0405421 0.0255828)
(-0.0166107 -0.0452706 0.0345222)
(-0.00847308 -0.0405637 0.0234861)
(-0.0137548 -0.047464 0.0261961)
(-0.0105746 -0.0503847 0.0202242)
(0.00821567 -0.0330377 0.00788396)
(0.0092241 -0.0365738 0.00493697)
(0.00317557 -0.0451093 0.00738947)
(0.00331719 -0.0400673 0.0139655)
(0.00627935 -0.0359838 0.00809468)
(0.00632568 -0.0436842 0.00836977)
(-0.00228809 -0.0544854 0.0074416)
(-0.00268256 -0.069708 0.00993636)
(0.00131833 -0.0603034 0.000351288)
(0.00165898 -0.0550274 0.00991825)
(-0.00737761 -0.0565603 0.012142)
(-0.00750904 -0.0611863 0.0224728)
(0.00642231 -0.0610834 -0.0100421)
(0.00984992 -0.0611587 -0.00295106)
(0.0156865 -0.0517707 -0.0108195)
(0.0143366 -0.0482663 -0.0144442)
(0.0116959 -0.0598903 -0.0161049)
(0.0151723 -0.0575998 -0.017934)
(0.0106258 -0.00949449 -0.00287734)
(0.00391131 -0.00512891 -0.000119525)
(0.00511848 -0.00549436 -0.0017082)
(0.00885105 -0.00726338 -0.00361565)
(0.00179903 -0.00358909 -0.000719547)
(0.0085533 -0.00836555 -0.00121337)
(0.0125241 -0.00556367 -0.00847322)
(0.01633 -0.00706519 -0.0123074)
(0.00933138 -0.00487131 -0.00589885)
(0.0121287 -0.00767491 -0.00711146)
(0.0081739 -0.00596896 -0.00433017)
(0.016149 -0.00812412 -0.0111036)
(0.0276739 -0.0109008 -0.0277614)
(0.0283477 -0.00944042 -0.0362598)
(0.0242721 -0.0066823 -0.024127)
(0.0248697 -0.00964418 -0.0221958)
(0.0306076 -0.0123958 -0.0357519)
(0.026827 -0.00738179 -0.0304341)
(-0.00234052 0.00393755 9.57386e-05)
(-0.00166933 0.00398156 0.000332663)
(-0.00126765 0.00379974 -0.000100012)
(0.000569129 0.00359121 0.0007745)
(-0.00148017 0.00583227 -0.000201958)
(-0.00104261 0.00412488 -0.000541803)
(-0.00219701 -0.0438502 0.0113206)
(-0.0118245 -0.0649076 0.017675)
(-0.0056904 -0.0709561 0.00600056)
(-0.00428583 -0.0657513 0.00184007)
(-0.00305742 -0.0554817 0.000231381)
(-0.0104593 -0.0603459 0.0159918)
(0.0012302 -0.00836127 0.00774829)
(-0.0089401 -0.0318118 0.0289836)
(-0.00944179 -0.0400446 0.0209986)
(0.000500176 -0.00806127 0.00533644)
(-0.000290423 -0.0230302 0.0126164)
(-0.00413165 -0.0188697 0.0184252)
(0.00104909 0.00041041 0.000834729)
(0.00211182 -0.00275561 0.0012033)
(0.00280347 -0.014389 0.00130703)
(0.00267204 -0.00753188 -0.000250838)
(0.00220552 -0.0025923 0.00247025)
(0.002506 -0.0135932 0.0030704)
(0.0384015 -0.0310735 -0.0523967)
(0.0450682 -0.0396383 -0.0454591)
(0.0413943 -0.033494 -0.0592196)
(0.0444836 -0.0376673 -0.0517856)
(0.0469739 -0.0394232 -0.0475793)
(0.0233569 -0.0501334 -0.0486529)
(0.0232802 -0.041754 -0.0499883)
(0.016298 -0.04415 -0.0477019)
(0.0194005 -0.0435018 -0.0490225)
(0.0288808 -0.0494527 -0.0569053)
(-0.00123759 -0.00154776 -5.881e-05)
(-0.00120892 -0.00122895 -0.00011462)
(-0.00128647 -0.00157845 -4.2275e-05)
(-0.00104535 -0.000900673 -0.000302317)
(-0.000954563 -0.000830327 -0.000282379)
(-0.00109185 -0.00114881 -0.000291045)
(-0.00118966 -0.000982679 8.69899e-05)
(-0.000971038 -0.000698216 -0.000126235)
(-0.000969824 -0.000590178 7.26742e-05)
(-0.00124121 -0.000917575 0.000168669)
(-0.00101298 -0.000656121 0.000414697)
(0.00460204 -0.00412047 0.00568712)
(0.00423178 -0.00387061 0.00641061)
(0.00356068 -0.00268382 0.00546854)
(0.00510273 -0.00501176 0.00635316)
(0.00403981 -0.00303016 0.00519493)
(0.00320146 -0.00231901 0.00525949)
(0.0071223 -0.0105945 0.00633408)
(0.00670645 -0.0101482 0.00793059)
(0.00610712 -0.00697007 0.00650639)
(0.00709403 -0.00848597 0.00585221)
(0.00734586 -0.0122438 0.00739358)
(0.00640921 -0.00798748 0.00683524)
(-0.0010866 -0.00112595 0.00137245)
(-0.00118354 -0.00069497 0.000479576)
(-0.00119669 -0.000967085 0.000838368)
(-0.001034 -0.000739333 0.000482215)
(-0.00117871 -0.000740848 0.000853211)
(-0.00108273 -0.00106615 0.00138859)
(0.00191169 -0.00205277 0.00250428)
(0.00170029 -0.00237559 0.00296464)
(0.000430567 -0.00222979 0.0030838)
(-0.00066594 -0.00155979 0.00260239)
(0.000663601 -0.00147155 0.00256556)
(-0.000341135 -0.00136911 0.00220281)
(-0.000653602 -0.000515627 0.00101981)
(0.00027669 -0.000851935 0.00169472)
(-0.000428805 -0.000797155 0.00151724)
(-0.000238138 -0.00076424 0.00164415)
(-0.000845557 -0.000612793 0.00108746)
(6.45012e-06 -0.000873362 0.00177425)
(-0.00173264 -0.00216933 0.00128978)
(-0.00193196 -0.00227283 0.00164779)
(-0.00156827 -0.00172518 0.00078495)
(-0.00150994 -0.00148287 0.000944634)
(-0.00199005 -0.00261677 0.00179491)
(-0.00161418 -0.00160549 0.0012945)
(-0.00124932 -0.00100354 0.000326709)
(-0.00135955 -0.000877898 0.00058623)
(-0.00130543 -0.000859756 0.000465377)
(-0.00145892 -0.00129159 0.000431734)
(-0.00148391 -0.00119395 0.000397861)
(-0.000397311 3.18522e-05 0.00220307)
(0.00112235 -0.000547663 0.00202214)
(0.00116482 -0.000701786 0.00245479)
(0.000615835 -0.000469135 0.00188561)
(0.00195441 -0.00115957 0.00302019)
(0.00213482 -0.0010397 0.00231001)
(0.00273254 -0.00153125 0.00297264)
(-0.000300397 -0.000214767 0.00110789)
(-0.00077593 -0.000288601 0.000498811)
(-0.000484484 -0.000325011 0.00122784)
(-0.000682314 -0.00023671 0.00070911)
(-0.00083665 -0.00030975 0.000331235)
(-0.000727587 -0.000261733 0.00055113)
(0.0209284 -0.0125409 -0.0108725)
(0.0225088 -0.0105755 -0.0154766)
(0.0312623 -0.0167285 -0.0224076)
(0.0282533 -0.0153629 -0.0158968)
(0.0276785 -0.0129156 -0.0217246)
(0.0154587 -0.0095989 -0.0092752)
(0.00280294 -0.0286923 0.0132192)
(0.000688276 -0.0319427 0.0172427)
(-2.1346e-05 -0.0341691 0.0166932)
(0.00427706 -0.0323315 0.0113754)
(0.00496845 -0.0286105 0.0136185)
(0.00315813 -0.0356212 0.0126157)
(0.00502954 -0.0179949 0.0133398)
(0.00706748 -0.0160596 0.00933804)
(0.00641555 -0.0132774 0.00979873)
(0.00645523 -0.0201166 0.0115257)
(0.00625912 -0.0146731 0.0109352)
(0.00546839 -0.0219096 0.0119657)
(0.00576285 -0.00754386 0.0078995)
(0.00487267 -0.00589177 0.00825101)
(0.00581284 -0.00901652 0.009089)
(-0.00136677 -0.0120819 0.00556948)
(-0.00185992 -0.0112498 0.00694388)
(-0.00230928 -0.00996098 0.00422568)
(-0.00240284 -0.00798671 0.00437365)
(-0.00222064 -0.00916759 0.00522783)
(-0.00151068 -0.0018044 0.00041412)
(-0.00137751 -0.00139448 0.00020784)
(-0.00145801 -0.00138313 0.000206476)
(-0.00161678 -0.00167968 0.000448289)
(-0.00180983 -0.0022752 0.000415454)
(-0.001687 -0.0020645 0.000387278)
(-0.00120654 -0.0125518 0.00199693)
(-0.000506966 -0.0151308 0.00343481)
(-0.00192352 -0.0102576 0.00289375)
(-0.00222365 -0.0100074 0.00236753)
(-0.00129102 -0.0126457 0.00415017)
(-0.000220362 -0.0156996 0.00405076)
(0.000412916 -0.00115885 0.00134059)
(0.000474269 -0.000839565 0.00130381)
(-7.94102e-05 -0.00116093 0.00110865)
(0.000597619 -0.000952404 0.00152416)
(-8.06075e-05 -0.00103913 0.000953613)
(3.5276e-05 -0.000660282 0.000881583)
(-0.000411 -0.000326623 -1.93779e-05)
(-0.000832833 -0.000335461 -0.000190845)
(-0.000727627 -0.00024049 -0.000329582)
(-0.000740491 -0.000349018 -7.78061e-05)
(-0.000527701 -0.000172627 -0.00037825)
(-0.000332658 -9.10194e-05 -9.97856e-05)
(-0.000835715 -0.000750698 0.000358894)
(-0.000641131 -0.00106105 0.000726712)
(-0.000978376 -0.00119855 0.000776398)
(-0.00104206 -0.00110414 0.00076048)
(-0.000370237 -0.000717676 0.000475286)
(-0.000439961 -0.000793799 0.000497824)
(-0.000478773 -0.000731753 0.000128732)
(-0.000668486 -0.000787663 -0.000202475)
(-0.000487344 -0.000433762 -0.000306445)
(-0.000428816 -0.000389498 -1.52482e-05)
(-0.000446131 -0.000254028 -0.000418367)
(0.0165808 -0.0189886 -0.00506279)
(0.0169962 -0.0226607 -0.00737452)
(0.0140487 -0.0151579 -0.00208886)
(0.0151388 -0.0185762 -0.00316221)
(0.0127639 -0.0206394 -0.000617542)
(0.0114023 -0.0130609 -8.51977e-06)
(0.0140903 -0.0225066 -0.00213348)
(0.0134248 -0.0171528 -0.00260854)
(0.0120886 -0.0170935 0.000657137)
(0.0116357 -0.013877 0.000673227)
(0.000224484 -0.00304231 0.00361387)
(0.000974188 -0.00302482 0.00342356)
(0.00297173 -0.0037392 0.00349642)
(0.00201873 -0.00380826 0.00352019)
(0.00512447 -0.00458164 0.00196443)
(0.0026828 -0.00569819 0.00474668)
(0.0059073 -0.00663472 0.0028234)
(0.00557229 -0.00743959 0.00313342)
(0.00362295 -0.00512625 0.00300557)
(0.0079229 -0.00923363 0.00215118)
(0.0085116 -0.00864062 0.00110987)
(0.00183957 -0.00774075 -0.00113814)
(0.00645196 -0.00946342 -5.47992e-05)
(0.00563212 -0.0100756 -0.0018098)
(0.00328131 -0.0118266 -0.00229489)
(8.97851e-05 -0.0126847 -0.00339015)
(-0.00366052 0.000915534 -0.00157519)
(-0.00721334 -0.00624431 -0.000531105)
(-0.0044403 -0.00111005 -0.00121958)
(-0.00598624 -0.0011192 -0.00174459)
(-0.00919909 -0.00599172 -0.000200126)
(-0.00872777 -0.00684498 0.00335514)
(-0.0072524 -0.00709245 0.00505479)
(-0.00872363 -0.00848316 0.00682115)
(-0.00596243 -0.00583471 0.0030778)
(-0.00933366 -0.00802906 0.00537288)
(-0.00403899 -0.00440558 0.00115873)
(-0.000592593 -0.00232 0.00116709)
(-0.00125062 -0.00319427 0.0014396)
(-0.000163213 -0.00172555 0.000710383)
(-0.00180149 -0.00312179 0.000714187)
(-0.00241661 -0.00444178 0.00187728)
(-0.000520389 0.00142546 -0.000559221)
(-0.000544567 0.00256996 -0.00111122)
(-0.000493211 -0.000644792 0.000365611)
(-0.000242868 0.000149034 -0.000344102)
(-0.00174832 0.00292573 -0.00125452)
(-0.00150474 0.00294076 -0.00141501)
(-0.0110596 -0.0117696 0.00753937)
(-0.0114866 -0.0115936 0.0064476)
(-0.00942335 -0.0107898 0.00714515)
(-0.0106672 -0.0105989 0.00611696)
(-0.0120904 -0.00889823 0.00217542)
(-0.0121764 -0.00996481 0.00432293)
(0.00721155 -0.00767008 0.0109737)
(0.00481075 -0.00516999 0.0032971)
(0.0111321 -0.0116315 0.000119496)
(-0.000242481 -0.000358813 0.000264492)
(0.0398935 -0.0401359 0.018299)
(-0.00229075 -0.00750866 0.00132544)
(-0.00175307 -0.00275753 0.000421933)
(-0.00158371 -0.00210398 0.00035417)
(-0.00181092 -0.00363644 0.000369993)
(-0.00218251 -0.00458264 0.00159891)
(-0.00217934 -0.00536635 0.00179952)
(-0.00186548 -0.00312336 0.000549788)
(0.00662041 -0.0113289 0.00835605)
(0.00413984 -0.0189253 0.0136772)
(0.00259881 -0.0210071 0.0170948)
(0.00746366 -0.0214966 0.00993525)
(0.00799893 -0.0180464 0.00802591)
(0.00727373 -0.0147998 0.00904152)
(0.00181715 -0.0245948 0.0159917)
(0.00685833 -0.02386 0.0106427)
(0.00358114 -0.0245936 0.0149973)
(0.000109405 -0.00033225 0.0016941)
(0.01972 -0.0373988 -0.00789928)
(-0.00268875 -0.00621902 0.00363153)
(-0.00251733 -0.0045036 0.00279001)
(-0.00278839 -0.00598276 0.003276)
(-0.00222094 -0.00292058 0.00208912)
(-0.00232365 -0.0039167 0.00254633)
(-0.00156209 -0.00154818 0.000501253)
(-0.00176247 -0.00245051 0.00101109)
(-0.00221543 -0.0036362 0.00216426)
(-0.0017102 -0.001575 0.00131452)
(-0.0016056 -0.00128009 0.001218)
(-0.00144904 -0.00109894 0.000968111)
(-0.00145187 -0.00129573 0.000744393)
(0.00384833 -0.00263321 0.0027889)
(0.00145118 -0.000998046 0.0020703)
(0.00223771 -0.00139047 0.00254163)
(0.00335827 -0.00209836 0.00251693)
(0.00933149 -0.00984964 0.00146545)
(0.00679282 -0.00600272 0.00243067)
(0.00736507 -0.00683146 0.0024473)
(0.00862931 -0.00867739 0.00128472)
(0.00505318 -0.00360021 0.00229219)
(0.00978822 -0.0111023 0.00169207)
(0.0108401 -0.0148419 0.00123894)
(0.00016079 -0.000531927 0.00155613)
(-0.000259892 -0.000604135 0.00155582)
(0.00777815 -0.00753508 0.00168689)
(0.00829534 -0.00819981 0.00186181)
(0.00690678 -0.00599589 0.00151521)
(0.000704058 -0.00121094 0.00206352)
(0.00348757 -0.00317558 0.00244421)
(0.00515554 -0.00442794 0.00245605)
(-0.000586654 -0.000269238 0.00074834)
(-0.00106271 -0.000355311 -5.40307e-05)
(-0.000930306 -0.00028034 1.60646e-05)
(-0.000824841 -0.000262372 0.000308561)
(-0.000564244 -0.000210673 -0.000400309)
(-0.00100452 -0.000360521 -0.000307024)
(-0.000957291 -0.000336123 -0.00044607)
(-0.000768521 -0.000171488 -0.00062207)
(-0.000683609 -0.000230247 -0.000615576)
(-0.000762282 -0.00026457 -0.000612183)
(-0.000660702 -0.000544013 -0.000385929)
(-0.000635601 -0.000299539 -0.00062923)
(-0.00109067 -0.000644578 0.00077056)
(-0.000899129 -0.00103527 0.00169474)
(-0.000837935 -0.00066369 0.000290017)
(-0.00121845 -0.00108454 0.00083602)
(0.00420453 -0.00284854 0.0027035)
(0.0040632 -0.00291752 0.00375732)
(0.00340503 -0.00231865 0.00301547)
(0.00367817 -0.0023724 0.00369936)
(0.00281434 -0.00159494 0.00350238)
(0.00453079 -0.00443819 0.00691498)
(0.00464847 -0.00414511 0.00484622)
(0.00413273 -0.00305416 0.00454112)
(0.00555739 -0.00655984 0.00705402)
(0.00537293 -0.00513736 0.00566901)
(0.00353669 -0.00243064 0.00473172)
(0.0019489 -0.00118686 0.00357019)
(0.00265131 -0.00160358 0.00411835)
(0.000728414 -0.000497338 0.00308219)
(0.00119219 -0.000703245 0.00302552)
(0.000840028 -0.000553885 0.00256846)
(0.00566672 -0.00525934 0.00459367)
(0.00495233 -0.00431856 0.00418576)
(0.00666208 -0.00705047 0.00494478)
(0.008237 -0.0130103 0.00566493)
(0.00844541 -0.016692 0.00770884)
(-0.00131705 -0.00107531 0.000258536)
(-0.00079413 -0.000334914 0.000342848)
(-0.000916141 -0.000442854 0.00041352)
(0.000245747 -0.000257237 0.00267183)
(0.000156576 -0.000259081 0.00203965)
(-0.000205453 -0.000215851 0.00164211)
(-0.000208272 -0.000251259 0.00200601)
(-0.000689836 -0.000257657 0.00103165)
(-0.000746602 -0.000268235 0.000905927)
(-0.00154322 -0.00226183 0.000275355)
(-0.00153937 -0.00245839 0.000492879)
(-0.00121558 -0.00116339 4.07529e-05)
(-0.000899518 -0.00029188 -0.000317885)
(-0.00084706 -0.00036297 -0.000228157)
(-0.000908826 -0.000331173 0.000226648)
(-0.000946406 -0.000403644 -0.000128879)
(-0.00084005 -0.0003192 -7.96235e-05)
(-0.000909894 -0.00053051 0.000209295)
(-0.000818142 -0.000548888 -0.000306005)
(-0.00093534 -0.000693049 -0.000182678)
(-0.000882589 -0.000478402 -0.000219091)
(-0.000849174 -0.000418675 -0.000491037)
(-0.00091227 -0.000580845 -0.000512654)
(-0.00125665 -0.00177329 -0.000190538)
(-0.000891029 -0.000340252 -0.000465425)
(-0.000935032 -0.000428001 -0.000582025)
(-0.00085047 -0.000318288 -0.000522479)
(-0.000767814 -0.000447164 -0.000682149)
(-0.000812342 -0.000343183 -0.000609189)
(-0.000825988 -0.000339524 -0.000664057)
(-0.000828779 -0.000402121 -0.000755253)
(-0.000963521 -0.000536471 -0.000801463)
(-0.000815245 -0.000761717 -0.000624011)
(-0.000717157 -0.000560228 -0.000539238)
(-0.000881752 -0.000627909 -0.000680811)
(-0.000846861 -0.000816404 -0.000572449)
(-0.00113119 -0.00129513 -0.000192025)
(-0.000893987 -0.000685755 -0.00063338)
(-0.000898523 -0.000694109 -0.000440729)
(0.00520093 -0.0041161 0.00306973)
(0.00596016 -0.00535014 0.00382646)
(0.00679746 -0.00648886 0.00271705)
(0.00974629 -0.0127183 0.00295252)
(0.00929931 -0.0101641 0.001951)
(0.00791977 -0.00778535 0.002604)
(0.00765703 -0.00823412 0.00317004)
(0.0086595 -0.0112272 0.00413509)
(0.00922501 -0.0136581 0.00510736)
(0.0078043 -0.0112368 0.00566847)
(0.00715798 -0.00827288 0.00492068)
(0.00659533 -0.00696152 0.00403142)
(-0.00144943 -0.00124175 0.00151908)
(0.00121933 -0.000642205 0.00361074)
(0.00184767 -0.0011225 0.00411481)
(0.00245265 -0.00145686 0.00455486)
(0.00268211 -0.00184093 0.00528749)
(0.000743889 -0.000373665 0.00347046)
(-0.00104662 -0.000595891 0.000569977)
(-0.000554403 -0.000254884 0.00179959)
(-0.000738023 -0.000315099 0.00129922)
(-0.000968484 -0.000417745 0.000838484)
(-0.00110063 -0.000508128 0.000901476)
(0.00185354 -0.000915743 0.00421807)
(0.00225663 -0.00120949 0.0045663)
(0.00123269 -0.000480186 0.00385796)
(0.000461308 -0.000104338 0.00287523)
(0.000913974 -0.00033076 0.00331963)
(-0.000756857 -0.000256242 0.00178617)
(-0.00108095 -0.000453778 0.00114335)
(-0.00104854 -0.000357213 0.00163608)
(-0.0012728 -0.000737656 0.000542361)
(-0.00124525 -0.000555463 0.000916141)
(-0.00136702 -0.000365164 0.00148491)
(-0.00133106 -0.000556604 0.00095704)
(-0.00110995 -0.000295401 0.00152385)
(-0.000847245 -5.48857e-06 0.00212422)
(-0.000970715 -0.000192785 0.0017335)
(-0.0011816 -0.000310211 0.00130658)
(-0.00122943 -0.000390471 0.00116919)
(0.00257233 -0.0259176 -0.00561472)
(0.0218873 -0.052522 -0.0340749)
(0.0194633 -0.0661425 -0.0279246)
(0.00952866 -0.066375 -0.0198235)
(0.00366276 -0.0413806 -0.00885722)
(0.00664861 -0.0661418 -0.0207086)
(0.00200332 -0.0619373 -0.0100072)
(0.00215813 -0.0562803 -0.00827694)
(0.00422366 -0.0266901 0.000316684)
(0.000723898 -0.0436621 -0.00155696)
(-0.00190729 -0.0284071 0.00622173)
(0.00140887 -0.0019888 0.00367536)
(0.00154996 -0.00110009 0.00132486)
(0.0196516 -0.00766301 -0.0153901)
(0.0211624 -0.0070751 -0.0185429)
(-0.000629815 0.00331836 -0.000754627)
(-0.00232022 0.00629438 -0.00186148)
(0.00164038 -0.00340345 -0.000918519)
(0.00429869 -0.00441185 -0.0022691)
(0.011983 -0.00905626 -0.0059104)
(-0.00233112 0.00689174 -0.00170947)
(-0.00362186 0.00725195 -0.00216639)
(-0.00273238 0.00543376 -0.000491653)
(0.016083 -0.0594961 -0.0250547)
(0.0185065 -0.0521608 -0.0236565)
(0.0107333 -0.074327 -0.0228236)
(0.00969178 -0.0632786 -0.0270791)
(-0.00988157 -0.0456066 0.0254623)
(-0.0185565 -0.0583491 0.0342029)
(-0.0184846 -0.0559299 0.0275317)