/*--------------------------------*- C++ -*----------------------------------*\
| =========                 |                                                 |
| \\      /  F ield         | OpenFOAM: The Open Source CFD Toolbox           |
|  \\    /   O peration     | Version:  v1612+                                |
|   \\  /    A nd           | Web:      www.OpenFOAM.com                      |
|    \\/     M anipulation  |                                                 |
\*---------------------------------------------------------------------------*/
FoamFile
{
    version     2.0;
    format      ascii;
    class       surfaceScalarField;
    location    "50";
    object      phi;
}
// * * * * * * * * * * * * * * * * * * * * * * * * * * * * * * * * * * * * * //

dimensions      [0 3 -1 0 0 0 0];

internalField   nonuniform List<scalar> 
41464
(
-2.71857e-11
3.60506e-09
7.71548e-10
-4.34915e-09
1.29029e-09
2.25423e-08
-1.07577e-08
-1.30749e-08
1.43783e-08
1.31321e-08
2.54796e-09
-3.00584e-08
1.96508e-08
1.6793e-08
-2.20655e-08
-1.79871e-08
-3.07956e-09
1.85284e-08
2.53826e-09
4.33286e-09
-2.66921e-09
-2.33164e-08
8.32286e-09
2.81258e-08
-3.42751e-08
-5.24512e-09
3.65412e-08
2.97913e-09
-5.70292e-09
-2.25485e-08
-6.02359e-09
-1.9628e-08
2.42342e-10
1.6306e-08
-1.74628e-08
2.16773e-09
1.96324e-08
-6.45552e-09
-1.88798e-08
-3.53926e-09
1.79266e-08
1.79523e-08
-4.81082e-10
-2.3222e-08
5.75068e-09
-2.4521e-08
-2.13438e-08
1.69981e-08
-2.02949e-08
-4.73236e-09
5.22196e-09
-6.50987e-09
-1.91927e-08
1.18148e-09
-2.84702e-08
2.14793e-08
2.7904e-09
-1.52152e-09
1.55762e-08
-1.68451e-08
-1.10799e-09
2.25095e-08
-1.86111e-08
2.0828e-09
-1.21576e-08
8.55323e-09
1.51818e-08
-1.4207e-08
8.14867e-09
-9.13306e-09
7.05289e-09
-6.06844e-09
-1.19247e-08
8.11984e-10
-2.1323e-08
3.24358e-08
-9.4494e-09
3.17721e-09
-5.65248e-09
1.11442e-08
1.94461e-09
-1.49552e-08
1.86665e-09
-5.99936e-09
1.79556e-08
4.09392e-09
1.27661e-08
-6.3229e-09
-2.1061e-08
-1.03514e-08
1.00895e-08
-1.53286e-08
-1.13567e-08
9.16764e-09
8.01407e-10
4.04169e-09
1.80703e-08
-3.98995e-09
9.71532e-09
-1.68366e-09
-2.3423e-09
3.01933e-09
-2.96831e-09
6.54862e-09
5.312e-09
2.21704e-09
6.73805e-10
-5.17816e-09
-4.36224e-10
4.94062e-09
2.51522e-10
-2.75121e-09
3.17351e-09
4.61882e-09
-3.98379e-09
-3.83467e-10
3.47547e-10
1.11639e-09
3.25363e-09
-4.71742e-09
2.00279e-09
-5.95264e-09
4.29742e-09
-1.50666e-09
-4.8238e-10
6.58818e-09
-4.59914e-09
5.23452e-09
-5.62477e-09
-9.74814e-09
-6.6395e-10
9.47066e-09
9.41411e-10
-6.97745e-09
-2.29555e-09
-4.7517e-10
3.41002e-10
-4.2942e-09
-1.2249e-09
-2.14531e-09
-2.64858e-10
1.4609e-09
-3.52461e-10
-5.45706e-09
-3.30089e-09
7.29758e-09
2.5915e-09
-2.36055e-09
6.1974e-09
-1.60165e-09
5.96844e-09
1.33356e-09
-5.70027e-09
-3.8542e-10
4.85382e-09
-6.06999e-09
2.64953e-09
5.59649e-10
-3.59454e-09
-1.93253e-10
1.4307e-09
4.73108e-09
3.46524e-09
1.19536e-09
-5.28707e-11
3.59127e-09
-7.30552e-11
-2.74861e-09
2.7812e-09
-8.54041e-11
-1.52956e-10
5.39281e-11
-6.65264e-10
-4.69839e-09
6.69726e-09
4.13035e-09
-4.23594e-09
-4.78954e-10
5.92681e-09
-1.85649e-09
-1.80463e-09
4.10688e-09
3.04716e-09
5.69077e-09
-4.60749e-09
2.78817e-09
1.06066e-10
-3.15067e-09
4.13424e-09
3.42992e-09
-8.89764e-10
1.43757e-09
-1.27082e-08
8.58783e-09
2.68283e-09
-9.87199e-09
8.09229e-09
3.21724e-09
-1.01573e-08
3.16052e-09
-2.87515e-09
-4.25652e-09
2.91871e-09
9.43008e-09
2.88404e-10
-4.31463e-09
-8.68203e-09
-2.86388e-09
-7.00507e-09
6.72151e-09
-9.99247e-10
-8.58617e-09
6.31475e-09
3.7372e-09
-3.33048e-09
-6.87641e-09
4.33012e-09
4.61119e-09
-2.06498e-09
2.31669e-09
-1.01924e-08
-9.21299e-09
6.09406e-10
4.34702e-09
2.62248e-10
8.77891e-09
-5.76581e-09
5.57466e-09
-3.6451e-09
1.53427e-08
8.40401e-09
-1.0402e-08
1.06512e-08
2.08272e-09
7.94195e-09
4.06415e-10
8.53587e-09
-3.65054e-09
-4.02226e-09
8.91298e-09
4.52909e-09
4.1949e-09
3.82794e-09
-3.85136e-09
-4.17141e-09
3.30577e-09
1.03972e-09
-1.50625e-10
-3.56209e-09
1.4878e-10
8.64319e-09
-5.2298e-09
-5.9544e-09
-3.30845e-09
5.70084e-09
4.27172e-10
-8.71246e-09
2.33091e-09
-4.13698e-09
4.03872e-09
3.40402e-09
-2.5381e-10
-5.5195e-11
-5.28965e-10
1.66887e-09
-4.99123e-09
-2.83977e-09
2.26284e-09
-4.6185e-09
5.19541e-09
-6.77805e-09
2.89247e-10
3.64905e-09
1.65278e-09
-7.32054e-09
5.13886e-09
6.45034e-09
2.97199e-09
9.33369e-10
-2.23648e-09
2.80381e-09
-8.5626e-11
1.38432e-09
-5.61692e-09
-2.54542e-09
-4.30362e-10
-6.22635e-09
3.20723e-09
-1.36286e-09
-3.32069e-09
-5.9364e-09
2.16779e-08
-1.0435e-08
-8.09521e-10
-1.04334e-08
4.6723e-09
8.61167e-09
8.39394e-09
-7.19517e-09
-2.02e-09
9.77431e-09
-5.59167e-10
5.48737e-09
1.10155e-09
-1.37841e-08
1.5378e-08
-2.03257e-08
1.47723e-08
-4.82169e-09
5.42743e-09
-1.13346e-08
6.56516e-09
9.44175e-09
-5.68211e-09
-6.462e-09
4.19174e-09
1.91922e-08
6.4565e-09
5.61678e-09
-1.09717e-08
7.17253e-09
-2.73605e-09
-3.60433e-09
-5.97501e-09
1.37711e-08
-3.80551e-09
6.76632e-09
6.06958e-09
-1.1169e-09
2.20484e-09
-2.27017e-09
8.51771e-09
8.59685e-10
-4.26728e-09
4.36186e-09
4.44921e-10
5.72934e-09
-6.55065e-09
5.92279e-09
-5.1015e-09
-1.01247e-09
6.83119e-09
-8.93704e-11
3.0936e-09
6.76898e-10
-1.03212e-08
3.50587e-09
-1.42469e-09
-5.19001e-09
6.48257e-09
5.53863e-09
6.2661e-10
1.06169e-10
4.81678e-09
2.8622e-09
-7.00211e-09
5.22042e-09
2.22965e-10
1.38334e-08
-1.54981e-09
-3.42368e-09
-8.85994e-09
1.29898e-09
1.43796e-08
-1.84522e-09
-5.25737e-09
-1.58911e-10
7.09939e-09
-1.68318e-09
-5.15586e-09
-6.52854e-10
5.51303e-10
-3.78875e-10
-6.4214e-09
6.22576e-09
5.74513e-10
4.6684e-09
1.73146e-10
3.02155e-09
-6.58075e-09
7.53489e-09
-6.06315e-09
8.88479e-09
-5.09483e-11
8.62182e-09
-9.65193e-09
-6.22672e-10
1.65276e-09
-2.31346e-09
1.07763e-08
-9.56976e-09
7.04023e-10
-1.25024e-10
4.69914e-09
1.65159e-09
-1.75275e-09
1.38189e-08
7.00701e-09
-3.94068e-09
-4.46654e-09
4.38058e-09
4.02666e-09
-9.68937e-09
3.46226e-09
2.28644e-09
-4.07561e-09
-3.77743e-10
-1.31559e-11
-6.9791e-09
-6.78579e-09
-8.88693e-09
7.18149e-09
4.35704e-10
1.26963e-09
6.28875e-09
-1.17134e-08
9.3088e-09
1.8472e-09
-4.86722e-09
7.16017e-09
9.33017e-09
4.32621e-09
4.90056e-10
-9.42866e-09
6.11204e-09
-1.25327e-09
4.56998e-09
-3.40015e-09
-4.18126e-09
1.02115e-09
1.22511e-08
-3.32994e-09
3.94371e-09
3.71245e-09
6.8791e-09
-5.43183e-09
2.98616e-09
-4.43333e-09
3.06566e-09
2.56019e-09
8.63328e-10
-1.66573e-10
-6.54552e-09
-3.2449e-09
8.20978e-09
-3.94895e-09
3.76974e-09
-9.94436e-11
-4.17489e-09
3.3789e-09
7.40254e-09
2.81296e-10
5.41604e-09
-4.26604e-09
-2.55066e-09
1.01956e-08
6.06281e-09
1.30051e-08
7.60968e-09
-1.23904e-08
4.57525e-09
2.05474e-10
4.33982e-09
1.27374e-08
-9.46752e-09
-2.13757e-09
9.839e-09
-3.36159e-09
-5.8388e-09
-9.24941e-09
2.69778e-09
2.82704e-09
-6.22625e-09
-4.57243e-09
7.97169e-09
-5.3807e-10
3.21243e-09
1.52657e-10
4.95419e-09
-9.58461e-09
3.15453e-09
1.47581e-09
7.20972e-10
-5.19493e-09
4.85671e-09
-3.82916e-10
-1.14504e-09
-1.092e-08
-3.47119e-09
6.28781e-09
3.67051e-09
-7.60474e-09
2.78912e-09
-9.68732e-09
-7.27889e-09
1.24621e-08
4.504e-09
4.18368e-09
2.07758e-10
1.74421e-10
5.56565e-09
-2.55064e-09
4.50986e-09
-7.52497e-09
5.98225e-10
4.95432e-09
1.30919e-11
4.72411e-09
-9.26311e-10
-1.30097e-10
-3.66779e-09
4.94382e-09
3.78499e-10
1.58752e-10
-3.63574e-09
-2.68992e-10
-1.44552e-09
-4.9412e-09
6.65565e-09
-2.10272e-09
-7.60618e-09
9.43992e-09
6.10384e-09
1.04917e-09
-2.64314e-09
4.94744e-09
6.11071e-09
1.31023e-09
3.81522e-09
-4.96671e-09
6.73574e-09
-5.55559e-09
2.19725e-09
5.28907e-10
-8.9527e-09
6.22647e-09
-1.03301e-08
1.04245e-08
4.03081e-09
-8.24775e-10
-6.94984e-09
1.68439e-10
-8.2217e-10
6.49842e-09
-1.63407e-09
-4.37513e-09
-4.50963e-09
-1.44536e-09
-6.82943e-09
-4.72372e-09
-6.45431e-09
-3.38571e-09
5.52778e-09
4.3123e-09
-5.13662e-09
-1.19929e-09
-1.18341e-10
3.2428e-09
-4.99272e-09
-3.38658e-09
-1.26331e-10
-1.6533e-11
1.42662e-09
1.04686e-09
1.21426e-09
-3.68663e-09
4.03359e-10
-3.96941e-09
5.71036e-09
-3.53699e-09
-5.50233e-09
3.32911e-09
1.0737e-09
5.29796e-09
-6.6125e-10
-5.49708e-09
8.25519e-10
1.13475e-09
-1.01187e-08
9.9885e-09
-1.06909e-09
3.05532e-09
3.77612e-09
-5.78453e-09
-6.65998e-09
-2.81878e-09
7.72195e-10
-3.45569e-09
3.53429e-09
3.16113e-09
-5.48113e-09
3.4351e-09
-2.70972e-11
-5.15473e-09
-3.08639e-09
2.74536e-10
3.88561e-09
1.17426e-09
8.06882e-09
-2.26647e-09
2.50914e-09
-2.60368e-09
1.00831e-08
-5.85283e-09
1.04012e-08
-1.4175e-09
9.38295e-09
4.46976e-09
1.10326e-08
5.02658e-09
-9.94366e-09
9.27483e-09
1.00518e-08
3.74706e-09
-3.33203e-09
-2.73372e-09
9.21263e-09
3.20133e-09
2.57058e-09
1.10308e-10
-2.90756e-09
6.26534e-09
3.89266e-10
1.00419e-08
5.71661e-10
5.05633e-09
7.29232e-09
1.37821e-08
7.45204e-11
-5.03794e-09
4.96096e-09
2.49554e-12
-6.53736e-09
-7.2131e-11
6.68405e-09
3.24689e-09
2.82821e-09
9.80723e-11
7.30552e-09
-8.53383e-11
3.60838e-10
7.36235e-09
-2.80269e-09
7.7632e-09
-1.23227e-08
-6.08804e-10
1.09334e-08
-2.96208e-09
-8.42568e-09
1.18317e-08
-4.01471e-09
4.69832e-09
-1.59267e-08
-3.05755e-09
8.42194e-09
5.56903e-09
4.71714e-09
-1.14145e-11
4.77147e-09
2.34871e-09
4.71163e-09
3.83407e-11
-5.47381e-09
3.12606e-09
2.30965e-09
-5.14108e-09
2.70207e-09
2.47755e-09
7.71964e-09
4.40633e-09
6.84822e-09
-6.53733e-09
5.64127e-09
-6.52876e-10
-5.81908e-10
7.34844e-09
4.82261e-09
-7.97423e-09
-7.23897e-09
1.03907e-08
-3.88042e-10
4.55779e-09
-1.32178e-09
-8.76128e-09
8.75314e-09
1.33007e-09
-1.26316e-08
9.35574e-09
-3.82166e-09
9.91928e-09
-3.45495e-09
-2.64261e-09
-5.1282e-09
8.60514e-09
-7.29853e-09
8.67018e-09
7.23319e-09
-5.98407e-09
8.94103e-09
-4.13999e-10
1.43217e-10
-9.61289e-09
1.12487e-08
7.3053e-09
-9.55308e-10
-1.42433e-09
2.38749e-08
-6.28314e-09
2.16248e-09
-1.97542e-08
6.86021e-09
1.18327e-08
5.18197e-09
-9.4298e-09
7.93946e-09
8.35062e-09
9.4969e-09
-3.47003e-09
-1.231e-08
-1.35998e-09
1.42712e-09
1.85551e-09
-1.04537e-08
4.19345e-09
-5.79285e-09
6.12977e-09
1.11544e-09
5.83597e-09
-1.2009e-10
-8.67127e-09
-3.87286e-09
-8.20699e-10
1.33649e-08
-4.48657e-09
-1.25685e-08
8.38389e-09
-2.05001e-09
9.42599e-09
8.80494e-09
-1.75999e-08
4.30843e-09
-4.79746e-09
1.27818e-08
2.33014e-08
-4.27963e-09
-1.68593e-08
1.75343e-08
-9.64403e-10
4.1065e-09
2.82163e-09
-1.22363e-08
-1.28741e-09
-1.23225e-08
-5.25977e-09
2.75786e-09
-4.01349e-09
6.51547e-09
-5.84602e-09
9.82819e-10
-3.96525e-10
3.87277e-09
-7.0197e-11
-1.16543e-09
-2.63712e-09
3.67823e-09
-1.76793e-09
1.96259e-09
-2.31224e-09
-3.60396e-09
3.80272e-09
8.584e-10
-2.14199e-09
8.70258e-09
-4.05613e-09
3.74767e-10
-3.32051e-10
-6.43199e-10
-5.72511e-09
2.89344e-09
-1.03978e-09
-3.01896e-09
1.28303e-09
-1.57354e-10
-2.6092e-09
3.17741e-09
1.60599e-09
-2.17403e-09
-4.29221e-09
3.25505e-09
2.972e-10
2.95848e-09
-6.94311e-11
4.07154e-09
-6.8413e-09
-2.23789e-09
5.04789e-09
4.03128e-09
-1.49864e-10
-5.70359e-09
-9.87887e-10
-7.86685e-09
9.57736e-09
-1.86039e-09
2.69011e-09
-4.62293e-09
-3.77082e-09
1.79009e-10
2.73218e-10
-4.69975e-09
-7.70937e-09
4.54229e-09
4.00679e-09
8.77722e-09
-3.20664e-09
-2.3284e-10
9.28755e-09
1.5947e-10
-9.48216e-09
2.76741e-09
2.82381e-09
-5.43176e-09
2.29953e-10
3.08635e-09
-5.48903e-10
2.97389e-09
7.98903e-11
7.08798e-09
-4.98635e-09
9.84772e-10
2.30193e-09
5.25607e-09
-4.69991e-10
2.71408e-09
4.38832e-10
4.78317e-09
-9.44493e-10
-1.0868e-08
3.73504e-09
8.07765e-09
-8.38915e-09
1.73919e-09
5.70558e-09
-1.82434e-09
-1.12716e-08
2.22787e-09
-1.08888e-08
6.7532e-10
-8.73645e-10
-1.33103e-08
2.84257e-08
-9.5018e-09
1.99557e-08
-1.13275e-08
3.77001e-09
-1.12628e-08
-3.77879e-09
-7.26297e-10
-6.3925e-09
-1.24429e-09
4.07077e-09
-1.23283e-08
3.81383e-09
-8.01808e-09
1.30971e-08
1.48767e-08
1.30896e-08
7.31819e-09
-8.20538e-09
2.45846e-08
-3.28944e-09
2.07225e-08
-1.5414e-08
-1.35138e-08
1.0022e-09
6.51797e-09
1.70647e-08
5.95445e-09
1.57704e-08
-4.17518e-09
-8.61677e-09
1.27173e-08
7.47695e-11
-1.13539e-08
4.16182e-09
-6.87593e-10
-3.08157e-09
1.02873e-08
-4.60958e-09
9.8767e-09
-4.65121e-09
1.31926e-08
-1.31508e-08
7.82152e-09
-1.07336e-08
1.37506e-08
5.20403e-09
2.58006e-10
-6.60064e-09
1.1386e-09
-1.11164e-09
-4.25721e-10
6.74151e-09
-4.56338e-09
-1.26234e-09
4.71412e-09
-2.3962e-09
-2.43806e-09
2.70978e-10
-7.19409e-09
-1.81351e-09
8.58192e-09
-9.10784e-09
2.17184e-09
-2.27614e-09
-7.39146e-09
3.06702e-09
-4.80006e-09
1.27789e-10
9.96928e-09
1.05975e-09
7.63988e-10
-1.17929e-08
4.00638e-10
2.1772e-09
-6.66044e-09
4.666e-10
4.93156e-09
-2.606e-09
-7.95208e-09
3.89767e-09
-5.10009e-09
5.60371e-11
1.20557e-08
1.92544e-09
-1.29214e-08
3.34849e-09
1.26983e-09
-5.30594e-09
-7.54807e-09
6.20119e-09
-1.57398e-09
-4.17636e-10
-5.96045e-09
-5.40428e-09
-6.04029e-09
-1.07837e-08
-3.36815e-09
4.27085e-09
9.88103e-09
-6.16317e-09
-3.46376e-09
-1.15675e-09
1.24095e-08
-7.87391e-09
-1.06987e-08
1.24312e-09
7.79818e-09
8.80082e-10
8.92232e-09
-5.53154e-09
5.65261e-09
-1.42975e-08
9.88804e-09
3.54858e-09
-1.09669e-08
-5.57917e-09
2.3508e-09
-3.25634e-09
-6.60603e-09
7.51162e-09
3.04876e-09
-3.27786e-09
-7.64478e-09
7.22597e-09
-8.12928e-10
-4.06219e-09
3.17497e-09
3.5665e-09
4.84529e-10
-4.14293e-09
-7.10577e-09
8.53147e-10
-1.17697e-08
-5.02371e-11
-5.21607e-09
4.90078e-10
1.68179e-09
-8.21594e-09
8.0814e-09
-3.76615e-09
-5.12814e-09
6.0403e-09
-5.6376e-09
-1.0275e-08
-7.72197e-09
1.7632e-08
3.35848e-09
-9.52901e-09
-8.44972e-09
3.41848e-09
7.99518e-09
-2.96406e-09
5.25451e-10
2.99899e-10
-8.2203e-09
1.05732e-08
4.56326e-09
8.47096e-10
4.09905e-09
-4.40526e-09
-6.42021e-10
9.48239e-10
5.76082e-09
5.84431e-09
-7.50607e-09
-1.28326e-09
3.62319e-09
-3.9024e-09
1.56247e-09
4.13735e-09
1.81041e-09
-7.23101e-09
-3.78437e-09
3.46934e-09
3.93822e-09
-1.75759e-09
-1.71254e-09
-3.14243e-10
5.70413e-09
-5.52118e-10
-9.95893e-09
4.80692e-09
-4.58729e-10
-4.1261e-09
-1.48883e-09
-2.22392e-09
2.24734e-10
7.76001e-09
-7.87331e-09
3.19509e-09
1.55074e-08
-4.22581e-09
-7.68218e-09
-3.59938e-09
-2.90383e-10
1.35738e-08
-1.36084e-09
5.0549e-09
-1.23396e-08
1.60218e-09
1.0447e-08
-1.13326e-08
-5.23272e-09
4.37869e-09
9.92479e-09
3.92263e-09
1.42996e-09
-1.52775e-08
1.19774e-08
-1.2404e-08
1.03514e-08
2.81847e-09
6.37212e-09
-5.26802e-09
2.69948e-09
-1.1569e-08
1.02994e-08
1.04466e-08
-4.92866e-09
9.52876e-11
2.66062e-09
7.69063e-09
4.98541e-09
8.74374e-09
-2.24512e-09
-1.1484e-08
-1.58599e-09
1.12552e-08
-3.29707e-09
5.22738e-09
-1.11997e-08
1.06386e-08
-4.66625e-09
1.15031e-08
3.64477e-09
-2.86713e-09
4.41695e-09
-2.70643e-09
-6.62364e-09
4.91311e-09
4.23205e-11
-3.15692e-12
4.37781e-09
6.27148e-09
-5.44305e-10
5.61094e-09
-1.13381e-08
6.97353e-09
-2.29421e-09
1.59218e-09
-5.11847e-09
3.39138e-09
-7.36651e-09
9.09361e-09
-4.89991e-09
-1.76246e-10
2.69362e-09
-5.94436e-09
-6.14487e-09
1.26738e-08
-3.13749e-09
6.16552e-09
3.16332e-09
-3.71788e-09
6.99417e-09
-8.95367e-10
-3.30783e-09
-3.10166e-09
1.29091e-08
-1.29282e-08
-4.56779e-09
4.58655e-09
-5.46388e-09
2.04556e-08
-3.30416e-10
-1.3942e-08
3.87025e-09
-1.83831e-08
5.1244e-09
-1.1793e-08
-4.83473e-09
1.11638e-08
-1.4425e-08
-1.93588e-09
-1.05824e-08
4.49852e-09
-7.85815e-09
-7.09628e-09
-1.77367e-09
-9.51318e-09
-2.5571e-09
-1.51216e-08
4.13901e-09
5.16406e-09
-1.18602e-08
3.63139e-09
6.52425e-09
-6.01662e-09
-5.32917e-09
1.07529e-08
-1.7924e-09
7.08246e-09
-7.24757e-09
-9.80006e-09
2.90026e-09
-3.46569e-09
-2.22825e-09
1.38667e-08
-9.11616e-09
6.00017e-09
-2.38342e-09
9.91843e-09
6.83464e-09
2.89945e-10
-8.48313e-10
4.0833e-10
-3.74779e-10
-4.29285e-09
-1.10871e-09
5.77635e-09
-5.73233e-09
5.61337e-09
5.08177e-10
-3.89156e-10
-9.10006e-10
2.12947e-09
-6.95169e-09
7.06776e-09
-1.82909e-09
-3.93047e-09
1.45825e-10
-2.12564e-09
-2.94987e-09
1.61987e-09
2.50811e-09
2.93369e-09
-7.56725e-09
1.19389e-09
-9.14895e-09
7.04511e-09
3.19909e-09
-1.34418e-09
-4.69572e-09
2.84091e-09
2.23665e-09
-4.56519e-09
5.52765e-09
2.77371e-09
-1.6563e-09
5.51286e-09
-6.16909e-09
7.02097e-09
2.45996e-10
-4.58212e-09
-2.28955e-10
-4.4302e-09
-1.94739e-11
7.12894e-09
-1.43237e-09
-6.6592e-10
-5.0305e-09
8.98382e-10
1.64853e-09
4.8448e-09
-4.14765e-09
2.54937e-11
8.27811e-09
-7.75006e-09
3.00743e-09
-6.24646e-09
-4.95634e-09
-1.48512e-09
1.26879e-08
-6.55173e-09
7.50833e-09
-7.20311e-09
-3.24968e-09
5.05135e-09
-6.75801e-09
1.66735e-09
-1.14688e-08
-3.80839e-10
8.90017e-10
6.99912e-09
9.6148e-09
-8.75248e-09
4.47385e-09
-5.33615e-09
-6.20076e-09
1.28549e-08
2.96058e-09
-4.93756e-09
-3.47327e-09
5.02015e-09
3.39072e-09
8.06122e-10
-5.39687e-09
-3.46801e-10
-4.62719e-09
3.91869e-09
-2.83581e-09
3.54432e-09
-3.60406e-09
-2.16989e-10
4.33875e-09
-5.69567e-09
-4.03991e-09
4.84629e-10
7.62855e-09
-1.01545e-08
-6.22651e-09
-1.58711e-09
3.01488e-09
7.21445e-09
1.72442e-09
-3.23626e-09
2.44027e-09
-2.80803e-09
-7.2646e-09
1.5109e-09
-6.61405e-09
6.97437e-09
-3.02316e-09
2.55144e-09
-7.27181e-10
1.87729e-09
-6.85032e-09
1.69506e-09
5.40041e-09
-7.82261e-09
1.49578e-10
8.66202e-09
-6.93426e-09
8.96007e-09
-7.11542e-09
8.36516e-09
-7.66306e-09
9.63092e-09
9.20125e-09
-9.87209e-09
-3.07508e-10
8.14066e-09
1.79777e-09
6.41815e-09
1.93644e-09
2.13013e-09
-3.19162e-09
9.42667e-09
-1.26938e-08
7.88026e-09
1.29543e-08
-1.36238e-09
1.64135e-08
-1.72247e-09
-6.8107e-09
1.56278e-09
6.2861e-09
-2.56676e-08
2.04015e-08
9.05614e-09
-3.7899e-09
1.59932e-08
-3.89524e-08
-2.70844e-09
2.73999e-08
1.3998e-08
-2.54045e-08
3.18693e-08
1.59321e-08
-1.16953e-08
1.0138e-08
-1.11689e-08
1.27263e-08
2.1681e-08
-1.50695e-09
1.56e-08
-7.58883e-09
1.36697e-08
1.07184e-09
2.46661e-08
2.78259e-08
2.39926e-09
-2.11689e-08
1.34287e-08
-2.55262e-08
4.50871e-09
-7.95492e-09
2.24554e-08
-1.57422e-08
2.87885e-08
8.27822e-09
-2.13245e-08
2.62095e-08
-3.09425e-08
-1.10091e-08
1.89918e-09
1.47578e-08
-7.87798e-09
-3.65026e-09
1.28739e-08
1.52348e-08
3.37074e-08
-9.76583e-09
1.53645e-08
-7.29437e-09
-3.0174e-09
4.84723e-09
5.4646e-09
-2.17235e-09
4.05648e-10
6.05626e-09
-2.71571e-09
-2.44305e-09
5.63359e-09
1.38651e-10
-1.40427e-10
-3.60181e-11
3.02737e-09
-5.40837e-09
3.01518e-09
-3.74791e-11
1.86969e-09
-2.82323e-09
2.80993e-09
1.14809e-09
6.37509e-11
3.18428e-09
-3.18806e-09
4.11657e-09
-4.11274e-09
-3.74041e-11
3.14516e-09
7.65687e-11
3.09016e-09
-2.2918e-09
2.73606e-09
-3.5344e-09
3.00446e-09
4.83338e-11
-6.89978e-09
1.41994e-09
-1.18572e-10
4.01262e-09
1.62668e-09
-5.52063e-09
-3.23757e-09
2.56298e-09
3.8198e-09
7.60449e-10
-4.13113e-09
1.2935e-09
-6.80031e-09
6.28361e-10
2.04098e-09
4.406e-09
2.27369e-10
-1.89728e-09
4.02964e-09
3.38087e-09
-2.94432e-09
-3.62861e-09
-2.23423e-09
6.0908e-09
2.42385e-09
6.92236e-09
1.29591e-09
2.49916e-09
-5.31062e-09
2.24157e-09
9.99147e-09
1.56986e-08
8.58483e-09
3.46155e-09
-2.03712e-09
1.28636e-08
1.34522e-08
-1.71927e-08
1.05083e-09
8.88708e-09
7.2549e-09
-6.64068e-09
-6.87169e-10
-9.86485e-09
1.34185e-08
-5.46321e-09
-1.45959e-08
7.51747e-09
6.95183e-09
-5.24177e-09
8.91738e-09
5.21149e-09
6.10507e-09
-1.0673e-08
-6.73819e-10
1.18217e-10
7.04435e-09
-7.9812e-09
8.18489e-10
5.61311e-09
6.10193e-10
-4.46153e-09
-6.89869e-09
-2.05747e-08
-1.09928e-09
8.45565e-09
1.32183e-08
-1.12092e-08
2.67801e-09
-1.20436e-08
6.96076e-09
7.56972e-09
7.64705e-09
2.39392e-09
-1.55042e-08
1.38056e-08
-1.73677e-08
4.76761e-09
7.93888e-09
8.21069e-09
-1.02783e-08
-1.3494e-08
6.40019e-09
1.55494e-08
-5.31071e-09
-5.50527e-09
2.94489e-09
1.04997e-08
-5.02095e-09
1.49266e-08
7.26411e-09
-5.08116e-09
6.64047e-09
-5.35417e-09
-1.50971e-09
2.23455e-10
-4.1956e-09
5.84111e-09
4.99507e-09
4.12996e-09
-5.44066e-09
-4.0434e-09
6.82361e-11
-1.33806e-10
1.47598e-11
-1.54236e-09
7.36878e-09
-8.23031e-09
9.80791e-09
-8.70853e-09
2.41467e-09
-8.9327e-09
-1.28552e-09
-3.92183e-09
3.57488e-09
-3.8499e-09
-3.66009e-12
-7.61313e-10
-2.16682e-09
-2.51247e-09
3.41434e-09
-8.30761e-09
-6.27962e-09
3.81793e-09
-3.56086e-09
-4.34975e-11
1.15633e-11
-2.26721e-11
4.38439e-09
-8.67916e-09
9.71084e-09
-1.00911e-08
9.37943e-09
6.1111e-09
-5.39937e-09
-6.236e-09
-5.05141e-09
1.19634e-09
-4.01745e-09
1.17271e-08
-3.32512e-09
-3.8442e-10
-1.13922e-08
7.75922e-09
6.45849e-09
1.20854e-08
-6.81676e-09
6.45872e-09
-8.32093e-09
1.12416e-08
-5.50642e-09
1.26749e-08
-1.04935e-08
1.03389e-08
-1.62298e-08
-3.97734e-09
-2.76007e-09
1.3196e-08
-1.10354e-09
3.585e-09
8.17168e-09
-7.00511e-09
-1.21264e-09
1.06337e-09
1.23302e-08
8.0017e-09
-1.21198e-08
3.01463e-09
-1.01013e-08
1.53429e-08
-1.03373e-08
7.99526e-09
5.08943e-09
-3.09653e-09
-8.83123e-09
1.80086e-09
1.5169e-10
-5.16077e-09
9.45664e-11
-7.18194e-10
6.27176e-09
-6.02895e-10
-1.29078e-08
3.90016e-09
3.77929e-10
-4.66605e-09
-3.92772e-09
3.85851e-09
8.78568e-11
-4.12699e-09
1.11485e-10
-3.98736e-09
-5.14656e-09
5.44727e-09
-3.96056e-09
6.11242e-11
4.78921e-09
-4.66409e-09
-4.08567e-09
-1.46602e-09
-3.54978e-10
-9.76778e-09
4.50084e-09
-1.22403e-08
1.79022e-09
-3.83051e-09
1.42805e-08
-2.07528e-09
2.87135e-09
5.80763e-09
-6.60364e-09
6.43216e-09
3.7368e-09
-1.22442e-08
-1.00822e-08
-3.08795e-09
-1.4718e-09
1.4642e-08
-1.58903e-08
2.89099e-09
7.06543e-09
-6.21959e-09
7.7815e-09
-2.01913e-09
7.04288e-09
-4.32318e-09
1.07973e-10
6.87359e-09
7.99979e-10
-7.00302e-09
6.5749e-09
5.3612e-10
4.48199e-09
-4.41957e-09
-1.03626e-08
4.03775e-09
-5.17307e-09
1.14979e-08
3.246e-10
-1.48998e-09
-9.19719e-09
-8.20948e-09
9.22881e-09
-1.93729e-09
6.78035e-10
6.64294e-09
-2.78021e-10
6.82867e-09
7.22995e-10
-8.23661e-09
-1.3426e-09
1.3617e-08
-1.26905e-09
-8.82364e-10
6.73785e-09
-1.10286e-08
-3.62272e-09
9.10881e-09
-1.12832e-09
4.43777e-09
7.03794e-10
-4.01314e-09
3.43599e-09
-5.73324e-10
-3.99094e-09
2.65479e-10
3.31751e-09
-1.46932e-10
4.70371e-09
-4.61972e-13
2.18367e-09
6.13331e-09
-1.02347e-09
-7.29345e-09
4.59057e-09
1.3881e-09
-3.79504e-09
6.13696e-09
4.58695e-09
7.12489e-09
-5.03301e-09
1.79796e-09
-6.27607e-10
3.53335e-09
3.69047e-09
-5.28726e-09
-4.39498e-09
3.37981e-09
1.77782e-10
8.37425e-10
3.36609e-09
-4.0706e-09
-3.3562e-09
1.15053e-09
4.00365e-09
1.56083e-11
-5.42664e-11
-3.46473e-09
3.13467e-09
3.70992e-09
-8.30228e-11
1.63322e-09
4.86405e-09
5.19413e-09
1.12061e-09
-7.99583e-10
5.0848e-09
6.02778e-09
7.00612e-09
3.47194e-09
9.59183e-10
-1.14372e-08
-3.6702e-10
7.7964e-09
-4.23213e-10
6.79644e-09
1.2131e-08
-1.54555e-08
1.69901e-08
5.95832e-10
-1.07895e-08
6.47549e-09
3.73266e-09
-9.24895e-09
6.91031e-09
-8.01818e-10
8.01412e-09
-9.42658e-10
5.05953e-09
5.00882e-09
-7.31735e-09
-4.29872e-09
1.12378e-09
-4.25856e-09
-6.39801e-09
3.33928e-09
9.15165e-09
-4.82314e-09
-4.09019e-09
8.98329e-09
4.42896e-09
2.42481e-09
-4.63016e-10
5.93301e-10
4.92657e-11
5.1521e-09
-5.80723e-09
4.04216e-09
-3.3871e-09
-2.78809e-09
1.87173e-09
6.06844e-09
-1.74116e-09
-3.44801e-10
-3.72133e-09
4.05622e-09
-5.2825e-09
-5.14931e-10
-1.54332e-09
2.81141e-09
-1.17451e-09
-5.24379e-09
-1.45346e-09
-6.70128e-09
8.75877e-09
-6.04064e-10
6.18801e-09
-3.7332e-09
-3.90831e-09
-1.33574e-08
9.79791e-09
1.59169e-08
-2.27263e-09
-1.73775e-08
3.24516e-09
-6.85708e-10
-1.58051e-09
-5.65413e-09
1.95207e-09
-4.46577e-09
-9.59531e-09
1.14059e-08
1.43453e-09
3.00275e-11
-1.1898e-08
7.06439e-09
-8.61491e-09
1.33876e-09
4.18228e-09
-5.18521e-09
-2.43481e-09
7.67197e-09
-5.20478e-11
2.93283e-09
-5.6961e-09
-2.42204e-09
-4.51215e-09
-3.01098e-09
5.08826e-09
-1.58293e-09
3.57043e-12
-2.09726e-12
-2.4869e-09
-3.64752e-09
6.1365e-09
-2.4724e-09
-3.2258e-09
2.16128e-09
5.09761e-09
3.04572e-10
-7.56348e-09
4.66134e-09
-4.97248e-09
-3.26904e-09
-2.97339e-09
3.2314e-09
-4.67177e-09
-1.80229e-10
3.97858e-09
2.34109e-10
-3.66879e-09
-5.43911e-10
4.03498e-09
4.10335e-09
-2.41038e-10
-7.89738e-09
6.64921e-09
-6.70776e-10
-5.65567e-09
-3.22834e-10
6.36378e-10
-6.46832e-10
1.88195e-09
-2.75365e-09
4.85024e-09
5.96808e-09
7.07783e-10
-5.74908e-09
9.07624e-09
6.3923e-09
-3.80255e-09
8.00194e-09
2.75061e-09
-9.84204e-09
3.27313e-09
6.87348e-09
-1.99905e-09
-7.17102e-09
6.52223e-09
2.64791e-09
-9.84352e-09
1.06131e-10
7.73835e-09
-2.11144e-09
-1.10343e-09
-6.62857e-09
-1.7923e-09
-7.49014e-09
2.8759e-09
1.07164e-08
-1.17048e-08
-1.88736e-09
6.68507e-09
2.7131e-09
1.03462e-08
2.56767e-09
-2.19725e-09
4.38975e-09
-4.13635e-09
1.0093e-08
1.31717e-08
-1.65141e-08
3.44851e-09
-7.61822e-09
-1.43859e-09
-2.69777e-10
1.12594e-08
2.18217e-09
6.59233e-09
8.76262e-10
4.38579e-09
-4.57634e-10
2.66422e-09
1.41012e-09
-7.43013e-09
1.04059e-08
8.39479e-09
-7.51846e-09
1.69152e-09
1.41947e-08
2.0911e-09
-3.34525e-09
7.17452e-09
4.36206e-09
-1.52257e-08
1.38781e-09
-4.15134e-09
-1.52863e-09
3.80395e-09
-2.41068e-09
-5.45551e-12
1.80539e-09
-1.75415e-10
1.95675e-09
-4.0717e-09
-2.25409e-09
4.36907e-09
3.87666e-09
-1.14496e-10
1.53208e-09
3.35995e-09
1.71017e-09
-6.6024e-09
1.8375e-09
-4.45684e-09
3.73696e-09
-2.78771e-09
2.36513e-09
5.44926e-09
-6.10431e-09
6.93845e-09
-2.73578e-09
7.376e-14
-3.34844e-10
-5.34713e-09
-3.79912e-09
6.82418e-10
8.46387e-09
-6.33935e-09
-5.66614e-09
6.65834e-09
-2.58575e-09
-7.38192e-09
1.36936e-10
-3.69322e-09
1.09382e-08
-7.94481e-09
-1.45359e-08
1.50988e-08
8.0955e-09
-1.63018e-08
-7.0713e-09
-4.17156e-09
7.3959e-09
-1.52598e-08
-8.08844e-11
-1.08016e-08
-3.65244e-09
6.21661e-09
8.23741e-09
5.955e-09
-1.68299e-09
3.1239e-09
2.49856e-09
-1.20623e-09
-6.56042e-09
6.3339e-09
4.83417e-09
-1.04727e-08
-6.95455e-10
1.50993e-08
-3.19679e-09
-1.13334e-09
6.82865e-09
-8.0434e-09
-3.5519e-09
6.2779e-09
-9.45468e-10
-1.78057e-09
5.31189e-09
-3.53606e-09
-5.32778e-09
-1.34938e-09
9.07012e-10
5.75425e-09
5.79908e-09
-8.70569e-10
1.24367e-09
4.93269e-09
-7.96524e-09
1.7889e-09
3.97306e-09
-6.79902e-09
4.06959e-09
-5.25362e-10
9.43112e-09
-7.13719e-09
8.24146e-09
-6.89798e-10
-4.14644e-10
1.63381e-08
-1.67119e-08
-6.76343e-09
1.77805e-08
-3.3189e-09
4.2316e-09
-1.85818e-09
-7.47064e-09
6.15662e-10
-1.83938e-09
-5.84543e-09
-2.80364e-10
4.96263e-09
7.05336e-09
-6.21692e-09
-4.44886e-09
8.88611e-09
-9.07009e-10
2.6235e-09
-2.07568e-09
-5.10646e-09
4.55879e-09
-3.02167e-09
-2.05428e-09
7.69948e-09
-7.27109e-09
-5.74376e-09
9.99333e-09
-4.55391e-10
-4.7428e-09
3.12254e-09
1.87838e-09
-5.62626e-09
3.29256e-09
5.96267e-09
1.44486e-08
-4.21041e-09
-1.62007e-08
9.79371e-09
-4.04739e-09
2.16395e-10
-2.87579e-09
8.27822e-09
4.39133e-09
1.00378e-08
1.53506e-09
-9.72758e-11
2.86407e-09
-7.2524e-09
2.04871e-09
-4.63954e-09
4.46366e-09
-3.51e-09
-5.61032e-09
4.48086e-09
4.18939e-10
-5.43917e-09
1.51032e-09
2.95344e-09
4.78665e-09
-3.82269e-09
-6.40308e-09
-6.90383e-10
-1.33273e-10
1.47283e-09
-5.31015e-09
-9.0546e-10
-4.39378e-09
2.4036e-10
4.88704e-09
3.4129e-09
-3.70259e-09
-4.59731e-09
-1.97142e-10
5.5569e-09
-1.10387e-08
1.27147e-09
-8.65699e-10
-1.03152e-09
-2.56114e-09
-2.60672e-09
-1.25469e-08
1.10462e-08
4.10745e-09
3.4762e-09
-6.19473e-09
1.11853e-10
2.43564e-09
2.50147e-09
2.38504e-11
-1.43858e-08
3.32776e-09
-3.28517e-09
1.43431e-08
9.2402e-10
-1.112e-08
-4.18977e-09
3.11911e-09
6.1961e-09
-2.63113e-09
5.19134e-09
3.63445e-10
9.53842e-09
-2.41833e-09
2.00927e-09
1.0857e-08
6.97132e-09
-9.47855e-09
-1.00396e-08
5.60202e-09
3.75717e-10
-1.1285e-08
3.86952e-10
7.61294e-09
-1.50995e-08
1.47803e-10
7.05279e-09
1.95e-09
-2.53436e-09
1.16307e-08
7.69983e-09
4.82386e-09
-4.34636e-09
-9.79723e-09
2.66717e-09
1.14764e-08
-1.15105e-08
7.5913e-09
-6.93694e-10
-6.08647e-09
-3.01706e-09
-7.66603e-09
-4.53814e-09
1.69223e-09
-6.31334e-09
7.09859e-09
-2.47745e-09
-6.29542e-09
1.06548e-08
-5.92616e-10
-3.74397e-09
5.37635e-09
1.05135e-09
5.75851e-09
3.60241e-10
-7.17006e-09
9.09586e-10
7.56071e-09
-7.41894e-09
6.33806e-09
6.7595e-09
-7.339e-09
1.14817e-08
-2.55866e-09
-2.58495e-09
-5.09507e-09
-9.88852e-09
7.31757e-09
9.94345e-10
-5.72917e-09
8.18245e-09
-6.2785e-09
-4.18288e-09
-8.58265e-09
6.47014e-09
-8.48117e-09
-2.01503e-09
6.96844e-09
-8.01547e-10
9.96895e-09
8.58416e-09
-3.58216e-09
2.7803e-09
-6.84295e-10
2.78183e-09
2.29416e-08
-4.24894e-09
-1.91094e-08
4.16756e-10
-2.02993e-09
-2.68615e-09
2.76577e-08
-3.01381e-08
-4.87727e-09
3.29854e-08
-2.82305e-08
-6.15665e-09
-1.88257e-08
-2.81355e-09
1.8953e-08
-7.48073e-09
-1.8847e-08
7.50206e-09
1.49121e-08
1.57705e-09
6.85895e-09
-2.33482e-08
-1.78594e-09
-4.67234e-09
2.13703e-08
-2.47625e-08
-9.98838e-09
6.52037e-09
-2.5159e-08
-1.4311e-09
-1.56338e-10
2.17228e-08
-2.64438e-08
-1.67587e-08
1.37888e-08
1.2229e-08
6.82427e-09
-1.74762e-08
1.51817e-08
-4.73868e-09
-1.20076e-09
-3.7631e-10
-1.86592e-08
-1.38859e-09
5.54695e-09
-2.34506e-08
6.18239e-09
-1.80174e-08
-1.34296e-08
-2.23e-09
-1.11137e-08
8.18957e-09
5.15417e-09
-7.15166e-09
3.68935e-09
1.23237e-09
-1.20143e-09
-1.09578e-08
1.04564e-09
-7.47431e-11
-8.27828e-09
-2.66919e-09
5.31724e-09
2.28355e-09
3.5385e-09
-6.52312e-09
3.15462e-10
1.77146e-09
5.96919e-09
-2.42334e-09
-6.276e-09
-2.91028e-09
-7.03537e-09
4.29791e-09
-2.7212e-08
1.56887e-08
1.5465e-09
9.97686e-09
-9.63171e-11
-9.04582e-09
-1.80698e-08
9.42879e-09
3.28458e-08
-2.64022e-08
-1.58724e-08
3.47147e-08
-1.84907e-08
-6.79541e-09
-6.84485e-10
1.09206e-08
2.26096e-08
2.31195e-08
1.09107e-08
-2.15974e-08
2.07425e-08
1.65435e-08
2.59796e-08
-8.68194e-09
-1.73938e-08
4.59546e-09
-2.13327e-10
3.19028e-08
-1.24378e-08
-2.85109e-08
1.25635e-08
2.08859e-08
-2.36541e-08
-9.11457e-09
1.42779e-08
6.65715e-09
-6.8859e-09
2.34487e-08
3.2471e-09
-5.95329e-09
-1.43141e-08
7.81638e-10
1.81278e-08
6.00846e-09
5.5802e-09
-3.52428e-08
-3.28316e-08
-2.12817e-08
-4.09875e-09
1.28658e-08
1.25146e-08
2.36447e-08
-2.67465e-08
-1.1951e-08
-5.5798e-09
-9.11565e-09
6.59987e-09
8.09559e-09
3.45422e-09
4.31858e-09
5.97187e-09
-1.37446e-08
6.55822e-09
7.25805e-09
-1.0362e-08
-3.77862e-09
-2.10544e-09
1.34172e-08
-7.53299e-09
-4.01528e-09
-1.60257e-09
8.54307e-09
-2.79786e-09
8.1306e-10
2.19338e-09
-3.45457e-09
4.65111e-09
9.82153e-09
-8.50072e-09
1.33028e-08
-1.39357e-09
6.31188e-09
1.29941e-08
-9.4844e-09
-2.11949e-09
1.06247e-08
-1.51368e-09
9.12409e-09
5.38374e-09
-4.07635e-09
1.0514e-08
7.71286e-09
3.87964e-09
2.13032e-09
-4.01122e-09
-1.99872e-09
3.20998e-09
5.46038e-10
1.2361e-10
3.22484e-09
-3.70609e-09
-4.4231e-09
-2.32671e-09
4.63872e-11
3.32372e-09
8.77034e-10
-3.78388e-09
-4.16854e-10
1.11834e-09
-1.21325e-10
-3.30715e-09
-5.84975e-11
6.33851e-10
-3.76806e-09
5.10758e-09
-4.31602e-10
6.44099e-10
-4.98175e-09
-8.30026e-10
-5.34534e-09
-4.48906e-10
7.66533e-09
-1.87107e-09
-1.88298e-09
7.01457e-09
-1.0477e-08
-3.09029e-09
4.00566e-09