/*--------------------------------*- C++ -*----------------------------------*\
| =========                 |                                                 |
| \\      /  F ield         | OpenFOAM: The Open Source CFD Toolbox           |
|  \\    /   O peration     | Version:  v1612+                                |
|   \\  /    A nd           | Web:      www.OpenFOAM.com                      |
|    \\/     M anipulation  |                                                 |
\*---------------------------------------------------------------------------*/
FoamFile
{
    version     2.0;
    format      ascii;
    class       volScalarField;
    location    "200";
    object      p;
}
// * * * * * * * * * * * * * * * * * * * * * * * * * * * * * * * * * * * * * //

dimensions      [0 2 -2 0 0 0 0];

internalField   nonuniform List<scalar> 
18963
(
1.62431
1.75727
1.7005
1.75364
1.75566
1.78749
1.77773
1.77422
1.73134
1.76994
1.77584
1.73572
1.71813
1.75547
1.76888
1.73066
1.80141
1.80416
1.8366
1.87424
1.85812
1.8538
1.80562
1.80549
1.86512
1.87482
1.83002
1.88052
1.84161
1.84204
2.02724
2.01846
2.05793
2.03788
2.04074
2.05017
2.05958
2.074
2.03666
2.04705
2.05515
2.0452
2.06079
2.07237
2.06777
1.92102
1.91407
1.98346
1.97878
1.95307
1.94589
1.92539
1.92133
1.97423
1.97899
1.91386
1.92407
1.9269
1.92188
1.92937
1.93785
1.96347
1.9417
1.94952
1.95342
1.95451
1.94342
1.67815
1.67869
1.68499
1.68372
1.68789
1.69199
1.6967
1.709
1.69983
1.70712
1.69895
1.69998
1.70718
1.71367
1.7085
1.70913
1.70639
1.71271
1.71604
1.64596
1.65029
1.63755
1.64701
1.64339
1.639
1.65963
1.65157
1.65306
1.63734
1.64701
1.65565
1.64022
1.66424
1.67594
1.67381
1.67182
1.66804
1.67673
1.67901
1.66548
1.67565
1.66899
1.67451
1.67583
1.66164
1.66977
1.66932
1.67872
1.68777
1.68797
1.68611
1.68795
1.67928
1.68178
1.82385
1.81156
1.83761
1.81831
1.79875
1.83196
1.80313
1.84628
1.82765
1.83522
1.8322
1.84736
1.61202
1.62012
1.61652
1.61395
1.61454
1.61055
1.61698
1.60991
1.61665
1.61304
1.61853
1.60977
1.61104
1.61406
1.61236
1.61082
1.61234
1.61304
1.60904
1.61512
1.61242
1.61015
1.64253
1.64379
1.63576
1.62951
1.63801
1.64322
1.61628
1.61667
1.61965
1.61707
1.63278
1.63683
1.62496
1.61547
1.6109
1.61706
1.6094
1.63419
1.63674
1.6226
1.62345
1.63823
1.69204
1.6825
1.70445
1.69475
1.70208
1.70484
1.69712
1.71296
1.72087
1.73132
1.74125
1.73736
1.73713
1.73678
1.73461
1.71009
1.62955
1.62927
1.6272
1.62721
1.62654
1.62694
1.62663
1.62666
1.62621
1.62975
1.62645
1.62708
1.6255
1.62681
1.62853
1.62833
1.62772
1.79971
1.79851
1.78405
1.77096
1.79683
1.80463
1.78143
1.76847
1.75262
1.77595
1.75202
1.74951
1.79476
1.75797
1.78447
1.61701
1.61614
1.61488
1.61531
1.61371
1.61323
1.61017
1.60973
1.61888
1.61433
1.61774
1.61931
1.62136
1.61661
1.6625
1.66081
1.66428
1.66491
1.65568
1.67104
1.66567
1.65544
1.65795
1.66393
1.6712
1.69124
1.66187
1.68766
1.67433
1.68422
1.67884
1.67471
1.67916
1.79155
1.81988
1.825
1.84811
1.85392
1.6226
1.62467
1.61731
1.61926
1.62947
1.62829
1.62793
1.62273
1.62184
1.61942
1.63748
1.63153
1.63088
1.62952
1.63331
1.62435
1.62673
1.62357
1.63524
1.62993
1.62816
1.62983
1.6221
1.67676
1.67624
1.66897
1.66252
1.66541
1.66039
1.65292
1.63125
1.63128
1.63359
1.63685
1.6521
1.629
1.62519
1.66377
1.63703
1.64387
1.63301
1.62885
1.61645
1.62816
1.61099
1.61655
1.62535
1.63276
1.63473
1.61959
1.62226
1.62213
1.63662
1.61649
1.62235
1.62214
1.62622
1.62319
1.62549
1.62171
1.73141
1.71256
1.73722
1.75423
1.70669
1.73605
1.75753
1.77042
1.76278
1.75249
1.76598
1.7537
1.73096
1.71858
1.75092
1.73832
1.75215
1.77253
1.76875
1.77425
1.77766
1.7901
1.79059
1.77388
1.77711
1.81435
1.82917
1.83895
1.82357
1.79696
1.80172
1.79213
1.82561
1.61702
1.6128
1.61556
1.61302
1.6152
1.6179
1.61629
1.61548
1.61155
1.62763
1.62636
1.62612
1.63
1.61004
1.6114
1.61443
1.61742
1.61606
1.62098
1.61491
1.73295
1.74235
1.72761
1.73377
1.74707
1.75623
1.74815
1.73242
1.73763
1.72607
1.7444
1.74945
1.74159
1.75155
1.75997
1.73445
1.75619
1.75132
1.63189
1.63192
1.62423
1.62113
1.62865
1.63292
1.63161
1.63402
1.6317
1.6264
1.63232
1.62808
1.62561
1.63513
1.63672
1.62815
1.62684
1.6317
1.72408
1.72574
1.72118
1.73625
1.73003
1.73499
1.73045
1.72164
1.70739
1.71148
1.72333
1.72216
1.69765
1.7006
1.69895
1.69331
1.71701
1.69635
1.62789
1.63031
1.62607
1.6298
1.62439
1.6283
1.63057
1.63102
1.62558
1.62237
1.62777
1.62457
1.62786
1.62828
1.6291
1.62891
1.63042
1.63225
1.6284
1.6316
1.66885
1.65774
1.69859
1.66889
1.68998
1.67633
1.66913
1.68634
1.63788
1.62582
1.6399
1.62945
1.67023
1.65259
1.64644
1.66532
1.62919
1.64247
1.72027
1.71973
1.70956
1.71964
1.72113
1.69033
1.68913
1.70507
1.71248
1.68259
1.68411
1.68999
1.70806
1.68678
1.68817
1.68627
1.68375
1.6977
1.70111
1.70555
1.70366
1.67049
1.66719
1.66255
1.66222
1.67012
1.65661
1.66079
1.70084
1.69918
1.70813
1.68811
1.69927
1.70932
1.69556
1.68224
1.7004
1.70063
1.68671
1.67992
1.67594
1.68467
1.66739
1.67742
1.6938
1.69546
1.68207
1.69215
1.69373
1.68906
1.67207
1.68918
1.69034
1.67235
1.64458
1.66673
1.66673
1.64891
1.65705
1.64277
1.65188
1.66627
1.64251
1.64447
1.65287
1.65476
1.66047
1.64634
1.64079
1.6512
1.68597
1.69562
1.67173
1.68495
1.67603
1.68813
1.69508
1.69763
1.69145
1.68816
1.69615
1.66954
1.6813
1.69394
1.67124
1.71845
1.71389
1.71975
1.7148
1.69747
1.70825
1.70094
1.70748
1.71624
1.71628
1.72172
1.7235
1.70428
1.71771
1.71233
1.72377
1.62467
1.62519
1.62589
1.63036
1.63067
1.6295
1.62822
1.63151
1.63693
1.63709
1.62767
1.63211
1.62665
1.64341
1.63733
1.63203
1.76643
1.76425
1.74999
1.74471
1.77908
1.77881
1.78523
1.77071
1.78618
1.74465
1.72724
1.74292
1.78043
1.78344
1.7626
1.74432
1.73946
1.72184
1.774
1.7637
1.76094
1.73378
1.71691
1.77275
1.8036
1.79783
1.80893
1.71515
1.78601
1.79778
1.77859
1.75433
1.7713
1.77785
1.77985
1.78493
1.77068
1.78262
1.76996
1.763
1.77613
1.77309
1.7828
1.7632
1.76749
1.74855
1.75347
1.75155
1.74995
1.7733
1.75242
1.75938
1.7609
1.59669
1.60129
1.76739
1.74883
1.74754
1.74592
1.73869
1.73043
1.65713
1.65364
1.66116
1.66048
1.6481
1.64647
1.65111
2.04508
1.99638
2.01714
2.03664
2.00189
1.99069
2.05002
1.99945
2.04438
1.99159
2.01431
1.62535
1.62612
1.62895
1.63104
1.62988
1.62535
1.63013
1.62243
1.62402
1.62501
1.62373
1.62142
1.62215
1.62711
1.69901
1.69952
1.69508
1.67811
1.67056
1.68521
1.67063
1.67653
1.66025
1.65759
1.68692
1.6848
1.6705
1.6798
1.67466
1.68136
1.67129
1.68463
1.69046
1.67656
1.68478
1.68594
1.69636
1.67307
1.68235
1.69027
1.68791
1.67657
1.70553
1.69014
1.67148
1.67954
1.69433
1.70203
1.67501
1.68987
1.69955
1.6791
1.70298
1.69966
1.70194
1.62186
1.62452
1.61831
1.61838
1.62587
1.6274
1.61858
1.62153
1.62353
1.62142
1.62411
1.62505
1.62359
1.625
1.62316
1.71167
1.72876
1.72704
1.73615
1.72958
1.70567
1.71973
1.73877
1.74999
1.73192
1.72934
1.74589
1.72858
1.75035
1.7553
1.73768
1.72041
1.74401
1.63311
1.62626
1.65744
1.63192
1.63414
1.6467
1.61437
1.62414
1.68779
1.68347
1.66492
1.68236
1.69144
1.66166
1.77105
1.76545
1.74203
1.75533
1.76152
1.75167
1.7292
1.74326
1.72646
1.73718
1.77133
1.75727
1.73766
1.71877
1.90813
1.92752
1.89587
1.89375
1.92415
1.93662
1.92316
1.94994
1.94577
1.89129
1.89726
1.93673
1.94097
1.91645
1.93031
1.91621
1.63933
1.65025
1.67231
1.69179
1.68965
1.65553
1.64215
1.64555
1.70992
1.71741
1.71221
1.73446
1.68372
1.68172
1.73878
1.73427
1.67397
1.68338
1.62833
1.62873
1.62053
1.61703
1.61566
1.61718
1.62209
1.62887
1.63175
1.61906
1.61965
1.62059
1.61365
1.61897
1.61755
1.61799
1.61885
1.62194
1.62357
1.87573
1.88649
1.88209
1.89304
1.87503
1.87644
1.89386
1.89031
1.90246
1.92613
1.92424
1.89159
1.86904
1.88674
1.89745
1.91025
1.88701
1.90698
1.90939
1.91247
1.61874
1.61265
1.61383
1.61614
1.61101
1.61816
1.62174
1.61814
1.61872
1.62198
1.62242
1.62253
1.62053
1.61351
1.62001
1.62075
1.62387
1.61959
1.61787
1.61704
1.61338
1.61734
1.61305
1.62233
1.61237
1.61171
1.69685
1.69445
1.69138
1.68595
1.6929
1.69895
1.70152
1.67907
1.6823
1.68758
1.69155
1.7099
1.70695
1.71672
1.69839
1.69689
1.68439
1.69663
1.71213
1.70756
1.70732
1.69986
1.74915
1.74355
1.74541
1.71944
1.73496
1.75015
1.73871
1.72006
1.74314
1.74004
1.70479
1.71397
1.71616
1.72153
1.72371
1.73719
1.74409
1.72692
1.71692
1.73031
1.72761
1.72021
1.68993
1.68171
1.6755
1.68045
1.68711
1.70359
1.69939
1.70119
1.69517
1.68461
1.69183
1.69638
1.73192
1.74239
1.74614
1.75886
1.73866
1.73561
1.74038
1.7388
1.72714
1.74819
1.74213
1.72879
1.7283
1.72118
1.6393
1.64897
1.63565
1.63478
1.63382
1.62671
1.63496
1.636
1.65239
1.64567
1.64664
1.63415
1.62478
1.62723
1.61815
1.61376
1.61637
1.62208
1.61358
1.59533
1.60228
1.58928
1.61478
1.60486
1.58504
1.59361
1.60594
1.60161
1.58753
1.59692
1.58546
1.71139
1.71552
1.71493
1.72352
1.70954
1.70623
1.72511
1.72271
1.70435
1.70848
1.69453
1.71441
1.70009
1.68683
1.7151
1.70836
1.70577
1.69728
1.61131
1.60287
1.60867
1.60508
1.60307
1.60462
1.60972
1.60158
1.61298
1.60818
1.60123
1.61346
1.60309
1.60822
1.61274
1.60461
1.59854
1.5987
1.62498
1.62906
1.62816
1.63032
1.63119
1.6293
1.62542
1.62531
1.62429
1.63222
1.63179
1.62819
1.62615
1.6233
1.62686
1.62999
1.62934
1.6818
1.68451
1.66534
1.66893
1.63665
1.6342
1.64459
1.64453
1.65528
1.64902
1.64652
1.63583
1.68824
1.67588
1.6822
1.67961
1.57654
1.58146
1.70152
1.69796
1.69389
1.69442
1.68206
1.62795
1.6294
1.62222
1.6131
1.61355
1.62058
1.62115
1.59234
1.59609
1.68056
1.67064
1.67465
1.67189
1.72155
1.72031
1.71458
1.71567
1.64186
1.64122
1.64882
1.70481
1.69708
1.70171
1.69706
1.69601
1.70508
1.60418
1.6085
1.62804
1.62655
1.62445
1.63865
1.63729
1.63609
1.64469
1.64296
1.65156
1.6774
1.6723
1.62447
1.62425
1.62465
1.7278
1.72336
1.61948
1.61507
1.6127
1.70196
1.69732
1.70133
1.70261
1.68785
1.68657
1.62803
1.62088
1.6246
1.67032
1.74228
1.744
1.63224
1.63196
1.70283
1.70773
1.62769
1.61585
1.61486
1.63795
1.63792
1.6252
1.61684
1.79277
1.78764
1.78451
1.78911
1.77998
1.71109
1.71049
1.75467
1.75025
1.75284
1.62822
1.62675
1.62798
1.71167
1.70555
1.63705
1.63081
1.63232
1.67847
1.61415
1.62749
1.80552
1.80655
1.62734
1.62642
1.62725
1.80961
1.81684
1.64445
1.64708
1.65594
1.7645
1.76039
1.75518
1.63462
1.63175
1.62698
1.76307
1.7562
1.61923
1.62017
1.71117
1.71955
1.87985
1.87651
1.87138
1.82284
1.80903
1.80292
1.78835
1.83461
1.84191
1.84153
1.60477
1.61939
1.77794
1.77095
1.80319
1.68763
1.66585
1.67317
1.66266
1.69597
1.70625
1.61308
1.60313
1.59567
1.61898
1.62153
1.62158
1.93479
1.93144
1.93692
1.86532
1.86316
1.60752
1.60642
1.60616
1.60756
1.60715
1.59829
1.61226
1.88856
1.88073
1.85192
1.9805
1.95696
1.96461
1.763
1.72864
1.74265
1.71432
1.61502
1.61394
1.59413
1.60867
1.59873
1.5961
1.62062
1.61982
1.61716
1.61466
1.84544
1.83064
1.79922
1.59216
1.59095
1.79953
1.78186
1.77051
1.62021
1.61764
1.62069
2.06502
2.05257
2.04239
2.05341
2.04005
2.03154
2.00782
2.01909
1.94311
1.90552
1.93318
2.00614
1.98918
1.91343
1.921
1.93455
2.04303
2.03225
1.98287
1.97558
1.7158
1.7306
1.74031
1.82573
1.80827
1.80757
1.78566
1.7606
1.79381
1.84607
1.78124
1.77689
1.83856
1.85033
2.01213
2.00224
2.01324
1.9846
2.01722
2.01833
2.02005
2.02901
2.03282
2.0225
2.03571
2.04028
2.03552
2.04329
2.02114
2.02127
2.03082
2.02455
2.04634
2.07069
2.07071
2.05897
1.5949
1.64518
1.61222
1.5926
1.60572
1.59727
1.61667
1.5962
1.6153
1.60379
1.59623
1.60562
1.72892
1.73014
1.75402
1.74306
1.76087
1.72261
1.7514
1.73625
1.70513
1.73388
1.74473
1.85082
1.86582
1.8537
1.83466
1.82168
1.5882
1.61529
1.58941
1.58997
1.60661
1.59734
1.57139
1.70214
1.72177
1.75065
1.78647
1.79888
1.78573
1.78556
1.79068
1.76992
1.95643
1.94784
1.94524
1.87033
1.90237
1.85856
1.81932
1.83156
1.85877
1.8556
1.84081
1.90946
1.91719
1.77137
1.75091
1.79692
1.76055
1.76352
1.82191
1.81228
1.61319
1.61069
1.61698
1.61586
1.61024
1.61216
1.60967
1.61558
1.61303
1.61702
1.61328
1.61317
1.61937
1.62494
1.62943
1.62444
1.62612
1.61922
1.63336
1.63546
1.64844
1.63276
1.63166
1.62896
1.73717
1.71479
1.70827
1.72325
1.71301
1.7501
1.72399
1.68572
1.67606
1.72261
1.68623
1.70066
1.7033
1.72337
1.71795
1.70226
1.86951
1.8606
1.86105
1.79107
1.78099
1.80211
1.78848
1.77089
1.98219
1.98519
1.9031
1.90347
1.91489
1.97432
1.96055
1.94554
1.93806
1.91523
1.90484
1.90569
1.89023
1.89202
1.82175
1.81103
1.83551
1.84448
1.84927
1.94318
1.95539
1.93994
1.9232
1.6041
1.61729
1.61494
1.61567
1.61378
1.61341
1.61165
1.61313
1.61243
1.85332
1.86408
1.85808
1.80465
1.79863
1.81201
1.90426
1.89941
1.90495
1.89582
1.87378
1.8519
1.85757
1.8358
1.85722
1.85579
1.84789
1.84921
1.84117
1.82123
1.82076
1.81303
1.84018
1.83226
1.89909
1.909
1.90856
1.91348
1.89685
1.96223
1.95537
1.95435
1.92275
1.93321
1.92631
1.6196
1.62088
1.61839
1.63443
1.62937
1.62585
1.61371
1.65233
1.65372
1.66855
1.60972
1.61499
1.63616
1.63107
1.61566
1.6241
1.60197
1.6198
1.61513
1.60461
1.61764
1.62171
1.6701
1.68237
1.79349
1.77252
1.79185
1.75053
1.72069
1.71454
1.75064
1.73264
1.72577
1.76432
1.77596
1.7991
1.78284
1.79511
1.78295
1.77531
1.76884
1.76337
1.7389
1.64948
1.65389
1.65241
1.64787
1.64071
1.707
1.70651
1.70724
1.71768
1.71122
1.69792
1.68298
1.72977
1.66992
1.66781
1.6804
1.69875
1.6772
1.6738
1.66783
1.66988
1.70793
1.70064
1.74019
1.7619
1.77092
1.7633
1.72324
1.7262
1.74468
1.72955
1.7491
1.7269
1.73665
1.81746
1.79127
1.77651
1.78375
1.77941
1.82416
1.82478
1.788
1.78011
1.61507
1.60813
1.61848
1.616
1.62129
1.62027
1.62358
1.62688
1.62638
1.62432
1.62541
1.62756
1.64398
1.61571
1.61881
1.85822
1.86576
1.86094
1.86265
1.8657
1.877
1.86823
1.84701
1.82602
1.82906
1.82398
1.80764
1.835
1.8354
1.83668
1.83649
1.83821
1.8382
1.83706
1.82576
1.85546
1.85807
1.84236
1.86783
1.86923
1.79242
1.79024
1.79695
1.80708
1.79595
1.77013
1.77162
1.76003
1.77925
1.85029
1.85444
1.85515
1.84754
1.84454
1.84987
1.85318
1.84889
1.90644
1.89259
1.88
1.90833
1.90751
1.87469
1.86453
1.87074
1.85412
1.87616
1.85584
1.85796
1.87032
1.86652
1.67509
1.68819
1.68303
1.71907
1.72135
1.71217
1.74287
1.74842
1.74577
1.71926
1.72348
1.74276
1.73235
1.7267
1.68229
1.69092
1.69422
1.70791
1.70232
1.68203
1.67217
1.66582
1.66152
1.67462
1.70157
1.70473
1.62462
1.62531
1.62358
1.62068
1.62712
1.62675
1.78797
1.77452
1.77357
1.76878
1.78727
1.78708
1.77824
1.76888
1.7867
1.77126
1.75714
1.75285
1.75233
1.76326
1.75448
1.74717
1.75611
1.74747
1.74339
1.76537
1.75739
1.73688
1.73465
1.73496
1.71908
1.74286
1.74027
1.72346
1.74221
1.74374
1.72405
1.73202
1.63079
1.63272
1.6222
1.63192
1.62611
1.62007
1.62195
1.62267
1.62022
1.62164
1.64826
1.65296
1.66203
1.63756
1.63621
1.65399
1.64544
1.66804
1.67464
1.74216
1.73463
1.75973
1.75211
1.72125
1.73632
1.73524
1.74204
1.74953
1.76279
1.7458
1.76127
1.7756
1.76025
1.79841
1.77642
1.75404
1.80248
1.62422
1.6142
1.63906
1.62808
1.63257
1.64086
1.64391
1.63717
1.64276
1.81852
1.81632
1.79754
1.8056
1.80057
1.78651
1.83133
1.82688
1.81073
1.83302
1.79894
1.79954
1.79188
1.80815
1.80347
1.62728
1.62422
1.76522
1.76719
1.76453
1.78375
1.76544
1.79258
1.78319
1.81157
1.79949
1.78671
1.79257
1.80804
1.82663
1.80307
1.83071
1.80569
1.83224
1.82
1.80278
1.80991
1.8382
1.8348
1.61634
1.61412
1.62023
1.61965
1.61982
1.61337
1.62668
1.61783
1.61342
1.61127
1.62986
1.63826
1.60836
1.61191
1.62039
1.62103
1.625
1.63019
1.62238
1.62983
1.62112
1.61918
1.60993
1.61811
1.62735
1.62551
1.62543
1.61947
1.62954
1.63104
1.62498
1.6281
1.62805
1.62601
1.65979
1.63676
1.63923
1.65495
1.71824
1.71619
1.69188
1.67453
1.67125
1.68992
1.68156
1.67781
1.73048
1.65425
1.68589
1.71704
1.73281
1.69602
1.70827
1.68208
1.64877
1.69269
1.68131
1.65547
1.64806
1.63734
1.6442
1.62996
1.64494
1.64625
1.65287
1.64829
1.64507
1.63859
1.6367
1.63105
1.72387
1.72683
1.73604
1.71827
1.71203
1.73941
1.73636
1.71425
1.73443
1.73883
1.73613
1.72675
1.71935
1.69787
1.69654
1.69271
1.6913
1.69446
1.70661
1.70344
1.70453
1.71008
1.7141
1.71028
1.71157
1.717
1.62954
1.6313
1.62996
1.62982
1.63124
1.63015
1.6293
1.63005
1.62796
1.6267
1.62885
1.63201
1.62953
1.62986
1.62835
1.62573
1.62599
1.62312
1.62664
1.75827
1.76654
1.75737
1.7617
1.74932
1.73261
1.73422
1.73685
1.74441
1.72863
1.73948
1.7356
1.73692
1.72914
1.72612
1.73807
1.73608
1.67006
1.67713
1.68018
1.68455
1.69239
1.70328
1.72061
1.71462
1.70139
1.6985
1.7118
1.70293
1.71277
1.70771
1.78415
1.79456
1.78857
1.79216
1.77915
1.76501
1.7689
1.77805
1.77206
1.77073
1.77434
1.76596
1.78016
1.79812
1.78383
1.81038
1.80763
1.80758
1.7863
1.80096
1.80522
1.79977
1.60952
1.62095
1.61688
1.61892
1.61692
1.62973
1.62855
1.63956
1.63534
1.65438
1.64504
1.63404
1.638
1.65578
1.64359
1.64019
1.62829
1.63112
1.62951
1.63466
1.63426
1.63132
1.63066
1.63535
1.64211
1.64268
1.64556
1.65387
1.64128
1.63564
1.63765
1.64309
1.63807
1.61077
1.60891
1.61133
1.61156
1.61319
1.61494
1.61252
1.60987
1.62141
1.62852
1.61846
1.62133
1.62473
1.61797
1.62259
1.61845
1.7122
1.70767
1.67946
1.68833
1.68948
1.62881
1.63059
1.63186
1.63167
1.62991
1.62896
1.63083
1.63021
1.63817
1.63302
1.63179
1.62576
1.63191
1.63038
1.63214
1.63147
1.62957
1.62913
1.63157
1.63149
1.71383
1.7227
1.71412
1.71936
1.723
1.72847
1.72519
1.71673
1.7036
1.72426
1.74118
1.74138
1.74288
1.73675
1.71328
1.72188
1.73941
1.72888
1.7273
1.73411
1.72381
1.73395
1.73724
1.75821
1.75488
1.76356
1.7604
1.74461
1.72642
1.7387
1.73198
1.73253
1.72697
1.73446
1.73235
1.7466
1.73603
1.74221
1.75327
1.74811
1.74641
1.73698
1.75033
1.74251
1.73683
1.73152
1.67226
1.67436
1.68572
1.66308
1.67034
1.6815
1.69112
1.68781
1.67509
1.67866
1.67275
1.61944
1.60747
1.61349
1.62205
1.62812
1.6236
1.62279
1.62481
1.6649
1.65696
1.66785
1.67468
1.65854
1.64919
1.66448
1.69386
1.6823
1.67632
1.67152
1.66753
1.68281
1.68475
1.72164
1.71153
1.69216
1.69589
1.71245
1.69411
1.68852
1.69892
1.69788
1.69377
1.70218
1.69697
1.71043
1.69379
1.70567
1.71041
1.7021
1.59871
1.60737
1.60512
1.62585
1.61934
1.61533
1.61969
1.62137
1.62264
1.63406
1.63567
1.6325
1.63336
1.63175
1.62681
1.62641
1.71988
1.71577
1.72393
1.71553
1.71323
1.71365
1.7093
1.73293
1.71311
1.71748
1.72447
1.71515
1.72702
1.72193
1.72579
1.72538
1.73136
1.73212
1.72917
1.72197
1.7306
1.73787
1.74262
1.74022
1.7346
1.72525
1.71978
1.7239
1.72023
1.72872
1.72488
1.62245
1.62397
1.62121
1.62079
1.62574
1.62657
1.6275
1.62575
1.62772
1.62262
1.62363
1.62466
1.62593
1.61229
1.61552
1.61989
1.68777
1.68356
1.6864
1.68229
1.67758
1.69297
1.69521
1.67139
1.66718
1.68347
1.67019
1.67598
1.68196
1.67105
1.68698
1.6765
1.64079
1.64367
1.63762
1.61671
1.62597
1.6267
1.63551
1.62723
1.63732
1.63821
1.63497
1.6383
1.6312
1.6367
1.63307
1.63464
1.64914
1.64856
1.63797
1.63758
1.65027
1.64582
1.62561
1.62288
1.62446
1.63617
1.62873
1.63188
1.62942
1.62831
1.62632
1.63126
1.62699
1.62897
1.62545
1.62717
1.62633
1.62372
1.62254
1.62627
1.63185
1.58542
1.59649
1.60667
1.60723
1.59939
1.60346
1.60502
1.61137
1.70597
1.70786
1.68323
1.68697
1.68805
1.69515
1.70386
1.70414
1.69621
1.70037
1.68452
1.70473
1.71087
1.70233
1.71149
1.71567
1.70091
1.69776
1.70278
1.71025
1.70943
1.70678
1.69757
1.69648
1.6996
1.68294
1.69069
1.68596
1.69514
1.68815
1.68426
1.69992
1.69258
1.69158
1.70172
1.68904
1.6998
1.68489
1.69521
1.69675
1.65449
1.64995
1.65646
1.63446
1.65433
1.64417
1.63123
1.63321
1.64154
1.64282
1.62682
1.62223
1.63325
1.62584
1.62991
1.62843
1.63233
1.63185
1.71144
1.71953
1.72201
1.71634
1.71958
1.70494
1.7181
1.70919
1.68625
1.67477
1.67286
1.68524
1.67102
1.58118
1.59088
1.59293
1.59802
1.59291
1.59958
1.59163
1.59883
1.59503
1.5867
1.59161
1.58914
1.6168
1.6207
1.61834
1.61816
1.62048
1.61918
1.61498
1.61658
1.62524
1.62908
1.62916
1.6243
1.62094
1.62171
1.62284
1.61177
1.60876
1.61151
1.61261
1.61196
1.61643
1.61719
1.61176
1.61224
1.61088
1.60895
1.61195
1.61271
1.60926
1.6207
1.61312
1.67475
1.67701
1.67377
1.69808
1.70676
1.69873
1.71077
1.70576
1.7047
1.69512
1.7042
1.70422
1.69499
1.70317
1.70614
1.70095
1.69524
1.7067
1.7028
1.7019
1.69486
1.71235
1.71039
1.7013
1.70075
1.70353
1.70585
1.69245
1.69508
1.69246
1.69127
1.70165
1.69086
1.69409
1.69603
1.70789
1.70191
1.7014
1.70897
1.70565
1.69885
1.57516
1.57521
1.6648
1.67186
1.65712
1.65499
1.67197
1.67545
1.67335
1.66681
1.66958
1.67822
1.67249
1.6644
1.68683
1.6696
1.68862
1.69506
1.69789
1.69632
1.68572
1.68313
1.69965
1.62791
1.63121
1.6364
1.63336
1.66344
1.63039
1.6456
1.65956
1.64076
1.64177
1.64879
1.64662
1.644
1.64524
1.63927
1.64034
1.63378
1.65135
1.65634
1.63002
1.64814
1.63849
1.63874
1.63718
1.61957
1.60658
1.61055
1.60645
1.61959
1.62631
1.60641
1.60128
1.62405
1.62805
1.63752
1.63546
1.63158
1.63007
1.62341
1.63031
1.62444
1.66873
1.66894
1.66525
1.65027
1.67158
1.68039
1.67276
1.66069
1.64763
1.64468
1.64786
1.66576
1.67041
1.68859
1.69094
1.68094
1.66777
1.66846
1.68292
1.67433
1.70209
1.70609
1.60122
1.60101
1.62567
1.62607
1.63388
1.62869
1.63659
1.69967
1.69913
1.70032
1.69444
1.66186
1.64998
1.67032
1.64821
1.65137
1.66876
1.66133
1.63334
1.62933
1.63048
1.6338
1.62545
1.6226
1.61943
1.63847
1.62749
1.62945
1.63289
1.63796
1.62804
1.61766
1.61697
1.61994
1.61786
1.61883
1.61451
1.62408
1.62253
1.68638
1.68293
1.68014
1.6923
1.68428
1.69125
1.68935
1.6764
1.67258
1.70237
1.69617
1.69689
1.68766
1.70907
1.69754
1.6944
1.69984
1.69085
1.6921
1.70461
1.70597
1.69502
1.68704
1.69076
1.69858
1.69204
1.69952
1.69303
1.69614
1.68673
1.6934
1.68894
1.70515
1.70751
1.71572
1.70699
1.72008
1.71025
1.61413
1.61477
1.61652
1.61336
1.61072
1.61482
1.61541
1.61017
1.61051
1.67969
1.67184
1.69394
1.68687
1.68536
1.67789
1.67678
1.66799
1.68826
1.67613
1.6814
1.69107
1.68914
1.71305
1.69828
1.69496
1.70551
1.6985
1.70645
1.70467
1.70669
1.70118
1.67748
1.67084
1.68607
1.69284
1.68887
1.66996
1.68568
1.69696
1.69343
1.69491
1.68475
1.67622
1.67301
1.67372
1.68456
1.69182
1.59906
1.6095
1.60764
1.60735
1.60523
1.5875
1.60723
1.58966
1.59587
1.59883
1.59615
1.64921
1.6651
1.66832
1.66153
1.67078
1.66536
1.67042
1.65812
1.65884
1.64879
1.66282
1.66644
1.654
1.6672
1.62325
1.61861
1.63145
1.63767
1.63893
1.6346
1.61902
1.69487
1.69209
1.69825
1.70242
1.70279
1.70842
1.69998
1.70327
1.69878
1.7383
1.72232
1.74008
1.74539
1.7324
1.72662
1.72058
1.74741
1.74625
1.74325
1.71578
1.75485
1.73537
1.72792
1.71858
1.71409
1.71775
1.66537
1.68667
1.673
1.67529
1.66778
1.66238
1.66864
1.69076
1.68548
1.72311
1.72996
1.72474
1.72464
1.72903
1.72299
1.62918
1.62729
1.62922
1.62819
1.63062
1.70005
1.70013
1.69403
1.68765
1.70743
1.70154
1.72143
1.7196
1.72244
1.7141
1.70786
1.63476
1.64193
1.65161
1.63992
1.6517
1.6328
1.63415
1.63901
1.64329
1.64145
1.63174
1.63057
1.63121
1.63098
1.62948
1.62406
1.62369
1.62175
1.61954
1.62341
1.7647
1.76593
1.74935
1.76267
1.74225
1.74454
1.73946
1.76012
1.75648
1.76776
1.7596
1.756
1.76548
1.6396
1.63517
1.65957
1.65034
1.66342
1.65117
1.63648
1.74056
1.75297
1.75363
1.74825
1.73322
1.72708
1.73083
1.74496
1.74424
1.73986
1.73626
1.6267
1.62673
1.6239
1.6264
1.62932
1.62775
1.62768
1.62953
1.62513
1.62842
1.62468
1.61868
1.62465
1.62323
1.62747
1.62388
1.61831
1.62859
1.61999
1.6271
1.62577
1.62473
1.62627
1.62071
1.61979
1.62697
1.61579
1.61996
1.62489
1.62051
1.62171
1.62259
1.62236
1.62122
1.62221
1.62227
1.62204
1.69507
1.7101
1.7122
1.70494
1.70531
1.69737
1.6981
1.69897
1.69173
1.67413
1.65221
1.66026
1.67864
1.6825
1.68304
1.66049
1.65789
1.69606
1.67725
1.70627
1.69632
1.72573
1.71475
1.70502
1.73685
1.74334
1.68781
1.68413
1.67573
1.67793
1.67049
1.66634
1.66338
1.6687
1.667
1.66647
1.66206
1.62374
1.61574
1.62577
1.62646
1.62226
1.62228
1.63087
1.63013
1.63173
1.62095
1.62565
1.62812
1.62279
1.62926
1.62958
1.63057
1.62937
1.62199
1.62067
1.61192
1.615
1.62236
1.62051
1.61682
1.61917
1.62162
1.6094
1.61549
1.61477
1.61639
1.62337
1.61726
1.62184
1.61701
1.61742
1.62903
1.61892
1.61796
1.61715
1.767
1.76715
1.76841
1.78036
1.76182
1.75831
1.76588
1.76823
1.76381
1.78334
1.78038
1.78625
1.78468
1.77427
1.76539
1.75961
1.78527
1.78413
1.76945
1.76576
1.76396
1.75408
1.79317
1.79673
1.79924
1.79554
1.80201
1.79518
1.78702
1.78047
1.80038
1.78954
1.62867
1.62612
1.62862
1.6275
1.6272
1.62795
1.62762
1.62451
1.62628
1.62629
1.69736
1.70425
1.68757
1.69229
1.69126
1.68281
1.70339
1.70023
1.67824
1.67502
1.67003
1.8984
1.89797
1.88601
1.89697
1.91724
1.90812
1.89585
1.89523
1.87746
1.87616
1.83215
1.84431
1.85115
1.84241
1.83663
1.84666
1.85039
1.84516
1.84538
1.78607
1.78579
1.78403
1.77148
1.79296
1.79278
1.79402
1.78118
1.86088
1.88211
1.86343
1.892
1.88779
1.8819
1.88547
1.87429
1.62087
1.62928
1.62637
1.6261
1.62438
1.62372
1.61068
1.63078
1.62723
1.62596
1.60904
1.62408
1.62153
1.61926
1.61908
1.61151
1.61454
1.60725
1.62011
1.61739
1.62123
1.6218
1.61715
1.62446
1.62361
1.62783
1.63117
1.6245
1.62657
1.6326
1.63879
1.63165
1.62032
1.6211
1.63992
1.63624
1.62651
1.62852
1.62063
1.6195
1.62675
1.6198
1.61777
1.62204
1.62164
1.62128
1.62307
1.62047
1.62909
1.66771
1.64693
1.62521
1.90759
1.93007
1.94241
1.94331
1.95361
1.94964
1.9016
1.91565
2.00054
1.98253
1.99172
2.01457
2.00808
1.97851
1.96784
1.98286
1.9641
1.82189
1.81563
1.8217
1.8264
1.81118
1.8487
1.8184
1.81377
1.81028
1.79916
1.79753
1.78956
1.789
1.80713
1.80029
1.78194
1.78039
1.79172
1.7869
1.80682
1.79576
1.84698
1.82463
1.83822
1.83795
1.82431
1.84126
1.82975
1.83631
1.82974
1.82724
1.61278
1.6133
1.61283
1.61427
1.61042
1.61362
1.61204
1.61373
1.61955
1.61809
1.62144
1.6226
1.61157
1.61473
1.61484
1.61581
1.61698
1.61227
1.61954
1.97803
1.9498
1.97566
1.94854
1.992
1.98948
1.96767
1.95555
1.85694
1.86138
1.90458
1.88214
1.9018
1.90412
1.90199
1.9126
1.88757
1.87736
1.91843
1.91314
1.91412
1.92394
1.8239
1.85829
1.84443
1.86098
1.86802
1.85755
1.87423
1.85797
1.84632
1.81685
1.80736
1.81946
1.82891
1.81926
1.95539
1.95145
1.93143
1.94347
1.93914
1.89777
1.88239
1.90255
1.89329
1.92846
1.93962
1.93831
1.93274
1.95482
1.92539
1.92767
1.95809
1.94783
1.96104
1.94468
1.96074
1.96477
1.95203
1.95496
1.96154
1.82094
1.81069
1.79243
1.77111
1.78012
1.83548
1.84204
1.61481
1.62041
1.61583
1.61108
1.6107
1.62918
1.61121
1.62178
1.62785
1.62126
1.62208
1.6094
1.62124
1.66896
1.65577
1.65879
1.69961
1.74579
1.91782
1.90719
1.89326
1.92467
1.93324
1.91415
1.89277
1.8695
1.90014
1.91213
1.93662
1.94245
1.99108
1.98856
1.9861
1.96725
1.95109
1.99918
1.96454
1.98015
2.00448
1.9685
1.98366
1.99307
1.96968
1.84105
1.86997
1.86056
1.8504
1.83731
1.875
1.88855
1.87785
1.84079
1.85136
1.89205
1.90191
1.85221
1.87758
1.66998
1.67784
1.67364
2.05929
2.06547
2.05842
2.05131
2.04609
2.03743
2.04328
2.03724
1.99714
1.97265
1.97958
2.00985
2.00561
1.99196
1.9991
2.00403
2.00172
1.98466
1.99729
1.98681
1.9682
1.96049
1.94514
1.94692
1.93172
1.94528
1.94828
1.97804
1.97985
1.97279
1.9713
1.96668
1.95415
1.77587
1.7759
1.79209
1.7987
1.81869
1.85845
1.83599
1.82727
1.84595
1.78861
1.80662
1.80456
1.87095
1.89026
1.90927
1.87648
1.89759
1.87839
1.92878
1.9043
1.90563
1.90686
2.07441
2.06266
2.04586
2.04398
2.02591
2.04208
1.99287
2.00161
2.02347
2.05468
2.04689
1.68356
2.04328
2.07344
2.0683
2.05242
2.06378
2.05244
2.06174
2.06161
2.05137
2.08626
2.08446
2.0183
1.99572
1.98265
2.02843
2.00136
2.0253
1.64531
1.63449
1.63668
1.6335
1.63918
1.65437
1.6804
1.63521
1.63204
1.91212
1.89563
1.91283
1.8779
1.88353
1.92496
1.91368
1.89573
1.87617
1.86673
1.88921
1.62429
1.61595
1.62229
1.62069
1.62673
1.6194
1.61989
1.61935
1.61525
1.6165
1.6208
1.76275
1.7176
1.7529
1.75663
1.75665
1.74149
1.73182
1.72952
1.71994
1.871
1.83911
1.86967
1.86957
1.87685
1.87464
1.83871
1.84474
1.84841
1.84615
1.87023
1.85962
1.77912
1.78274
1.78433
1.78385
1.78364
1.78069
1.76104
1.75972
1.76593
1.7625
1.77171
1.77782
1.78067
1.77059
1.63
1.63012
1.63173
1.62806
1.63041
1.62956
1.62923
1.63067
1.62927
1.62823
1.62861
1.62949
1.62948
1.66684
1.66989
1.66414
1.65011
1.65926
1.6741
1.67757
1.66304
1.61588
1.61621
1.61561
1.61445
1.61731
1.61826
1.61872
1.61476
1.61861
1.61791
1.6193
1.76985
1.77919
1.77154
1.76309
1.77378
1.75904
1.7735
1.75766
1.75527
1.76386
1.76136
1.76699
1.7537
1.97657
1.97082
1.97775
1.95998
1.91948
1.91482
1.93844
1.78296
1.61436
1.63327
1.65466
1.61791
1.62165
1.61619
1.6269
1.60796
1.63198
1.63378
1.62526
1.60977
1.61177
1.63589
1.6467
1.6371
1.64605
1.61856
1.61915
1.61934
1.6168
1.61962
1.5998
1.60653
1.74587
1.72291
1.70898
1.72731
1.7409
1.71722
1.74854
1.68062
1.68587
1.66099
1.90891
1.85922
1.89268
1.89794
1.89575
1.88892
1.85801
1.61925
1.61457
1.62571
1.6214
1.62217
1.61951
1.62016
1.62143
1.63315
1.62428
1.7404
1.71845
1.71244
1.67649
1.69432
1.66944
1.69402
1.68158
1.6933
1.64759
1.65488
1.67966
1.69467
1.66296
1.65499
1.66427
1.65819
1.6524
2.00139
1.97886
2.00232
2.00463
1.99138
1.97545
2.00268
1.93483
1.9299
1.90336
1.91281
1.89346
1.93323
1.92436
1.92252
1.90331
1.88503
1.86746
1.85557
1.89094
1.88693
1.85632
1.88617
1.87975
1.88412
1.88854
1.8808
1.87837
1.86674
1.85421
1.85854
1.91201
1.92732
1.9295
1.90344
1.92162
1.90762
1.92521
1.93357
1.92444
1.92211
1.90929
1.9107
1.86405
1.88878
1.89541
1.63557
1.63135
1.63055
1.62623
1.63454
1.62632
1.63229
1.64098
1.63516
1.65579
1.645
1.62797
1.62844
1.62762
1.61949
1.62411
1.61677
1.60451
1.60454
1.60653
1.62398
1.61864
1.6036
1.61935
1.86373
1.87802
1.86115
1.85228
1.85549
1.83459
1.83151
1.81481
1.84918
1.80638
1.83859
1.81745
1.82195
1.80858
1.70381
1.6933
1.8171
1.81958
1.83109
1.84363
1.83999
1.84209
1.89912
1.89514
1.87492
1.88929
1.89083
1.87487
1.86911
1.87788
1.87056
1.88947
1.88199
1.89954
1.88515
1.71115
1.69921
1.63911
1.63218
1.62463
1.64935
1.64989
1.64471
1.64007
1.63629
1.74505
1.74756
1.7968
1.80617
1.81689
1.80338
1.79752
1.79885
1.79308
1.80682
1.78874
1.84678
1.84578
1.82299
1.81777
1.83065
1.80907
1.82354
1.81755
1.82198
1.82762
1.8214
1.81661
1.7983
1.79463
1.8049
1.80397
1.81729
1.80516
1.81874
1.81915
1.80315
1.76081
1.79641
1.79325
1.77257
1.77803
1.79644
1.79297
1.76733
1.78479
1.79303
1.77791
1.79208
1.7717
1.62382
1.62716
1.73936
1.74047
1.73973
1.73357
1.73056
1.71989
1.72352
1.71782
1.70422
1.7125
1.69669
1.72775
1.72116
1.63163
1.63232
1.63076
1.62885
1.63148
1.62836
1.63025
1.63
1.62764
1.62622
1.62976
1.62974
1.73039
1.74773
1.74971
1.74023
1.73712
1.74998
1.73861
1.72654
1.78532
1.77893
1.78196
1.76864
1.76522
1.76309
1.63539
1.6376
1.6341
1.66263
1.66614
1.66101
1.65783
1.64896
1.65439
1.65505
1.66845
1.66804
1.67744
1.68607
1.6983
1.69876
1.69432
1.68836
1.69638