/*--------------------------------*- C++ -*----------------------------------*\
| =========                 |                                                 |
| \\      /  F ield         | OpenFOAM: The Open Source CFD Toolbox           |
|  \\    /   O peration     | Version:  v1612+                                |
|   \\  /    A nd           | Web:      www.OpenFOAM.com                      |
|    \\/     M anipulation  |                                                 |
\*---------------------------------------------------------------------------*/
FoamFile
{
    version     2.0;
    format      ascii;
    class       surfaceScalarField;
    location    "200";
    object      phi;
}
// * * * * * * * * * * * * * * * * * * * * * * * * * * * * * * * * * * * * * //

dimensions      [0 3 -1 0 0 0 0];

internalField   nonuniform List<scalar> 
41736
(
6.34941e-09
3.47947e-09
-6.1911e-10
-9.20966e-09
-1.05745e-09
6.39932e-10
-6.32277e-09
6.74029e-09
-1.9607e-09
-6.55524e-09
6.77254e-09
1.74345e-09
2.64622e-08
-2.55095e-09
-4.34685e-09
-1.95644e-08
7.05941e-09
3.79068e-09
1.56121e-08
1.19726e-08
-1.24515e-08
8.11103e-09
-7.63209e-09
1.46939e-08
4.33813e-09
-1.20532e-08
-2.94932e-09
-1.93854e-08
-3.58296e-09
1.86215e-08
-3.52094e-09
5.73929e-09
1.24755e-08
3.71079e-09
8.79294e-10
3.48055e-09
1.17531e-08
-9.49434e-09
-1.14428e-09
1.34833e-08
-8.85849e-09
-1.33122e-08
1.69214e-09
4.86925e-09
6.75083e-09
-1.06692e-08
-9.9121e-09
7.26903e-09
1.48217e-08
-1.08506e-08
-5.11531e-09
1.10253e-08
-1.63036e-09
-1.03231e-08
9.28239e-10
7.16909e-09
-1.83812e-08
2.22375e-08
2.83938e-09
-1.24859e-08
8.01631e-09
1.4544e-08
-1.04848e-08
-1.20825e-09
-2.85091e-09
1.65148e-09
2.09054e-08
-8.0128e-09
-1.19569e-08
2.07775e-08
-2.17625e-08
-2.58633e-10
3.63996e-09
-1.04089e-08
-2.16766e-08
6.0561e-09
4.11994e-09
-1.72035e-08
7.0275e-09
1.10827e-08
-1.38785e-08
8.8519e-09
-1.56933e-08
3.47784e-09
4.59883e-09
-4.0009e-09
1.27776e-08
-1.90665e-08
1.68305e-09
1.08488e-08
-6.22737e-09
-1.21665e-08
7.54506e-09
5.34046e-09
8.47362e-09
-2.96529e-09
6.73887e-09
4.8995e-10
-5.69898e-09
-1.52986e-09
-7.98958e-09
2.85772e-09
1.08182e-08
-5.68633e-09
1.13326e-08
-6.38873e-09
-7.67805e-09
2.73414e-09
-2.2537e-09
5.59674e-09
-1.73268e-09
5.55517e-09
2.91639e-09
2.49898e-09
-4.20463e-09
-2.70233e-11
1.57275e-09
9.32288e-09
-1.30928e-09
-4.42813e-09
2.90763e-09
-4.74792e-09
5.31019e-10
-3.56869e-09
7.99916e-09
4.4556e-09
-7.93669e-09
1.69215e-09
5.09754e-10
6.22463e-10
-1.80451e-09
-6.30223e-09
1.72706e-09
6.37968e-09
-9.64249e-09
2.76986e-09
5.06813e-09
-8.5771e-09
-1.84841e-09
7.75507e-09
2.67046e-09
1.67097e-09
-2.33923e-09
-7.90884e-09
1.01671e-08
-4.67158e-10
-8.02902e-09
4.23214e-09
2.39208e-09
3.54294e-09
-7.39982e-09
-4.56961e-09
5.66721e-09
8.29856e-10
-5.87348e-09
-2.3562e-09
7.8288e-09
-7.05828e-12
-1.0161e-08
5.81416e-09
1.66234e-10
-6.57569e-09
-2.23694e-09
4.45787e-09
-8.22126e-09
-2.8123e-09
5.28904e-09
3.40098e-09
2.37474e-09
5.68415e-09
-3.16433e-09
7.26614e-09
-1.5444e-09
-7.14401e-09
5.43313e-09
4.71403e-09
2.96245e-09
-5.28035e-09
-3.55557e-09
-1.84824e-09
2.41084e-10
-6.8318e-09
3.86971e-09
9.62218e-11
6.13851e-09
6.58153e-09
1.57487e-08
-1.50105e-08
-7.31971e-09
1.07662e-08
-7.78962e-09
3.60497e-09
1.02316e-08
1.31063e-09
4.20645e-09
4.71841e-09
1.62794e-08
9.352e-10
1.07293e-08
-1.94541e-08
-2.95565e-09
-1.26918e-08
6.36911e-10
-9.36541e-09
7.70263e-09
2.97341e-09
1.30749e-08
-1.95103e-09
-1.47528e-08
3.62889e-09
8.27933e-09
-9.01054e-10
-1.03339e-08
3.48744e-09
-4.57352e-09
4.87351e-09
-6.15571e-09
8.98483e-09
-3.3593e-09
1.29512e-08
-1.52181e-08
6.42023e-09
9.73302e-09
2.76721e-09
-4.91033e-09
6.21785e-09
-9.06993e-09
-2.78526e-09
1.16998e-10
-6.09489e-09
9.15581e-09
-3.58956e-09
2.6188e-10
-1.56973e-10
-2.50011e-10
-4.70299e-09
-2.29901e-09
7.252e-09
-3.05841e-09
-5.9081e-09
8.71648e-09
3.29587e-09
-1.19496e-08
1.82346e-09
6.83021e-09
-9.70838e-09
9.94583e-09
-1.50445e-09
-5.19873e-09
-3.00521e-09
-4.46475e-09
-8.98926e-09
1.72979e-09
-2.71915e-09
-4.91875e-09
-3.08537e-09
1.12171e-10
2.07293e-09
4.38218e-09
-8.16407e-09
1.70896e-09
-6.33589e-09
5.86033e-09
6.85474e-09
-9.24657e-09
1.51582e-09
-2.19011e-10
2.03468e-09
-4.7666e-09
7.77172e-09
-2.7198e-09
-2.85273e-10
3.83302e-09
-2.99081e-09
-5.6088e-09
-1.33642e-09
-1.99477e-09
-2.96921e-09
6.30041e-09
-2.05214e-09
-2.51365e-09
3.22937e-09
4.01334e-09
3.29888e-09
4.59517e-10
-2.84721e-09
3.3468e-09
3.51376e-09
1.11585e-09
-1.30031e-10
-2.82227e-09
3.69852e-09
-3.59603e-09
1.33798e-09
-7.15106e-09
-5.8912e-09
-1.4163e-09
5.31271e-09
-8.69021e-10
1.24661e-09
-2.96686e-09
4.56949e-11
-6.27381e-09
3.68149e-09
1.19416e-09
-3.76946e-09
1.3881e-09
-5.36324e-09
2.55883e-09
-4.07165e-09
2.94609e-09
-4.43621e-09
-2.08969e-09
2.45423e-09
-4.07814e-09
2.11119e-09
-2.46926e-09
3.95143e-09
-6.6916e-09
1.95593e-09
-9.41949e-11
-2.05789e-09
1.04919e-10
7.3733e-09
8.8614e-09
-3.81952e-09
-1.24152e-08
8.39343e-09
9.32878e-10
-1.95294e-09
3.90959e-09
1.88675e-09
3.06511e-09
4.15376e-09
8.14926e-09
4.89518e-09
5.1525e-10
-4.47752e-09
4.02199e-09
-1.10084e-08
3.16695e-09
8.23241e-09
8.16545e-10
-5.29985e-09
2.87709e-09
4.30954e-09
7.79533e-09
-1.18693e-09
-3.64559e-09
-2.96277e-09
-6.8736e-09
9.3336e-09
5.33535e-09
-3.37995e-09
-4.68057e-09
-4.65781e-09
-1.14429e-08
1.09989e-08
-2.3439e-09
2.78795e-09
-4.90793e-09
4.33907e-09
-1.0874e-08
6.7371e-09
-1.09724e-08
9.3747e-09
-5.13944e-09
1.31001e-08
4.63593e-09
1.00223e-08
-6.14159e-10
-1.43161e-08
7.86126e-09
-1.82753e-10
1.01744e-08
1.92602e-09
-4.23906e-09
9.37945e-10
-2.00891e-09
1.12453e-08
9.75627e-09
-2.24575e-09
2.91572e-09
-1.04261e-08
1.40297e-09
8.45736e-09
-1.03993e-10
-5.04276e-10
-6.12899e-09
-9.93969e-10
1.5032e-08
-5.27781e-10
8.90849e-09
6.25545e-09
-9.1153e-09
6.91497e-09
7.43485e-10
-1.1145e-08
-8.01652e-10
9.93779e-09
-2.304e-09
-9.46447e-10
-6.91062e-09
8.31079e-09
-4.53749e-10
9.30271e-09
-1.79182e-09
-4.49915e-09
-2.94127e-10
8.7952e-09
7.48888e-09
-9.86069e-09
-3.10624e-09
6.18603e-09
4.23354e-09
-1.56489e-09
-1.25293e-08
3.65432e-09
5.44551e-09
-1.2206e-08
-7.12784e-09
3.76739e-09
-1.32959e-08
-3.43681e-09
-6.87166e-09
-2.19065e-09
-1.09816e-09
-1.35368e-08
9.4374e-09
5.1977e-09
8.66376e-09
-1.34272e-08
-4.30248e-09
-7.30419e-09
-7.01279e-09
4.5991e-09
1.90419e-09
-1.72645e-08
1.07614e-08
5.62008e-09
-5.2008e-09
4.17987e-09
-1.0242e-08
6.8835e-09
1.38137e-08
6.19153e-09
-1.8101e-08
4.61099e-09
-1.03921e-09
1.15391e-08
-1.3589e-08
-1.14868e-08
2.72294e-09
-1.15095e-08
3.09709e-09
4.97564e-09
-9.59586e-09
-8.78528e-09
5.23031e-09
-2.02685e-09
-5.37062e-09
-6.00261e-09
1.2977e-08
-1.20423e-08
3.4476e-09
-4.38223e-09
-1.4794e-08
1.86182e-08
9.15275e-09
1.71948e-08
-2.29394e-08
-6.2977e-09
1.05079e-08
-8.10719e-09
-1.71432e-08
5.40342e-09
-1.7154e-09
1.34552e-08
-9.22461e-09
-4.471e-09
4.86239e-09
1.91592e-08
-7.82556e-09
1.78908e-08
4.42574e-10
1.47822e-08
-1.05235e-08
2.83225e-09
1.02346e-08
1.53411e-08
3.52941e-09
-7.11743e-09
6.34222e-09
1.18311e-08
-1.88636e-08
3.7062e-09
2.14996e-08
-1.05406e-08
-4.79362e-09
-8.78306e-09
-9.58311e-09
2.64594e-08
-4.23032e-10
-1.33538e-09
1.23063e-09
5.27753e-10
-1.70179e-10
-1.05338e-09
8.00563e-10
-2.07591e-09
1.02187e-09
8.83872e-10
-1.39348e-09
-1.4732e-09
7.90884e-10
-1.04174e-09
-1.30063e-10
-2.21719e-10
-2.00139e-09
-6.72223e-10
1.20039e-09
-1.68832e-09
-1.35494e-09
2.49466e-11
1.53975e-09
2.36743e-09
-3.93187e-09
-1.12895e-09
2.6111e-09
-2.8688e-09
1.38671e-09
-1.35201e-10
9.58035e-10
-1.29325e-09
4.70219e-10
-1.87445e-09
6.09899e-10
-1.08364e-09
-9.9923e-11
9.84133e-10
1.65212e-09
-6.90044e-10
-5.78195e-10
1.38626e-09
-1.1848e-10
2.14968e-10
1.24783e-09
-5.05104e-10
-6.41215e-10
-2.2764e-10
-9.9275e-11
1.15978e-11
9.2459e-09
-4.28901e-09
9.09894e-09
-1.40558e-08
1.45258e-08
-6.88963e-09
1.60973e-09
4.40717e-09
8.89854e-09
-1.75947e-08
1.11771e-08
-1.33754e-08
6.60545e-09
-3.17826e-09
1.22612e-08
5.44282e-09
5.72081e-09
1.99871e-10
-1.29995e-09
-3.13051e-09
1.66917e-08
-1.03721e-08
-3.28021e-09
1.23523e-08
-7.68952e-09
1.4073e-08
9.22802e-09
-8.019e-09
-2.44836e-09
1.34183e-08
-1.41004e-08
3.11081e-09
8.51382e-09
-2.13919e-09
-2.51208e-09
-1.01323e-08
9.96286e-09
-3.04342e-09
-4.13509e-09
4.35632e-09
-5.61355e-10
3.40157e-10
-1.94132e-09
-5.45803e-09
3.26432e-09
5.69833e-09
4.40513e-09
-5.74709e-09
-2.92237e-10
-4.48032e-09
2.83122e-09
3.09256e-09
-2.87556e-09
5.48137e-09
-2.69748e-09
-1.02407e-09
7.25286e-09
-3.53121e-09
1.77766e-09
-3.27947e-09
1.68558e-09
-1.8342e-10
6.54681e-09
-1.67655e-09
-6.84168e-09
1.26669e-09
4.96275e-10
5.0788e-09
-1.9067e-09
-8.77072e-09
3.83574e-09
6.76442e-10
3.07398e-13
-3.55228e-09
3.17711e-09
-5.37602e-09
2.97489e-09
1.46892e-09
3.71827e-10
-7.80756e-09
5.87604e-09
-9.43961e-09
1.13711e-08
3.46019e-09
-1.33915e-08
2.12376e-09
-5.16645e-09
-5.90914e-11
1.11016e-08
3.60645e-09
-6.07911e-09
-3.63092e-09
2.9538e-09
4.78455e-10
-7.20169e-09
1.2763e-08
5.9681e-09
-1.57773e-08
1.43281e-08
-7.64419e-09
-7.78066e-09
1.26692e-08
-3.35299e-09
5.85272e-09
-6.7033e-09
-7.098e-09
1.04483e-08
-3.30932e-09
-5.17523e-09
1.78125e-09
6.78097e-10
-2.49066e-09
7.37167e-09
-1.05485e-08
-1.32487e-10
-6.00905e-09
6.2827e-09
-4.8184e-09
-2.41473e-09
2.26785e-09
-4.0045e-09
-8.81187e-09
-3.06309e-09
-8.34445e-09
1.69689e-08
9.44937e-09
-5.43195e-09
3.28727e-09
1.30668e-08
-1.09221e-08
2.18216e-09
9.35479e-09
-6.95798e-09
1.75622e-08
1.20865e-08
-9.8937e-09
3.13289e-09
1.20283e-09
5.55797e-09
2.98889e-10
-3.26306e-09
-6.92949e-09
9.07382e-09
-9.92667e-09
5.57609e-09
-4.7232e-09
7.05264e-09
5.15406e-09
-1.11546e-08
7.07368e-09
5.28379e-09
-3.25876e-09
-7.59693e-09
-3.51035e-09
-9.67936e-09
1.02063e-08
-1.10462e-08
7.23643e-09
-6.39649e-09
3.16196e-09
1.4097e-08
-2.99233e-09
-2.47782e-09
1.42522e-08
-8.80848e-09
-4.11112e-09
-1.33256e-09
7.92268e-10
6.25146e-09
7.20843e-09
-4.58073e-09
-8.98814e-09
1.03101e-08
-1.31904e-08
1.28211e-08
-9.61969e-09
9.98892e-09
-1.45463e-08
-7.4526e-09
-6.37449e-09
-5.1367e-09
8.51885e-09
6.89704e-10
-1.05745e-08
5.50481e-09
8.10861e-09
3.03831e-09
1.10785e-08
-7.8653e-09
6.29645e-09
-1.01875e-08
3.05619e-09
-1.13061e-08
-3.84305e-09
-2.72049e-09
1.17051e-08
8.33948e-09
-9.00504e-09
7.13606e-09
-6.47049e-09
-4.03153e-09
3.09471e-10
1.20615e-08
-1.10672e-08
9.55394e-09
-2.51832e-09
-4.8262e-10
-1.68597e-08
6.27517e-09
5.81187e-09
-1.52995e-08
-7.92746e-11
7.06311e-09
1.52229e-10
5.30778e-09
-1.18775e-08
5.69055e-09
8.79206e-10
-6.57165e-09
6.94946e-09
6.89547e-09
-7.27329e-09
-6.27947e-09
-2.52639e-10
-3.95316e-11
-6.5503e-09
3.07796e-10
-3.69622e-11
6.74279e-09
5.59339e-09
-6.52429e-09
1.13214e-10
-4.97793e-09
-1.61737e-10
-1.45688e-09
6.59651e-09
-5.86815e-09
6.48361e-09
9.33941e-10
1.17643e-08
-3.14436e-09
-1.79934e-09
1.38366e-08
-5.08777e-09
-1.03719e-08
1.42453e-08
-5.67271e-09
-1.0305e-08
1.1511e-08
-1.1578e-08
-3.5672e-09
-6.89952e-09
1.58712e-09
2.89403e-09
-5.06547e-10
-3.97457e-09
4.38927e-09
-3.27522e-09
4.73078e-10
3.14123e-09
1.95518e-09
-2.20236e-09
-5.91954e-09
-7.36615e-10
3.97353e-09
2.68264e-09
1.61097e-09
1.12287e-08
2.25238e-09
-5.46954e-09
-8.01157e-09
8.49446e-10
3.56312e-09
6.81611e-09
2.09438e-09
-4.90636e-09
2.30537e-09
2.92457e-09
4.33763e-09
-6.41277e-09
1.05147e-09
1.67108e-10
-9.60891e-09
3.20744e-09
9.96458e-09
-5.17884e-09
-2.1777e-09
1.9621e-09
4.936e-09
2.34916e-09
-5.43367e-09
2.62876e-10
3.01759e-09
-1.31829e-09
6.49513e-09
-3.02474e-09
5.32885e-10
-2.76337e-09
4.57967e-09
-8.41835e-10
2.4262e-09
-6.82385e-09
-1.17438e-08
7.00782e-09
1.15599e-08
-1.50167e-08
2.9916e-09
5.20135e-09
4.68696e-09
-6.8606e-09
-1.28431e-08
-5.02056e-09
-2.03629e-09
3.54899e-09
-7.14929e-09
6.59192e-09
-1.35452e-09
1.19114e-08
-1.03524e-08
5.30503e-09
-4.9262e-09
9.97359e-09
-1.43693e-09
-5.70649e-09
-3.20898e-09
8.23813e-09
-3.3801e-09
-6.29496e-09
1.21886e-08
2.40023e-09
-6.74353e-09
-1.36318e-09
-4.50812e-09
1.98219e-09
8.3511e-09
-1.15761e-09
-1.40541e-08
-5.02166e-10
1.70401e-09
6.87576e-09
-4.65237e-09
-8.96689e-09
1.8655e-09
-9.57638e-09
3.76641e-09
-5.04791e-09
5.18562e-09
-5.56936e-09
5.43166e-09
-3.98067e-09
-2.66591e-10
-8.00647e-10
-4.07863e-10
-4.6617e-09
1.02552e-08
5.88431e-09
-4.48779e-09
-5.37719e-09
1.51101e-10
1.63825e-10
4.63729e-09
-8.32188e-11
-4.03881e-09
6.12295e-09
-1.7523e-09
-4.76974e-09
1.04848e-08
4.19143e-09
-8.23127e-09
-4.47945e-10
6.0272e-09
-5.48137e-09
3.69355e-12
8.65434e-09
6.75575e-10
5.7427e-09
2.88195e-10
-5.68259e-09
-4.72945e-09
5.75034e-09
2.11198e-10
7.85328e-09
-4.39061e-09
4.48729e-09
-5.62392e-10
2.29171e-09
3.47846e-09
-2.33018e-09
-3.44001e-09
2.68105e-09
1.09211e-10
-4.98576e-10
-1.13118e-09
1.81784e-09
1.99438e-09
1.1625e-09
1.18468e-09
-1.55743e-09
2.1181e-09
-4.51473e-10
8.32943e-10
1.36773e-09
-4.53087e-09
1.45653e-09
-2.18101e-09
-1.92252e-09
2.0869e-09
1.65338e-09
4.9499e-10
-2.99438e-10
4.70199e-09
2.15762e-09
-5.49187e-09
-9.36288e-10
3.6379e-09
2.00037e-09
-6.09486e-09
2.71478e-09
2.44383e-09
4.64704e-10
-4.40196e-09
3.71808e-10
3.92563e-09
-2.21058e-09
-1.97485e-09
8.13287e-10
-4.04397e-10
1.56571e-09
-2.34433e-09
1.82597e-09
1.96397e-09
2.83632e-09
4.64216e-09
-3.36416e-09
3.32555e-09
4.03137e-09
5.66134e-09
1.35776e-09
1.10414e-08
-1.50389e-08
2.63973e-09
1.01954e-08
-1.23414e-08
3.50378e-09
2.86825e-09
-2.94909e-09
1.11222e-08
5.84347e-10
1.24793e-08
-2.73902e-10
-5.79127e-09
-8.97368e-09
-1.37025e-08
-3.96729e-09
5.32835e-09
-5.62898e-09
-8.34737e-09
3.55171e-09
-2.5647e-10
-9.87683e-09
6.58159e-09
-8.65797e-09
1.59229e-09
1.06174e-08
-9.4848e-09
6.27924e-09
5.35101e-09
-7.81311e-09
-7.41472e-09
-3.67669e-09
3.69732e-10
-1.09305e-08
-4.34557e-09
7.11567e-09
-7.90721e-09
-4.83745e-09
2.90201e-09
2.46379e-10
-6.89486e-09
9.0715e-09
4.0357e-09
-6.8816e-09
-8.30785e-10
4.28422e-11
2.73706e-09
2.59297e-09
-1.83479e-09
-3.49523e-09
4.0017e-09
-2.58876e-10
-1.00577e-09
-4.02662e-09
2.6609e-09
-4.23354e-09
5.59929e-09
-8.67534e-10
-4.85343e-09
1.69436e-09
3.97209e-09
-5.33173e-09
4.92142e-10
2.76259e-09
-2.40691e-09
3.61643e-09
-2.09061e-09
3.21774e-09
2.87461e-09
8.2952e-10
-3.27148e-10
2.63123e-09
1.72202e-09
-6.18806e-09
4.11825e-09
-1.74591e-09
-3.80139e-10
5.80366e-09
-6.17015e-09
1.35767e-09
5.78967e-10
-6.90533e-09
3.54685e-09
-7.15655e-09
1.40119e-09
-2.612e-10
-2.67952e-09
-2.38955e-09
4.68896e-09
1.89591e-09
-1.58825e-10
-8.37689e-09
1.34519e-08
3.60067e-09
-8.67564e-09
-1.26593e-08
6.95337e-09
-2.67098e-09
4.33875e-09
1.27572e-08
-1.34526e-08
-3.64332e-09
-1.62977e-09
-6.69075e-09
2.91726e-09
5.30001e-09
-1.31631e-08
4.94583e-09
8.11044e-09
-5.50027e-09
-4.23993e-09
7.4554e-09
3.57233e-09
2.25883e-09
1.215e-08
-4.70955e-09
7.71973e-09
1.04417e-08
1.78423e-08
9.69485e-09
-2.82371e-09
-2.47134e-08
1.20887e-08
1.10536e-08
-1.30568e-08
1.22064e-08
-1.23127e-08
5.33717e-09
4.78599e-09
-1.48327e-08
-8.10833e-09
1.35068e-08
-6.1321e-11
-1.93782e-08
2.33586e-08
-1.5794e-08
6.11064e-09
-1.26825e-08
9.7699e-09
1.56698e-08
5.70813e-09
-1.29471e-08
-8.55502e-09
5.01696e-09
-4.08591e-10
-3.22876e-09
-1.37963e-09
6.33127e-10
3.30016e-09
1.08372e-09
-3.32654e-09
-1.41681e-09
4.33476e-09
-2.07331e-09
9.55854e-10
1.75063e-09
-9.57806e-10
2.15313e-11
-2.39021e-09
2.27383e-09
3.28364e-10
-3.55994e-09
2.44543e-09
-3.40033e-09
5.48953e-10
-1.76806e-10
-2.25473e-09
-2.89133e-10
3.28226e-09
-7.38407e-10
-2.87519e-09
-8.16363e-12
6.28596e-10
1.15447e-09
-1.71627e-09
1.51771e-09
-2.31493e-09
3.1803e-09
-1.01486e-09
2.85657e-09
-1.82007e-09
2.0892e-09
-2.77566e-09
-6.71112e-10
-2.22793e-09
5.84164e-10
-2.33411e-09
-5.3245e-11
2.18932e-09
1.58433e-09
-1.68441e-09
-3.72548e-10
3.3409e-10
-3.91057e-10
-2.00802e-10
-4.33739e-09
-6.21425e-09
4.68938e-09
5.86226e-09
-4.28397e-09
-1.72576e-10
1.19144e-10
8.32727e-09
-6.19645e-10
-1.0457e-08
2.74936e-09
-1.04669e-08
4.92656e-09
1.38676e-08
-8.28513e-09
1.45123e-09
-6.22792e-09
-6.34117e-09
-1.4599e-08
-5.14493e-09
9.27704e-09
-1.46001e-08
-1.04559e-08
5.66018e-09
1.48599e-10
-4.90227e-09
-9.065e-10
-5.08507e-09
8.03803e-10
9.94145e-09
-4.38268e-09
-5.53791e-10
1.04197e-08
9.63075e-09
-6.82666e-09
-1.74042e-08
2.32763e-09
2.1582e-09
-4.47335e-09
-8.18955e-11
2.95381e-09
-1.60084e-08
-6.44421e-09
3.86958e-09
-7.96375e-09
-2.13756e-09
9.33262e-09
-2.53563e-09
-4.65942e-09
-6.68249e-09
1.28042e-08
-8.25929e-09
-6.71388e-09
-1.47214e-08
-7.8625e-09
5.39808e-09
1.1797e-08
3.13834e-11
7.80245e-09
1.11694e-09
-2.67256e-09
-6.24682e-09
8.20939e-09
1.03224e-08
6.02665e-10
-1.51882e-08
7.87163e-09
4.14499e-09
-6.07795e-09
-1.09357e-08
6.18655e-09
-6.68315e-09
1.14323e-08
-5.12314e-09
-4.69559e-09
-4.44589e-09
-7.24713e-10
1.338e-08
1.09307e-08
-5.64356e-09
-3.62455e-09
9.08638e-09
-1.96323e-08
5.58203e-09
7.36713e-09
-2.27222e-08
-1.2121e-08
1.52109e-08
-1.04345e-08
-1.74109e-08
-4.60612e-09
6.56361e-09
1.31073e-08
-1.93967e-08
3.23253e-09
-2.24627e-09
9.84957e-10
-2.35855e-09
-1.08015e-09
-4.22647e-09
5.71605e-09
-4.09413e-10
-7.7497e-09
-2.32609e-09
-3.44338e-09
3.45074e-09
-4.23382e-09
-1.2758e-08
8.55071e-10
9.52795e-10
7.7006e-09
-6.4405e-09
1.29113e-09
-2.35691e-09
6.60072e-09
1.68512e-09
-5.92892e-09
5.31525e-09
-2.25216e-11
-7.64962e-09
2.38977e-09
3.94352e-09
2.67461e-10
8.90704e-09
-1.28125e-09
-5.94066e-09
4.56918e-09
5.47841e-09
-4.73232e-09
6.52161e-09
4.37356e-10
9.55418e-09
-2.0205e-09
1.37339e-09
-3.37296e-09
1.08387e-08
-8.74694e-09
2.77038e-09
9.89466e-09
-3.11086e-09
6.46991e-09
2.43995e-10
2.86545e-10
9.77318e-09
-4.58131e-09
-6.64514e-09
1.29732e-08
-6.04145e-09
-7.0028e-09
1.29188e-08
-1.25612e-08
-1.03983e-08
5.12377e-10
9.62997e-09
2.77652e-09
1.00504e-08
3.43512e-09
-2.44343e-09
9.67083e-09
2.5458e-09
4.19753e-09
-1.19353e-10
9.49129e-09
-6.73125e-10
1.82029e-09
2.22807e-10
1.57743e-09
-1.8493e-09
4.99446e-10
1.14003e-08
-1.97481e-09
9.75551e-09
-1.4938e-09
1.16641e-08
7.7393e-09
-3.65146e-09
-6.27183e-09
1.25666e-08
-2.64331e-09
3.08335e-09
-6.7842e-09
-3.24027e-09
6.94112e-09
-3.00516e-09
5.41799e-09
6.70505e-10
-5.4683e-09
-6.8627e-09
8.67953e-09
-1.86617e-09
-4.19101e-09
5.88904e-10
-3.44545e-09
-8.19359e-09
5.36718e-09
-8.6314e-09
7.94911e-10
4.39105e-09
-5.39855e-09
5.2721e-10
-4.62625e-09
2.08253e-10
-2.44468e-09
-3.47361e-09
-5.34366e-09
-6.48883e-10
-5.25288e-09
-2.72961e-09
-3.03841e-09
-4.39468e-09
7.95958e-09
-5.0152e-09
-7.31115e-09
4.36679e-09
4.39389e-09
-2.11301e-09
-7.53377e-09
-3.59144e-09
2.37296e-09
-5.26409e-09
1.18523e-09
1.02322e-08
-6.15334e-09
2.03005e-10
-1.24172e-08
6.95012e-09
3.98041e-09
-8.27876e-09
9.14479e-10
3.38389e-09
-8.12916e-09
3.07891e-09
9.03066e-09
-4.86769e-09
1.00765e-08
-4.02357e-09
-4.25048e-09
1.05892e-08
-1.12065e-08
4.57386e-09
-8.62134e-09
-5.80823e-09
-6.79193e-09
-3.85478e-09
-1.03371e-08
2.17984e-09
-7.67246e-09
1.58297e-08
-9.35138e-09
-1.58569e-09
5.99998e-10
4.23103e-09
-7.75077e-09
4.43421e-09
9.48978e-09
-1.97168e-09
3.20954e-09
3.54029e-10
8.72663e-09
-4.13806e-09
-1.47095e-11
4.12163e-09
1.49965e-09
-1.24132e-08
8.37139e-09
-1.23046e-09
4.82057e-09
1.7475e-09
-1.15966e-08
1.96785e-09
7.88124e-09
-1.12351e-08
2.77943e-09
1.02032e-08
-5.13258e-11
-5.606e-09
-5.93924e-09
-5.81489e-09
-5.47154e-09
4.07051e-09
-9.7053e-09
-1.80089e-10
-7.89465e-09
2.68931e-10
1.04052e-08
-8.30029e-09
-8.55426e-11
4.91207e-10
2.21493e-09
-6.4447e-09
3.79052e-09
9.78306e-09
-1.16057e-08
9.87647e-09
-1.08912e-08
9.29254e-10
1.39359e-08
-4.48376e-09
-4.19251e-09
-4.44177e-09
-2.0419e-09
2.13796e-09
4.3457e-09
-5.55988e-09
-6.62427e-09
7.74238e-09
-9.09487e-09
5.50098e-09
1.55208e-09
-9.67816e-09
-6.54848e-10
4.77318e-09
-5.93623e-09
2.87992e-09
-6.03847e-09
-1.07111e-08
-1.84938e-09
9.26056e-10
-6.83529e-09
-4.80178e-09
-3.85379e-09
-4.89828e-09
-5.20224e-09
4.87128e-09
-1.4014e-08
1.43449e-08
-1.21618e-08
6.30467e-09
4.66514e-09
-8.09794e-09
8.93378e-09
1.16744e-08
8.2426e-09
-9.95259e-09
-2.14377e-09
-1.36566e-08
7.87965e-10
-1.14537e-09
-1.75757e-08
7.9061e-11
-7.38899e-09
1.23897e-08
-1.80463e-09
-1.20325e-08
1.44737e-09
3.77165e-09
-4.2768e-09
1.28949e-08
1.05242e-08
-1.17862e-08
-5.42551e-10
-2.08331e-09
1.63792e-08
-1.34006e-08
6.73733e-09
-5.36919e-09
2.8023e-09
1.03414e-08
-4.0979e-09
-9.04572e-09
-2.44731e-09
-8.15095e-09
-1.44964e-08
7.14218e-10
9.5054e-09
-8.12197e-09
3.6286e-10
-4.86523e-09
3.42039e-09
-1.27691e-08
5.62269e-09
2.28117e-09
-7.79195e-09
1.54989e-08
-2.0476e-08
2.54302e-09
-1.44328e-08
1.11945e-08
-1.10988e-08
5.07405e-09
-1.47935e-08
1.04337e-08
-1.25707e-08
1.55614e-08
2.13015e-08
-5.26759e-10
-5.27588e-09
1.43535e-08
1.17343e-08
-8.66179e-09
-3.58594e-09
-1.39071e-08
-1.31625e-08
7.50518e-09
-1.36074e-08
1.11393e-08
-1.1439e-08
5.82899e-09
-1.3598e-08
-4.28996e-09
1.2059e-08
1.12823e-08
-4.51362e-09
-2.03761e-08
1.97028e-09
-3.8505e-09
-5.59616e-09
1.13624e-08
-3.79597e-09
1.31264e-08
-8.27466e-09
-1.0448e-08
-2.41711e-09
-1.15336e-08
1.08428e-08
2.26749e-09
-6.74655e-10
7.0362e-09
-1.98245e-08
1.26262e-08
-1.9188e-08
7.32818e-10
1.41609e-08
-9.13239e-09
8.43475e-09
1.75516e-09
-1.05752e-09
-4.20181e-09
-4.16891e-09
-7.61652e-10
-5.44097e-09
-5.31849e-09
6.55765e-09
-7.60626e-10
5.36126e-09
4.40944e-09
-9.01007e-09
4.96361e-09
-1.11652e-08
7.14174e-09
-5.94938e-09
-2.07055e-09
7.81505e-09
-1.33505e-09
7.413e-09
-4.51993e-09
2.30006e-09
9.51857e-09
-4.40563e-09
9.06059e-09
-1.30292e-09
-5.45761e-09
8.74865e-09
7.22679e-09
-6.45687e-09
7.12181e-09
-1.42562e-09
3.05247e-09
-3.60396e-09
7.49384e-09
3.25187e-09
-1.11692e-08
1.35866e-08
4.7045e-09
-5.45007e-09
1.50762e-09
-1.23898e-09
4.95955e-09
2.67543e-09
8.32853e-10
1.16792e-09
5.49308e-09
6.24754e-09
3.02006e-09
8.45507e-09
2.75202e-09
-8.96926e-09
6.98113e-09
-1.21658e-08
-9.02172e-09
-5.87536e-09
-1.46226e-08
4.87536e-09
7.37158e-10
1.1858e-08
-5.9313e-10
-6.67263e-09
-4.59221e-09
9.98368e-09
7.47589e-09
-5.60157e-09
-5.8736e-09
-9.51625e-09
1.40548e-08
1.66868e-08
-3.45125e-09
-7.58809e-09
-5.68374e-09
1.26787e-08
-3.01092e-09
7.99215e-09
-5.26649e-09
-9.08999e-10
4.77405e-09
-6.87597e-09
-8.59652e-09
4.0915e-09
3.7149e-09
4.73678e-09
-2.59564e-09
-4.42593e-09
-6.22593e-10
5.64129e-09
-3.46285e-09
5.72526e-09
1.28016e-09
3.17691e-09
2.62467e-09
-7.0819e-09
-4.51898e-09
-5.68651e-09
1.18677e-08
-1.66223e-09
-4.5391e-09
1.00153e-08
-9.99529e-09
1.50994e-09
-4.76891e-09
5.97295e-10
-7.97669e-09
1.14505e-09
6.23432e-09
-7.19496e-09
2.10578e-09
-9.76851e-09
-2.62145e-09
7.96527e-09
4.42471e-09
-8.92881e-10
1.96321e-10
7.35366e-09
1.99279e-09
3.89203e-10
2.371e-10
1.72333e-09
-1.44044e-09
-3.98467e-09
3.22659e-09
2.19846e-09
-3.28507e-09
-1.43694e-10
1.98827e-09
-1.17276e-09
4.8821e-10
-4.39976e-09
-5.80393e-11
3.64249e-09
1.25349e-09
-2.06983e-10
-6.5389e-09
2.27709e-09
4.1181e-09
2.90724e-09
-4.79629e-09
-8.78019e-11
3.21012e-09
1.6739e-09
5.68215e-09
-5.27974e-09
-5.1987e-09
4.15758e-09
1.35389e-09
5.49023e-09
9.4444e-10
-7.88189e-09
6.91237e-09
4.17964e-09
-1.33745e-09
-8.62318e-10
-6.11759e-09
1.17412e-08
8.28838e-09
-6.52271e-09
1.40276e-08
6.86496e-09
-9.15139e-09
6.09052e-09
1.77202e-08
-1.30439e-08
-7.41148e-09
6.37039e-09
1.4085e-08
3.12427e-09
-7.87982e-09
9.8827e-09
-1.07027e-08
1.93676e-08
1.04821e-08
-1.9967e-08
6.00488e-09
1.72176e-08
-3.85491e-09
-2.37458e-08
3.62663e-10
1.59717e-08
-1.01394e-08
-2.79599e-09
1.52569e-08
1.0402e-08
3.48415e-09
4.83338e-09
1.27469e-08
1.24394e-08
4.94999e-09
-5.18694e-09
1.18978e-09
-2.70423e-09
-1.21555e-09
-1.0109e-08
2.83727e-09
-4.58764e-09
-3.43654e-09
-5.93388e-10
7.2647e-10
-1.46636e-09
-3.53069e-09
5.91602e-10
-7.13703e-09
3.97313e-09
-4.84787e-09
1.10565e-09
4.04431e-09
-5.93248e-10
-1.14182e-08
7.96715e-09
2.60914e-09
-1.11572e-08
1.25924e-08
-2.63291e-09
1.33909e-08
-8.14886e-09
-4.47491e-09
-1.11627e-08
1.30048e-08
-1.40162e-08
8.94802e-09
8.33022e-09
-1.2775e-08
-1.5949e-11
4.46077e-09
-1.30405e-08
1.0208e-08
3.76613e-09
-1.05418e-08
-4.64244e-09
-4.6337e-11
-7.34471e-09
4.71124e-09
-6.00135e-09
-6.71304e-09
8.00314e-09
8.48824e-09
-2.10836e-09
-1.66864e-09
1.05736e-09
-9.23015e-09
-5.84336e-09
-7.09362e-09
-4.88955e-09
-6.49574e-09
-1.33729e-08
-5.60709e-09
-1.41649e-08
4.62995e-10
6.61805e-09
1.40722e-09
-3.82544e-09
-4.77866e-09
-1.54339e-08
-4.5145e-09
2.24721e-09
-9.51941e-09
1.17867e-08
8.95805e-10
-1.00572e-08
4.64696e-09
-2.78538e-09
-6.17151e-09
1.12041e-08
-6.66904e-09
4.77958e-09
1.6652e-09
-9.41448e-09
-2.30798e-09
-1.48162e-10
-7.70607e-09
7.7835e-10
-6.42959e-09
-1.01779e-09
1.84327e-09
9.5453e-09
-1.21299e-10
-4.90214e-10
1.18052e-08
6.81042e-09
-6.92015e-09
-1.14987e-11
-4.86229e-09
5.24314e-09
-1.29296e-08
1.21386e-08
3.76259e-09
-9.13057e-09
-3.57749e-09
9.31512e-09
-1.1697e-08
1.27e-09
1.11194e-09
3.4556e-09
9.6012e-09
-3.74166e-09
-6.06488e-09
-5.63684e-09
5.23393e-09
6.46779e-09
-4.23062e-09
-1.98668e-09
1.52414e-10
-1.12217e-08
8.42056e-09
-8.89589e-09
5.97599e-09
-6.65989e-09
1.95391e-09
6.73981e-10
8.7576e-09
-5.54949e-09
2.88852e-09
-2.89797e-09
5.55894e-09
-4.01967e-09
-1.60689e-09
7.70746e-11
1.09322e-09
-1.8237e-09
-3.50015e-09
-1.10954e-09
-3.43407e-09
-5.98998e-09
-1.63618e-11
8.79643e-09
-6.55376e-09
3.4653e-09
1.90503e-10
-6.66751e-09
-1.49313e-09
-2.64993e-09
-5.16374e-09
-4.41896e-09
-3.35044e-09
-8.67621e-09
-6.41228e-10
6.36692e-11
4.55098e-09
-9.04718e-09
4.43255e-09
5.36388e-09
-1.12153e-08
5.91512e-09
-8.07682e-09
4.98877e-09
-4.66416e-09
7.75227e-09
3.02538e-09
-1.51336e-09
-9.58875e-09
-4.57462e-10
-7.02398e-09
1.28453e-08
9.0823e-09
3.27652e-10
-3.94582e-09
-6.94181e-09
1.51472e-08
-6.23603e-09
-3.26131e-09
7.96076e-09
2.52232e-09
2.02015e-09
-9.76945e-09
1.5282e-08
-6.28971e-09
1.62188e-08
1.80358e-08
-4.83358e-09
-5.32732e-09
-7.87485e-09
6.82566e-09
4.41199e-09
6.79812e-09
6.44754e-09
1.03906e-08
-1.00125e-08
-1.22484e-08
7.15069e-09
9.50969e-09
-9.9104e-09
-7.17155e-09
-7.02267e-09
-1.08678e-08
1.25631e-08
-1.23055e-09
1.24987e-08
-9.46858e-09
5.79779e-09
1.17179e-08
1.22552e-08
2.12641e-08
4.53359e-09
2.15963e-08
-1.38747e-08
-1.08789e-08
2.55617e-08
1.91975e-08
4.34273e-09
8.01048e-09
-8.64859e-09
-3.70465e-09
9.58076e-09
-7.93988e-09
2.70187e-09
-8.34554e-09
-1.285e-09
4.40955e-11
9.58641e-09
9.62107e-10
-1.29718e-09
-9.64744e-10
9.26052e-09
-1.42417e-09
-8.49534e-09
1.97965e-09
1.45489e-09
-1.15276e-08
8.09641e-09
5.44825e-09
-4.78031e-09
-8.76433e-09
2.99862e-10
6.53291e-09
-5.59647e-09
2.56569e-11
-1.0318e-09
7.6088e-09
-7.7368e-09
1.34585e-09
6.69081e-09
-2.44742e-09
1.58869e-10
-5.48819e-09
1.34661e-09
6.08524e-09
-1.72956e-09
-6.80309e-09
6.3993e-09
-1.06099e-08
1.13139e-09
-6.21541e-10
1.01001e-08
-5.05035e-09
-5.03149e-09
-5.2809e-10
-9.63269e-09
-4.78033e-10
1.12421e-08
-1.06574e-08
-3.35686e-09
4.38156e-09
-4.75986e-09
-9.00348e-09
3.10599e-09
-8.79481e-09
-1.01541e-09
-1.47766e-08
1.53134e-09
1.26238e-08
-1.15434e-08
-8.26467e-09
-9.24498e-09
-3.0147e-09
1.17817e-08
-1.3763e-08
1.16118e-09
1.18816e-08
2.88134e-09
2.01368e-09
5.00231e-09
3.75863e-09
-1.5906e-08
1.44226e-08
-1.24046e-08
3.6439e-09
3.34336e-09
1.58501e-10
-7.94327e-09
-1.24041e-08
-1.29683e-08
-1.79522e-09
3.50591e-09
1.12576e-08
-2.70091e-09
-4.72295e-09
-5.54448e-09
5.64973e-09
-4.62402e-09
-3.72661e-09
3.65657e-09
-5.49003e-09
7.99607e-09
-6.16262e-09
-6.84393e-10
5.54375e-09
-1.20278e-09
1.76206e-09
2.29367e-09
1.98282e-09
-6.03854e-09
6.41335e-09
-1.01413e-08
-9.99322e-09
1.49901e-09
6.69905e-09
-8.30283e-09
-7.0629e-09
1.02486e-08
3.20229e-10
-3.46203e-09
2.04888e-09
1.94021e-09
-4.27055e-09
2.89017e-09
-1.59175e-09
4.78914e-09
4.70597e-09
7.29858e-09
3.0343e-09
-1.89995e-10
-1.33184e-09
3.70619e-09
-3.14171e-09
-7.54408e-10
-4.93901e-09
4.57428e-09
4.07095e-09
-5.19054e-09
-1.23182e-08
-3.79813e-09
1.62799e-09
1.44884e-08
-5.77067e-09
5.4168e-09
-1.19643e-08
-1.08062e-08
9.44783e-09
-2.4398e-09
1.11516e-11
-1.6588e-08
4.22623e-09
-1.73765e-09
7.55367e-09
-1.00422e-08
-7.20063e-09
-1.04066e-09
1.24675e-08
-2.62816e-09
4.06715e-09
-7.08324e-09
5.64425e-09
4.30175e-09
-8.66756e-09
-7.34785e-12
6.32546e-09
2.09571e-09
-8.41383e-09
4.76972e-09
-1.36182e-08
8.85966e-09
4.41897e-09
-4.979e-09
5.32976e-09
6.43122e-10
-4.30382e-09
9.0775e-09
-7.19859e-09
4.08729e-09
-4.08933e-09
2.24189e-09
-6.24453e-09
6.38144e-09
6.18855e-09
2.13161e-09
-8.16905e-09
-2.07084e-10
9.40794e-09
-4.88382e-09
-6.78038e-11
-3.87259e-09
-4.03614e-09
8.55186e-09
-6.91599e-09
7.46237e-09
3.96747e-09
-6.54577e-09
-5.69889e-09
8.27719e-09
-4.91143e-10
4.90384e-09
-4.45222e-10
9.89812e-10
-8.42612e-10
7.37676e-09
-7.52397e-09
-5.70339e-09
-8.83109e-11
6.78151e-09
-3.25137e-09
1.19452e-09
-3.64652e-09
-5.72531e-09
4.21428e-09
1.24828e-09
2.62604e-10
-3.58201e-09
-2.67762e-09
5.34333e-10
1.47593e-09
-3.59415e-09
-1.46379e-09
-1.44475e-09
3.11617e-09
-1.95527e-10
3.67273e-09
-6.84461e-10
-3.02906e-09
4.07876e-11
2.05234e-10
-1.60217e-09
-2.19729e-09
4.9094e-10
1.09972e-09
2.08208e-09
9.23264e-10
-1.98394e-09
-3.84105e-10
3.0141e-09
-6.21537e-09
-5.00726e-11
-7.78076e-10
3.70384e-09
-4.28439e-09
3.29464e-09
-1.68788e-09
-2.3723e-09
-1.70679e-09
1.57272e-09
-3.45406e-09
1.78802e-09
1.32564e-09
-2.01396e-09
3.07128e-09
-3.59994e-10
-2.39189e-10
-4.98095e-09
-2.86171e-09
2.62016e-09
-6.01086e-10
-2.81569e-10
4.82472e-09
-1.97848e-10
-4.12607e-10
3.76482e-09
-4.88184e-09
6.82672e-09
-6.81311e-09
1.17267e-09
-1.18628e-09
-2.70927e-09
2.23461e-09
7.30135e-09
-8.28187e-09
-1.52641e-09
7.09902e-09
-4.29399e-09
1.34383e-09
-5.33171e-09
-3.81192e-09
-7.29518e-09
-4.78855e-09
-1.10697e-10
7.13386e-09
-3.77874e-09
1.62867e-10
1.56417e-08
-5.94303e-09
-8.35481e-09
2.28331e-09
1.1832e-08
-9.93864e-09
2.65855e-09
9.5634e-09
1.41087e-09
-1.01328e-08
-1.21668e-09
2.18267e-09
3.62157e-09
1.00293e-09
-6.80713e-09
1.77752e-09
-3.40676e-09
5.40914e-09
-1.00371e-11
-8.91942e-09
6.38148e-09
-5.09764e-09
7.63559e-09
-6.87891e-09
-6.29632e-10
-5.19939e-09
-1.08765e-08
8.92933e-09
1.41144e-09
2.18965e-10
3.87257e-09
-6.30462e-09
-4.44686e-09
1.86371e-10
-1.05011e-08
-1.19881e-08
1.37084e-08
-1.69551e-09
-2.47812e-11
7.03351e-09
6.39223e-09
-1.68455e-08
3.41976e-09
1.05635e-08
-1.55181e-08
5.79252e-09
1.01671e-08
-9.56738e-09
2.15942e-08
-5.23823e-09
9.47938e-09
6.44237e-09
-4.27004e-09
-1.16517e-08
1.76769e-09
7.9857e-09
3.95496e-09
1.47158e-08
1.52054e-08
-8.32688e-09
8.04497e-09
3.20209e-09
-4.71087e-09
1.05393e-08