/*--------------------------------*- C++ -*----------------------------------*\
| =========                 |                                                 |
| \\      /  F ield         | OpenFOAM: The Open Source CFD Toolbox           |
|  \\    /   O peration     | Version:  v1612+                                |
|   \\  /    A nd           | Web:      www.OpenFOAM.com                      |
|    \\/     M anipulation  |                                                 |
\*---------------------------------------------------------------------------*/
FoamFile
{
    version     2.0;
    format      ascii;
    class       volVectorField;
    location    "50";
    object      U;
}
// * * * * * * * * * * * * * * * * * * * * * * * * * * * * * * * * * * * * * //

dimensions      [0 1 -1 0 0 0 0];

internalField   nonuniform List<vector> 
16798
(
(-0.356314 0.43358 -0.807054)
(-0.213867 0.24061 -0.460148)
(-0.24375 0.269684 -0.516771)
(-0.225951 0.264195 -0.484397)
(-0.261965 0.301067 -0.567239)
(-0.250718 0.285459 -0.530953)
(-0.239072 0.276111 -0.511785)
(-0.261333 0.295976 -0.560662)
(-0.310734 0.360931 -0.661525)
(-0.243744 0.262397 -0.52177)
(-0.237777 0.258991 -0.502883)
(-0.310214 0.353844 -0.652765)
(-0.300831 0.358502 -0.65239)
(-0.301726 0.362188 -0.659482)
(-0.338024 0.413964 -0.750458)
(-0.317694 0.3876 -0.713322)
(-0.362672 0.427716 -0.784885)
(-0.334469 0.398566 -0.728835)
(-0.309081 0.365941 -0.672052)
(-0.290315 0.34658 -0.629635)
(-0.315299 0.379238 -0.690734)
(-0.299162 0.358032 -0.655551)
(-0.31984 0.383776 -0.701405)
(-0.361848 0.436992 -0.798473)
(-0.328536 0.401796 -0.722306)
(-0.323709 0.3889 -0.713641)
(-0.333855 0.402901 -0.730424)
(-0.357078 0.431244 -0.786245)
(-0.375263 0.447392 -0.817133)
(-0.372862 0.448328 -0.818113)
(-0.330264 0.395632 -0.725694)
(-0.331778 0.39537 -0.740602)
(-0.277569 0.33679 -0.63885)
(-0.33831 0.408853 -0.769089)
(-0.31751 0.382828 -0.72381)
(-0.294215 0.352017 -0.66724)
(-0.282446 0.344549 -0.659702)
(-0.375842 0.445819 -0.84683)
(-0.369032 0.446954 -0.828362)
(-0.333912 0.369881 -0.71253)
(-0.262263 0.344475 -0.638594)
(-0.317573 0.379082 -0.721813)
(-0.290825 0.350538 -0.663027)
(-0.374231 0.437566 -0.855255)
(-0.376164 0.443262 -0.840956)
(-0.289796 0.348605 -0.663287)
(-0.282211 0.34643 -0.645796)
(-0.375554 0.44859 -0.863995)
(-0.28388 0.336686 -0.614891)
(-0.244897 0.289146 -0.537901)
(-0.249979 0.300741 -0.558186)
(-0.230001 0.268942 -0.498827)
(-0.23813 0.283443 -0.532387)
(-0.213264 0.251091 -0.46231)
(-0.324322 0.399642 -0.721587)
(-0.327767 0.402349 -0.729615)
(-0.257235 0.3165 -0.577703)
(-0.316317 0.393774 -0.717945)
(-0.324942 0.391744 -0.706583)
(-0.253792 0.314293 -0.578715)
(-0.269081 0.321965 -0.593012)
(-0.245139 0.300226 -0.548182)
(-0.222661 0.275532 -0.504734)
(-0.241431 0.299351 -0.538393)
(-0.231479 0.278306 -0.501897)
(-0.231325 0.280726 -0.517042)
(-0.304358 0.385597 -0.695716)
(-0.256354 0.321221 -0.572064)
(-0.31078 0.386221 -0.68902)
(-0.320559 0.399562 -0.717445)
(-0.261081 0.310004 -0.564445)
(-0.255092 0.319765 -0.568172)
(-0.234192 0.292219 -0.522908)
(-0.224349 0.282693 -0.505876)
(-0.234811 0.294635 -0.543026)
(-0.215222 0.269617 -0.50208)
(-0.227335 0.289283 -0.524065)
(-0.207186 0.261516 -0.483704)
(-0.22633 0.28711 -0.535158)
(-0.247 0.322002 -0.586974)
(-0.280713 0.335356 -0.63159)
(-0.270526 0.344465 -0.637615)
(-0.19626 0.246488 -0.44726)
(-0.212217 0.263081 -0.479784)
(-0.265643 0.32117 -0.609507)
(-0.272133 0.345528 -0.636975)
(-0.264017 0.318761 -0.611801)
(-0.25334 0.322965 -0.612181)
(-0.193511 0.249689 -0.448822)
(-0.216892 0.270439 -0.509019)
(-0.225421 0.278513 -0.521376)
(-0.201029 0.259652 -0.479733)
(-0.313092 0.383457 -0.691442)
(-0.314433 0.389609 -0.703452)
(-0.337645 0.407102 -0.738495)
(-0.311061 0.377841 -0.682877)
(-0.357417 0.433004 -0.794264)
(-0.328903 0.393744 -0.721587)
(-0.256779 0.306633 -0.569596)
(-0.347006 0.418791 -0.771728)
(-0.318243 0.385257 -0.702294)
(-0.353717 0.422569 -0.784956)
(-0.306151 0.370492 -0.683965)
(-0.286604 0.348405 -0.642245)
(-0.239291 0.277789 -0.522512)
(-0.261849 0.307413 -0.572094)
(-0.280315 0.3399 -0.645768)
(-0.273926 0.332152 -0.630761)
(-0.254686 0.290915 -0.555528)
(-0.231429 0.28232 -0.52533)
(-0.215984 0.249867 -0.477459)
(-0.228752 0.273806 -0.517708)
(-0.227163 0.282949 -0.505403)
(-0.291672 0.355793 -0.662638)
(-0.294277 0.356099 -0.666642)
(-0.251966 0.295267 -0.557802)
(-0.256749 0.306976 -0.576389)
(-0.210981 0.246348 -0.470105)
(-0.304634 0.37748 -0.699049)
(-0.253183 0.311054 -0.582811)
(-0.234251 0.285118 -0.532719)
(-0.266073 0.316725 -0.602876)
(-0.295477 0.36441 -0.672387)
(-0.333627 0.424458 -0.771094)
(-0.397715 0.497902 -0.912802)
(-0.382921 0.460988 -0.858936)
(-0.340477 0.425287 -0.793946)
(-0.297038 0.369909 -0.683478)
(-0.296635 0.358103 -0.674593)
(-0.307898 0.393951 -0.702777)
(-0.333085 0.422531 -0.783701)
(-0.334218 0.409051 -0.763264)
(-0.376919 0.458442 -0.856007)
(-0.378039 0.487066 -0.883791)
(-0.372279 0.480083 -0.877443)
(-0.336527 0.416629 -0.781424)
(-0.353135 0.445048 -0.816672)
(-0.309409 0.374988 -0.70563)
(-0.292658 0.355084 -0.673946)
(-0.380707 0.485481 -0.874104)
(-0.39779 0.500713 -0.913799)
(-0.372334 0.467 -0.84241)
(-0.455551 0.560992 -1.02426)
(-0.427225 0.510471 -0.947908)
(-0.441178 0.537018 -0.98747)
(-0.451494 0.535431 -0.994501)
(-0.43056 0.514529 -0.94512)
(-0.462575 0.557985 -1.03313)
(-0.482972 0.573359 -1.07602)
(-0.419837 0.509051 -0.941923)
(-0.435753 0.527018 -0.97549)
(-0.467807 0.570471 -1.05351)
(-0.407961 0.493053 -0.905093)
(-0.409859 0.492704 -0.907774)
(-0.459762 0.554364 -1.03217)
(-0.466194 0.564585 -1.04826)
(-0.463375 0.556481 -1.03468)
(-0.46953 0.567114 -1.06107)
(-0.437098 0.527571 -0.97321)
(-0.414412 0.498768 -0.915356)
(-0.454505 0.569763 -1.0468)
(-0.449681 0.561886 -1.03451)
(-0.425303 0.533601 -0.9876)
(-0.419037 0.521505 -0.952405)
(-0.405203 0.513334 -0.939925)
(-0.372461 0.467634 -0.854651)
(-0.385623 0.494868 -0.90788)
(-0.411175 0.511164 -0.937333)
(-0.372117 0.461577 -0.848403)
(-0.394262 0.489492 -0.91846)
(-0.398537 0.492934 -0.919978)
(-0.398464 0.487026 -0.911412)
(-0.399887 0.505459 -0.926154)
(-0.399055 0.496158 -0.904487)
(-0.370999 0.477725 -0.863275)
(-0.476925 0.577017 -1.07542)
(-0.480905 0.580458 -1.08785)
(-0.451701 0.545227 -0.994192)
(-0.461907 0.566609 -1.03011)
(-0.468914 0.561837 -1.04575)
(-0.480479 0.574882 -1.07166)
(-0.482326 0.579285 -1.07649)
(-0.475154 0.57746 -1.06286)
(-0.480382 0.57502 -1.07048)
(-0.494731 0.603879 -1.1054)
(-0.455905 0.545436 -0.985703)
(-0.433828 0.539405 -0.947779)
(-0.402875 0.514653 -0.919815)
(-0.406892 0.528046 -0.910919)
(-0.43869 0.542405 -0.986429)
(-0.406332 0.506654 -0.920111)
(-0.418015 0.523096 -0.942448)
(-0.396089 0.500516 -0.90366)
(-0.413044 0.524481 -0.916307)
(-0.4148 0.504966 -0.88766)
(-0.417965 0.526957 -0.92972)
(-0.429512 0.545546 -0.96897)
(-0.352662 0.448311 -0.781016)
(-0.37976 0.479965 -0.836432)
(-0.450938 0.557765 -1.00335)
(-0.449333 0.549513 -0.990754)
(-0.435825 0.54723 -0.985712)
(-0.424655 0.517089 -0.9465)
(-0.446685 0.549754 -0.994194)
(-0.425308 0.523158 -0.910583)
(-0.337389 0.44102 -0.789041)
(-0.384435 0.479043 -0.839992)
(-0.38412 0.481642 -0.901119)
(-0.340054 0.421066 -0.788166)
(-0.33115 0.410692 -0.763157)
(-0.417202 0.524452 -0.973319)
(-0.419628 0.536802 -0.98489)
(-0.36074 0.457356 -0.850215)
(-0.416013 0.516278 -0.971673)
(-0.398955 0.507981 -0.94806)
(-0.369879 0.465034 -0.864973)
(-0.341562 0.427716 -0.801469)
(-0.407805 0.50559 -0.958848)
(-0.404704 0.511615 -0.945041)
(-0.435808 0.530911 -0.991327)
(-0.340978 0.420122 -0.787673)
(-0.337286 0.417218 -0.783506)
(-0.346045 0.428733 -0.800154)
(-0.332131 0.418835 -0.780917)
(-0.364497 0.459673 -0.85349)
(-0.475817 0.557555 -1.05577)
(-0.479908 0.565775 -1.0692)
(-0.471219 0.567762 -1.06852)
(-0.459735 0.545175 -1.04465)
(-0.465497 0.559095 -1.04181)
(-0.469213 0.567729 -1.05132)
(-0.503988 0.582144 -1.1185)
(-0.506581 0.586024 -1.13035)
(-0.467632 0.563007 -1.06507)
(-0.451964 0.546487 -1.0253)
(-0.495606 0.577716 -1.102)
(-0.47401 0.558601 -1.05768)
(-0.485432 0.580476 -1.09365)
(-0.483494 0.578211 -1.08778)
(-0.375232 0.47306 -0.882408)
(-0.403052 0.498621 -0.930056)
(-0.423674 0.527242 -0.98138)
(-0.378942 0.474241 -0.888493)
(-0.419472 0.532464 -0.986585)
(-0.40846 0.502161 -0.951757)
(-0.427522 0.537479 -1.0005)
(-0.378017 0.472296 -0.878751)
(-0.376883 0.467442 -0.88706)
(-0.365202 0.45222 -0.859948)
(-0.402973 0.49771 -0.939713)
(-0.382663 0.46975 -0.886341)
(-0.420659 0.52924 -0.988625)
(-0.403759 0.49676 -0.935261)
(-0.430837 0.536278 -1.00272)
(-0.330244 0.402409 -0.731807)
(-0.342327 0.403483 -0.741329)
(-0.410189 0.490558 -0.903144)
(-0.346802 0.41603 -0.739754)
(-0.380894 0.442578 -0.820277)
(-0.369471 0.438418 -0.796017)
(-0.399723 0.473437 -0.879722)
(-0.396451 0.466427 -0.844281)
(-0.377289 0.446056 -0.821745)
(-0.417725 0.489852 -0.893088)
(-0.450235 0.527563 -0.950816)
(-0.406849 0.477743 -0.881781)
(-0.401152 0.477095 -0.86275)
(-0.374864 0.453372 -0.823365)
(-0.376952 0.443481 -0.810334)
(-0.448465 0.52238 -0.949342)
(-0.41339 0.486609 -0.875827)
(-0.399679 0.486613 -0.870831)
(-0.426124 0.511182 -0.924832)
(-0.380589 0.448447 -0.816199)
(-0.416798 0.499409 -0.899783)
(-0.453034 0.536539 -0.980259)
(-0.440646 0.529732 -0.95498)
(-0.388313 0.471193 -0.835014)
(-0.448716 0.541576 -0.976561)
(-0.375277 0.465392 -0.847734)
(-0.412483 0.504627 -0.917661)
(-0.378177 0.469277 -0.850518)
(-0.367842 0.443007 -0.811)
(-0.438676 0.524113 -0.956322)
(-0.362819 0.440819 -0.799471)
(-0.373796 0.452946 -0.817916)
(-0.436986 0.534085 -0.990251)
(-0.433386 0.522556 -0.967694)
(-0.420196 0.507585 -0.933944)
(-0.434265 0.521914 -0.95665)
(-0.384052 0.466431 -0.854974)
(-0.404254 0.481456 -0.883294)
(-0.321178 0.381124 -0.690508)
(-0.326744 0.404443 -0.722302)
(-0.433133 0.535659 -0.970481)
(-0.386089 0.463984 -0.841957)
(-0.380741 0.466601 -0.840148)
(-0.368865 0.437796 -0.792373)
(-0.339097 0.421288 -0.750332)
(-0.350923 0.420749 -0.753695)
(-0.330992 0.412551 -0.732384)
(-0.336505 0.413939 -0.737058)
(-0.369519 0.46551 -0.831324)
(-0.359483 0.44618 -0.796562)
(-0.356503 0.443312 -0.784556)
(-0.388879 0.439688 -0.802758)
(-0.444706 0.532786 -0.97113)
(-0.504045 0.575821 -1.06432)
(-0.476653 0.550893 -1.01005)
(-0.475082 0.546861 -1.02364)
(-0.473127 0.546278 -1.01861)
(-0.398936 0.456286 -0.848783)
(-0.418988 0.483538 -0.885677)
(-0.432687 0.496696 -0.899633)
(-0.431384 0.504267 -0.931272)
(-0.396268 0.447398 -0.820866)
(-0.431403 0.49786 -0.914407)
(-0.477413 0.55014 -1.01685)
(-0.465191 0.542031 -0.999761)
(-0.383874 0.444401 -0.813398)
(-0.458931 0.537787 -0.987429)
(-0.412351 0.464175 -0.858346)
(-0.419164 0.47738 -0.88487)
(-0.458926 0.527354 -0.982277)
(-0.33874 0.393497 -0.725518)
(-0.326674 0.390123 -0.708442)
(-0.436312 0.485729 -0.929721)
(-0.409553 0.463659 -0.862135)
(-0.348404 0.400967 -0.722441)
(-0.333885 0.382327 -0.722216)
(-0.347179 0.400172 -0.744369)
(-0.437502 0.486915 -0.937386)
(-0.420947 0.473806 -0.910484)
(-0.402691 0.456093 -0.868856)
(-0.43157 0.490594 -0.918198)
(-0.384132 0.448082 -0.830266)
(-0.343043 0.406727 -0.728395)
(-0.351701 0.405536 -0.751146)
(-0.401282 0.466599 -0.873683)
(-0.393081 0.451162 -0.861553)
(-0.355815 0.424141 -0.768031)
(-0.369928 0.439173 -0.796936)
(-0.342011 0.403908 -0.753474)
(-0.342236 0.398738 -0.758709)
(-0.429046 0.51386 -0.926002)
(-0.411037 0.48275 -0.894052)
(-0.338236 0.395939 -0.753294)
(-0.393988 0.470978 -0.879701)
(-0.350444 0.421139 -0.776871)
(-0.311817 0.373759 -0.693925)
(-0.302141 0.361123 -0.670776)
(-0.288651 0.344525 -0.646557)
(-0.343295 0.403195 -0.768338)
(-0.321471 0.387951 -0.719426)
(-0.349975 0.417451 -0.775972)
(-0.35486 0.418065 -0.783508)
(-0.325856 0.390731 -0.743596)
(-0.324897 0.396096 -0.733091)
(-0.360521 0.429764 -0.794169)
(-0.301041 0.358246 -0.661165)
(-0.338823 0.405487 -0.749417)
(-0.31493 0.368457 -0.684685)
(-0.328821 0.396459 -0.736696)
(-0.31593 0.369743 -0.693185)
(-0.274684 0.315981 -0.596042)
(-0.331911 0.40231 -0.745702)
(-0.299698 0.356953 -0.658989)
(-0.288181 0.344741 -0.651118)
(-0.216791 0.271083 -0.492834)
(-0.237448 0.304328 -0.547599)
(-0.204968 0.260707 -0.472554)
(-0.190989 0.227568 -0.427266)
(-0.276096 0.342482 -0.633026)
(-0.27991 0.337313 -0.627326)
(-0.233801 0.290759 -0.531915)
(-0.217695 0.271413 -0.493829)
(-0.24263 0.296541 -0.545315)
(-0.225713 0.28322 -0.517362)
(-0.279724 0.340385 -0.622745)
(-0.275482 0.345729 -0.630444)
(-0.210843 0.256663 -0.476361)
(-0.203179 0.243188 -0.459558)
(-0.238287 0.292041 -0.533241)
(-0.214076 0.268248 -0.482015)
(-0.196442 0.248719 -0.450437)
(-0.211943 0.262152 -0.491395)
(-0.279389 0.343385 -0.635847)
(-0.354553 0.425168 -0.781623)
(-0.347016 0.414506 -0.761386)
(-0.299839 0.349607 -0.630947)
(-0.338171 0.398764 -0.729963)
(-0.299673 0.362413 -0.642737)
(-0.328363 0.404381 -0.727532)
(-0.347033 0.42088 -0.752847)
(-0.30825 0.37793 -0.694691)
(-0.28367 0.354269 -0.63856)
(-0.274353 0.334238 -0.582813)
(-0.30449 0.375381 -0.670548)
(-0.304715 0.360024 -0.667219)
(-0.265808 0.319865 -0.555507)
(-0.285156 0.332339 -0.601069)
(-0.2723 0.323218 -0.583136)
(-0.316413 0.38056 -0.695202)
(-0.290335 0.346027 -0.627615)
(-0.239899 0.305741 -0.54122)
(-0.226457 0.280082 -0.496872)
(-0.280078 0.341342 -0.598242)
(-0.274185 0.341129 -0.599837)
(-0.308044 0.379176 -0.670416)
(-0.299748 0.362902 -0.642582)
(-0.309147 0.38451 -0.693318)
(-0.320085 0.391746 -0.720868)
(-0.303662 0.369829 -0.668693)
(-0.21977 0.281082 -0.495956)
(-0.20186 0.251889 -0.458819)
(-0.211573 0.265412 -0.467472)
(-0.235198 0.293351 -0.528014)
(-0.295999 0.373464 -0.68053)
(-0.297465 0.364509 -0.665664)
(-0.309005 0.377443 -0.693718)
(-0.229667 0.285804 -0.504179)
(-0.217049 0.262395 -0.468856)
(-0.224412 0.289112 -0.511724)
(-0.217175 0.275706 -0.490298)
(-0.284998 0.357737 -0.65459)
(-0.218195 0.273204 -0.483929)
(-0.235982 0.296608 -0.528512)
(-0.232761 0.287331 -0.521271)
(-0.313633 0.377676 -0.717065)
(-0.297425 0.374114 -0.678407)
(-0.299064 0.375462 -0.686456)
(-0.269079 0.346544 -0.62431)
(-0.324331 0.400508 -0.731361)
(-0.296005 0.367114 -0.684843)
(-0.343502 0.427427 -0.809701)
(-0.296503 0.371203 -0.687945)
(-0.365848 0.457684 -0.858642)
(-0.324694 0.400494 -0.756933)
(-0.332858 0.415409 -0.778908)
(-0.31805 0.387394 -0.729635)
(-0.293312 0.361488 -0.681392)
(-0.332493 0.415246 -0.766338)
(-0.246834 0.302805 -0.560488)
(-0.305376 0.361848 -0.683076)
(-0.304454 0.371093 -0.691991)
(-0.263341 0.317844 -0.607394)
(-0.280402 0.337308 -0.63242)
(-0.337753 0.407293 -0.752215)
(-0.345311 0.422594 -0.777325)
(-0.295372 0.3359 -0.636812)
(-0.271582 0.329446 -0.622007)
(-0.272509 0.329335 -0.628429)
(-0.273241 0.327432 -0.620218)
(-0.29231 0.351755 -0.646963)
(-0.325853 0.396756 -0.731212)
(-0.338522 0.411149 -0.765161)
(-0.346603 0.412551 -0.769626)
(-0.28793 0.34716 -0.655122)
(-0.293075 0.34442 -0.65336)
(-0.293314 0.365512 -0.675773)
(-0.293999 0.355833 -0.660519)
(-0.304311 0.378537 -0.68679)
(-0.31132 0.386969 -0.714983)
(-0.255146 0.316846 -0.59657)
(-0.223768 0.279883 -0.504459)
(-0.302328 0.369003 -0.684237)
(-0.243512 0.305685 -0.565579)
(-0.262707 0.3144 -0.597221)
(-0.311388 0.378913 -0.696646)
(-0.227497 0.286377 -0.525354)
(-0.224395 0.267295 -0.478344)
(-0.240939 0.293043 -0.548813)
(-0.235087 0.278108 -0.529647)
(-0.268062 0.330156 -0.611906)
(-0.231249 0.281093 -0.518504)
(-0.22304 0.259599 -0.493358)
(-0.316842 0.382141 -0.701463)
(-0.328107 0.39122 -0.712221)
(-0.339405 0.412327 -0.750064)
(-0.292881 0.337466 -0.618717)
(-0.325174 0.36493 -0.681871)
(-0.294706 0.344249 -0.642928)
(-0.273217 0.313653 -0.604855)
(-0.30996 0.359091 -0.652766)
(-0.274509 0.319275 -0.594981)
(-0.380242 0.435917 -0.806559)
(-0.316132 0.359689 -0.688765)
(-0.35384 0.418361 -0.777798)
(-0.284993 0.33168 -0.642852)
(-0.286781 0.331937 -0.631666)
(-0.264454 0.313467 -0.58697)
(-0.284929 0.328015 -0.614249)
(-0.316218 0.366441 -0.670245)
(-0.364368 0.430033 -0.784051)
(-0.307931 0.356035 -0.665522)
(-0.272183 0.333182 -0.635103)
(-0.262249 0.319371 -0.606437)
(-0.250602 0.301029 -0.568741)
(-0.303355 0.374506 -0.688281)
(-0.279941 0.34589 -0.648327)
(-0.286694 0.356587 -0.667156)
(-0.219581 0.272233 -0.497038)
(-0.205041 0.253601 -0.462441)
(-0.226209 0.284907 -0.526516)
(-0.245518 0.296001 -0.561103)
(-0.285685 0.363501 -0.663629)
(-0.255995 0.312811 -0.588115)
(-0.263837 0.324189 -0.600841)
(-0.265775 0.333964 -0.618385)
(-0.219966 0.273879 -0.500209)
(-0.210895 0.265182 -0.490439)
(-0.236988 0.287249 -0.535374)
(-0.22407 0.277633 -0.511507)
(-0.197865 0.241225 -0.446577)
(-0.267589 0.325041 -0.563312)
(-0.239818 0.290877 -0.513524)
(-0.278657 0.325257 -0.5813)
(-0.227577 0.27732 -0.482094)
(-0.22522 0.273471 -0.477436)
(-0.208692 0.24191 -0.420893)
(-0.310824 0.366212 -0.65713)
(-0.316398 0.373178 -0.672711)
(-0.228742 0.263238 -0.459884)
(-0.280011 0.336079 -0.596689)
(-0.23458 0.286881 -0.501477)
(-0.249502 0.293486 -0.526739)
(-0.254453 0.302279 -0.544057)
(-0.315109 0.367246 -0.669783)
(-0.308813 0.363227 -0.665119)
(-0.225729 0.254105 -0.453655)
(-0.20515 0.236119 -0.419904)
(-0.229381 0.260542 -0.471054)
(-0.219358 0.254592 -0.456471)
(-0.236989 0.278673 -0.49404)
(-0.209366 0.252866 -0.446169)
(-0.232254 0.27275 -0.491739)
(-0.257265 0.302758 -0.546725)
(-0.246739 0.290749 -0.509527)
(-0.309363 0.374939 -0.692047)
(-0.329999 0.404018 -0.735287)
(-0.335012 0.416343 -0.738689)
(-0.322508 0.394424 -0.712901)
(-0.316734 0.382963 -0.696437)
(-0.248863 0.300295 -0.527793)
(-0.247422 0.303762 -0.5428)
(-0.255891 0.314642 -0.57931)
(-0.233821 0.284286 -0.522658)
(-0.257287 0.30024 -0.560155)
(-0.264387 0.312422 -0.569739)
(-0.22917 0.269615 -0.498243)
(-0.263392 0.309464 -0.576037)
(-0.244748 0.290943 -0.533905)
(-0.22591 0.2751 -0.488477)
(-0.416143 0.513923 -0.925376)
(-0.394811 0.488153 -0.87781)
(-0.40327 0.48261 -0.894603)
(-0.392758 0.48055 -0.870651)
(-0.441141 0.560209 -1.00238)
(-0.417602 0.516008 -0.930392)
(-0.401301 0.49804 -0.902302)
(-0.44061 0.546584 -0.989719)
(-0.428757 0.538163 -0.967382)
(-0.410913 0.498312 -0.915246)
(-0.3393 0.419368 -0.769998)
(-0.345583 0.421449 -0.784698)
(-0.373258 0.458761 -0.845438)
(-0.33576 0.408077 -0.771021)
(-0.330468 0.399682 -0.73991)
(-0.386184 0.471431 -0.8683)
(-0.380637 0.463016 -0.852391)
(-0.417808 0.523586 -0.946727)
(-0.418557 0.528662 -0.958704)
(-0.357059 0.441037 -0.809621)
(-0.368496 0.452281 -0.848444)
(-0.348185 0.431674 -0.812924)
(-0.412018 0.512545 -0.933384)
(-0.360483 0.444899 -0.827277)
(-0.346833 0.431935 -0.809576)
(-0.393256 0.493858 -0.89755)
(-0.365952 0.44845 -0.840779)
(-0.38422 0.473216 -0.877082)
(-0.374359 0.461831 -0.854226)
(-0.242832 0.269522 -0.530276)
(-0.218079 0.25206 -0.489811)
(-0.230264 0.262381 -0.513801)
(-0.247751 0.269715 -0.53924)
(-0.300589 0.356366 -0.663718)
(-0.292352 0.358392 -0.673814)
(-0.298813 0.346195 -0.653498)
(-0.322033 0.367228 -0.700356)
(-0.258171 0.301435 -0.572832)
(-0.25131 0.282595 -0.55661)
(-0.253706 0.292708 -0.563301)
(-0.310333 0.365397 -0.692599)
(-0.23394 0.268455 -0.511913)
(-0.249029 0.293177 -0.553174)
(-0.233735 0.26709 -0.510229)
(-0.236081 0.27686 -0.541441)
(-0.218944 0.259581 -0.489337)
(-0.246553 0.288485 -0.542952)
(-0.325813 0.400262 -0.727211)
(-0.227763 0.287731 -0.501469)
(-0.205668 0.250502 -0.446807)
(-0.302247 0.374895 -0.672127)
(-0.265867 0.325041 -0.573471)
(-0.293401 0.35916 -0.634517)
(-0.22905 0.284946 -0.498106)
(-0.212963 0.262086 -0.46291)
(-0.239497 0.297502 -0.518585)
(-0.223661 0.267131 -0.4734)
(-0.198158 0.242166 -0.425145)
(-0.227297 0.290781 -0.507672)
(-0.275107 0.316128 -0.617766)
(-0.233445 0.276707 -0.519729)
(-0.359169 0.442747 -0.833289)
(-0.366379 0.445683 -0.844744)
(-0.308481 0.367657 -0.691643)
(-0.308471 0.380551 -0.711322)
(-0.253486 0.299474 -0.570184)
(-0.281892 0.324307 -0.620073)
(-0.260231 0.310739 -0.593112)
(-0.262648 0.330259 -0.597259)
(-0.251056 0.307363 -0.585049)
(-0.363129 0.443898 -0.839472)
(-0.359662 0.431064 -0.840346)
(-0.313988 0.386814 -0.73479)
(-0.274863 0.327318 -0.618877)
(-0.321291 0.395638 -0.730382)
(-0.314778 0.387757 -0.721842)
(-0.326042 0.404624 -0.773019)
(-0.298659 0.353498 -0.661809)
(-0.321885 0.361943 -0.705073)
(-0.254556 0.295958 -0.577084)
(-0.308592 0.373153 -0.706647)
(-0.257087 0.304371 -0.584593)
(-0.225925 0.252461 -0.490249)
(-0.312712 0.370825 -0.695444)
(-0.302404 0.353123 -0.661068)
(-0.258574 0.2944 -0.583442)
(-0.244471 0.280868 -0.543961)
(-0.310419 0.361271 -0.700722)
(-0.237638 0.279813 -0.530894)
(-0.212972 0.24847 -0.463387)
(-0.32273 0.376415 -0.703014)
(-0.238528 0.281258 -0.531978)
(-0.225498 0.272104 -0.516492)
(-0.254377 0.311928 -0.5824)
(-0.298308 0.35095 -0.670563)
(-0.243705 0.290622 -0.547574)
(-0.296344 0.348145 -0.660667)
(-0.282 0.333277 -0.623097)
(-0.269736 0.327737 -0.599956)
(-0.330926 0.38856 -0.730741)
(-0.325788 0.379201 -0.715237)
(-0.394439 0.466024 -0.879272)
(-0.368765 0.440059 -0.820234)
(-0.328685 0.380299 -0.712712)
(-0.325839 0.379351 -0.714982)
(-0.381852 0.45832 -0.86302)
(-0.389106 0.471474 -0.879207)
(-0.362594 0.435226 -0.810827)
(-0.291059 0.3468 -0.654943)
(-0.277189 0.328017 -0.633194)
(-0.324738 0.391204 -0.721238)
(-0.283998 0.344165 -0.653301)
(-0.306328 0.36479 -0.674729)
(-0.254423 0.304057 -0.566626)
(-0.259873 0.313321 -0.590031)
(-0.23903 0.288287 -0.54434)
(-0.219783 0.260625 -0.491865)
(-0.243943 0.2869 -0.527548)
(-0.235974 0.276445 -0.525691)
(-0.302802 0.364587 -0.686122)
(-0.299124 0.350721 -0.672894)
(-0.318634 0.381053 -0.70634)
(-0.229853 0.275982 -0.518634)
(-0.258434 0.307519 -0.576872)
(-0.318344 0.373809 -0.691111)
(-0.249712 0.30085 -0.564234)
(-0.304167 0.375304 -0.706071)
(-0.311219 0.384349 -0.729828)
(-0.313863 0.385552 -0.734886)
(-0.29907 0.365436 -0.704088)
(-0.297668 0.360775 -0.679599)
(-0.29095 0.365029 -0.678192)
(-0.256384 0.310894 -0.576679)
(-0.216243 0.26979 -0.51892)
(-0.222473 0.283364 -0.527788)
(-0.200345 0.243687 -0.464641)
(-0.208459 0.247211 -0.469721)
(-0.233565 0.281022 -0.534291)
(-0.22858 0.280436 -0.52242)
(-0.237574 0.304127 -0.573715)
(-0.286749 0.346232 -0.663575)
(-0.270215 0.339042 -0.643936)
(-0.256734 0.31444 -0.578261)
(-0.346002 0.418643 -0.785204)
(-0.33442 0.402592 -0.759708)
(-0.3447 0.405211 -0.767622)
(-0.350763 0.415532 -0.780031)
(-0.299151 0.364023 -0.692495)
(-0.320766 0.383797 -0.719339)
(-0.298132 0.339319 -0.662075)
(-0.347855 0.424953 -0.78174)
(-0.335072 0.402468 -0.770574)
(-0.314527 0.37061 -0.70366)
(-0.3324 0.402321 -0.752052)
(-0.362238 0.434201 -0.816804)
(-0.32434 0.384696 -0.725641)
(-0.348626 0.417606 -0.776646)
(-0.364481 0.431357 -0.807245)
(-0.345227 0.443447 -0.817032)
(-0.29989 0.368045 -0.682598)
(-0.325254 0.398071 -0.747108)
(-0.297121 0.347391 -0.657671)
(-0.306127 0.370932 -0.689982)
(-0.304296 0.361692 -0.670662)
(-0.321098 0.387634 -0.723873)
(-0.343242 0.417789 -0.772881)
(-0.311325 0.38833 -0.711798)
(-0.323611 0.404166 -0.737998)
(-0.303308 0.376347 -0.68958)
(-0.2856 0.358322 -0.651817)
(-0.252318 0.32026 -0.595326)
(-0.292321 0.357644 -0.658476)
(-0.297862 0.365592 -0.673474)
(-0.21722 0.248778 -0.484078)
(-0.218922 0.268581 -0.503643)
(-0.272801 0.33318 -0.617384)
(-0.275639 0.334355 -0.617224)
(-0.291485 0.367782 -0.666542)
(-0.27157 0.3387 -0.616256)
(-0.210592 0.268026 -0.486971)
(-0.194087 0.233909 -0.440875)
(-0.207426 0.25502 -0.485395)
(-0.213867 0.262845 -0.494638)
(-0.193685 0.242708 -0.44527)
(-0.227896 0.269713 -0.515403)
(-0.220159 0.275725 -0.514855)
(-0.208815 0.255541 -0.481721)
(-0.223061 0.269813 -0.503765)
(-0.314907 0.359028 -0.697459)
(-0.332211 0.382252 -0.740433)
(-0.341236 0.377622 -0.736459)
(-0.320796 0.360922 -0.700976)
(-0.382486 0.423617 -0.832572)
(-0.390592 0.436605 -0.847478)
(-0.314918 0.367496 -0.693708)
(-0.296816 0.342509 -0.662192)
(-0.33101 0.373083 -0.7294)
(-0.313413 0.357103 -0.69876)
(-0.309671 0.351942 -0.675424)
(-0.324756 0.363885 -0.702604)
(-0.373318 0.417408 -0.824556)
(-0.323575 0.373622 -0.721978)
(-0.331017 0.403648 -0.752488)
(-0.367006 0.457251 -0.839488)
(-0.375845 0.468948 -0.849148)
(-0.368708 0.45767 -0.841324)
(-0.376983 0.462917 -0.848324)
(-0.333936 0.412765 -0.766839)
(-0.317598 0.378813 -0.716084)
(-0.342262 0.427952 -0.780596)
(-0.338219 0.413587 -0.758341)
(-0.384541 0.475989 -0.860873)
(-0.321669 0.392852 -0.727501)
(-0.319605 0.392024 -0.72921)
(-0.315886 0.37804 -0.700301)
(-0.334685 0.411542 -0.751711)
(-0.308102 0.389695 -0.709561)
(-0.372787 0.459081 -0.828555)
(-0.327575 0.404678 -0.726881)
(-0.328895 0.406762 -0.737124)
(-0.290988 0.352139 -0.655407)
(-0.303126 0.370787 -0.691444)
(-0.299847 0.356195 -0.658368)
(-0.312223 0.37041 -0.688605)
(-0.347114 0.420251 -0.781885)
(-0.300014 0.37378 -0.686769)
(-0.344151 0.413469 -0.767622)
(-0.320649 0.388622 -0.720368)
(-0.313055 0.378711 -0.702226)
(-0.286379 0.349674 -0.646499)
(-0.290171 0.356211 -0.653236)
(-0.309458 0.371922 -0.685073)
(-0.344094 0.425871 -0.791349)
(-0.302871 0.362062 -0.675251)
(-0.321815 0.382413 -0.714085)
(-0.278869 0.338353 -0.629387)
(-0.323121 0.387866 -0.716307)
(-0.302043 0.358598 -0.669309)
(-0.245806 0.27383 -0.518042)
(-0.236697 0.270975 -0.508255)
(-0.242314 0.270848 -0.516564)
(-0.30309 0.337875 -0.624405)
(-0.240731 0.263242 -0.501843)
(-0.229792 0.257123 -0.482467)
(-0.318959 0.352455 -0.662337)
(-0.323225 0.362364 -0.662837)
(-0.268757 0.298623 -0.547077)
(-0.224144 0.254959 -0.477934)
(-0.242933 0.273772 -0.493002)
(-0.210507 0.228875 -0.446832)
(-0.275155 0.302454 -0.548569)
(-0.221886 0.251907 -0.458913)
(-0.234125 0.263301 -0.48204)
(-0.205992 0.232355 -0.437871)
(-0.308283 0.33718 -0.640836)
(-0.269268 0.304885 -0.558491)
(-0.226539 0.270898 -0.493545)
(-0.209187 0.245978 -0.454851)
(-0.306352 0.379323 -0.687535)
(-0.284973 0.347714 -0.632165)
(-0.233284 0.28381 -0.513945)
(-0.244691 0.286336 -0.532207)
(-0.278399 0.329875 -0.614289)
(-0.234353 0.27505 -0.51005)
(-0.224124 0.260335 -0.482725)
(-0.296554 0.328974 -0.632661)
(-0.301919 0.364596 -0.669281)
(-0.306146 0.368158 -0.653299)
(-0.219378 0.261474 -0.477051)
(-0.232757 0.280455 -0.512318)
(-0.211516 0.260784 -0.47334)
(-0.249648 0.288218 -0.541659)
(-0.240539 0.284059 -0.513426)
(-0.228534 0.273533 -0.4915)
(-0.238644 0.280063 -0.534152)
(-0.209205 0.251869 -0.474529)
(-0.240211 0.276522 -0.526732)
(-0.251182 0.305837 -0.56397)
(-0.250926 0.302764 -0.551311)
(-0.25869 0.288524 -0.557892)
(-0.235634 0.277904 -0.523605)
(-0.253842 0.295371 -0.55936)
(-0.30519 0.360547 -0.679246)
(-0.282586 0.330526 -0.620158)
(-0.291024 0.342572 -0.641401)
(-0.300824 0.356108 -0.654695)
(-0.251144 0.299796 -0.560494)
(-0.281206 0.334817 -0.626572)
(-0.323767 0.389864 -0.724071)
(-0.292866 0.349364 -0.653429)
(-0.290082 0.341669 -0.646979)
(-0.306188 0.362212 -0.680855)
(-0.335191 0.427732 -0.767492)
(-0.326295 0.391221 -0.745043)
(-0.246472 0.315236 -0.569419)
(-0.250866 0.322423 -0.57843)
(-0.239579 0.292292 -0.537748)
(-0.376026 0.482294 -0.859528)
(-0.340979 0.437502 -0.785579)
(-0.274253 0.361534 -0.659865)
(-0.293474 0.363257 -0.678039)
(-0.276384 0.363302 -0.646499)
(-0.293088 0.371018 -0.662139)
(-0.365726 0.455859 -0.834106)
(-0.360081 0.4594 -0.828038)
(-0.263529 0.347282 -0.632409)
(-0.301724 0.383492 -0.70236)
(-0.268967 0.350026 -0.614303)
(-0.302949 0.384784 -0.69173)
(-0.230038 0.286544 -0.541795)
(-0.245919 0.296788 -0.561247)
(-0.311419 0.367015 -0.715626)
(-0.23937 0.300658 -0.56268)
(-0.232012 0.293375 -0.537056)
(-0.217835 0.275444 -0.515675)
(-0.306567 0.355788 -0.689075)
(-0.259702 0.310524 -0.591698)
(-0.237874 0.280878 -0.537683)
(-0.265826 0.312783 -0.602458)
(-0.312178 0.376687 -0.72252)
(-0.336741 0.401659 -0.760688)
(-0.368117 0.438402 -0.830252)
(-0.329552 0.386581 -0.73662)
(-0.211848 0.25589 -0.480578)
(-0.268961 0.317128 -0.618424)
(-0.316165 0.361131 -0.70538)
(-0.346944 0.407748 -0.7728)
(-0.2601 0.309367 -0.585749)
(-0.24922 0.297247 -0.55985)
(-0.206212 0.238202 -0.461663)
(-0.193048 0.232764 -0.444494)
(-0.21404 0.246337 -0.437346)
(-0.207982 0.247346 -0.443644)
(-0.228775 0.248675 -0.474228)
(-0.218807 0.233268 -0.438581)
(-0.222176 0.247244 -0.453221)
(-0.215728 0.277632 -0.491434)
(-0.20336 0.257465 -0.463674)
(-0.212908 0.27421 -0.489161)
(-0.195109 0.239054 -0.446561)
(-0.203137 0.246903 -0.459136)
(-0.238438 0.279875 -0.529282)
(-0.247412 0.291238 -0.541114)
(-0.220399 0.274557 -0.50608)
(-0.215732 0.264704 -0.486751)
(-0.228389 0.26333 -0.496446)
(-0.211615 0.235001 -0.44462)
(-0.217638 0.25026 -0.456741)
(-0.216801 0.242313 -0.451687)
(-0.212916 0.232914 -0.431482)
(-0.222724 0.253955 -0.466532)
(-0.211936 0.244974 -0.43995)
(-0.231589 0.263459 -0.467269)
(-0.223784 0.258928 -0.465007)
(-0.219836 0.260054 -0.474915)
(-0.202473 0.240213 -0.436886)
(-0.197535 0.229616 -0.427123)
(-0.193137 0.223101 -0.434452)
(-0.19677 0.239424 -0.456109)
(-0.191885 0.22803 -0.448407)
(-0.22076 0.272848 -0.477181)
(-0.217523 0.274082 -0.473514)
(-0.220761 0.271053 -0.491807)
(-0.233847 0.273146 -0.508593)
(-0.211345 0.267313 -0.474787)
(-0.209263 0.262426 -0.482121)
(-0.212331 0.253478 -0.475751)
(-0.217372 0.252662 -0.483958)
(-0.197794 0.249192 -0.449343)
(-0.196025 0.254739 -0.463353)
(-0.20024 0.253103 -0.458051)
(-0.226336 0.258483 -0.468034)
(-0.22628 0.2622 -0.460783)
(-0.214944 0.252502 -0.457947)
(-0.221125 0.254791 -0.458855)
(-0.240518 0.281217 -0.504545)
(-0.228448 0.278998 -0.494434)
(-0.227794 0.263958 -0.473904)
(-0.219789 0.260217 -0.489654)
(-0.210463 0.25253 -0.47466)
(-0.202416 0.24379 -0.459688)
(-0.232981 0.291967 -0.517359)
(-0.22563 0.268432 -0.473436)
(-0.215842 0.279053 -0.465775)
(-0.22292 0.271163 -0.470723)
(-0.202656 0.241016 -0.441774)
(-0.199432 0.232369 -0.438786)
(-0.19811 0.23322 -0.450216)
(-0.205445 0.242148 -0.464526)
(-0.217152 0.252022 -0.471689)
(-0.216362 0.247374 -0.475405)
(-0.193418 0.238868 -0.437252)
(-0.195522 0.232887 -0.435379)
(-0.195469 0.229915 -0.434296)
(-0.199515 0.236327 -0.448093)
(-0.203046 0.242042 -0.463804)
(-0.219132 0.271978 -0.501212)
(-0.237016 0.293325 -0.529613)
(-0.206702 0.263334 -0.467121)