/*--------------------------------*- C++ -*----------------------------------*\
| =========                 |                                                 |
| \\      /  F ield         | OpenFOAM: The Open Source CFD Toolbox           |
|  \\    /   O peration     | Version:  v1612+                                |
|   \\  /    A nd           | Web:      www.OpenFOAM.com                      |
|    \\/     M anipulation  |                                                 |
\*---------------------------------------------------------------------------*/
FoamFile
{
    version     2.0;
    format      ascii;
    class       surfaceScalarField;
    location    "100";
    object      phi;
}
// * * * * * * * * * * * * * * * * * * * * * * * * * * * * * * * * * * * * * //

dimensions      [0 3 -1 0 0 0 0];

internalField   nonuniform List<scalar> 
45947
(
1.63252e-08
-9.59277e-09
-1.18378e-08
5.10545e-09
1.49458e-08
6.50832e-09
-7.04713e-09
-1.4407e-08
4.23843e-09
9.69116e-09
-1.27721e-09
-1.2652e-08
-8.49175e-10
1.03588e-08
-7.97652e-09
-1.53305e-09
9.30748e-10
-6.59363e-09
2.21829e-09
3.44456e-09
-7.05957e-09
-1.64159e-09
8.82086e-09
-1.1958e-10
5.6038e-09
-1.191e-08
-3.63167e-09
9.93792e-09
3.42977e-09
-2.48962e-10
-3.5988e-09
4.17977e-10
-4.80042e-09
3.22798e-10
-2.3742e-09
6.85292e-09
-5.60148e-09
9.43071e-09
-6.14877e-09
2.31955e-09
8.03708e-09
1.30741e-09
-4.28143e-09
-5.06281e-09
8.4361e-11
-9.14465e-09
1.13562e-08
-2.29579e-09
8.27246e-10
5.1317e-09
-5.83518e-09
-1.23733e-10
-2.95596e-09
8.43026e-09
-8.3337e-11
-5.39096e-09
4.66777e-09
2.96658e-09
-1.08073e-08
3.17301e-09
-1.27439e-08
6.18328e-09
1.12284e-08
9.32226e-09
-1.42717e-10
5.76627e-09
5.13959e-10
2.04575e-09
-2.83295e-09
2.73265e-10
-7.92335e-11
4.31824e-09
-8.56976e-09
4.33117e-09
1.75994e-09
-2.7613e-09
4.8682e-10
5.14561e-10
-3.8515e-09
5.67321e-09
-1.43029e-08
1.24813e-08
-7.47553e-09
5.112e-09
1.13258e-09
1.23113e-09
1.17453e-08
-8.30151e-10
-1.25188e-10
2.10271e-10
2.12403e-09
2.97808e-10
-2.63178e-09
-3.24602e-09
6.24959e-09
-3.38699e-09
3.83467e-10
-3.30157e-09
5.27802e-09
-3.46772e-09
1.49129e-09
-2.48965e-10
1.10017e-09
-3.55733e-09
2.70623e-09
-2.0774e-09
-2.28593e-09
-2.69605e-09
-6.95468e-09
7.80911e-09
3.22444e-09
-4.07865e-09
-4.30557e-09
-1.00778e-09
5.27269e-09
4.07258e-11
4.02298e-09
4.09264e-09
-7.98395e-09
-1.31733e-10
5.86309e-09
-9.3869e-09
1.5274e-09
1.99615e-09
-5.2868e-09
-1.83491e-09
6.58812e-09
5.33689e-10
-5.8869e-09
6.06862e-09
-6.98797e-09
6.8063e-09
-1.11402e-08
-6.08194e-09
4.47829e-09
-4.64517e-09
-2.49679e-09
2.95858e-09
4.18337e-09
1.2585e-09
5.28341e-09
-2.36011e-09
-4.18173e-09
-1.12487e-10
-3.98358e-09
1.10419e-09
2.99159e-09
-7.5933e-09
-5.38043e-09
8.49001e-09
4.48369e-09
-5.90007e-09
2.0468e-09
8.64789e-10
2.98852e-09
6.61903e-09
5.69394e-10
-8.13875e-09
9.50413e-10
5.82963e-09
-1.10463e-08
-6.83304e-10
-4.27919e-09
1.44509e-08
2.76397e-09
-1.29362e-08
3.72655e-09
-4.61085e-09
2.7569e-09
-1.87264e-09
-2.44176e-09
-2.89448e-10
3.99783e-09
-1.26655e-09
-4.2191e-09
8.64435e-09
1.81411e-09
-6.23931e-09
-2.22585e-09
7.46181e-09
-3.47807e-09
-1.7579e-09
5.73936e-09
-4.21377e-09
-6.35884e-10
-8.89761e-10
8.14246e-09
-3.17757e-09
7.74327e-10
-1.08174e-09
-5.62035e-09
5.24349e-09
1.45853e-09
3.56815e-09
-3.07109e-09
-8.91651e-10
3.94911e-10
1.4996e-09
-4.1174e-10
-1.42976e-09
3.41955e-10
3.09051e-09
2.24483e-09
-3.83575e-09
7.9519e-09
4.06747e-10
-3.25526e-09
-5.10337e-09
4.36734e-09
-4.02698e-09
-6.06966e-10
2.66456e-10
-3.73503e-09
2.05031e-09
2.64554e-09
-9.60802e-10
-4.36575e-09
2.41099e-09
-4.43587e-09
6.39073e-09
-2.64607e-10
-3.00726e-09
-3.11086e-09
3.69703e-11
2.32021e-09
-9.94723e-10
-1.36259e-09
3.18216e-09
-2.3201e-09
-2.58675e-09
1.72464e-09
-3.13644e-09
7.07578e-10
2.02238e-09
4.06619e-10
-6.4997e-09
-1.73041e-10
3.53643e-09
-3.11627e-09
6.53325e-09
-3.59423e-09
1.77302e-10
-1.5883e-09
-7.42426e-09
7.19313e-09
1.81949e-09
2.56171e-09
2.67196e-09
-4.96446e-09
-2.69063e-10
-1.7678e-09
-1.73191e-09
6.44397e-09
-2.94403e-09
-6.53559e-09
8.51499e-09
-1.20077e-09
-7.78963e-10
-2.02259e-09
2.09953e-09
-4.87844e-09
4.80145e-09
-7.47985e-10
-3.06172e-09
3.38345e-09
4.26219e-10
-7.43703e-09
6.48587e-09
7.04111e-10
2.47027e-10
-8.78397e-09
8.22805e-09
4.68917e-09
-4.13323e-09
-9.02125e-10
-3.58562e-09
-5.34194e-09
9.82971e-09
3.84401e-09
-2.77369e-09
-1.78201e-09
7.11636e-10
-5.14653e-09
-1.56124e-09
4.51741e-09
2.19055e-09
2.34451e-09
3.7647e-09
1.84251e-09
-3.21128e-09
2.91038e-09
-4.1983e-09
4.49941e-09
-5.93062e-09
6.77065e-09
-1.26911e-11
2.66234e-09
2.19452e-09
-3.93919e-09
-9.17536e-10
-9.4703e-09
7.58234e-09
3.93479e-09
-3.48168e-09
9.40571e-09
-5.55107e-10
-5.36881e-09
-2.68933e-09
3.53356e-09
-9.54817e-10
1.10708e-10
7.02189e-09
-5.01737e-09
-1.08071e-09
-9.23795e-10
2.41685e-09
-3.43386e-09
-3.83071e-09
4.84758e-09
7.39284e-09
6.92138e-10
-4.72015e-09
-3.36483e-09
1.4768e-09
1.90124e-09
5.24542e-10
-3.90232e-09
-6.5546e-09
1.22119e-10
3.54718e-09
2.88529e-09
2.4011e-09
-3.28295e-09
7.38683e-10
1.43134e-10
3.9133e-09
2.10337e-09
3.05678e-09
-9.07351e-09
-1.21337e-09
7.99785e-10
-1.78622e-09
2.19967e-09
-9.99655e-10
-4.60763e-09
5.24736e-09
3.59995e-10
-2.5481e-09
4.27784e-09
2.56465e-09
-4.29425e-09
-3.00911e-09
-1.74233e-09
4.48841e-09
2.63023e-10
4.61529e-09
-7.23734e-09
3.47363e-09
-8.51574e-10
1.45877e-10
-2.39038e-09
2.14595e-09
9.86122e-11
-1.30544e-09
-4.00066e-09
4.99253e-09
3.13615e-10
2.47973e-09
-1.8418e-09
7.83533e-10
-1.4214e-09
5.81437e-10
6.2638e-09
-4.36549e-09
2.41565e-09
5.88124e-10
-6.36483e-09
3.36104e-09
3.84185e-09
-7.66796e-10
-2.2549e-09
-8.20183e-10
2.88599e-09
8.31935e-09
-8.44952e-09
-2.75574e-09
2.9683e-09
-2.95882e-09
-2.68019e-09
2.67071e-09
-3.10539e-09
2.20839e-11
4.09126e-10
-2.98929e-09
-2.30947e-10
2.89593e-09
3.24328e-10
6.62603e-09
-6.00324e-09
-7.55453e-10
1.32603e-10
-1.79101e-09
5.92925e-10
-3.93e-09
5.12807e-09
3.79287e-09
-5.39314e-09
4.88552e-09
-3.28525e-09
1.91985e-09
-1.51432e-09
-4.68482e-09
7.21827e-09
-1.83943e-09
-5.96988e-09
5.91055e-10
3.25633e-09
1.43897e-09
-3.91814e-09
-7.76803e-10
5.65338e-09
1.7502e-10
-8.29103e-09
2.4628e-09
3.56192e-09
-2.5137e-09
-5.19854e-10
-5.28415e-10
-1.61308e-09
2.5749e-09
-4.49106e-09
3.52925e-09
-2.28174e-09
8.4016e-09
-7.19013e-09
1.07028e-09
3.45728e-09
-2.37335e-09
2.84199e-09
-3.92586e-09
-2.4975e-09
1.15349e-10
5.83948e-09
2.98044e-09
-5.71339e-09
3.23809e-09
-5.05054e-10
6.69549e-09
-1.33841e-09
-3.79208e-09
-1.56487e-09
-3.8059e-09
3.55965e-09
3.99116e-09
-3.74472e-09
-3.90538e-09
3.3855e-09
4.20437e-10
1.00016e-10
6.08625e-09
-1.85604e-09
-2.06446e-09
-2.16577e-09
-5.78758e-09
-5.10116e-09
4.14834e-09
6.74042e-09
-2.40384e-09
-8.5062e-10
-1.89186e-09
2.35695e-09
-1.40405e-09
2.30243e-09
-3.25507e-09
3.00903e-09
-1.71866e-09
-1.54431e-09
2.5416e-10
-3.01132e-09
-5.62575e-10
-3.92281e-10
3.96618e-09
-3.49019e-09
-5.18213e-11
3.59745e-09
-5.54752e-11
2.92966e-09
-3.0496e-09
6.19477e-10
-4.99535e-10
3.41454e-09
1.82148e-09
-5.06405e-09
-1.71875e-10
-5.39292e-09
2.43794e-09
-1.61273e-10
5.69578e-09
-7.07791e-09
-2.10803e-09
1.66873e-10
-2.96249e-09
5.21244e-09
-3.05478e-09
-2.12836e-09
-4.16818e-11
5.22479e-09
-3.37537e-09
2.01264e-09
5.45274e-09
-4.09001e-09
4.32003e-09
-4.10102e-09
-1.82785e-09
1.60886e-09
5.41382e-09
-3.15344e-09
-3.40506e-10
4.74537e-09
-2.34994e-09
2.51253e-09
-4.90779e-09
1.94349e-09
-5.04448e-09
-4.3745e-09
-3.49934e-10
-6.17588e-09
3.48867e-09
3.03701e-09
3.84309e-09
-6.00734e-10
-5.46839e-10
-5.03898e-09
-3.09842e-09
2.055e-09
6.08239e-09
7.49529e-09
-3.75656e-09
-3.44294e-09
-2.9572e-10
5.15596e-09
-1.47392e-09
-3.18475e-09
-4.97349e-10
4.92445e-09
-1.37647e-09
-3.20538e-09
-3.42505e-10
-7.79542e-09
8.13235e-09
-1.89735e-09
1.56055e-09
4.83376e-09
5.75699e-10
-5.67845e-09
2.69145e-10
1.75516e-09
-5.19164e-09
-3.2524e-09
6.68893e-09
-5.16439e-10
-2.76263e-09
2.61605e-09
6.62997e-10
3.70178e-09
3.04723e-09
-7.06413e-09
3.15097e-10
-3.12035e-09
2.95502e-10
2.26964e-09
5.55281e-10
-1.53774e-09
1.84841e-09
6.18593e-09
-6.49646e-09
-8.09094e-09
6.03349e-09
1.98357e-09
7.3791e-11
-1.00049e-08
-6.21375e-09
7.04831e-09
9.1705e-09
3.74657e-09
5.21181e-10
-1.15867e-10
-4.1519e-09
2.35244e-09
-5.08771e-09
5.80177e-09
-3.06645e-09
-8.12658e-10
3.51837e-09
-4.45816e-09
1.75248e-09
-6.24159e-09
3.22865e-09
3.17229e-09
-1.59339e-10
-1.80924e-09
1.65364e-09
-3.62636e-09
3.78195e-09
-8.37699e-09
2.14113e-09
6.35627e-09
-1.20411e-10
-6.31835e-09
5.27654e-09
-6.438e-10
1.68563e-09
5.42379e-09
-5.20274e-10
-5.34852e-09
4.4492e-10
6.07798e-09
4.47554e-10
1.6503e-10
-6.69055e-09
-4.73746e-09
4.57659e-09
-5.81212e-09
5.97299e-09
2.26793e-09
-1.74773e-09
-9.71932e-10
4.5169e-10
1.91128e-09
-4.9859e-10
-6.28618e-09
4.87341e-09
-6.51309e-09
8.20108e-10
6.56823e-09
-8.75349e-10
3.65581e-09
4.95549e-10
1.92084e-09
-6.0722e-09
1.58728e-09
-3.9853e-09
2.84691e-09
-4.48921e-10
-2.15022e-09
-1.35337e-09
7.48307e-09
-3.97914e-09
4.08755e-09
-7.09018e-10
1.10809e-10
-3.48929e-09
-2.71646e-09
3.61822e-09
-1.92236e-10
-7.09551e-10
-3.14897e-09
8.84666e-10
-2.22283e-09
4.48724e-09
-2.19482e-09
-2.67516e-09
4.6467e-09
2.23285e-10
-3.92802e-09
2.87611e-09
8.41026e-10
2.10895e-10
-1.96491e-09
2.691e-09
1.40906e-09
-2.13516e-09
-7.1029e-10
-1.96745e-09
-2.92699e-09
5.60475e-09
-6.86386e-09
2.6338e-09
5.57037e-09
-1.34029e-09
2.97044e-09
5.73551e-10
-8.81134e-09
5.2674e-09
3.60671e-10
-4.13478e-09
5.08693e-09
-1.31282e-09
4.6108e-09
-2.62972e-09
-1.14798e-09
-8.33186e-10
2.28451e-09
-4.41547e-09
6.53436e-09
-4.40303e-09
2.30263e-09
-2.93391e-10
2.75312e-10
-3.40122e-09
-9.03992e-10
4.02899e-09
2.76198e-10
5.8005e-10
-1.65103e-09
-4.15955e-09
5.23049e-09
5.38514e-09
-5.41179e-09
2.32528e-09
-2.29863e-09
-4.43203e-09
-2.7597e-09
-8.99255e-10
-1.17108e-09
-3.6144e-09
7.2795e-10
4.05748e-09
3.52245e-09
-4.93407e-09
2.40552e-10
1.93037e-09
1.63341e-09
2.14656e-09
-5.71044e-09
-4.59588e-09
2.91185e-09
4.19743e-09
-3.19107e-09
-5.79021e-09
4.78401e-09
-3.80926e-09
3.10666e-10
8.27041e-10
2.67197e-09
-1.21444e-09
7.23724e-09
-6.17601e-09
1.53404e-10
3.24994e-10
2.47302e-09
-5.34116e-09
2.54322e-09
2.5816e-09
1.59434e-09
-4.55488e-09
3.78876e-10
-3.13387e-09
-2.68432e-10
3.79756e-09
-3.95234e-10
1.40093e-09
3.35172e-09
-6.33677e-09
1.58413e-09
-8.46511e-09
1.01254e-08
-2.06724e-09
4.07208e-10
-6.56635e-09
4.91706e-09
-5.2441e-10
2.17359e-09
1.60011e-09
-2.75453e-09
3.12022e-09
-1.96584e-09
-4.80421e-09
7.39723e-10
3.78775e-09
2.76861e-10
-4.16378e-10
-2.20069e-09
2.16493e-09
4.52329e-10
-2.52436e-09
1.7754e-09
3.32966e-10
-6.43317e-09
-1.03988e-09
-2.53164e-09
1.94551e-09
-4.22804e-09
3.19585e-09
-9.13349e-10
7.47664e-09
-2.24014e-09
-4.53467e-10
-4.78299e-09
-5.10688e-09
-2.83051e-09
5.3156e-09
2.62177e-09
-3.14202e-09
3.32521e-09
-3.26606e-09
3.08293e-09
-6.48147e-09
6.42975e-09
6.52338e-10
-6.00609e-10
6.97851e-09
-2.1248e-10
-9.02423e-09
2.25813e-09
4.42796e-10
7.54713e-09
-3.59327e-09
-4.39659e-09
4.59374e-10
-1.73425e-09
-1.14242e-09
2.41756e-09
3.50716e-09
-5.27026e-09
1.44928e-09
3.13819e-10
2.387e-09
2.08839e-09
3.30442e-10
-4.80583e-09
-1.58906e-09
2.11931e-09
3.15581e-09
-3.68592e-09
2.31594e-12
-2.52974e-09
4.64341e-09
-2.11587e-09
-5.83984e-09
4.58481e-09
-2.55887e-09
3.81396e-09
-7.83492e-09
-5.3703e-10
1.21923e-09
7.15281e-09
-1.11856e-09
3.50693e-09
-6.9158e-09
4.52757e-09
-1.5714e-09
-3.89916e-09
1.85412e-09
3.61642e-09
-6.27094e-10
-1.47948e-09
2.66629e-09
-5.59697e-10
-1.72717e-09
5.0199e-09
-3.43639e-09
1.4375e-10
1.26976e-09
-2.07107e-09
-9.25809e-10
8.94437e-10
6.01372e-09
2.13511e-09
-9.04329e-09
-1.77602e-09
6.72301e-10
4.96202e-09
-3.85831e-09
4.79897e-09
-3.93066e-09
-1.35821e-09
4.90021e-10
1.29344e-09
-8.23848e-09
8.21847e-09
-1.27348e-09
3.75571e-09
-5.81368e-10
-3.45701e-09
2.82737e-10
1.66013e-09
6.25494e-09
-8.97986e-10
-7.01698e-09
5.78692e-09
-1.20871e-09
3.75178e-10
-4.95341e-09
-1.56075e-09
2.1138e-09
4.53141e-09
-5.08446e-09
-7.03693e-09
-1.26608e-09
-3.45725e-11
6.17644e-09
-2.9262e-09
-3.61465e-09
3.64413e-10
-9.85688e-10
-2.66281e-09
8.62427e-10
2.78604e-09
4.44705e-09
-4.81179e-12
-2.3586e-09
-2.08374e-09
-4.0371e-09
1.73785e-09
1.7533e-09
5.45923e-10
-1.53694e-09
6.076e-09
-1.67782e-09
-2.86126e-09
1.96826e-09
-7.16242e-09
4.58808e-09
6.05975e-10
-1.94393e-09
-4.74454e-09
7.34429e-09
-6.55906e-10
4.91249e-09
-2.91665e-09
-1.05092e-09
-9.44936e-10
9.10028e-10
-2.74871e-09
-2.20983e-09
4.04852e-09
4.29593e-09
-1.4772e-09
-1.9087e-09
-1.52109e-09
4.22654e-09
-3.19263e-09
4.8711e-10
5.8294e-09
-3.12775e-09
-3.23143e-10
-2.37845e-09
2.26313e-09
4.0099e-09
-4.43568e-10
3.84886e-09
-1.30172e-09
-1.77405e-09
-7.7338e-10
6.43267e-09
1.44748e-09
-3.30081e-09
-4.57928e-09
2.054e-09
-6.52456e-10
2.45834e-09
-3.85971e-09
4.03766e-09
-3.20834e-09
-3.24484e-09
2.41551e-09
3.49367e-09
-5.87595e-09
-4.32526e-09
6.70754e-09
2.50464e-09
-3.73787e-09
5.27093e-09
3.57523e-09
4.91145e-09
6.3067e-09
-7.95583e-09
8.18241e-09
-8.91863e-09
3.56945e-09
5.55111e-09
-2.0186e-10
7.73106e-09
-2.63996e-10
-8.01136e-09
5.44142e-10
-3.86589e-09
3.71103e-09
3.00815e-10
6.08972e-09
-6.90101e-09
5.09214e-09
-4.28084e-09
-5.17437e-09
5.92384e-09
8.58515e-09
-8.40208e-10
-2.15281e-09
-5.59208e-09
-1.63072e-09
1.10497e-08
-6.45548e-09
-2.96351e-09
2.06925e-09
-2.15156e-09
-1.12467e-10
1.94789e-10
7.32235e-09
-3.39574e-09
1.09643e-09
-5.02302e-09
2.46236e-09
3.8921e-10
-2.76986e-09
-8.17511e-11
2.52958e-09
-3.63982e-09
1.65535e-09
-5.45072e-10
5.7463e-10
-4.83031e-09
6.53364e-09
-2.27792e-09
2.41803e-09
-7.12534e-10
-2.5002e-09
7.94643e-10
-1.30956e-09
2.59518e-09
-3.65108e-10
-9.20556e-10
-3.37744e-09
-3.53593e-10
-1.20307e-09
-2.58551e-09
2.61084e-09
-3.40283e-09
-6.90861e-10
-3.12199e-09
3.35473e-09
4.58124e-10
2.23481e-09
7.95768e-10
1.9955e-09
-5.02575e-09
-1.34663e-09
-3.12601e-09
1.54413e-09
2.92881e-09
1.38954e-09
-4.00174e-09
3.91373e-09
-1.30137e-09
1.13496e-09
8.34197e-10
5.70909e-10
7.40151e-09
-4.25271e-09
-6.43792e-09
3.28902e-09
-2.23952e-10
3.01448e-09
-2.72432e-09
-6.61129e-11
-4.53518e-09
7.00574e-10
3.8609e-09
-2.62883e-11
-3.65407e-09
-4.30649e-09
6.51561e-09
1.44513e-09
4.14189e-09
-4.28942e-09
3.60871e-09
-3.46104e-09
3.85986e-09
-1.40656e-09
-2.14538e-09
-3.08427e-10
-3.93441e-09
-1.43824e-09
1.0413e-08
-5.04033e-09
4.95042e-09
-4.78591e-09
-5.41303e-10
3.76756e-10
-4.61627e-09
-1.2081e-10
4.37648e-09
3.60612e-10
-3.19889e-09
5.03806e-09
7.86874e-09
-9.70788e-09
2.47523e-09
4.89425e-10
-3.25661e-09
2.91959e-10
-1.76368e-09
2.62107e-09
-1.26867e-09
4.11139e-10
-2.74684e-09
5.09432e-10
4.10249e-09
-1.8651e-09
4.01212e-09
-3.25334e-09
-3.50562e-09
-7.84498e-10
3.94062e-09
-2.4266e-09
-7.29511e-10
3.5571e-09
1.35297e-09
-3.0126e-09
-1.89743e-09
6.47967e-09
-3.28147e-09
3.08861e-10
6.24836e-09
-2.34527e-09
-3.85685e-09
-4.62223e-11
-2.30379e-09
8.53044e-10
6.23107e-09
-4.7803e-09
-4.51873e-09
3.29372e-09
5.13828e-09
-3.01545e-10
2.43944e-09
-3.92892e-09
-1.74086e-09
-3.58034e-09
-4.78628e-10
5.79983e-09
-4.19321e-09
8.42806e-09
-6.12974e-09
1.89495e-09
4.15936e-09
-1.22039e-08
6.74824e-09
1.29631e-09
-3.42424e-09
5.11317e-09
7.10617e-10
-4.71099e-09
3.24816e-09
7.52352e-10
1.05547e-09
2.7541e-09
-3.09894e-09
5.37382e-10
3.69551e-09
-5.92345e-09
1.6905e-09
6.8968e-09
-6.82887e-09
-3.71963e-10
3.04007e-10
-3.73546e-09
3.42167e-09
-2.0132e-10
5.15144e-10
4.14524e-09
1.984e-09
-6.4743e-09
3.4504e-10
3.94602e-09
-1.0135e-08
5.24154e-09
9.47527e-10
5.23013e-09
4.11189e-09
-6.21415e-09
-3.12781e-09
-7.37703e-09
1.07614e-08
-5.42833e-09
2.04408e-09
8.47154e-09
7.04595e-10
2.92194e-09
4.49897e-11
2.88448e-09
-5.85137e-09
-2.62171e-09
1.92268e-09
3.32733e-09
-2.62821e-09
-5.37613e-09
-3.2704e-10
5.60501e-09
9.82328e-11
1.15724e-09
-9.67404e-09
5.25622e-09
3.2607e-09
-3.89156e-09
-1.08522e-09
4.63976e-09
3.37126e-10
-7.29132e-09
3.59973e-09
-2.19359e-09
5.88521e-09
-3.15134e-09
7.05671e-09
-3.98786e-09
8.25439e-11
-5.52546e-09
4.81221e-09
-2.43798e-09
7.52259e-09
5.50803e-09
-1.12201e-09
-1.19085e-08
1.49614e-09
1.87142e-09
-5.98918e-09
1.98647e-09
-2.38549e-09
1.94636e-10
2.04612e-10
-9.61924e-09
-4.02772e-09
4.08238e-10
1.32387e-08
4.47473e-10
-3.33796e-09
4.8132e-09
-2.28108e-09
4.30946e-09
6.00915e-09
3.05894e-09
-6.39554e-09
2.21816e-09
4.86408e-09
-1.02981e-09
-7.39919e-09
3.56527e-09
1.47551e-09
-1.48764e-09
4.87638e-09
-3.6789e-09
-2.00988e-11
6.4794e-09
-2.7804e-09
1.08594e-09
-6.46239e-09
-3.49027e-10
3.7687e-09
2.4331e-09
-5.84133e-10
-1.0096e-10
5.46116e-09
-5.02119e-09
-3.38969e-10
-2.48742e-09
-5.50731e-11
-6.13212e-10
-3.92867e-09
5.03905e-09
2.3042e-09
-6.13293e-09
3.12478e-09
2.56868e-09
4.39457e-10
-1.6934e-09
4.95641e-09
-3.61426e-09
3.51131e-10
-2.47672e-09
2.97502e-09
-8.91655e-10
3.93309e-10
1.74318e-09
2.67865e-09
-3.80767e-09
-6.1427e-10
1.68016e-09
-2.17002e-09
1.76553e-09
-1.27552e-09
3.94219e-09
-7.31867e-09
3.01766e-09
3.58775e-10
4.30479e-10
-4.33319e-09
8.3355e-09
-4.43279e-09
-4.36414e-09
-1.27071e-10
4.14947e-09
3.41707e-10
-3.06828e-09
2.9164e-09
5.03006e-11
1.017e-10
-3.92348e-09
-1.95349e-10
3.82542e-09
2.93474e-10
4.7946e-09
1.60317e-09
2.08695e-10
2.12216e-09
-2.4629e-09
1.31461e-10
4.18131e-10
4.15856e-10
-3.85016e-09
-1.76374e-09
4.39555e-10
-4.85476e-10
-6.9918e-09
7.19447e-09
2.82854e-10
1.6417e-09
-7.09963e-09
6.21612e-09
-7.58207e-10
6.03137e-09
4.82995e-09
-4.65881e-09
-6.20244e-09
6.83825e-09
-2.78544e-09
-2.08877e-10
3.11506e-09
3.67418e-09
1.1534e-09
-7.94266e-09
-2.94435e-09
4.96356e-09
-2.53642e-09
5.17161e-10
1.80739e-09
5.36976e-09
-5.55745e-09
-1.61982e-09
-3.77215e-09
-2.86687e-09
1.01017e-09
5.62885e-09
1.05704e-09
-8.82386e-09
-1.97629e-09
4.53157e-09
-1.22315e-09
-5.93955e-09
2.63114e-09
-7.72835e-10
5.25827e-09
-3.52113e-09
-9.64356e-10
-1.84997e-09
-2.05589e-09
-2.80405e-09
6.71079e-09
-2.3768e-09
4.15181e-10
4.58258e-09
-2.62092e-09
-1.28954e-09
2.80428e-09
-5.99872e-09
4.48401e-09
2.26734e-09
4.84361e-09
-4.28434e-09
-2.82661e-09
-8.9903e-10
-8.29799e-10
3.99601e-09
3.52947e-09
-1.65294e-09
1.98322e-09
-5.14607e-09
1.42444e-08
-4.87017e-09
-4.22812e-09
4.1517e-09
-6.69824e-09
-8.87343e-10
1.3222e-09
3.86355e-09
-8.89043e-10
-4.29682e-09
3.66568e-09
-3.54285e-10
-6.45328e-09
-1.66237e-09
8.54466e-09
-4.3435e-09
-2.53876e-09
4.17447e-09
-1.46571e-09
4.40052e-09
-7.10927e-09
-7.99479e-09
5.13517e-09
6.34141e-09
-3.80571e-09
-9.39295e-10
-9.08687e-09
1.42291e-09
8.13888e-09
-4.74753e-10
2.75353e-09
-7.30935e-09
1.10467e-08
-6.49087e-09
-4.02795e-09
-2.55601e-09
9.71676e-09
-3.13269e-09
-3.35461e-09
-1.71039e-09
5.44346e-09
-3.78436e-10
-6.66565e-09
4.67653e-09
1.70137e-09
2.88385e-10
-3.67091e-09
1.19828e-09
2.97859e-09
-5.05797e-10
1.8485e-09
2.45017e-09
-4.25577e-09
-4.2696e-11
6.69433e-09
-7.81467e-09
6.24904e-09
-5.12851e-09
-2.34974e-09
-4.04789e-09
6.50228e-09
-1.04516e-10
-3.22298e-09
5.31823e-09
7.32888e-09
-9.42412e-09
6.4043e-09
3.11475e-09
-8.98166e-09
-8.84803e-09
7.72703e-09
7.52533e-09
-2.40509e-09
-4.17042e-09
5.47711e-09
1.0985e-09
-2.92611e-09
2.45101e-09
6.85604e-10
-3.83663e-10
-4.82259e-09
6.38388e-09
-1.17794e-09
7.6506e-09
-6.46231e-09
1.24234e-09
-2.43049e-09
6.84136e-09
-2.83572e-09
-1.14171e-09
-2.86386e-09
3.20655e-09
-3.94274e-09
3.09609e-10
4.26632e-10
-3.28577e-09
4.61647e-09
-3.04469e-09
1.71405e-09
5.03327e-09
6.2076e-09
-8.96288e-09
-2.27787e-09
-3.62336e-09
3.98494e-09
-4.74098e-10
1.12584e-10
-1.26119e-10
5.07645e-09
-5.35201e-09
4.01782e-10
4.48242e-09
-5.09086e-09
7.37994e-09
-6.77156e-09
-3.29895e-09
-5.66308e-09
4.5799e-09
4.38215e-09
2.12652e-09
8.44615e-09
-4.48642e-09
6.56613e-09
3.02651e-09
-8.12304e-11
-9.51128e-09
2.62333e-09
3.5124e-09
-5.6119e-09
-5.23802e-10
-8.52003e-09
1.0569e-09
4.1642e-09
6.85927e-10
-6.58264e-09
-4.67599e-09
-1.78936e-09
6.01564e-09
4.49645e-10
-1.25314e-09
-6.64996e-10
1.51054e-09
4.07613e-10
-7.20992e-11
4.59345e-09
-8.81584e-09
4.29456e-09
-1.98233e-09
-5.18125e-09
6.2148e-09
9.49246e-10
-4.93259e-09
7.92129e-09
3.53463e-09
-6.52346e-09
-1.16399e-09
-2.8032e-09
-4.9514e-09
3.44984e-09
-3.99892e-09
-5.34878e-10
1.08404e-09
3.76409e-09
3.15265e-09
-7.14269e-09
2.2599e-10
-2.94137e-09
-1.15845e-09
3.70955e-09
3.90302e-10
6.54185e-09
-4.39323e-09
8.49252e-09
-1.06411e-08
8.46972e-10
-7.29463e-09
1.41498e-10
6.30626e-09
-3.61899e-09
5.37516e-09
-5.47931e-09
3.72323e-09
-5.57099e-09
5.96877e-09
6.58076e-09
2.21957e-09
1.22755e-09
-2.42152e-09
-1.02577e-09
2.1584e-11
4.5087e-09
-6.88533e-10
2.90871e-09
3.7561e-09
-6.86274e-09
1.97927e-10
4.1789e-09
-4.998e-09
-4.16827e-09
4.98742e-09
6.20247e-09
-1.38135e-09
-4.27277e-09
-5.48364e-10
5.01685e-09
6.61798e-10
-1.69077e-09
-3.98785e-09
7.10087e-09
-2.11585e-09
-3.82047e-09
6.40936e-10
-4.02849e-09
4.41448e-09
-1.02701e-09
8.32014e-09
-2.73392e-09
-1.97327e-09
-3.61243e-09
9.3196e-10
-5.73382e-10
-4.06764e-09
3.70936e-09
3.65807e-09
-4.395e-09
-2.06902e-09
2.80622e-09
3.21522e-09
-5.01133e-10
2.45178e-09
-5.16541e-09
-6.16233e-10
1.72978e-09
-4.2292e-09
3.11579e-09
-2.29928e-09
2.35568e-09
2.43115e-09
-2.48737e-09
-2.35408e-09
3.02741e-09
2.59e-10
-3.36475e-10
-2.30838e-09
3.46033e-10
7.77155e-09
-3.23591e-09
-4.21416e-09
-3.21596e-10
4.21742e-09
4.61429e-09
-1.06019e-09
3.81946e-09
-1.75109e-09
5.93954e-10
-2.02192e-09
6.28539e-09
4.32174e-09
-3.13939e-09
9.13769e-09
-9.46849e-10
-5.53666e-09
3.89541e-09
2.58808e-09
-1.66199e-09
-3.75975e-09
4.58164e-09
5.32672e-09
-1.13031e-09
-5.89001e-09
6.43445e-09
-3.90713e-09
2.79927e-09
-6.95024e-10
3.31597e-09
-2.46312e-09
-1.57827e-10
2.81839e-09
1.2361e-09
-4.34093e-09
2.86571e-10
-3.21135e-09
7.8484e-09
2.40577e-09
-7.04232e-09
4.62603e-09
2.83604e-09
-6.9004e-09
-5.6163e-10
-4.55259e-09
6.82778e-10
-2.63574e-09
1.22925e-09
2.64947e-09
-1.24301e-09
-4.56108e-09
5.79324e-09
-4.44455e-09
3.21238e-09
2.28552e-09
-6.86969e-09
2.56231e-09
5.92744e-09
-4.2562e-09
2.95433e-09
-4.62571e-09
4.8458e-09
-4.18911e-09
2.30067e-09
-2.95755e-09
-5.64915e-09
6.26891e-09
-3.47253e-09
2.85279e-09
-4.54331e-09
4.27298e-09
1.75653e-09
-1.48616e-09
1.0739e-09
-1.56722e-09
-2.74573e-09
3.23909e-09
8.10858e-09
-1.12058e-09
-3.95004e-09
-3.038e-09
4.23207e-09
5.18957e-10
2.60835e-09
4.1526e-09
-5.248e-09
-1.51295e-09
9.10381e-11
4.35928e-09
-9.64183e-09
5.19151e-09
-9.63294e-10
-8.27569e-10
6.30118e-09
6.63102e-10
7.1153e-10
-7.67578e-09
-4.67631e-09
1.50019e-10
8.08341e-09
1.07588e-09
2.43375e-09
2.022e-09
4.92746e-09
-3.48986e-09
-3.0683e-09
5.49743e-09
1.0933e-09
-6.70019e-09
1.09523e-10
1.88724e-09
-4.72814e-09
1.11726e-09
1.7236e-09
4.19695e-09
-1.41398e-09
2.59011e-09
-5.37304e-09
-1.72764e-09
-6.54394e-10
-1.27919e-09
4.65783e-09
-3.01695e-09
-3.61582e-10
4.39573e-09
-7.34675e-09
-4.3661e-09
7.31715e-09
-5.63236e-09
-3.97278e-09
-2.83676e-10
9.88875e-09
1.71686e-09
-9.37578e-10
-7.15137e-09
6.37207e-09
5.30332e-09
-9.79547e-10
-1.41688e-09
-2.90701e-09
4.14276e-09
-9.17069e-09
-1.76579e-09
6.79373e-09
-4.17218e-09
-5.67226e-09
1.1429e-08
-1.58458e-09
5.38124e-09
-3.65245e-09
-2.27235e-09
5.43499e-10
1.88169e-09
2.26461e-09
1.15691e-09
6.39303e-09
-2.46969e-09
-4.44499e-09
5.21613e-10
-2.81127e-09
4.32682e-09
-5.68774e-09
4.90224e-09
2.01098e-09
-7.20556e-09
2.92369e-10
5.9739e-09
-5.25316e-09
-5.6559e-09
-2.82502e-09
6.05574e-09
2.42506e-09
7.02273e-09
-9.69838e-09
2.773e-09
-9.74026e-11
-4.21206e-10
-5.02158e-10
3.73338e-09
-2.81003e-09
-1.7624e-09
2.27459e-09
3.04804e-10
-8.17051e-10
-1.48193e-09
5.00513e-09
-4.27401e-09
7.50777e-10
-1.51748e-09
-1.28327e-09
2.68919e-09
1.11439e-10
6.66206e-09
-5.58353e-09
2.47501e-10
-1.3261e-09
-3.69943e-09
-1.15091e-09
-7.20659e-10
-1.12182e-08
1.37287e-08
-8.70673e-09
6.19623e-09
3.07788e-09
-5.19851e-09
-5.05272e-09
7.17337e-09
-2.85013e-09
-4.71545e-10
3.80005e-09
-4.78323e-10
-3.9705e-09
-1.71583e-09
4.73396e-09
9.5232e-10
2.22318e-09
-3.77881e-09
1.20055e-09
3.55033e-10
-3.39256e-09
4.43041e-09
-3.23264e-09
-1.59786e-09
4.28489e-10
4.74626e-09
-8.80324e-10
3.14018e-09
-7.00622e-09
-3.72806e-09
-2.91407e-09
2.86337e-09
2.41317e-09
1.5009e-09
-4.5041e-09
5.9e-10
-2.68644e-09
5.58052e-09
-5.33584e-09
9.84738e-10
2.88606e-09
5.5961e-10
3.69531e-09
-1.95441e-09
6.72293e-10
-3.08749e-10
2.36941e-09
-2.50531e-09
4.44563e-10
-6.59266e-10
-3.65551e-09
3.86258e-09
4.5215e-10
-5.25999e-09
3.95684e-09
7.31061e-10
5.71989e-10
-1.72313e-09
6.56691e-10
6.88668e-10
3.77804e-10
6.48878e-09
-5.44417e-09
6.34856e-09
-7.39326e-09
-1.0093e-09
3.50047e-09
-3.95564e-09
1.46452e-09
-3.47077e-09
-9.24184e-10
3.92399e-09
4.70981e-10
9.80101e-10
-5.51585e-10
1.82209e-09
-2.25063e-09
1.76436e-09
1.06716e-09
-3.16236e-09
3.30815e-10
-1.0935e-09
3.36975e-09
-2.74658e-09
4.70285e-10
-2.42231e-09
-5.59881e-09
7.56008e-09
4.61028e-10
-3.64683e-09
3.72221e-09
-1.05494e-09
-2.75226e-09
2.6847e-09
4.21034e-09
4.68249e-09
-6.79859e-09
3.99775e-09
2.59553e-09
3.00238e-09
-4.70944e-09
-8.88513e-10
4.34263e-09
1.33949e-09
-4.47469e-09
-1.20746e-09
2.31401e-09
2.44111e-09
-3.72648e-09
-1.02868e-09
3.74418e-09
-9.06551e-09
1.87819e-09
3.44309e-09
4.7487e-09
1.58441e-10
5.61837e-09
-3.15914e-09
-1.68706e-09
-7.72093e-10
5.14593e-09
8.81454e-10
-4.55052e-09
3.00146e-09
1.78728e-09
3.57242e-10
3.22659e-09
-2.70769e-09
-5.68061e-09
5.16191e-09
4.43112e-09
-7.83997e-09
6.96425e-09
-3.55545e-09
5.91928e-09
-4.27519e-09
2.67127e-10
-4.12118e-09
1.58386e-09
4.37722e-09
-1.83994e-09
-3.12201e-09
5.20633e-09
7.24253e-10
-2.80872e-09
1.15228e-09
-4.13464e-10
6.58355e-09
-1.65551e-09
-4.18427e-09
5.41777e-09
4.21892e-10
-4.76288e-09
-1.92214e-09
-1.56735e-09
8.25257e-09
8.76797e-09
-8.26397e-10
-3.72459e-09
-4.21694e-09
5.01138e-09
3.98553e-09
-6.24187e-09
-2.75501e-09
5.1369e-09
-2.09077e-09
-5.26059e-11
-2.99365e-09
2.30934e-09
-4.35766e-09
8.34778e-10
1.2851e-09
6.20277e-09
-2.39692e-09
-5.09085e-09
3.17255e-09
-4.93738e-09
1.78043e-09
-1.55311e-11
-4.50196e-09
-3.91078e-09
3.77747e-09
4.6353e-09
5.07962e-09
2.84873e-09
-3.95962e-09
-3.96873e-09
4.14738e-09
-4.10355e-09
-6.03292e-10
5.59508e-10
4.13666e-09
-3.77729e-09
-7.96228e-10
4.36868e-10
9.33283e-10
2.48768e-09
4.27909e-10
4.466e-09
1.84729e-09
-5.3802e-09
2.11186e-09
2.47667e-09
-4.95954e-09
3.71127e-10
3.89751e-09
-6.24376e-09
5.31288e-09
1.32691e-09
-8.05248e-09
4.34474e-09
6.88562e-09
-4.28661e-09
-6.94373e-09
4.35114e-09
-3.63278e-09
4.37833e-09
-5.09671e-09
-5.82489e-09
-2.22153e-09
4.34504e-09
-5.14655e-09
8.24116e-10
-2.26308e-11
3.36076e-09
-1.71134e-09
1.99251e-10
1.96066e-09
-3.14642e-09
1.04368e-09
1.42282e-10
-2.62445e-09
2.22223e-09
4.73623e-09
-4.33391e-09
8.9537e-09
-5.32264e-09
3.87438e-09
-1.14462e-09
6.22399e-09
-2.14188e-09
4.28156e-09
-3.96556e-10
3.63026e-09
-9.51358e-09
-2.01201e-09
7.8954e-09
-2.70887e-09
1.74628e-09
-3.78138e-09
4.74404e-09
-6.5376e-09
4.89697e-09
6.28117e-09
-4.64074e-09
3.7486e-09
-2.62952e-09
-5.5188e-09
4.3996e-09
-3.02256e-09
5.14852e-09
-3.60897e-09
1.48295e-09
1.86873e-09
-4.80837e-09
-1.38828e-09
4.3281e-09
-1.15865e-09
4.00301e-09
-8.62183e-09
5.77759e-09
-5.43518e-09
2.93915e-09
-4.14187e-09
6.63802e-09
-5.034e-09
-2.47887e-09
1.71161e-09
5.80128e-09
-4.14798e-09
-1.53468e-09
5.3933e-09
-4.32157e-09
5.18686e-12
-4.53165e-09
-1.81675e-09
3.1272e-09
-6.74555e-09
-1.75012e-10
4.74013e-09
-4.78896e-09
-7.85674e-09
-3.76407e-09
1.06606e-08
9.60248e-10
4.38001e-10
-3.72617e-09
1.78631e-09
1.50182e-09
-2.21882e-09
-1.77671e-09
3.53145e-09
4.64046e-10
-2.81632e-09
5.89147e-10
5.88277e-09
-6.59063e-09
-8.89932e-10
6.35859e-10
-6.54874e-09
3.72744e-09
2.18543e-09
-3.14702e-09
3.14679e-09
-4.90458e-09
4.90482e-09
7.17937e-09
-1.48874e-09
-6.53975e-09
-4.4646e-09
-1.45795e-12
2.51407e-09
-3.52485e-09
4.37677e-10
2.57323e-09
8.48162e-10
3.01296e-09
-7.9182e-10
2.02907e-09
2.12944e-11
5.04063e-09
-3.28353e-09
2.76361e-09
-4.52058e-09
-1.34409e-09
4.74849e-09
-3.23416e-09
-1.7025e-10
-3.03189e-09
-7.15138e-10
-2.04052e-09
1.94903e-09
-3.36543e-09
3.22881e-10
-3.28004e-09
9.89481e-11
4.94653e-10
-4.936e-09
4.36069e-09
-5.67693e-09
6.25238e-09
1.60244e-09
1.3779e-09
-3.28933e-09
3.09161e-10
1.80323e-09
-8.06072e-09
-3.81906e-10
6.63937e-09
4.24511e-10
-3.70969e-09
2.72567e-09
5.59571e-10
8.02329e-09
-1.20861e-08
3.73582e-10
3.6892e-09
6.68742e-09
-1.07996e-08
-1.26984e-09
5.38203e-09
2.4158e-09
-8.44279e-09
-6.06408e-10
6.63384e-09
2.32887e-09
1.55882e-09
-5.70417e-09
2.14973e-09
-3.98219e-09
-2.09616e-09
3.55697e-09
1.45594e-09
1.27578e-09
-1.75638e-09
-1.35703e-10
-5.39227e-09
3.33237e-10
-1.97789e-09
2.17731e-09
3.87441e-09
-2.65073e-09
-3.40097e-09
1.04705e-09
4.1887e-09
-5.39037e-09
1.54623e-10
3.85561e-09
-8.48878e-09
1.83282e-09
-3.54893e-09
1.66142e-09
5.46298e-11
2.44467e-09
-4.33751e-09
8.35805e-11
-5.9184e-09
-5.44482e-09
3.58294e-09
7.78025e-09
5.6327e-09
-5.34154e-09
2.01167e-09
-1.6958e-09
2.42372e-10
8.96425e-11
-3.18632e-09
3.35572e-09
-2.58912e-10
5.28675e-09
-3.14386e-09
-2.38612e-09
2.43328e-10
1.43888e-09
-5.99395e-09
2.30645e-09
2.24864e-09
3.35324e-09
-3.25409e-09
-5.63507e-09
5.53588e-09
3.08274e-09
2.9048e-09
-6.2941e-09
3.06528e-10
1.02208e-08
-1.06281e-08
-4.82958e-09
5.23683e-09
6.43353e-10
2.9248e-09
-4.8577e-09
-7.02661e-09
-1.27379e-09
3.99557e-09
4.30499e-09
-1.77729e-09
9.01014e-10
-2.98762e-09
3.86408e-09
-9.49037e-10
3.28227e-09
2.41668e-10
-9.51775e-10
-3.23278e-09
3.94122e-09
2.43289e-10
1.20054e-11
3.26294e-09
2.51835e-09
-1.64903e-09
2.71616e-10
1.13069e-09
2.46951e-10
-1.2864e-09
3.65325e-10
-1.71527e-09
-2.86445e-09
4.21681e-09
3.62854e-10
2.01957e-09
-3.33784e-09
2.0086e-09
-6.90271e-10
-4.03921e-09
-2.7159e-10
-6.72492e-09
3.28262e-10
6.33341e-09
6.33374e-11
1.9519e-09
7.32682e-09
-1.8766e-09
7.45655e-10
1.17474e-09
-2.26805e-09
3.47629e-10
1.93487e-09
5.70736e-10
-5.67966e-10
5.03275e-09
-7.44355e-09
2.97885e-09
4.64571e-09
-6.7003e-09
5.26048e-09
-3.20583e-09
2.44016e-09
-3.65595e-09
-1.50069e-09
9.0625e-13
2.75647e-09
-3.35743e-09
6.00161e-10
-2.82149e-09
1.35837e-09
1.44011e-09
2.31754e-11
5.22142e-10
6.62064e-09
-7.57085e-09
4.28153e-10
-3.57923e-09
3.21301e-10
2.72173e-09
5.36289e-10
2.63504e-09
-1.36172e-09
-1.63822e-09
3.64882e-10
1.76962e-09
3.62901e-09
1.49427e-09
-6.89283e-09
4.80844e-09
4.98248e-09
-2.90194e-09
-6.88894e-09
4.68567e-09
-2.90632e-09
-1.62951e-09
-1.50014e-10
6.32607e-09
-4.86445e-09