/*--------------------------------*- C++ -*----------------------------------*\
| =========                 |                                                 |
| \\      /  F ield         | OpenFOAM: The Open Source CFD Toolbox           |
|  \\    /   O peration     | Version:  v1612+                                |
|   \\  /    A nd           | Web:      www.OpenFOAM.com                      |
|    \\/     M anipulation  |                                                 |
\*---------------------------------------------------------------------------*/
FoamFile
{
    version     2.0;
    format      ascii;
    class       surfaceScalarField;
    location    "100";
    object      phi;
}
// * * * * * * * * * * * * * * * * * * * * * * * * * * * * * * * * * * * * * //

dimensions      [0 3 -1 0 0 0 0];

internalField   nonuniform List<scalar> 
37717
(
-6.11549e-09
3.72123e-09
-5.93532e-09
8.32958e-09
-1.06343e-09
-7.26984e-09
2.21785e-09
-4.99149e-09
-1.84698e-09
1.05597e-08
-6.59191e-09
5.36987e-10
3.6552e-09
-7.41601e-09
-3.50899e-09
-3.18896e-09
9.08824e-10
1.10665e-08
4.13632e-09
-1.31261e-09
-1.38902e-08
-4.7555e-09
9.23011e-09
-9.94164e-09
-6.26445e-09
7.69134e-09
8.51477e-09
4.49982e-09
-9.75349e-09
-4.68792e-09
1.60395e-08
5.3611e-10
-1.24392e-08
5.01958e-09
-6.23664e-09
1.2081e-08
-2.68093e-09
9.44101e-10
1.84803e-09
-1.05767e-08
-2.63968e-09
-6.57773e-09
-6.52182e-09
6.51916e-10
-7.31344e-09
1.02509e-09
-3.11032e-09
-4.78164e-09
6.8668e-09
-2.28895e-09
-4.44798e-09
7.76199e-09
6.42897e-10
3.65343e-09
-1.20274e-08
7.73106e-09
-9.44997e-09
6.98252e-09
-6.22411e-09
7.58858e-09
1.41636e-09
-4.87382e-09
-1.3242e-09
-3.69066e-09
6.59046e-10
1.01087e-08
6.131e-09
-1.27122e-08
-3.5276e-09
4.45647e-10
2.13078e-10
-9.6121e-10
-4.93525e-09
-8.63757e-10
-6.79079e-09
1.43043e-09
5.60181e-09
1.03662e-09
-1.76856e-09
-4.86991e-09
-4.52037e-09
-3.40395e-11
1.17363e-09
-3.83527e-09
-3.91674e-09
3.48023e-09
-4.86082e-09
-2.45468e-09
-3.52339e-12
4.09664e-09
2.30696e-09
-2.43133e-09
-3.97262e-09
1.16008e-09
5.74342e-09
-2.8069e-09
-7.03723e-09
1.07745e-08
-2.57725e-09
-3.50562e-09
4.52266e-09
-8.05436e-09
-1.17868e-09
2.1475e-09
4.77434e-09
1.10021e-09
2.7857e-11
1.15689e-09
-7.09394e-09
2.40847e-09
8.78448e-10
1.23557e-09
8.7655e-09
4.41746e-09
-8.87387e-10
-1.74312e-09
3.63383e-09
-1.004e-09
-1.31503e-09
-2.02281e-09
2.44957e-09
-2.83129e-09
-2.26965e-10
-1.91353e-09
1.82356e-10
3.03104e-09
-3.78771e-09
1.88664e-09
1.7276e-09
1.0204e-08
-6.84276e-09
-5.08873e-09
1.17917e-08
-4.28404e-09
-5.78005e-09
-5.53738e-09
1.43298e-08
2.9993e-09
-3.54133e-09
8.20794e-09
-1.42064e-08
2.77724e-09
-1.56763e-09
1.29968e-08
-7.8125e-09
-6.98522e-09
5.91441e-10
-9.20628e-09
6.36807e-09
-4.97426e-09
9.50229e-09
-8.03653e-09
-5.74978e-09
1.24489e-09
6.2413e-09
6.84363e-09
1.4924e-08
3.42992e-09
-8.85168e-09
7.16754e-09
9.00137e-09
4.64227e-09
8.6e-09
-7.00092e-09
-7.31917e-09
-6.58435e-09
1.32528e-10
1.3771e-08
-1.33615e-08
7.97466e-09
-1.93221e-09
-1.37651e-08
1.43482e-08
-5.21591e-09
-5.1193e-09
8.71095e-09
-3.9361e-09
-8.20438e-09
-1.03731e-08
6.76093e-10
-5.33721e-09
1.51921e-09
3.14194e-09
2.82043e-09
-6.21107e-09
4.06678e-09
-3.67299e-09
-6.38991e-09
4.72572e-09
-4.86774e-09
1.43842e-09
-2.43665e-10
-4.49178e-09
1.4025e-09
4.60853e-09
-1.90243e-09
-4.81031e-09
3.22913e-10
-5.74424e-09
-1.02592e-09
-2.95385e-09
-9.9393e-11
-5.83195e-10
-3.68363e-09
5.6694e-09
-4.28172e-09
6.51898e-09
-1.77424e-10
4.60668e-09
-6.91485e-09
3.05382e-09
-2.18552e-09
3.87074e-09
-5.07446e-09
-6.48978e-11
-1.26166e-08
7.18599e-09
-6.40491e-09
1.18356e-08
4.70337e-09
1.01228e-08
4.31088e-09
-1.91372e-08
5.68375e-09
-1.35971e-08
-3.34477e-09
3.51621e-09
-9.7764e-09
9.60485e-09
3.41139e-09
-1.71867e-08
1.04305e-08
9.54227e-09
-3.3712e-09
1.0149e-09
6.40297e-09
-6.24076e-09
9.38005e-09
6.50918e-09
4.20822e-09
-5.94637e-10
3.86292e-09
-1.55044e-09
7.99331e-09
1.53088e-08
-1.89912e-08
6.96353e-09
2.22934e-09
-1.19962e-09
4.40196e-09
-1.18359e-08
1.08452e-08
-2.84316e-09
1.07613e-08
-1.65878e-08
1.17154e-08
8.92465e-09
-1.02037e-08
3.31812e-09
-6.5854e-09
-4.94395e-09
8.113e-09
-2.0208e-09
1.16728e-08
6.16921e-09
5.40102e-09
-1.62148e-08
4.64448e-09
4.6829e-09
-1.31155e-08
1.46017e-08
-5.81044e-09
-5.30011e-09
1.57934e-08
-7.46668e-09
7.05722e-09
-1.716e-08
-1.12297e-08
1.52742e-08
-2.16232e-08
-1.31041e-08
1.55817e-08
1.91454e-08
1.78313e-09
5.30861e-10
-2.39372e-08
1.38442e-09
-1.27054e-08
-7.76041e-09
1.01407e-08
-7.68046e-09
-7.59096e-09
-8.63311e-09
9.23127e-12
-1.72171e-08
-7.53389e-09
-3.40849e-09
2.43757e-09
-1.91238e-08
-1.08373e-08
3.96004e-09
-5.89476e-10
-7.14533e-10
-8.64977e-09
1.07487e-08
1.24247e-08
-1.07017e-08
-7.04571e-09
-8.85486e-09
2.48309e-09
-3.64714e-10
6.73643e-09
-6.45877e-10
-4.43677e-09
-3.77224e-09
1.7563e-09
-7.44499e-09
8.17174e-09
-1.05822e-08
2.06619e-09
8.15123e-09
-6.40548e-09
-4.82256e-09
-3.31811e-10
-4.68365e-09
6.7717e-09
-4.86418e-09
4.72895e-10
-3.05375e-09
-6.93862e-09
-2.36234e-09
-7.45282e-09
9.18717e-09
-1.22848e-08
-6.46356e-09
1.12955e-08
-3.96297e-09
-5.50128e-09
-2.82052e-09
7.14325e-09
-7.14295e-09
-3.96331e-09
-2.02053e-09
2.70017e-09
-2.65931e-09
-1.55149e-09
-7.32165e-09
-4.58513e-09
-4.93211e-09
2.52235e-10
-8.6967e-09
-3.37838e-09
1.73394e-08
1.82006e-08
-1.7086e-08
-1.84541e-08
-4.51983e-09
7.65104e-09
1.42081e-08
3.72085e-09
9.95995e-09
1.25549e-08
6.10396e-09
-1.67096e-08
-1.9494e-09
-7.45377e-09
3.94565e-09
1.6063e-08
6.30119e-09
-2.4991e-08
4.99899e-09
1.32235e-08
6.7684e-09
-6.91626e-09
7.3003e-09
-2.5375e-08
8.6962e-09
-1.26157e-08
7.64035e-09
-2.14096e-08
5.64884e-09
2.4457e-08
2.1874e-08
-1.54063e-09
-2.72496e-08
1.01634e-08
1.44819e-08
-1.98978e-08
-7.19985e-09
-1.35718e-08
6.64413e-09
-1.99526e-08
1.6392e-08
1.67841e-08
1.64903e-09
-1.43013e-08
2.59865e-08
5.15135e-09
-2.3778e-08
2.27396e-09
-1.70204e-08
-9.64881e-09
-1.34824e-09
-1.61163e-08
1.71165e-08
3.48281e-10
-9.68307e-09
9.48189e-09
-1.14704e-09
-2.75525e-09
-1.09013e-08
-2.45969e-09
-9.22098e-09
-3.21728e-09
1.34436e-09
-1.87957e-08
1.50562e-08
2.39532e-09
-1.1261e-09
-2.49045e-09
2.07331e-08
-1.73387e-09
1.00897e-08
1.23201e-08
-1.4168e-08
3.19244e-09
1.41638e-08
6.10538e-09
-7.94908e-09
1.01154e-08
6.64623e-09
-6.07934e-09
-1.06823e-08
-1.14369e-09
1.57275e-08
-1.70742e-08
-1.14501e-09
9.52662e-09
1.18751e-08
-1.04868e-09
1.01411e-08
-1.12543e-08
2.16193e-09
6.96379e-09
1.17006e-09
-9.18257e-09
-1.0811e-08
-8.15704e-11
-2.1818e-09
1.30741e-08
1.17568e-09
-5.02295e-09
1.15504e-08
-1.49087e-09
-1.79056e-09
4.34457e-09
-1.38083e-08
-1.22278e-09
7.45539e-09
-8.41473e-09
6.30467e-09
-1.2215e-09
1.38559e-08
-1.89391e-08
8.97768e-09
5.39514e-09
-8.06799e-09
3.52576e-09
-1.42419e-08
9.49461e-09
1.05118e-09
-7.706e-09
1.01807e-08
1.51882e-09
-9.8589e-09
7.11688e-09
-1.39217e-08
1.16304e-08
3.81014e-09
7.25985e-10
1.18476e-08
-8.07615e-09
-4.49707e-09
-8.31363e-09
3.3695e-09
-4.31668e-09
-8.05019e-09
1.44966e-08
-4.72598e-09
3.35586e-09
3.96101e-09
-2.59092e-09
-3.59512e-09
-2.68241e-09
2.67716e-09
1.41421e-09
-4.79558e-09
7.04012e-10
3.16369e-09
-3.66486e-10
-1.20096e-10
9.19266e-09
-2.00943e-09
9.885e-10
1.04997e-09
-9.48008e-10
9.09066e-09
-6.32373e-09
4.84286e-10
6.88939e-09
-4.74945e-10
-5.66643e-09
-1.82364e-10
-3.25721e-09
-3.34663e-10
4.07612e-09
-5.68454e-10
8.26122e-11
5.74103e-09
-6.20341e-09
-1.47245e-09
3.10377e-09
-7.84295e-09
9.53354e-10
-2.95271e-09
2.73778e-09
-7.39203e-10
-1.56806e-09
3.98875e-09
-1.46738e-09
1.29082e-09
-1.92235e-09
-3.5726e-09
4.20399e-09
-2.15178e-10
2.01959e-09
-5.13687e-10
-1.89522e-09
-2.26283e-09
2.58985e-09
4.50397e-09
-2.75826e-10
-2.1987e-09
-2.02948e-09
7.45964e-09
-5.90842e-09
-1.50304e-09
-6.07396e-10
8.46481e-10
-1.10164e-09
-1.66731e-09
-1.30303e-09
4.42924e-09
-2.27973e-09
5.1594e-10
-3.05593e-09
1.43817e-09
-1.57681e-09
-9.61839e-10
-2.56391e-09
2.60803e-09
-6.67823e-09
-5.01254e-09
9.08269e-09
-2.44413e-09
5.79924e-09
-7.471e-10
3.51721e-09
-1.53299e-09
-4.42837e-09
-7.64231e-09
-2.20274e-09
3.1668e-09
-3.26728e-10
7.28889e-09
-1.16292e-09
2.38002e-09
-6.45019e-09
7.46233e-09
-3.39212e-09
6.0525e-09
-1.55271e-10
4.56643e-09
-1.01817e-08
-8.34857e-10
-1.42281e-09
7.14863e-09
6.65217e-09
-6.12629e-10
-1.09249e-08
1.63904e-09
1.38523e-08
6.40514e-09
-4.51402e-09
-5.6634e-09
-3.24531e-09
6.32085e-09
3.32957e-09
1.10967e-08
-8.28773e-09
9.60232e-09
-1.24114e-08
3.82111e-09
4.03032e-09
1.29263e-09
-1.40944e-08
3.37411e-09
9.68315e-09
-1.55334e-08
7.70663e-09
1.16478e-08
-3.03195e-09
-2.89913e-09
1.10695e-08
-1.45994e-08
1.82573e-08
-7.17657e-09
-5.53375e-09
1.35713e-08
9.24941e-09
-3.87248e-09
-3.22784e-09
-2.14912e-09
-5.19413e-09
4.93602e-09
9.50758e-09
7.014e-09
-4.19405e-09
-6.69244e-09
1.49392e-10
1.67045e-09
-5.29926e-09
1.73272e-09
3.71591e-09
-3.78943e-09
2.00208e-09
-3.51192e-09
-3.43511e-10
-7.63996e-09
7.53118e-09
-3.12953e-09
-2.39956e-09
-3.85601e-09
6.93376e-09
4.45345e-09
1.07662e-08
-8.71159e-10
-4.95898e-09
4.06706e-09
-8.99439e-09
4.58383e-09
-6.79777e-09
1.60799e-09
1.33379e-09
-5.86025e-09
-1.1568e-08
-4.47417e-09
1.43916e-08
1.65054e-09
-1.01852e-08
-6.00031e-09
4.61758e-09
-5.05521e-09
-5.82104e-09
2.67008e-09
8.20623e-09
4.91834e-09
9.47166e-09
-6.57025e-09
-7.81977e-09
9.8561e-09
-2.68283e-09
-2.25493e-09
-7.76363e-10
9.1158e-09
-1.28136e-08
6.01475e-09
-1.18463e-08
-8.73198e-09
9.35969e-09
9.22839e-09
1.67626e-09
-9.36528e-10
-1.95721e-09
4.46356e-09
-5.18919e-09
-1.18587e-08
3.33124e-09
-7.78015e-09
2.05843e-09
9.7e-09
-6.84728e-09
-7.8174e-09
4.96467e-09
-4.33251e-10
1.12047e-08
-9.09522e-09
-1.88322e-09
5.27925e-09
2.27341e-09
2.89511e-09
-1.69688e-10
6.58078e-09
1.78242e-09
-1.84418e-09
-2.21486e-10
5.29867e-10
6.27247e-09
-5.86855e-10
-4.27333e-09
8.66486e-10
3.99378e-09
4.47094e-09
-1.61701e-09
2.3877e-10
9.27511e-09
4.69704e-10
-7.96234e-09
-4.45068e-11
9.8495e-09
4.06328e-09
4.40349e-09
-5.32481e-09
2.27158e-09
1.7476e-10
-5.85679e-09
6.67878e-09
7.07009e-09
-2.78609e-09
1.19481e-10
3.48489e-09
3.94878e-10
1.49535e-09
6.82981e-09
-8.72068e-09
3.52524e-10
7.03203e-09
-6.98997e-09
-1.83746e-09
9.38492e-09
-7.19511e-09
-8.84176e-09
4.5806e-09
-6.45348e-09
8.90472e-09
5.11821e-09
-1.26722e-08
-5.08451e-09
-1.89647e-09
4.95095e-09
1.09801e-08
-1.37529e-09
4.66114e-09
-1.4266e-08
1.21398e-08
-2.34644e-09
2.96915e-09
-1.27625e-08
6.26723e-09
1.68525e-08
-2.82096e-09
2.75931e-09
-9.76415e-09
9.82568e-09
1.95336e-09
-1.09267e-08
6.15218e-09
1.00094e-08
-1.5459e-09
-3.1901e-09
7.38409e-09
2.78758e-10
-2.68182e-09
1.17083e-08
-8.61752e-09
7.88896e-09
1.25221e-09
-3.62562e-09
-1.12787e-09
8.65693e-09
4.76313e-09
1.25333e-08
2.58496e-09
7.98663e-09
-7.62196e-09
-2.94959e-09
5.91694e-09
-3.42042e-09
8.84534e-11
7.38718e-09
1.59407e-09
-9.94582e-10
7.73399e-09
5.57008e-09
-6.53098e-09
3.52876e-09
-4.18222e-10
2.41224e-09
-7.02937e-10
6.02466e-09
2.7062e-09
-4.44533e-09
-5.88285e-09
-2.05259e-09
-1.77219e-09
-8.59637e-09
7.21963e-10
1.02866e-08
-7.08513e-09
8.27946e-11
-5.88323e-09
8.72998e-10
4.30722e-09
-2.20011e-09
-1.54426e-10
1.04657e-09
5.98809e-09
-1.148e-08
5.01137e-09
5.86545e-09
-9.83031e-09
5.87111e-09
-2.91238e-09
-8.2903e-09
1.8738e-09
7.28946e-09
4.31795e-09
-5.41505e-09
1.10862e-08
2.7828e-09
-8.00363e-09
-1.58564e-09
1.40754e-08
-1.40364e-09
6.12712e-09
-1.8417e-09
-4.63624e-09
-8.15271e-09
4.49855e-09
-7.09303e-10
-7.72709e-09
1.03228e-08
1.05891e-08
-3.48837e-09
3.70679e-09
2.2159e-09
6.56877e-09
-1.05226e-09
-5.78943e-09
7.7439e-09
-9.02247e-10
7.03638e-09
-6.22108e-09
-1.86759e-09
6.5627e-09
-1.09812e-08
-1.37101e-09
-6.22631e-09
6.84867e-09
7.12152e-09
-7.62747e-11
8.86331e-10
-6.69428e-09
6.70446e-09
6.55252e-09
1.26042e-08
-2.73655e-09
3.81019e-09
-1.36778e-08
-7.80297e-10
6.69019e-09
1.42171e-11
-1.37319e-08
1.25409e-09
-7.46097e-09
1.38238e-08
1.0775e-09
-1.10911e-08
6.47247e-09
6.57099e-09
-5.41285e-10
-6.29368e-09
-6.659e-09
5.87827e-10
-7.67026e-09
7.88703e-10
1.26328e-09
-7.33447e-09
1.09397e-08
-1.30575e-09
-8.55646e-09
9.74189e-09
-7.21309e-09
7.16141e-09
-2.22855e-09
-1.06383e-08
1.24157e-08
4.51437e-10
-1.16921e-08
6.35329e-09
3.11043e-09
-9.12186e-09
3.45171e-09
-6.02191e-09
-1.2041e-08
1.30232e-08
-1.16206e-08
-4.48256e-09
1.14725e-08
1.07055e-08
-1.76953e-08
6.29766e-09
5.76192e-09
-1.65421e-08
-7.33187e-09
-1.24757e-08
4.79493e-09
1.50126e-08
-1.49608e-08
-4.41202e-09
-4.02844e-09
-1.05063e-08
2.55553e-09
1.19793e-08
-1.15131e-08
-1.63722e-09
-2.43832e-09
-1.04992e-09
-5.03443e-09
1.48728e-08
8.67015e-10
7.02564e-09
-5.76243e-09
-8.1091e-09
1.28191e-08
8.09894e-09
-1.51562e-08
-4.07992e-09
1.44608e-08
8.87493e-10
-3.74005e-09
1.09515e-08
-3.59993e-09
1.09491e-08
-1.93055e-09
-1.07963e-08
1.77781e-09
-3.60746e-09
-8.46797e-09
1.80001e-09
1.02755e-08
2.56737e-09
1.04252e-08
2.10694e-10
-1.32031e-08
6.20702e-09
-1.37219e-09
-8.44221e-09
9.7391e-09
-3.02149e-09
2.07732e-09
-8.79462e-09
-2.00213e-10
1.02651e-08
-3.85775e-09
8.9727e-09
-3.20086e-09
-4.95618e-09
-8.15585e-10
-1.28934e-08
3.37616e-09
1.20846e-08
2.84572e-09
-5.99988e-09
8.39442e-09
-1.6545e-08
2.33225e-09
5.81846e-09
1.03517e-08
1.41891e-09
5.02627e-09
-9.41987e-09
-7.85596e-09
-3.97536e-09
1.16311e-08
-8.81629e-09
-4.88309e-09
-1.1646e-08
3.47977e-09
-4.6259e-09
4.12415e-09
-2.97817e-09
-1.04179e-09
-1.57393e-09
6.09537e-09
3.58045e-09
-1.0948e-08
7.65963e-10
6.60152e-09
-5.81253e-09
1.70145e-09
7.69144e-09
-4.85491e-09
2.62309e-09
9.40859e-09
-7.17692e-09
-5.68585e-10
-2.71388e-09
-1.57258e-09
5.23064e-09
-2.53324e-09
-3.73931e-09
2.45337e-09
4.62209e-09
-2.14334e-09
-1.6523e-10
3.91252e-09
-1.29397e-09
2.74934e-09
-8.07653e-09
-5.62088e-09
1.13879e-10
-3.17714e-09
2.52938e-09
-7.79872e-09
6.03521e-09
6.85389e-09
1.21637e-09
-3.78451e-09
-2.23806e-09
-2.48381e-08
-1.377e-09
1.14672e-08
1.47479e-08
-1.07238e-08
-6.83742e-10
-1.34306e-08
1.90171e-08
-1.33362e-08
-1.64048e-08
-1.26305e-08
2.3668e-08
7.97968e-09
1.03601e-08
-7.50775e-09
-1.16056e-08
8.75322e-09
-9.64783e-09
3.46573e-09
-1.8466e-08
9.58118e-09
-8.29775e-09
-1.0852e-08
-1.24703e-08
2.14262e-09
-2.30299e-09
-7.06632e-09
-1.87401e-08
8.47726e-09
2.66579e-08
2.6213e-09
-1.43098e-08
8.27639e-11
-9.39999e-09
2.37345e-09
9.67353e-09
3.0782e-09
-1.98183e-08
1.16629e-08
2.88472e-09
-4.87426e-09
1.38448e-08
-3.91922e-11
-1.16976e-08
2.36405e-08
-9.21149e-09
-1.33962e-08
8.83131e-09
-1.49648e-08
1.3282e-08
-1.56602e-09
-1.50893e-09
3.65617e-09
2.37311e-09
-1.47451e-09
-2.13357e-09
1.1623e-08
-8.01481e-09
-3.22512e-09
8.64879e-09
-2.62911e-09
4.93447e-09
7.45561e-09
-7.15606e-09
8.80888e-09
-9.1084e-09
5.68962e-09
1.40813e-09
3.57901e-10
-2.05033e-09
1.00797e-08
-1.01629e-08
-1.18355e-08
4.26768e-09
6.71523e-09
-2.17399e-09
2.13755e-09
4.24327e-09
8.33265e-09
-9.52937e-10
8.11042e-09
4.78167e-09
1.562e-09
1.03959e-08
-3.84751e-09
-6.18233e-09
8.28705e-09
-5.42745e-10
1.6027e-10
4.21993e-09
8.85289e-10
5.2907e-09
1.02521e-08
-6.45852e-09
1.315e-09
-9.88855e-09
5.58463e-09
5.7365e-09
-2.11535e-09
4.18061e-09
-4.83646e-10
3.12606e-09
1.26236e-08
-1.52662e-08
5.09284e-09
2.90839e-10
-5.86742e-09
-8.86065e-09
5.0609e-09
6.39337e-09
-2.59366e-09
-8.82806e-09
5.06022e-09
-3.25211e-09
-5.99771e-09
-2.74535e-09
1.19951e-08
3.74242e-09
-6.20048e-09
-7.94073e-10
2.04979e-09
-7.00526e-09
1.15675e-08
-6.61216e-09
-1.58498e-09
6.18554e-09
-2.55083e-09
1.98914e-09
-9.0476e-09
-3.86125e-09
1.09197e-08
-9.99535e-09
6.67121e-09
-2.67083e-09
5.99494e-09
-4.26471e-09
-5.21572e-09
-5.14944e-10
9.40305e-09
-5.92718e-09
-3.39641e-10
-4.67654e-09
-9.56989e-09
6.79382e-09
-4.917e-10
-6.87794e-09
5.7596e-10
-1.77085e-09
1.92456e-09
6.64008e-09
-8.12122e-09
9.29849e-10
5.42058e-09
-3.57334e-09
4.86554e-10
5.01141e-09
-4.02474e-09
-4.03631e-11
-4.82192e-09
-6.93512e-09
3.63589e-09
4.33225e-09
-2.65148e-10
-8.88897e-09
2.02044e-09
-4.56615e-09
-2.50834e-09
4.04487e-09
-3.29234e-09
1.75585e-09
2.79726e-09
-5.57062e-09
-1.15782e-09
-8.46313e-10
1.87961e-09
5.5132e-09
-6.46284e-09
-2.95642e-09
5.32271e-09
-2.28495e-09
3.37348e-09
-6.45536e-10
9.97985e-09
-2.09012e-08
8.45456e-09
2.46674e-09
5.06236e-09
-6.16071e-09
1.10782e-08
-8.62307e-09
-1.85402e-08
6.26197e-09
-1.86925e-08
1.10469e-08
-9.77368e-10
1.51729e-08
-1.33189e-08
6.60053e-09
1.89876e-08
1.24769e-09
1.53015e-08
7.71249e-09
-4.38144e-09
-1.86325e-08
-7.58156e-10
-2.63291e-09
-3.74452e-09
8.63059e-09
3.81794e-09
-1.46456e-08
-2.44271e-08
-9.44981e-10
1.20531e-08
1.75332e-09
-2.49825e-08
1.43034e-08
8.92568e-09
1.6002e-08
-2.52695e-08
1.10208e-08
-1.90152e-08
-5.24099e-09
1.80671e-08
6.18915e-09
-4.06719e-09
1.05406e-09
-1.38687e-08
1.5614e-08
-2.50357e-09
1.03717e-08
2.68659e-09
-1.74397e-08
4.95029e-09
-8.44732e-09
1.15168e-08
-1.59117e-08
-2.08746e-08
-8.51542e-09
-2.05453e-08
-2.20885e-09
1.8687e-08
-4.45164e-09
-1.61575e-08
-1.98668e-09
1.10491e-08
9.8828e-09
7.89701e-09
-2.11221e-08
-1.70999e-08
-6.19845e-09
2.67678e-10
-2.65126e-10
6.19585e-09
-2.79582e-09
-3.60837e-09
2.05614e-10
-3.61266e-09
7.7305e-09
-7.52492e-09
3.40699e-09
-6.34393e-09
-6.45545e-11
1.29994e-10
7.86819e-09
-8.78778e-09
-8.68884e-10
9.39154e-09
-3.31161e-09
-1.06309e-08
5.15476e-09
-7.08036e-09
1.60266e-10
-6.36196e-09
4.83545e-10
-1.6466e-09
1.30582e-09
-9.97361e-09
8.79783e-09
3.5083e-09
-6.08161e-09
-3.78863e-09
-2.8979e-09
6.22388e-11
5.24136e-10
-6.33007e-09
-2.75769e-10
4.9923e-09
-3.71181e-09
-7.56386e-10
-1.02778e-08
1.07148e-08
4.78301e-09
-4.95882e-09
-6.90452e-09
-2.38659e-09
-3.46138e-09
-6.49562e-09
-2.99443e-09
-4.08054e-09
7.56995e-09
3.28798e-09
-6.77737e-09
-4.04161e-09
-6.53457e-09
-2.86448e-09
-5.09446e-09
1.18101e-08
8.45808e-09
-6.49721e-09
1.16477e-08
4.76914e-09
1.67753e-08
-8.39418e-09
7.6938e-11
7.49365e-10
9.70136e-10
1.50558e-08
6.96503e-09
-7.38452e-09
1.05528e-08
-1.07156e-08
1.13523e-08
4.45903e-09
-5.09577e-09
2.79762e-09
-8.86364e-09
-4.64954e-09
1.57584e-08
-5.99576e-09
1.41753e-09
1.5311e-08
-1.04754e-08
-6.76338e-09
8.37519e-09
1.32396e-08
1.54047e-08
3.0306e-09
-1.66393e-08
-1.79583e-09
-4.47035e-09
-1.65417e-09
2.15293e-08
1.81804e-08
-1.1204e-08
-1.75491e-08
1.05727e-08
1.84115e-08
-4.70148e-09
1.34337e-08
2.86233e-09
-1.32652e-08
-5.51988e-09
1.72994e-08
8.27763e-09
-2.62932e-08
6.8116e-09
-2.53829e-08
1.70213e-08
-2.11444e-08
-2.47436e-09
6.06961e-09
-1.47041e-08
1.16283e-08
-2.44403e-09
3.77e-09
-8.12741e-09
-1.67869e-08
7.675e-09
-2.16399e-08
-1.23283e-08
-6.27192e-09
-1.1436e-08
1.65552e-09
-4.85923e-09
-1.15004e-08
1.18193e-08
8.69279e-09
-2.30245e-08
2.51241e-09
-8.52819e-10
1.64421e-08
-1.31188e-08
1.55397e-08
-7.19093e-09
-3.36742e-09
2.78064e-09
7.77774e-09
-3.4554e-09
-4.02772e-09
2.92228e-10
6.75704e-09
-1.66602e-09
1.25974e-09
-6.35077e-09
3.35518e-09
-5.35667e-11
9.86381e-09
-9.20829e-09
-4.6832e-09
9.10775e-11
6.40535e-09
-8.8845e-09
1.15838e-08
-7.78239e-09
5.08316e-09
-7.16957e-09
2.9455e-09
7.57918e-09
-6.10867e-10
-8.22476e-09
1.19165e-08
-1.2219e-09
-7.91385e-09
-1.66491e-09
-6.28361e-09
-1.84194e-09
-8.70746e-09
-1.04407e-08
7.98784e-09
8.64258e-09
3.03235e-09
-9.25399e-09
5.68104e-10
1.17241e-08
-3.03824e-09
-7.20434e-09
7.79707e-09
2.14571e-09
5.16964e-09
1.28066e-08
7.29117e-09
1.51958e-08
-1.82111e-09
-3.6515e-09
-5.92599e-09
6.55353e-09
3.02393e-09
-1.01513e-08
7.23108e-09
-7.3127e-10
1.41201e-09
4.38607e-09
1.80019e-09
5.70336e-09
1.31439e-08
-5.01277e-09
-6.88081e-09
-1.25032e-09
-5.54151e-09
8.95946e-09
9.72592e-09
8.33031e-09
8.27755e-09
1.68471e-08
5.24795e-09
6.05764e-09
-3.40916e-09
1.99708e-09
7.96561e-09
4.77375e-09
-9.51852e-10
2.83057e-09
9.70002e-09
-3.57113e-09
5.25538e-09
8.32287e-09
1.0083e-08
6.61466e-09
3.12567e-09
-1.71499e-08
7.40941e-09
7.90421e-09
-1.8138e-08
1.68484e-08
3.36068e-09
-8.21209e-09
-2.47884e-09
7.33011e-09
-2.31093e-09
1.35757e-08
-1.1864e-08
6.77756e-09
-6.73643e-09
-8.11867e-09
-3.28307e-09
-1.23101e-08
-1.15762e-08
-3.52468e-09
-8.54866e-09
9.76231e-09
-9.7901e-09
3.78645e-09
2.41958e-10
-1.04536e-08
-1.65257e-09
-8.59186e-09
-1.04625e-08
9.26423e-09
-6.08357e-09
-2.26637e-09
-6.89729e-09
-1.58664e-08
-2.71781e-09
1.02421e-09
9.9431e-09
-8.24967e-09
9.96792e-10
-1.0612e-08
1.28944e-08
-7.41152e-09
-1.15665e-08
2.98805e-09
-5.5623e-10
-1.01444e-08
-9.14156e-09
1.07372e-08
-7.02049e-09
-1.35908e-10
1.18632e-08
-1.15785e-08
-7.30525e-09
-5.30743e-10
3.25231e-09
3.74108e-09
-1.01559e-08
-6.81327e-09
1.29366e-09
7.79998e-09
1.12893e-08
-1.4969e-08
-4.12018e-09
1.27518e-08
-5.77204e-09
8.20226e-10
-5.51222e-09
8.54727e-09
9.71673e-09
5.0184e-09
7.58655e-10
-1.08322e-08
-2.15269e-09
-2.427e-09
1.54119e-08
-3.52194e-09
9.59054e-10
-3.2091e-09
-7.35151e-09
-1.11395e-08
4.43905e-09
-7.91841e-09
1.20266e-08
-5.91232e-09
1.62464e-08
-5.89502e-09
-1.24539e-08
-5.72977e-09
-3.21664e-09
-3.74268e-09
-9.44306e-09
1.43305e-08
-3.23188e-09
9.20173e-09
-1.19323e-08
-6.71248e-09
-4.92734e-09
9.91813e-09
9.33975e-09
1.05781e-09
1.56341e-08
4.98005e-09
-9.26118e-09
2.39852e-10
4.04118e-09
1.08611e-08
5.08511e-09
-1.09662e-08
1.24611e-09
-1.00215e-08
-4.85833e-10
6.02882e-10
4.88997e-09
-4.78147e-09
-7.11452e-10
-4.66097e-10
5.78768e-09
-4.71872e-09
-6.52104e-09
3.36342e-09
3.39745e-09
1.65622e-09
7.36064e-09
-3.36107e-09
-5.65586e-09
4.12704e-09
-2.11973e-09
-3.51201e-10
2.55131e-09
8.85056e-09
-6.74603e-10
7.35294e-09
-3.79621e-09
3.80847e-09
3.61602e-09
-3.62831e-09
-5.27104e-09
1.42795e-09
4.68623e-11
-1.98267e-09
2.49929e-09
-4.61025e-09
1.43031e-09
1.06002e-09
3.3627e-09
1.42867e-09
6.49656e-09
-1.40809e-08
-2.03716e-09
1.00384e-08
6.07968e-09
-1.36172e-08
-8.86086e-09
8.39717e-09
-9.9005e-09
1.09067e-08
-7.26842e-09
6.26226e-09
9.89541e-09
-1.46531e-08
-5.14281e-09
-7.97845e-09
3.21377e-09
9.91489e-09
-5.15021e-09
-6.82175e-09
-4.59495e-10
-6.97228e-10
2.91292e-09
-1.69025e-08
1.19524e-08
4.9949e-09
7.81346e-09
1.11009e-09
1.47915e-08
6.62826e-09
5.41297e-09
-4.97492e-09
-7.06629e-09
-5.57919e-09
-2.44563e-09
-1.03558e-08
9.56743e-11
2.99171e-09
-3.08676e-10
-4.63419e-09
-5.26951e-09
9.59337e-09
-5.71002e-09
-4.43457e-09
4.87507e-09
-4.46521e-09
-1.03129e-09
-2.13559e-10
1.83106e-09
-7.46145e-09
-1.12721e-08
-4.07587e-09
-7.71027e-09
5.62849e-09
-4.71411e-11
-1.05563e-08
-7.41215e-09
-6.8022e-09
2.46329e-09
-7.81886e-09
-3.44858e-09
-7.58981e-09
-2.63243e-10
-4.88139e-09
-3.24615e-09
-3.93021e-09
-7.73547e-09
-8.85875e-09
-9.56756e-09
-6.07376e-09
5.71869e-09
9.92258e-09
2.95039e-09
-9.93678e-09
-2.58114e-09
4.18691e-09
-1.27199e-08
1.06095e-08
-2.07655e-09
-2.72707e-09
8.40184e-10
-1.44166e-09
-3.73225e-09
1.08925e-08
7.60796e-09
-4.46332e-09
-1.94299e-10
1.13245e-08
-5.15827e-09
4.04096e-09
-6.71065e-09
-5.74288e-11
2.41644e-09
-6.08302e-10
4.80166e-09
-6.60984e-09
-8.74635e-09
-1.5572e-09
-2.03478e-09
2.34347e-09
-6.03384e-09
-4.552e-09
6.12252e-09
-1.94023e-09
5.9895e-09
-6.81809e-09
2.76878e-09
3.948e-09
1.88315e-09
-3.79217e-09
-5.47238e-09
3.38968e-10
3.09858e-09
-1.59219e-09
1.54784e-09
3.19493e-09
-8.39164e-10
-3.94309e-10
6.16015e-09
-6.32332e-09
-6.13073e-10
7.76092e-10
-6.01179e-09
8.44427e-09
3.72755e-09
-8.1724e-10
-5.49059e-09
2.14403e-09
4.16348e-09
2.19881e-10
5.06983e-09
-6.10711e-09
7.94257e-09
-6.37667e-09
-7.88928e-09
-6.02674e-10
2.53339e-09
-5.96961e-09
8.72928e-10
4.48342e-09
-4.46107e-09
4.91477e-09
2.15716e-09
-2.61103e-09
3.86348e-09
-1.30633e-09
-7.01839e-09
-6.70628e-09
6.12918e-10
-4.6083e-09
3.55346e-09
-2.17442e-09
1.4294e-09
-3.22428e-09
-9.95354e-10
1.74054e-09
-6.27138e-09
-8.37198e-09
3.40617e-09
-4.03677e-09
5.28084e-09
-2.84684e-10
-9.5949e-10
2.78642e-09
-8.61065e-10
-5.96217e-09
3.11368e-10
4.7958e-09
1.7363e-10
-5.03956e-09
4.5013e-09
8.49578e-10
-2.25364e-10
-2.02786e-09
1.95578e-09
-5.47105e-09
2.65418e-09
6.99233e-10
-7.50836e-10
4.55286e-09
-6.07949e-10
6.10288e-09
2.25546e-09
2.4392e-09
-2.739e-09
3.43089e-09
-1.40084e-09
4.67479e-10
-3.56644e-09
2.34793e-09
4.04456e-09
-4.18512e-09
-3.27337e-09
3.13777e-09
-4.55376e-10
-3.78848e-10
9.68438e-09
-9.46118e-09
-3.77913e-09
3.55597e-09
1.23653e-11
-8.70619e-10
1.05427e-08
7.69101e-09
-1.12948e-08
-5.85746e-09
-9.01323e-09
-9.59261e-10
9.98496e-09
-1.21836e-08
-6.08756e-10
9.98549e-09
-2.21171e-09
-4.99213e-10
9.61407e-09
-5.00591e-09
-4.73172e-10
-6.70452e-09
-1.62139e-08
-8.69063e-11
-7.84998e-09
-2.07562e-11
7.3715e-09
-7.8638e-09
-2.19793e-09
3.58862e-09
7.94242e-09
-8.70364e-09
-2.8274e-09
9.75098e-09
-6.63558e-09
-8.65178e-09
7.67178e-09
3.59164e-09
4.2238e-09
1.26987e-10
2.79546e-09
-7.06765e-09
5.32299e-09
1.34317e-09
-7.77028e-09
-5.89007e-09
1.23171e-08
-7.04946e-09
-4.61411e-09
1.30068e-08
-3.03254e-09
-7.7658e-09
3.74884e-09
-1.05416e-08
-2.61259e-10
9.68434e-09
-7.83894e-09
6.26995e-09
-8.11532e-09
-2.8705e-09
2.01323e-09
-3.31713e-09
-1.20423e-08
9.46936e-09
1.08295e-08
9.83354e-11
-1.87668e-08
9.20633e-09
-1.24731e-09
5.95327e-09
-1.43599e-08
5.08958e-09
1.033e-08
-8.99071e-09
-4.61583e-09
-1.15649e-09
-1.79131e-09
-9.22066e-09
-9.7551e-09
-2.2489e-08
1.33667e-08
6.24651e-09
-4.3212e-09
-3.72025e-09
1.7949e-09
-2.72917e-09
9.83055e-09
-8.54863e-10
-9.31058e-09
-4.92895e-09
9.91831e-09
4.27378e-09
-1.60615e-09
-1.19782e-08
1.75767e-09
-4.14956e-09
-1.32841e-09
1.18977e-08
2.15337e-09
-9.77719e-09
-4.58835e-10
7.42744e-09
-2.20517e-09
4.58809e-09
-6.25297e-10
1.18654e-09
-6.94227e-09
9.92807e-09
-2.19773e-09
-5.577e-09
3.71603e-09
5.75322e-09
5.24372e-09
-3.7933e-09
-3.6556e-09
6.79751e-09
2.16225e-09
-4.80447e-09
4.44512e-09
-9.12546e-10
-1.17158e-09
-2.36099e-09
-1.78227e-09
3.60809e-09
2.61929e-09
-6.97273e-09
3.51064e-10
7.13845e-09
-5.1679e-10
2.59368e-10
-3.15757e-09
3.81346e-09
-9.15284e-10
3.5144e-09
-1.14242e-09
-2.11263e-09
-2.46259e-09
-2.85124e-09
4.40126e-09
3.52639e-09
-2.37631e-09
-2.32168e-09
-3.59703e-10
2.10383e-09
3.40307e-09
-2.61242e-09
-3.16695e-09
5.50252e-09
1.98277e-09
-4.08222e-09
-2.96654e-09
-3.44659e-09
-3.07656e-09
9.48972e-09
-4.22224e-09
-5.71705e-09
-1.39724e-09
-5.28761e-09
-5.87053e-10
4.19482e-09
-4.38843e-09
7.80639e-10
-2.58252e-09
5.98232e-10
2.39093e-09
2.75187e-09
-4.47859e-09
3.71199e-09
-3.73038e-09
-2.13311e-08
7.14694e-09
-4.75332e-09
1.89375e-08
-2.46765e-08
1.57952e-08
-1.24497e-08
7.02221e-09
-2.0157e-08
-1.15416e-08
2.05781e-08
-1.15771e-09
-1.23982e-08
4.41427e-09
1.00572e-08
-1.80641e-08
3.59255e-09
-2.58059e-08
4.59763e-09
2.83552e-08
-8.4942e-09
-1.51655e-09
-3.15872e-09
1.9632e-08
-1.2456e-08
-4.01725e-09
1.25277e-10
1.56995e-08
1.33533e-08
-1.20978e-08
-2.46654e-08
1.45656e-08
-2.24929e-08
-8.70172e-10
2.79607e-08
-5.91494e-09
-2.50721e-08
8.3508e-09
1.39049e-08
-2.62375e-09
1.58908e-08
-1.2484e-08
3.69463e-09
1.23215e-08
-2.16908e-08
2.45152e-08
1.455e-08
-7.384e-09
6.18718e-09
6.76413e-09
-1.24074e-09
-1.68507e-08
1.60102e-08
2.08121e-09
9.56594e-09
5.59446e-10
-1.13661e-08
-6.37902e-09
-7.96394e-09
8.49541e-09
5.84757e-09
-7.81277e-09
1.47621e-09
-4.24928e-11
-1.68757e-09
-5.79959e-09
-4.76766e-10
-2.25961e-09
-7.24071e-09
1.02536e-08
7.64207e-10
-1.31611e-08
2.14334e-09
1.06959e-08
-1.7293e-08
3.70901e-09
-4.71346e-09
1.70147e-08
-5.28721e-10
1.38037e-08
9.06099e-09
-7.68956e-09
1.04774e-10
7.9571e-09
-9.45251e-09
4.61453e-09
-4.03108e-09
8.47754e-09
1.25812e-08
-9.08524e-11
6.07332e-09
7.25132e-09
-6.98377e-09
3.12941e-09
-1.69553e-08
1.17671e-09
-5.39277e-11
1.58325e-08
-1.6737e-08
1.08942e-09
-1.3078e-09
1.44067e-08
3.50489e-11
2.57283e-09
1.31718e-08
-4.20768e-09
5.4426e-09
4.21272e-09
-2.09146e-08
-2.16872e-08
1.79617e-09
2.10678e-08
-1.99149e-08
-6.82833e-10
-9.09483e-10
2.33665e-08
-2.39327e-08
1.47574e-09
1.64288e-08
-1.68977e-08
-4.4066e-10
1.16091e-10
1.30018e-08
1.40137e-08
1.5258e-09
-1.29666e-08
1.02636e-08
-4.57638e-10
6.67364e-10
2.44953e-08
-1.72383e-10
1.72685e-08
5.2515e-09
-2.09536e-08
2.13937e-09
-2.08205e-08
-1.32325e-08
1.02073e-08
-6.17578e-09
9.45223e-09
-3.07545e-09
-2.01011e-10
3.82921e-09
-5.68799e-09
-4.31702e-09
1.9981e-09
3.19867e-09
-4.67165e-09
-5.25139e-10
-2.90472e-09
7.0698e-09
5.28708e-09
1.46071e-09
-5.36229e-10
-1.46012e-09
7.29628e-09
-4.47893e-09
-1.35726e-09
4.80086e-09
-4.26288e-09
9.96825e-10
5.97137e-09
-2.16733e-09
-1.99501e-09
3.37009e-09
-3.78264e-10
5.57119e-09
-1.6591e-09
-6.98756e-09
1.78294e-09
-5.79329e-10
3.68023e-09
-4.3659e-10
-4.3943e-09
2.07022e-09
5.69419e-09
-2.33533e-09
3.9124e-09
-8.18058e-10
6.56848e-09
-4.77412e-09
1.10259e-08
2.9406e-09
2.02031e-09
3.73767e-09
-4.83943e-09
6.46222e-09
-4.10481e-09
2.48201e-09
-5.7011e-09
4.22018e-09
-3.35847e-09
3.3419e-09
-6.04359e-09
2.8287e-09
-3.56692e-09
7.52732e-10
6.15609e-09
-4.056e-09
-4.32847e-09
4.81758e-09
9.03938e-10
1.50226e-09
1.22656e-09
-3.1126e-09
-3.81511e-09
-1.35924e-09
-1.51901e-09
6.39234e-10
-7.47522e-10
-4.94303e-09
8.49118e-09
-1.38701e-09
2.13597e-09
-2.10827e-09
6.75865e-10
-5.17543e-09
-3.88783e-09
4.39381e-09
1.39933e-09
-1.90534e-09
2.40398e-09
-5.61599e-09
-1.01051e-09
-6.08494e-09
-1.2194e-09
2.66434e-09
-6.34534e-09
-5.50786e-09
1.46877e-09
-1.39216e-09
-6.77993e-09
1.08364e-08
-6.26817e-09
-1.98489e-10
9.588e-10
-5.52435e-09
1.11228e-08
-8.18493e-09
7.84887e-10
-3.72262e-09
-3.00592e-09
1.72695e-09
1.24018e-08
-2.08388e-10
-7.59989e-09
1.58199e-09
-7.45541e-09
1.24084e-09
6.0062e-09
3.22178e-09
7.83766e-09
-5.02066e-09
-6.03874e-09
7.71899e-09
-1.67938e-09
-2.8178e-09
4.0736e-09
-8.41458e-09
-3.11438e-09
-4.04302e-09
5.16743e-10
-3.43634e-09
7.40741e-09
3.58345e-10
8.08512e-09
-6.20231e-09
-1.00677e-08
6.32004e-09
-9.11413e-09
-1.0607e-09
-6.01859e-09
-2.31062e-09
-2.35788e-09
4.32485e-09
-6.98757e-09
-4.37616e-09
-3.32176e-09
2.49414e-09
-9.22817e-09
-2.146e-09
-1.94372e-09
-5.85415e-09
-1.41161e-09
-7.96673e-09
3.54202e-10
6.35187e-09
-7.6518e-09
-1.11654e-10
1.11057e-08
-5.68203e-09
9.2816e-10
7.53016e-10
2.15893e-09
-2.38532e-09
-5.26733e-10
-2.65396e-09
4.15481e-09
-7.47836e-10
-2.31323e-09
5.29127e-10
-8.69915e-10
2.43862e-09
2.38187e-09
2.76739e-10
-2.38777e-09
-2.70785e-10
-6.73966e-11
2.61206e-09
-1.62787e-10
2.59939e-09
-2.44249e-09
-2.24272e-10
-4.42549e-09
-5.00333e-09
8.95775e-09
4.71223e-10
-9.8526e-09
5.08371e-09
3.43412e-10
3.73212e-09
-8.47225e-09
-2.63124e-10
-3.82533e-09
-3.58153e-09
5.02182e-10
-8.59195e-09
4.28696e-09
4.79648e-10
-6.47895e-09
3.29983e-11
5.46121e-09
-9.20287e-09
3.34291e-09
3.98917e-10
3.74484e-09
-9.0927e-09
5.00434e-09