/*--------------------------------*- C++ -*----------------------------------*\
| =========                 |                                                 |
| \\      /  F ield         | OpenFOAM: The Open Source CFD Toolbox           |
|  \\    /   O peration     | Version:  v1612+                                |
|   \\  /    A nd           | Web:      www.OpenFOAM.com                      |
|    \\/     M anipulation  |                                                 |
\*---------------------------------------------------------------------------*/
FoamFile
{
    version     2.0;
    format      ascii;
    class       volVectorField;
    location    "50";
    object      U;
}
// * * * * * * * * * * * * * * * * * * * * * * * * * * * * * * * * * * * * * //

dimensions      [0 1 -1 0 0 0 0];

internalField   nonuniform List<vector> 
18958
(
(0.326289 0.226837 -0.0491517)
(0.477093 0.624355 -0.296645)
(0.584793 0.631733 -0.300547)
(0.555809 0.564971 -0.339008)
(0.587677 0.670416 -0.302057)
(0.58336 0.612826 -0.329639)
(0.580048 0.686742 -0.279048)
(0.562692 0.613249 -0.317936)
(0.547048 0.585002 -0.343276)
(0.524563 0.751029 -0.248296)
(0.563329 0.75878 -0.245993)
(0.514014 0.733682 -0.257808)
(0.561703 0.77723 -0.215202)
(0.495135 0.563965 -0.365116)
(0.536518 0.545063 -0.385226)
(0.565091 0.787424 -0.179766)
(0.50665 0.628445 -0.330552)
(0.51807 0.628415 -0.336163)
(0.51576 0.579809 -0.365521)
(0.531153 0.737142 -0.264683)
(0.521584 0.89162 -0.245293)
(0.503967 0.867241 -0.249889)
(0.477477 0.881936 -0.245778)
(0.471261 0.837911 -0.245575)
(0.555106 0.933948 -0.209755)
(0.53475 0.94034 -0.214628)
(0.566906 0.942582 -0.213784)
(0.49614 0.882215 -0.230393)
(0.575423 0.944402 -0.196816)
(0.533849 0.863948 -0.207491)
(0.552934 0.880731 -0.20856)
(0.51028 0.836749 -0.231363)
(0.459652 0.842459 -0.237429)
(0.448982 0.813384 -0.249138)
(0.533664 0.918667 -0.207419)
(0.523466 0.819723 -0.210979)
(0.476576 0.790006 -0.239297)
(0.490156 0.830743 -0.217816)
(0.512264 0.884496 -0.200956)
(0.505192 0.815851 -0.216181)
(0.597506 0.811646 -0.107147)
(0.632591 0.865562 -0.123087)
(0.60402 0.950074 -0.0989807)
(0.599416 0.955372 -0.0920762)
(0.623402 0.925702 -0.11849)
(0.589185 0.978231 -0.0641361)
(0.602031 0.943713 -0.100916)
(0.569857 0.882555 -0.11925)
(0.574502 0.83179 -0.134757)
(0.630044 0.810473 -0.1405)
(0.594625 0.768244 -0.150958)
(0.60706 0.847043 -0.135511)
(0.56545 0.813951 -0.113836)
(0.566873 0.768177 -0.143431)
(0.52611 1.0709 -0.0128204)
(0.487351 1.00013 0.0365287)
(0.585271 1.05543 -0.00797898)
(0.572889 1.05944 -0.0449426)
(0.486663 1.00794 0.0190309)
(0.458867 0.956309 0.0480378)
(0.513928 0.970484 -0.0155531)
(0.502174 0.994013 0.0271551)
(0.549417 0.989487 -0.0128528)
(0.504204 0.95877 0.00622452)
(0.387153 0.84802 0.0568899)
(0.57095 1.03937 -0.0307048)
(0.600896 1.02613 -0.0459144)
(0.497613 0.974945 -0.0266109)
(0.494756 0.940791 -0.0378494)
(0.50351 1.0434 0.0130501)
(0.484112 0.932022 -0.0367026)
(0.495146 0.979261 -0.00961077)
(0.552453 0.979479 -0.0432441)
(0.617946 1.05223 -0.0549156)
(0.445653 0.898511 -0.0149016)
(0.519328 0.995168 -0.0364826)
(0.600272 1.0008 -0.0737446)
(0.41526 0.888338 0.0694248)
(0.437819 0.890743 0.0557657)
(0.386338 0.916238 0.145152)
(0.434218 0.900394 0.0345192)
(0.379248 0.879503 0.157274)
(0.392519 0.815388 0.107214)
(0.440092 0.868185 0.00592597)
(0.442107 0.793029 0.00587717)
(0.401125 0.888757 0.0631209)
(0.38657 0.885384 0.204693)
(0.396629 0.775958 0.123064)
(0.408317 0.736617 0.106999)
(0.437468 0.695661 0.0163164)
(0.426224 0.804318 0.00279789)
(0.414711 0.822194 0.0889962)
(0.381708 0.859331 0.177876)
(0.388116 0.708978 0.11544)
(0.419315 0.737736 0.0772485)
(0.427626 0.722562 0.0511636)
(0.267849 0.783766 0.414514)
(0.25468 0.781791 0.3962)
(0.163762 0.564341 0.263357)
(0.146318 0.512829 0.255131)
(0.267191 0.834527 0.434208)
(0.260405 0.825577 0.444627)
(0.227546 0.64643 0.327825)
(0.260357 0.72762 0.377192)
(0.201293 0.576679 0.272005)
(0.168392 0.565343 0.259938)
(0.158994 0.535288 0.254042)
(0.229461 0.761239 0.371304)
(0.219209 0.66541 0.325043)
(0.208059 0.67099 0.314661)
(0.314912 0.73685 0.370603)
(0.286923 0.575949 0.266766)
(0.296506 0.615957 0.286922)
(0.292091 0.682072 0.368365)
(0.289974 0.65896 0.355085)
(0.295115 0.636179 0.311414)
(0.279831 0.533959 0.254672)
(0.273196 0.490679 0.217235)
(0.303739 0.616617 0.300278)
(0.262315 0.560774 0.270041)
(0.267068 0.502992 0.236877)
(0.280642 0.819766 0.232473)
(0.267148 0.827887 0.273065)
(0.339445 0.92481 0.293935)
(0.294562 0.882363 0.308655)
(0.317625 0.905362 0.322832)
(0.296392 0.931332 0.357565)
(0.270044 0.850772 0.277322)
(0.344228 0.974957 0.386553)
(0.32993 0.949177 0.41352)
(0.304052 0.872604 0.320789)
(0.286566 0.830537 0.306621)
(0.334134 0.954088 0.371479)
(0.359574 0.992998 0.387602)
(0.314048 0.937685 0.40837)
(0.316825 0.926957 0.382623)
(0.327033 0.947692 0.410395)
(0.276736 0.827441 0.328643)
(0.330039 0.934658 0.393952)
(0.309791 0.873276 0.344474)
(0.202406 0.481384 -0.374429)
(0.198661 0.462911 -0.380753)
(0.198562 0.513215 -0.35474)
(0.262555 0.488017 -0.427971)
(0.263646 0.51916 -0.420416)
(0.236715 0.612 -0.325222)
(0.195476 0.45191 -0.374604)
(0.326639 0.621759 -0.379775)
(0.311239 0.62294 -0.381072)
(0.231725 0.521085 -0.391544)
(0.246894 0.57989 -0.354416)
(0.231225 0.482327 -0.405802)
(0.218255 0.469282 -0.39653)
(0.280653 0.530905 -0.426661)
(0.228889 0.470118 -0.392614)
(0.210681 0.43997 -0.386698)
(0.306784 0.609938 -0.379376)
(0.270496 0.616654 -0.351547)
(0.543474 0.812597 -0.286245)
(0.534448 0.785993 -0.294474)
(0.579357 0.973863 -0.297991)
(0.605053 0.973197 -0.289204)
(0.586519 0.926222 -0.319016)
(0.621144 0.971411 -0.280193)
(0.542747 0.791508 -0.291936)
(0.565104 0.825475 -0.294855)
(0.506984 0.803697 -0.297218)
(0.507053 0.819571 -0.299084)
(0.542732 0.870392 -0.300562)
(0.608342 0.935273 -0.303205)
(0.603722 0.896555 -0.225516)
(0.606284 0.937168 -0.232682)
(0.574023 0.797024 -0.233368)
(0.551982 0.75296 -0.241361)
(0.622398 0.836242 -0.23966)
(0.588307 0.800856 -0.239839)
(0.567694 0.815159 -0.226713)
(0.621554 0.881494 -0.225657)
(0.618119 0.923096 -0.23573)
(0.535526 0.802301 -0.234404)
(0.553283 0.865324 -0.241273)
(0.537713 0.801469 -0.238051)
(0.523753 0.749607 -0.240703)
(0.589655 0.849377 -0.237475)
(0.531851 0.974785 -0.337113)
(0.496971 0.933434 -0.328676)
(0.489566 0.902709 -0.394097)
(0.463805 0.865443 -0.405077)
(0.48953 0.895222 -0.3807)
(0.516693 0.935468 -0.337342)
(0.507091 0.925501 -0.312087)
(0.471282 0.828703 -0.441006)
(0.45571 0.783707 -0.43175)
(0.473494 0.859513 -0.392528)
(0.44532 0.828194 -0.411151)
(0.467082 0.792101 -0.423429)
(0.498625 0.841938 -0.386212)
(0.498374 0.851513 -0.422806)
(0.489376 0.792897 -0.417029)
(0.469757 0.753709 -0.458117)
(0.45386 0.797881 -0.429637)
(0.513205 0.774301 -0.327029)
(0.503839 0.710421 -0.353299)
(0.506495 0.712233 -0.378502)
(0.47257 0.862857 -0.281329)
(0.502891 0.780023 -0.33798)
(0.474717 0.863997 -0.26538)
(0.482238 0.793553 -0.347987)
(0.47335 0.857319 -0.338788)
(0.471329 0.831303 -0.352676)
(0.505326 0.653067 -0.423374)
(0.455108 0.844623 -0.347379)
(0.47543 0.738544 -0.383643)
(0.48005 0.785634 -0.390405)
(0.461457 0.850075 -0.351249)
(0.47209 0.838829 -0.374792)
(0.479667 0.694331 -0.417046)
(0.46157 0.738153 -0.423225)
(0.589266 0.657554 -0.184551)
(0.599252 0.680968 -0.189803)
(0.590819 0.643277 -0.219793)
(0.577252 0.604299 -0.232734)
(0.582727 0.676379 -0.151123)
(0.589987 0.771923 -0.100677)
(0.556507 0.612484 -0.243559)
(0.561382 0.595653 -0.243746)
(0.571646 0.637635 -0.231424)
(0.587891 0.764613 -0.0979066)
(0.589567 0.671622 -0.173241)
(0.572383 0.646854 -0.190945)
(0.543293 0.640423 -0.217793)
(0.579911 0.753223 -0.14968)
(0.546782 0.711646 -0.156885)
(0.543612 0.824364 0.0368773)
(0.534221 0.868438 0.0608087)
(0.506013 0.808262 -0.0162236)
(0.510407 0.828275 0.00417834)
(0.506027 0.685736 -0.0101901)
(0.481317 0.63974 -0.0391757)
(0.510291 0.678089 -0.0381974)
(0.523904 0.84714 0.0903648)
(0.514212 0.811908 0.0478141)
(0.44766 0.718482 0.00881124)
(0.477761 0.792336 0.0326157)
(0.513627 0.665973 -0.0979716)
(0.493579 0.62492 -0.125504)
(0.486977 0.686459 -0.10596)
(0.498309 0.64644 -0.0764723)
(0.519454 0.58903 -0.106543)
(0.512063 0.705254 -0.033656)
(0.498566 0.626552 -0.067151)
(0.492742 0.598977 -0.0624078)
(0.521035 0.661356 -0.0657612)
(0.482366 0.815159 0.00702021)
(0.465529 0.824362 0.010406)
(0.537948 0.384534 -0.456041)
(0.51093 0.354183 -0.45755)
(0.512591 0.43183 -0.485288)
(0.497746 0.389838 -0.489928)
(0.539697 0.442489 -0.461519)
(0.502399 0.519492 -0.496182)
(0.531885 0.458917 -0.463344)
(0.523918 0.394428 -0.463699)
(0.545118 0.414386 -0.449979)
(0.514513 0.502179 -0.495578)
(0.577307 0.551277 -0.446463)
(0.500663 0.477174 -0.489898)
(0.480222 0.432867 -0.501297)
(0.519752 0.530319 -0.471022)
(0.536849 0.443506 -0.482857)
(0.505653 0.445449 -0.496102)
(0.574005 0.555889 -0.450742)
(0.537417 0.589807 -0.461547)
(0.276867 0.831987 0.422688)
(0.276994 0.873533 0.440917)
(0.298299 0.93691 0.488946)
(0.312912 0.980881 0.500337)
(0.354076 1.07316 0.552093)
(0.351715 1.06738 0.575239)
(0.293438 0.916252 0.447859)
(0.27286 0.842954 0.443393)
(0.280623 0.849555 0.460904)
(0.310487 0.866994 0.437041)
(0.31364 0.898778 0.452846)
(0.305809 0.847376 0.44501)
(0.299532 0.907627 0.488406)
(0.44618 1.00324 -0.0740227)
(0.439403 1.02271 -0.0443422)
(0.440975 0.992657 -0.0965284)
(0.458058 1.02746 -0.0663262)
(0.448636 1.04276 -0.132476)
(0.459328 1.01107 -0.128114)
(0.464407 1.05249 -0.0966582)
(0.457073 1.07265 -0.0550591)
(0.497681 1.09158 -0.0386841)
(0.488314 1.11439 -0.0251157)
(0.466479 1.02899 -0.117318)
(0.444455 1.02626 -0.0893422)
(0.504651 1.09812 -0.0676612)
(0.47869 1.02558 -0.0874547)
(0.27873 0.802079 0.142104)
(0.296911 0.82364 0.145665)
(0.240296 0.735956 0.0612631)
(0.199873 0.655777 0.0569833)
(0.2284 0.723428 0.0319529)
(0.179973 0.642887 0.0114468)
(0.243951 0.7332 0.190919)
(0.28699 0.826697 0.190625)
(0.202807 0.652498 0.104099)
(0.215694 0.692336 0.129026)
(0.24926 0.744582 0.0850313)
(0.214607 0.695816 0.132217)
(0.178317 0.622032 0.0735041)
(0.224235 0.719174 0.0869175)
(0.197025 0.675778 0.0678508)
(0.228178 0.722427 0.106977)
(0.211611 0.371591 0.181528)
(0.193328 0.280825 0.135483)
(0.200257 0.362747 0.183473)
(0.192703 0.312698 0.15106)
(0.266032 0.551228 0.279514)
(0.259676 0.539668 0.275416)
(0.228856 0.447038 0.220074)
(0.215058 0.431796 0.216842)
(0.200604 0.344324 0.174785)
(0.259936 0.590365 0.294229)
(0.25017 0.567369 0.290919)
(0.232136 0.400428 0.204399)
(0.187285 0.588434 0.281233)
(0.192146 0.632318 0.302867)
(0.233311 0.672383 0.339565)
(0.216711 0.609133 0.307119)
(0.212985 0.599268 0.28623)
(0.194581 0.531128 0.238018)
(0.226531 0.588399 0.279285)
(0.229898 0.620394 0.281843)
(0.249074 0.697254 0.331112)
(0.255714 0.698199 0.340071)
(0.218372 0.716361 0.342914)
(0.177226 0.548169 0.245719)
(0.189246 0.578089 0.244879)
(0.256696 0.727779 0.371938)
(0.17707 0.614956 0.267371)
(0.165981 0.530659 0.220293)
(0.242154 0.745715 0.367548)
(0.227875 0.722294 0.329476)
(0.178628 0.592614 0.234715)
(0.183197 0.631252 0.263779)
(0.298023 0.817852 -0.169949)
(0.310525 0.850493 -0.15559)
(0.358782 0.921502 -0.116968)
(0.280541 0.820297 -0.152685)
(0.270429 0.790679 -0.18931)
(0.251749 0.789266 -0.193873)
(0.255366 0.776084 -0.20662)
(0.35065 0.927191 -0.129472)
(0.302273 0.838665 -0.185948)
(0.262366 0.80139 -0.2304)
(0.253865 0.764871 -0.226948)
(0.34959 0.923149 -0.111787)
(0.360326 0.927202 -0.111569)
(0.283133 0.837357 -0.214878)
(0.337759 0.900245 -0.158073)
(0.305056 0.848765 -0.144869)
(0.407286 0.8921 0.0579254)
(0.348642 0.825808 0.127254)
(0.375478 0.829415 0.118119)
(0.253902 0.63147 0.126425)
(0.369029 0.856025 0.113714)
(0.335114 0.771908 0.0771027)
(0.327922 0.747293 -0.00224509)
(0.449089 0.933372 0.0688099)
(0.419619 0.892448 0.0767015)
(0.439222 0.916492 0.0698453)
(0.474543 0.912151 0.0434545)
(0.489964 0.979626 0.0428285)
(0.459053 0.89426 0.0146308)
(0.501201 0.965851 0.027896)
(0.433041 0.937574 0.090483)
(0.387662 0.82749 0.0446289)
(0.459871 0.93512 0.0186109)
(0.633971 0.993006 -0.0862116)
(0.65596 1.00322 -0.0847938)
(0.666409 0.944548 -0.137387)
(0.66914 0.911634 -0.136123)
(0.644347 0.89601 -0.163157)
(0.604382 0.925841 -0.121479)
(0.611648 0.925024 -0.172872)
(0.644208 0.971556 -0.0958359)
(0.625735 0.986658 -0.088963)
(0.563807 1.04997 -0.0163407)
(0.612713 0.981749 -0.0488459)
(0.676056 0.894078 -0.165892)
(0.641438 1.0346 -0.0915467)
(0.609165 1.02225 -0.0966722)
(0.668808 0.994671 -0.134278)
(0.592439 0.932962 -0.116157)
(0.642885 0.947418 -0.144948)
(0.354314 1.19713 0.688176)
(0.348523 1.15536 0.672429)
(0.378267 1.19074 0.68572)
(0.35965 1.15979 0.658025)
(0.355562 1.16334 0.669604)
(0.183703 0.526463 0.031757)
(0.181398 0.473484 0.0515396)
(0.170514 0.407455 0.0313503)
(0.167204 0.398241 0.0302993)
(0.239868 0.586071 0.0997545)
(0.224991 0.550567 0.0853289)
(0.169063 0.467013 0.034923)
(0.183923 0.420699 0.0418722)
(0.19616 0.397768 0.0418941)
(0.236526 0.463658 0.0742475)
(0.180605 0.420821 0.0484383)
(0.220956 0.445287 0.0645158)
(0.249196 0.482838 0.0822382)
(0.250308 0.65435 0.0727804)
(0.256507 0.642011 0.0676748)
(0.263947 0.666152 0.0769512)
(0.236745 0.497308 0.0898367)
(0.227542 0.487029 0.0704969)
(0.248153 0.560112 0.095573)
(0.243603 0.520756 0.100388)
(0.245526 0.562762 0.100015)
(0.521986 0.957065 -0.0469931)
(0.539316 0.968298 -0.0600187)
(0.578061 1.02339 -0.106129)
(0.590693 1.07967 -0.0957221)
(0.555128 1.00626 -0.0454907)
(0.548883 1.03408 -0.0758934)
(0.650408 1.05675 -0.150989)
(0.654988 1.03174 -0.146476)
(0.611869 1.04567 -0.0779562)
(0.632119 1.05682 -0.122218)
(0.645751 1.01876 -0.109736)
(0.664358 1.02846 -0.107086)
(0.649049 1.02608 -0.112699)
(0.63835 1.08678 -0.171369)
(0.647502 1.04681 -0.162083)
(0.619113 1.08724 -0.13088)
(0.514391 0.906555 -0.0879367)
(0.505343 0.845162 -0.165753)
(0.456271 0.800334 -0.172073)
(0.444483 0.79282 -0.192948)
(0.525646 0.869042 -0.165822)
(0.49753 0.800226 -0.234465)
(0.541712 0.863675 -0.162081)
(0.537099 0.826732 -0.200869)
(0.517153 0.935295 -0.0648006)
(0.521674 0.933075 -0.0932343)
(0.451103 0.818035 -0.159204)
(0.452368 0.787493 -0.211766)
(0.548149 0.86403 -0.186938)
(0.528659 0.81858 -0.252004)
(0.533993 0.908091 -0.12448)
(0.519237 0.831112 -0.213228)
(0.195532 0.399497 0.0650359)
(0.199822 0.427061 0.0531729)
(0.167324 0.388186 0.0342346)
(0.179041 0.360604 0.0404098)
(0.264983 0.463271 0.0812403)
(0.261585 0.339007 0.0319739)
(0.197582 0.292465 0.0144324)
(0.17973 0.38962 0.0388844)
(0.196335 0.338315 0.0247968)
(0.238726 0.422545 0.0728428)
(0.239255 0.343931 0.0356655)
(0.205223 0.30717 0.0257263)
(0.3876 0.71705 0.00579276)
(0.377608 0.811926 0.14733)
(0.367821 0.711031 -0.0611771)
(0.362291 0.861024 0.00521828)
(0.389502 0.917793 0.183559)
(0.3957 0.786151 0.0626012)
(0.390223 0.836924 0.149739)
(0.39524 0.823332 0.151416)
(0.379921 0.90676 0.21605)
(0.364855 0.739359 0.00481709)
(0.362246 0.836377 0.0411151)
(0.380544 0.685238 -0.0467725)
(0.380838 0.749477 -0.0305949)
(0.367057 0.819398 -0.0208248)
(0.377688 0.947069 0.174)
(0.386112 0.875851 0.150547)
(0.352102 0.826547 0.0618838)
(0.395899 0.751705 0.00679017)
(0.401764 0.784778 -0.0187393)
(0.383924 0.826606 0.063106)
(0.375833 0.90375 0.315686)
(0.372591 0.915253 0.352992)
(0.366986 0.773427 0.209357)
(0.367595 0.823008 0.256532)
(0.379338 0.778306 0.17353)
(0.350055 0.717923 0.126759)
(0.31464 0.743937 0.120589)
(0.331393 0.697349 0.0894876)
(0.348255 0.923408 0.347676)
(0.339902 0.921287 0.322916)
(0.363734 0.908054 0.310893)
(0.355426 0.749996 0.170996)
(0.3607 0.81249 0.211638)
(0.324242 0.824144 0.179361)
(0.324904 0.714027 0.127621)
(0.320486 0.805527 0.21435)
(0.332461 0.818109 0.217357)
(0.355707 0.867818 0.285853)
(0.326159 0.778754 0.175566)
(0.34487 0.806538 0.224594)
(0.283943 0.928263 0.482551)
(0.272381 0.901188 0.466636)
(0.291887 0.869885 0.417902)
(0.281893 0.865163 0.413582)
(0.328701 0.964625 0.479946)
(0.317218 0.911653 0.452227)
(0.354527 1.07005 0.57679)
(0.351605 1.05351 0.568927)
(0.315139 0.991728 0.541978)
(0.295838 0.906358 0.454045)
(0.347936 1.00043 0.495527)
(0.315205 1.01083 0.536758)
(0.294287 0.928449 0.463512)
(0.323492 0.986059 0.500714)
(0.331423 0.9533 0.297051)
(0.300445 0.93845 0.307515)
(0.363535 1.03168 0.367563)
(0.379626 1.06343 0.400344)
(0.350519 1.01735 0.344921)
(0.267639 0.883396 0.268694)
(0.370168 1.05863 0.413346)
(0.347994 1.00365 0.393094)
(0.283538 0.903517 0.246883)
(0.310266 0.957392 0.233624)
(0.336203 0.993364 0.297676)
(0.344825 1.00317 0.352754)
(0.307717 0.939502 0.289232)
(0.263927 0.762672 0.407749)
(0.255651 0.813689 0.428561)
(0.269084 0.783543 0.407137)
(0.237135 0.784253 0.392833)
(0.261703 0.817999 0.402315)
(0.463981 1.08694 0.22568)
(0.464787 1.08139 0.212217)
(0.374807 0.948661 0.242799)
(0.439312 0.993963 0.2065)
(0.458028 1.09163 0.310036)
(0.432675 1.06751 0.264206)
(0.404225 0.945411 0.203831)
(0.390485 0.91269 0.222529)
(0.404251 0.997284 0.284309)
(0.436181 0.971362 0.193384)
(0.361431 0.887568 0.192176)
(0.389762 0.962955 0.264347)
(0.455343 1.02219 0.219365)
(0.417298 1.03873 0.305179)
(0.407023 1.0351 0.275305)
(0.387131 0.978727 0.305871)
(0.427814 0.969643 0.21099)
(0.447504 1.04568 0.242127)
(0.380151 1.00234 0.295279)
(0.448782 1.03505 0.24441)
(0.609556 1.00009 -0.0500922)
(0.637279 0.951463 -0.0909956)
(0.646082 0.938044 -0.0637635)
(0.643712 0.955218 -0.106775)
(0.650557 0.928014 -0.0984881)
(0.645789 0.778049 -0.177834)
(0.677147 0.864961 -0.142986)
(0.628393 0.852369 -0.13211)
(0.656261 0.761081 -0.186025)
(0.675491 0.802358 -0.175823)
(0.652527 0.835768 -0.165038)
(0.378825 0.896984 -0.0491689)
(0.34037 0.8982 -0.0881468)
(0.335688 0.873368 -0.106929)
(0.419309 0.997508 -0.0127453)
(0.369869 0.917974 -0.0428936)
(0.472406 1.02425 -0.00601353)
(0.481132 1.00654 -0.0190627)
(0.33745 0.883249 -0.119753)
(0.32839 0.900629 -0.130102)
(0.379455 0.890852 -0.0713974)
(0.34509 0.885837 -0.12889)
(0.388639 0.982473 -0.0496089)
(0.389687 0.979962 -0.0479223)
(0.460593 0.98874 -0.0322842)
(0.474723 1.06811 0.0191925)
(0.469489 1.0763 0.023702)
(0.50803 1.07672 0.0111229)
(0.474767 1.04219 -0.0249415)
(0.343018 0.88809 -0.139137)
(0.393461 0.96266 -0.0860078)
(0.426079 0.990648 -0.0605371)
(0.232428 0.275907 -0.0122845)
(0.249735 0.287302 -0.00414209)
(0.301548 0.254648 -0.0312758)
(0.287714 0.284817 -0.0205895)
(0.254419 0.312114 0.00631208)
(0.255655 0.310284 -0.00304279)
(0.333619 0.262348 -0.0412861)
(0.311116 0.300379 -0.0252467)
(0.336504 0.377662 0.00654132)
(0.292655 0.324743 -0.00480082)
(0.331288 0.374243 0.00812386)
(0.463652 0.367954 -0.0898929)
(0.43222 0.31332 -0.0753066)
(0.384892 0.365701 -0.052597)
(0.394744 0.360955 -0.0324839)
(0.331263 0.284576 -0.0307069)
(0.338705 0.271073 -0.0348082)
(0.635842 0.930869 -0.0652796)
(0.615593 0.793343 -0.101774)
(0.609517 0.934495 -0.0266385)
(0.62644 0.836748 -0.0830618)
(0.615293 0.730986 -0.161475)
(0.634427 0.759546 -0.143797)
(0.625156 0.972355 -0.0548176)
(0.62488 1.01454 -0.0450288)
(0.610797 0.964422 -0.00853248)
(0.601027 0.854653 -0.070143)
(0.612285 0.774232 -0.126104)
(0.628008 0.970107 -0.040277)
(0.598893 0.954874 -0.0406868)
(0.643599 0.873226 -0.121746)
(0.582305 0.822442 -0.0788521)
(0.614747 0.921448 -0.0712163)
(0.577922 0.849179 -0.0871968)
(0.594518 0.945864 -0.0679274)
(0.635067 0.945777 -0.121235)
(0.718706 0.869521 -0.267087)
(0.740011 0.871858 -0.268419)
(0.709243 0.900621 -0.261077)
(0.692789 0.80983 -0.261636)
(0.68753 0.810518 -0.27344)
(0.713052 0.976722 -0.238985)
(0.72451 0.900106 -0.242474)
(0.671167 0.845312 -0.254071)
(0.693834 0.982667 -0.225329)
(0.685883 0.986174 -0.220072)
(0.699008 0.907295 -0.265062)
(0.69746 0.936477 -0.25495)
(0.577286 1.01561 -0.248572)
(0.558715 1.00526 -0.233331)
(0.560507 0.982953 -0.271715)
(0.584876 0.970647 -0.260553)
(0.604532 0.951625 -0.269603)
(0.585634 0.953988 -0.27238)
(0.518277 0.808308 -0.279886)
(0.550085 0.870347 -0.272432)
(0.470004 0.84384 -0.289812)
(0.460593 0.849112 -0.294995)
(0.534736 0.927832 -0.295643)
(0.532998 0.874683 -0.300628)
(0.469123 0.848868 -0.303708)
(0.458738 0.813126 -0.302703)
(0.539447 0.902742 -0.27838)
(0.490342 0.853698 -0.311404)
(0.50702 0.856493 -0.266413)
(0.490225 0.827363 -0.287023)
(0.619298 0.825214 -0.212221)
(0.633697 0.846502 -0.207889)
(0.61095 0.913554 -0.199765)
(0.599235 0.814994 -0.209221)
(0.580798 0.827605 -0.220308)
(0.62089 0.960625 -0.221042)
(0.649696 0.933189 -0.209958)
(0.632107 0.808903 -0.22016)
(0.606776 0.78586 -0.22757)
(0.55985 0.812431 -0.216994)
(0.650509 0.91798 -0.234041)
(0.573297 0.776212 -0.229836)
(0.640497 0.841577 -0.229302)
(0.278235 0.224151 -0.0385385)
(0.249505 0.192845 -0.0471427)
(0.246008 0.213807 -0.0447193)
(0.254006 0.188465 -0.0546068)
(0.238981 0.20879 -0.0491334)
(0.233034 0.177283 -0.052899)
(0.346566 0.223056 -0.0711985)
(0.278268 0.185443 -0.0619476)
(0.421125 0.267026 -0.0933211)
(0.378161 0.231953 -0.0866001)
(0.25887 0.269788 -0.022846)
(0.336923 0.234105 -0.0730978)
(0.395284 0.315067 -0.0456197)
(0.352172 0.61318 -0.23852)
(0.329032 0.583548 -0.252775)
(0.38074 0.644813 -0.216932)
(0.342706 0.615895 -0.22367)
(0.360541 0.681774 -0.174815)
(0.319748 0.644421 -0.212911)
(0.317607 0.623138 -0.218594)
(0.381706 0.728874 -0.15101)
(0.356011 0.778012 -0.0605391)
(0.369726 0.745375 -0.0994752)
(0.374719 0.771137 -0.0771763)
(0.406001 0.773831 -0.0801816)
(0.361122 0.639308 -0.245327)
(0.385396 0.983418 -0.0926386)
(0.355423 0.93715 -0.137605)
(0.330128 0.864336 -0.189813)
(0.342898 0.895259 -0.14117)
(0.33378 0.93273 -0.103696)
(0.353167 0.948786 -0.0907648)
(0.268439 0.741143 -0.272512)
(0.301136 0.781113 -0.253744)
(0.348973 0.88352 -0.190503)
(0.282549 0.779601 -0.249467)
(0.256908 0.763676 -0.27125)
(0.262129 0.755919 -0.256453)
(0.244095 0.74044 -0.275094)
(0.243144 0.775634 -0.221218)
(0.240188 0.649738 -0.219816)
(0.263161 0.664126 -0.241734)
(0.283168 0.651395 -0.292917)
(0.253608 0.621123 -0.295767)
(0.246802 0.658017 -0.198273)
(0.365355 0.771894 -0.115694)
(0.407177 0.794436 -0.180287)
(0.26983 0.634172 -0.286908)
(0.263702 0.673389 -0.223851)
(0.295728 0.696364 -0.219049)
(0.29648 0.671049 -0.27013)
(0.367369 0.775874 -0.163765)
(0.339139 0.754699 -0.103708)
(0.277938 0.700247 -0.124189)
(0.309256 0.716303 -0.145208)
(0.405523 0.776625 -0.200269)
(0.375204 0.7604 -0.19478)
(0.280249 0.643969 -0.285639)
(0.278747 0.694837 -0.187489)
(0.312979 0.726822 -0.146255)
(0.333714 0.688527 -0.305633)
(0.315046 0.645053 -0.329038)
(0.34623 0.707796 -0.297614)
(0.350243 0.689423 -0.308935)
(0.340303 0.847978 -0.271652)
(0.348574 0.886063 -0.248846)
(0.307835 0.796831 -0.279814)
(0.290404 0.76801 -0.292466)
(0.316807 0.831524 -0.256322)
(0.352689 0.886179 -0.228452)
(0.303456 0.797013 -0.242573)
(0.314697 0.821452 -0.216348)
(0.35684 0.894551 -0.200539)
(0.315597 0.834376 -0.238067)
(0.293436 0.783917 -0.240354)
(0.333722 0.861041 -0.193525)
(0.300269 0.79528 -0.227032)
(0.362597 1.01026 0.412488)
(0.378769 1.05373 0.47573)
(0.361462 1.00863 0.455873)
(0.360684 0.997499 0.463072)
(0.356942 0.886095 0.398965)
(0.38328 0.946715 0.292175)
(0.366094 0.841048 0.253842)
(0.3581 0.959811 0.345817)
(0.348851 0.878326 0.28271)
(0.362808 0.900079 0.311855)
(0.37868 1.00964 0.426157)
(0.377269 0.990126 0.417707)
(0.358676 1.01783 0.446526)
(0.367516 0.94296 0.404592)
(0.38065 0.910819 0.270693)
(0.354748 0.861798 0.260415)
(0.357482 0.913398 0.368276)
(0.363301 0.806634 0.263737)
(0.368571 0.863164 0.29684)
(0.369576 0.929899 0.310475)
(0.370549 0.888826 0.334306)
(0.427835 0.371282 -0.0493111)
(0.406518 0.339336 -0.0614598)
(0.42225 0.55845 0.0342913)
(0.427897 0.542657 0.0204215)
(0.457026 0.404358 -0.0390154)
(0.447599 0.388644 -0.0678152)
(0.401712 0.511065 0.0461962)
(0.433054 0.518416 0.000576446)
(0.417195 0.403175 -0.0207999)
(0.382751 0.379665 0.00250063)
(0.374333 0.33366 -0.0170949)
(0.388676 0.415942 0.0246586)
(0.380915 0.402995 0.0256769)
(0.436074 0.424907 -0.0321541)
(0.441042 0.422602 -0.0302402)
(0.383155 0.343261 -0.0312181)
(0.40251 0.430599 0.0293596)
(0.391874 0.383328 -0.0187359)
(0.339523 0.820454 0.168578)
(0.305606 0.780732 0.134809)
(0.323062 0.827449 0.222665)
(0.329627 0.828344 0.211811)
(0.330696 0.786688 0.0931595)
(0.314601 0.743703 0.0909596)
(0.294153 0.783381 0.175104)
(0.350133 0.85147 0.159735)
(0.364162 0.917597 0.26048)
(0.349108 0.927645 0.333992)
(0.308104 0.900613 0.314916)
(0.325914 0.892858 0.280307)
(0.248218 0.721316 0.0514672)
(0.337671 0.880101 0.249071)
(0.245952 0.74465 0.116895)
(0.265549 0.776351 0.161166)
(0.311105 0.864459 0.271503)
(0.240413 0.746884 0.140951)
(0.600871 1.02263 -0.150535)
(0.588223 1.00554 -0.148064)
(0.602045 0.980037 -0.155696)
(0.586361 1.02522 -0.139924)
(0.592249 0.998853 -0.158703)
(0.590191 0.941088 -0.176214)
(0.581674 0.855827 -0.187791)
(0.553532 0.844702 -0.170804)
(0.544867 0.963519 -0.170665)
(0.537362 0.954694 -0.167315)
(0.587596 0.956214 -0.165053)
(0.553886 0.818376 -0.197934)
(0.531015 0.81565 -0.199664)
(0.54809 0.946853 -0.201099)
(0.505367 0.884538 -0.191507)
(0.48512 0.866692 -0.198382)
(0.49136 0.819726 -0.212752)
(0.48532 0.862772 -0.190787)
(0.556135 0.872706 -0.178737)
(0.507199 0.843415 -0.19527)
(0.498444 0.814986 -0.203856)
(0.382726 0.689253 0.10441)
(0.386893 0.654877 0.0580243)
(0.394436 0.735592 0.0768936)
(0.390783 0.812349 0.220842)
(0.406187 0.632291 0.0453179)
(0.39017 0.620381 0.0196723)
(0.406238 0.709647 -0.0017142)
(0.385362 0.731143 0.0396491)
(0.39033 0.641241 -0.016403)
(0.397686 0.946809 -0.214186)
(0.409011 0.966201 -0.212912)
(0.395832 0.929463 -0.226015)
(0.426402 0.989428 -0.153817)
(0.343025 0.830974 -0.300312)
(0.383316 0.881678 -0.281338)
(0.373825 0.91225 -0.245536)
(0.298774 0.752815 -0.348639)
(0.331195 0.791316 -0.328387)
(0.306607 0.796944 -0.303267)
(0.322435 0.809602 -0.285749)
(0.381849 0.876155 -0.247118)
(0.286325 0.767002 -0.315406)
(0.272088 0.725008 -0.359567)
(0.280827 0.771718 -0.299235)
(0.285542 0.727477 -0.322087)
(0.273856 0.744693 -0.323713)
(0.388802 0.977976 -0.168127)
(0.366026 0.923081 -0.177678)
(0.365822 0.876796 -0.216162)
(0.364595 0.915651 -0.192101)
(0.267473 0.76467 -0.293287)
(0.310973 0.796591 -0.287546)
(0.367484 0.898702 -0.193767)
(0.378368 0.935923 -0.180095)
(0.315839 0.847792 -0.200233)
(0.283973 0.809768 -0.229994)
(0.301936 0.819323 -0.206517)
(0.289649 0.80194 -0.236455)
(0.283751 0.767503 -0.301196)
(0.262496 0.725221 -0.321485)
(0.267639 0.794893 -0.256815)
(0.255365 0.749175 -0.317388)
(0.417893 0.542224 0.028342)
(0.406626 0.551077 0.0481264)
(0.41943 0.525888 0.0216542)
(0.434808 0.550767 0.0210832)
(0.424656 0.51181 0.0191302)
(0.463466 0.51056 -0.0470012)
(0.432513 0.376504 -0.028136)
(0.432251 0.347578 -0.0586741)
(0.463361 0.552794 -0.0282095)
(0.477968 0.385584 -0.104208)
(0.458433 0.36727 -0.0993372)
(0.461867 0.415947 -0.0977322)
(0.476035 0.38035 -0.133595)
(0.442995 0.333933 -0.11751)
(0.421014 0.334069 -0.0672536)
(0.39963 0.690006 -0.104817)
(0.377645 0.612305 -0.197297)
(0.367331 0.696397 -0.108049)
(0.350939 0.61298 -0.217569)
(0.331092 0.594318 -0.195325)
(0.324876 0.547647 -0.220307)
(0.395762 0.729158 -0.0362532)
(0.395133 0.665754 -0.0605617)
(0.395937 0.549049 -0.172256)
(0.389522 0.539838 -0.188273)
(0.376782 0.532975 -0.20438)
(0.339357 0.582822 -0.177569)
(0.338703 0.633062 -0.163915)
(0.355138 0.561577 -0.178989)
(0.352067 0.50921 -0.19483)
(0.340386 0.510326 -0.246574)
(0.353556 0.63473 -0.139809)
(0.388284 0.670131 0.209677)
(0.375824 0.688934 0.261014)
(0.379867 0.608789 0.184062)
(0.38112 0.574475 0.168171)
(0.397459 0.759275 0.266153)
(0.380562 0.677788 0.242464)
(0.394615 0.844666 0.327365)
(0.451833 0.836062 0.267758)
(0.435092 0.927094 0.309574)
(0.415874 0.641951 0.176679)
(0.408456 0.829396 0.315426)
(0.429344 0.798038 0.241273)
(0.42427 0.903979 0.30399)
(0.40404 0.646231 0.196643)
(0.330697 0.984064 0.452414)
(0.280716 0.768203 0.273877)
(0.287667 0.750761 0.226608)
(0.316891 0.924408 0.356447)
(0.337932 0.930305 0.391252)
(0.329923 0.933581 0.371268)
(0.304353 0.79084 0.288553)
(0.288158 0.865643 0.336478)
(0.27695 0.842396 0.325229)
(0.265191 0.798537 0.228439)
(0.31583 0.947599 0.404624)
(0.315162 0.938535 0.426241)
(0.327657 0.968929 0.43669)
(0.312786 0.920187 0.3618)
(0.302466 0.745163 0.186089)
(0.3141 0.786742 0.236374)
(0.275512 0.841118 0.321793)
(0.272646 0.802044 0.260345)
(0.291296 0.850889 0.268837)
(0.292933 0.580994 0.26844)
(0.295094 0.491523 0.190052)
(0.31903 0.750595 0.363459)
(0.333461 0.70871 0.314478)
(0.308336 0.609081 0.284227)
(0.323868 0.592608 0.248737)
(0.296202 0.581473 0.251261)
(0.312553 0.632512 0.288521)
(0.327847 0.570499 0.232661)
(0.306788 0.532722 0.209753)
(0.333424 0.773846 0.356045)
(0.334714 0.747822 0.336826)
(0.351276 0.775992 0.345762)
(0.318972 0.754473 0.34547)
(0.315388 0.712847 0.355474)
(0.336866 0.581315 0.223929)
(0.339573 0.542698 0.208354)
(0.31852 0.733906 0.344447)
(0.299003 0.733731 0.353115)
(0.322466 0.708917 0.334077)
(0.314363 0.558466 0.231625)
(0.666265 1.02187 -0.219832)
(0.625817 1.03394 -0.210677)
(0.674636 1.05349 -0.191034)
(0.666841 1.0348 -0.194016)
(0.623798 0.995219 -0.243197)
(0.675416 0.966198 -0.19688)
(0.680069 0.945024 -0.220351)
(0.652639 0.954015 -0.239671)
(0.624105 1.00919 -0.200578)
(0.637411 0.96057 -0.220713)
(0.358585 0.74629 0.0171699)
(0.359871 0.82738 0.0908379)
(0.357345 0.788122 0.0200624)
(0.343807 0.803185 -0.00307692)
(0.347594 0.762909 0.0349027)
(0.362706 0.740448 -0.000887109)
(0.324476 0.72167 -0.0139907)
(0.299659 0.664303 -0.0695278)
(0.31123 0.680933 -0.0724311)
(0.27899 0.626726 -0.105009)
(0.286854 0.655949 -0.122846)
(0.341652 0.668628 -0.0642962)
(0.354759 0.643486 -0.132651)
(0.299341 0.57201 -0.172895)
(0.299763 0.595153 -0.124169)
(0.290562 0.639924 -0.118617)
(0.256464 0.564481 -0.170068)
(0.274252 0.564985 -0.15175)
(0.154811 0.561328 0.204563)
(0.156262 0.598307 0.244281)
(0.128533 0.582817 0.152522)
(0.122286 0.532333 0.0936992)
(0.125084 0.543855 0.0836578)
(0.278956 0.542483 0.2782)