/*--------------------------------*- C++ -*----------------------------------*\
| =========                 |                                                 |
| \\      /  F ield         | OpenFOAM: The Open Source CFD Toolbox           |
|  \\    /   O peration     | Version:  v1612+                                |
|   \\  /    A nd           | Web:      www.OpenFOAM.com                      |
|    \\/     M anipulation  |                                                 |
\*---------------------------------------------------------------------------*/
FoamFile
{
    version     2.0;
    format      ascii;
    class       volScalarField;
    location    "100";
    object      p;
}
// * * * * * * * * * * * * * * * * * * * * * * * * * * * * * * * * * * * * * //

dimensions      [0 2 -2 0 0 0 0];

internalField   nonuniform List<scalar> 
18827
(
3.40973
3.31847
3.37612
3.33228
3.32957
3.32539
3.32988
3.32934
3.30443
3.33152
3.32214
3.31426
3.3199
3.31526
3.33895
3.32154
3.35415
3.34782
3.34954
3.36052
3.36919
3.36521
3.36464
3.35717
3.36197
3.36017
3.36063
3.35506
3.37388
3.36825
3.35915
3.36625
3.37007
3.36405
3.36117
3.35896
3.35862
3.35901
3.35852
3.36051
3.36428
3.35978
3.36106
3.33467
3.34405
3.34529
3.33476
3.32808
3.32795
3.33864
3.34746
3.33721
3.33607
3.32949
3.3339
3.35431
3.32926
3.34375
3.35305
3.2702
3.27285
3.26925
3.25159
3.25509
3.28035
3.27745
3.24467
3.2743
3.28018
3.24751
3.24919
3.23775
3.22263
3.23557
3.23339
3.27017
3.26682
3.25773
3.2513
3.24304
3.25104
3.24596
3.25954
3.26813
3.26445
3.27568
3.26933
3.24985
3.2788
3.26987
3.33165
3.33991
3.34219
3.33936
3.33645
3.3418
3.33124
3.32994
3.33281
3.33303
3.32946
3.33877
3.33902
3.32636
3.32998
3.3362
3.34741
3.33456
3.32989
3.33189
3.32629
3.33175
3.33865
3.34812
3.36799
3.35058
3.3598
3.38434
3.37463
3.3621
3.38406
3.38791
3.38465
3.34465
3.38226
3.37384
3.40842
3.40709
3.41252
3.41654
3.41595
3.40771
3.40769
3.41124
3.41411
3.41567
3.38428
3.38488
3.3767
3.37911
3.38053
3.37757
3.37211
3.37669
3.36098
3.36956
3.37224
3.36385
3.37643
3.37104
3.36987
3.40492
3.38991
3.39408
3.40787
3.39617
3.38117
3.4005
3.39478
3.39952
3.39445
3.40073
3.39704
3.40506
3.38927
3.36137
3.36587
3.36544
3.36669
3.36918
3.36547
3.36895
3.37179
3.37677
3.37238
3.3637
3.36702
3.36346
3.39308
3.39652
3.39274
3.39271
3.39895
3.39599
3.39542
3.39501
3.39711
3.39034
3.39724
3.34526
3.33706
3.33026
3.33517
3.33777
3.34363
3.33957
3.33519
3.33291
3.3274
3.33901
3.35106
3.34748
3.34844
3.35169
3.36859
3.37401
3.3566
3.37483
3.36895
3.35593
3.36311
3.36088
3.36626
3.36622
3.36189
3.36682
3.36936
3.37155
3.37409
3.37514
3.36646
3.37736
3.37653
3.37188
3.3788
3.37317
3.41238
3.41471
3.41624
3.41026
3.41858
3.41698
3.41516
3.41352
3.41754
3.41727
3.41642
3.41672
3.41925
3.4178
3.41831
3.38151
3.37472
3.36719
3.37357
3.37444
3.3822
3.37434
3.37235
3.37531
3.36685
3.37283
3.37766
3.37079
3.40485
3.40249
3.4044
3.40685
3.4065
3.41046
3.40786
3.33583
3.34017
3.32769
3.32633
3.32706
3.32852
3.3455
3.33471
3.33534
3.32772
3.33683
3.32945
3.34071
3.33219
3.32777
3.3443
3.34679
3.32833
3.34342
3.34411
3.33829
3.34259
3.37893
3.37738
3.34699
3.37222
3.37852
3.34673
3.35673
3.34898
3.37318
3.36838
3.3696
3.36841
3.36224
3.34448
3.36232
3.37583
3.35995
3.36896
3.37352
3.37196
3.39277
3.38673
3.39239
3.39054
3.38683
3.38913
3.3801
3.38641
3.38749
3.38039
3.38584
3.37929
3.38879
3.38859
3.37983
3.38485
3.3824
3.34701
3.34176
3.33196
3.34317
3.35795
3.3387
3.36326
3.34919
3.3538
3.36369
3.36435
3.34932
3.37636
3.34171
3.34629
3.32963
3.34213
3.34763
3.33407
3.33836
3.3282
3.33291
3.3457
3.35278
3.33733
3.3329
3.3249
3.35441
3.33949
3.40192
3.41085
3.39805
3.40885
3.39756
3.40473
3.40715
3.4051
3.39304
3.39322
3.39537
3.39139
3.39073
3.39682
3.35662
3.34609
3.35207
3.35085
3.3524
3.35897
3.34227
3.35086
3.35093
3.36968
3.36219
3.35343
3.36022
3.34928
3.35126
3.38189
3.39065
3.3897
3.39246
3.39662
3.38399
3.38327
3.38852
3.39156
3.3867
3.38465
3.39152
3.4024
3.38069
3.38765
3.39645
3.3742
3.34418
3.34035
3.33327
3.33795
3.33613
3.3394
3.33975
3.33147
3.33559
3.33018
3.34418
3.33518
3.38536
3.38939
3.38295
3.3868
3.3939
3.39248
3.38536
3.39741
3.38944
3.39168
3.39601
3.38949
3.3858
3.39673
3.39735
3.40222
3.32677
3.30608
3.32319
3.29114
3.31272
3.33205
3.31418
3.30772
3.30963
3.3864
3.38457
3.38119
3.38074
3.35202
3.36421
3.3863
3.3802
3.36789
3.36441
3.37388
3.3687
3.37123
3.36752
3.37131
3.37662
3.37487
3.37259
3.36285
3.37665
3.37655
3.37104
3.37999
3.37555
3.35843
3.36533
3.35999
3.36849
3.37467
3.36263
3.37447
3.36708
3.36753
3.37447
3.35575
3.37053
3.38112
3.38324
3.3646
3.36379
3.28182
3.28913
3.28128
3.27835
3.29817
3.30489
3.30484
3.29962
3.28201
3.28978
3.30147
3.30662
3.31542
3.30152
3.30198
3.29108
3.29016
3.28958
3.30418
3.30303
3.29983
3.35155
3.33855
3.34155
3.35548
3.34441
3.35002
3.34742
3.3525
3.34877
3.35089
3.35098
3.37073
3.35176
3.36842
3.38715
3.38435
3.37144
3.37136
3.385
3.38435
3.38039
3.37756
3.39022
3.39036
3.39152
3.39375
3.39511
3.39857
3.37465
3.37126
3.38008
3.39356
3.38759
3.39768
3.39959
3.39265
3.38464
3.38425
3.38957
3.38303
3.37685
3.37141
3.38219
3.39459
3.37752
3.38186
3.39232
3.37388
3.38202
3.38988
3.38722
3.38584
3.31444
3.31386
3.30326
3.31173
3.3087
3.31738
3.32523
3.29693
3.29908
3.30993
3.3065
3.30208
3.30877
3.30905
3.32104
3.31559
3.31211
3.30926
3.3192
3.32508
3.36967
3.35751
3.36877
3.3546
3.35253
3.35918
3.35427
3.35827
3.36909
3.3681
3.35856
3.36419
3.36002
3.36023
3.37476
3.36987
3.37226
3.36823
3.36344
3.37233
3.37389
3.39818
3.3974
3.39599
3.39685
3.39835
3.39581
3.39386
3.39651
3.3984
3.39886
3.39834
3.3982
3.39762
3.3976
3.39609
3.35371
3.34993
3.34964
3.36353
3.36501
3.33945
3.37438
3.37684
3.37846
3.37631
3.33178
3.33141
3.36513
3.3638
3.34914
3.3748
3.35909
3.38197
3.37056
3.36552
3.37093
3.37732
3.38045
3.36173
3.37313
3.37039
3.38356
3.38386
3.38215
3.38271
3.37848
3.36883
3.37549
3.36627
3.38077
3.37145
3.37263
3.37886
3.37868
3.36965
3.38235
3.38018
3.37557
3.39448
3.38081
3.38909
3.37661
3.38916
3.38042
3.39655
3.39602
3.39637
3.39243
3.39
3.39124
3.39669
3.3978
3.3968
3.39665
3.39278
3.39858
3.36836
3.37116
3.36428
3.36294
3.37176
3.35914
3.36074
3.35558
3.36721
3.37086
3.36963
3.36984
3.37611
3.37339
3.36747
3.36579
3.36153
3.40526
3.40676
3.40045
3.39984
3.3955
3.39541
3.39457
3.39505
3.39318
3.39212
3.39544
3.41074
3.40593
3.39898
3.40836
3.39582
3.40457
3.39313
3.4074
3.39989
3.38442
3.39474
3.41392
3.40875
3.41061
3.41371
3.40133
3.408
3.40999
3.40381
3.40394
3.40152
3.3941
3.39972
3.40202
3.40543
3.39985
3.40199
3.39465
3.39864
3.39882
3.38807
3.3897
3.39115
3.34593
3.34617
3.34613
3.34415
3.34714
3.34201
3.34173
3.34514
3.35053
3.34524
3.34323
3.35535
3.35274
3.33672
3.34528
3.35765
3.34085
3.35022
3.34746
3.33514
3.33104
3.34254
3.33775
3.33671
3.34203
3.32832
3.32182
3.32037
3.32229
3.34105
3.33511
3.33309
3.34284
3.32567
3.33627
3.35076
3.35391
3.35947
3.35321
3.35218
3.35731
3.35236
3.3556
3.35736
3.36177
3.3928
3.39443
3.39743
3.39367
3.39343
3.39223
3.39399
3.40054
3.40023
3.39814
3.39794
3.3974
3.39574
3.39898
3.39456
3.39889
3.40332
3.39931
3.30678
3.2999
3.2819
3.28603
3.31823
3.30187
3.29126
3.29578
3.32333
3.34015
3.33129
3.32651
3.33062
3.32595
3.32702
3.33257
3.31461
3.32961
3.30547
3.38932
3.393
3.3835
3.37729
3.3674
3.37641
3.38897
3.39141
3.38078
3.38374
3.37775
3.38726
3.20679
3.19827
3.3867
3.22163
3.21759
3.2226
3.21913
3.2603
3.26407
3.25426
3.24273
3.24667
3.24522
3.23554
3.23003
3.39839
3.39455
3.34592
3.34943
3.33446
3.34092
3.23642
3.24076
3.39016
3.29741
3.29586
3.39531
3.40327
3.39854
3.34225
3.34427
3.33129
3.24376
3.24566
3.39861
3.39806
3.24859
3.24891
3.24792
3.39747
3.40018
3.39823
3.40076
3.4015
3.39963
3.40411
3.29492
3.29887
3.29006
3.38158
3.37775
3.38109
3.36464
3.3719
3.36733
3.33894
3.3379
3.25965
3.2672
3.26312
3.3955
3.39682
3.39831
3.35405
3.3519
3.36402
3.40177
3.40092
3.3118
3.32211
3.36241
3.37395
3.36546
3.28321
3.28777
3.29221
3.39489
3.39434
3.39452
3.27751
3.28549
3.2777
3.34827
3.34221
3.40087
3.39995
3.39925
3.39762
3.39866
3.39967
3.35842
3.35511
3.38058
3.37994
3.3783
3.29959
3.29029
3.29475
3.32035
3.30639
3.30504
3.3991
3.40137
3.398
3.40123
3.40087
3.33729
3.33577
3.3974
3.40054
3.39462
3.35813
3.35543
3.40715
3.40644
3.40598
3.3404
3.34065
3.36918
3.36815
3.36565
3.36715
3.36568
3.39893
3.40018
3.36093
3.35972
3.35554
3.35534
3.36637
3.36788
3.39767
3.40239
3.39936
3.37986
3.38133
3.38289
3.3856
3.39112
3.39112
3.4086
3.40853
3.41032
3.37887
3.37996
3.41157
3.41259
3.40795
3.41033
3.40481
3.40456
3.39918
3.40177
3.39802
3.39533
3.40192
3.40868
3.40124
3.39488
3.40137
3.39622
3.41207
3.41258
3.39844
3.39191
3.39076
3.41056
3.40494
3.40525
3.41452
3.41048
3.41039
3.44499
3.43232
3.43295
3.41302
3.41296
3.41027
3.4012
3.39644
3.46038
3.45667
3.40317
3.40543
3.41177
3.4053
3.43024
3.43745
3.43399
3.42815
3.42794
3.41759
3.41644
3.41646
3.41733
3.41855
3.41626
3.41632
3.41833
3.41846
3.41567
3.41539
3.41608
3.41535
3.41726
3.39556
3.40783
3.40326
3.39851
3.41822
3.40461
3.40571
3.4021
3.41634
3.40969
3.4016
3.40771
3.41072
3.41395
3.41573
3.41465
3.41627
3.4175
3.42686
3.42076
3.42749
3.42328
3.4165
3.40401
3.39876
3.40064
3.40241
3.39696
3.41294
3.41587
3.41539
3.40147
3.41132
3.40807
3.40225
3.40985
3.40267
3.40075
3.40787
3.40924
3.39545
3.4066
3.40138
3.39023
3.40198
3.40249
3.44968
3.4531
3.44781
3.43357
3.43908
3.4362
3.43903
3.44808
3.43452
3.4396
3.43921
3.4436
3.4464
3.40297
3.39672
3.37959
3.40097
3.40886
3.40602
3.40896
3.40012
3.40036
3.40647
3.40423
3.40317
3.40421
3.41202
3.40712
3.41361
3.40639
3.41102
3.41437
3.41459
3.4138
3.41183
3.4115
3.41132
3.41404
3.41665
3.41758
3.4167
3.41726
3.41382
3.41404
3.41741
3.41667
3.41629
3.41536
3.4144
3.41938
3.41216
3.41567
3.42761
3.42673
3.42333
3.42008
3.43044
3.44415
3.4215
3.41614
3.42154
3.42303
3.41958
3.43047
3.42427
3.43701
3.4557
3.43425
3.4597
3.45797
3.4076
3.41169
3.40626
3.41064
3.40828
3.4122
3.41243
3.41714
3.40657
3.40972
3.40742
3.40952
3.4044
3.39731
3.40038
3.39952
3.40907
3.41415
3.40819
3.40681
3.40779
3.40741
3.39948
3.39732
3.39221
3.38988
3.4077
3.39821
3.40294
3.39319
3.4052
3.40568
3.40024
3.40212
3.40583
3.40408
3.38754
3.39097
3.39719
3.39844
3.40094
3.3929
3.38563
3.39677
3.4032
3.40221
3.39166
3.39036
3.39458
3.3933
3.37422
3.39861
3.39792
3.40263
3.39443
3.39066
3.38085
3.39358
3.38895
3.38731
3.38267
3.37939
3.3835
3.38908
3.38258
3.37931
3.38664
3.38744
3.3878
3.38653
3.39471
3.40014
3.40096
3.40398
3.38988
3.39408
3.39389
3.39215
3.38355
3.3818
3.3882
3.38407
3.39881
3.40673
3.4
3.38633
3.39037
3.38858
3.39518
3.38295
3.38948
3.38934
3.39397
3.38801
3.3899
3.37556
3.37952
3.39331
3.37874
3.38148
3.3944
3.41351
3.40698
3.40797
3.40272
3.40058
3.40155
3.37048
3.37316
3.38194
3.38811
3.41255
3.38816
3.38418
3.39318
3.39894
3.40864
3.41178
3.38581
3.3789
3.3899
3.39317
3.39702
3.3792
3.39183
3.39679
3.39181
3.39793
3.38854
3.39726
3.39824
3.398
3.39302
3.3826
3.38328
3.39399
3.39588
3.3903
3.40212
3.4043
3.4034
3.40232
3.39228
3.39729
3.39743
3.40117
3.39619
3.39535
3.41067
3.40847
3.40683
3.40975
3.40608
3.40811
3.41155
3.41099
3.40962
3.40683
3.40643
3.41064
3.41228
3.41073
3.40929
3.40859
3.40853
3.41155
3.40865
3.40922
3.40921
3.40329
3.41053
3.40851
3.40921
3.41007
3.35802
3.37361
3.37092
3.36784
3.36417
3.36877
3.37982
3.37607
3.37532
3.37201
3.3749
3.38509
3.37338
3.40606
3.40674
3.40842
3.40572
3.40968
3.40875
3.4084
3.40762
3.41015
3.40711
3.40821
3.40749
3.40772
3.41008
3.41202
3.41238
3.41198
3.41072
3.40957
3.40975
3.41214
3.41146
3.40943
3.40825
3.4074
3.40821
3.41213
3.41204
3.40868
3.40927
3.40901
3.40833
3.39
3.39518
3.36809
3.37767
3.38374
3.38085
3.38166
3.37757
3.37576
3.36785
3.36398
3.37115
3.3694
3.36872
3.36472
3.36701
3.37579
3.3756
3.37307
3.37776
3.37279
3.37057
3.39021
3.38065
3.37939
3.37424
3.3697
3.40598
3.40603
3.40578
3.40183
3.4058
3.4028
3.39064
3.39941
3.40145
3.40574
3.38923
3.40041
3.3944
3.40281
3.38994
3.34639
3.34778
3.35631
3.36137
3.36312
3.3477
3.35242
3.34829
3.3518
3.34588
3.34914
3.33748
3.36086
3.34004
3.35104
3.34159
3.34819
3.36961
3.36273
3.37298
3.38538
3.37465
3.37587
3.38256
3.35597
3.35467
3.3599
3.36951
3.38884
3.39171
3.39092
3.39631
3.39679
3.40235
3.40194
3.40113
3.40256
3.40229
3.40324
3.40032
3.40349
3.40296
3.40472
3.40388
3.39925
3.39906
3.40622
3.40638
3.40095
3.39964
3.3499
3.3584
3.36882
3.36965
3.36989
3.35977
3.38366
3.3865
3.375
3.37727
3.38021
3.37119
3.36519
3.37281
3.37939
3.38291
3.3674
3.36552
3.35291
3.36342
3.35653
3.36737
3.36323
3.3574
3.36299
3.37823
3.3838
3.38593
3.3857
3.37591
3.38149
3.36937
3.37614
3.38194
3.37475
3.31771
3.32917
3.3318
3.33126
3.33826
3.33172
3.35563
3.34943
3.35086
3.35194
3.34255
3.34256
3.33459
3.33905
3.33343
3.34125
3.34407
3.36345
3.3656
3.35518
3.3547
3.35359
3.34766
3.36487
3.37173
3.36714
3.36453
3.34832
3.35606
3.3525
3.3579
3.40027
3.40275
3.40447
3.40254
3.40485
3.40496
3.40383
3.40433
3.40711
3.40477
3.40371
3.40296
3.40549
3.40346
3.40421
3.40261
3.40278
3.40683
3.40647
3.40416
3.4049
3.33435
3.33884
3.34463
3.36426
3.36779
3.37065
3.36391
3.36991
3.37908
3.37139
3.37958
3.36407
3.36758
3.3706
3.36722
3.3735
3.37637
3.38202
3.37604
3.37547
3.35667
3.36544
3.37645
3.3657
3.39677
3.40333
3.39903
3.40087
3.38579
3.39242
3.39867
3.38539
3.39672
3.38952
3.39214
3.39102
3.39639
3.4008
3.39146
3.38705
3.39339
3.39448
3.38968
3.38443
3.38233
3.39641
3.38454
3.38913
3.38068
3.3871
3.38982
3.38156
3.3872
3.32307
3.32738
3.32923
3.32451
3.35386
3.34172
3.3463
3.35356
3.35132
3.34112
3.34864
3.34228
3.39865
3.40123
3.40232
3.39823
3.40009
3.40048
3.40081
3.40112
3.40092
3.39936
3.40206
3.4018
3.40251
3.39383
3.38464
3.37366
3.38785
3.39457
3.38941
3.40441
3.40299
3.40169
3.39934
3.39827
3.31439
3.31722
3.3107
3.30626
3.31078
3.31778
3.29089
3.31739
3.30017
3.31824
3.29347
3.30451
3.2965
3.30162
3.31118
3.31604
3.31775
3.2851
3.31428
3.28425
3.29459
3.30452
3.31605
3.31281
3.32067
3.30665
3.30629
3.37596
3.37683
3.3787
3.37345
3.39278
3.37558
3.37903
3.38748
3.38476
3.38157
3.3754
3.38248
3.34855
3.35323
3.34181
3.34666
3.35185
3.34661
3.3687
3.37636
3.36081
3.36114
3.35948
3.3635
3.36234
3.37906
3.36121
3.36804
3.36529
3.36602
3.37088
3.38042
3.37008
3.3608
3.37883
3.34825
3.3399
3.3358
3.3456
3.35066
3.35424
3.33954
3.34172
3.40084
3.40189
3.39576
3.4063
3.4032
3.40336
3.4071
3.38945
3.40232
3.40138
3.39461
3.40446
3.39713
3.38668
3.3993
3.389
3.40095
3.39488
3.39921
3.38401
3.38448
3.39036
3.38821
3.39503
3.39648
3.38846
3.39599
3.39511
3.39173
3.39318
3.39976
3.39654
3.39963
3.39956
3.39915
3.39905
3.39989
3.40069
3.40019
3.39866
3.3986
3.40045
3.3992
3.40311
3.39929
3.39851
3.33455
3.33553
3.34255
3.31505
3.32649
3.33032
3.32982
3.33006
3.33155
3.33594
3.31106
3.31333
3.31828
3.33528
3.33826
3.33688
3.32607
3.32603
3.32784
3.32475
3.37118
3.36786
3.36877
3.3589
3.3657
3.35932
3.34995
3.35151
3.27956
3.27224
3.27658
3.27409
3.27749
3.29764
3.31001
3.2849
3.29783
3.28846
3.2935
3.28124
3.31945
3.30654
3.30257
3.30981
3.30835
3.30325
3.29956
3.2992
3.30254
3.38808
3.39233
3.38811
3.39389
3.39479
3.39194
3.39623
3.38771
3.38896
3.39339
3.39371
3.39729
3.39527
3.38878
3.38678
3.3937
3.39111
3.40005
3.39888
3.39571
3.39608
3.39462
3.39528
3.39707
3.39641
3.2723
3.27577
3.27427
3.28946
3.28266
3.28889
3.29344
3.29584
3.29867
3.30173
3.29227
3.27585
3.28878
3.2731
3.28384
3.27696
3.28227
3.37833
3.38244
3.35339
3.35227
3.35073
3.3552
3.35361
3.35449
3.33985
3.35258
3.34686
3.35252
3.35777
3.34922
3.33746
3.34239
3.29331
3.30113
3.28995
3.29781
3.30864
3.33238
3.33004
3.3268
3.33831
3.34281
3.33095
3.33051
3.34432
3.33877
3.3253
3.32492
3.34467
3.34854
3.31541
3.3155
3.31452
3.32079
3.32234
3.32058
3.32587
3.4014
3.40039
3.39971
3.39712
3.40412
3.40333
3.40025
3.38984
3.39384
3.40138
3.40079
3.4037
3.39884
3.39701
3.40081
3.40145
3.39679
3.39686
3.36278
3.35835
3.36572
3.33202
3.3435
3.33688
3.34663
3.33407
3.33178
3.34886
3.34988
3.34536
3.34921
3.37862
3.37923
3.36694
3.37572
3.363
3.39856
3.39906
3.39758
3.40069
3.39382
3.39611
3.39321
3.39617
3.39628
3.39713
3.39136
3.3859
3.39314
3.26802
3.26915
3.2918
3.28306
3.27951
3.28795
3.293
3.2726
3.28653
3.29586
3.35389
3.36165
3.37306
3.35636
3.34969
3.36688
3.37126
3.36373
3.32272
3.32864
3.33175
3.33
3.28857
3.28658
3.2915
3.31759
3.32187
3.32331
3.33571
3.32186
3.30641
3.30562
3.38313
3.3788
3.38646
3.3894
3.38951
3.3462
3.35169
3.38283
3.38279
3.37247
3.38055
3.37685
3.36504
3.3641
3.37114
3.37872
3.37978
3.36576
3.3702
3.33742
3.34068
3.37859
3.36674
3.3745
3.36328
3.37435
3.37034
3.39021
3.39245
3.38765
3.39008
3.37297
3.36706
3.37371
3.3771
3.40096
3.38676
3.38407
3.38953
3.38871
3.39158
3.38267
3.375
3.38466
3.38026
3.25782
3.26629
3.26842
3.28621
3.28733
3.28493
3.28858
3.28769
3.39679
3.39854
3.39574
3.4048
3.39959
3.39807
3.40276
3.39801
3.39507
3.39016
3.40038
3.40581
3.39534
3.40063
3.39767
3.39466
3.39824
3.40492
3.4048
3.39963
3.39167
3.3904
3.4017
3.39975
3.39118
3.3922
3.40257
3.40026
3.39833
3.39634
3.39233
3.37768
3.39345
3.39777
3.39391
3.39153
3.39008
3.39723
3.38104
3.39125
3.38702
3.40158
3.38987
3.39028
3.38643
3.38581
3.3773
3.3935
3.39699
3.24546
3.24965
3.25816
3.25189
3.25301
3.39666
3.39552
3.39147
3.39684
3.39762
3.39325
3.39551
3.39457
3.39679
3.39794
3.39764
3.39749
3.39793
3.24186
3.25858
3.24358
3.25127
3.25719
3.25786
3.28992
3.28259
3.29478
3.31343
3.31398
3.31553
3.32406
3.33994
3.33484
3.32939
3.34312
3.33657
3.3323
3.32917
3.39188
3.39979
3.40064
3.39358
3.39794
3.39495
3.39629
3.39501
3.26326
3.2659
3.25326
3.26778
3.3138
3.30505
3.31399
3.27661
3.28843
3.27693
3.27725
3.27401
3.27405
3.27825
3.27287
3.31999
3.3161
3.31336
3.32783
3.30979
3.30823
3.39177
3.39368
3.38443
3.38444
3.37865
3.38773
3.38458
3.38648
3.38964
3.38996
3.3805
3.38906
3.39063
3.24103
3.22849
3.23907
3.24685
3.227
3.23232
3.23974
3.25127
3.2505
3.25133
3.24663
3.25113
3.2429
3.25029
3.31223
3.32368
3.33127
3.31715
3.31249
3.36716
3.36387
3.36012
3.34899
3.3574
3.36148
3.35697
3.39636
3.39507
3.39578
3.39737
3.39304
3.39588
3.38633
3.39657
3.39159
3.23082
3.24249
3.23661
3.22132
3.22177
3.23183
3.21346
3.21751
3.22227
3.25359
3.25604
3.25107
3.23748
3.24119
3.22956
3.23283
3.23628
3.2434
3.26932
3.26075
3.27676
3.27158
3.26816
3.27301
3.25888
3.26504
3.27177
3.26203
3.25759
3.26768
3.26769
3.26739
3.25749
3.2573
3.26002
3.22668
3.22804
3.23906
3.23365
3.24151
3.25715
3.25429
3.25001
3.25867
3.25383
3.25927
3.26
3.24093
3.24975
3.24694
3.26947
3.27226
3.29706
3.27555
3.26522
3.21433
3.22454
3.21512
3.22398
3.2299
3.23136
3.23883
3.22274
3.2396
3.24254
3.23364
3.24111
3.217
3.22544
3.22632
3.36062
3.36071
3.35247
3.37886
3.33979
3.34839
3.34338
3.31569
3.33134
3.32829
3.37939
3.37927
3.3739
3.37861
3.36942
3.37945
3.37378
3.37356
3.36257
3.37962
3.38056
3.38486
3.3926
3.39205
3.20819
3.21265
3.21654
3.23036
3.22763
3.22215
3.20473
3.22202
3.21166
3.21495
3.22212
3.29507
3.28455
3.28423
3.29265
3.29756
3.34569
3.36029
3.35504
3.35297
3.34294
3.34009
3.35538
3.34898
3.34354
3.34002
3.35047
3.32928
3.3347
3.32028
3.39007
3.387
3.38426
3.38496
3.38049
3.3784
3.38659
3.38464
3.36197
3.35072
3.36
3.35329
3.36464
3.3702
3.35358
3.34889
3.22087
3.22141
3.23057
3.21614
3.20858
3.20985
3.21396
3.21384
3.22184
3.2179
3.22471
3.22492
3.22372
3.27581
3.27743
3.2801
3.27505
3.29074
3.30288
3.28909
3.28311
3.28664
3.29918
3.29917
3.25798
3.24799
3.26897
3.2669
3.25719
3.25575
3.24679
3.24771
3.23657
3.25233
3.25796
3.25358
3.23075
3.23301
3.22948
3.23721
3.21979
3.2225
3.21918
3.22755
3.24005
3.23663
3.25228
3.24451
3.23007
3.23317
3.22924
3.23469
3.22589
3.22794
3.23517
3.24018
3.22979
3.22819
3.23163
3.22963
3.23384
3.38943
3.39277
3.39853
3.39323
3.39291
3.39142
3.38976
3.38508
3.39711
3.38954
3.39307
3.3877
3.39502
3.38458
3.38737
3.26443
3.26144
3.26069
3.25822
3.26072
3.26303
3.27012
3.2547
3.25772
3.27161
3.37125
3.38045
3.37657
3.38052
3.38165
3.39669
3.39401
3.39836
3.39413
3.39441
3.28592
3.28752
3.28082
3.28508
3.28348
3.29618
3.30248
3.29611
3.29254
3.33993
3.35704
3.34203
3.36012
3.36274
3.36737
3.34936
3.35072
3.32212
3.31626
3.31848
3.32822
3.33102
3.33262
3.32652
3.31893
3.32877
3.32384
3.28143
3.25952
3.27122
3.26006
3.26792
3.27497
3.26906
3.39682
3.39527
3.39625
3.39736
3.38801
3.39987
3.39881
3.3962
3.3975
3.39552
3.39466
3.39487
3.39577
3.39335
3.39605
3.39614
3.38481
3.39211
3.39282
3.39335
3.39097
3.39499
3.38999
3.39883
3.39402
3.38928
3.3848
3.40056
3.40046
3.39434
3.39388
3.39761
3.3966
3.40108
3.39553
3.40181
3.39925
3.39639
3.39675
3.39616
3.39507
3.39613
3.39785
3.39901
3.3998
3.30083
3.30201
3.31126
3.31193
3.2986
3.31087
3.30964
3.32527
3.31753
3.29671
3.29491
3.29937
3.29979
3.30333
3.27307
3.28873
3.27158
3.27057
3.27623
3.26806
3.27762
3.38488
3.3854
3.37735
3.38393
3.37913
3.35281
3.35644
3.36127
3.35719
3.36687
3.35718
3.35232
3.35094
3.34225
3.32438
3.32674
3.32093
3.31762
3.3033
3.29434
3.29396
3.29809
3.29106
3.30583
3.31349
3.29102
3.28668
3.30121
3.30836
3.30081
3.31548
3.30128
3.28684
3.28783
3.29322
3.30493
3.28605
3.28256
3.28686
3.28028
3.39472
3.39404
3.3968
3.39932
3.397
3.3959
3.39523
3.38891
3.39434
3.39564
3.3953
3.39747
3.39649
3.39933
3.39769
3.39674
3.39285
3.38715
3.38358
3.38293
3.38432
3.37248
3.32303
3.30611
3.30687
3.31863
3.31204
3.31626
3.32191
3.3062
3.30039
3.30662
3.30981
3.31412
3.33353
3.32839
3.30007
3.30534
3.40063
3.395
3.39417
3.39822
3.40163
3.39705
3.39405
3.39488
3.39978
3.39794
3.39644
3.40334
3.39955
3.39923
3.39865
3.37993
3.37735
3.38572
3.38559
3.38402
3.38662
3.38384
3.37891
3.3806
3.38436
3.38184
3.38493
3.36451
3.3748
3.27579
3.2822
3.27212
3.2695
3.26977
3.26859
3.27297
3.26394
3.28028
3.28698
3.26196
3.30731
3.31523
3.30608
3.30682
3.30408
3.30594
3.29937
3.32299
3.31881
3.31841
3.31551
3.30439
3.39572
3.39779
3.39599
3.39685
3.39999
3.39967
3.40162
3.31395
3.31478
3.31025
3.31004
3.30123
3.31401
3.32046
3.40322
3.40085
3.3981
3.39775
3.40146
3.39936
3.39596
3.39425
3.396
3.39391
3.39432
3.39517
3.39818
3.39423
3.39643
3.39664
3.39683
3.398
3.38504
3.37938
3.3971
3.3913
3.39012
3.39475
3.39076
3.38809
3.38886
3.38631
3.38219
3.38299
3.39369
3.3949
3.3841
3.37692
3.38587
3.37471
3.39288
3.38567
3.38908
3.40592
3.40106
3.40336
3.39647
3.40153
3.4018
3.40254
3.39068
3.40117
3.39843
3.39912
3.39839
3.40055
3.39314
3.40707
3.40529
3.40066
3.3168
3.29805
3.2968
3.29816
3.30713
3.28849
3.29674
3.29806
3.29128
3.30152
3.29962
3.30045
3.30686
3.3046
3.29931
3.29211
3.31135
3.31195
3.31835
3.3026
3.30855
3.30353
3.31128
3.32585
3.32446
3.32621
3.33057
3.33276
3.32386
3.32135
3.40021
3.40085
3.40016
3.40379
3.4017
3.40093
3.40123
3.40093
3.40045
3.39857
3.39932
3.40149
3.40109
3.40013
3.39901
3.37262
3.38039
3.36637
3.38851
3.38574
3.37624
3.38032
3.37709
3.38395
3.37392
3.3953
3.4028
3.39712
3.39208
3.39674
3.39872
3.33869
3.33754
3.34485
3.33969
3.33748
3.3475
3.33848
3.40143
3.40165
3.40102
3.40436
3.40317
3.40067
3.3978
3.317
3.31574
3.3223
3.32013
3.31772
3.3196
3.33382
3.32966
3.33119
3.32322
3.33262
3.33547
3.34351
3.34658
3.32792
3.35772
3.35591
3.36482
3.35627
3.36376
3.36023
3.34795
3.35751
3.3439
3.35243
3.35329
3.3459
3.35635
3.35234
3.35494
3.34564
3.35235
3.36042
3.35872
3.35541
3.36135
3.37308
3.37066
3.36554
3.37857
3.37503
3.37376
3.36789
3.34788
3.36374
3.35733
3.35443
3.3492
3.35934
3.36587
3.35095
3.3457
3.38864
3.39902
3.397
3.39566
3.39708
3.39883
3.39826
3.3871
3.39493
3.39175
3.38868
3.39848
3.39549
3.39356
3.39483
3.39346
3.39251
3.38305
3.3631
3.37174
3.37132
3.37533
3.3789
3.36364
3.36587
3.3682
3.3729
3.32695
3.32269
3.31602
3.32877
3.32415
3.33167
3.32625
3.33204
3.34209
3.32828
3.35763
3.35307
3.35655
3.35622
3.3454
3.36022
3.35819
3.3558
3.35965
3.40514
3.40369
3.41178
3.4075
3.40596
3.40253
3.40972
3.40848
3.38534
3.40497
3.3975
3.39537
3.4035
3.3926
3.39393
3.39599
3.3936
3.39288
3.39538
3.3927
3.39326
3.40367
3.37726
3.38333
3.38198
3.38713
3.38933
3.38277
3.38349
3.3872
3.37732
3.39017
3.38835
3.38396
3.39235
3.38977
3.39592
3.39039
3.38952
3.38595
3.37081
3.38062
3.37256
3.38009
3.37234
3.38834
3.38371
3.3907
3.39065
3.37652
3.37424
3.40548
3.40516
3.4095
3.40577
3.41041
3.40669
3.4043
3.40196
3.40598
3.40329
3.39507
3.40155
3.41018
3.40459
3.4021
3.40593
3.4025
3.40663
3.40581
3.40943
3.41229
3.41124
3.41089
3.4127
3.39705
3.39436
3.39255
3.40502
3.40038
3.40044
3.40028
3.39796
3.39668
3.39148
3.38328
3.39154
3.39246
3.3902
3.39202
3.40192
3.39294
3.39659
3.39238
3.38072
3.39539
3.39128
3.39731
3.39926
3.39643
3.39886
3.38492
3.39299
3.3989
3.38796
3.39279
3.39078
3.39841
3.39558
3.38715
3.38181
3.39022
3.3904
3.3873
3.37183
3.39568
3.39898
3.3897
3.39326
3.34181
3.3364
3.35137
3.35172
3.35555
3.3483
3.3428
3.36111
3.36175
3.40328
3.40579
3.41881
3.42747
3.42663
3.42345
3.41521
3.43035
3.43291
3.44031
3.38821
3.38809
3.39353
3.3829
3.38382
3.37887
3.38665
3.38807
3.39247
3.39681
3.39398
3.38869
3.39786
3.40448
3.39899
3.40682
3.39373
3.39717
3.38984
3.39536
3.39255
3.37592
3.39313
3.38855
3.41246
3.4139
3.41362
3.41168
3.40842
3.41957
3.41314
3.41239
3.41023
3.41708
3.41343
3.41303
3.41307
3.40928
3.41377
3.41162
3.40877
3.40965
3.41157
3.41116
3.41371
3.41255
3.41061
3.4102
3.41198
3.41072
3.4109
3.41001
3.41014
3.4039
3.4009
3.39359
3.41142
3.4068
3.4009
3.39542
3.38802
3.41741
3.4156
3.40498
3.43077
3.42571
3.43659
3.44048
3.43331
3.43352
3.42185
3.41944
3.41591
3.41608
3.41405
3.41153
3.39697
3.41038
3.40034
3.41905
3.40842
3.4046
3.42153
3.42831
3.40952
3.41177
3.41717
3.40715
3.40403
3.4296
3.42249
3.4159
3.41785
3.41124
3.42852
3.42378
3.45012
3.43174
3.45031
3.43884
3.45279
3.45069
3.44964
3.44776
3.44382
3.43756
3.45578
3.41209
3.41872
3.41653
3.4135
3.41732
3.41766
3.41087
3.41389
3.41543
3.41292
3.41366
3.41422
3.41543
3.41798
3.41545
3.41671
3.4182
3.41646
3.41617
3.41643
3.41729
3.41697
3.41749
3.41615
3.40319
3.39696
3.41211
3.4116
3.41537
3.41088
3.41227
3.40385
3.39062
3.41926
3.40914
3.40825
3.41563
3.42969
3.40629
3.40296
3.40913
3.40522
3.40517
3.40187
3.40657
3.40627
3.40471
3.39297
3.3928
3.39166
3.40281
3.40054
3.40345
3.40162
3.39671
3.39265
3.39864
3.38421
3.40032
3.39896
3.39632
3.39808
3.39499
3.39826
3.39964
3.39968
3.39429
3.39712
3.39751
3.39672
3.39874
3.39745
3.40234
3.40115
3.39414
3.39526
3.39294
3.39811
3.39719
3.39722
3.40102
3.39607
3.39666
3.35633
3.36191
3.36037
3.36325
3.36674
3.35535
3.35467
3.36382
3.35403
3.34763
3.34882
3.386
3.38223
3.38731
3.3787
3.37322
3.38109
3.38137
3.38384
3.38232
3.37587
3.38744
3.38444
3.38988
3.37936
3.38865
3.37733
3.38699
3.3891
3.37096
3.37154
3.37682
3.36636
3.37381
3.37793
3.37971
3.36133
3.35769
3.33069
3.31889
3.33604
3.34575
3.33789
3.32972
3.34211
3.34964
3.33944
3.34154
3.31854
3.32934
3.33394
3.34374
3.39965
3.39732
3.39671
3.39585
3.39381
3.39711
3.39575
3.39711
3.39667
3.29399
3.27913
3.26201
3.26885
3.27504
3.25889
3.26408
3.2651
3.27947
3.26571
3.2679
3.26559
3.28478
3.27002
3.39081
3.39057
3.39302
3.38908
3.38953
3.39095
3.39175
3.3877
3.38508
3.38728
3.39779
3.39714
3.39517
3.39365
3.40957
3.4056
3.41324
3.40796
3.41109
3.40886
3.41377
3.41026
3.41346
3.38835
3.38826
3.39463
3.38526
3.39005
3.38623
3.38908
3.38711
3.38249
3.3996
3.39015
3.38497
3.379
3.38644
3.39591
3.39015
3.39874
3.39237
3.25448
3.25045
3.23785
3.25397
3.24859
3.23406
3.24073
3.24431
3.23146
3.24229
3.26311
3.26317
3.26135
3.25498
3.27285
3.25605
3.26998
3.25578
3.3974
3.40175
3.39419
3.40886
3.40576
3.39835
3.39506
3.38105
3.39764
3.40207
3.39385
3.39748
3.41741
3.41388
3.39812
3.40772
3.39408
3.39188
3.41749
3.41634
3.41842
3.42004
3.4175
3.41813
3.4184
3.41943
3.42009
3.41598
3.41456
3.415
3.41513
3.41447
3.41739
3.4159
3.41444
3.41718
3.41556
3.42258
3.42268
3.42158
3.40585
3.41005
3.41033
3.40798
3.40615
3.40492
3.40412
3.40288
3.40368
3.41172
3.41141
3.41127
3.41327
3.41102
3.41198
3.41349
3.41416
3.41553
3.41411
3.41127
3.41159
3.41437
3.414
3.40974
3.40298
3.39931
3.40484
3.40504
3.40586
3.39974
3.41375
3.40419
3.4042
3.38974
3.39204
3.38665
3.39437
3.39134
3.38138
3.3627
3.36804
3.37618
3.38273
3.38184
3.37976
3.3701
3.3799
3.38094
3.36422
3.37771
3.37883
3.38552
3.37949
3.37487
3.38096
3.41952
3.40926
3.38146
3.38268
3.38861
3.38226
3.37847
3.38161
3.40138
3.38629
3.37466
3.38464
3.40052
3.40798
3.40136
3.40248
3.40605
3.39923
3.40648
3.398
3.40204
3.39289
3.41384
3.40198
3.39225
3.38259
3.39604
3.38052
3.39986
3.38928
3.39799
3.40675
3.40605
3.40638
3.40557
3.40658
3.40658
3.40428
3.40541
3.40762
3.40833
3.41185
3.41026
3.41017
3.41033
3.41041
3.40978
3.41089
3.37655
3.37248
3.38187
3.3919
3.38815
3.36563
3.37637
3.38137
3.36214
3.37239
3.37949
3.38217
3.37833
3.37682
3.37502
3.36065
3.36833
3.37791
3.36997
3.37492
3.36164
3.36827
3.36223
3.35581
3.37423
3.35762
3.34977
3.34274
3.34498
3.35468
3.35144
3.35752
3.35114
3.34084
3.34286
3.35677
3.36016
3.37162
3.35945
3.37115
3.36614
3.35579
3.37183
3.37387
3.36853
3.35923
3.36032
3.3988
3.39987
3.40541
3.40661
3.3999
3.40617
3.40664
3.40589
3.40338
3.39988
3.38074
3.38926
3.37377
3.37134
3.37598
3.37232
3.38676
3.3841
3.37757
3.39955
3.40163
3.40129
3.4002
3.40087
3.40101
3.39995
3.40283
3.40126
3.40108
3.40149
3.40327
3.40102
3.402
3.40112
3.4018
3.40192
3.4023
3.40052
3.39887
3.40156
3.40156
3.40368
3.403
3.40211
3.40066
3.36563
3.37109
3.31756
3.32103
3.31244
3.30872
3.29965
3.28582
3.28804
3.28211
3.28129
3.28114
3.28896
3.3004
3.30691
3.30446
3.28981
3.29402
3.30171
3.29705
3.34908
3.40244
3.39287
3.39814
3.39865
3.40441
3.40061
3.40045
3.40089
3.39061
3.39161
3.39915
3.39917
3.40637
3.39274
3.39713
3.40474
3.39608
3.4028
3.4027
3.39751
3.39634
3.39601
3.39331
3.39899
3.39827
3.32452
3.31188
3.32845
3.33447
3.32021
3.31864
3.32038
3.32023
3.32561
3.39254
3.38513
3.39001
3.38721
3.38621
3.38745
3.37829
3.3845
3.38624
3.37894
3.3795
3.30633
3.29623
3.31395
3.31253
3.33078
3.34089
3.32922
3.34192
3.33794
3.34195
3.35088
3.34467
3.34045
3.3454
3.34496
3.30959
3.29882
3.30993
3.29545
3.30611
3.31468
3.30903
3.30512
3.31424
3.40031
3.39958
3.39223
3.39977
3.39956
3.39393
3.39788
3.40042
3.39905
3.39795
3.39704
3.38991
3.38917
3.37718
3.38261
3.37928
3.38341
3.38569
3.37155
3.37189
3.3718
3.37919
3.38359
3.37008
3.38267
3.38513
3.3512
3.34991