/*--------------------------------*- C++ -*----------------------------------*\
| =========                 |                                                 |
| \\      /  F ield         | OpenFOAM: The Open Source CFD Toolbox           |
|  \\    /   O peration     | Version:  v1612+                                |
|   \\  /    A nd           | Web:      www.OpenFOAM.com                      |
|    \\/     M anipulation  |                                                 |
\*---------------------------------------------------------------------------*/
FoamFile
{
    version     2.0;
    format      ascii;
    class       surfaceScalarField;
    location    "100";
    object      phi;
}
// * * * * * * * * * * * * * * * * * * * * * * * * * * * * * * * * * * * * * //

dimensions      [0 3 -1 0 0 0 0];

internalField   nonuniform List<scalar> 
41404
(
2.98491e-09
6.34988e-09
-4.39945e-09
-9.04738e-09
-1.5068e-08
9.30326e-09
1.48121e-08
-5.74247e-09
-3.68757e-09
4.4074e-09
5.02268e-09
-1.70642e-08
-1.95171e-09
-1.6802e-09
-5.93115e-09
9.35415e-09
-2.04869e-08
9.81065e-09
2.35129e-09
-1.80928e-08
1.091e-08
-7.34892e-10
-3.64557e-10
-5.06028e-09
-3.23334e-09
-1.52954e-08
-1.11796e-08
1.19334e-08
-1.4884e-09
7.90354e-09
-1.67315e-08
-6.37087e-09
1.14054e-08
-8.26731e-09
1.14653e-08
-9.93238e-09
-7.83995e-09
2.79577e-09
5.15163e-09
-1.52671e-09
4.2642e-09
-2.05449e-09
-4.03202e-09
1.18106e-10
5.96842e-09
-1.82006e-09
5.47749e-09
-5.71182e-09
1.27038e-09
3.8714e-09
-6.96186e-09
-7.45039e-10
-3.50022e-09
2.13348e-10
-2.89895e-09
4.18951e-09
-4.70897e-09
3.41843e-09
-3.69931e-09
5.53318e-11
-2.01933e-09
6.32687e-09
-6.2117e-09
5.46281e-09
1.89607e-09
-4.40366e-09
3.42042e-09
-9.12798e-10
-2.83609e-09
7.73178e-10
-2.64599e-09
-4.63934e-09
-2.57766e-09
-2.86082e-09
-5.46832e-09
-3.45139e-09
7.46041e-09
1.45932e-09
2.36903e-09
-4.55496e-09
-3.28237e-09
9.14022e-09
-2.6589e-09
-9.68473e-09
3.20348e-09
5.50475e-09
1.84123e-10
-3.84487e-09
3.11568e-09
8.18963e-09
-1.37238e-09
-1.0343e-10
7.39595e-11
-7.28781e-09
6.03217e-09
8.2353e-09
-8.76267e-09
1.2394e-08
-3.24613e-09
5.11134e-09
4.21442e-09
3.06831e-09
-5.91015e-09
3.86093e-09
2.12325e-09
-3.22492e-09
-3.22424e-09
5.39001e-10
2.75895e-09
-2.70386e-10
-4.82303e-09
4.33587e-09
-3.55497e-09
8.55207e-10
-2.30276e-09
-9.13963e-10
-1.13858e-08
1.4603e-08
-9.63008e-09
-1.45831e-09
8.78584e-09
3.94479e-09
-1.212e-09
-1.48079e-08
1.20756e-08
-1.48233e-08
1.78541e-08
-1.45568e-08
-8.16694e-09
1.13379e-08
-1.13547e-09
-1.61899e-08
2.76857e-09
6.61621e-10
-1.14271e-08
-1.09996e-08
8.32962e-09
6.94953e-09
-1.15425e-08
-1.02148e-08
-7.91844e-09
4.47629e-11
-3.04225e-10
-1.5781e-08
-1.25142e-08
-2.25287e-09
-1.4227e-09
1.84579e-09
1.04761e-08
-1.49067e-09
-1.08311e-08
1.04838e-08
-1.36467e-08
1.53714e-10
3.00921e-09
7.87136e-10
1.08125e-09
-1.60468e-09
-2.32439e-09
1.08709e-08
1.46124e-09
-1.00081e-08
1.47901e-08
-4.73093e-10
-1.66415e-08
-1.56437e-09
1.25473e-08
3.80706e-09
-1.5447e-08
2.08117e-09
1.18012e-08
2.13053e-09
-1.80507e-08
2.70519e-08
-3.97898e-09
-1.61611e-08
-6.91182e-09
-2.6768e-09
2.11844e-08
8.54414e-09
2.59781e-09
-1.10264e-08
1.05588e-08
-7.18331e-09
1.57516e-08
8.70918e-09
-1.39996e-08
9.01553e-09
-4.95674e-09
-1.28718e-08
2.15659e-08
-5.45706e-09
-3.23719e-09
9.93194e-09
-1.28626e-08
-9.94129e-09
9.84846e-09
1.80476e-09
-1.72157e-09
1.323e-08
1.81844e-08
-9.37708e-09
-2.88745e-09
-5.9848e-10
2.2678e-08
-7.49613e-09
-6.47288e-09
4.79634e-09
1.52047e-08
-1.26344e-08
1.41537e-08
1.47729e-08
-1.54337e-08
7.81524e-10
-1.31256e-08
2.40276e-09
-3.73745e-09
-1.32458e-08
-2.09736e-09
-1.45803e-08
-6.20985e-09
8.50397e-10
9.14371e-09
1.03326e-08
-2.03272e-08
7.18856e-09
-1.38931e-08
7.55454e-09
-1.58294e-08
1.74154e-08
-1.48319e-08
1.31094e-09
-6.48433e-09
1.23616e-08
-5.37471e-09
-5.94928e-09
1.70118e-09
-1.05007e-08
1.34566e-09
-1.00883e-08
-8.7082e-10
1.03458e-08
1.6767e-09
-1.51566e-08
3.13407e-09
1.26604e-09
-3.02767e-09
1.21078e-08
1.09196e-08
-1.22814e-08
3.03861e-09
-5.1407e-10
1.26998e-08
-1.12267e-08
-1.97436e-09
1.01736e-08
-1.38285e-08
7.08419e-09
-5.537e-09
8.92487e-09
1.17899e-08
-1.70927e-08
-3.62221e-09
1.19389e-08
1.03993e-09
-4.05377e-09
9.68551e-09
8.84969e-09
-6.74531e-09
7.79597e-09
1.72544e-09
-8.70393e-09
-4.24834e-09
-4.58148e-09
1.01365e-08
-6.03274e-09
2.98058e-09
-1.35742e-09
1.09799e-08
1.3838e-08
-3.95402e-09
-8.84397e-09
7.2656e-10
-3.08261e-09
-6.34805e-09
1.24639e-08
-3.66964e-09
-8.0677e-09
-7.40048e-10
-8.30049e-09
7.68345e-09
-1.13803e-08
8.66592e-09
-1.20566e-08
-2.2765e-09
-2.44936e-09
4.23083e-09
-1.36584e-09
1.36931e-08
-3.78342e-09
-1.4642e-08
4.73245e-09
1.62391e-08
1.24571e-08
-1.50031e-08
1.30695e-09
-1.14196e-08
3.1804e-09
6.93236e-09
-5.48054e-09
9.5032e-09
1.22164e-08
-1.25901e-09
-3.43234e-09
-7.89119e-10
3.65183e-09
-3.86044e-09
-6.85444e-09
7.06327e-09
-3.29621e-09
5.6892e-09
4.96969e-09
3.78963e-09
-1.57182e-08
6.95917e-09
-8.28742e-09
3.21723e-09
1.35059e-08
-8.43564e-09
-6.21594e-09
1.20232e-09
-3.2736e-09
7.20015e-09
-9.75349e-09
4.53338e-09
9.93961e-09
1.19956e-10
8.64165e-10
1.47029e-08
-6.95232e-09
-3.47894e-09
1.30692e-09
1.13795e-08
-9.83746e-10
3.00529e-09
-7.31456e-09
-1.33217e-09
9.95363e-09
1.73391e-10
4.07364e-09
4.64513e-10
3.05055e-09
8.36119e-10
1.54944e-09
1.54042e-09
-4.84056e-09
3.27353e-09
-4.98032e-09
5.19759e-09
3.03779e-09
-1.47913e-09
1.10801e-09
1.26224e-08
1.89017e-09
5.20306e-09
-1.97156e-08
5.50997e-09
1.5174e-08
-8.0617e-09
-8.03077e-09
-1.09268e-09
1.46333e-08
4.86817e-09
-1.10088e-08
-1.0356e-08
1.5213e-08
1.0317e-08
6.19064e-09
-1.13437e-08
-3.64694e-09
1.68861e-08
-3.12404e-09
-1.01151e-08
1.75989e-08
-1.50553e-08
2.73738e-09
1.39588e-08
1.89816e-10
1.73176e-08
3.01871e-09
1.24846e-08
-1.07404e-08
1.49695e-09
-1.694e-09
1.75146e-08
-5.72257e-10
1.6028e-08
1.33073e-08
2.11656e-10
1.31424e-08
-1.23019e-09
-1.87936e-08
5.20187e-09
5.94811e-09
7.64362e-09
-8.20622e-09
1.52495e-09
-1.21124e-08
1.16023e-08
-5.28111e-09
-1.45274e-08
1.0005e-08
6.79917e-09
-1.30598e-08
7.52845e-09
1.14795e-08
-4.72231e-09
-6.81258e-09
1.64344e-09
-6.21257e-09
1.23761e-08
-7.80706e-09
-8.68501e-09
-9.29828e-09
1.96267e-08
-2.96795e-10
7.17523e-09
-1.17905e-08
-6.40331e-09
1.34394e-08
4.92368e-10
1.45804e-08
6.65605e-09
-8.86028e-09
1.00153e-08
-7.5624e-09
7.71351e-09
-4.10148e-09
-3.79026e-09
-6.13379e-09
5.73015e-09
4.19323e-09
-8.99038e-09
5.4226e-10
4.65763e-09
-8.92512e-09
1.01557e-08
4.00471e-09
-5.23571e-09
-5.40741e-09
-1.08295e-08
6.67839e-09
9.55841e-09
7.56429e-10
-1.51543e-08
5.33954e-09
3.97716e-09
3.14784e-09
-1.24652e-08
1.10936e-08
-1.1888e-08
-2.57473e-09
-5.16333e-09
-3.09148e-09
-5.89632e-10
5.83246e-09
-1.09402e-08
5.69713e-09
-1.2999e-08
5.46264e-09
6.9465e-09
-5.91904e-09
9.70905e-10
1.01312e-08
-6.87358e-09
-9.01674e-09
1.32288e-08
4.14488e-10
7.0884e-10
-3.25796e-09
2.13483e-09
1.69967e-09
9.81826e-10
-2.26695e-09
-2.20416e-11
-4.69552e-10
3.26477e-09
-2.7734e-09
-5.66219e-10
3.69323e-09
-3.14962e-09
2.3525e-09
-9.85471e-10
-8.52554e-10
-5.14313e-10
1.63799e-09
-1.12937e-09
1.19065e-09
-7.8636e-11
1.34818e-09
-1.83645e-09
1.08973e-09
-3.22756e-10
1.54577e-09
-1.41006e-09
2.21111e-09
2.51735e-09
-3.31796e-09
2.34266e-10
1.70858e-09
-3.35293e-09
-3.16735e-09
-1.99124e-09
8.32022e-09
-3.16155e-09
-1.61022e-09
-6.2188e-09
4.66177e-09
4.43651e-09
-1.04348e-08
4.38818e-09
-6.63083e-09
9.07618e-09
-3.92457e-09
-7.10279e-09
4.8088e-09
-6.84138e-09
2.93329e-09
-1.62876e-11
-6.04545e-09
3.23362e-09
-4.29091e-09
-1.32467e-09
-1.15621e-08
4.75912e-09
1.09711e-08
-6.37327e-09
-9.35682e-09
-2.44205e-09
-1.32362e-09
5.66397e-09
-5.42044e-09
1.14496e-09
7.20891e-09
7.4734e-09
-1.51713e-08
-8.89432e-09
3.93292e-09
3.63791e-09
-6.84139e-09
-3.84982e-11
6.99363e-09
-6.78854e-09
-1.66607e-10
-4.20321e-09
4.18628e-09
-2.1569e-11
2.23936e-09
4.81985e-09
-6.55398e-11
-4.74789e-10
-6.15481e-10
-5.6982e-09
-7.72399e-10
-3.90559e-09
-7.10006e-09
7.5427e-09
4.65116e-10
-9.07598e-10
-9.50182e-10
-6.76529e-09
7.55649e-09
2.22574e-09
3.41599e-10
-2.89849e-09
1.01134e-08
-4.63358e-09
-2.20054e-09
7.1757e-09
-4.14747e-09
4.33371e-09
-2.61783e-11
6.49852e-11
-2.57612e-10
-8.56482e-09
5.92389e-09
-5.71409e-09
3.25594e-09
-7.51258e-09
7.17089e-09
-8.22309e-09
-2.47166e-10
-1.66574e-09
-5.59964e-09
3.94986e-12
-8.27344e-09
7.31941e-09
-5.77712e-09
-3.93384e-09
3.99686e-09
-4.65737e-09
-1.36694e-09
4.4687e-09
-5.23717e-09
3.97819e-09
-4.16687e-09
1.81759e-11
2.3662e-09
9.56301e-10
6.28277e-09
-4.16955e-09
2.29794e-09
4.23784e-09
1.28054e-09
-4.01024e-10
1.8293e-09
5.86447e-09
-3.16941e-09
7.41391e-10
4.72602e-09
-2.41103e-09
5.22175e-10
-4.41342e-09
1.1818e-09
5.06096e-09
-4.28434e-09
3.6139e-09
-3.28426e-09
5.20746e-09
5.37033e-10
-3.30359e-09
-4.08456e-09
4.10388e-09
1.89605e-11
-3.23892e-09
-8.36312e-11
2.57483e-11
-2.70619e-09
-8.41352e-10
-3.32287e-09
1.58923e-08
-1.63315e-08
9.83224e-09
-9.39306e-09
-3.14298e-09
1.32206e-08
5.81454e-09
-4.57344e-09
1.49554e-08
-8.70741e-09
-1.67466e-09
1.35385e-08
-4.7563e-09
-2.51138e-08
1.18433e-09
9.21109e-09
9.16195e-09
-4.17947e-09
4.84963e-09
1.78091e-08
1.23324e-09
-1.08175e-08
6.62775e-10
8.92125e-09
2.22947e-08
-6.00929e-09
-5.84226e-09
-1.04434e-08
-5.25403e-09
1.99452e-08
7.60341e-09
-1.35118e-08
4.07829e-09
-6.94387e-09
-1.25772e-08
-1.93463e-08
7.64611e-09
5.03289e-10
-2.91657e-09
7.68691e-09
-5.27337e-09
-2.44287e-09
-3.24544e-09
6.19186e-09
-4.88572e-09
-4.73547e-10
7.46172e-09
-1.97323e-09
1.42194e-08
-3.18108e-09
3.35632e-09
-8.7938e-09
1.0758e-10
-1.2112e-10
8.80737e-09
-1.11625e-09
-8.77774e-09
1.10019e-09
-1.06827e-08
6.55762e-10
-1.83257e-10
1.02103e-08
1.16657e-08
-1.11882e-08
-1.11601e-08
2.59362e-10
1.20621e-08
-1.12478e-08
4.05479e-10
1.08508e-08
-8.52071e-12
9.9737e-09
9.44084e-10
2.78292e-09
-1.37007e-08
7.67138e-09
-8.94548e-09
-9.96562e-09
9.89001e-09
-6.50315e-09
-1.49498e-11
6.39698e-09
-7.59287e-09
-2.65312e-11
-9.95444e-09
1.01989e-08
1.12016e-08
2.74414e-09
-1.30016e-08
4.18939e-10
-7.28002e-09
8.17638e-09
-1.49871e-09
-1.24558e-08
3.98891e-09
-1.26933e-08
2.41688e-09
4.80321e-10
-8.89614e-11
3.6312e-10
-1.00748e-08
-3.01273e-09
-9.31746e-09
7.00308e-09
-7.23288e-09
-1.09489e-10
9.03828e-10
-4.03197e-10
-6.54182e-09
-7.48918e-10
-3.52476e-09
-8.01796e-09
-1.03747e-08
8.11441e-10
-9.23311e-09
-6.31627e-09
1.1891e-08
1.86926e-09
-6.60765e-09
-7.15291e-09
-8.65598e-09
1.24902e-08
8.05668e-09
-3.4833e-09
-3.30365e-09
-8.14121e-09
-2.56889e-09
5.16513e-09
5.54438e-09
-1.55489e-08
-1.17382e-09
1.07455e-08
5.97712e-09
-9.13819e-09
6.49649e-09
-1.29073e-08
-6.15179e-09
-5.47295e-09
1.00471e-08
-1.86829e-09
-1.73171e-08
2.26565e-09
-8.73364e-09
-1.11629e-08
1.71739e-08
2.7222e-09
-1.17228e-08
4.20042e-10
1.45814e-08
-7.03038e-10
-7.38201e-09
1.41639e-08
6.60829e-09
-1.46284e-08
-5.81749e-09
2.09583e-08
-1.13833e-09
-4.35683e-09
-1.54635e-08
4.98487e-09
1.72533e-08
-1.28e-09
-3.30804e-09
-1.1087e-08
1.32566e-08
7.14126e-09
9.46226e-10
-1.24445e-08
1.16279e-08
8.07175e-09
-1.25584e-08
1.45574e-08
2.05502e-09
6.07546e-09
1.633e-08
-5.15228e-09
6.45264e-09
-8.81466e-09
8.63714e-09
1.19202e-09
4.72805e-09
5.32738e-09
1.84451e-08
-2.80745e-09
-2.09651e-08
-1.51746e-08
1.22969e-08
9.33033e-09
2.11019e-09
1.26023e-08
-1.11182e-08
8.02412e-09
4.28612e-09
2.08782e-09
-5.13419e-09
-1.48835e-09
1.16227e-08
1.25106e-08
-3.68768e-09
-6.73503e-09
1.63496e-08
1.02526e-08
-1.01402e-08
-1.01244e-09
9.00228e-10
-8.53987e-09
1.48373e-08
3.95535e-09
-1.209e-08
-2.17587e-09
5.72617e-09
-9.73705e-09
-1.2493e-08
7.1321e-09
-5.77861e-10
-7.56657e-09
-1.37583e-08
7.79912e-09
-5.57859e-09
-1.53811e-08
3.51901e-09
1.74408e-08
-1.65761e-08
-2.76066e-09
3.21757e-09
-1.39986e-08
1.04412e-09
-7.16181e-10
-2.68787e-09
-1.19769e-08
-1.40747e-08
8.38985e-09
-7.25505e-09
-3.82252e-09
3.77845e-09
-6.80814e-09
1.62686e-08
-4.81155e-09
-8.47635e-09
7.16109e-09
4.97359e-09
4.13403e-09
7.86327e-09
1.02778e-08
-1.12278e-08
8.49909e-09
7.70235e-09
-5.03662e-09
-1.10026e-08
-8.26725e-10
-4.17785e-09
1.28678e-08
-4.0145e-09
-1.03047e-08
1.34926e-08
-5.37498e-09
-1.12243e-08
1.24216e-08
2.18635e-09
-2.14725e-08
1.39114e-08
-1.5751e-08
1.3923e-08
1.25946e-09
-3.06496e-09
8.21285e-09
-1.55259e-08
-3.59669e-09
-1.12586e-08
-6.61711e-09
-7.13756e-09
-1.09613e-08
-3.53014e-09
-1.4007e-08
-1.25365e-08
1.12099e-08
5.70823e-09
-4.38164e-09
4.06493e-09
3.57421e-09
-2.01756e-08
-5.75907e-09
-2.65695e-09
-5.81588e-09
1.42319e-08
-6.09603e-09
-1.23483e-08
1.26853e-08
-9.41966e-09
1.44128e-08
6.21679e-09
6.20883e-09
-1.15635e-08
8.92082e-09
-1.14426e-08
1.26239e-08
2.00519e-09
1.1066e-08
-7.5141e-09
-1.64865e-09
-1.27402e-09
1.04947e-08
-7.57198e-09
-1.5747e-09
1.0992e-08
-9.49588e-10
-9.70516e-09
9.38078e-09
1.18885e-08
3.50225e-09
-5.83511e-10
1.23144e-08
-1.1281e-09
-1.50202e-08
3.83385e-09
-1.14495e-09
-4.24329e-09
1.77025e-08
-1.17627e-08
1.65948e-08
3.16052e-09
-1.60514e-08
9.57658e-10
-1.76331e-08
1.65509e-09
6.0679e-09
-8.34154e-09
-1.10295e-08
1.33029e-08
-1.61221e-08
1.41444e-08
-1.67356e-08
1.57117e-09
-7.60011e-09
-3.96516e-09
-5.52921e-09
5.19609e-09
-7.48204e-09
7.815e-09
-1.52294e-08
1.35864e-09
2.66631e-09
-1.03775e-08
-5.30658e-09
-9.34432e-09
5.46645e-09
-3.34287e-09
-7.43027e-09
4.49608e-09
-1.57653e-08
-3.76928e-09
-4.06515e-09
4.5192e-09
3.31519e-09
1.52459e-09
-5.30579e-09
1.18908e-11
2.36418e-10
4.27419e-09
-8.5758e-09
-4.18072e-09
5.7009e-09
4.39872e-12
1.02338e-09
-1.0929e-08
7.64232e-09
2.26325e-09
2.85995e-09
2.81899e-09
-3.76508e-09
-1.91391e-09
-1.00235e-08
9.08063e-09
3.80279e-09
-6.52141e-10
-8.64603e-09
-7.25349e-10
2.48602e-09
-7.06622e-09
5.60357e-09
4.17571e-09
5.1413e-09
-6.47499e-09
-2.7126e-09
1.12268e-08
-2.03926e-09
-1.40818e-09
-7.43863e-09
2.37178e-09
-5.79441e-09
2.05488e-10
-5.45869e-09
6.92179e-09
-3.90582e-09
-4.27654e-10
-3.10518e-09
-7.21422e-09
-3.06735e-09
-2.11907e-08
2.93368e-09
1.85373e-08
-2.8069e-10
-1.87164e-08
-1.154e-08
9.06552e-09
-7.57453e-09
-1.75317e-08
6.3897e-09
-1.761e-08
1.74835e-08
3.64651e-09
-3.52028e-09
-1.0603e-08
1.34991e-08
3.74665e-11
1.25124e-08
-2.38449e-09
4.45376e-09
-3.48143e-09
3.58839e-09
-1.36589e-08
-7.53959e-09
-1.84813e-09
1.27768e-08
-7.34034e-09
4.98998e-10
-6.64834e-09
-4.63423e-09
-1.2123e-08
3.09831e-09
-1.65664e-08
9.54763e-09
-5.10914e-09
9.24767e-10
-5.52364e-09
9.70767e-09
-8.39029e-09
-3.4852e-09
6.7659e-09
5.65873e-09
-4.82242e-09
4.60059e-09
-5.43723e-09
-4.51932e-09
1.11026e-08
-4.67652e-09
-2.5351e-09
1.68733e-09
-8.3388e-09
-9.96299e-09
1.65536e-09
-3.45171e-09
6.18384e-09
-7.25172e-09
-4.92707e-09
-1.35706e-09
2.81071e-09
-8.08092e-09
3.42932e-10
-7.04034e-09
1.05297e-09
-2.27073e-09
1.82874e-09
-9.52126e-09
4.09266e-09
-2.04906e-09
-4.31465e-09
1.86456e-09
-6.09434e-09
-2.12618e-09
-4.58234e-09
8.57284e-09
-8.44445e-09
1.04108e-08
-1.30739e-08
4.36665e-09
7.17992e-09
-1.80236e-08
1.76843e-08
1.04595e-09
-7.06467e-10
9.08961e-09
-7.68298e-09
-1.943e-08
-1.39459e-08
1.85564e-08
4.10416e-10
-5.26639e-09
-8.28871e-09
-5.97325e-10
-2.0755e-08
4.7837e-09
-4.06559e-11
6.89967e-09
-1.51257e-08
-6.10615e-09
1.77685e-08
-1.12516e-08
6.93306e-10
7.08595e-09
-7.78922e-09
1.01105e-11
7.55602e-09
-7.16708e-09
3.04544e-10
7.71062e-10
9.79165e-10
5.336e-09
2.17634e-09
6.151e-09
-2.65915e-09
7.15365e-09
-5.98052e-09
1.48611e-09
9.44335e-09
-8.81062e-09
-3.29163e-09
3.69401e-09
-3.22473e-09
-8.25838e-09
1.08488e-09
-4.55772e-09
-1.48196e-09
-1.38756e-09
1.00235e-08
-2.27342e-09
1.02348e-08
-5.50152e-09
6.29052e-09
-6.13737e-09
-1.21294e-10
-2.55213e-09
2.67429e-09
5.37883e-10
-9.34957e-09
1.39265e-09
-4.6988e-09
-3.02389e-09
-7.33225e-09
6.03798e-09
-4.78275e-09
-2.67091e-09
-7.46956e-09
-7.37136e-09
-1.04449e-08
1.61075e-08
1.70886e-09
6.92703e-09
-8.82484e-09
-5.47378e-09
1.44501e-08
-3.38821e-09
-4.13527e-09
6.20761e-09
5.48196e-09
2.7604e-09
1.22566e-09
7.80045e-09
-3.90148e-09
-5.12469e-09
7.15869e-09
-1.98651e-09
-3.94661e-09
-9.58192e-09
1.67209e-09
-2.53497e-09
-6.78148e-09
-1.16253e-08
6.64786e-09
1.56672e-08
-1.21066e-09
7.99338e-09
1.01772e-09
5.83544e-09
1.12497e-10
1.48279e-10
8.45691e-09
-4.33941e-09
-4.26592e-09
-6.13365e-09
-3.82903e-09
6.57421e-09
3.44639e-09
2.79048e-09
-1.30185e-08
7.11831e-09
-7.57339e-09
4.94932e-09
-3.0096e-09
-3.92638e-09
9.74773e-09
-9.57482e-10
-8.47784e-09
1.52739e-08
3.11038e-09
7.67433e-09
-6.35291e-09
-1.61416e-09
2.88397e-09
1.57004e-09
4.80913e-09
-8.52778e-09
-9.52549e-09
1.17823e-08
6.27101e-09
3.78629e-09
-7.7931e-09
-4.52095e-09
1.22533e-08
-2.46792e-09
-5.99908e-09
2.4298e-09
2.76378e-09
7.05961e-09
7.22536e-09
-2.06148e-09
-1.2957e-08
2.83484e-09
-5.13512e-09
1.49057e-08
-6.21933e-09
3.54261e-09
-1.2229e-08
-2.29466e-12
1.96265e-08
-4.71861e-09
9.09992e-09
5.11217e-09
-5.7966e-09
1.22861e-08
-8.95747e-09
3.6733e-09
-1.15314e-08
-1.07261e-08
1.30019e-08
-2.27803e-09
-1.32722e-08
-1.42051e-08
1.45284e-08
1.93032e-08
-7.82769e-09
2.27824e-09
-4.35667e-09
1.11784e-08
-2.61381e-09
1.2422e-08
-7.52996e-09
2.44438e-09
7.49171e-10
9.09251e-09
5.65649e-09
4.51536e-09
-1.29509e-08
1.59935e-08
2.49531e-09
-1.06336e-10
5.18754e-09
-1.19492e-08
6.86793e-09
-6.33004e-09
2.66483e-09
-9.85693e-09
1.35222e-08
6.13379e-09
-1.25702e-08
1.5729e-08
-6.01825e-09
-7.04588e-09
-5.38832e-09
5.03988e-09
-9.50828e-09
-1.81439e-09
5.28091e-10
1.02377e-08
-8.95141e-09
-1.34347e-09
-1.20908e-08
1.16199e-08
-6.5017e-10
-1.13507e-08
1.25289e-08
-3.32179e-10
-1.06568e-08
1.03389e-08
1.73665e-08
5.41309e-10
-1.5402e-08
-2.50566e-09
4.50785e-09
7.47039e-09
-1.09592e-08
-8.19733e-10
1.23203e-08
-5.48535e-10
-1.6197e-08
-1.18399e-08
5.23598e-10
-3.46437e-10
-4.44033e-09
4.2634e-09
-1.0134e-10
-6.2052e-09
6.83034e-09
9.95888e-09
4.1305e-09
-3.85759e-09
-1.02317e-08
5.06374e-09
2.61711e-09
2.27801e-09
7.4759e-10
-6.49151e-09
-4.20252e-10
6.16431e-09
-6.81187e-09
7.45813e-09
7.13512e-09
-7.16467e-09
-7.84452e-10
8.13975e-10
5.70734e-09
-4.99482e-09
4.22819e-09
-3.95323e-09
-5.01346e-10
1.4367e-11
-7.93994e-10
-6.38418e-09
9.73151e-10
-4.67143e-09
-7.57523e-11
4.12187e-09
2.46694e-09
-1.93431e-09
-4.65423e-09
-4.81234e-10
-6.82284e-11
9.00478e-09
1.68843e-10
-5.04305e-09
4.81002e-09
-4.6597e-10
-1.05562e-08
-6.29964e-10
-4.86616e-09
-3.74839e-09
4.44914e-09
-6.84934e-09
-6.1746e-10
4.58542e-09
3.84271e-09
-2.87107e-09
2.39019e-09
-3.36177e-09
-4.3258e-09
7.61062e-12
8.1608e-09
-5.02873e-09
-3.2826e-09
3.98532e-09
-6.86244e-09
-1.03725e-09
3.85298e-09
-4.49692e-09
3.5106e-10
2.92647e-10
-3.46735e-09
7.32776e-09
-2.40768e-09
-1.1125e-08
7.78418e-09
5.74801e-09
-7.25289e-09
3.48048e-10
-7.23572e-10
-3.95205e-09
-2.18684e-09
-5.24755e-09
-4.44296e-09
-1.43458e-09
-3.96841e-09
-8.53207e-09
-2.52056e-09
4.00809e-09
-2.7236e-09
7.04024e-09
-8.2548e-09
2.24839e-09
-3.43966e-09
-8.76737e-09
6.85879e-10
-7.17497e-09
-7.1969e-09
1.37541e-08
-4.21765e-09
-6.55826e-09
-2.97815e-09
6.33056e-09
-4.47693e-09
1.19005e-08
9.75705e-09
-1.14461e-08
9.54291e-11
1.59369e-09
1.1493e-09
1.49384e-08
-8.63158e-09
-7.03214e-09
9.7874e-09
-8.01224e-09
-8.33342e-09
8.92955e-10
4.41758e-09
6.6995e-09
-7.95198e-09
1.34792e-09
6.31011e-09
-7.01209e-09
7.40144e-09
-4.13535e-09
1.15948e-08
4.27185e-09
-7.57095e-09
-4.65285e-09
-2.60265e-09
-1.37582e-10
6.76448e-09
-1.14534e-09
5.94073e-10
-6.21311e-09
4.58802e-09
-4.26176e-10
-7.08978e-09
3.84741e-09
-1.2515e-09
4.04769e-10
-7.16544e-09
5.93952e-10
-1.0477e-08
-8.12232e-09
6.3185e-09
-5.31963e-09
3.81677e-09
-7.20075e-09
1.03472e-08
-1.06397e-08
7.49331e-09
1.13382e-08
-1.74322e-08
-1.10659e-09
2.635e-10
-2.68438e-10
1.03522e-08
2.29242e-11
-6.7552e-09
7.35576e-09
7.72918e-09
2.67941e-09
1.86365e-09
-1.12983e-08
-7.18136e-09
-2.89491e-09
-8.10264e-09
-9.71851e-09
-1.79764e-10
6.70027e-09
-6.7889e-09
1.81899e-10
6.04352e-09
-6.40517e-09
-3.24401e-10
-6.25671e-09
6.61623e-09
-3.50528e-11
-6.37292e-09
-1.05136e-09
-1.13291e-09
9.91358e-09
1.948e-09
-7.37121e-09
2.57402e-09
-6.43439e-09
3.83038e-09
3.00644e-11
4.12343e-09
-7.76913e-09
-2.61108e-09
3.24522e-10
7.01755e-09
2.26728e-09
-7.42114e-09
-1.80299e-09
5.5165e-10
-4.71875e-09
-4.94959e-09
7.44926e-09
-7.26421e-10
-5.17314e-10
7.71677e-10
4.72953e-10
-1.00674e-09
1.65732e-10
1.15943e-10
2.587e-09
-6.17439e-10
-6.48981e-10
-1.31992e-09
1.25111e-09
-4.63268e-11
1.38307e-09
3.01506e-10
1.91653e-09
-9.65903e-10
-2.07966e-09
9.50542e-10
1.08357e-09
-7.41642e-10
-1.95472e-09
7.30194e-10
-7.44727e-10
-9.91298e-10
3.20055e-10
-1.0679e-10
-5.92327e-10
1.66606e-09
-1.09098e-09
1.44943e-09
-6.736e-10
-9.69407e-11
-6.05392e-10
-1.37262e-09
1.33032e-09
-3.10135e-10
-1.10447e-09
-1.66005e-09
-3.76793e-09
-9.88285e-10
-4.52429e-09
9.28043e-09
-6.34475e-09
-6.75053e-09
9.32726e-09
-6.81159e-09
9.41229e-09
-3.58925e-09
3.71695e-10
-1.1415e-08
-7.02565e-09
2.87329e-09
-1.30828e-08
9.42712e-09
-3.09467e-09
-3.56424e-09
-1.00648e-08
6.60391e-09
-8.4512e-09
3.48088e-09
1.40609e-09
-2.10967e-09
-2.95921e-09
-3.38205e-09
4.91097e-09
-5.18443e-09
-1.83595e-09
4.77018e-09
-5.59829e-09
-1.39088e-08
1.47368e-08
-1.02762e-09
-7.28495e-09
-7.45857e-09
4.12776e-09
-1.10496e-09
-7.29965e-10
-5.62367e-09
-2.49186e-09
-4.2116e-09
5.17759e-09
-1.03314e-08
-7.2651e-09
1.3055e-08
7.98556e-09
-8.11681e-09
-1.29237e-08
1.26912e-08
1.86049e-09
-1.49671e-09
1.8381e-08
-2.67689e-10
-1.01278e-08
8.98517e-09
2.49962e-09
6.89625e-09
-7.59235e-09
-5.56872e-09
5.18761e-09
7.97341e-09
2.31505e-10
-1.44234e-09
-6.3816e-09
1.44563e-08
-7.12794e-09
-7.59613e-09
7.94172e-09
9.78334e-10
5.53618e-09
7.18983e-09
9.73703e-09
-2.05946e-09
5.67119e-09
-9.18048e-09
-7.47702e-09
4.93415e-09
2.81978e-09
-2.76933e-10
-1.49315e-09
-4.93307e-09
-1.05079e-09
-2.79813e-09
-6.6445e-09
7.94948e-09
-9.37868e-10
-1.15757e-08
4.3967e-09
8.42348e-09
6.76737e-09
7.41695e-09
-5.08697e-09
-2.09853e-09
1.81099e-09
1.07935e-08
-8.79119e-09
4.68253e-09
-5.95951e-09
-9.95962e-09
-3.06419e-09
1.2065e-08
-1.12211e-10
2.98689e-09
-9.69552e-09
-4.19286e-09
9.55212e-09
6.73835e-09
-1.10434e-08
1.29242e-08
-4.72394e-09
-1.01406e-09
-7.18615e-09
3.51031e-09
-6.51404e-10
1.00652e-08
5.21573e-10
5.26511e-09
-1.02351e-09
-4.76318e-09
4.85765e-09
-6.66012e-10
-3.67003e-09
-7.83271e-09
2.43249e-09
8.91051e-09
-7.69899e-09
-8.58684e-09
2.12895e-09
5.80643e-09
-3.46683e-09
-6.13407e-09
-3.93786e-09
8.66053e-10
1.91682e-09
1.15484e-09
-3.6737e-09
2.25118e-09
-2.51534e-09
4.20255e-09
1.92856e-09
-6.02754e-10
-4.09443e-09
2.23555e-09
-3.50431e-09
-3.05381e-10
6.94037e-09
2.05469e-09
-2.998e-09
3.07219e-09
-3.38481e-09
2.74429e-09
2.55733e-09
-8.94658e-10
-2.38987e-10
4.4936e-09
3.68097e-09
-4.91225e-09
-2.11719e-10
1.04282e-08
-1.07011e-09
-6.81222e-09
-2.54583e-09
5.93814e-10
7.64375e-10
9.07008e-09
1.30018e-08
-8.95747e-09
-5.11438e-09
1.75576e-09
-5.58581e-09
8.20721e-10
5.52948e-09
8.7297e-10
-7.7359e-10
-9.13592e-09
9.03668e-09
-5.99108e-10
-7.48539e-09
6.10785e-10
-9.51181e-09
6.3226e-09
-5.62042e-09
6.39274e-09
-7.09486e-09
2.94108e-10
6.11038e-09
-8.18404e-11
-7.83292e-10
5.33485e-09
-5.15059e-09
-7.17728e-09
5.05898e-09
-6.53633e-09
-2.32723e-10
-6.33747e-09
7.769e-09
-7.84831e-09
7.62122e-09
-7.10579e-10
-7.44956e-10
3.13583e-09
-3.15754e-09
3.08203e-09
-3.06018e-09
2.22449e-10
-7.94029e-10
3.70744e-09
6.33391e-10
2.36791e-10
3.16229e-09
-4.03243e-09
-4.379e-09
5.18603e-09
-1.73747e-10
6.51736e-09
-5.63826e-09
-5.258e-09
1.37547e-09
6.25121e-09
-4.1578e-09
-3.4687e-09
1.14848e-09
1.61832e-09
2.70298e-09
-5.46964e-09
-3.8051e-09
-5.04188e-09
1.02225e-08
-7.03166e-09
4.37509e-09
6.23517e-09
-9.04003e-10
1.18609e-09
6.37919e-09
-1.97084e-10
-2.40082e-10
4.98016e-09
-4.5433e-09
3.67354e-09
-3.66368e-09
-2.07027e-10
4.68618e-10
8.89397e-10
-4.51553e-09
5.64789e-11
3.17318e-09
-1.47549e-10
4.31804e-09
1.91664e-09
-5.76601e-09
-1.09776e-09
-7.0186e-09
-9.17111e-10
3.77985e-09
-4.99425e-11
-3.36645e-09
5.91993e-10
-1.06694e-08
6.34627e-09
-2.69551e-09
-9.39138e-09
6.38456e-10
-8.40712e-09
2.84659e-09
1.13189e-08
-5.75842e-09
-5.017e-09
7.23838e-09
-2.37134e-09
1.49961e-10
9.75679e-09
-1.1735e-09
-9.98227e-09
1.39898e-09
2.21176e-09
-7.31746e-09
8.86858e-11
4.93878e-09
-6.9962e-09
6.5194e-09
-4.46197e-09
7.03056e-09
1.19946e-10
-1.19192e-09
2.54156e-09
-1.21281e-09
-4.42535e-09
-1.35807e-09
8.28737e-10
2.55522e-09
7.20785e-09
-1.05918e-08
-1.34118e-08
3.44615e-09
1.07944e-08
-7.40096e-09
-3.16432e-09
5.3839e-09
6.40919e-10
4.94579e-10
6.51393e-09
5.90057e-09
-2.48337e-10
8.41473e-09
-9.37923e-09
8.23885e-09
-9.67909e-09
8.14578e-10
-3.35679e-09
9.05615e-09
1.25106e-08
-8.43214e-09
2.21278e-09
1.3744e-08
7.00587e-09
6.47429e-09
-5.06546e-09
-7.33293e-09
1.03603e-08
-2.17706e-10
8.76188e-09
-8.61261e-09
1.25947e-08
-1.27439e-08
-1.69829e-09
1.28375e-08
-2.37723e-09
9.15949e-10
7.1709e-09
-1.72561e-11
-8.0695e-09
4.99821e-10
-8.1965e-09
7.52277e-09
-2.05016e-09
7.52284e-09
-2.52935e-10
5.32484e-09
5.67805e-09
1.46823e-08
6.37561e-09
-7.46211e-09
8.9227e-09
-7.83621e-09
6.1901e-11
6.51763e-09
-2.03946e-10
4.37912e-10
6.37656e-09
-6.83174e-09
-6.52436e-09
5.70547e-09
6.07039e-09
-5.39929e-09
6.15317e-09
-3.85806e-10
5.66525e-09
3.00451e-09
5.11658e-09
7.0663e-09
1.2431e-09
2.28448e-09
2.54291e-09
-6.02621e-09
-4.41192e-10
1.21455e-08
2.73967e-09
8.86806e-09
-4.19267e-09
-6.28624e-09
-8.82436e-09
6.15365e-09
8.95692e-09
-5.98423e-09
-7.25452e-11
-2.29505e-10
1.25727e-08
-4.02546e-10
-9.40128e-09
-2.76886e-09
6.01206e-09
-2.68113e-09
9.24172e-09
7.65013e-09
-4.93189e-09
-8.70249e-09
-1.57678e-09
-9.43458e-10
1.31092e-08
-5.92352e-09
-5.70822e-09
1.06883e-08
-8.24916e-12
-5.91251e-09
-2.81521e-12
-5.60822e-09
-1.08267e-10
1.09996e-08
-4.78933e-09
-1.56115e-08
4.01257e-09
4.30586e-09
-5.5721e-09
-1.08687e-10
4.97562e-09
-1.46969e-08
-7.58645e-09
5.6865e-09
-8.18294e-09
-6.74843e-09
-2.58757e-09
1.44357e-08
-5.0997e-09
-6.4798e-09
1.22073e-09
-1.48939e-09
-7.01467e-09
3.16162e-09
8.44153e-09
-4.58857e-09
-8.8839e-09
1.24791e-08
-1.06099e-08
-7.64818e-09
-6.2901e-09
-7.55981e-09
1.38242e-09
-3.02418e-10
7.48129e-09
2.99567e-09
-1.13806e-08
9.0356e-10
-9.57163e-10
8.78621e-10
1.85055e-09
-8.02557e-09
9.17065e-09
-6.59737e-09
1.1693e-08
-3.24527e-09
6.98363e-09
-9.71702e-10
-7.77895e-09
1.76724e-09
-5.1184e-09
1.50006e-09
1.0602e-08
-3.55687e-09
3.198e-09
-2.95672e-09
3.31586e-09
-5.20999e-09
6.81609e-10
1.0498e-08
-9.23108e-09
-9.0459e-09
7.69276e-09
-2.31315e-09
-1.01029e-09
5.70851e-09
2.71504e-09
-3.94485e-09
-3.98006e-09
-1.9134e-10
-5.02005e-11
-5.09867e-09
1.92176e-09
3.98327e-09
-8.06163e-10
8.75444e-10
-4.61259e-09
-1.36129e-09
-1.53468e-09
-8.62469e-09
9.28358e-10
-3.03062e-09
3.94238e-09
-2.21473e-09
5.97713e-11
-1.40243e-09
-4.39684e-09
1.18674e-09
6.91556e-10
-6.17098e-09
-2.32627e-09
-7.96712e-11
-3.03712e-09
1.95363e-08
6.58851e-09
-1.10533e-08
-1.50714e-08
5.43491e-09
6.44816e-09
7.65321e-09
1.76212e-08
-1.46812e-09
-9.5646e-09
1.34116e-08
9.64452e-09
-1.35296e-08
9.83783e-09
1.014e-08
-7.25643e-09
-1.73265e-08
1.31759e-08
-6.82356e-09
-7.8205e-09
1.08674e-08
1.57203e-08
-2.71357e-09
6.89155e-09
8.89991e-09
-1.30778e-08
6.37089e-09
-1.63408e-08
2.14546e-09
1.41793e-08
-9.95387e-09
1.66768e-08
-7.63985e-09
-2.06672e-08
5.27011e-09
3.56732e-09
1.18299e-08
8.19765e-09
-1.2188e-08
6.31052e-09
-4.23414e-09
1.54595e-08
-9.51285e-10
6.22957e-09
1.45001e-08
1.15237e-08
6.22298e-09
1.73673e-08
-2.70242e-10
2.68673e-09
-3.89169e-09
3.16935e-09
-1.96485e-09
-1.72822e-09
4.83413e-09
-4.19612e-10
3.04196e-09
1.22935e-09
-8.16342e-09
4.37676e-09
-3.06357e-09
9.33304e-09
-9.09166e-09
1.15662e-08
3.24862e-09
-3.13995e-09
4.10593e-09
3.8681e-09
-4.20538e-10
4.49814e-10
4.35022e-09
-6.9502e-09
-4.80689e-09
7.7751e-09
-4.85221e-09
1.88384e-09
-3.39643e-09
3.14341e-10
-1.725e-09
5.33185e-10
1.20723e-09
-5.88372e-09
-8.01442e-10
-5.45889e-09
-7.74646e-10
-1.04032e-09
-2.72778e-09
2.2953e-10
5.82165e-09
7.11335e-09
-1.21017e-08
-8.334e-10
-4.62441e-09
1.08137e-08
-3.67535e-10
6.59048e-09
-1.02435e-08
-9.7136e-10
-3.84059e-09
1.09197e-08
-4.88595e-10
-3.32563e-09
6.44027e-09
-2.84093e-09
-2.73785e-10
3.43091e-09
-6.12635e-09
-6.3022e-10
-3.06415e-09
6.79375e-09
-2.98725e-10
-1.41742e-09
-5.24866e-09
6.88723e-09
-2.2129e-10
-6.82505e-09
5.91041e-09
-5.02755e-10
2.1387e-09
-6.87777e-09
-5.09702e-10
6.65329e-11
-9.38337e-09
9.94533e-09
-6.28462e-10
9.7565e-09
-9.06123e-09
-6.28881e-10
1.69653e-09
2.88001e-09
-4.53329e-09
-4.31873e-11
-3.07515e-09
4.78272e-09
-1.10618e-11
-9.80835e-10
4.57228e-09
-3.75598e-09
1.64457e-10
3.8193e-09
-4.74785e-09
-5.24354e-11
3.78538e-10
4.30156e-09
-1.07944e-10
-4.34702e-09
6.27776e-10
-3.69573e-11
-8.37147e-10
1.00343e-08
-8.76103e-09
-4.36425e-10
-8.14608e-09
7.74094e-09
-4.32177e-10
2.65318e-09
-1.55192e-09
-1.15667e-09
5.52551e-11
-5.35193e-10
-6.45292e-09
7.05789e-09
-6.98793e-11
6.58399e-09
-6.83258e-09
-2.86625e-10
-9.99243e-10
-3.2858e-09
4.25074e-09
3.41468e-11
3.10229e-09
-4.11469e-09
1.3101e-11
3.96059e-09
-1.04633e-09
1.88033e-10
-5.65355e-09
5.70717e-09
-5.40584e-11
3.12214e-13
-4.414e-10
-5.12517e-09
-8.70547e-11
5.94653e-09
-6.30907e-09
-7.89511e-11
-3.10788e-09
1.05048e-08
-7.05738e-09
-3.39612e-10
8.54653e-09
-1.08148e-08
-8.39598e-10
1.24592e-09
-2.26785e-09
9.85586e-10
3.81062e-11
2.6734e-09
-1.4676e-09
4.037e-11
-8.86066e-09
-3.69666e-09
1.29151e-08
-3.5795e-10
1.49839e-09
-9.73287e-09
-6.26318e-10
-9.14024e-09
-3.87976e-10
-8.16627e-10
-4.47249e-09
5.17279e-09
1.16263e-10
4.27305e-09
-5.01725e-09
-7.24669e-11
-1.13117e-09
4.98685e-09
4.17296e-10
-5.01785e-09
3.67452e-09
2.11992e-10
1.11401e-11
-3.91628e-09
-7.48535e-11
-4.20819e-09
4.19757e-09
2.18577e-11
-5.03539e-09
8.637e-10
-3.65792e-11
-7.43857e-09
7.40961e-09
2.87491e-10
-2.58576e-10
4.75637e-11
-7.10377e-09
-3.82355e-10
7.32368e-09
-7.01561e-09
-2.6054e-10
5.3789e-09
-3.70623e-10
-4.84181e-09
-1.66524e-10
3.48253e-10
5.06215e-09
-3.14782e-11
-4.24085e-09
4.66575e-09
-7.66965e-11
-1.34885e-10
-6.5513e-09
6.66213e-09
2.39897e-11
5.84709e-09
-5.84054e-09
-1.41371e-10
-1.45567e-09
7.23698e-09
6.57441e-11
-8.4235e-10
7.01331e-09
-6.08628e-09
-8.46171e-11
6.90626e-09
-7.33604e-09
-4.12443e-10
-5.96603e-09
1.2857e-08
-6.69993e-09
-1.91168e-10
-4.63684e-09
-6.12673e-09
1.09858e-08
-2.22211e-10
-9.96545e-09
-6.37388e-10
-3.90609e-10
-1.27346e-09
1.74951e-09
-8.49727e-11
1.20234e-09