/*--------------------------------*- C++ -*----------------------------------*\
| =========                 |                                                 |
| \\      /  F ield         | OpenFOAM: The Open Source CFD Toolbox           |
|  \\    /   O peration     | Version:  v1612+                                |
|   \\  /    A nd           | Web:      www.OpenFOAM.com                      |
|    \\/     M anipulation  |                                                 |
\*---------------------------------------------------------------------------*/
FoamFile
{
    version     2.0;
    format      ascii;
    class       volVectorField;
    location    "200";
    object      wallShearStress;
}
// * * * * * * * * * * * * * * * * * * * * * * * * * * * * * * * * * * * * * //

dimensions      [0 2 -2 0 0 0 0];

internalField   uniform (0 0 0);

boundaryField
{
    WALL
    {
        type            calculated;
        value           nonuniform List<vector> 
1500
(
(0.0054044 -0.00653915 0.0120568)
(0.00503265 -0.00645319 0.0116283)
(0.00476075 -0.00610628 0.0110488)
(0.00504529 -0.00579892 0.0109957)
(0.00522719 -0.0063694 0.0116529)
(0.00512656 -0.00633722 0.0115689)
(0.00494455 -0.00620272 0.0113763)
(0.00536526 -0.00647791 0.0116811)
(0.0047399 -0.00610393 0.0112094)
(0.00515912 -0.00564751 0.0108274)
(0.00519898 -0.00626862 0.0114794)
(0.00495414 -0.006256 0.0111499)
(0.00510933 -0.00608134 0.0114398)
(0.00505296 -0.0061209 0.0111768)
(0.00550959 -0.00606786 0.011452)
(0.00510706 -0.0062465 0.011534)
(0.00513736 -0.00641075 0.0116085)
(0.00552863 -0.0062453 0.0117011)
(0.00489654 -0.00634012 0.0111236)
(0.00518155 -0.00602829 0.0114593)
(0.00505525 -0.00610357 0.0113611)
(0.00490729 -0.00603094 0.0110928)
(0.00493556 -0.00589132 0.0107278)
(0.00487721 -0.00628628 0.0111315)
(0.004751 -0.00586853 0.010603)
(0.00473282 -0.00621869 0.0107667)
(0.0048696 -0.0061602 0.0110779)
(0.00515538 -0.00572042 0.0112532)
(0.00518302 -0.00612771 0.0112734)
(0.00545386 -0.0064345 0.0119249)
(0.00524899 -0.00644512 0.0118177)
(0.00502424 -0.00609863 0.0111979)
(0.0051123 -0.00610047 0.0108207)
(0.0052799 -0.00658473 0.0118269)
(0.00537053 -0.00648072 0.0112454)
(0.00519743 -0.00584151 0.011599)
(0.00518468 -0.00630657 0.0117519)
(0.00496929 -0.00619125 0.0113613)
(0.0050528 -0.00614605 0.0112174)
(0.00488543 -0.00626677 0.0113136)
(0.00554653 -0.00666243 0.0116148)
(0.00486031 -0.00622251 0.0111601)
(0.00570355 -0.00664387 0.0121136)
(0.00485438 -0.00597066 0.0116065)
(0.00516841 -0.00673014 0.0118504)
(0.00545394 -0.00706698 0.011844)
(0.00507603 -0.00603971 0.011142)
(0.0048344 -0.00603596 0.0114498)
(0.00495013 -0.00577204 0.010754)
(0.00455302 -0.00598893 0.0110773)
(0.00510683 -0.00626115 0.0114492)
(0.00539832 -0.00623511 0.011316)
(0.00529511 -0.00621721 0.0114182)
(0.00509766 -0.00621039 0.0114883)
(0.00502206 -0.00612383 0.0114935)
(0.00527565 -0.00622964 0.0112487)
(0.00492668 -0.00588785 0.0110413)
(0.00495793 -0.00641852 0.0117365)
(0.00513103 -0.00638662 0.0116032)
(0.00480769 -0.00608498 0.0110863)
(0.00489851 -0.00613345 0.0114926)
(0.0050385 -0.00586173 0.0113728)
(0.0051566 -0.00659902 0.0114968)
(0.00545173 -0.00678334 0.0119213)
(0.00507865 -0.00643405 0.0118373)
(0.00520954 -0.00635055 0.0115708)
(0.00477634 -0.00596665 0.0113088)
(0.00496185 -0.00605876 0.0109216)
(0.00505395 -0.00599643 0.0115776)
(0.0047993 -0.00579331 0.0109)
(0.00501478 -0.00610443 0.0110111)
(0.00490432 -0.00588772 0.0112171)
(0.00504432 -0.00601386 0.0109037)
(0.00496507 -0.00583966 0.0107492)
(0.00509008 -0.00597673 0.0111858)
(0.00483759 -0.00650034 0.0109965)
(0.00514155 -0.00661078 0.0122861)
(0.00506161 -0.00568785 0.0110122)
(0.00462324 -0.00548524 0.0106242)
(0.00477584 -0.00558348 0.0109836)
(0.00465116 -0.00577376 0.0105144)
(0.00483038 -0.00577756 0.0109578)
(0.00494751 -0.00607838 0.0111921)
(0.00492924 -0.00600593 0.0112181)
(0.00513503 -0.00601837 0.0114228)
(0.0049166 -0.00573365 0.0107082)
(0.00489649 -0.0064146 0.0112907)
(0.00536805 -0.00589141 0.0111111)
(0.00484681 -0.00619142 0.0114078)
(0.0051631 -0.0061331 0.0114477)
(0.00483317 -0.00637285 0.0114003)
(0.00468438 -0.00594476 0.0108958)
(0.00545221 -0.00608165 0.0114939)
(0.00514224 -0.00586919 0.011094)
(0.00512536 -0.00603574 0.0112709)
(0.00512463 -0.0058436 0.0111128)
(0.00493046 -0.00608172 0.0112168)
(0.00479988 -0.00601963 0.0110006)
(0.00511809 -0.00603573 0.011262)
(0.00515795 -0.00603216 0.0114883)
(0.00477909 -0.00592636 0.0106542)
(0.00494946 -0.00593698 0.0110091)
(0.00501403 -0.00589 0.0112232)
(0.00508239 -0.00633262 0.011428)
(0.00446255 -0.00599036 0.0110131)
(0.00488159 -0.00593876 0.0108474)
(0.00504004 -0.00572526 0.0107258)
(0.00489412 -0.00582794 0.0107962)
(0.00499597 -0.00594662 0.0109105)
(0.00512907 -0.00583108 0.0108392)
(0.00495836 -0.00613598 0.011506)
(0.00495182 -0.00601409 0.0111236)
(0.00494227 -0.00631801 0.0114285)
(0.00517789 -0.00656115 0.0121576)
(0.00493604 -0.0061082 0.0112082)
(0.00493376 -0.00605206 0.0116548)
(0.00527481 -0.00653787 0.0118665)
(0.00484788 -0.00623824 0.0112875)
(0.00442685 -0.00556922 0.0108014)
(0.0052046 -0.00611194 0.0116014)
(0.00454639 -0.00583679 0.0105522)
(0.00505225 -0.00631409 0.0112845)
(0.00495699 -0.00613386 0.0109829)
(0.00497648 -0.00629283 0.0111557)
(0.00462436 -0.00571001 0.0107686)
(0.00497508 -0.00617153 0.010929)
(0.00507172 -0.00603481 0.011285)
(0.00523764 -0.00616368 0.0117189)
(0.0051054 -0.00635981 0.0118242)
(0.00507315 -0.0062226 0.0123843)
(0.00468864 -0.00573735 0.0105921)
(0.00510917 -0.00583059 0.0106588)
(0.00512706 -0.00604145 0.0116725)
(0.00480422 -0.00557476 0.0113467)
(0.00494163 -0.00626443 0.0110252)
(0.00480065 -0.00611618 0.0109389)
(0.00515359 -0.00624046 0.0116297)
(0.00520857 -0.0059991 0.0115615)
(0.00482763 -0.00562281 0.0109901)
(0.00525851 -0.00614838 0.0111797)
(0.00475205 -0.00593668 0.0113208)
(0.00522513 -0.00618831 0.011222)
(0.00519735 -0.0060991 0.011398)
(0.00464629 -0.00555286 0.0104793)
(0.00463931 -0.00586143 0.0113613)
(0.00546595 -0.00656419 0.0122399)
(0.00492521 -0.0059613 0.0114544)
(0.00601789 -0.00668548 0.0113669)
(0.00479941 -0.00586274 0.0109065)
(0.00540859 -0.00651848 0.0114408)
(0.00510152 -0.00610923 0.0116724)
(0.00528892 -0.00619097 0.0114813)
(0.00456057 -0.00580857 0.0107387)
(0.00450714 -0.00546685 0.0100842)
(0.00454589 -0.00573093 0.0105662)
(0.00509149 -0.00634194 0.0122028)
(0.00484948 -0.00641743 0.0109706)
(0.0053708 -0.00654282 0.0116114)
(0.00520829 -0.00620926 0.0113273)
(0.00542351 -0.00663278 0.0114125)
(0.00519699 -0.00602386 0.0115186)
(0.00472454 -0.00592217 0.0113333)
(0.00544614 -0.00688711 0.0116618)
(0.00438378 -0.00575533 0.0110092)
(0.00576996 -0.00694096 0.011378)
(0.00533524 -0.00688693 0.010928)
(0.00542651 -0.00681079 0.0112855)
(0.0056177 -0.00653382 0.0115175)
(0.00481402 -0.00528536 0.0114597)
(0.00501302 -0.00602815 0.0110011)
(0.00446527 -0.0059714 0.0115356)
(0.00457052 -0.00590791 0.0118679)
(0.00482437 -0.00582744 0.010991)
(0.00521519 -0.00648595 0.011621)
(0.00555274 -0.00655298 0.0116946)
(0.0048954 -0.00594872 0.0107012)
(0.00500332 -0.0060085 0.0111078)
(0.00538742 -0.00619084 0.0116886)
(0.00496673 -0.00597874 0.0110169)
(0.00500735 -0.00590487 0.0111723)
(0.00511488 -0.00604586 0.011177)
(0.00513311 -0.00607178 0.011156)
(0.0051824 -0.00599006 0.0110976)
(0.00492131 -0.00600561 0.0111854)
(0.00502537 -0.00593788 0.0109064)
(0.00507695 -0.00595717 0.0108815)
(0.00505397 -0.00604385 0.0111617)
(0.00530814 -0.00604732 0.01138)
(0.00499009 -0.00603355 0.0110697)
(0.00476884 -0.00591045 0.0111067)
(0.00504067 -0.0057816 0.0107466)
(0.00491773 -0.00604678 0.0111386)
(0.00496019 -0.00591025 0.0109352)
(0.00488585 -0.00603914 0.0110342)
(0.00507737 -0.00586535 0.0110903)
(0.00501019 -0.00607305 0.0111562)
(0.00500235 -0.0059196 0.0111734)
(0.00503182 -0.00601356 0.0112002)
(0.00486621 -0.00600625 0.0110375)
(0.00503346 -0.00611264 0.0114122)
(0.00519667 -0.00590113 0.0110192)
(0.00462729 -0.00573142 0.0107343)
(0.0052471 -0.00600875 0.0110664)
(0.00502504 -0.00590867 0.0111433)
(0.0049212 -0.0060463 0.0111055)
(0.00497662 -0.00607465 0.0111352)
(0.00474274 -0.00589566 0.0109049)
(0.0048359 -0.00591483 0.0107479)
(0.00506468 -0.00622905 0.0110597)
(0.00472912 -0.00567359 0.0108091)
(0.00537205 -0.00679309 0.0121473)
(0.0050562 -0.00627889 0.0108325)
(0.00493205 -0.00609199 0.0112869)
(0.00519621 -0.00671346 0.0119095)
(0.00487754 -0.00602926 0.0114421)
(0.00521386 -0.00633953 0.0118046)
(0.00513632 -0.00646914 0.0114096)
(0.00508189 -0.00621481 0.0113622)
(0.00527354 -0.00667618 0.0113322)
(0.00505323 -0.00630421 0.0114829)
(0.00502574 -0.00606677 0.0110207)
(0.00506228 -0.0061211 0.01146)
(0.00516236 -0.00651794 0.0115898)
(0.0050495 -0.00648169 0.0114056)
(0.00525861 -0.00633269 0.0122414)
(0.005307 -0.00596223 0.0118934)
(0.00483207 -0.00579107 0.0107991)
(0.00503671 -0.0061343 0.0113263)
(0.00488071 -0.00664136 0.011408)
(0.00546697 -0.00640447 0.0122249)
(0.0051948 -0.00678358 0.0123695)
(0.00509053 -0.00660286 0.0116734)
(0.00529469 -0.00676395 0.0120948)
(0.00519268 -0.00644383 0.0117675)
(0.00527157 -0.0065018 0.011659)
(0.00479575 -0.00606955 0.011085)
(0.00475216 -0.00620542 0.0110939)
(0.00474305 -0.00625608 0.0112754)
(0.00482494 -0.00613013 0.0110917)
(0.00504781 -0.00607032 0.0112284)
(0.00496059 -0.00608392 0.0112713)
(0.00512423 -0.006097 0.0117928)
(0.00518256 -0.00636497 0.0116283)
(0.00509902 -0.00651811 0.0114007)
(0.00529397 -0.00606108 0.0125494)
(0.0050695 -0.00623668 0.0115333)
(0.00489662 -0.00641474 0.0115876)
(0.00490761 -0.00620951 0.0113146)
(0.00493515 -0.00597806 0.0110158)
(0.00499607 -0.00591927 0.0110091)
(0.00492696 -0.00594739 0.0110516)
(0.00493256 -0.0060034 0.0111594)
(0.00483548 -0.0061114 0.0110773)
(0.00489938 -0.00602062 0.011121)
(0.00535964 -0.00627243 0.0118695)
(0.00498921 -0.0061739 0.0114358)
(0.00526264 -0.00571824 0.0110163)
(0.00509061 -0.00603247 0.0113235)
(0.00497818 -0.00552069 0.0107891)
(0.00497079 -0.00598213 0.0115598)
(0.00467869 -0.00610977 0.0105634)
(0.00450406 -0.00621315 0.0107883)
(0.00510275 -0.00633571 0.0115497)
(0.0051801 -0.00569767 0.0111692)
(0.00486823 -0.00597397 0.011013)
(0.004988 -0.00614248 0.0111956)
(0.00493113 -0.006112 0.0112538)
(0.00472725 -0.00582111 0.0108193)
(0.00487397 -0.00597386 0.0108974)
(0.00494089 -0.00599469 0.0110692)
(0.00501575 -0.00600937 0.0110756)
(0.00497908 -0.00616933 0.0112959)
(0.00485435 -0.00603495 0.0110905)
(0.00475982 -0.00616835 0.0110787)
(0.0051614 -0.00607711 0.0114279)
(0.00486137 -0.00604253 0.0110269)
(0.00483686 -0.0059308 0.010859)
(0.00495814 -0.00595632 0.0110498)
(0.00488114 -0.00605409 0.011125)
(0.00479865 -0.0059575 0.0109701)
(0.0051177 -0.00607087 0.0115607)
(0.00514724 -0.00638126 0.0118847)
(0.00510873 -0.00649694 0.0114385)
(0.00492928 -0.00617286 0.0112241)
(0.00489349 -0.00614512 0.0111727)
(0.00506476 -0.00619851 0.0113818)
(0.00514715 -0.00648818 0.0116791)
(0.00544333 -0.00610583 0.012308)
(0.00516808 -0.00625944 0.0117072)
(0.00518135 -0.00597485 0.0113587)
(0.00507371 -0.0059831 0.0111408)
(0.00501737 -0.00590292 0.0111853)
(0.00524921 -0.00623261 0.0117413)
(0.00479948 -0.00607327 0.0109945)
(0.00498279 -0.00649099 0.0113711)
(0.00512886 -0.00573689 0.010866)
(0.00488053 -0.00614801 0.0112174)
(0.00501226 -0.00613081 0.0112831)
(0.00539321 -0.00567026 0.0112655)
(0.00497818 -0.00620354 0.0111135)
(0.00529479 -0.00625602 0.0117722)
(0.00496749 -0.00579976 0.0112328)
(0.00477457 -0.00580125 0.0109404)
(0.00504959 -0.005751 0.0112084)
(0.00475009 -0.00549488 0.010836)
(0.00492381 -0.00651651 0.0115682)
(0.00518582 -0.00601064 0.0116032)
(0.00512768 -0.00609397 0.0113468)
(0.00487192 -0.00628312 0.0113611)
(0.00503787 -0.00635964 0.0117715)
(0.00495583 -0.00578535 0.0107972)
(0.00514778 -0.00623181 0.0115712)
(0.00507729 -0.00637698 0.0115392)
(0.0050656 -0.00600882 0.0111204)
(0.00495286 -0.0060962 0.0111786)
(0.0049823 -0.00594345 0.011072)
(0.00497414 -0.00607635 0.0113036)
(0.00488355 -0.00611493 0.0111848)
(0.00502748 -0.00615811 0.0112099)
(0.00486316 -0.00597951 0.0111174)
(0.00512867 -0.00606988 0.0115873)
(0.00514517 -0.00634919 0.0116105)
(0.00489616 -0.00616451 0.0111608)
(0.00502394 -0.00608031 0.0111947)
(0.00516985 -0.00633213 0.0112935)
(0.00495721 -0.00631019 0.0108216)
(0.00479497 -0.00616785 0.0109874)
(0.00538825 -0.00601689 0.0117127)
(0.00504987 -0.00602709 0.0116681)
(0.00523756 -0.00614371 0.0119594)
(0.00503073 -0.00588452 0.0110112)
(0.00508971 -0.00619063 0.0112546)
(0.0054075 -0.00676191 0.0115151)
(0.00551051 -0.00686062 0.0122568)
(0.00534222 -0.00676537 0.0118507)
(0.00536509 -0.00633402 0.0116281)
(0.0050208 -0.00601718 0.0111078)
(0.00506699 -0.00596647 0.0111594)
(0.00515345 -0.00554952 0.0111914)
(0.00505221 -0.00613705 0.010746)
(0.00541147 -0.00651113 0.0119528)
(0.00532756 -0.00565669 0.0117291)
(0.00539505 -0.00649281 0.0107411)
(0.00468377 -0.00540016 0.0102141)
(0.00518705 -0.00638534 0.0113638)
(0.00495554 -0.00600901 0.0107336)
(0.00535883 -0.00661167 0.0117052)
(0.00482274 -0.00601862 0.0108494)
(0.00499868 -0.0060537 0.0115256)
(0.0052383 -0.00655816 0.011707)
(0.00484154 -0.00589541 0.0113343)
(0.00546548 -0.00657655 0.0115901)
(0.0048952 -0.00612921 0.0110609)
(0.00507742 -0.00599253 0.0114621)
(0.00531165 -0.00657576 0.011748)
(0.00541128 -0.00665001 0.0118586)
(0.00525643 -0.0064202 0.0115511)
(0.00511473 -0.00653021 0.0114724)
(0.00531856 -0.00644033 0.0115984)
(0.00517449 -0.00684637 0.0113649)
(0.00477411 -0.00565881 0.0105489)
(0.00517298 -0.00599994 0.0113714)
(0.00475491 -0.00579573 0.0108841)
(0.00478298 -0.00574327 0.0106776)
(0.00476819 -0.00597761 0.011009)
(0.00505588 -0.00630247 0.0116396)
(0.0047877 -0.00564827 0.0111174)
(0.00540639 -0.00711328 0.0125754)
(0.00466628 -0.00526369 0.0110921)
(0.0049736 -0.00617072 0.0118593)
(0.00479906 -0.0061274 0.0111778)
(0.00534562 -0.00630002 0.0116411)
(0.00548916 -0.00629729 0.011801)
(0.00531008 -0.00625171 0.0114952)
(0.0048661 -0.00603199 0.0112775)
(0.00470845 -0.00617307 0.0116243)
(0.00528456 -0.00607871 0.0117788)
(0.00498077 -0.00600861 0.0111423)
(0.00506968 -0.00605842 0.0113135)
(0.00505009 -0.00619342 0.0114073)
(0.00521785 -0.00625415 0.0117451)
(0.00499662 -0.0061693 0.0114924)
(0.00531011 -0.00630604 0.0116351)
(0.00504775 -0.00588275 0.0109088)
(0.00533017 -0.00629891 0.0114264)
(0.00522054 -0.00608987 0.0111623)
(0.00534512 -0.00636257 0.0114567)
(0.00508593 -0.00619476 0.0113632)
(0.00512454 -0.00622269 0.0114229)
(0.00490047 -0.00584529 0.0109254)
(0.00532619 -0.00650361 0.0119155)
(0.00478597 -0.00616475 0.0115964)
(0.0050263 -0.00651955 0.0117864)
(0.00497857 -0.00622959 0.0116441)
(0.00509457 -0.00624618 0.0114426)
(0.00505528 -0.00615236 0.0112698)
(0.00517827 -0.00616559 0.0116792)
(0.00490302 -0.00580072 0.0106897)
(0.0048072 -0.0063021 0.0114788)
(0.0049841 -0.00585452 0.0108392)
(0.00524716 -0.00602039 0.0111974)
(0.00513097 -0.00600595 0.0108834)
(0.00524943 -0.00604186 0.0111478)
(0.00505818 -0.00604051 0.0108363)
(0.00496689 -0.00598776 0.0110982)
(0.00559926 -0.00636009 0.0116054)
(0.0048645 -0.00589167 0.0107491)
(0.00497818 -0.00603196 0.0112064)
(0.00493753 -0.0061358 0.0111058)
(0.00528446 -0.0063253 0.0113688)
(0.00509645 -0.00620179 0.0109739)
(0.00499644 -0.00601541 0.011)
(0.00515479 -0.00611935 0.011611)
(0.00532264 -0.00643637 0.0117636)
(0.0048912 -0.00611668 0.0115666)
(0.00510197 -0.00622869 0.0113507)
(0.00500417 -0.00609319 0.0113367)
(0.00492086 -0.00601426 0.0111843)
(0.00569594 -0.00658317 0.0118335)
(0.00508431 -0.00623089 0.0110833)
(0.00531392 -0.00636968 0.0116292)
(0.00502037 -0.00587994 0.0108573)
(0.00513224 -0.00640275 0.0117578)
(0.00519903 -0.00611834 0.0119929)
(0.00500333 -0.00599779 0.0112592)
(0.00485013 -0.00585698 0.0113092)
(0.00480652 -0.00593793 0.0108351)
(0.00504727 -0.00596321 0.0112698)
(0.00513625 -0.00617794 0.0114312)
(0.00495564 -0.00587398 0.011019)
(0.00522233 -0.0062204 0.0115795)
(0.00510486 -0.00612695 0.0113537)
(0.00509083 -0.00627301 0.0116007)
(0.00537348 -0.00615912 0.0114558)
(0.00507262 -0.00632514 0.0115866)
(0.00507101 -0.00619705 0.0116413)
(0.00498927 -0.00659955 0.0114203)
(0.00516515 -0.00630665 0.0116359)
(0.00539351 -0.00597035 0.0113216)
(0.00537556 -0.00586835 0.0115767)
(0.0052955 -0.00587177 0.0114225)
(0.00512069 -0.00599786 0.0113333)
(0.00490069 -0.00598422 0.0111381)
(0.00496752 -0.00590115 0.0109486)
(0.0051516 -0.00607048 0.0114863)
(0.00478372 -0.00583954 0.010841)
(0.00468656 -0.00607292 0.0109439)
(0.00491484 -0.00594329 0.0109785)
(0.00507798 -0.00620109 0.0113026)
(0.00501949 -0.00614633 0.0112104)
(0.0050032 -0.00589288 0.0108998)
(0.00524589 -0.00580499 0.0112124)
(0.00532887 -0.0060688 0.011583)
(0.00503949 -0.00613231 0.011267)
(0.0047341 -0.00586462 0.0108182)
(0.00503511 -0.00621367 0.0115761)
(0.00533664 -0.00603808 0.0114475)
(0.00489749 -0.0060529 0.0112146)
(0.00493772 -0.00636596 0.0115107)
(0.00540039 -0.00603647 0.0112986)
(0.00522918 -0.00616156 0.011522)
(0.00480741 -0.00597934 0.0110154)
(0.00499666 -0.00611887 0.0114992)
(0.00508011 -0.00602742 0.0113902)
(0.00508505 -0.00615887 0.0113609)
(0.00478034 -0.00604133 0.011238)
(0.00493207 -0.0064419 0.0116315)
(0.00500306 -0.0060503 0.0111494)
(0.00526236 -0.00609213 0.0118046)
(0.00504536 -0.00600722 0.0111728)
(0.00506812 -0.00594877 0.0112992)
(0.00508889 -0.00606976 0.0113569)
(0.00508075 -0.00633074 0.0116092)
(0.00486446 -0.00608351 0.0111809)
(0.00490225 -0.0060568 0.0112664)
(0.00492132 -0.00615272 0.0114872)
(0.00502357 -0.00604292 0.0113604)
(0.00497514 -0.00601884 0.0107644)
(0.0053661 -0.00626185 0.0116395)
(0.00528324 -0.00621585 0.0114242)
(0.00497025 -0.00611558 0.0113925)
(0.00493967 -0.0060751 0.0113269)
(0.0052041 -0.00620604 0.0114263)
(0.00496591 -0.00593755 0.0110847)
(0.00489309 -0.00640937 0.0114527)
(0.00512147 -0.00644102 0.0117074)
(0.00503934 -0.00620245 0.011461)
(0.00499677 -0.00620452 0.01125)
(0.00499273 -0.00627208 0.0112865)
(0.00482611 -0.00628357 0.0111421)
(0.00505952 -0.00627264 0.0113543)
(0.00498613 -0.00622947 0.0114648)
(0.00479697 -0.00632814 0.0113743)
(0.00512174 -0.00643479 0.0117241)
(0.00509247 -0.00601946 0.0113699)
(0.00530004 -0.0062063 0.0115306)
(0.00536591 -0.00611799 0.0115965)
(0.00514487 -0.00604231 0.0113006)
(0.00518096 -0.00588408 0.0111876)
(0.00527205 -0.00587165 0.011424)
(0.00531408 -0.00614872 0.0113843)
(0.00521198 -0.00632179 0.0115714)
(0.00513097 -0.00636185 0.011587)
(0.00547465 -0.0064883 0.0121033)
(0.00519672 -0.00610412 0.0115626)
(0.00527026 -0.00605524 0.0117166)
(0.00521932 -0.00613928 0.0115766)
(0.00461223 -0.00573784 0.0109343)
(0.00506426 -0.00610631 0.0112792)
(0.00483598 -0.00576578 0.0111425)
(0.00521612 -0.00658069 0.0113393)
(0.00471327 -0.00587277 0.0105487)
(0.00496579 -0.00600184 0.0112486)
(0.0046388 -0.00571907 0.0106834)
(0.00506614 -0.00610127 0.0115458)
(0.00500765 -0.00604602 0.0112135)
(0.00517114 -0.00624672 0.0113581)
(0.00506121 -0.00603143 0.0111399)
(0.00520858 -0.0061871 0.011269)
(0.00548586 -0.00668173 0.0117044)
(0.00564477 -0.00699488 0.0114051)
(0.00493152 -0.00645696 0.0114594)
(0.0049479 -0.00618368 0.0112405)
(0.00465252 -0.00585454 0.0108527)
(0.00519857 -0.00622079 0.0117239)
(0.00497152 -0.00606526 0.0113526)
(0.005393 -0.00633542 0.011477)
(0.00529395 -0.00603469 0.0110937)
(0.00462277 -0.00560686 0.0106909)
(0.00493132 -0.00596361 0.0110036)
(0.00531715 -0.00608614 0.0109815)
(0.00549754 -0.00606944 0.0114582)
(0.00494411 -0.00576734 0.0107863)
(0.00526987 -0.00641659 0.0126129)
(0.00536449 -0.00647035 0.0118773)
(0.00502583 -0.00601527 0.0114861)
(0.00536339 -0.00602048 0.0109863)
(0.00523987 -0.00606319 0.0116286)
(0.00541763 -0.00651632 0.0121416)
(0.00473959 -0.00591284 0.0108686)
(0.0045983 -0.00560914 0.0113915)
(0.0057077 -0.00727928 0.012258)
(0.00522438 -0.00664474 0.0123836)
(0.00509077 -0.00667217 0.011761)
(0.00522806 -0.0065479 0.0118324)
(0.00501307 -0.00609708 0.0115949)
(0.00505263 -0.00638886 0.01163)
(0.00511499 -0.00628359 0.0117401)
(0.00515471 -0.00624068 0.0113829)
(0.0049043 -0.00588649 0.011147)
(0.0048083 -0.00605669 0.0111482)
(0.00527912 -0.00581802 0.0112428)
(0.00510764 -0.00600749 0.0114197)
(0.00526112 -0.0062235 0.0115564)
(0.00497599 -0.00625786 0.0111646)
(0.00516759 -0.00606143 0.0115268)
(0.00477568 -0.00587681 0.0108671)
(0.0049908 -0.00610671 0.0114859)
(0.00520607 -0.00643718 0.0116543)
(0.00470888 -0.00619056 0.0109594)
(0.00524989 -0.00633923 0.0117812)
(0.00502021 -0.00618657 0.0115649)
(0.00473385 -0.00604562 0.0109199)
(0.00493765 -0.00585953 0.0109501)
(0.00511527 -0.0060917 0.0113185)
(0.00514727 -0.00610487 0.0113843)
(0.00526452 -0.00606352 0.0113033)
(0.00509121 -0.00605774 0.0112006)
(0.004843 -0.00601038 0.0109058)
(0.00485194 -0.00558891 0.0108095)
(0.00503089 -0.00563946 0.0109338)
(0.00517128 -0.00581663 0.0112661)
(0.00497454 -0.00596639 0.01124)
(0.00495993 -0.00615138 0.011172)
(0.0049214 -0.00627361 0.0114424)
(0.0048307 -0.00577655 0.0108019)
(0.00499391 -0.00604279 0.0112)
(0.00523284 -0.00594104 0.010935)
(0.00472817 -0.00624446 0.0110014)
(0.00455791 -0.00604695 0.0108109)
(0.00499647 -0.00614576 0.0111711)
(0.00523698 -0.0055092 0.0110936)
(0.005089 -0.00561491 0.0107981)
(0.00533748 -0.00605414 0.0115173)
(0.00493073 -0.00599303 0.0109036)
(0.00499863 -0.00593494 0.010966)
(0.00486765 -0.00590756 0.0111341)
(0.00522521 -0.00603752 0.0110128)
(0.00470283 -0.00587472 0.0111751)
(0.00498943 -0.00624234 0.0116111)
(0.0051373 -0.00609574 0.0112676)
(0.00487118 -0.00627918 0.0113413)
(0.00466463 -0.00625606 0.0119021)
(0.00471018 -0.00600144 0.0115732)
(0.0053086 -0.0063598 0.0115343)
(0.00544816 -0.00648698 0.0116017)
(0.00500406 -0.00593259 0.0109159)
(0.0046234 -0.00589012 0.0113056)
(0.00506338 -0.00612207 0.011407)
(0.00500497 -0.00610335 0.0110551)
(0.00488123 -0.00602219 0.0108895)
(0.00488403 -0.00605801 0.0112343)
(0.00460882 -0.0056287 0.0104309)
(0.00474403 -0.00579693 0.0111532)
(0.00551091 -0.00648683 0.0120409)
(0.00514978 -0.00603518 0.01123)
(0.0050565 -0.00589399 0.0113578)
(0.00560492 -0.00650809 0.0112901)
(0.00512854 -0.00650447 0.0115406)
(0.00571876 -0.00686387 0.0114156)
(0.00469676 -0.00604822 0.0112101)
(0.00513827 -0.00626327 0.0114803)
(0.00498944 -0.00596637 0.0109934)
(0.00534287 -0.00688529 0.0118258)
(0.00504992 -0.00654997 0.0113269)
(0.00521955 -0.00631822 0.0116536)
(0.00519661 -0.00600026 0.011309)
(0.00497196 -0.00580167 0.010888)
(0.00497636 -0.00621515 0.0118919)
(0.00527159 -0.00621385 0.0114274)
(0.00490492 -0.00595978 0.0112358)
(0.00497796 -0.00618221 0.0111249)
(0.00518081 -0.0061434 0.0114381)
(0.00459701 -0.0058296 0.0111074)
(0.00481268 -0.00578314 0.0110569)
(0.00493962 -0.00600975 0.0111885)
(0.00501941 -0.00618119 0.0113023)
(0.00485989 -0.00592702 0.0107067)
(0.00535361 -0.00649141 0.0117105)
(0.00515499 -0.0063538 0.0116815)
(0.00528214 -0.00616181 0.0115849)
(0.00487774 -0.00605064 0.011456)
(0.00525571 -0.00581263 0.0111703)
(0.00478351 -0.00638067 0.0111223)
(0.00511304 -0.00597129 0.0109793)
(0.00516306 -0.00616163 0.0114171)
(0.0052708 -0.00608915 0.0115708)
(0.00526671 -0.00651357 0.0117539)
(0.00487222 -0.00631173 0.0113331)
(0.00508484 -0.00611544 0.0113382)
(0.00500778 -0.00589487 0.0110237)
(0.00463993 -0.00599396 0.0106986)
(0.00460492 -0.00624845 0.010949)
(0.00506519 -0.00637224 0.0116418)
(0.0047288 -0.00601225 0.0114655)
(0.0050171 -0.0061341 0.0115407)
(0.00519287 -0.00608214 0.0116807)
(0.00512833 -0.00643519 0.0118535)
(0.00521381 -0.00638157 0.0116323)
(0.0052112 -0.0060743 0.0112006)
(0.00490191 -0.00604203 0.0110229)
(0.00508184 -0.00614323 0.0112423)
(0.00508995 -0.00585895 0.011431)
(0.00474665 -0.00592 0.0105325)
(0.00508031 -0.00599917 0.0113343)
(0.00483534 -0.00595213 0.0111355)
(0.00498531 -0.00599093 0.0109103)
(0.00504476 -0.00596545 0.0110522)
(0.00542448 -0.00631161 0.0118518)
(0.0049225 -0.00603873 0.0112644)
(0.00484633 -0.00580934 0.0108219)
(0.0048223 -0.00602562 0.0111247)
(0.0050019 -0.00616347 0.0112339)
(0.00497672 -0.00598266 0.011106)
(0.00500419 -0.00601666 0.011254)
(0.0048068 -0.00584685 0.0108844)
(0.00506009 -0.00599009 0.0111495)
(0.00482326 -0.00596031 0.0109651)
(0.00493449 -0.00637575 0.0115117)
(0.00522009 -0.00587607 0.011496)
(0.00494989 -0.00648907 0.0117752)
(0.00468995 -0.00627575 0.0114292)
(0.0049932 -0.0066952 0.0116265)
(0.00545147 -0.00614941 0.0118047)
(0.0052612 -0.00638874 0.011721)
(0.00490034 -0.00582639 0.0109015)
(0.00475117 -0.00602971 0.0112363)
(0.00505029 -0.00602194 0.0112432)
(0.00514121 -0.00608814 0.0114297)
(0.00514245 -0.00611655 0.011417)
(0.0051442 -0.00594905 0.0110794)
(0.00506324 -0.00613278 0.0111413)
(0.00494611 -0.00592651 0.0111456)
(0.00513165 -0.00573617 0.0112205)
(0.00511701 -0.0061173 0.011275)
(0.00492579 -0.00560454 0.0114127)
(0.00501344 -0.0059459 0.0109822)
(0.00519341 -0.00615213 0.0114991)
(0.00483051 -0.00588427 0.0112876)
(0.00508252 -0.00595609 0.0113602)
(0.00492582 -0.00612203 0.0110072)
(0.00517408 -0.00620492 0.0113328)
(0.00456586 -0.00558863 0.0107605)
(0.00488509 -0.00592419 0.0109258)
(0.00462548 -0.00589955 0.0111569)
(0.00534925 -0.00630007 0.0113818)
(0.00488452 -0.00605299 0.0110206)
(0.0050448 -0.00598009 0.0110151)
(0.00506115 -0.00591585 0.0111977)
(0.00551691 -0.00634969 0.0121069)
(0.00483982 -0.00606521 0.0119676)
(0.00552195 -0.00644508 0.0114836)
(0.00543276 -0.00620227 0.0113694)
(0.00536713 -0.00667584 0.0119713)
(0.00564799 -0.00652004 0.0124084)
(0.00567261 -0.00645762 0.0119072)
(0.0050322 -0.00599819 0.0109545)
(0.00522078 -0.00615275 0.0113574)
(0.00498399 -0.00594417 0.0106285)
(0.0054437 -0.00643508 0.0114522)
(0.00557198 -0.0066652 0.0114475)
(0.0049667 -0.00581614 0.0114914)
(0.00461055 -0.00595266 0.011434)
(0.00582594 -0.00677558 0.0122647)
(0.00543322 -0.0070807 0.0114727)
(0.00574055 -0.0070096 0.0118001)
(0.00443861 -0.00557673 0.0110782)
(0.00542521 -0.00668886 0.0113544)
(0.00534899 -0.00632546 0.0112014)
(0.00495917 -0.00567986 0.0116245)
(0.0047908 -0.00603887 0.011209)
(0.00521152 -0.00622401 0.0119076)
(0.00540837 -0.00633377 0.0112772)
(0.00500894 -0.00621023 0.0114791)
(0.00533174 -0.00630927 0.0115823)
(0.00456231 -0.00581136 0.0110242)
(0.00519601 -0.00611376 0.0111805)
(0.0047993 -0.0059335 0.0114001)
(0.00467786 -0.00582103 0.010883)
(0.00498124 -0.00595324 0.011348)
(0.00493671 -0.00607924 0.0111464)
(0.00526349 -0.00616332 0.010866)
(0.00488788 -0.00612536 0.0118792)
(0.00490122 -0.00611091 0.0116345)
(0.00524348 -0.00616164 0.0117487)
(0.00488721 -0.00602505 0.0117047)
(0.00453213 -0.00595481 0.0113439)
(0.00559055 -0.00650866 0.0111543)
(0.00502956 -0.00627091 0.0111993)
(0.00523746 -0.00620287 0.0116778)
(0.0051365 -0.00586617 0.0114849)
(0.00521003 -0.00613384 0.0115145)
(0.00504141 -0.00607118 0.0109803)
(0.00558127 -0.00707399 0.0119017)
(0.0049553 -0.00619927 0.0113115)
(0.00526373 -0.0066236 0.0119698)
(0.00582713 -0.00696872 0.0124352)
(0.00495162 -0.00607508 0.0111958)
(0.00526522 -0.00572847 0.0116317)
(0.00469517 -0.00580189 0.0106826)
(0.00515934 -0.00617576 0.0115026)
(0.00515797 -0.00619401 0.0118247)
(0.00539797 -0.00608107 0.0113473)
(0.00526306 -0.0061302 0.0115508)
(0.00489046 -0.00625003 0.0117478)
(0.00481505 -0.0059541 0.0110806)
(0.00489279 -0.00591161 0.0107043)
(0.00485695 -0.00601171 0.0111251)
(0.00502995 -0.00611111 0.0113429)
(0.00497312 -0.00609147 0.0113234)
(0.00500295 -0.00627043 0.0117056)
(0.00487373 -0.00594119 0.0111263)
(0.00505077 -0.00634816 0.0115568)
(0.00496303 -0.00586424 0.0107455)
(0.0048551 -0.00601692 0.0109353)
(0.0051915 -0.00638504 0.0114809)
(0.00493904 -0.00630483 0.0116099)
(0.00487949 -0.00576252 0.0107476)
(0.00530756 -0.00627902 0.0118557)
(0.00537531 -0.00633458 0.0116894)
(0.00504952 -0.00610269 0.0111409)
(0.00503494 -0.00587187 0.0108999)
(0.00515077 -0.00582472 0.0109968)
(0.00488275 -0.00595299 0.0113444)
(0.00532997 -0.00647666 0.0117819)
(0.00518777 -0.00618301 0.0114332)
(0.00496995 -0.00614419 0.0108803)
(0.00553583 -0.00666286 0.0118636)
(0.00477532 -0.00608463 0.0115434)
(0.00533028 -0.00671245 0.012082)
(0.00541652 -0.00649041 0.0115029)
(0.00518495 -0.00631189 0.0119587)
(0.00523128 -0.00609158 0.0112178)
(0.00487798 -0.00615656 0.0114538)
(0.00523566 -0.00589695 0.0109504)
(0.00490028 -0.00611918 0.0113641)
(0.00500212 -0.00599953 0.0112417)
(0.00485388 -0.00591876 0.0112548)
(0.00554459 -0.00637118 0.0118687)
(0.00525885 -0.00616874 0.0112125)
(0.00536625 -0.00607661 0.0114879)
(0.00522933 -0.00609224 0.0112208)
(0.00514278 -0.00614515 0.0116373)
(0.00491974 -0.0059757 0.0110925)
(0.00504786 -0.0062349 0.0114639)
(0.00499551 -0.00610397 0.0113978)
(0.00517115 -0.00629367 0.0112587)
(0.00509237 -0.00641074 0.0115088)
(0.00480988 -0.00576233 0.012249)
(0.00489596 -0.0054428 0.0116825)
(0.005172 -0.00644986 0.0114083)
(0.00533619 -0.00619985 0.0118965)
(0.00585116 -0.00704708 0.0119957)
(0.00552147 -0.00708098 0.0121961)
(0.0048768 -0.00596382 0.0113049)
(0.00532142 -0.00640367 0.0112812)
(0.00541102 -0.00657258 0.0115614)
(0.00507349 -0.00624718 0.0113793)
(0.00504864 -0.00610239 0.0113233)
(0.00507086 -0.0059382 0.0109316)
(0.00523519 -0.00634236 0.0114432)
(0.00465938 -0.00550611 0.0107413)
(0.0056091 -0.00708971 0.011984)
(0.00521565 -0.0062522 0.0111125)
(0.00520674 -0.0066954 0.012231)
(0.00504906 -0.00612076 0.0117463)
(0.00519822 -0.00652699 0.0112057)
(0.00532017 -0.00642685 0.0123375)
(0.00507133 -0.00628035 0.0116816)
(0.00539872 -0.00606616 0.0120932)
(0.00547342 -0.00675641 0.0120342)
(0.00495973 -0.00662051 0.0115478)
(0.00552991 -0.0061844 0.0118287)
(0.00505563 -0.00605974 0.0110548)
(0.0050316 -0.00620952 0.0111682)
(0.00503263 -0.0060081 0.0112213)
(0.00484572 -0.00585018 0.010857)
(0.00503443 -0.00641269 0.0113238)
(0.00521003 -0.00652729 0.0117846)
(0.00535237 -0.00661965 0.0121581)
(0.00531205 -0.0063527 0.0118388)
(0.00514981 -0.0061715 0.0111177)
(0.00506001 -0.00610836 0.0113913)
(0.0050159 -0.00614095 0.0113197)
(0.00515756 -0.00616936 0.0114428)
(0.00508227 -0.00599189 0.0111802)
(0.00506087 -0.00598834 0.0113821)