/*--------------------------------*- C++ -*----------------------------------*\
| =========                 |                                                 |
| \\      /  F ield         | OpenFOAM: The Open Source CFD Toolbox           |
|  \\    /   O peration     | Version:  v1612+                                |
|   \\  /    A nd           | Web:      www.OpenFOAM.com                      |
|    \\/     M anipulation  |                                                 |
\*---------------------------------------------------------------------------*/
FoamFile
{
    version     2.0;
    format      ascii;
    class       surfaceScalarField;
    location    "100";
    object      phi;
}
// * * * * * * * * * * * * * * * * * * * * * * * * * * * * * * * * * * * * * //

dimensions      [0 3 -1 0 0 0 0];

internalField   nonuniform List<scalar> 
37631
(
-1.01123e-08
2.09613e-09
2.73619e-09
5.27966e-09
8.30253e-09
-8.472e-09
-1.01504e-08
-5.54718e-09
-3.34683e-09
4.69162e-09
-1.41404e-09
-1.67e-08
1.47732e-09
-1.22443e-08
-1.28639e-08
-4.01256e-09
1.69139e-09
-1.29298e-08
-2.81333e-09
-8.57329e-09
-9.59395e-09
-2.28444e-09
-5.9585e-09
7.74182e-09
5.01139e-10
8.40219e-10
-5.21441e-09
3.92857e-09
4.45768e-10
-7.19243e-09
7.66747e-09
3.65247e-10
-1.35499e-08
8.11695e-09
2.36122e-09
3.07175e-09
-1.89826e-09
5.25693e-10
-1.21772e-08
-5.55035e-09
6.47486e-09
-8.24442e-09
4.09734e-10
-1.15889e-08
8.47656e-09
5.47355e-09
-6.28901e-10
-1.28581e-08
-9.93116e-09
-4.50131e-09
7.24585e-09
7.18669e-09
-9.28548e-09
-6.60418e-09
3.50747e-09
-9.22341e-09
1.21466e-09
6.7696e-09
-3.12441e-10
-7.40626e-09
8.83984e-10
-1.07363e-08
-8.71389e-09
7.30028e-09
5.11734e-09
-5.42564e-09
-6.992e-09
1.09627e-08
-1.15391e-09
-2.50855e-09
-4.79743e-09
-5.40793e-10
1.04555e-08
4.58555e-09
4.7322e-10
-1.04845e-08
2.20962e-09
2.7478e-09
6.0053e-09
6.55376e-09
-3.12213e-09
7.6479e-09
5.97084e-09
-1.31455e-08
8.0162e-09
-5.16573e-09
-5.06029e-09
-2.52945e-09
1.20865e-08
-4.49681e-09
-5.95889e-09
1.72069e-09
-8.22094e-10
-6.40996e-09
5.42298e-09
3.19659e-09
2.90661e-09
-2.76281e-09
-2.42303e-09
4.48031e-09
3.11776e-09
4.30022e-10
-5.5202e-09
8.41371e-09
5.04164e-10
-9.88614e-09
-1.58983e-09
6.84474e-10
1.05299e-09
-1.02438e-08
-1.37543e-10
-9.46857e-09
6.35401e-10
-1.12445e-08
-4.95782e-10
2.51017e-09
-1.38594e-10
-1.53013e-08
1.70693e-09
-8.79069e-09
9.60804e-10
-1.49722e-09
-9.70739e-09
-1.8118e-10
-8.32661e-09
-1.26352e-08
-9.71873e-09
6.47651e-09
3.55637e-09
-1.27016e-08
2.6688e-09
5.89274e-09
-9.08714e-09
9.67091e-09
1.82426e-09
3.74271e-09
-2.01052e-09
7.5621e-09
1.54912e-10
-8.11752e-09
5.92739e-11
-1.02885e-09
-7.36679e-09
-1.34523e-08
-1.69685e-08
6.99251e-09
-4.11837e-09
1.40945e-08
-1.36466e-08
8.77487e-09
-1.20968e-08
7.69774e-09
1.01733e-08
-8.20011e-09
8.36684e-09
-2.34417e-09
1.67508e-09
5.13422e-09
-1.6112e-08
4.42867e-09
9.26998e-09
-1.15795e-08
-2.11914e-09
-3.68782e-09
3.72167e-09
8.33299e-09
1.13715e-09
5.34833e-09
-5.90274e-09
1.54406e-09
1.13512e-08
4.00924e-09
4.40927e-09
8.0867e-10
-2.09099e-10
1.64196e-08
-1.10763e-08
-2.81801e-09
8.08375e-09
6.01993e-09
-9.1622e-09
1.10538e-08
-7.32676e-09
5.43509e-09
9.94383e-09
-1.14945e-08
-7.6116e-09
-7.7892e-09
-5.72097e-09
6.70919e-09
6.80092e-09
1.7589e-09
-8.49754e-09
-1.0506e-09
-1.17578e-08
4.9443e-09
1.78673e-08
-5.51786e-11
6.53675e-09
-4.19827e-09
-1.38331e-08
6.08524e-10
-1.39863e-09
5.12463e-09
-5.96058e-09
-7.66162e-09
-2.46939e-10
-3.49438e-10
1.47563e-08
-3.10282e-09
2.94086e-09
-1.30998e-08
5.2739e-09
5.68957e-09
-8.02273e-09
-2.1578e-10
6.09809e-09
5.92242e-09
-4.79855e-10
1.69136e-09
-1.32059e-09
8.81556e-09
-9.18651e-09
4.09456e-09
2.62021e-09
-7.7255e-09
1.01052e-09
-7.48097e-09
1.25287e-09
7.91935e-09
-3.98377e-09
5.97246e-10
4.49271e-09
1.15411e-08
-1.32884e-08
-2.7455e-09
6.01021e-09
-9.35688e-09
3.63693e-09
-2.9039e-10
-6.61016e-10
8.1624e-09
-6.24859e-09
-9.22847e-09
2.37968e-10
7.66977e-09
-7.5302e-09
2.79438e-09
-1.08767e-09
-7.83269e-09
1.39012e-09
-6.56026e-09
6.13711e-09
-8.94698e-09
-7.47606e-09
9.86273e-09
-7.11626e-10
-9.32308e-09
-1.16417e-08
5.30356e-09
4.18816e-11
6.29615e-09
-6.41173e-10
-7.89328e-09
3.19965e-10
8.21437e-09
4.48774e-10
1.22749e-08
-1.34355e-08
2.59307e-09
-5.46693e-09
2.05668e-11
2.8533e-09
-4.29675e-09
2.89794e-09
3.99193e-09
-5.83277e-09
-7.01347e-09
2.36875e-09
1.04776e-08
-6.44462e-09
-2.64381e-09
3.25601e-09
-5.63507e-09
-7.82295e-09
2.98893e-09
-2.35853e-09
-4.92709e-09
-2.29183e-09
-1.86135e-10
2.56171e-09
-5.30122e-09
2.76007e-09
-7.80149e-10
5.71072e-09
-2.82082e-09
4.9386e-09
-3.56872e-09
6.12166e-09
2.43687e-09
-4.98956e-09
2.88746e-09
-8.09565e-09
1.63953e-09
1.03156e-09
2.44643e-09
-5.557e-09
-2.03591e-09
-4.60194e-09
2.81265e-09
-1.37617e-09
-7.88868e-10
1.4003e-09
-4.14788e-09
-1.83812e-09
-2.31853e-09
-4.67105e-09
-2.06467e-09
1.32339e-10
6.60328e-09
1.86775e-09
-6.92508e-09
3.86201e-10
-1.49408e-08
-1.79487e-09
1.2414e-08
4.32174e-09
-5.5767e-09
-7.42562e-09
-1.93854e-09
-1.64558e-08
2.90416e-09
1.17567e-08
-1.36509e-08
-8.38153e-09
-1.05608e-08
4.58564e-09
8.87938e-09
3.34514e-09
-1.09071e-08
-2.99902e-09
7.62612e-09
-4.73116e-09
4.50162e-10
1.01471e-08
-1.01602e-08
-6.18639e-09
8.92095e-09
7.56977e-10
-8.65068e-09
-5.75733e-09
-6.29972e-09
-3.85033e-09
-7.52492e-09
2.57999e-09
2.13702e-10
6.51735e-09
-7.23968e-09
2.58997e-09
9.35199e-09
-2.70232e-09
-1.5979e-09
-1.7213e-08
-5.58884e-09
-8.23585e-09
-4.82284e-09
4.7775e-10
-7.25888e-09
6.54601e-10
-6.35421e-10
7.59039e-09
-1.47771e-08
-4.49138e-09
-1.68567e-08
5.08125e-09
-3.18347e-09
1.49582e-08
-5.79371e-09
-8.83594e-09
-2.22723e-09
9.77138e-09
-1.24108e-08
-3.15431e-09
1.21128e-08
-8.13e-09
5.78853e-09
1.26876e-09
1.59251e-08
-1.11187e-08
6.54361e-09
1.39091e-09
-9.79384e-09
-1.01609e-08
2.47859e-09
-1.57394e-09
-1.33157e-08
1.41725e-08
1.09666e-09
-1.27907e-08
2.05137e-09
3.99102e-09
3.77002e-09
-9.41767e-09
1.06708e-08
-5.02341e-09
-8.80039e-09
1.3839e-08
5.24606e-09
-2.1013e-08
6.34914e-09
-1.51677e-08
1.16133e-08
1.60626e-09
-1.29742e-08
-1.68111e-08
1.16267e-08
7.23565e-09
-2.33597e-09
-1.33786e-08
-1.04154e-08
-8.82871e-09
-1.76893e-09
-1.39564e-08
1.07274e-08
-1.14572e-08
-7.50279e-09
9.40126e-09
2.49177e-09
-2.95483e-09
9.70132e-10
-5.06911e-10
-2.06657e-09
2.3312e-09
2.2273e-09
1.18623e-09
-1.40711e-09
-2.7337e-09
-3.84594e-10
-4.95724e-10
3.91317e-09
-3.20848e-09
2.65617e-10
6.49536e-10
2.13007e-09
-4.18655e-09
3.02527e-10
4.01753e-09
-4.06677e-10
-4.80559e-10
3.11433e-09
1.62887e-09
1.97767e-09
-2.95685e-09
1.71385e-09
-4.69458e-10
2.0872e-09
-3.16543e-09
-3.46628e-09
3.2213e-09
-2.35329e-10
-3.78532e-09
2.03295e-09
1.62146e-09
-3.42886e-09
-1.73165e-09
5.44031e-09
-7.03592e-09
-1.02371e-08
-9.32598e-09
-1.42031e-08
-7.3747e-09
-1.06594e-08
-1.25392e-08
-9.05344e-09
-1.53869e-08
2.46913e-09
1.14762e-08
4.45219e-09
-1.83978e-08
7.35323e-09
-2.08666e-08
-1.34242e-08
-1.05923e-08
4.17491e-10
1.79208e-09
-6.39348e-09
-4.27887e-09
-9.54496e-09
9.31384e-09
-1.0943e-09
1.32532e-09
-4.6911e-10
1.3761e-09
-1.0452e-08
3.24439e-09
9.29847e-09
-3.22908e-09
-3.44878e-09
6.2812e-09
4.11939e-10
6.66321e-09
1.08911e-09
-8.22154e-09
3.15937e-09
5.50021e-11
1.35558e-08
-7.99519e-10
-1.13803e-08
4.47137e-10
1.20143e-08
1.10197e-08
2.70038e-09
-4.42168e-09
7.37465e-09
1.47551e-09
-7.76114e-09
4.86868e-09
7.11552e-09
-4.60958e-09
7.25312e-09
7.74904e-10
1.99789e-09
-8.79293e-09
5.26997e-09
1.52491e-09
-5.33697e-09
6.86266e-09
4.72183e-10
8.8728e-09
-8.19685e-09
6.47143e-09
-5.46826e-10
1.1909e-09
8.38758e-09
-4.66961e-10
1.02904e-08
1.4891e-09
-6.89716e-09
-4.88217e-09
-4.14342e-09
1.92373e-09
1.25102e-08
-1.04689e-08
-1.11977e-09
7.44518e-09
-5.36613e-09
-3.61366e-09
1.48063e-08
-8.84959e-09
-4.03283e-09
5.87674e-09
-2.80903e-09
-8.4339e-09
2.75505e-09
2.00188e-09
-4.63276e-09
-7.66224e-09
5.39814e-09
4.31715e-09
-1.17589e-08
-6.30109e-09
6.89458e-09
3.72389e-09
2.80965e-09
2.28621e-09
-7.32219e-09
2.22624e-09
3.21081e-09
-5.86485e-09
5.46363e-09
-6.30846e-09
-8.50652e-10
1.03698e-08
-7.13725e-09
3.11519e-09
-1.19111e-08
-7.17474e-09
1.82353e-08
-6.15732e-09
-6.46498e-09
7.1129e-10
-2.86548e-09
-4.29403e-09
1.29449e-09
-4.8053e-09
-4.24826e-09
-6.44173e-09
-1.22854e-09
3.94968e-09
2.33929e-09
5.5095e-10
-6.84093e-09
1.72604e-09
-2.02447e-09
-6.96597e-09
-6.32848e-09
-7.83577e-09
-3.24429e-09
3.90531e-09
-7.49417e-09
-6.80651e-09
-7.49731e-09
-4.14341e-11
2.554e-09
-6.65663e-09
-3.87311e-09
-1.36717e-09
3.64902e-09
-6.97107e-09
-3.33934e-10
-4.60934e-09
-4.17921e-09
-4.83911e-10
-5.78917e-09
9.06414e-09
-2.79107e-09
1.01403e-08
-7.38996e-09
-3.23438e-09
4.95156e-09
-2.95498e-09
-6.93812e-09
4.94142e-09
4.72506e-09
-2.66384e-09
2.88987e-09
-1.46358e-08
7.39446e-09
-3.36941e-09
1.06105e-08
4.20543e-09
-8.70097e-09
-1.00153e-08
7.87504e-10
1.66221e-08
-5.11287e-09
-6.97295e-10
4.59989e-09
-2.18663e-09
1.71208e-09
-4.12547e-09
-4.36564e-09
9.75292e-09
-9.05683e-10
3.29256e-09
-9.77698e-09
-9.64991e-09
-1.59429e-11
1.12649e-08
-2.18495e-09
3.9004e-09
5.12077e-10
-6.81439e-10
-3.73132e-09
3.65513e-09
-7.31565e-09
7.56088e-09
-2.68847e-09
7.39749e-09
5.56695e-09
2.3285e-09
-5.8694e-09
-1.42995e-09
5.32144e-09
-4.12014e-09
-2.06479e-09
-5.48669e-09
2.32729e-09
5.25789e-09
-2.09844e-09
-7.78539e-09
1.79748e-09
5.01272e-10
-1.27312e-09
3.38217e-09
2.18267e-10
4.12281e-09
6.69203e-09
-3.21565e-09
-7.59917e-09
2.71503e-09
1.34684e-10
-6.70538e-09
4.69016e-09
4.73024e-09
1.16132e-09
-1.17462e-09
2.87892e-09
-1.72977e-09
4.10885e-09
-1.02186e-09
7.28297e-09
6.21547e-09
-1.15295e-08
-4.53042e-09
8.19874e-09
-3.79323e-09
4.24198e-10
6.92483e-10
7.30604e-09
-2.88148e-09
3.99546e-09
-8.42077e-09
6.99993e-09
-2.68819e-09
-8.9394e-09
4.62646e-09
5.16276e-09
-6.4107e-09
8.24779e-09
-1.14882e-09
1.36176e-08
1.13034e-08
2.72474e-09
-8.95588e-09
-5.07238e-09
7.59469e-09
2.03373e-09
3.22145e-09
-1.28501e-08
-7.87747e-09
2.3069e-09
-1.06588e-08
-8.43827e-10
1.54979e-08
-6.32964e-09
8.53321e-09
-2.48998e-10
-1.9547e-09
3.40789e-09
-8.17942e-09
-1.55827e-09
1.10206e-08
-1.3206e-08
1.06854e-08
4.55414e-09
2.93634e-09
-1.21192e-08
-4.02319e-09
-3.09666e-09
-8.47748e-09
9.15102e-10
-2.9843e-09
9.57436e-09
-8.11138e-09
-1.18253e-09
1.71389e-09
-1.164e-08
1.11085e-08
-1.06301e-09
-9.27254e-09
1.32719e-08
1.05981e-08
-8.25326e-09
9.38019e-10
2.4745e-09
-4.36605e-09
1.25768e-08
5.00941e-09
6.31515e-09
3.81777e-09
1.46885e-09
-2.77209e-10
6.92461e-09
2.5017e-10
-8.59504e-10
7.50142e-09
3.24098e-09
7.35308e-09
5.67783e-10
4.53232e-09
-3.02527e-10
-1.96064e-09
2.23627e-09
7.07741e-09
1.75871e-09
3.78207e-09
-3.41164e-09
2.78931e-09
2.38103e-09
1.65422e-09
-5.33584e-10
-4.75163e-09
3.14348e-09
-2.21796e-09
3.82607e-09
-3.38376e-10
1.17896e-09
4.75371e-09
1.0949e-09
2.5202e-09
-3.47116e-09
6.88647e-09
3.80014e-09
3.67443e-09
6.41351e-09
-3.7052e-09
-6.38285e-09
2.60633e-09
9.90465e-10
7.75607e-11
7.31762e-09
3.40239e-10
-1.24442e-09
4.39508e-09
5.52885e-09
5.33724e-10
-9.97339e-09
5.7344e-09
-5.08284e-09
-9.3255e-10
1.8226e-09
4.19269e-09
3.15376e-09
-7.70293e-09
2.37742e-09
-1.56253e-10
3.13056e-09
2.37276e-10
4.4566e-09
1.40337e-09
-5.6895e-09
-1.70583e-10
5.53971e-10
8.29765e-09
6.78267e-09
-3.0982e-09
6.38313e-09
1.10069e-08
-1.49629e-08
-2.42739e-09
-9.46582e-09
4.86249e-09
1.09863e-08
1.65685e-09
4.9308e-09
4.41908e-09
-1.90063e-09
2.10038e-10
-7.7754e-09
-1.88116e-09
-1.49825e-08
-5.4349e-09
-1.64146e-09
1.59769e-08
-8.90046e-09
-5.45081e-09
2.27442e-09
-2.25868e-09
-1.03968e-08
6.6028e-09
4.75234e-09
-1.89806e-08
1.97473e-08
-5.51926e-09
-9.74888e-09
-1.66246e-10
1.46673e-08
-8.12324e-10
-1.14658e-08
-8.58064e-10
1.53064e-09
-1.96533e-08
-1.14194e-08
-6.35832e-09
9.84038e-09
-5.12351e-09
-1.73308e-09
1.0002e-08
1.14783e-08
1.35047e-08
-1.17641e-08
5.41327e-09
1.36828e-08
-2.47336e-08
6.78516e-09
4.26501e-09
1.48554e-08
4.5306e-10
-3.00936e-09
-1.22993e-08
1.80375e-08
1.07218e-08
-1.39041e-08
-1.20467e-08
1.50252e-08
-2.52562e-09
9.33269e-09
-6.26154e-09
-1.51179e-08
1.10426e-08
4.14284e-09
-5.85281e-09
1.55424e-08
1.05254e-08
4.10205e-09
-8.71889e-09
1.82994e-08
-4.08865e-09
2.00297e-08
-1.18392e-08
-6.16101e-09
-8.24173e-09
1.85454e-08
-8.70471e-09
-2.21899e-08
4.94378e-09
-2.53871e-08
1.41817e-08
-6.16088e-09
1.76145e-08
1.0849e-08
-1.46101e-08
1.78752e-08
8.0717e-10
-7.83356e-09
2.27982e-09
9.59673e-09
1.14361e-08
-2.39195e-09
7.90132e-10
2.98696e-09
-1.38509e-09
2.42837e-09
-2.93881e-09
-1.88142e-09
-4.48473e-09
2.1405e-09
-8.07971e-10
3.15238e-09
3.11239e-09
3.09712e-09
-5.09142e-09
-1.11804e-09
-5.82217e-10
-2.0719e-09
1.71387e-09
3.34514e-09
4.96249e-10
-1.39705e-10
2.21845e-09
-2.76298e-09
2.68532e-09
-1.95491e-09
6.27611e-09
-2.10262e-09
2.01436e-09
9.5599e-11
-2.31764e-09
2.07873e-10
-2.37561e-09
2.43505e-09
4.29753e-10
1.89769e-09
-2.04714e-09
-2.16811e-09
1.83479e-11
-4.96537e-10
-3.30068e-09
-1.29408e-09
-8.13793e-10
6.39498e-09
-1.86371e-09
-3.71759e-09
-2.38379e-09
5.74098e-09
-4.17097e-09
-5.27477e-09
5.14667e-09
1.21175e-10
7.19029e-12
-1.52445e-09
3.69725e-09
-7.44761e-09
1.37093e-09
-5.92517e-09
3.0298e-09
-2.03608e-09
3.74139e-09
2.00215e-09
-3.70735e-09
3.43215e-10
-2.16095e-09
-2.1837e-10
1.83938e-09
1.99135e-09
-2.45984e-09
2.34372e-09
-1.61105e-10
1.92187e-09
-2.31427e-09
-7.1234e-10
6.62145e-10
6.44511e-09
-1.36778e-10
5.16528e-09
-2.65885e-09
-6.55721e-11
2.58767e-09
-6.05841e-10
-1.31156e-10
5.73771e-09
-3.90406e-09
-1.96747e-10
5.2203e-09
7.14179e-10
5.13344e-09
-1.8342e-10
-1.8774e-09
-5.95467e-11
1.87134e-09
-1.39476e-10
4.30547e-11
5.83935e-09
-1.63118e-10
5.33954e-09
3.51872e-09
-1.08483e-09
-9.73185e-09
8.78272e-09
2.03378e-09
-1.11199e-08
1.33076e-09
8.70427e-09
-1.46091e-09
-1.04271e-08
7.6805e-10
-1.02229e-08
-9.69875e-10
-1.96058e-09
-5.26661e-09
7.0507e-09
1.76396e-10
7.92297e-09
-8.5529e-09
3.9785e-09
-7.08206e-09
-4.43357e-09
7.53708e-09
-2.119e-09
5.69713e-09
4.00269e-10
-3.38794e-09
-1.43162e-10
-6.89596e-09
-2.89037e-09
-1.07205e-08
-3.25642e-09
-2.38965e-09
3.79389e-10
-4.01336e-10
-9.57112e-09
-5.47378e-09
9.8318e-11
2.03539e-09
-7.91052e-09
-5.22718e-09
7.1194e-09
-2.06268e-09
7.26609e-09
-1.1757e-09
-4.02775e-09
1.05038e-08
-8.43654e-09
-4.13001e-09
-5.29933e-10
7.67788e-09
1.18061e-10
-5.10368e-11
1.00249e-08
-3.96145e-09
1.00752e-08
-7.28947e-09
-4.73883e-09
-1.27542e-08
9.05643e-09
-4.70698e-09
2.27808e-11
-5.47373e-11
-1.0682e-08
-3.0758e-09
1.00359e-09
-8.2511e-09
-7.13797e-09
-1.38598e-08
-7.43025e-11
9.97256e-09
-1.01331e-08
-2.99135e-09
-7.35435e-10
6.04941e-10
-4.19573e-09
-4.37038e-10
4.07323e-09
-5.85742e-09
-7.5393e-09
9.32341e-09
5.09561e-09
-4.17466e-10
-4.17984e-09
6.88125e-12
1.50191e-08
-9.39873e-10
-1.71551e-08
-5.19391e-09
-9.03376e-09
5.97653e-09
1.08148e-08
8.24304e-10
-1.0198e-08
-7.05196e-09
6.47662e-09
-9.55776e-09
1.64249e-08
-8.59001e-09
4.70194e-09
-1.25369e-08
-1.20851e-08
7.35386e-09
1.43478e-09
-1.49033e-08
6.11449e-09
-8.67811e-09
4.17928e-09
1.18527e-08
6.11187e-09
-1.01484e-08
5.47123e-09
3.20558e-09
-4.33465e-09
7.24087e-09
3.58166e-09
-1.34189e-08
-5.06631e-09
-6.2444e-09
1.1478e-09
-3.1516e-09
1.3125e-09
-4.58831e-09
6.42735e-09
1.0024e-09
-4.38537e-09
2.31262e-10
8.69734e-09
3.60449e-09
-7.61186e-09
-6.14114e-09
2.72187e-10
-5.22562e-09
-1.67e-09
2.30721e-09
-7.17632e-09
-2.4347e-09
-1.57918e-08
-5.23901e-09
2.04761e-09
-9.96217e-09
-1.10183e-08
-1.10543e-08
6.28076e-09
-8.11575e-09
-5.73929e-09
-7.92549e-10
1.46475e-08
-4.06274e-09
2.9675e-09
-7.0208e-09
8.48334e-09
-1.43048e-08
1.7586e-09
-1.03168e-08
1.30607e-08
-5.28215e-09
1.10636e-08
-6.57404e-09
-2.3822e-08
1.07007e-09
1.2435e-08
-1.30978e-08
-2.0347e-08
9.62261e-09
-1.80589e-08
-9.34371e-09
9.39668e-09
-1.04597e-08
-1.48415e-08
1.59044e-08
-1.79976e-09
1.19644e-08
-7.02408e-09
-9.71142e-09
1.14533e-08
-1.71539e-08
1.11999e-08
5.36841e-09
-1.69085e-09
-2.17367e-08
8.46377e-10
-1.5825e-08
-9.15854e-10
-1.05954e-08
-1.15341e-08
-4.77351e-09
-1.6078e-08
3.92737e-09
1.14472e-08
-1.32543e-08
-4.61941e-09
6.42637e-09
3.52602e-09
8.82824e-09
-9.07097e-10
2.11663e-10
-2.93319e-09
-5.11128e-09
-5.50854e-09
-7.55462e-09
1.32747e-08
-3.88595e-09
8.25281e-09
-7.30017e-09
6.60635e-10
1.19788e-08
-1.65255e-08
-2.76245e-09
-6.44456e-09
-4.0474e-09
7.27562e-09
3.07204e-09
-9.68713e-09
-6.50149e-09
1.13596e-08
-1.39268e-08
9.06854e-09
-1.22855e-08
6.19447e-09
-4.10537e-10
2.8881e-09
1.4699e-08
-5.60845e-09
-1.14463e-09
1.40607e-09
7.58265e-09
-2.94626e-09
1.57118e-08
9.11749e-09
-4.60445e-09
9.71472e-10
-1.99342e-10
-1.02122e-08
1.07919e-08
-1.23269e-10
-7.49213e-10
-5.76157e-09
1.2909e-08
-6.39847e-09
-3.08259e-09
7.58262e-09
-5.24943e-09
8.50308e-09
-6.86629e-10
9.99979e-09
-1.78167e-08
-1.839e-09
-1.62649e-08
1.2342e-08
7.50875e-09
-1.24305e-08
1.11062e-08
-3.64895e-09
-6.87642e-11
-7.38918e-09
4.57903e-09
1.50301e-08
6.34285e-09
5.87932e-09
1.45042e-08
8.58627e-09
-1.5508e-08
6.65788e-09
4.3757e-09
3.47039e-09
7.61328e-09
-1.11406e-08
-1.22044e-10
5.75353e-09
7.24703e-09
1.41409e-08
-1.82302e-09
-3.73178e-09
9.62442e-09
8.89204e-09
-6.09122e-09
1.64235e-08
1.11464e-08
-5.45494e-09
-4.2984e-09
-1.45665e-08
6.8326e-09
1.20318e-08
-1.31922e-08
2.69985e-09
6.19345e-09
-1.2758e-08
-7.96998e-09
6.1612e-09
-1.07016e-08
4.83402e-09
-8.14128e-09
6.00664e-09
-1.32349e-09
1.29898e-08
2.56648e-09
-1.12921e-09
1.79551e-09
7.05457e-09
1.67711e-08
-7.06108e-09
-1.10338e-08
-1.46887e-09
2.44806e-09
1.06264e-08
1.45271e-09
1.57604e-08
2.68699e-09
-1.17471e-09
7.02676e-09
-8.53926e-09
-1.17975e-08
-4.13038e-10
1.48972e-08
-8.74354e-09
9.85485e-09
-1.29091e-08
1.78631e-09
-9.35662e-09
6.39535e-09
-1.00657e-08
1.14389e-08
5.97613e-09
-2.34428e-09
-1.23756e-08
-1.14236e-09
-2.19769e-09
-5.50432e-09
8.844e-09
-1.20719e-08
1.67897e-08
-5.86044e-09
-9.482e-09
5.39217e-09
1.29255e-08
1.13083e-08
-7.57892e-09
-1.66552e-08
-2.677e-09
6.1203e-09
6.68406e-09
1.94704e-09
-6.77548e-09
4.10277e-09
4.47092e-09
-1.44244e-08
2.37431e-09
-4.50242e-09
-1.18743e-08
6.94279e-09
1.19564e-08
-7.025e-09
-5.65028e-09
-1.28334e-08
6.60933e-09
1.61345e-08
3.76033e-10
-8.5876e-09
3.90494e-09
1.91895e-09
1.03106e-08
1.16914e-08
-1.33638e-08
-8.81199e-09
4.76144e-10
-1.93037e-09
-1.12465e-08
-1.52216e-09
-5.95195e-10
-5.79803e-09
8.89769e-09
-1.43462e-08
1.33649e-08
-6.22689e-09
-6.76208e-09
6.09749e-09
1.11724e-08
1.24995e-08
7.40775e-09
-1.06545e-08
5.45976e-09
1.66535e-09
-1.29232e-08
-1.84802e-09
5.78563e-09
-1.02118e-08
4.23608e-10
-1.70995e-09
9.71192e-09
-8.42573e-09
-2.11848e-09
1.63753e-08
-1.38335e-08
3.73065e-11
5.1609e-09
-6.90833e-09
1.01065e-08
-1.42065e-10
-1.41017e-08
-5.34935e-09
1.10498e-08
8.40117e-09
-7.61886e-09
4.54404e-10
-6.93729e-09
-4.91641e-09
1.06023e-08
4.42051e-09
6.51941e-09
-1.72399e-09
1.12536e-08
-1.37117e-08
5.064e-09
8.40126e-10
9.311e-09
-4.23018e-09
5.73664e-09
1.46241e-08
3.20724e-09
-5.59975e-09
1.06401e-08
9.45976e-09
2.12353e-09
-4.69779e-09
1.36415e-08
-3.05118e-11
5.03294e-09
4.73144e-09
2.18648e-08
-2.65507e-09
-9.98295e-09
-9.22683e-09
9.80644e-09
4.87281e-09
7.18546e-09
1.38722e-08
-4.42598e-10
-9.71393e-09
-3.71584e-09
-4.21501e-10
4.55833e-09
9.73535e-09
1.88618e-08
-1.35129e-08
-5.79155e-09
1.22222e-08
6.21812e-09
1.7794e-09
-9.46539e-09
-1.00917e-08
-4.13954e-09
-1.11276e-08
1.14687e-08
-1.58111e-08
1.44976e-08
-8.85541e-09
-8.29732e-09
2.27485e-09
1.09509e-09
9.57327e-11
9.70876e-09
-7.55325e-10
-9.04898e-09
-9.38208e-10
1.02668e-08
-9.2327e-09
-1.46892e-08
-5.40072e-09
-1.49635e-08
-9.11692e-09
1.67783e-09
3.93317e-10
-7.15903e-09
-4.67335e-09
1.14391e-08
-7.54301e-09
-5.57661e-09
9.27948e-10
8.47872e-09
-1.03449e-08
-8.68278e-09
-2.29293e-09
-8.1812e-09
-1.43362e-08
-8.87723e-09
1.43997e-08
8.81359e-09
-1.15222e-08
-3.09934e-09
2.85294e-10
7.54018e-09
-1.31988e-08
-5.86373e-09
-1.22359e-09
-1.13529e-10
-1.36629e-08
1.30277e-08
-2.62005e-09
3.25506e-09
-5.0004e-10
-9.34455e-09
-3.81833e-09
3.40539e-10
1.2425e-09
1.28166e-08
-9.95983e-09
1.21754e-08
-7.34804e-09
5.13242e-09
-8.19235e-09
-2.26759e-09
7.34529e-09
-8.33114e-09
-2.3778e-10
-8.28653e-10
2.32645e-11
-1.53137e-08
1.23535e-08
3.40043e-10
-1.31845e-08
2.0266e-10
1.33223e-08
-1.46564e-08
-1.62766e-09
-8.57421e-09
1.75304e-09
8.06363e-09
-1.02806e-09
-2.00898e-10
8.03497e-09
-9.49944e-09
-6.7279e-09
-3.4116e-10
2.18944e-09
-2.67443e-09
-1.06464e-09
-9.8235e-09
-5.65654e-09
-9.72573e-09
-9.44235e-09
1.25793e-08
-4.07251e-09
-1.16486e-08
-3.61548e-09
-6.11365e-09
2.91615e-10
6.17641e-09
-1.28684e-09
1.1783e-08
-1.66724e-08
-1.2793e-09
-6.86272e-09
1.43185e-08
1.07444e-08
-1.12723e-08
-6.45983e-10
1.17401e-09
3.41232e-09
-9.16498e-09
7.5113e-09
-8.058e-09
1.33741e-09
1.01329e-08
-4.77887e-09
1.08386e-08
-7.33895e-09
-1.52307e-08
1.46377e-08
-1.09126e-08
9.2193e-09
-8.81985e-09
-7.90795e-09
6.37025e-09
-8.08014e-10
4.17336e-09
9.1127e-09
-6.18195e-09
5.92123e-09
-6.04117e-09
-1.80846e-08
3.09483e-09
1.04889e-08
4.50067e-09
-3.74735e-09
-6.54315e-09
-7.79423e-09
3.83131e-09
-4.56424e-09
8.35132e-09
-7.61855e-09
-4.44267e-09
-4.57748e-09
1.28513e-08
-1.27511e-08
1.88588e-08
-9.85515e-09
1.19112e-08
-9.27434e-09
-9.1801e-09
5.72657e-09
9.27937e-09
2.30344e-09
-9.30047e-09
1.30478e-08
-6.05087e-09
1.45568e-08
-9.52867e-09
7.32719e-09
-1.20336e-08
-7.03844e-09
9.92284e-09
-3.43516e-09
4.58415e-09
4.87751e-09
-2.06296e-08
6.45157e-09
1.13103e-08
3.95799e-09
-2.22054e-09
-1.04823e-08
8.55913e-12
7.78574e-09
-1.21826e-08
1.26146e-09
-2.27149e-09
-1.20937e-08
-1.78196e-09
1.61473e-08
-8.69182e-09
-3.69352e-09
1.01139e-08
-2.66616e-09
1.43149e-08
6.02973e-09
-1.76783e-08
7.87736e-09
1.50892e-09
-1.20522e-08
-1.23689e-09
3.45814e-09
-1.1971e-08
2.04217e-09
-3.15619e-09
1.4077e-08
-1.09007e-08
-1.9848e-11
-1.26888e-09
8.19026e-09
-1.00776e-08
-4.14813e-09
-1.18754e-08
1.42418e-08
-1.4124e-08
1.25409e-08
-5.12162e-09
6.70488e-09
6.11042e-09
-1.02277e-08
-1.00068e-08
5.46129e-09
-9.35876e-09
2.62855e-09
-1.17305e-10
7.19826e-09
1.10936e-09
1.9886e-09
1.3568e-08
-6.7514e-10
-6.78249e-09
1.45839e-08
1.1525e-08
1.37021e-09
9.06558e-09
-1.31592e-08
1.08359e-08
-4.97952e-09
9.81573e-10
-1.20562e-08
1.95506e-09
-1.68226e-08
-6.63612e-09
-4.38582e-10
-9.46262e-09
9.94895e-10
-8.2926e-09
3.42023e-10
-1.11751e-08
-9.91322e-09
-2.09357e-10
2.13183e-09
-1.2187e-08
1.72611e-09
-1.32029e-08
-2.55667e-09
1.2928e-09
-7.02874e-09
-1.02932e-08
2.07105e-09
-1.02567e-08
-7.81122e-09
1.38812e-08
-1.22512e-08
8.61074e-09
-1.02408e-08
1.15006e-08
1.2738e-09
1.10676e-09
-9.42335e-09
-1.67506e-09
1.27199e-08
-1.62142e-09
-3.6638e-09
-1.80107e-08
-7.4832e-09
5.71593e-09
9.24203e-11
-8.67708e-09
1.67165e-08
-1.55226e-08
-9.7192e-09
9.45698e-09
1.17629e-08
-2.05176e-09
9.43317e-10
1.13931e-08
2.60066e-09
1.06797e-08
-2.30207e-08
-1.54271e-08
1.08751e-08
1.02679e-08
3.50966e-09
-2.22018e-09
-1.4047e-08
1.60392e-08
1.51727e-09
1.02429e-08
-1.36103e-08
-4.73995e-10
2.13241e-08
-6.44919e-09
9.34424e-09
1.31441e-08
1.74202e-09
1.97454e-08
6.59842e-09
1.80346e-09
1.11128e-09
-9.51339e-09
3.97728e-09
6.43029e-09
-3.80923e-09
6.18669e-09
2.29472e-09
-6.678e-09
2.42032e-09
3.87716e-09
-1.1087e-10
6.34918e-09
4.84355e-11
6.40192e-09
2.87013e-09
-8.16073e-09
-6.37657e-09
-3.13434e-09
1.26049e-09
8.2503e-09
4.17436e-10
-6.92635e-09
1.3233e-10
6.00531e-09
3.26004e-10
-4.03661e-09
5.77873e-09
4.10373e-09
3.11324e-10
5.63761e-09
4.52821e-10
5.18275e-09
1.55882e-09
-2.87262e-09
5.40132e-09
2.65386e-09
3.73278e-09
-2.56207e-10
1.03773e-09
-5.09612e-10
4.87315e-09
5.76936e-10
4.1935e-09
-7.97004e-09
4.32597e-09
6.60899e-09
-4.12896e-10
8.44633e-09
5.98584e-09
-2.78971e-09
5.54111e-09
-6.48162e-09
3.20865e-09
6.05319e-09
-1.50192e-08
7.81821e-09
1.14768e-09
-1.50526e-08
3.08097e-09
2.62638e-09
9.34506e-09
1.59545e-09
-9.26683e-09
-7.38125e-09
-6.92051e-09
1.82663e-08
-8.65108e-10
-1.04809e-08
-3.04512e-09
-1.27981e-08
8.92255e-09
5.25076e-09
-8.12376e-09
8.92612e-09
-1.1155e-08
-3.27555e-09
-7.69338e-10
1.51998e-08
-1.89244e-09
-3.88833e-09
1.10315e-08
-5.35772e-09
1.05221e-08
-7.05691e-09
9.62544e-09
-1.04329e-08
-1.42362e-08
1.15048e-08
-1.6114e-08
-6.71464e-09
8.59239e-09
-5.73305e-09
-8.78553e-09
-1.33023e-08
-2.43838e-09
7.21322e-10
-1.21607e-08
-1.22965e-08
-1.49912e-08
-3.03745e-09
9.90487e-09
-1.69826e-08
8.04625e-09
7.18251e-09
-7.595e-09
-1.02527e-08
2.46374e-09
-1.3104e-08
1.09232e-08
-6.55165e-09
-1.01047e-08
9.3301e-10
-1.62486e-08
2.95505e-09
-2.34718e-09
-9.45889e-09
8.87212e-10
-8.04629e-09
-7.06744e-10
-1.25514e-08
-1.6074e-09
-1.55559e-08
5.21869e-09
-1.21602e-08
-7.56932e-09
-3.07838e-09
-1.4467e-08
1.4363e-08
3.26323e-09
-3.15954e-09
9.02665e-09
-6.75726e-09
-1.67364e-08
1.57266e-08
-1.2887e-09
-5.41141e-09
-1.41038e-09
1.28593e-08
4.27755e-09
3.12128e-09
9.83125e-09
4.70101e-10
-1.31376e-08
5.91022e-09
-6.36724e-09
-6.1909e-09
1.12693e-08
-6.49e-09
-9.82975e-10
1.06301e-08
-3.15732e-09
-6.44898e-09
4.50216e-10
-4.91231e-10
-5.9547e-09
8.09304e-09
6.60235e-09
-4.72197e-09
2.69249e-09
-4.5729e-09
-2.65201e-09
1.06231e-08
-1.36879e-09
5.13307e-09
-9.38499e-09
-3.88622e-09
9.40252e-09
-2.67185e-09
-4.03829e-09
2.37063e-10
3.21069e-09
4.41123e-09
-5.55117e-09
3.92422e-09
-6.36604e-09
7.99289e-09
2.36707e-09
-8.38195e-09
4.63712e-10
6.1851e-09
-7.11328e-09
3.29522e-09
-3.39706e-09
1.35064e-08
-6.31408e-09
-1.31478e-09
1.26281e-09
4.33658e-09
-6.17641e-09
-4.47431e-09
-4.61826e-09
5.72893e-10
3.71236e-09
2.78908e-10
-1.01677e-08
3.32957e-09
-4.23547e-09
6.50808e-09
3.83023e-09
-1.00594e-08
8.87001e-09
6.48607e-09
-8.84802e-09
6.93179e-09
6.23473e-10
-1.09554e-08
1.44902e-08
6.53415e-09
9.58156e-10
-3.662e-09
2.06475e-09
-2.82551e-09
-2.61496e-10
5.20973e-09
3.35903e-09
-8.30738e-09
-1.19787e-08
4.05989e-09
7.65734e-09
4.79892e-10
-3.06398e-09
-9.3946e-09
7.44805e-10
4.76416e-10
-7.28834e-09
6.06691e-09
1.12593e-09
-7.53502e-09
7.15387e-09
9.24807e-09
2.04115e-09
-1.08128e-08
5.32933e-09
-1.79273e-09
5.71138e-09
8.52171e-09
-6.07477e-09
-1.96706e-09
3.24081e-09
9.34073e-09
7.77965e-09
-1.28849e-08
-1.09325e-08
1.60377e-08
1.2877e-08
2.31871e-10
1.40069e-10
-1.09838e-08
-4.31872e-09
1.15825e-08
-4.02305e-09
2.09115e-08
-1.23532e-08
1.0747e-08
-9.48107e-09
6.81239e-10
3.99096e-09
-1.09418e-08
2.17642e-09
5.44417e-09
3.32117e-09
-7.8898e-09
-1.58032e-08
-1.05115e-08
-6.49926e-10
3.27136e-09
-9.91008e-09
3.94512e-09
1.2081e-08
-6.11612e-09
-3.69517e-09
4.27401e-09
6.0987e-09
1.16268e-09
-5.0852e-09
2.14902e-09
1.68791e-08
-1.29295e-08
6.12031e-09
2.18213e-11
-9.83731e-09
-7.66109e-09
1.37552e-08
3.58129e-09
-1.71377e-09
-1.1848e-08
9.98029e-09
2.04053e-09
6.37462e-09
-1.5106e-09
-9.5871e-09
4.72301e-09
-6.7211e-09
4.28241e-09
8.81325e-09
9.47369e-09
3.35226e-09
-9.12267e-09
-3.70339e-09
4.83862e-10
4.77176e-09
4.218e-09
6.20705e-09
-9.93823e-09
3.64931e-09
-9.16333e-09
-4.07314e-09
-3.41491e-09
3.43067e-10
4.57713e-09
-8.54903e-09
4.4557e-09
2.35843e-09
-4.39688e-09
1.10377e-08
-5.96613e-09
6.34103e-09
-2.77793e-09
1.64005e-10
-8.86933e-09
6.11353e-09
4.46249e-09
-1.70678e-09
1.99823e-09
-6.96215e-10
-1.01714e-08
3.10236e-10
-2.74577e-09
-6.11368e-09
-2.6988e-09
-1.15266e-08
-2.38474e-10
-9.28993e-09
1.62815e-09
-8.43808e-09
-2.22545e-09
-7.17638e-09
-6.14193e-09
-5.09419e-11
-6.73923e-09
-7.48115e-09
8.40217e-09
-4.09282e-10
-5.11436e-10
-4.47068e-09
-3.91054e-09
9.00202e-10
2.41353e-09
-3.03366e-09
-2.13686e-09
2.7571e-09
-1.11251e-09
3.65845e-09
-1.3236e-10
3.49804e-09
1.38098e-09
-1.70001e-09
-3.17896e-09
2.63161e-09
-2.4602e-10
-5.39686e-09
6.31289e-09
1.71566e-09
-2.39568e-11
-6.68069e-09
-1.35636e-09
-1.129e-09
9.16627e-09
-2.57888e-09
-6.95652e-09
2.85475e-09
3.55626e-09
6.22317e-09
-1.37713e-09
9.31679e-09
-9.10199e-09
-6.24211e-10
-4.61148e-09
6.81139e-09
2.12641e-09
-6.72253e-09
-2.87575e-09
4.96317e-10
-3.39728e-09
-7.79588e-09
1.40409e-09
3.05379e-09
-7.99288e-10
-1.91883e-10
-4.54174e-09
6.588e-09
-2.04187e-09
2.10497e-09
-5.6941e-09
-8.29686e-09
5.05547e-09
-6.01301e-09
9.2545e-09
3.30001e-09
4.33171e-09
-1.59285e-08
5.06385e-09
-8.59757e-09
6.83378e-09
2.32248e-09
4.43346e-09
-2.42428e-09
6.77346e-09
6.04478e-10
2.28712e-09
-9.83793e-10
-8.10857e-09
6.80527e-09
-5.10598e-09
4.60345e-09
2.78961e-09
-4.96493e-09
-1.00828e-08
1.41513e-08
8.96441e-10
1.14985e-08
-1.12634e-08
4.82887e-09
-3.00946e-09
9.51685e-09
4.99106e-09
2.76175e-09
-1.61793e-08
1.0408e-08
-5.85024e-09
5.31874e-09
2.71031e-10
1.3964e-09
7.80859e-09
2.6145e-10
-3.4666e-09
4.31534e-09
5.9287e-09
-5.20026e-09
-5.04378e-09
5.42622e-09
-7.95536e-11
-1.03133e-09
9.90677e-10
-5.73359e-09
-2.53606e-09
7.27905e-09
-3.27782e-09
-7.70833e-09
1.19768e-08
-1.61075e-09
-7.47819e-09
5.81113e-09
-5.50719e-09
9.68176e-10
2.92832e-09
-6.11347e-09
4.06149e-09
9.01862e-10
-1.08647e-09
-9.77134e-10
-8.71738e-09
1.98625e-09
-6.50955e-09
-2.01135e-10
5.5183e-09
4.90731e-09
-1.21361e-09
-9.21204e-09
4.48609e-09
1.75793e-09
-7.25787e-10
-1.10061e-09
3.44087e-09
6.72363e-09
-5.2572e-09
5.43364e-09
-2.34839e-10
-4.82915e-09
3.26132e-09
9.51876e-11
-7.91074e-09
-1.01603e-08
3.74645e-09
3.91174e-09
2.83343e-09
-2.15833e-11
4.51625e-09
5.78975e-10
-4.25508e-09
9.88027e-10
5.31786e-09
-4.15076e-09
-2.15506e-09
2.88018e-09
-1.66881e-09
-2.23341e-10
2.8213e-09
-9.10296e-11
1.75743e-09
-2.11533e-09
4.80537e-10
-2.51594e-09
-1.09505e-09
-2.40842e-09
2.54343e-09
-1.18459e-09
-3.47415e-09
9.25729e-10
-5.11024e-11
1.94289e-09
3.6053e-09
-3.22728e-09
-2.32088e-09
2.71951e-09
1.49124e-10
-3.31024e-09
-4.15589e-09
6.37111e-09
-6.8782e-09
3.47694e-09
-2.61098e-09
2.92205e-09
5.66493e-10
4.27829e-10
-6.51787e-09
2.10601e-09
-2.89226e-09
-3.5054e-09
1.03266e-09
-4.62206e-09
-9.61178e-09
1.87654e-08
-8.34624e-09
-1.45538e-08
1.6808e-08
-1.18659e-08
9.7268e-09
8.85132e-10
-1.82417e-09
-8.78783e-09
6.80039e-09
1.92963e-09
9.96676e-10
-1.37325e-09
8.79547e-09
-6.22019e-10
-8.71571e-09
8.80772e-09
-1.46533e-09
1.01718e-08
-6.01507e-10
-8.68512e-09
2.26957e-09
9.83179e-09
-1.29276e-08
-2.22772e-09
2.87996e-09
-1.27224e-09
1.71576e-08
1.91743e-08
5.13694e-10
-1.61885e-09
-8.92105e-09
-2.3141e-09
1.0172e-08
9.37445e-10
8.38213e-09
-1.88871e-09
-1.64989e-08
1.34312e-08
-5.27869e-09
-5.04758e-10
-1.33441e-08
-2.64998e-09
1.10238e-08
1.13509e-09
-2.80757e-09
1.08554e-10
1.15425e-08
-8.84358e-09
8.26823e-09
-8.16949e-09
4.33515e-09
-4.43401e-09
4.58831e-09