/*--------------------------------*- C++ -*----------------------------------*\
| =========                 |                                                 |
| \\      /  F ield         | OpenFOAM: The Open Source CFD Toolbox           |
|  \\    /   O peration     | Version:  v1612+                                |
|   \\  /    A nd           | Web:      www.OpenFOAM.com                      |
|    \\/     M anipulation  |                                                 |
\*---------------------------------------------------------------------------*/
FoamFile
{
    version     2.0;
    format      ascii;
    class       volVectorField;
    location    "100";
    object      U;
}
// * * * * * * * * * * * * * * * * * * * * * * * * * * * * * * * * * * * * * //

dimensions      [0 1 -1 0 0 0 0];

internalField   nonuniform List<vector> 
17103
(
(0.566579 0.343747 0.400799)
(0.834937 0.417179 0.62472)
(0.835986 0.415028 0.621813)
(0.728267 0.479424 0.55633)
(0.716087 0.489185 0.52666)
(0.813084 0.468005 0.572563)
(0.797552 0.442354 0.625303)
(0.767633 0.462745 0.562682)
(0.819767 0.452516 0.614017)
(0.881065 0.422393 0.472283)
(0.841964 0.468107 0.490551)
(0.865146 0.467303 0.492567)
(0.842982 0.495198 0.51623)
(0.839464 0.490896 0.503887)
(0.859716 0.47482 0.502981)
(0.858868 0.435416 0.473062)
(0.829381 0.496069 0.502084)
(0.784977 0.489463 0.476504)
(0.860818 0.444821 0.477741)
(0.888377 0.446486 0.481567)
(0.764733 0.43326 0.448215)
(0.826353 0.479313 0.491922)
(0.861028 0.467303 0.48986)
(0.800766 0.463957 0.477327)
(0.842877 0.445269 0.482005)
(0.799495 0.504488 0.612702)
(0.793451 0.489544 0.615571)
(0.797831 0.485604 0.628558)
(0.821827 0.48045 0.658385)
(0.800981 0.480507 0.599588)
(0.82531 0.461271 0.640414)
(0.794959 0.465078 0.633644)
(0.793123 0.453539 0.661412)
(0.81015 0.434823 0.634083)
(0.81018 0.427108 0.648087)
(0.832319 0.463341 0.633636)
(0.8195 0.45016 0.63867)
(0.806378 0.430441 0.644384)
(0.798243 0.412716 0.619533)
(0.818254 0.439599 0.632982)
(0.786853 0.409498 0.612572)
(0.822119 0.340832 0.614644)
(0.843116 0.360287 0.661407)
(0.826167 0.354391 0.633508)
(0.834431 0.387109 0.637804)
(0.779245 0.459877 0.608787)
(0.81658 0.443609 0.614838)
(0.834534 0.378793 0.659142)
(0.821353 0.377284 0.638464)
(0.819983 0.419687 0.646124)
(0.825415 0.417491 0.635803)
(0.667827 0.790097 0.452747)
(0.656701 0.776466 0.435942)
(0.657585 0.759151 0.462166)
(0.657342 0.748571 0.44122)
(0.639431 0.741146 0.421518)
(0.643129 0.790465 0.438486)
(0.600771 0.740085 0.452487)
(0.592109 0.721509 0.442509)
(0.670611 0.755177 0.422039)
(0.677355 0.73253 0.426284)
(0.596477 0.71652 0.442122)
(0.646463 0.769121 0.47268)
(0.705746 0.732149 0.422277)
(0.701873 0.742878 0.410479)
(0.617886 0.719665 0.44719)
(0.630872 0.717343 0.43328)
(0.663005 0.732433 0.443135)
(0.591267 0.764178 0.459293)
(0.678823 0.72525 0.439)
(0.659451 0.760374 0.463957)
(0.532829 0.782999 0.525413)
(0.524887 0.820226 0.563468)
(0.640878 0.69713 0.538501)
(0.634951 0.741724 0.556308)
(0.54478 0.80057 0.546265)
(0.586831 0.781555 0.568827)
(0.564279 0.793074 0.530638)
(0.552186 0.776248 0.504115)
(0.629471 0.732756 0.532641)
(0.609392 0.62355 0.475053)
(0.62374 0.710558 0.516204)
(0.62355 0.773173 0.513416)
(0.613951 0.69544 0.474296)
(0.590225 0.723897 0.465337)
(0.602769 0.60097 0.438276)
(0.858471 0.264827 0.509272)
(0.824117 0.232628 0.497913)
(0.817687 0.217965 0.512774)
(0.792661 0.184198 0.511424)
(0.861468 0.30089 0.492645)
(0.860499 0.2319 0.508483)
(0.817656 0.196735 0.523848)
(0.80973 0.322421 0.511952)
(0.798393 0.331093 0.494987)
(0.753131 0.354322 0.482807)
(0.760128 0.311632 0.514218)
(0.749275 0.330599 0.507017)
(0.760635 0.337687 0.504321)
(0.794244 0.21315 0.536407)
(0.800761 0.203648 0.514524)
(0.739092 0.340907 0.519648)
(0.239424 0.169139 0.359401)
(0.225925 0.168183 0.344258)
(0.3371 0.25171 0.474428)
(0.316209 0.253277 0.444087)
(0.349527 0.244472 0.48033)
(0.219352 0.171959 0.333541)
(0.224108 0.155239 0.344523)
(0.25613 0.179444 0.383457)
(0.286086 0.215468 0.401448)
(0.250671 0.214507 0.354951)
(0.272823 0.259501 0.386727)
(0.275794 0.236383 0.410851)
(0.266169 0.272144 0.383321)
(0.255688 0.16262 0.390856)
(0.25911 0.251007 0.367889)
(0.248534 0.227532 0.355925)
(0.286292 0.231136 0.434296)
(0.256041 0.179325 0.397087)
(0.865446 0.441819 0.445618)
(0.866184 0.421196 0.437087)
(0.776834 0.469588 0.449835)
(0.747175 0.443031 0.430585)
(0.794109 0.48009 0.468151)
(0.761125 0.494999 0.451561)
(0.841528 0.471022 0.461436)
(0.842871 0.481277 0.451349)
(0.840629 0.442273 0.449407)
(0.852919 0.46473 0.452802)
(0.807198 0.475041 0.462927)
(0.804663 0.475217 0.464496)
(0.836994 0.482485 0.461018)
(0.839346 0.452372 0.438976)
(0.868038 0.43243 0.44364)
(0.861004 0.440403 0.455501)
(0.808627 0.482778 0.459716)
(0.852675 0.476999 0.44277)
(0.853859 0.443896 0.43652)
(0.854793 0.443779 0.456516)
(0.833632 0.47314 0.455297)
(0.857626 0.454816 0.44378)
(0.339958 0.535233 0.348959)
(0.351728 0.552457 0.363999)
(0.410462 0.616545 0.391838)
(0.425902 0.66036 0.441416)
(0.395258 0.61995 0.402886)
(0.318098 0.516438 0.355062)
(0.308103 0.526 0.339491)
(0.398031 0.650737 0.424789)
(0.437212 0.673238 0.444997)
(0.430436 0.665913 0.454378)
(0.361823 0.560668 0.417022)
(0.380671 0.590629 0.434661)
(0.385445 0.592515 0.443529)
(0.405847 0.639453 0.479791)
(0.346956 0.60446 0.38032)
(0.405025 0.645783 0.450011)
(0.395241 0.666847 0.480188)
(0.355908 0.594997 0.423115)
(0.411347 0.649576 0.479321)
(0.318703 0.573699 0.383137)
(0.299457 0.537571 0.372196)
(0.154385 0.272722 0.261745)
(0.149273 0.245988 0.254706)
(0.146705 0.258215 0.259227)
(0.135815 0.204198 0.245128)
(0.165799 0.319558 0.273696)
(0.148639 0.280755 0.270762)
(0.171509 0.299289 0.278463)
(0.163127 0.254369 0.273514)
(0.154479 0.238825 0.271742)
(0.142882 0.197849 0.252812)
(0.165178 0.321178 0.276155)
(0.167724 0.239715 0.293407)
(0.159951 0.218566 0.285658)
(0.165446 0.241627 0.298026)
(0.173374 0.304451 0.299814)
(0.577466 0.3598 0.339922)
(0.595999 0.38892 0.365739)
(0.521974 0.375885 0.331767)
(0.549582 0.393629 0.347535)
(0.49424 0.397409 0.327267)
(0.487827 0.436701 0.353964)
(0.54874 0.453816 0.379315)
(0.508706 0.434609 0.316145)
(0.510936 0.391313 0.3536)
(0.515806 0.420346 0.345733)
(0.803499 0.362032 0.450454)
(0.836857 0.37094 0.448728)
(0.839324 0.352632 0.453907)
(0.809842 0.278879 0.445084)
(0.816238 0.294795 0.447392)
(0.799685 0.261296 0.442253)
(0.754363 0.407133 0.456845)
(0.754618 0.407945 0.454206)
(0.82995 0.338404 0.461161)
(0.79522 0.310972 0.465815)
(0.789645 0.276536 0.490598)
(0.797911 0.230494 0.468243)
(0.760513 0.35002 0.497337)
(0.790935 0.277482 0.489667)
(0.74407 0.380429 0.485018)
(0.775 0.289484 0.507745)
(0.793392 0.2508 0.495258)
(0.732805 0.370001 0.493282)
(0.393781 0.307066 0.44994)
(0.379686 0.289287 0.449758)
(0.31755 0.258375 0.401992)
(0.329869 0.254322 0.422158)
(0.335291 0.314027 0.381794)
(0.300024 0.259753 0.383693)
(0.301353 0.259965 0.370396)
(0.375108 0.305377 0.446345)
(0.320587 0.307358 0.394273)
(0.308907 0.326669 0.331319)
(0.185433 0.329836 0.320399)
(0.190623 0.322967 0.34655)
(0.183795 0.393325 0.323988)
(0.178874 0.419914 0.306545)
(0.185894 0.441552 0.332112)
(0.179861 0.449801 0.31386)
(0.194907 0.320293 0.351218)
(0.177405 0.337402 0.309633)
(0.177318 0.305685 0.316577)
(0.159655 0.37295 0.314007)
(0.168704 0.37479 0.298827)
(0.168646 0.440296 0.298748)
(0.187028 0.413036 0.350398)
(0.180315 0.443279 0.343999)
(0.198198 0.339658 0.36084)
(0.169681 0.34411 0.317746)
(0.16462 0.408101 0.311734)
(0.162429 0.438321 0.313862)
(0.186287 0.348737 0.341874)
(0.169607 0.414358 0.32593)
(0.364869 0.394447 0.462761)
(0.317094 0.376928 0.442574)
(0.323607 0.249425 0.457562)
(0.335988 0.225875 0.458932)
(0.322646 0.407558 0.445778)
(0.272946 0.418089 0.399895)
(0.275487 0.365973 0.417841)
(0.245331 0.349965 0.402585)
(0.288975 0.257616 0.456327)
(0.334638 0.290609 0.471775)
(0.272488 0.361284 0.433336)
(0.332487 0.340426 0.475108)
(0.368244 0.358053 0.480954)
(0.282353 0.225149 0.417489)
(0.314446 0.219159 0.443405)
(0.375235 0.239478 0.477522)
(0.401281 0.36894 0.482358)
(0.253051 0.304504 0.425132)
(0.365701 0.314749 0.485318)
(0.264475 0.303279 0.422983)
(0.793946 0.540546 0.499561)
(0.786901 0.528167 0.481458)
(0.766691 0.507434 0.479967)
(0.788483 0.569514 0.522377)
(0.770519 0.530308 0.509503)
(0.793156 0.555044 0.532212)
(0.79392 0.565395 0.528982)
(0.808643 0.557373 0.501381)
(0.792957 0.534878 0.500391)
(0.780956 0.57228 0.501014)
(0.793768 0.55287 0.526939)
(0.791995 0.556617 0.520179)
(0.782407 0.572289 0.508779)
(0.616228 0.35045 0.385981)
(0.714593 0.352734 0.42047)
(0.739661 0.347309 0.439624)
(0.680803 0.338282 0.421888)
(0.662944 0.356506 0.40407)
(0.744062 0.355213 0.435564)
(0.704841 0.350532 0.416026)
(0.603072 0.357979 0.37887)
(0.601618 0.359863 0.394436)
(0.570757 0.360493 0.383216)
(0.69133 0.361051 0.413179)
(0.668566 0.389738 0.397084)
(0.675673 0.396971 0.408877)
(0.550096 0.360394 0.361802)
(0.591146 0.353342 0.393702)
(0.649735 0.356622 0.384538)
(0.605059 0.368622 0.370437)
(0.585208 0.374058 0.37031)
(0.536078 0.366026 0.362765)
(0.547858 0.363554 0.369182)
(0.684371 0.382337 0.409531)
(0.373446 0.245332 0.429769)
(0.346737 0.212964 0.415885)
(0.387656 0.274549 0.450514)
(0.368815 0.255104 0.438643)
(0.354029 0.396889 0.445682)
(0.30682 0.200041 0.40078)
(0.356978 0.357621 0.456514)
(0.359739 0.259805 0.456882)
(0.3171 0.208189 0.419177)
(0.296112 0.175264 0.388954)
(0.258512 0.20898 0.379211)
(0.2648 0.176017 0.360109)
(0.296341 0.223794 0.423027)
(0.233195 0.241459 0.383245)
(0.294865 0.307558 0.429492)
(0.233713 0.31729 0.394787)
(0.744998 0.4863 0.645692)
(0.718054 0.440337 0.625222)
(0.761481 0.512002 0.658358)
(0.741832 0.473058 0.64926)
(0.74686 0.50341 0.652375)
(0.754706 0.462088 0.632082)
(0.744395 0.488053 0.634887)
(0.747105 0.449559 0.612758)
(0.707577 0.40343 0.607186)
(0.767716 0.513236 0.647118)
(0.759676 0.491725 0.654371)
(0.750399 0.444927 0.628501)
(0.278177 0.720066 0.396023)
(0.236069 0.691423 0.415321)
(0.300806 0.718249 0.415484)
(0.230675 0.670957 0.403085)
(0.271499 0.722837 0.408901)
(0.361213 0.753705 0.480238)
(0.396406 0.769427 0.495496)
(0.351802 0.776009 0.474604)
(0.324904 0.744247 0.517731)
(0.358341 0.767231 0.499218)
(0.378978 0.773622 0.482853)
(0.292813 0.726386 0.495013)
(0.384334 0.784427 0.482456)
(0.268902 0.700491 0.454214)
(0.299741 0.710323 0.518149)
(0.227332 0.684906 0.451042)
(0.233836 0.673434 0.466646)
(0.356575 0.69443 0.508834)
(0.548863 0.71026 0.490692)
(0.526589 0.742166 0.49626)
(0.549654 0.717818 0.521948)
(0.530637 0.790401 0.578547)
(0.577051 0.793716 0.62328)
(0.577004 0.752267 0.586967)
(0.426286 0.724973 0.511625)
(0.457419 0.729127 0.543494)
(0.434747 0.738704 0.557506)
(0.359439 0.693173 0.50103)
(0.480421 0.76368 0.526749)
(0.552195 0.729103 0.538342)
(0.396701 0.718867 0.502824)
(0.41499 0.716873 0.48308)
(0.516525 0.722119 0.493169)
(0.446543 0.723126 0.489736)
(0.309935 0.20375 0.192606)
(0.254858 0.172944 0.174975)
(0.338625 0.263384 0.235024)
(0.2834 0.228824 0.232012)
(0.309108 0.234666 0.221333)
(0.271863 0.163534 0.164472)
(0.229667 0.14702 0.154828)
(0.310529 0.238374 0.225199)
(0.28656 0.201599 0.206223)
(0.240754 0.172606 0.196991)
(0.227102 0.152046 0.179876)
(0.266607 0.206122 0.221008)
(0.227025 0.155602 0.173658)
(0.215736 0.139039 0.154505)
(0.292531 0.234542 0.231219)
(0.229345 0.373816 0.260197)
(0.202813 0.3213 0.238426)
(0.19501 0.294422 0.27738)
(0.195014 0.312294 0.27128)
(0.173723 0.269932 0.258318)
(0.171355 0.228696 0.268261)
(0.151555 0.209991 0.245832)
(0.167546 0.251028 0.247815)
(0.159321 0.223486 0.244478)
(0.173768 0.264115 0.242013)
(0.221484 0.341789 0.262924)
(0.200455 0.305257 0.243753)
(0.16746 0.243106 0.2433)
(0.158045 0.223975 0.234234)
(0.202791 0.36396 0.275892)
(0.208821 0.358979 0.280514)
(0.196085 0.310583 0.287948)
(0.162224 0.22136 0.24767)
(0.154417 0.206319 0.239284)
(0.205562 0.346181 0.29041)
(0.204037 0.31492 0.286517)
(0.180485 0.244636 0.273174)
(0.815537 0.484937 0.673453)
(0.815468 0.482113 0.670725)
(0.781406 0.513083 0.661589)
(0.819595 0.483307 0.654664)
(0.787831 0.386395 0.661216)
(0.802785 0.424213 0.686695)
(0.791174 0.370679 0.665788)
(0.780173 0.339452 0.644138)
(0.788799 0.506975 0.68886)
(0.808017 0.47643 0.664202)
(0.774109 0.36679 0.635355)
(0.816085 0.442612 0.686723)
(0.779449 0.366274 0.643401)
(0.791724 0.397688 0.666185)
(0.790954 0.452901 0.67865)
(0.657929 0.630902 0.608313)
(0.64516 0.709473 0.633907)
(0.667069 0.611952 0.612408)
(0.668738 0.674741 0.635637)
(0.675525 0.704528 0.646293)
(0.645441 0.692159 0.62995)
(0.64686 0.626209 0.605853)
(0.636018 0.743614 0.635406)
(0.649104 0.708015 0.621692)
(0.624811 0.711793 0.618908)
(0.608779 0.734934 0.630819)
(0.650984 0.580238 0.582237)
(0.660217 0.65959 0.599689)
(0.658614 0.581314 0.553159)
(0.636248 0.66738 0.617205)
(0.565417 0.749123 0.623204)
(0.627689 0.733945 0.620714)
(0.629474 0.726797 0.628553)
(0.622491 0.696286 0.592026)
(0.591735 0.752123 0.623261)
(0.502802 0.777593 0.615882)
(0.635358 0.734934 0.641338)
(0.733727 0.553086 0.622788)
(0.74618 0.557389 0.605766)
(0.742982 0.517043 0.606326)
(0.737189 0.439783 0.575907)
(0.732128 0.580315 0.607966)
(0.728201 0.566017 0.604815)
(0.733392 0.46232 0.609136)
(0.70927 0.398776 0.586384)
(0.741208 0.487457 0.585127)
(0.728566 0.471546 0.582246)
(0.709238 0.38916 0.538262)
(0.751197 0.512999 0.630815)
(0.725672 0.48358 0.62307)
(0.733286 0.566302 0.622867)
(0.739954 0.543114 0.601001)
(0.718935 0.552761 0.593843)
(0.680164 0.546084 0.562432)
(0.689186 0.526677 0.591824)
(0.578599 0.544078 0.497941)
(0.631755 0.557342 0.515258)
(0.722166 0.539957 0.604283)
(0.651733 0.586343 0.532246)
(0.601361 0.566517 0.508734)
(0.595476 0.581278 0.521561)
(0.690126 0.549625 0.594435)
(0.746106 0.531309 0.608339)
(0.743803 0.548302 0.5774)
(0.707855 0.55724 0.551374)
(0.599274 0.573822 0.516296)
(0.620587 0.556267 0.496681)
(0.763762 0.525282 0.595388)
(0.728702 0.553126 0.56556)
(0.644227 0.560951 0.543544)
(0.856969 0.344493 0.463567)
(0.863069 0.328531 0.471951)
(0.767974 0.351459 0.473919)
(0.821199 0.343133 0.483728)
(0.704613 0.39179 0.450012)
(0.739177 0.413345 0.456343)
(0.83963 0.354805 0.466311)
(0.756817 0.404305 0.461923)
(0.688792 0.404913 0.432371)
(0.687378 0.41226 0.450973)
(0.680451 0.426282 0.42715)
(0.704816 0.40949 0.451648)
(0.750746 0.37141 0.45102)
(0.75329 0.377239 0.441992)
(0.799642 0.405115 0.461396)
(0.691921 0.388299 0.418079)
(0.817025 0.380852 0.465364)
(0.768081 0.422998 0.445681)
(0.424798 0.615802 0.359285)
(0.401985 0.573392 0.365951)
(0.320537 0.536358 0.33411)
(0.349501 0.563736 0.347458)
(0.391471 0.580278 0.35198)
(0.407905 0.534863 0.366035)
(0.392157 0.513448 0.346961)
(0.389794 0.589619 0.345077)
(0.531826 0.629347 0.386326)
(0.571125 0.601078 0.394577)
(0.452646 0.54223 0.387396)
(0.505159 0.597119 0.370184)
(0.553077 0.582492 0.391089)
(0.577293 0.598146 0.386519)
(0.481245 0.552375 0.368999)
(0.522537 0.572001 0.388828)
(0.454644 0.577252 0.375626)
(0.223688 0.573361 0.384054)
(0.209493 0.605402 0.379509)
(0.192386 0.600478 0.380772)
(0.184959 0.599196 0.376138)
(0.213053 0.594232 0.394162)
(0.213904 0.581271 0.385484)
(0.165163 0.601755 0.406643)
(0.23395 0.64288 0.420628)
(0.218001 0.615022 0.423057)
(0.20426 0.634387 0.428671)
(0.209231 0.640679 0.445804)
(0.395489 0.660778 0.408392)
(0.362979 0.553964 0.359523)
(0.360136 0.646686 0.406971)
(0.343495 0.606554 0.359663)
(0.343664 0.57972 0.378223)
(0.299952 0.586271 0.425484)
(0.401262 0.692007 0.408445)
(0.361254 0.668382 0.41121)
(0.294318 0.564979 0.376242)
(0.278782 0.585954 0.360616)
(0.281856 0.58666 0.354406)
(0.261219 0.561511 0.347878)
(0.339659 0.61041 0.375097)
(0.300923 0.608522 0.380268)
(0.380318 0.671386 0.387481)
(0.697444 0.527693 0.56275)
(0.708456 0.525101 0.57847)
(0.792872 0.453106 0.6798)
(0.808221 0.450643 0.685141)
(0.802572 0.494351 0.643165)
(0.786625 0.457071 0.636234)
(0.786391 0.500355 0.618225)
(0.777838 0.513021 0.649182)
(0.759144 0.503824 0.618467)
(0.782525 0.483354 0.654653)
(0.756384 0.492142 0.614922)
(0.795369 0.454791 0.660885)
(0.753199 0.527489 0.608667)
(0.783901 0.522534 0.599195)
(0.74365 0.538624 0.597218)
(0.842188 0.331837 0.469986)
(0.778738 0.323048 0.478231)
(0.815616 0.342996 0.449233)
(0.713302 0.346763 0.419392)
(0.791106 0.309864 0.485426)
(0.86482 0.360143 0.46399)
(0.76814 0.370154 0.433017)
(0.824816 0.308641 0.487437)
(0.886191 0.29569 0.500375)
(0.855878 0.35825 0.463209)
(0.871219 0.36526 0.453138)
(0.668192 0.350421 0.396825)
(0.766025 0.361939 0.417292)
(0.802927 0.336524 0.462756)
(0.882353 0.329995 0.465582)
(0.809087 0.344302 0.442411)
(0.856205 0.297018 0.494361)
(0.899716 0.319116 0.490111)
(0.635112 0.515258 0.497514)
(0.626176 0.503608 0.482178)
(0.728424 0.491136 0.52701)
(0.711684 0.481599 0.506711)
(0.714832 0.470767 0.488777)
(0.754475 0.492051 0.514994)
(0.669467 0.490798 0.492401)
(0.658169 0.483857 0.468722)
(0.671861 0.502891 0.515921)
(0.601373 0.490675 0.440543)
(0.667319 0.511256 0.526485)
(0.706645 0.499949 0.537399)
(0.586508 0.475855 0.438075)
(0.586731 0.473583 0.419765)
(0.579624 0.477287 0.425966)
(0.570004 0.492418 0.431229)
(0.662088 0.48631 0.507634)
(0.610517 0.441472 0.401945)
(0.699537 0.484097 0.486846)
(0.652625 0.494003 0.495764)
(0.64459 0.496802 0.499947)
(0.585229 0.466728 0.422548)
(0.681698 0.493529 0.51225)
(0.572821 0.790098 0.592145)
(0.534448 0.825797 0.617589)
(0.573748 0.791033 0.588346)
(0.6084 0.705299 0.54683)
(0.523127 0.814583 0.527623)
(0.515206 0.817009 0.52428)
(0.577689 0.785905 0.598274)
(0.613988 0.758562 0.512673)
(0.584792 0.754789 0.492754)
(0.59997 0.752831 0.552888)
(0.497211 0.806146 0.55414)
(0.463471 0.8265 0.553234)
(0.490393 0.827597 0.600178)
(0.461127 0.818646 0.602312)
(0.614586 0.741492 0.552538)
(0.609899 0.70207 0.525309)
(0.596478 0.745691 0.526747)
(0.601492 0.771929 0.539025)
(0.59695 0.710266 0.517685)
(0.583276 0.759366 0.549467)
(0.542788 0.80857 0.592932)
(0.476292 0.826101 0.558655)
(0.478245 0.840904 0.544737)
(0.493654 0.808138 0.574767)
(0.470272 0.833575 0.594008)
(0.459089 0.794396 0.577074)
(0.505111 0.831722 0.552574)
(0.589881 0.846453 0.588256)
(0.607439 0.517472 0.487465)
(0.578014 0.489869 0.442973)
(0.685551 0.498637 0.52322)
(0.592892 0.536232 0.499283)
(0.607123 0.512923 0.501662)
(0.566695 0.490769 0.435251)
(0.535692 0.494135 0.430153)
(0.632011 0.509361 0.506116)
(0.651828 0.513744 0.507074)
(0.552297 0.500116 0.428525)
(0.643447 0.52034 0.506847)
(0.520696 0.456871 0.378738)
(0.555245 0.463521 0.409106)
(0.71913 0.282696 0.527728)
(0.713522 0.278665 0.552839)
(0.769025 0.328395 0.497425)
(0.810681 0.293509 0.51596)
(0.6675 0.345963 0.453095)
(0.800774 0.236323 0.551628)
(0.771193 0.269088 0.539379)
(0.799256 0.311072 0.495446)
(0.734763 0.347807 0.457141)
(0.810413 0.324582 0.48419)
(0.826535 0.292831 0.515277)
(0.803458 0.247314 0.543457)
(0.800249 0.30583 0.495908)
(0.862065 0.297428 0.514379)
(0.788845 0.326774 0.500148)
(0.838402 0.265542 0.532425)
(0.791033 0.28236 0.519405)
(0.807278 0.292548 0.504947)
(0.489764 0.536168 0.456868)
(0.538457 0.571967 0.494685)
(0.436554 0.534294 0.441388)
(0.434138 0.491905 0.40767)
(0.44861 0.522919 0.438575)
(0.509844 0.577572 0.505781)
(0.470612 0.593912 0.492072)
(0.537085 0.643232 0.499068)
(0.554719 0.567014 0.457596)
(0.638709 0.63161 0.484856)
(0.655265 0.660555 0.513444)
(0.515767 0.560284 0.452318)
(0.543232 0.614227 0.491303)
(0.511063 0.594828 0.501313)
(0.695835 0.675542 0.553539)
(0.652729 0.665908 0.517139)
(0.692097 0.667521 0.547167)
(0.620989 0.65263 0.543)
(0.507102 0.512141 0.420212)
(0.627509 0.629678 0.47562)
(0.583596 0.612175 0.475911)
(0.588216 0.635904 0.518767)
(0.875791 0.458493 0.567017)
(0.871634 0.447075 0.554606)
(0.882797 0.451155 0.528964)
(0.788145 0.475162 0.518455)
(0.822894 0.456427 0.532386)
(0.870314 0.453637 0.54754)
(0.87136 0.464206 0.569161)
(0.847469 0.460132 0.503511)
(0.871125 0.453362 0.529027)
(0.518562 0.826799 0.508207)
(0.540879 0.826045 0.524013)
(0.491495 0.783391 0.509599)
(0.485864 0.795303 0.510569)
(0.408267 0.670819 0.47329)
(0.362829 0.654858 0.471589)
(0.529285 0.801313 0.497142)
(0.521583 0.761974 0.468108)
(0.494191 0.776475 0.512083)
(0.409481 0.697718 0.469473)
(0.393096 0.663595 0.485485)
(0.340102 0.617548 0.445671)
(0.376523 0.631211 0.425949)
(0.43504 0.705801 0.446226)
(0.519568 0.791809 0.506903)
(0.459855 0.685692 0.447764)
(0.473923 0.661425 0.430966)
(0.405436 0.654989 0.453174)
(0.626538 0.355981 0.478097)
(0.608871 0.294759 0.46543)
(0.676102 0.343028 0.453824)
(0.661419 0.272994 0.431753)
(0.630786 0.27408 0.45846)
(0.572837 0.432264 0.479116)
(0.638212 0.419172 0.496305)
(0.635304 0.443579 0.465858)
(0.705567 0.403657 0.463842)
(0.682437 0.342492 0.452106)
(0.561752 0.376426 0.504577)
(0.602775 0.315835 0.497821)
(0.611742 0.251171 0.486131)
(0.626011 0.230721 0.462793)
(0.633915 0.316591 0.492187)
(0.628252 0.273582 0.479294)
(0.602423 0.412213 0.496607)
(0.704715 0.348549 0.460609)
(0.67409 0.346114 0.492482)
(0.614751 0.412377 0.484557)
(0.612068 0.475925 0.469715)
(0.591996 0.426594 0.482066)
(0.813994 0.449929 0.430423)
(0.614693 0.462829 0.373813)
(0.589327 0.468142 0.367737)
(0.6073 0.468799 0.406373)
(0.647641 0.505573 0.423913)
(0.769117 0.448696 0.444581)
(0.799079 0.475134 0.415964)
(0.683778 0.445947 0.397186)
(0.766466 0.466008 0.431605)
(0.613116 0.453224 0.386604)
(0.678666 0.498806 0.412938)
(0.711508 0.515783 0.433003)
(0.657492 0.502087 0.404593)
(0.799851 0.448345 0.426837)
(0.811546 0.470776 0.423185)
(0.694959 0.454645 0.460629)
(0.756201 0.449854 0.448552)
(0.61925 0.455889 0.425065)
(0.701595 0.473258 0.44469)
(0.74693 0.499351 0.42599)
(0.745932 0.518601 0.431068)
(0.766256 0.517777 0.445944)
(0.7278 0.504827 0.430554)
(0.833785 0.392674 0.601916)
(0.834262 0.427297 0.634294)
(0.805476 0.370709 0.544511)
(0.764228 0.469769 0.518574)
(0.791862 0.386935 0.517473)
(0.776464 0.481249 0.581742)
(0.456814 0.356894 0.48311)
(0.455569 0.384707 0.472123)
(0.54747 0.364212 0.482499)
(0.511351 0.364971 0.474928)
(0.46964 0.384411 0.483134)
(0.499561 0.325938 0.5381)
(0.626817 0.307742 0.555223)
(0.584108 0.28343 0.574891)
(0.564495 0.233552 0.59234)
(0.517951 0.294819 0.541581)
(0.54296 0.251529 0.576356)
(0.575436 0.229613 0.585204)
(0.560125 0.319743 0.550161)
(0.592871 0.289076 0.570716)
(0.496055 0.283893 0.548594)
(0.493069 0.265854 0.557974)
(0.552286 0.247763 0.579015)
(0.781644 0.582077 0.457758)
(0.791192 0.552702 0.43001)
(0.8069 0.546305 0.435931)
(0.784574 0.559536 0.448092)
(0.775787 0.593043 0.466315)
(0.781418 0.593301 0.448399)
(0.779561 0.577076 0.437973)
(0.775167 0.592196 0.448225)
(0.78004 0.581252 0.429223)
(0.761988 0.599706 0.461013)
(0.725099 0.604874 0.458822)
(0.726323 0.596588 0.447209)
(0.751679 0.592903 0.458245)
(0.790591 0.574192 0.469718)
(0.77184 0.572793 0.467358)
(0.795563 0.555659 0.440612)
(0.376669 0.412791 0.294066)
(0.391783 0.386375 0.290487)
(0.40338 0.40514 0.298609)
(0.383989 0.45685 0.305069)
(0.430854 0.466628 0.312676)
(0.388232 0.507347 0.340831)
(0.387703 0.509255 0.342325)
(0.506324 0.501008 0.360652)
(0.480687 0.479455 0.338289)
(0.50185 0.621464 0.437559)
(0.404493 0.537888 0.374639)
(0.473718 0.56737 0.384052)
(0.438747 0.502835 0.351098)
(0.484423 0.587344 0.421805)
(0.499334 0.531331 0.373399)
(0.50774 0.53992 0.368429)
(0.609764 0.32933 0.426509)
(0.584917 0.329855 0.467982)
(0.635867 0.342257 0.517637)
(0.690895 0.295859 0.524088)
(0.711504 0.269835 0.573654)
(0.564105 0.31483 0.422164)
(0.551527 0.325979 0.467546)
(0.665709 0.26975 0.572012)
(0.634234 0.295675 0.533318)
(0.558103 0.311662 0.560865)
(0.629906 0.270599 0.587577)
(0.893706 0.270347 0.505936)
(0.889919 0.237912 0.495365)
(0.898407 0.310679 0.462066)
(0.908738 0.312304 0.473634)
(0.852459 0.311041 0.498352)
(0.887327 0.241984 0.489952)
(0.884284 0.215926 0.466719)
(0.869896 0.341319 0.472848)
(0.878657 0.30855 0.498186)
(0.904408 0.281844 0.483972)
(0.907147 0.280263 0.464515)
(0.880533 0.255149 0.456037)
(0.850095 0.341596 0.47186)
(0.854993 0.340819 0.486001)
(0.841611 0.353122 0.466451)
(0.890818 0.312922 0.470436)
(0.861104 0.316979 0.49387)
(0.831538 0.301613 0.50145)
(0.903458 0.295992 0.47348)
(0.886663 0.265349 0.494515)
(0.890308 0.249763 0.466011)
(0.901552 0.272643 0.472653)
(0.274239 0.274002 0.276507)
(0.257773 0.249763 0.277247)
(0.194633 0.173517 0.261304)
(0.184982 0.145391 0.24073)
(0.203207 0.16624 0.274488)
(0.190344 0.150693 0.251565)
(0.219926 0.167994 0.319321)
(0.226751 0.180163 0.330632)
(0.25251 0.222184 0.322127)
(0.253352 0.234081 0.338513)
(0.264426 0.256528 0.278878)
(0.255579 0.270904 0.30628)
(0.26247 0.269544 0.290057)
(0.255277 0.282283 0.300514)
(0.248573 0.261771 0.317595)
(0.24964 0.262434 0.293394)
(0.206786 0.168284 0.246793)
(0.204814 0.192578 0.280137)
(0.217998 0.171982 0.30121)
(0.246333 0.209268 0.34787)
(0.230359 0.213349 0.297146)
(0.25005 0.236704 0.341433)
(0.761414 0.491137 0.66273)
(0.771905 0.528126 0.650711)
(0.804708 0.584827 0.644019)
(0.776751 0.52095 0.645865)
(0.77186 0.489458 0.639774)
(0.799638 0.513642 0.673179)
(0.802448 0.480447 0.657568)
(0.783234 0.535022 0.624789)
(0.736412 0.552893 0.59333)
(0.747776 0.554602 0.60634)
(0.773992 0.545666 0.606937)
(0.775034 0.522386 0.635581)
(0.768905 0.482985 0.638927)
(0.80681 0.479814 0.656496)
(0.618874 0.466283 0.407526)
(0.559133 0.388279 0.347673)
(0.57064 0.511866 0.394894)
(0.599011 0.525515 0.424214)
(0.589688 0.435541 0.376589)
(0.535248 0.400583 0.335719)
(0.618199 0.448401 0.404413)
(0.656471 0.492464 0.444745)
(0.631411 0.575242 0.469953)
(0.56625 0.541021 0.408729)
(0.550297 0.460265 0.355467)
(0.541114 0.431881 0.34166)
(0.512992 0.382838 0.322985)
(0.529384 0.448702 0.340204)
(0.510661 0.388578 0.320639)
(0.523954 0.419145 0.324787)
(0.631291 0.573156 0.468755)
(0.600394 0.507337 0.405732)
(0.513917 0.441276 0.312367)
(0.523428 0.426002 0.325204)
(0.566965 0.526697 0.398913)
(0.313238 0.142983 0.391739)
(0.274379 0.130709 0.31992)
(0.329025 0.164501 0.403647)
(0.302084 0.147643 0.365119)
(0.322227 0.157424 0.406443)
(0.29571 0.163346 0.352873)
(0.286885 0.147114 0.370536)
(0.270457 0.144548 0.332841)
(0.259763 0.151602 0.32304)
(0.259592 0.135661 0.3039)
(0.332326 0.19091 0.397426)
(0.351624 0.194036 0.43079)
(0.265754 0.147464 0.314743)
(0.267591 0.157031 0.326207)
(0.283803 0.162004 0.371639)
(0.354425 0.204926 0.443661)
(0.303607 0.193977 0.374101)
(0.356806 0.652155 0.376928)
(0.318408 0.644738 0.377858)
(0.294771 0.495916 0.285703)
(0.29532 0.497657 0.288969)
(0.289412 0.466243 0.288864)
(0.30415 0.47265 0.282748)
(0.278731 0.53634 0.313778)
(0.27432 0.52782 0.31212)
(0.350226 0.641623 0.353602)
(0.391627 0.65305 0.390863)
(0.32133 0.642551 0.379746)
(0.320997 0.52341 0.297208)
(0.298992 0.48111 0.290701)
(0.323198 0.505306 0.295098)
(0.439603 0.66232 0.373368)
(0.40778 0.653685 0.366087)
(0.452533 0.663814 0.389717)
(0.436609 0.599793 0.346148)
(0.778733 0.306731 0.559821)
(0.801963 0.327703 0.577954)
(0.815319 0.367459 0.608922)
(0.808833 0.341261 0.583998)
(0.803225 0.324636 0.607383)
(0.79642 0.301584 0.590366)
(0.797171 0.29526 0.568436)
(0.771818 0.2726 0.551484)
(0.795201 0.410463 0.598989)
(0.795058 0.413093 0.583491)
(0.799869 0.314551 0.604621)
(0.811063 0.354416 0.626313)
(0.799284 0.4011 0.573489)
(0.817384 0.460687 0.653339)
(0.794807 0.472081 0.641236)
(0.819789 0.434181 0.62876)
(0.818552 0.333713 0.59656)
(0.257482 0.274235 0.346599)
(0.246228 0.257355 0.319441)
(0.236125 0.239862 0.315668)
(0.255616 0.272699 0.297942)
(0.231239 0.225995 0.305808)
(0.25183 0.289528 0.298412)
(0.277343 0.315143 0.343091)
(0.293368 0.3342 0.339511)
(0.286714 0.313366 0.348972)
(0.274998 0.324923 0.311508)
(0.28978 0.346947 0.309271)
(0.288809 0.325215 0.329331)
(0.535472 0.634207 0.425831)
(0.598752 0.612003 0.415484)
(0.583059 0.596848 0.416023)
(0.583556 0.64925 0.418463)
(0.68428 0.665305 0.429664)
(0.630484 0.62977 0.422958)
(0.656744 0.705145 0.43531)
(0.686371 0.683212 0.437252)
(0.614956 0.716329 0.448463)
(0.625555 0.71961 0.447519)
(0.576482 0.612557 0.428058)
(0.561686 0.625211 0.433499)
(0.643004 0.726734 0.459829)
(0.628449 0.707925 0.451532)
(0.649285 0.638386 0.4422)
(0.681493 0.693163 0.436394)
(0.644548 0.684884 0.456456)
(0.670508 0.688474 0.454737)
(0.427447 0.295515 0.526237)
(0.438077 0.248959 0.554477)
(0.410482 0.264514 0.536178)
(0.428506 0.184722 0.569624)
(0.420042 0.200805 0.528496)
(0.455172 0.185344 0.553276)
(0.570608 0.286883 0.558818)
(0.466271 0.154388 0.542082)
(0.468555 0.159392 0.561096)
(0.428673 0.295342 0.535156)
(0.550698 0.310886 0.553093)
(0.559869 0.195199 0.576144)
(0.525552 0.179801 0.581676)
(0.405285 0.172247 0.175499)
(0.502412 0.224249 0.228808)
(0.698483 0.588259 0.416952)
(0.659977 0.566924 0.40115)
(0.737842 0.525754 0.439454)
(0.69137 0.581156 0.414913)
(0.726373 0.571616 0.429671)
(0.651309 0.544088 0.406185)
(0.506481 0.503908 0.380614)
(0.720399 0.51853 0.426842)
(0.692692 0.507045 0.405262)
(0.589691 0.554674 0.423599)
(0.585347 0.537443 0.416224)
(0.564685 0.517305 0.391833)
(0.594558 0.558127 0.411924)
(0.557076 0.501243 0.367907)
(0.525662 0.498519 0.383802)
(0.704695 0.550453 0.422844)
(0.554153 0.122899 0.590505)
(0.527191 0.0951567 0.557951)
(0.568835 0.221556 0.582243)
(0.626103 0.230787 0.599266)
(0.651659 0.214663 0.611641)
(0.562664 0.184957 0.596119)
(0.636848 0.12706 0.602299)
(0.577831 0.222 0.57963)
(0.619394 0.23508 0.60384)
(0.559089 0.203934 0.584309)
(0.659273 0.199778 0.61389)
(0.549907 0.133411 0.59561)
(0.55673 0.0862222 0.546881)
(0.655962 0.205357 0.611365)
(0.617156 0.190098 0.604707)
(0.587123 0.198401 0.595006)
(0.621982 0.103477 0.580053)
(0.610117 0.101349 0.572995)
(0.666601 0.184659 0.60747)
(0.553938 0.133733 0.596779)
(0.60433 0.118659 0.591562)
(0.638802 0.118218 0.585982)
(0.628291 0.109684 0.583788)
(0.757299 0.138766 0.532358)
(0.758538 0.13062 0.565014)
(0.722786 0.102585 0.571302)
(0.156999 0.19393 0.269334)
(0.148347 0.193709 0.260504)
(0.674106 0.701594 0.317564)