/*--------------------------------*- C++ -*----------------------------------*\
| =========                 |                                                 |
| \\      /  F ield         | OpenFOAM: The Open Source CFD Toolbox           |
|  \\    /   O peration     | Version:  v1612+                                |
|   \\  /    A nd           | Web:      www.OpenFOAM.com                      |
|    \\/     M anipulation  |                                                 |
\*---------------------------------------------------------------------------*/
FoamFile
{
    version     2.0;
    format      ascii;
    class       volVectorField;
    location    "50";
    object      U;
}
// * * * * * * * * * * * * * * * * * * * * * * * * * * * * * * * * * * * * * //

dimensions      [0 1 -1 0 0 0 0];

internalField   nonuniform List<vector> 
17111
(
(0.215638 0.547882 -0.00621292)
(0.454283 1.07154 0.0199143)
(0.457236 1.08494 0.00678873)
(0.420895 0.982196 0.00693156)
(0.471259 1.10812 0.00565483)
(0.466023 1.09542 -0.00272896)
(0.401309 0.955189 0.0107173)
(0.420649 0.971262 0.00770121)
(0.396593 0.921886 0.00660324)
(0.384063 0.907885 0.00699236)
(0.419741 0.979812 0.000979832)
(0.427837 1.00275 -0.00347199)
(0.424195 1.00694 0.00427992)
(0.327017 0.800803 0.00192543)
(0.318013 0.792718 0.00765608)
(0.325643 0.778424 0.0102249)
(0.316446 0.775384 0.0070085)
(0.321796 0.781405 0.00922852)
(0.251882 0.628706 0.00905597)
(0.239705 0.604754 0.0104908)
(0.257424 0.660612 0.00480509)
(0.261825 0.63557 0.00663627)
(0.252025 0.630973 0.00844732)
(0.228643 0.572734 0.00459113)
(0.208472 0.518362 0.00997051)
(0.234692 0.5929 0.00956887)
(0.237557 0.597932 0.00225047)
(0.208316 0.525397 0.00377381)
(0.221061 0.557604 0.00950598)
(0.214608 0.514018 -0.0111185)
(0.242652 0.586028 -0.000368741)
(0.209111 0.509904 -0.00394656)
(0.195184 0.459569 -0.00865316)
(0.290029 0.730336 0.00724334)
(0.285403 0.711648 0.00136504)
(0.289778 0.708296 0.00291446)
(0.285174 0.696539 -0.000470911)
(0.23066 0.553602 -0.0123943)
(0.252995 0.606274 -0.00554644)
(0.261248 0.640615 0.00547733)
(0.284191 0.695676 0.000307476)
(0.309533 0.746093 0.0027364)
(0.241446 0.581105 0.00160137)
(0.22649 0.546327 -0.00499694)
(0.21694 0.54783 0.00123861)
(0.16906 0.432968 -0.00494372)
(0.209844 0.526429 -0.00194549)
(0.204738 0.509251 -0.00152086)
(0.246924 0.601902 0.000829616)
(0.324726 0.818012 -0.000403009)
(0.306888 0.76242 0.00539277)
(0.335339 0.838391 0.00100035)
(0.36105 0.89692 -0.00280907)
(0.311847 0.784595 0.00693088)
(0.343374 0.869343 0.00558531)
(0.311102 0.780759 0.00347139)
(0.422372 1.05795 0.00622437)
(0.371644 0.921512 -0.0006728)
(0.409549 1.01273 0.00650348)
(0.405372 0.981772 0.00610887)
(0.34311 0.855241 0.00367567)
(0.372618 0.916113 0.00219973)
(0.331355 0.80997 0.0073927)
(0.283591 0.732587 0.00842805)
(0.342386 0.867615 0.00492988)
(0.279271 0.671559 -0.00344078)
(0.287232 0.684096 -0.00227644)
(0.391079 0.917924 0.00305715)
(0.31893 0.729356 0.000202355)
(0.299337 0.697757 -0.0019971)
(0.299312 0.69338 -0.000771586)
(0.307102 0.707002 -0.00514208)
(0.361865 0.834565 0.00516712)
(0.361014 0.841638 0.00592562)
(0.307154 0.713029 -0.000279402)
(0.543777 1.26105 0.000607768)
(0.540247 1.27215 0.00364241)
(0.54029 1.25439 0.000932632)
(0.534116 1.2456 0.00645327)
(0.49959 1.16756 0.00101688)
(0.500521 1.17716 0.00766746)
(0.476694 1.13747 0.00330904)
(0.545395 1.26787 0.00365362)
(0.524925 1.22546 0.00682579)
(0.525803 1.23425 -0.0031033)
(0.525926 1.23356 0.00492035)
(0.494819 1.16696 0.00746472)
(0.514619 1.2075 -0.00190918)
(0.531809 1.24059 -0.00551103)
(0.45633 1.09074 0.0120607)
(0.485534 1.14133 0.00421281)
(0.512352 1.20608 0.00659245)
(0.508405 1.19994 0.00482438)
(0.509671 1.20676 0.0130475)
(0.502639 1.18444 0.0124322)
(0.50535 1.19156 0.0106038)
(0.48521 1.12724 -0.0097837)
(0.502842 1.18063 -0.00792135)
(0.492042 1.17426 -0.0131757)
(0.517591 1.22034 -0.0112143)
(0.471764 1.12926 -0.0115666)
(0.446874 1.06207 -0.0166462)
(0.512486 1.22116 -0.012798)
(0.50326 1.19245 -0.0143691)
(0.459048 1.06855 -0.0195407)
(0.476288 1.16486 -0.0119141)
(0.462461 1.11063 -0.0164706)
(0.480709 1.18219 -0.0106721)
(0.451464 1.12516 -0.013118)
(0.473676 1.17549 -0.0161489)
(0.493393 1.23155 -0.0114199)
(0.468114 1.16347 -0.0135818)
(0.472225 1.16412 -0.0115986)
(0.448058 1.10829 -0.00912711)
(0.398244 0.967974 -0.0204614)
(0.414919 1.02856 -0.0128292)
(0.442426 1.10191 -0.0137618)
(0.421728 1.03231 -0.0144792)
(0.452311 1.11022 -0.00390934)
(0.414004 1.01668 -0.0138096)
(0.471506 1.17699 -0.00894601)
(0.440119 1.06676 -0.0153307)
(0.241002 0.594404 -0.00486016)
(0.216299 0.545885 0.00650345)
(0.261579 0.658705 0.0105342)
(0.240064 0.611105 -0.00227146)
(0.250138 0.616731 0.00152327)
(0.245916 0.612801 -0.00209546)
(0.231939 0.579703 -0.00198698)
(0.302866 0.748512 0.0060693)
(0.385159 0.915349 0.00466868)
(0.378432 0.899226 0.00546076)
(0.302316 0.738447 0.00323997)
(0.351621 0.840925 0.00667763)
(0.261546 0.65582 0.00361659)
(0.332627 0.819448 -0.00110286)
(0.3807 0.906645 0.00228837)
(0.373275 0.898657 0.00750482)
(0.315304 0.793795 -0.0107104)
(0.309552 0.770151 -0.00565416)
(0.289812 0.753058 -0.0084695)
(0.308283 0.795086 0.00247226)
(0.309862 0.792485 -0.0160945)
(0.289072 0.738672 -0.0107203)
(0.254741 0.606356 -0.0114945)
(0.231015 0.556653 -0.0115522)
(0.249479 0.589564 -0.0110339)
(0.230009 0.542014 -0.00641744)
(0.254192 0.609121 -0.0114856)
(0.268693 0.639534 -0.0153994)
(0.27035 0.637023 -0.0115757)
(0.27784 0.651218 -0.00903692)
(0.323358 0.777013 -0.00886539)
(0.316856 0.755478 -0.00535549)
(0.262389 0.635946 -0.0110112)
(0.272064 0.645974 -0.0053912)
(0.255602 0.602151 -0.00601156)
(0.329006 0.802264 -0.00384506)
(0.323185 0.807311 0.0017015)
(0.308791 0.765695 -0.00102927)
(0.360857 0.870223 0.00203565)
(0.316126 0.799084 0.00390408)
(0.330815 0.809286 0.00209908)
(0.280729 0.725539 0.000354109)
(0.325659 0.802236 -0.00830713)
(0.321637 0.784738 0.00474196)
(0.303955 0.742296 0.00145575)
(0.400986 0.954179 0.000716145)
(0.418294 1.00982 -0.00261861)
(0.408045 0.994149 -0.00384572)
(0.351636 0.859632 0.00547491)
(0.303402 0.767271 -0.00011604)
(0.329475 0.813656 0.000111752)
(0.404059 0.98998 1.20812e-05)
(0.415801 1.00215 0.00341424)
(0.237251 0.606183 0.00151669)
(0.227483 0.575531 -0.00165317)
(0.284719 0.705785 0.00524751)
(0.288676 0.729164 0.00406004)
(0.242014 0.601216 0.00510579)
(0.230232 0.579912 0.000955561)
(0.244558 0.622183 -0.00373472)
(0.221629 0.572076 0.00872156)
(0.210781 0.530352 0.00828416)
(0.247637 0.633096 0.00671817)
(0.233215 0.597012 -0.00153759)
(0.337255 0.856133 0.00838846)
(0.322486 0.804338 0.00655746)
(0.232195 0.5841 0.00335514)
(0.204734 0.532889 0.00405035)
(0.291077 0.727843 0.0024313)
(0.276113 0.681081 -0.00118112)
(0.24482 0.641059 0.00675164)
(0.261227 0.67679 0.00509398)
(0.225362 0.585027 0.00294631)
(0.237873 0.612971 0.00715804)
(0.2871 0.727931 0.00281289)
(0.386104 0.946208 -0.000866584)
(0.414543 1.01765 0.00171686)
(0.439759 1.08077 0.000382335)
(0.446888 1.09131 0.00257716)
(0.433962 1.04382 -0.000362842)
(0.412903 1.02664 -0.00225329)
(0.418649 1.01428 -0.00226767)
(0.451432 1.10602 0.00236762)
(0.42871 1.02927 0.0102024)
(0.438396 1.07229 0.000711737)
(0.42303 1.03396 0.00402145)
(0.427813 1.03636 0.000182405)
(0.422305 1.03926 0.00590118)
(0.407243 0.994638 0.00328897)
(0.383269 0.955091 0.00359179)
(0.396033 0.964445 0.00815422)
(0.409773 1.01105 0.00275832)
(0.39892 0.989587 0.0039088)
(0.429947 1.0671 0.00505064)
(0.403446 0.978482 -0.00253296)
(0.44046 1.09064 -0.00598857)
(0.4413 1.08601 -0.00114757)
(0.443266 1.10928 -0.00327681)
(0.437693 1.05138 -0.00543759)
(0.429986 1.04982 0.00192664)
(0.457195 1.1341 -0.00306187)
(0.498335 1.21199 -0.00243729)
(0.487591 1.18688 -0.00836332)
(0.480949 1.18676 -0.00737157)
(0.467979 1.16097 -0.002435)
(0.450262 1.11333 -0.0090612)
(0.483137 1.17562 -0.00697429)
(0.447452 1.10686 -0.00074054)
(0.477095 1.18179 -0.00966175)
(0.46216 1.13987 -0.000429882)
(0.470869 1.17434 0.000459245)
(0.31808 0.780487 0.0146487)
(0.313478 0.751338 0.0137104)
(0.287372 0.703125 0.00200567)
(0.303924 0.74097 0.00171494)
(0.309077 0.772495 0.00591068)
(0.326774 0.800115 0.0112165)
(0.242005 0.59687 -0.00168482)
(0.239311 0.576213 0.00259238)
(0.30249 0.758936 0.00778675)
(0.295601 0.701147 -0.00310482)
(0.229031 0.556298 0.00304061)
(0.201427 0.493388 0.00801561)
(0.30084 0.746722 0.0108857)
(0.309382 0.765044 0.00805333)
(0.217475 0.533541 0.00752921)
(0.216717 0.545097 0.00437861)
(0.204747 0.508262 0.00152102)
(0.237775 0.586146 0.000703868)
(0.291994 0.703747 0.000833028)
(0.240294 0.600674 0.00608312)
(0.223523 0.557718 0.00234749)
(0.238923 0.596997 0.000327747)
(0.347388 0.853025 -0.00053277)
(0.331081 0.824812 -0.000548967)
(0.382845 0.94147 0.00487161)
(0.37862 0.939029 0.00307084)
(0.368088 0.926934 -0.0101429)
(0.380269 0.950031 -0.00502515)
(0.38207 0.947515 -0.00251409)
(0.270703 0.65895 0.000158577)
(0.268008 0.648614 -0.00818309)
(0.317463 0.789136 0.0041896)
(0.340602 0.840963 4.8947e-05)
(0.299755 0.747768 0.000579956)
(0.280965 0.698248 0.00415781)
(0.32239 0.793603 -0.00275164)
(0.321536 0.801077 -0.00101944)
(0.230366 0.561799 -0.00175291)
(0.248052 0.605437 -0.00259996)
(0.253226 0.618736 0.00366678)
(0.296255 0.726785 -0.00505616)
(0.302528 0.734593 -0.00830436)
(0.270086 0.636903 0.00145173)
(0.316672 0.765943 0.00286906)
(0.313707 0.772575 0.00232969)
(0.321266 0.78762 0.00405407)
(0.310716 0.76017 0.00854286)
(0.225626 0.558381 0.00467275)
(0.192413 0.481438 -0.00781696)
(0.275645 0.674008 0.00376449)
(0.305698 0.751201 0.0148614)
(0.286487 0.704975 0.000177371)
(0.315789 0.760106 0.0108241)
(0.238577 0.58084 -0.0036647)
(0.278194 0.650624 -0.016086)
(0.237948 0.570922 -0.00728621)
(0.204536 0.50102 0.00131158)
(0.258006 0.622847 -0.00111558)
(0.254441 0.59126 -0.00603051)
(0.20893 0.509393 -0.00733385)
(0.214278 0.531084 -0.00476334)
(0.290692 0.68225 0.00753428)
(0.281073 0.658209 0.0092264)
(0.219216 0.51484 0.000236904)
(0.20844 0.491662 0.00566288)
(0.224328 0.518355 0.00078758)
(0.201966 0.475584 0.00351156)
(0.297652 0.702251 0.0070312)
(0.298659 0.68527 -0.0028996)
(0.295288 0.686052 2.93146e-05)
(0.244206 0.567829 0.00143514)
(0.230183 0.540406 0.00528631)
(0.246829 0.578109 0.00415756)
(0.239877 0.558391 0.00357513)
(0.230273 0.545574 0.00180133)
(0.236838 0.541861 0.00294015)
(0.216486 0.510962 0.00466076)
(0.281453 0.659155 0.00681027)
(0.41913 0.975008 0.00599884)
(0.392959 0.944038 -0.00401802)
(0.376464 0.925161 0.000548471)
(0.37804 0.907619 0.00571745)
(0.390286 0.934541 0.00384738)
(0.319075 0.770151 0.0041709)
(0.339728 0.815452 0.00132456)
(0.282502 0.685453 0.00592095)
(0.266851 0.65325 0.00383905)
(0.34318 0.848733 0.00146668)
(0.315113 0.788368 0.0130756)
(0.343934 0.832342 -0.00064498)
(0.354349 0.853306 -0.00227188)
(0.269483 0.647393 -0.000799804)
(0.270243 0.649419 -0.00513295)
(0.34003 0.840298 0.00733546)
(0.297597 0.731207 0.00123918)
(0.31209 0.749949 0.00605708)
(0.270607 0.659892 0.000661836)
(0.270605 0.656906 0.00691617)
(0.211177 0.541817 -0.0139549)
(0.198217 0.518121 -0.0119933)
(0.235941 0.590014 -0.0018946)
(0.230024 0.577116 -0.00574318)
(0.225232 0.573475 -0.00474572)
(0.226248 0.562155 -0.00709365)
(0.21938 0.548898 -0.00314775)
(0.287136 0.70984 0.00228431)
(0.28719 0.719563 -0.000893941)
(0.213241 0.553241 -0.00345554)
(0.237151 0.57597 -0.00824521)
(0.235096 0.585467 -0.00720144)
(0.293225 0.723157 0.00108633)
(0.315551 0.786314 0.0068334)
(0.304154 0.75974 0.00450209)
(0.240428 0.607688 -0.0020864)
(0.217097 0.54696 -0.0014038)
(0.241702 0.617241 -0.00722886)
(0.230586 0.580925 -0.00185806)
(0.363711 0.906865 -0.0090321)
(0.39116 0.960937 -0.0063007)
(0.316216 0.785559 -0.00217121)
(0.299315 0.744198 0.00870206)
(0.327664 0.813327 0.00160018)
(0.336783 0.839291 -0.0014006)
(0.402893 0.989836 -0.0078481)
(0.352683 0.87577 -0.00243559)
(0.374777 0.929255 0.0030922)
(0.391914 0.985437 0.00156504)
(0.419298 1.07256 0.000468732)
(0.327746 0.838059 -0.00661804)
(0.30636 0.756832 -0.000161439)
(0.33271 0.837742 0.00485534)
(0.314693 0.776373 -0.000887833)
(0.394771 0.969268 0.00124069)
(0.396201 0.984434 0.000198968)
(0.372437 0.925962 0.00086165)
(0.347815 0.875398 0.00642004)
(0.33187 0.810291 0.00410669)
(0.355125 0.878634 0.0028433)
(0.30932 0.775954 0.00166487)
(0.314653 0.775286 0.00405034)
(0.331122 0.813535 -0.0040933)
(0.430701 1.04659 0.010584)
(0.397114 0.958247 0.00929716)
(0.403735 0.971018 0.0103084)
(0.40133 0.966935 0.00837573)
(0.379423 0.914302 0.00931648)
(0.429494 1.05597 0.0158452)
(0.447653 1.09483 0.0073298)
(0.46605 1.12414 0.013094)
(0.446603 1.07399 0.0124958)
(0.407721 0.990147 0.0174031)
(0.374241 0.904713 0.00860924)
(0.36439 0.887089 0.00563611)
(0.375276 0.918591 0.00621747)
(0.407118 0.989189 0.0116535)
(0.452942 1.10307 0.00940463)
(0.464587 1.11035 0.0119322)
(0.454757 1.09585 0.0129383)
(0.414841 1.0233 0.00976094)
(0.386877 0.951097 0.00787916)
(0.359803 0.896434 0.00791735)
(0.376557 0.925003 0.0081549)
(0.40984 0.990688 0.0159055)
(0.433634 1.04866 0.00944168)
(0.388336 0.954523 0.00964417)
(0.217504 0.532741 -0.00623712)
(0.202661 0.491429 -0.00531247)
(0.253114 0.61577 -0.00322479)
(0.255088 0.620338 0.00497538)
(0.229558 0.564417 -0.0023109)
(0.219747 0.534918 0.00406397)
(0.238883 0.563304 0.00396895)
(0.23587 0.581754 -0.00321757)
(0.297502 0.722968 -0.000555772)
(0.310317 0.752254 0.00208355)
(0.297318 0.720753 -0.00445874)
(0.330176 0.798568 0.00746028)
(0.29996 0.727588 0.00365202)
(0.292246 0.699637 -0.00161697)
(0.317043 0.759318 0.00095342)
(0.288974 0.703829 0.00121875)
(0.303344 0.716061 0.00308504)
(0.279832 0.680032 0.00407908)
(0.316883 0.751383 0.00624554)
(0.452539 1.10052 -0.0135869)
(0.450416 1.08887 -0.00794043)
(0.469066 1.14027 -0.00590669)
(0.482733 1.17926 -0.00886176)
(0.483307 1.16911 -0.00442837)
(0.477311 1.16405 -0.000485298)
(0.490411 1.19648 -0.00264183)
(0.488153 1.18799 -0.00629094)
(0.488644 1.17031 -0.00874765)
(0.491239 1.1769 -0.00828665)
(0.486537 1.17982 -0.00130258)
(0.499634 1.21533 -0.00108494)
(0.483419 1.17483 -0.00782474)
(0.489101 1.1733 0.000490067)
(0.49411 1.20004 -0.00157473)
(0.323352 0.805766 0.00272779)
(0.313984 0.775296 -0.00542257)
(0.321369 0.803283 0.00452086)
(0.340492 0.849634 0.0054704)
(0.341194 0.844586 0.00700857)
(0.343869 0.863724 0.00110143)
(0.260816 0.651051 -0.00897038)
(0.323318 0.813942 0.00226813)
(0.339398 0.865996 0.00825111)
(0.340614 0.850551 0.00927745)
(0.322615 0.795462 0.00291869)
(0.263613 0.653234 -0.00247158)
(0.295623 0.737811 -0.000875151)
(0.303693 0.74922 0.00469406)
(0.311074 0.764897 0.00739277)
(0.330011 0.816753 0.00176369)
(0.406654 0.997881 -0.0160353)
(0.456208 1.10236 -0.0112939)
(0.465363 1.11927 -0.00890244)
(0.470961 1.12103 -0.0134278)
(0.396248 0.97049 -0.00738228)
(0.392518 0.98311 -0.00441222)
(0.380892 0.962057 -0.00427562)
(0.370333 0.931203 -0.00747607)
(0.398055 0.983828 -0.00270829)
(0.394108 0.996406 0.00333891)
(0.37801 0.939884 0.00342053)
(0.384571 0.936238 -0.000251115)
(0.378138 0.951525 -0.00286565)
(0.446283 1.10018 0.0013523)
(0.43174 1.07645 -0.0032895)
(0.427492 1.07129 0.00711541)
(0.378705 0.94796 0.00783778)
(0.409184 1.00463 0.000277652)
(0.336273 0.872804 0.00966245)
(0.397363 0.995728 0.00815255)
(0.386361 0.963575 0.00472748)
(0.355084 0.918361 0.0106597)
(0.414215 1.04657 0.00066786)
(0.390587 0.984447 -0.00224034)
(0.429923 1.09079 0.00286187)
(0.327276 0.806175 0.00182858)
(0.323764 0.795622 0.00242142)
(0.307479 0.776589 0.00582666)
(0.293335 0.728025 -0.00553893)
(0.310379 0.774874 0.00364583)
(0.323334 0.805792 0.00214757)
(0.28987 0.737596 0.00292106)
(0.268182 0.683675 0.00461201)
(0.227754 0.579314 0.00564453)
(0.313339 0.760058 0.0118699)
(0.257031 0.654679 0.00436199)
(0.239412 0.600696 0.00163203)
(0.212321 0.505568 0.0134475)
(0.25957 0.618531 -0.00196004)
(0.259552 0.633853 -0.00171655)
(0.251741 0.598651 -8.15663e-05)
(0.25722 0.624426 -0.00704124)
(0.243883 0.593202 -0.00434326)
(0.248111 0.604355 0.00252765)
(0.351224 0.854006 -0.0111971)
(0.347289 0.815937 -0.00882459)
(0.321209 0.783159 -0.00294216)
(0.30279 0.7079 -0.0061905)
(0.355159 0.832132 -0.00395233)
(0.307563 0.723222 -0.00237916)
(0.294695 0.723589 -0.00275027)
(0.30273 0.732166 -0.00343872)
(0.350686 0.850608 0.00101008)
(0.342155 0.824422 0.00282097)
(0.314526 0.78457 -0.00606999)
(0.349559 0.852501 -0.000726826)
(0.328424 0.784318 0.00793931)
(0.368854 0.906266 0.000911661)
(0.297889 0.739808 0.0147132)
(0.390423 0.943934 0.00704956)
(0.324091 0.796213 0.00765551)
(0.406626 0.975903 0.0118603)
(0.349649 0.845039 0.00407627)
(0.369739 0.875263 0.00867238)
(0.380189 0.902517 0.00325055)
(0.285351 0.688059 0.014363)
(0.248505 0.603452 0.00642359)
(0.308936 0.713206 0.0146435)
(0.335044 0.800438 0.0135664)
(0.304289 0.73368 0.00815242)
(0.323845 0.784621 0.0106044)
(0.388435 0.913637 0.00180098)
(0.316708 0.734386 0.0088569)
(0.312134 0.749812 0.00937359)
(0.252303 0.612489 -0.00162215)
(0.269202 0.662081 -0.00158764)
(0.316857 0.759857 -0.00464826)
(0.272936 0.666781 -0.000604212)
(0.288046 0.691904 0.00631019)
(0.271536 0.67058 0.00441398)
(0.25159 0.627416 0.0015428)
(0.255888 0.629648 0.000707467)
(0.230431 0.567409 0.00557101)
(0.326798 0.779716 0.00022366)
(0.315009 0.751885 0.00263019)
(0.345792 0.840979 0.00204835)
(0.327394 0.786478 0.0010113)
(0.2733 0.653909 -0.00363955)
(0.234147 0.576225 0.00717087)
(0.212265 0.533217 0.00583898)
(0.357896 0.866307 0.00188913)
(0.341399 0.820124 0.00246952)
(0.346452 0.845575 0.000983204)
(0.330568 0.806668 -0.000658601)
(0.278866 0.668527 0.00930184)
(0.236507 0.57949 0.00937679)
(0.318831 0.780839 0.00348396)
(0.343097 0.828344 -0.000200496)
(0.260225 0.637381 -0.00446848)
(0.334348 0.812074 0.0028044)
(0.372003 0.927635 0.00183388)
(0.335979 0.844608 -0.00342465)
(0.315593 0.803549 -0.00117905)
(0.33562 0.834068 0.00567585)
(0.312847 0.791828 0.0160316)
(0.377343 0.931567 0.00555291)
(0.354229 0.883364 0.00875008)
(0.333299 0.83221 0.00129896)
(0.291151 0.743169 0.0126312)
(0.416137 1.0321 0.00601836)
(0.34317 0.874793 0.00511071)
(0.329493 0.836205 0.0070589)
(0.285234 0.727211 0.0120229)
(0.342412 0.851613 0.00732468)
(0.309568 0.765014 0.00843861)
(0.303023 0.756766 0.00848863)
(0.233784 0.549444 -0.0077606)
(0.324164 0.786621 -0.014947)
(0.332207 0.808318 -0.0130044)
(0.271775 0.637097 -0.0135874)
(0.230285 0.541881 -0.00789143)
(0.226443 0.549191 -0.00954393)
(0.22127 0.544278 -0.000202847)
(0.341845 0.833275 -0.00770973)
(0.356103 0.864558 -0.0101559)
(0.277369 0.696137 -0.0135197)
(0.289123 0.720934 -0.0149061)
(0.252624 0.614093 -0.0121763)
(0.275928 0.665639 -0.0100036)
(0.290089 0.716677 -0.0144612)
(0.237642 0.595462 -0.00953216)
(0.243734 0.601248 -0.004151)
(0.293222 0.714664 -0.013046)
(0.305615 0.751871 -0.0186113)
(0.293565 0.729781 -0.0176999)
(0.278608 0.692046 -0.0111221)
(0.284764 0.703453 0.00449517)
(0.246679 0.6219 -0.00277402)
(0.206892 0.521779 -0.0020712)
(0.256609 0.631126 0.0055092)
(0.228057 0.580845 -0.00205418)
(0.257801 0.626584 0.0100945)
(0.313617 0.791292 0.00232431)
(0.300507 0.749811 -0.00958746)
(0.300409 0.751752 -0.000442392)
(0.328176 0.818627 -0.00372794)
(0.221948 0.543056 0.00272394)
(0.212979 0.538318 -0.00229199)
(0.215051 0.555336 4.14157e-05)
(0.192631 0.503817 -0.00206807)
(0.244794 0.617048 0.0042559)
(0.235883 0.603281 0.0042671)
(0.298032 0.743777 0.00221908)
(0.299441 0.754417 0.00261414)
(0.287729 0.72359 -0.00118543)
(0.300592 0.749905 -0.00512324)
(0.243897 0.604644 -0.00559341)
(0.250827 0.628195 0.00102913)
(0.314811 0.75551 -0.0128598)
(0.327015 0.805119 -0.0128313)
(0.36625 0.880067 -0.00526131)
(0.349333 0.845185 -0.00635355)
(0.344589 0.833745 0.00151225)
(0.375778 0.923016 -0.000222001)
(0.357284 0.86873 -0.00232595)
(0.329882 0.804553 -0.0124038)
(0.32174 0.783371 -0.00546646)
(0.262873 0.64107 0.00133469)
(0.328992 0.810339 -0.00673126)
(0.33272 0.80607 -0.00260888)
(0.345723 0.839893 -0.00472264)
(0.286285 0.695024 -0.00604463)
(0.29294 0.731025 -0.00364461)
(0.277709 0.659609 -0.0048148)
(0.312575 0.725534 0.00868369)
(0.330277 0.768906 0.00545771)
(0.282396 0.671933 0.0152018)
(0.311006 0.722566 0.00868781)
(0.227029 0.534941 0.00743733)
(0.232075 0.54246 0.0045108)
(0.207561 0.4926 0.00371942)
(0.24381 0.573855 0.0143063)
(0.238594 0.55969 0.0056336)
(0.209963 0.506439 0.00443845)
(0.228999 0.524218 0.00369732)
(0.236768 0.547681 0.0108178)
(0.291777 0.681446 0.0133877)
(0.242906 0.564446 0.0027615)
(0.252919 0.624133 -0.00793618)
(0.239995 0.598692 -0.00363426)
(0.264031 0.635568 -0.00104946)
(0.240253 0.577467 -0.00513171)
(0.239544 0.579812 -0.0130931)
(0.248603 0.631588 -0.00375062)
(0.247686 0.628648 -0.00397839)
(0.347914 0.844132 -0.00710384)
(0.338972 0.833887 -0.00957114)
(0.281322 0.670174 -0.00661659)
(0.316777 0.776825 -0.00742797)
(0.312632 0.75689 -0.00772616)
(0.25688 0.621303 -0.00355726)
(0.277981 0.665977 -0.00758087)
(0.224954 0.595157 0.00127742)
(0.211393 0.55184 -0.0032079)
(0.318674 0.778641 -0.00328643)
(0.308583 0.74691 0.00224431)
(0.229487 0.596352 -0.00878056)
(0.243194 0.621044 -0.00739703)
(0.216504 0.534378 0.0029778)
(0.24188 0.590757 0.00685411)
(0.239307 0.612159 -0.00503196)
(0.262556 0.669914 0.00100762)
(0.30801 0.77384 0.00369476)
(0.252131 0.633017 -0.00417811)
(0.243733 0.601124 -0.00473352)
(0.264879 0.666165 0.00329728)
(0.230824 0.580709 0.0040731)
(0.253504 0.638508 0.00243272)
(0.225485 0.575698 -0.0055058)
(0.250612 0.648046 0.0029889)
(0.227402 0.575063 0.00108359)
(0.206074 0.529198 0.00679049)
(0.230985 0.559046 -0.0051706)
(0.247222 0.604868 -0.0020396)
(0.223159 0.524683 -0.00202728)
(0.25311 0.617816 -0.00337841)
(0.327205 0.78704 0.000614775)
(0.283019 0.679783 -0.00866038)
(0.224245 0.538285 -0.00880726)
(0.242508 0.576806 -0.00241183)
(0.334001 0.785379 -0.00722883)
(0.325191 0.767379 -0.00742796)
(0.323897 0.756328 -0.0070497)
(0.317943 0.739531 -0.00732114)
(0.311622 0.720578 -0.00725444)
(0.240693 0.578704 -0.00953121)
(0.209841 0.509768 -0.0163503)
(0.234465 0.559001 -0.00688264)
(0.232211 0.562361 -0.00592972)
(0.258495 0.607725 -0.00817528)
(0.304718 0.71337 -0.0120105)
(0.360839 0.891978 0.00709809)
(0.401594 0.978802 0.00817799)
(0.372191 0.918137 0.00391967)
(0.314853 0.758487 0.00590817)
(0.356852 0.868889 0.00407412)
(0.387181 0.934132 0.00815332)
(0.309285 0.755561 0.00837546)
(0.307418 0.74962 0.000714858)
(0.28847 0.703884 -0.000260206)
(0.280542 0.678225 0.00353641)
(0.283249 0.68111 0.00174451)
(0.308824 0.760962 0.00812208)
(0.279737 0.689633 -7.78723e-05)
(0.327077 0.804157 0.00716064)
(0.315599 0.788625 0.00695599)
(0.297075 0.725482 0.00364812)
(0.30538 0.748797 0.00427969)
(0.330087 0.796395 0.00520731)
(0.383571 0.931011 0.0117655)
(0.313345 0.760692 -0.000438509)
(0.309293 0.749461 0.00218945)
(0.264965 0.658959 0.00213752)
(0.268719 0.648898 -0.00274284)
(0.317693 0.759842 0.00217436)
(0.32257 0.778992 0.0092979)
(0.244577 0.605178 -0.00419532)
(0.199975 0.506707 -0.00366368)
(0.245639 0.595863 0.000873351)
(0.201996 0.49849 0.00170475)
(0.258534 0.639752 -0.00351854)
(0.382016 0.931249 0.00587894)
(0.407889 0.983816 0.0110445)
(0.450074 1.07598 0.0162417)
(0.432165 1.03722 0.0105803)
(0.492615 1.17421 0.00853793)
(0.481751 1.15767 0.00609146)
(0.47732 1.15757 0.00459711)
(0.441052 1.05472 0.0141993)
(0.477434 1.13003 0.00833684)
(0.407386 0.968376 0.00995445)
(0.420863 1.00801 0.0143091)
(0.407921 0.982392 0.0128837)
(0.484385 1.15672 0.00508479)
(0.42608 1.03334 0.0112225)
(0.419111 1.00516 0.0131271)
(0.467473 1.14101 0.00675681)
(0.388221 0.946056 0.00711672)
(0.423764 1.02583 0.0077242)
(0.416337 1.02151 0.0081379)
(0.401319 0.978712 0.0155263)
(0.380242 0.944083 0.00885126)
(0.394778 0.973958 0.00878162)
(0.242821 0.599055 -0.00359904)
(0.221144 0.538583 -0.00817904)
(0.232004 0.56024 -0.000406548)
(0.244477 0.608296 -0.00550766)
(0.376187 0.906961 -0.0133567)
(0.359215 0.866847 -0.00576052)
(0.290809 0.712714 -0.0141156)
(0.291021 0.698204 -0.00897792)
(0.324115 0.800531 -0.0162721)
(0.356209 0.865769 -0.0140942)
(0.243472 0.579073 -0.00676415)
(0.258141 0.623133 -0.00571955)
(0.226675 0.554258 -0.0053271)
(0.214205 0.537772 -0.00528272)
(0.328217 0.78629 -0.00405797)
(0.319029 0.769556 -0.015035)
(0.316028 0.751043 -0.00812499)
(0.239296 0.56766 -0.00927495)
(0.240272 0.594055 -0.0102331)
(0.306821 0.752704 -0.00998554)
(0.286148 0.698096 -0.0049345)
(0.294914 0.705471 -0.0112493)
(0.246133 0.597076 -0.00632856)
(0.469563 1.17723 -0.00775621)
(0.462736 1.16559 -0.0105384)
(0.454828 1.12861 -0.0131718)
(0.456294 1.13537 -0.00680105)
(0.408755 1.03479 -0.0103129)
(0.418752 1.02402 -0.0108409)
(0.39154 0.965818 -0.00196027)
(0.372335 0.930246 -0.00228874)
(0.391775 0.976735 -0.0100992)
(0.371874 0.929352 -0.00595286)
(0.376435 0.926532 -0.0180691)
(0.374198 0.921288 -0.0114016)
(0.399643 0.987556 0.00156233)
(0.455726 1.13546 -0.00452528)
(0.454363 1.13657 -0.00569107)
(0.425961 1.07166 -0.0136754)
(0.379772 0.945621 -0.00595862)
(0.422039 1.02903 -0.00777622)
(0.390796 0.971342 -0.0119883)
(0.408849 1.01261 -0.00245857)
(0.260493 0.627793 -0.00847241)
(0.216321 0.512204 -0.0109827)
(0.217286 0.502903 -0.0114373)
(0.263203 0.635745 -0.00543533)
(0.250195 0.617507 0.00110253)
(0.227363 0.561535 0.00147445)
(0.238008 0.594897 -0.00589083)
(0.225411 0.54036 -0.00374253)
(0.235048 0.568368 -0.00161209)
(0.227588 0.534441 -0.00799524)
(0.249775 0.594846 -0.00525448)
(0.267962 0.648582 0.0011176)
(0.218945 0.554879 -0.00832144)
(0.206894 0.474206 -0.0118598)
(0.216346 0.519189 -0.00722578)
(0.232886 0.56916 -0.00606797)
(0.262791 0.618971 0.000190999)
(0.24459 0.607689 0.0112082)
(0.224539 0.536384 -0.00791442)
(0.209399 0.498736 -0.00364891)
(0.209954 0.505653 -0.0113992)
(0.219014 0.527269 0.000237014)
(0.265405 0.652005 0.00469218)
(0.244147 0.579411 0.00611617)
(0.244486 0.582463 -0.00118915)
(0.219091 0.530065 0.003234)
(0.212059 0.518126 0.00658178)
(0.210056 0.515757 -0.00854903)
(0.214728 0.52935 0.00635895)
(0.240931 0.585522 -0.000116964)
(0.213195 0.530365 0.00506908)
(0.469225 1.13448 -0.00257582)
(0.430131 1.0415 -0.00491644)
(0.419516 1.02162 -0.00295987)
(0.366531 0.88035 -0.00955848)
(0.322571 0.778881 -0.00466978)
(0.205427 0.541355 0.0105449)
(0.211056 0.53621 0.00617761)
(0.221496 0.536595 0.0013711)
(0.209683 0.499471 0.00357654)
(0.229721 0.545089 0.00100358)
(0.219602 0.530732 0.00845661)
(0.233886 0.586317 0.00659839)
(0.214146 0.534819 0.0104075)
(0.210923 0.536721 0.00503061)
(0.218066 0.524274 0.0102459)
(0.238286 0.568844 -0.0101116)
(0.210651 0.486064 -0.00963037)
(0.199072 0.461614 -0.00903997)
(0.206873 0.48128 -0.00623422)
(0.203336 0.461985 -0.012565)
(0.19469 0.451925 -0.00928972)
(0.253139 0.604088 -0.0107331)
(0.219478 0.545536 -0.00502893)
(0.2123 0.548114 -0.00505133)
(0.222328 0.5608 -0.00332607)
(0.215127 0.511661 0.00234337)
(0.226916 0.540774 -0.00709657)
(0.232784 0.539544 -0.00637202)
(0.213386 0.559494 -0.00393706)
(0.216179 0.550846 -0.000367354)
(0.211941 0.543649 -0.00460865)
(0.208968 0.541898 -0.00262584)
(0.213651 0.529493 -0.00246914)
(0.213689 0.536507 -0.00499584)
(0.215336 0.52618 0.0164191)
(0.206096 0.514704 0.00765186)
(0.19925 0.500957 0.014723)
(0.218081 0.524234 -0.00390905)
(0.197159 0.483924 -0.00862903)
(0.21441 0.519995 0.0057955)
(0.204774 0.527197 -0.0059164)
(0.271363 0.659166 6.75047e-06)
(0.197313 0.518169 0.00413833)
(0.194722 0.503548 0.0077795)
(0.261827 0.629885 -0.00093721)
(0.195621 0.501997 0.00913066)
(0.226878 0.578809 -0.00271146)
(0.196811 0.531917 -0.00102156)
(0.211106 0.522188 0.00222131)
(0.200115 0.493225 0.00357836)
(0.204995 0.500749 -0.000150424)
(0.197381 0.482744 0.00600838)
(0.20666 0.486896 -0.0109047)
(0.199734 0.481307 -0.00134695)
(0.208211 0.4976 -0.00300284)
(0.223798 0.568963 -0.0024422)
(0.222694 0.543172 -0.00638736)
(0.218653 0.538992 0.00438858)
(0.213778 0.510908 -0.000892024)
(0.214709 0.525105 -0.00336852)
(0.217593 0.540609 -0.00382796)
(0.205622 0.471491 0.00438731)
(0.215102 0.518365 0.00738309)
(0.210944 0.499618 0.0154919)
(0.221374 0.550322 -0.00446125)
(0.216264 0.53452 2.63925e-06)
(0.218062 0.542827 -0.00493071)
(0.387769 0.940827 -0.00154099)
(0.224502 0.568722 -0.00864825)
(0.226387 0.541774 -0.00325196)
(0.268509 0.633941 -0.00295553)
(0.236779 0.553784 -0.00102423)
(0.200598 0.508606 -0.00379384)
(0.189486 0.468627 -0.00513576)
(0.236773 0.558887 -0.00663827)
(0.210368 0.499576 -0.00474967)
(0.208667 0.503181 -0.00948621)
(0.190896 0.460004 -0.00813344)
(0.215739 0.523282 -0.00669924)
(0.185341 0.462917 -0.00545042)
(0.211966 0.515927 -0.0102475)
(0.202773 0.495297 -0.00431434)
(0.203331 0.488801 -0.0205524)
(0.197783 0.483462 0.00541649)
(0.198496 0.479618 0.00692752)
(0.207613 0.493409 0.00957711)
(0.205547 0.514641 0.00622689)
(0.211524 0.531032 0.00229014)
(0.212896 0.549989 0.00532538)
(0.228737 0.5644 0.00250776)
(0.221666 0.532922 0.00234111)
(0.296769 0.707308 0.00315066)
(0.208025 0.509541 -0.00958882)
(0.197426 0.483936 -0.00531046)
(0.222579 0.548137 -0.00732292)
(0.230574 0.561148 -0.00880379)
(0.229122 0.580057 -0.0109239)
(0.229927 0.553032 0.00415961)
(0.215783 0.53194 -0.00706867)
(0.231607 0.57532 0.00612914)
(0.207012 0.531604 0.00227521)
(0.2284 0.572076 0.00543461)
(0.227649 0.577287 0.0052186)
(0.216137 0.529314 0.00545379)
(0.224057 0.541413 0.0024257)
(0.217898 0.544883 0.00411292)
(0.307194 0.775977 -0.00578524)
(0.195778 0.495383 -0.00196875)
(0.229776 0.577307 -0.00175652)
(0.214669 0.511899 0.0108965)
(0.189078 0.467226 -0.00277091)
(0.200588 0.489307 -0.00317911)
(0.24099 0.584133 -0.0093643)
(0.214029 0.521075 -0.0065544)
(0.179166 0.458771 0.00230824)
(0.199709 0.495136 0.00151948)
(0.204764 0.524057 0.00117893)
(0.214284 0.533658 0.00492093)
(0.236441 0.586453 0.0038682)
(0.219942 0.556899 0.00301518)
(0.229695 0.564629 0.00338578)
(0.21548 0.549118 -0.00561554)
(0.222728 0.545741 0.0019426)
(0.21947 0.538886 0.00381928)
(0.213893 0.539743 -0.00552908)
(0.21136 0.50672 -0.00146643)
(0.211756 0.511257 -0.00581855)