/*--------------------------------*- C++ -*----------------------------------*\
| =========                 |                                                 |
| \\      /  F ield         | OpenFOAM: The Open Source CFD Toolbox           |
|  \\    /   O peration     | Version:  v1612+                                |
|   \\  /    A nd           | Web:      www.OpenFOAM.com                      |
|    \\/     M anipulation  |                                                 |
\*---------------------------------------------------------------------------*/
FoamFile
{
    version     2.0;
    format      ascii;
    class       volVectorField;
    location    "150";
    object      U;
}
// * * * * * * * * * * * * * * * * * * * * * * * * * * * * * * * * * * * * * //

dimensions      [0 1 -1 0 0 0 0];

internalField   nonuniform List<vector> 
18941
(
(-0.615635 0.444094 -0.666899)
(-0.636995 0.137988 -0.653752)
(-0.585368 0.186817 -0.45155)
(-0.551825 0.176174 -0.446047)
(-0.599139 0.201068 -0.481486)
(-0.562521 0.183136 -0.461823)
(-0.540453 0.165566 -0.352381)
(-0.509636 0.151114 -0.338788)
(-0.532471 0.171601 -0.35845)
(-0.507067 0.151319 -0.350002)
(-0.518478 0.155471 -0.37741)
(-0.590373 0.193794 -0.453769)
(-0.569541 0.191968 -0.453482)
(-0.514729 0.159851 -0.285652)
(-0.528197 0.170223 -0.301986)
(-0.533297 0.168162 -0.326994)
(-0.542803 0.181123 -0.319878)
(-0.527 0.170426 -0.30795)
(-0.548714 0.187172 -0.334026)
(-0.385294 0.057102 -0.203285)
(-0.354504 0.0601235 -0.157316)
(-0.493259 0.105179 -0.319327)
(-0.465086 0.098654 -0.293283)
(-0.413846 0.0569765 -0.220578)
(-0.406672 0.0680805 -0.218935)
(-0.376928 0.0671345 -0.191446)
(-0.39685 0.0687298 -0.177435)
(-0.373846 0.0627504 -0.163257)
(-0.479586 0.100136 -0.264025)
(-0.444348 0.0767695 -0.192926)
(-0.445764 0.0899644 -0.24664)
(-0.443345 0.0757499 -0.18017)
(-0.484487 0.103308 -0.252166)
(-0.417082 0.0761464 -0.160392)
(-0.37013 0.0714578 -0.148173)
(-0.478687 0.102405 -0.28785)
(-0.471078 0.0984551 -0.28256)
(-0.434439 0.078594 -0.184715)
(-0.402794 0.0744735 -0.163107)
(-0.469428 0.0964334 -0.226656)
(-0.399731 0.0737272 -0.187683)
(-0.614228 0.507244 -0.604587)
(-0.620466 0.502576 -0.620164)
(-0.646025 0.48658 -0.622521)
(-0.633548 0.489458 -0.603739)
(-0.630349 0.477893 -0.626509)
(-0.621564 0.47831 -0.603679)
(-0.59367 0.530503 -0.568375)
(-0.602965 0.500556 -0.616504)
(-0.569675 0.497719 -0.566146)
(-0.602354 0.50059 -0.591281)
(-0.57463 0.503516 -0.572824)
(-0.605326 0.492597 -0.600331)
(-0.61782 0.487481 -0.587848)
(-0.582098 0.547103 -0.558734)
(-0.616249 0.511569 -0.578788)
(-0.551773 0.531627 -0.534148)
(-0.581818 0.532171 -0.578755)
(-0.566642 0.521266 -0.555372)
(-0.550052 0.499946 -0.554231)
(-0.595965 0.532919 -0.583092)
(-0.538537 0.383948 -0.242585)
(-0.534707 0.245573 -0.328879)
(-0.533499 0.246943 -0.315097)
(-0.554729 0.324584 -0.235898)
(-0.564685 0.356804 -0.209992)
(-0.552724 0.41189 -0.285765)
(-0.560766 0.371196 -0.32677)
(-0.529936 0.406465 -0.238044)
(-0.547339 0.419275 -0.226542)
(-0.557984 0.296555 -0.334167)
(-0.547215 0.348786 -0.345082)
(-0.549432 0.271762 -0.330571)
(-0.535014 0.283225 -0.341968)
(-0.540454 0.279865 -0.251914)
(-0.553114 0.362025 -0.220976)
(-0.56249 0.380274 -0.272526)
(-0.546279 0.331214 -0.313365)
(-0.548704 0.334214 -0.241232)
(-0.546716 0.362956 -0.284913)
(-0.866025 0.244851 -0.746571)
(-0.892439 0.233915 -0.773385)
(-0.913183 0.241567 -0.78041)
(-0.903744 0.271561 -0.736331)
(-0.888043 0.285894 -0.733745)
(-0.908997 0.266775 -0.753456)
(-0.892109 0.270386 -0.748539)
(-0.88735 0.274649 -0.712547)
(-0.90775 0.284235 -0.73)
(-0.893156 0.296215 -0.731336)
(-0.886271 0.258927 -0.762024)
(-0.899782 0.28196 -0.740589)
(-0.897462 0.257875 -0.759713)
(-0.898077 0.253398 -0.76909)
(-0.896346 0.27631 -0.7615)
(-0.91397 0.271963 -0.774817)
(-0.402406 0.128465 -0.124613)
(-0.373396 0.126264 -0.0992348)
(-0.428092 0.127158 -0.15669)
(-0.399792 0.129389 -0.131131)
(-0.435705 0.134765 -0.161604)
(-0.455604 0.13541 -0.191598)
(-0.395835 0.159617 -0.10803)
(-0.369924 0.140749 -0.0894325)
(-0.36981 0.136539 -0.0993871)
(-0.405241 0.152187 -0.128485)
(-0.427302 0.151284 -0.17246)
(-0.44178 0.138249 -0.186769)
(-0.384612 0.153264 -0.110831)
(-0.441814 0.152849 -0.167868)
(-0.448237 0.140626 -0.172094)
(-0.412607 0.152964 -0.138241)
(-0.582939 0.515977 -0.573381)
(-0.566106 0.52317 -0.566858)
(-0.573556 0.527019 -0.556536)
(-0.543411 0.517634 -0.536843)
(-0.576206 0.48324 -0.535695)
(-0.554352 0.53593 -0.502201)
(-0.599796 0.493627 -0.589678)
(-0.594451 0.486948 -0.580992)
(-0.58018 0.499149 -0.515113)
(-0.565042 0.53465 -0.493764)
(-0.573717 0.538336 -0.49535)
(-0.557282 0.548671 -0.483848)
(-0.561697 0.545008 -0.501666)
(-0.530321 0.550168 -0.469652)
(-0.536584 0.53352 -0.511326)
(-0.590397 0.499753 -0.51033)
(-0.58808 0.535593 -0.557212)
(-0.617153 0.499647 -0.560215)
(-0.625228 0.35929 -0.204439)
(-0.619411 0.374958 -0.21848)
(-0.591239 0.391479 -0.138894)
(-0.612754 0.390059 -0.151145)
(-0.614347 0.373811 -0.249166)
(-0.615722 0.390731 -0.276151)
(-0.617754 0.41944 -0.162345)
(-0.59431 0.39116 -0.133239)
(-0.556944 0.38935 -0.109115)
(-0.616635 0.423433 -0.182367)
(-0.618523 0.420661 -0.275839)
(-0.592311 0.450279 -0.172023)
(-0.618813 0.466727 -0.212253)
(-0.596555 0.47687 -0.205297)
(-0.561002 0.421513 -0.140204)
(-0.586151 0.432884 -0.155835)
(-0.571094 0.409864 -0.131216)
(-0.601414 0.46126 -0.214656)
(-0.429828 0.216304 -0.370364)
(-0.456449 0.198536 -0.385102)
(-0.403777 0.219022 -0.34014)
(-0.446046 0.204082 -0.37206)
(-0.366595 0.173411 -0.299584)
(-0.36911 0.166945 -0.307263)
(-0.355798 0.166562 -0.286813)
(-0.376991 0.163113 -0.298075)
(-0.389147 0.171718 -0.311391)
(-0.576068 0.472896 -0.483573)
(-0.575887 0.476957 -0.485574)
(-0.525879 0.51709 -0.473151)
(-0.497727 0.518805 -0.438185)
(-0.529801 0.517062 -0.515403)
(-0.492638 0.515096 -0.452669)
(-0.585088 0.474775 -0.517263)
(-0.551432 0.495013 -0.513567)
(-0.566605 0.475828 -0.492447)
(-0.563799 0.453325 -0.517689)
(-0.539366 0.517413 -0.456873)
(-0.516461 0.528905 -0.442421)
(-0.539308 0.513804 -0.512856)
(-0.574586 0.509213 -0.553147)
(-0.548531 0.520704 -0.501591)
(-0.572749 0.450122 -0.536378)
(-0.863554 0.0726985 -0.855082)
(-0.841501 0.057797 -0.812421)
(-0.790501 0.0212741 -0.748194)
(-0.779433 0.0289864 -0.732481)
(-0.793427 0.034668 -0.733098)
(-0.895603 0.0716556 -0.844601)
(-0.829411 0.0510118 -0.814593)
(-0.869084 0.0706194 -0.856752)
(-0.802246 0.0286271 -0.76181)
(-0.876135 0.0532273 -0.836525)
(-0.774048 0.0393459 -0.739197)
(-0.85307 0.0650317 -0.815472)
(-0.794549 0.0428659 -0.771108)
(-0.894733 0.05335 -0.857407)
(-0.891 0.0602534 -0.856415)
(-0.894039 0.0613479 -0.836446)
(-0.914125 0.0597204 -0.862676)
(-0.839805 0.0495162 -0.795272)
(-0.873062 0.063066 -0.869458)
(-0.809679 0.234392 -0.775471)
(-0.839652 0.207633 -0.781457)
(-0.802566 0.236625 -0.811043)
(-0.781698 0.246928 -0.795702)
(-0.870164 0.219945 -0.821861)
(-0.831867 0.232751 -0.810191)
(-0.824911 0.235194 -0.815502)
(-0.811482 0.253216 -0.799773)
(-0.839656 0.185262 -0.771475)
(-0.790849 0.19399 -0.743812)
(-0.745132 0.204829 -0.698385)
(-0.773257 0.167035 -0.713213)
(-0.78245 0.241347 -0.807228)
(-0.792561 0.253163 -0.803046)
(-0.870772 0.200153 -0.801848)
(-0.739934 0.226079 -0.720573)
(-0.71453 0.202818 -0.718684)
(-0.776909 0.239057 -0.80018)
(-0.793766 0.159312 -0.764074)
(-0.755097 0.22865 -0.802207)
(-0.744143 0.233002 -0.767336)
(-0.795983 0.232612 -0.82724)
(-0.79533 0.292302 -0.768127)
(-0.770497 0.29801 -0.746872)
(-0.731344 0.305103 -0.712172)
(-0.782711 0.286083 -0.784944)
(-0.720963 0.315027 -0.755688)
(-0.710483 0.310516 -0.74078)
(-0.708317 0.320785 -0.742729)
(-0.747063 0.299989 -0.770442)
(-0.771397 0.282954 -0.795585)
(-0.774581 0.272723 -0.806009)
(-0.771893 0.312483 -0.779271)
(-0.772692 0.314304 -0.765811)
(-0.725285 0.338284 -0.735914)
(-0.710777 0.33374 -0.737724)
(-0.715085 0.290692 -0.732665)
(-0.709529 0.314684 -0.752325)
(-0.72398 0.301392 -0.763408)
(-0.688158 0.349268 -0.742706)
(-0.665789 0.383827 -0.722675)
(-0.726674 0.340038 -0.745685)
(-0.68775 0.352642 -0.737291)
(-0.743828 0.326423 -0.762388)
(-0.718947 0.328751 -0.759792)
(-0.69354 0.338709 -0.750894)
(-0.629394 0.0333469 -0.658871)
(-0.598577 0.0865351 -0.672763)
(-0.611797 0.0732849 -0.648592)
(-0.593775 0.0865211 -0.657385)
(-0.604357 0.0477924 -0.61457)
(-0.567436 0.0660343 -0.580641)
(-0.638504 0.029253 -0.646107)
(-0.594477 0.0555817 -0.596375)
(-0.581251 0.097417 -0.682349)
(-0.583963 0.0544135 -0.635287)
(-0.57134 0.0702463 -0.620469)
(-0.53725 0.0927271 -0.541337)
(-0.536256 0.0836786 -0.553802)
(-0.556889 0.0927008 -0.645306)
(-0.624487 0.0409212 -0.659904)
(-0.54579 0.0974963 -0.590437)
(-0.574524 0.270928 -0.50155)
(-0.581962 0.252626 -0.507095)
(-0.560149 0.334443 -0.481203)
(-0.561626 0.316346 -0.484162)
(-0.587487 0.293145 -0.530561)
(-0.580462 0.255204 -0.508177)
(-0.548459 0.333361 -0.483163)
(-0.542561 0.325975 -0.47129)
(-0.609942 0.236751 -0.544661)
(-0.581112 0.272511 -0.528097)
(-0.588364 0.305503 -0.531202)
(-0.542692 0.294306 -0.503779)
(-0.541644 0.264999 -0.478249)
(-0.590851 0.293546 -0.555332)
(-0.573871 0.287062 -0.524243)
(-0.561021 0.351273 -0.508687)
(-0.569959 0.337249 -0.516582)
(-0.595597 0.237129 -0.548238)
(-0.590881 0.281704 -0.548586)
(-0.583965 0.314275 -0.550964)
(-0.58259 0.341778 -0.536395)
(-0.524338 0.125418 -0.4574)
(-0.499091 0.171467 -0.397884)
(-0.511205 0.14725 -0.434418)
(-0.490263 0.188829 -0.395863)
(-0.498327 0.133087 -0.436384)
(-0.490315 0.184236 -0.388398)
(-0.490329 0.238618 -0.411668)
(-0.48734 0.225521 -0.402964)
(-0.500274 0.213091 -0.491173)
(-0.508072 0.187575 -0.484554)
(-0.481363 0.255186 -0.435697)
(-0.485052 0.223064 -0.446101)
(-0.487868 0.202426 -0.395361)
(-0.492394 0.233302 -0.459249)
(-0.490595 0.224667 -0.427085)
(-0.51587 0.166736 -0.441662)
(-0.517236 0.138845 -0.46981)
(-0.613412 0.32196 -0.464262)
(-0.620041 0.417107 -0.388913)
(-0.612612 0.36918 -0.397371)
(-0.649828 0.453069 -0.336268)
(-0.662527 0.404635 -0.3085)
(-0.618134 0.351538 -0.364828)
(-0.588134 0.275339 -0.359749)
(-0.61672 0.305244 -0.346537)
(-0.77597 -0.0208874 -0.771456)
(-0.784398 -0.0276461 -0.777924)
(-0.795328 -0.00223153 -0.831748)
(-0.788598 0.00612412 -0.805889)
(-0.707727 -0.0240039 -0.711301)
(-0.73845 -0.0207703 -0.728237)
(-0.748148 0.0133832 -0.795168)
(-0.707854 0.00218647 -0.778556)
(-0.714 -0.000208088 -0.751)
(-0.657905 -0.0016483 -0.707069)
(-0.661476 0.00724551 -0.69257)
(-0.646589 0.00340469 -0.672683)
(-0.657669 0.00781443 -0.707861)
(-0.743456 0.012405 -0.765941)
(-0.697791 0.00717123 -0.722653)
(-0.690761 -0.0115212 -0.686582)
(-0.73139 0.000308233 -0.736182)
(-0.796743 -0.00400766 -0.789542)
(-0.715633 0.0219929 -0.769902)
(-0.840856 0.0305724 -0.927254)
(-0.815213 0.0450025 -0.890458)
(-0.888791 0.030134 -0.942851)
(-0.844317 0.0458829 -0.914278)
(-0.863384 0.0342009 -0.94484)
(-0.824356 0.0348586 -0.910444)
(-0.779958 0.062928 -0.842015)
(-0.846869 0.0567058 -0.884768)
(-0.884058 0.0472935 -0.935289)
(-0.873968 0.0155543 -0.946488)
(-0.874042 0.0345941 -0.947395)
(-0.818586 0.0929215 -0.849625)
(-0.828016 0.0588417 -0.886689)
(-0.820621 0.0451244 -0.89576)
(-0.817406 0.0744674 -0.868138)
(-0.902089 0.0373329 -0.946469)
(-0.876977 0.0644405 -0.909063)
(-0.87494 0.0809233 -0.903304)
(-0.613326 0.292983 -0.302656)
(-0.612836 0.315401 -0.329912)
(-0.60343 0.252105 -0.297362)
(-0.586941 0.231047 -0.331071)
(-0.61005 0.246458 -0.270143)
(-0.585271 0.214883 -0.344276)
(-0.626203 0.30613 -0.289419)
(-0.592328 0.246686 -0.367463)
(-0.611944 0.263925 -0.27087)
(-0.610644 0.271912 -0.297762)
(-0.590829 0.23092 -0.350694)
(-0.610293 0.32905 -0.350653)
(-0.614622 0.310353 -0.315556)
(-0.619157 0.276275 -0.287743)
(-0.599703 0.289311 -0.328296)
(-0.58715 0.258706 -0.389689)
(-0.80552 0.364062 -0.660015)
(-0.803945 0.37945 -0.645342)
(-0.808807 0.353095 -0.648784)
(-0.86158 0.373487 -0.693595)
(-0.877812 0.38371 -0.692865)
(-0.840923 0.373643 -0.651726)
(-0.833846 0.348271 -0.689597)
(-0.807439 0.32779 -0.68726)
(-0.822469 0.339742 -0.68486)
(-0.853546 0.363035 -0.66541)
(-0.879179 0.357181 -0.710062)
(-0.846 0.339442 -0.710671)
(-0.812272 0.30718 -0.695686)
(-0.511297 0.234638 -0.188457)
(-0.512698 0.22766 -0.183644)
(-0.502397 0.213505 -0.173327)
(-0.508171 0.202639 -0.189688)
(-0.497718 0.238221 -0.141617)
(-0.486541 0.248386 -0.119679)
(-0.471225 0.222748 -0.112636)
(-0.451002 0.213004 -0.0970353)
(-0.46387 0.21028 -0.095853)
(-0.437847 0.20316 -0.0811267)
(-0.457145 0.180309 -0.111229)
(-0.427002 0.181589 -0.0763892)
(-0.503688 0.187346 -0.193144)
(-0.507047 0.178781 -0.211893)
(-0.450664 0.205565 -0.110918)
(-0.477353 0.218253 -0.128208)
(-0.480944 0.195923 -0.123452)
(-0.466067 0.175682 -0.130523)
(-0.439164 0.183422 -0.0966027)
(-0.512829 0.200466 -0.183652)
(-0.537013 0.261247 -0.432715)
(-0.521316 0.272503 -0.43783)
(-0.443574 0.242741 -0.376038)
(-0.431243 0.325387 -0.310228)
(-0.556497 0.331531 -0.403578)
(-0.384963 0.254129 -0.314565)
(-0.363967 0.260645 -0.294631)
(-0.348516 0.272059 -0.28316)
(-0.42044 0.283836 -0.344895)
(-0.458934 0.303258 -0.358618)
(-0.617894 0.34056 -0.478865)
(-0.482752 0.325284 -0.359678)
(-0.536862 0.328883 -0.406702)
(-0.377724 0.262933 -0.308903)
(-0.365036 0.27572 -0.292712)
(-0.475864 0.246225 -0.403713)
(-0.422613 0.299227 -0.331241)
(-0.390776 0.292736 -0.303574)
(-0.427621 0.311024 -0.326495)
(-0.368348 0.297045 -0.286239)
(-0.480187 0.260351 -0.400408)
(-0.555733 0.318991 -0.456165)
(-0.579695 0.311071 -0.475781)
(-0.61776 0.452508 -0.521677)
(-0.626495 0.467215 -0.561227)
(-0.640446 0.413776 -0.554029)
(-0.615683 0.431213 -0.517064)
(-0.615125 0.490139 -0.510971)
(-0.61586 0.530468 -0.51507)
(-0.634134 0.382372 -0.556635)
(-0.624915 0.420236 -0.535451)
(-0.637823 0.366583 -0.567297)
(-0.644733 0.392497 -0.579652)
(-0.623131 0.49087 -0.509223)
(-0.609407 0.482318 -0.508114)
(-0.627846 0.511641 -0.550906)
(-0.658647 0.40988 -0.5895)
(-0.629496 0.427816 -0.530332)
(-0.621802 0.404842 -0.52936)
(-0.625006 0.422367 -0.525659)
(-0.637268 0.54787 -0.552304)
(-0.629045 0.505135 -0.532593)
(-0.643295 0.483796 -0.588897)
(-0.574565 0.494017 -0.591009)
(-0.570151 0.498262 -0.575644)
(-0.559883 0.530051 -0.525431)
(-0.58851 0.438987 -0.529776)
(-0.577224 0.392041 -0.538398)
(-0.613525 0.457614 -0.610061)
(-0.617732 0.452432 -0.604372)
(-0.570058 0.411194 -0.544279)
(-0.576652 0.424321 -0.526457)
(-0.551436 0.506512 -0.568643)
(-0.541064 0.511441 -0.545655)
(-0.568006 0.514567 -0.57523)
(-0.579106 0.453481 -0.559416)
(-0.540882 0.525573 -0.499165)
(-0.527225 0.519909 -0.504613)
(-0.594427 0.457171 -0.593332)
(-0.566447 0.502305 -0.579742)
(-0.572752 0.121233 -0.413171)
(-0.554997 0.139029 -0.356561)
(-0.523118 0.147918 -0.246552)
(-0.538196 0.132886 -0.309676)
(-0.515853 0.139728 -0.239605)
(-0.512644 0.124679 -0.212156)
(-0.497188 0.103482 -0.204389)
(-0.516731 0.104453 -0.271627)
(-0.474826 0.121946 -0.178757)
(-0.517849 0.110694 -0.296313)
(-0.468543 0.106954 -0.19221)
(-0.483125 0.113077 -0.186078)
(-0.736414 0.106218 -0.747133)
(-0.72237 0.0999711 -0.736916)
(-0.743871 0.101383 -0.756002)
(-0.737644 0.0923141 -0.759795)
(-0.777247 0.0693329 -0.809428)
(-0.859796 0.0890254 -0.867018)
(-0.765353 0.105401 -0.769954)
(-0.770116 0.0759886 -0.778519)
(-0.837106 0.0809279 -0.843595)
(-0.793761 0.0721346 -0.805438)
(-0.838533 0.105743 -0.884709)
(-0.86642 0.101401 -0.86474)
(-0.814042 0.122583 -0.837917)
(-0.776492 0.125389 -0.787018)
(-0.804368 0.126211 -0.809062)
(-0.814492 0.0934727 -0.817004)
(-0.857293 0.115978 -0.848205)
(-0.860767 0.091353 -0.845556)
(-0.468874 0.28236 -0.435449)
(-0.462851 0.322854 -0.439769)
(-0.467789 0.236219 -0.436129)
(-0.476579 0.245335 -0.458687)
(-0.470785 0.345989 -0.353991)
(-0.496608 0.331363 -0.370439)
(-0.484522 0.308004 -0.361223)
(-0.462245 0.325886 -0.375322)
(-0.489872 0.224875 -0.413391)
(-0.783564 0.0352072 -0.708439)
(-0.802833 0.0471085 -0.748184)
(-0.774009 0.0240596 -0.721024)
(-0.897767 0.0756602 -0.856575)
(-0.861406 0.0638932 -0.838147)
(-0.799555 0.0338077 -0.776563)
(-0.903548 0.0705301 -0.87801)
(-0.494144 0.146571 -0.643628)
(-0.488027 0.152243 -0.62007)
(-0.495065 0.16643 -0.624637)
(-0.452007 0.203135 -0.633347)
(-0.512257 0.125247 -0.679471)
(-0.512851 0.132039 -0.673523)
(-0.470187 0.192334 -0.697536)
(-0.49608 0.166876 -0.682512)
(-0.47908 0.19029 -0.622387)
(-0.44991 0.229123 -0.637512)
(-0.434835 0.220408 -0.638276)
(-0.521275 0.126043 -0.681445)
(-0.4813 0.165835 -0.719477)
(-0.473598 0.165703 -0.701287)
(-0.440819 0.235032 -0.658811)
(-0.435722 0.232906 -0.659643)
(-0.461991 0.170646 -0.707777)
(-0.432388 0.213238 -0.667334)
(-0.492918 0.163318 -0.307961)
(-0.509943 0.137153 -0.356929)
(-0.518538 0.152391 -0.345491)
(-0.509541 0.185842 -0.297579)
(-0.505266 0.18256 -0.311735)
(-0.509676 0.160208 -0.346986)
(-0.524414 0.157311 -0.356125)
(-0.511516 0.17727 -0.333774)
(-0.570772 0.102514 -0.477206)
(-0.528278 0.187957 -0.441959)
(-0.55255 0.130264 -0.452663)
(-0.512934 0.199803 -0.43187)
(-0.538579 0.137557 -0.487871)
(-0.532913 0.130534 -0.452092)
(-0.522355 0.143285 -0.440507)
(-0.519168 0.141431 -0.437386)
(-0.509153 0.190741 -0.348974)
(-0.502934 0.177661 -0.36185)
(-0.52081 0.215155 -0.379103)
(-0.50933 0.194293 -0.423411)
(-0.513735 0.228097 -0.350132)
(-0.621925 0.0787396 -0.691955)
(-0.590115 0.0826277 -0.650627)
(-0.564257 0.0800877 -0.613199)
(-0.613055 0.0893743 -0.664375)
(-0.789365 0.0421654 -0.851564)
(-0.806125 0.0495336 -0.861408)
(-0.621816 0.0809612 -0.693973)
(-0.625465 0.0826464 -0.705841)
(-0.727903 0.0935384 -0.794101)
(-0.681302 0.107631 -0.763229)
(-0.812845 0.0652162 -0.87389)
(-0.809757 0.0787968 -0.867182)
(-0.728991 0.107787 -0.816383)
(-0.66868 0.092286 -0.75951)
(-0.732643 0.0884103 -0.835145)
(-0.788516 0.150714 -0.748175)
(-0.77517 0.153159 -0.734644)
(-0.676814 0.145115 -0.638403)
(-0.569044 0.116511 -0.518794)
(-0.556644 0.119836 -0.519426)
(-0.746513 0.153626 -0.709644)
(-0.66035 0.11028 -0.615153)
(-0.568091 0.100369 -0.508117)
(-0.717068 0.12308 -0.670491)
(-0.671006 0.111143 -0.647532)
(-0.58363 0.102145 -0.545714)
(-0.714512 0.140478 -0.682324)
(-0.885255 0.21305 -0.827341)
(-0.862808 0.225218 -0.820905)
(-0.882232 0.17417 -0.814929)
(-0.875422 0.185745 -0.810694)
(-0.878782 0.207684 -0.826955)
(-0.857995 0.227835 -0.817097)
(-0.810842 0.174028 -0.779442)
(-0.83155 0.172755 -0.795702)
(-0.879708 0.202887 -0.845073)
(-0.772795 0.222213 -0.818718)
(-0.785248 0.246873 -0.805102)
(-0.848961 0.200947 -0.837251)
(-0.840062 0.212618 -0.824572)
(-0.793446 0.210486 -0.815869)
(-0.774514 0.224984 -0.802553)
(-0.825861 0.189731 -0.809426)
(-0.80909 0.232823 -0.800291)
(-0.57355 0.318428 -0.721269)
(-0.60902 0.270738 -0.761676)
(-0.555401 0.349051 -0.724566)
(-0.536689 0.352051 -0.714742)
(-0.629223 0.271041 -0.767784)
(-0.596486 0.29463 -0.745601)
(-0.579932 0.317624 -0.763755)
(-0.609277 0.300463 -0.77495)
(-0.59095 0.30249 -0.778867)
(-0.548047 0.351113 -0.717074)
(-0.520248 0.345816 -0.69558)
(-0.592502 0.327393 -0.718951)
(-0.558879 0.325688 -0.746635)
(-0.554042 0.339845 -0.735524)
(-0.594492 0.316175 -0.761913)
(-0.559415 0.312944 -0.720446)
(-0.581726 0.325473 -0.736754)
(-0.540085 0.324361 -0.72044)
(-0.539907 0.414878 -0.1856)
(-0.525366 0.429741 -0.164833)
(-0.544919 0.377791 -0.183426)
(-0.549541 0.372028 -0.19446)
(-0.558291 0.394459 -0.332554)
(-0.563958 0.359961 -0.320821)
(-0.529349 0.453102 -0.221822)
(-0.520136 0.437057 -0.19949)
(-0.549725 0.407469 -0.178681)
(-0.552543 0.422587 -0.226376)
(-0.568376 0.355584 -0.234362)
(-0.559901 0.343053 -0.252974)
(-0.562575 0.423662 -0.292948)
(-0.559855 0.378074 -0.302174)
(-0.575275 0.410937 -0.309052)
(-0.549461 0.469009 -0.274874)
(-0.562192 0.464084 -0.267295)
(-0.573907 0.390141 -0.311866)
(-0.564359 0.342084 -0.310439)
(-0.54387 0.466689 -0.228058)
(-0.565538 0.387868 -0.265173)
(-0.575507 0.37098 -0.273914)
(-0.568886 0.339362 -0.266612)
(-0.565647 0.439237 -0.213342)
(-0.693155 0.323582 -0.708935)
(-0.705042 0.345463 -0.744024)
(-0.702849 0.279218 -0.68237)
(-0.725247 0.303552 -0.718396)
(-0.788433 0.238547 -0.746229)
(-0.789869 0.266905 -0.768594)
(-0.79215 0.299128 -0.779166)
(-0.814049 0.266977 -0.782087)
(-0.751817 0.231693 -0.698493)
(-0.800194 0.255159 -0.751162)
(-0.562577 0.494698 -0.246556)
(-0.533532 0.495531 -0.228245)
(-0.57879 0.498642 -0.273546)
(-0.556649 0.507789 -0.26029)
(-0.566946 0.493446 -0.271024)
(-0.552143 0.498679 -0.266967)
(-0.528597 0.504121 -0.253232)
(-0.559173 0.522561 -0.327257)
(-0.570909 0.506077 -0.294803)
(-0.59731 0.469943 -0.320713)
(-0.552719 0.520996 -0.317787)
(-0.523023 0.509543 -0.278919)
(-0.589006 0.452479 -0.309271)
(-0.573046 0.472068 -0.355357)
(-0.579685 0.46977 -0.327932)
(-0.572788 0.523887 -0.323351)
(-0.555244 0.523552 -0.31938)
(-0.565832 0.524823 -0.339817)
(-0.757433 0.281375 -0.734472)
(-0.764542 0.272625 -0.770096)
(-0.840613 0.281436 -0.805746)
(-0.845926 0.254159 -0.773709)
(-0.851186 0.216749 -0.798149)
(-0.842652 0.240208 -0.820068)
(-0.81644 0.260971 -0.779882)
(-0.844179 0.237309 -0.786397)
(-0.811245 0.231405 -0.764823)
(-0.859152 0.24187 -0.798674)
(-0.856104 0.27348 -0.805688)
(-0.778631 0.256389 -0.792222)
(-0.61382 0.0476069 -0.626731)
(-0.679266 0.0327891 -0.674079)
(-0.711777 0.032844 -0.72431)
(-0.705163 0.0364995 -0.717975)
(-0.603848 0.0325754 -0.59151)
(-0.732171 0.0257366 -0.733472)
(-0.714965 0.0326137 -0.747396)
(-0.683158 0.0552877 -0.719247)
(-0.662488 0.0157304 -0.676429)
(-0.688744 0.0271144 -0.703924)
(-0.331937 0.136762 -0.153103)
(-0.326781 0.136193 -0.137157)
(-0.337031 0.146754 -0.16925)
(-0.333438 0.151206 -0.156589)
(-0.354546 0.149852 -0.183078)
(-0.341244 0.154161 -0.168004)
(-0.395283 0.114536 -0.222836)
(-0.417566 0.120058 -0.250883)
(-0.413104 0.107726 -0.256696)
(-0.417748 0.111233 -0.271135)
(-0.3632 0.121348 -0.184041)
(-0.319493 0.147576 -0.140048)
(-0.368197 0.15767 -0.184864)
(-0.378272 0.119941 -0.176891)
(-0.355167 0.122657 -0.150998)
(-0.381325 0.141123 -0.222646)
(-0.38617 0.149746 -0.211377)
(-0.34729 0.158909 -0.160672)
(-0.413953 0.127754 -0.239772)
(-0.414313 0.136008 -0.250821)
(-0.363908 0.142571 -0.165797)
(-0.571337 0.484766 -0.389472)
(-0.579934 0.469063 -0.411764)
(-0.562871 0.505472 -0.363477)
(-0.558574 0.537457 -0.336808)
(-0.572248 0.483938 -0.464511)
(-0.546746 0.521898 -0.430235)
(-0.584513 0.507588 -0.450782)
(-0.562885 0.527037 -0.437516)
(-0.59015 0.503734 -0.437667)
(-0.583131 0.51976 -0.413052)
(-0.581195 0.482349 -0.41989)
(-0.571072 0.481315 -0.428664)
(-0.551006 0.533524 -0.356944)
(-0.531487 0.536721 -0.407169)
(-0.572585 0.511497 -0.411561)
(-0.545549 0.533311 -0.395808)
(-0.543997 0.534211 -0.390104)
(-0.534911 0.536074 -0.389996)
(-0.536576 0.538818 -0.37157)
(-0.524166 0.546045 -0.336814)
(-0.55373 0.543829 -0.409902)
(-0.519919 0.535839 -0.366843)
(-0.697179 0.0312789 -0.783457)
(-0.688638 0.0513173 -0.77579)
(-0.706439 0.04533 -0.805038)
(-0.726151 0.0120535 -0.809542)
(-0.738409 0.0070862 -0.806693)
(-0.725339 0.0349122 -0.80448)
(-0.821446 0.025724 -0.844801)
(-0.857443 0.027719 -0.90019)
(-0.817538 -0.000104538 -0.842586)
(-0.741891 0.060569 -0.857513)
(-0.809987 0.0258206 -0.853749)
(-0.796922 0.00955051 -0.855291)
(-0.778534 0.0549029 -0.867107)
(-0.777339 0.028931 -0.862278)
(-0.532475 0.036653 -0.568311)
(-0.488295 0.0380628 -0.499391)
(-0.46528 0.0354082 -0.473036)
(-0.42889 0.0277626 -0.406568)
(-0.496199 0.0321224 -0.523125)
(-0.454829 0.0313293 -0.440924)
(-0.445577 0.0362123 -0.41045)
(-0.547276 0.0289671 -0.591515)
(-0.524935 0.0247856 -0.546399)
(-0.512782 0.0249811 -0.538829)
(-0.511409 0.0241572 -0.530728)
(-0.513596 0.0315091 -0.510446)
(-0.472311 0.0348907 -0.441211)
(-0.450071 0.0264081 -0.446121)
(-0.448808 0.0296099 -0.436149)
(-0.416048 0.0300445 -0.342074)
(-0.506709 0.0301228 -0.499433)
(-0.451252 0.02498 -0.401246)
(-0.444902 0.0218913 -0.402203)
(-0.44014 0.0284851 -0.388155)
(-0.881723 0.169634 -0.776516)
(-0.871851 0.178957 -0.770763)
(-0.815419 0.176824 -0.719457)
(-0.814813 0.188683 -0.725886)
(-0.83384 0.142588 -0.752038)
(-0.891451 0.14944 -0.799382)
(-0.79115 0.172086 -0.703305)
(-0.794722 0.166431 -0.702006)
(-0.872698 0.171709 -0.771248)
(-0.892842 0.161291 -0.788408)
(-0.860735 0.152851 -0.76679)
(-0.861324 0.150576 -0.775728)
(-0.829015 0.150135 -0.742306)
(-0.823977 0.162337 -0.734522)
(-0.784857 0.152221 -0.704313)
(-0.793481 0.144727 -0.707918)
(-0.744026 0.141854 -0.67677)
(-0.87947 0.159081 -0.783166)
(-0.840387 0.167926 -0.758836)
(-0.832724 0.163016 -0.748186)
(-0.660221 0.2367 -0.588795)
(-0.647289 0.240078 -0.584438)
(-0.59865 0.248124 -0.492786)
(-0.61913 0.254276 -0.516601)
(-0.723175 0.249075 -0.658058)
(-0.670005 0.231884 -0.589946)
(-0.59491 0.218186 -0.510347)
(-0.607355 0.213235 -0.517225)
(-0.625184 0.270868 -0.485846)
(-0.606146 0.262721 -0.47435)
(-0.641435 0.226164 -0.520977)
(-0.70531 0.258666 -0.633106)
(-0.593338 0.200257 -0.526826)
(-0.682407 0.236615 -0.602668)
(-0.600716 0.202969 -0.510735)
(-0.645496 0.244453 -0.512766)
(-0.64066 0.286519 -0.519784)
(-0.643414 0.244018 -0.568387)
(-0.628885 0.295779 -0.185031)
(-0.640156 0.302394 -0.18263)
(-0.64846 0.347703 -0.23803)
(-0.655577 0.345986 -0.22424)
(-0.599692 0.233207 -0.238089)
(-0.614621 0.273477 -0.182782)
(-0.60777 0.242648 -0.189931)
(-0.6418 0.313307 -0.183882)
(-0.637747 0.318948 -0.271289)
(-0.615065 0.254816 -0.256724)
(-0.784188 -0.0179384 -0.791116)
(-0.782673 -0.000213848 -0.841224)
(-0.82878 0.00353477 -0.888871)
(-0.818229 -0.00637575 -0.857161)
(-0.815041 -0.0127575 -0.831751)
(-0.797852 0.00307548 -0.812632)
(-0.78928 0.00855006 -0.826566)
(-0.862051 0.000643766 -0.858395)
(-0.839868 0.00441057 -0.843498)
(-0.711981 -0.0149111 -0.694767)
(-0.707217 -0.00329525 -0.722148)
(-0.703818 0.00420125 -0.696162)
(-0.661035 -0.0116203 -0.650383)
(-0.620367 0.00241028 -0.60201)
(-0.601786 0.0294156 -0.58073)
(-0.640019 -0.00872793 -0.638316)
(-0.661325 -0.00896594 -0.669267)
(-0.546585 0.021638 -0.537533)
(-0.544238 0.0439842 -0.542143)
(-0.595255 0.00212024 -0.568412)
(-0.54109 0.026156 -0.510729)
(-0.55422 0.019931 -0.537742)
(-0.587452 0.0120079 -0.594168)
(-0.566987 0.0223709 -0.572453)
(-0.559326 0.0282197 -0.5662)
(-0.550825 0.0313744 -0.539479)
(-0.564334 0.0417731 -0.560207)
(-0.849179 0.0998282 -0.780342)
(-0.737603 0.0978543 -0.674286)
(-0.796151 0.0981711 -0.739037)
(-0.821518 0.108709 -0.751234)
(-0.817633 0.111711 -0.724153)
(-0.812601 0.122862 -0.739812)
(-0.814361 0.115056 -0.75398)
(-0.820772 0.110677 -0.768649)
(-0.832784 0.0939956 -0.758717)
(-0.867186 0.0932661 -0.793741)
(-0.836552 0.116296 -0.776122)
(-0.798558 0.097808 -0.744596)
(-0.831044 0.115979 -0.766866)
(-0.851711 0.105587 -0.776107)
(-0.568415 0.338025 -0.444805)
(-0.566978 0.370633 -0.437874)
(-0.559852 0.315483 -0.405328)
(-0.567186 0.300154 -0.455155)
(-0.556862 0.333199 -0.463265)
(-0.571398 0.347453 -0.439018)
(-0.573011 0.361049 -0.460135)
(-0.575545 0.287015 -0.485706)
(-0.587698 0.328201 -0.51527)
(-0.581196 0.329851 -0.416482)
(-0.567673 0.295265 -0.473852)
(-0.568581 0.232848 -0.466607)
(-0.571833 0.232413 -0.47439)
(-0.570509 0.240166 -0.478691)
(-0.586746 0.0959934 -0.4627)
(-0.652755 0.105404 -0.562896)
(-0.652901 0.121177 -0.571328)
(-0.631551 0.103443 -0.535762)
(-0.587245 0.0974646 -0.486086)
(-0.556958 0.0928612 -0.42536)
(-0.555229 0.10826 -0.44099)
(-0.702824 0.10549 -0.639563)
(-0.657562 0.106071 -0.592851)
(-0.713679 0.124448 -0.669041)
(-0.700715 0.114968 -0.664101)
(-0.71596 0.128805 -0.673728)
(-0.720592 0.143619 -0.676429)
(-0.655284 0.120179 -0.556305)
(-0.697681 0.129572 -0.602125)
(-0.682529 0.140301 -0.616454)
(-0.625459 0.125306 -0.530691)
(-0.690311 0.104559 -0.634295)
(-0.635438 0.112015 -0.55454)
(-0.707668 0.121384 -0.656395)
(-0.452697 0.0839124 -0.312953)
(-0.455373 0.0871323 -0.319963)
(-0.418904 0.119782 -0.232459)
(-0.441294 0.088575 -0.331428)
(-0.462661 0.0638101 -0.372771)
(-0.478079 0.0619992 -0.366976)
(-0.397574 0.0916322 -0.232216)
(-0.379699 0.107435 -0.194053)
(-0.481404 0.0579145 -0.379805)
(-0.494959 0.055932 -0.395685)
(-0.426764 0.0798038 -0.301332)
(-0.463343 0.0689205 -0.352092)
(-0.431306 0.0795682 -0.326121)
(-0.576569 0.439157 -0.436638)
(-0.580009 0.470087 -0.456571)
(-0.57872 0.469621 -0.481556)
(-0.564943 0.47754 -0.441847)
(-0.584685 0.432637 -0.494637)
(-0.566707 0.378886 -0.456351)
(-0.553151 0.382396 -0.459698)
(-0.582934 0.44166 -0.497063)
(-0.561984 0.455599 -0.420075)
(-0.562725 0.388829 -0.446063)
(-0.444216 0.0752126 -0.199472)
(-0.430594 0.0827645 -0.170134)
(-0.446 0.0782911 -0.200229)
(-0.450375 0.0647208 -0.213451)
(-0.444428 0.0894871 -0.181609)
(-0.456092 0.0847853 -0.192379)
(-0.453402 0.0755235 -0.199593)
(-0.455745 0.0747216 -0.216429)
(-0.448087 0.0923097 -0.19961)
(-0.498777 0.111531 -0.279964)
(-0.485075 0.0925352 -0.260379)
(-0.469881 0.0601511 -0.273782)
(-0.503338 0.0677755 -0.321931)
(-0.537932 0.101325 -0.385494)
(-0.541651 0.07949 -0.402645)
(-0.527583 0.0781817 -0.348641)
(-0.547898 0.10086 -0.410575)
(-0.557513 0.0911453 -0.411265)
(-0.483925 0.103432 -0.23026)
(-0.514296 0.110049 -0.317384)
(-0.442182 0.156743 -0.349433)
(-0.435252 0.182233 -0.35249)
(-0.434184 0.144961 -0.286642)
(-0.418971 0.152196 -0.308832)
(-0.409336 0.140969 -0.259969)
(-0.361362 0.141582 -0.240434)
(-0.392986 0.158254 -0.288141)
(-0.352172 0.15097 -0.249974)
(-0.597548 0.30156 -0.243093)
(-0.596359 0.27517 -0.193495)
(-0.576413 0.236788 -0.310995)
(-0.591192 0.239137 -0.302191)
(-0.576737 0.23909 -0.304156)
(-0.615896 0.313774 -0.211467)
(-0.594386 0.259993 -0.246285)
(-0.590871 0.238299 -0.223447)
(-0.604129 0.279271 -0.24043)
(-0.613618 0.316397 -0.248055)
(-0.590621 0.235723 -0.187756)
(-0.591204 0.230002 -0.246744)
(-0.571135 0.261978 -0.105804)
(-0.559311 0.240792 -0.12967)
(-0.574068 0.285586 -0.123358)
(-0.591326 0.286591 -0.157652)
(-0.597066 0.333109 -0.146075)
(-0.551685 0.26624 -0.108348)
(-0.621849 0.326032 -0.192918)
(-0.581057 0.228519 -0.177306)
(-0.603852 0.323351 -0.140621)
(-0.890635 0.275303 -0.762134)
(-0.8536 0.281492 -0.757267)