/*--------------------------------*- C++ -*----------------------------------*\
| =========                 |                                                 |
| \\      /  F ield         | OpenFOAM: The Open Source CFD Toolbox           |
|  \\    /   O peration     | Version:  v1612+                                |
|   \\  /    A nd           | Web:      www.OpenFOAM.com                      |
|    \\/     M anipulation  |                                                 |
\*---------------------------------------------------------------------------*/
FoamFile
{
    version     2.0;
    format      ascii;
    class       volVectorField;
    location    "100";
    object      wallShearStress;
}
// * * * * * * * * * * * * * * * * * * * * * * * * * * * * * * * * * * * * * //

dimensions      [0 2 -2 0 0 0 0];

internalField   uniform (0 0 0);

boundaryField
{
    WALL
    {
        type            calculated;
        value           nonuniform List<vector> 
1517
(
(0.00919094 0.00747364 0.0240847)
(0.00893711 0.00256692 0.0246484)
(0.00559416 -0.00255814 0.00971437)
(0.00649096 -0.002169 0.0120876)
(0.0133326 0.00607832 0.0222248)
(0.013028 0.00393364 0.0219261)
(0.0121307 6.44065e-05 0.00609143)
(0.0129825 0.000603719 0.00598177)
(0.0173014 0.00373353 0.0208796)
(0.0148984 0.00469201 0.0102224)
(0.0148346 0.00347614 0.00870488)
(0.00684665 -0.00239436 0.00779271)
(0.00623815 -0.00247911 0.00718747)
(0.00694534 -0.00329327 0.00645493)
(0.00733252 -0.00293409 0.00557912)
(0.022197 0.00394122 0.0104735)
(0.0227401 0.00371392 0.00970939)
(0.00792177 -0.00144552 0.00710152)
(0.00761623 -0.00105084 0.00708195)
(0.00775377 -0.00181339 0.00706381)
(0.0077085 -0.00214892 0.00703455)
(0.0144429 0.0106282 0.02176)
(0.0170293 0.00819874 0.0232855)
(0.0139066 0.00747225 0.0137421)
(0.013866 0.00580306 0.0113253)
(0.0147351 0.00278424 0.00551353)
(0.0138521 0.00196378 0.00558397)
(0.0136608 0.00641271 0.0147914)
(0.0138214 0.00613309 0.0140779)
(0.00741282 0.00177573 0.00877527)
(0.00669924 -0.000162541 0.00803148)
(0.00733263 -0.000318328 0.00807521)
(0.00846927 -0.000454367 0.00638543)
(0.00962494 -0.000270488 0.00617503)
(0.0134928 0.0113367 0.0214305)
(0.0145472 0.00833706 0.023242)
(0.0110271 0.00440179 0.0231513)
(0.0117103 0.00647248 0.0223252)
(0.0148559 0.00256994 0.006288)
(0.0139317 0.00146068 0.00598881)
(0.0164718 0.00597375 0.0083944)
(0.0173929 0.00842572 0.0100934)
(0.016015 0.0045094 0.00833118)
(0.0208767 0.0104883 0.00743636)
(0.0197286 0.0104175 0.00823388)
(0.0228471 0.00667739 0.00709641)
(0.0219456 0.00688845 0.00792745)
(0.0218702 0.00541176 0.0089098)
(0.0225949 0.00527616 0.00834392)
(0.0153078 0.00880509 0.0119358)
(0.0147577 0.00724238 0.0140913)
(0.0139554 0.00851902 0.0107036)
(0.0153461 0.0085614 0.0108794)
(0.0176065 0.00714358 0.0125253)
(0.0211995 0.00611877 0.0146944)
(0.0239096 -0.000841966 0.0168479)
(0.0234349 -0.000502466 0.0170445)
(0.0175545 0.0051206 0.0177136)
(0.0206051 0.00522911 0.0181069)
(0.0113908 0.00383023 0.0249853)
(0.0105488 0.000962156 0.0231854)
(0.0226121 0.00404123 0.0154995)
(0.023008 0.00420554 0.0164529)
(0.0101464 0.000268404 0.00631477)
(0.00827912 0.000106585 0.00636371)
(0.00763997 0.00076671 0.010667)
(0.00722182 0.000554976 0.00989183)
(0.0151501 0.00577121 0.0105699)
(0.0148698 0.00365243 0.00929408)
(0.0159274 0.00634304 0.00547792)
(0.0177922 0.00771502 0.00686558)
(0.0078812 -0.00251684 0.00683849)
(0.00839925 -0.00216623 0.0066906)
(0.0077883 -0.00220834 0.00678324)
(0.00802583 -0.00232238 0.00649122)
(0.00828081 -0.00210491 0.00636602)
(0.00791211 -0.00250738 0.00695781)
(0.0133478 0.00709578 0.0146998)
(0.0137083 0.00786434 0.0159407)
(0.0135608 0.00909138 0.0170223)
(0.0127858 0.0070866 0.0156475)
(0.0132621 0.00687431 0.0131327)
(0.0133117 0.00684833 0.0135296)
(0.00994174 0.00687648 0.023969)
(0.00789738 0.00547904 0.0224657)
(0.00872083 0.00374398 0.0246703)
(0.00985328 0.00673596 0.023161)
(0.0100087 0.00469809 0.0253049)
(0.00828175 0.00485074 0.0247227)
(0.00914004 0.00638471 0.0238364)
(0.00915146 0.00312863 0.0260306)
(0.00670021 -0.00117177 0.00825825)
(0.00690626 -0.000839752 0.0088628)
(0.00694364 -0.00168305 0.00836206)
(0.00651065 -0.00101955 0.00857089)
(0.00691661 -0.000529964 0.00949813)
(0.0106136 0.000107732 0.00562686)
(0.0111581 0.00052435 0.00565714)
(0.0119948 0.000377595 0.0057132)
(0.0110225 -0.000187518 0.00602887)
(0.0104151 -0.000236083 0.00632958)
(0.0106285 -0.000431482 0.00616586)
(0.0125988 0.000706661 0.00590106)
(0.0136689 0.00398608 0.0230395)
(0.0132946 0.00579642 0.0240125)
(0.0119879 0.00326328 0.0217516)
(0.0135516 0.00221456 0.0224945)
(0.0133625 0.00509894 0.0232798)
(0.0137587 0.00201956 0.0232133)
(0.0183237 0.00842447 0.0077236)
(0.0178241 0.0080261 0.00721302)
(0.018476 0.00935229 0.00890098)
(0.0191828 0.00946427 0.00912236)
(0.0175049 0.00676651 0.00694908)
(0.0183113 0.00675615 0.00752938)
(0.0234543 0.00454244 0.00717705)
(0.0243915 0.00301125 0.00869951)
(0.0233846 0.0046075 0.00842844)
(0.0232563 0.00348296 0.00827128)
(0.0229306 0.00498161 0.0078305)
(0.024312 0.00265715 0.00882651)
(0.0213082 -0.00316266 0.0146273)
(0.018833 -0.003301 0.0167707)
(0.0202877 -0.00423199 0.0169435)
(0.0186521 0.00908465 0.00937913)
(0.0174663 0.00952268 0.00992162)
(0.0177505 0.00916895 0.00867768)
(0.0159848 0.00860749 0.0104638)
(0.0156288 0.00916203 0.00960532)
(0.0173403 0.00857826 0.0101559)
(0.0213269 0.00469161 0.0134346)
(0.0213406 0.00423818 0.0146199)
(0.0222116 0.00395916 0.0145905)
(0.0211113 0.00569674 0.0157229)
(0.0215053 0.00629096 0.0147774)
(0.0206865 0.00665513 0.0150247)
(0.0118675 -0.00666806 0.0220343)
(0.0114594 -0.00554763 0.0227947)
(0.0102437 -0.00493494 0.0232058)
(0.0115866 -0.00625193 0.0213913)
(0.01077 -0.00617045 0.0223626)
(0.00997942 -0.00460452 0.0225459)
(0.0085566 -0.000125835 0.00633142)
(0.00820881 -0.000155526 0.00651671)
(0.00819992 -0.000150543 0.00677057)
(0.0067051 -0.00380838 0.00711658)
(0.00622526 -0.00388884 0.00710857)
(0.00663755 -0.0039167 0.00708587)
(0.00642421 -0.00403126 0.00754578)
(0.00653103 -0.00351114 0.00666928)
(0.00628007 -0.00368306 0.00747072)
(0.0237386 -0.00231864 0.0173048)
(0.0233338 -0.00280161 0.0165534)
(0.0238277 -0.00426978 0.0180287)
(0.0243086 -0.00194206 0.0173903)
(0.0236424 -0.00144143 0.0173313)
(0.023196 -0.00386834 0.0175043)
(0.0194771 -0.00663417 0.0177554)
(0.0210585 -0.00591198 0.017699)
(0.0224532 -0.00562308 0.0180402)
(0.0210721 -0.00499237 0.0159826)
(0.01906 -0.0068382 0.0176635)
(0.0211329 -0.00628928 0.0177315)
(0.0220944 -0.00434477 0.0170661)
(0.0238965 -0.00245997 0.0165905)
(0.0224911 -0.00346777 0.0154728)
(0.0237261 -0.00210041 0.0164805)
(0.0226724 -0.00305438 0.0157066)
(0.0233391 -0.00151034 0.0158119)
(0.0235061 0.00341309 0.0165538)
(0.0238449 0.000660599 0.0169527)
(0.0232427 0.00102718 0.0155497)
(0.0239561 0.002283 0.0167281)
(0.0239655 0.00204273 0.0176847)
(0.0240217 3.07447e-05 0.0163983)
(0.018822 -0.00708225 0.0195232)
(0.0197129 -0.0065542 0.0187719)
(0.0167251 -0.00496618 0.0188824)
(0.0173988 -0.00525266 0.0177714)
(0.0179325 -0.00475227 0.0176559)
(0.0180476 -0.0048922 0.015633)
(0.0163349 -0.00447187 0.0182337)
(0.0109686 0.00244486 0.0161514)
(0.0114528 0.00265773 0.0177619)
(0.008266 0.00140637 0.014047)
(0.00899518 0.00258704 0.0148907)
(0.00764079 0.000132755 0.0129652)
(0.00894809 0.000956478 0.0140947)
(0.00653859 -0.000743559 0.0118864)
(0.00712069 -0.00202571 0.0125068)
(0.00660155 -0.00205957 0.0111033)
(0.00637534 -0.00299081 0.0106633)
(0.00605022 -0.00281378 0.0104829)
(0.00619705 -0.0025874 0.0113937)
(0.00619812 -0.00136037 0.0119845)
(0.00607164 -0.00220814 0.0113608)
(0.00822586 -0.000496825 0.015282)
(0.0063559 -0.00051724 0.0125757)
(0.00859351 1.25207e-05 0.0150665)
(0.00590156 -0.00318532 0.00938766)
(0.00566615 -0.00343869 0.00896693)
(0.00601301 -0.00337866 0.00972929)
(0.00617415 -0.00353592 0.00891619)
(0.00590403 -0.00369634 0.00870258)
(0.00596947 -0.00365354 0.00824943)
(0.0121749 0.0032328 0.0175312)
(0.0153231 0.00392152 0.0181391)
(0.0134653 0.00474115 0.0178962)
(0.0140254 0.00540526 0.0163584)
(0.0159341 0.00407732 0.0221625)
(0.0144506 0.00513613 0.0216946)
(0.0150811 0.00339168 0.0220824)
(0.0160588 0.0024032 0.0214975)
(0.015136 0.00452481 0.0220776)
(0.0159156 0.00238838 0.0210483)
(0.010889 -0.00415502 0.0231168)
(0.0105969 -0.00388323 0.0223321)
(0.00913504 -0.00127889 0.0239467)
(0.0103012 -0.00248842 0.0229096)
(0.0097683 -0.00311098 0.0236533)
(0.00906749 -0.00144851 0.0226413)
(0.0130183 -0.00768113 0.0210676)
(0.014066 -0.00824339 0.0205162)
(0.0118016 -0.00758243 0.021807)
(0.0122238 -0.00793895 0.0219979)
(0.0144232 -0.00836917 0.0201317)
(0.0128315 -0.00833183 0.0198115)
(0.0136371 0.00502414 0.0172544)
(0.014561 0.00484618 0.018209)
(0.0168324 0.00399998 0.0183369)
(0.0167753 0.00518538 0.0165284)
(0.0154134 0.00561012 0.018184)
(0.0239433 0.00276352 0.0178963)
(0.0238811 0.0018012 0.0176474)
(0.0225114 0.00366387 0.0172035)
(0.0234797 0.00117518 0.0168971)
(0.0232415 0.00288327 0.0178581)
(0.0212422 0.0041837 0.0154529)
(0.0214464 0.00476429 0.0159024)
(0.0207437 0.00501773 0.0168574)
(0.0232892 0.00299912 0.016073)
(0.0198569 0.00521735 0.0160493)
(0.0189412 0.00582737 0.0157267)
(0.0176062 0.00734802 0.0141894)
(0.015738 0.00730332 0.0136452)
(0.0181397 0.0068283 0.0130367)
(0.0203911 0.00655196 0.0141948)
(0.0160981 0.00653701 0.0140455)
(0.017143 0.00607387 0.0136515)
(0.0158942 0.00910877 0.0118057)
(0.0176224 0.00901952 0.0118467)
(0.0133894 0.00672116 0.010666)
(0.0176743 0.00852116 0.012572)
(0.0183909 0.00760725 0.0117149)
(0.0175626 0.00769489 0.0121996)
(0.0191688 0.0067533 0.0109445)
(0.0183361 0.0073507 0.0133339)
(0.0205632 0.00708208 0.0119536)
(0.0186946 0.00631519 0.0123921)
(0.0146487 -0.00372801 0.0208942)
(0.0141389 -0.002496 0.0214349)
(0.0124937 -0.001603 0.021669)
(0.0133248 -0.00308686 0.0216754)
(0.0146982 -0.00372754 0.0202208)
(0.0126843 -0.00177342 0.0218896)
(0.0221522 0.000332442 0.0130712)
(0.0229656 0.00277301 0.0133602)
(0.0232925 -0.000163724 0.0136854)
(0.0234174 0.00178223 0.0145616)
(0.0237265 0.00215729 0.0134982)
(0.0235958 -1.31778e-06 0.0146418)
(0.0168206 -0.00153198 0.0202227)
(0.016648 -0.00139256 0.0198423)
(0.0174019 -0.00187665 0.0183636)
(0.0169753 -0.00245422 0.0183001)
(0.0185057 -0.00275517 0.0178847)
(0.0187063 -0.00273123 0.017621)
(0.0214612 -0.00434246 0.0147878)
(0.0233901 -0.00308711 0.0149358)
(0.0224727 -0.00234969 0.0127848)
(0.0205216 -0.0042659 0.0165492)
(0.0220804 -0.0035029 0.014344)
(0.020405 -0.00412378 0.0144883)
(0.0220134 0.00809977 0.00837895)
(0.0213646 0.00710581 0.00863801)
(0.0200792 0.00841516 0.00815093)
(0.0208574 0.00803121 0.00904251)
(0.0233192 0.00917412 0.00693662)
(0.0217048 0.00963637 0.00694953)
(0.0174663 0.000206363 0.0195913)
(0.019392 -0.00114611 0.0177438)
(0.0189611 -0.000307793 0.0184227)
(0.0175327 0.000437822 0.0195789)
(0.0195997 -0.00110904 0.0173674)
(0.0180498 -0.000895696 0.0184566)
(0.0180428 0.0115256 0.00980695)
(0.0188285 0.0115738 0.0108502)
(0.0178395 0.0129778 0.0132852)
(0.0188543 0.0135817 0.0136915)
(0.0175716 0.0127269 0.0107956)
(0.0181199 0.0123608 0.011352)
(0.0167683 0.0051614 0.00655934)
(0.0168701 0.0064586 0.0067531)
(0.0174637 0.00641136 0.00732709)
(0.0160215 0.00485754 0.00662943)
(0.0160378 0.00461085 0.00748089)
(0.0154252 0.00367049 0.00687707)
(0.0168599 0.00738891 0.00848659)
(0.0158103 0.00593915 0.00755627)
(0.0156673 0.00466626 0.00784608)
(0.0156753 0.00370472 0.0073643)
(0.0120388 0.000982566 0.0233784)
(0.0108303 0.00323221 0.0224199)
(0.0120568 0.00401934 0.0242624)
(0.0110151 0.00245353 0.0234444)
(0.0116 0.00111506 0.0229742)
(0.0110721 0.00556097 0.0231653)
(0.0097982 0.00542571 0.0232472)
(0.0110812 0.00557321 0.0240411)
(0.0109014 0.00739721 0.0243837)
(0.0108513 0.00578462 0.0229422)
(0.0117959 0.00172249 0.0236072)
(0.0112775 0.0030047 0.0243083)
(0.0142039 0.0116606 0.0207822)
(0.0152147 0.0137091 0.0171964)
(0.0143539 0.0120781 0.0186544)
(0.0151928 0.0132439 0.0174995)
(0.0136326 0.0103456 0.0193124)
(0.015818 0.011321 0.0199126)
(0.0140724 0.0105997 0.0200088)
(0.014302 0.0106802 0.0228829)
(0.0134075 0.010114 0.0218553)
(0.0129701 0.0118588 0.0198739)
(0.0136258 0.0124794 0.0193201)
(0.013303 0.010964 0.0180209)
(0.013878 0.0104778 0.0221372)
(0.016177 0.0124202 0.0217408)
(0.0156382 0.0116674 0.0211986)
(0.0141279 0.0122397 0.0215323)
(0.0136161 0.00899208 0.0207471)
(0.0140692 0.0124983 0.0166067)
(0.0139144 0.0139219 0.0186116)
(0.0152569 0.0107914 0.0218887)
(0.0150251 0.0143496 0.0186917)
(0.0150112 0.0119568 0.0190324)
(0.0157843 0.0112565 0.0217945)
(0.0170139 0.0157536 0.015024)
(0.0154696 0.0150303 0.0182978)
(0.0146362 0.0135923 0.0168435)
(0.017226 0.013332 0.0155883)
(0.0168117 0.0133227 0.0179881)
(0.017983 0.0150674 0.0180843)
(0.0154281 0.0142361 0.0178973)
(0.0150841 0.0148644 0.0172805)
(0.0146024 0.0137592 0.0201313)
(0.0159638 0.0132129 0.0214951)
(0.0152623 0.0135957 0.0194164)
(0.0148084 0.0139899 0.0166531)
(0.0141139 0.00500284 0.0228537)
(0.014077 0.0015209 0.0223043)
(0.0148483 0.000630204 0.0211312)
(0.013777 0.00316034 0.0224595)
(0.0150803 0.0005267 0.0216815)
(0.0136566 0.00636462 0.0229544)
(0.0134565 0.00343017 0.0217275)
(0.0147791 0.00224273 0.0221758)
(0.0139839 0.0108264 0.0217034)
(0.0121317 0.00898087 0.0219807)
(0.0119774 0.00944697 0.0210554)
(0.01453 0.0100877 0.0216427)
(0.0122011 0.00838896 0.0207131)
(0.012988 0.0109056 0.0217473)
(0.0144626 0.00998964 0.00970768)
(0.0159511 0.00967464 0.0103355)
(0.0126629 0.00857347 0.00957321)
(0.0160349 0.0102559 0.00973814)
(0.0143481 0.0098532 0.00986434)
(0.0138225 0.0096631 0.0103007)
(0.0179105 0.0109114 0.00766173)
(0.0152932 0.0103572 0.00927987)
(0.0164557 0.0101064 0.00856813)
(0.0160039 0.00362526 0.00666542)
(0.0129299 0.000711358 0.00608626)
(0.0140327 0.00163368 0.00589523)
(0.012509 -0.000182111 0.0065404)
(0.0157451 0.00381682 0.00618474)
(0.0147584 0.00253087 0.00599617)
(0.014473 0.00149617 0.00644481)
(0.0151351 0.0026274 0.00602954)
(0.0105195 0.000202292 0.0057586)
(0.0111766 -1.03716e-05 0.00644422)
(0.00914925 -0.000337161 0.00645899)
(0.00896136 -9.63954e-05 0.00631709)
(0.00959944 -0.000407627 0.00617929)
(0.0129921 -0.000133144 0.00646674)
(0.0113831 -0.00106159 0.00604162)
(0.0121049 -0.00057345 0.00601023)
(0.0117603 -0.000750514 0.00641223)
(0.0108139 -0.00114627 0.00618387)
(0.01255 -5.32001e-05 0.00615379)
(0.00732739 -0.0034042 0.00636439)
(0.00814136 -0.00301344 0.00649991)
(0.00767743 -0.00331895 0.00653671)
(0.00719386 -0.00343551 0.00664781)
(0.00752471 -0.00316067 0.00609404)
(0.00774776 -0.00295577 0.00636917)
(0.0110088 -0.0016679 0.00626591)
(0.0107185 -0.00145271 0.00607207)
(0.0115925 -0.00100875 0.00598611)
(0.0118798 -0.000998501 0.00645308)
(0.0101732 -0.00209527 0.00621864)
(0.00994457 -0.00196232 0.00603043)
(0.00820402 -0.00237656 0.00577967)
(0.00994366 -0.001948 0.00599029)
(0.00940584 -0.00235632 0.00632226)
(0.00976642 -0.00194431 0.00590045)
(0.00933694 -0.00225492 0.00604471)
(0.0137709 0.000764076 0.00649133)
(0.013373 0.000909788 0.00624639)
(0.0130767 0.000458019 0.00618431)
(0.014107 0.00158457 0.00640281)
(0.014517 0.00177543 0.00661304)
(0.0128762 0.000196916 0.00614253)
(0.0075136 -0.000965253 0.00696384)
(0.00768517 -0.000846212 0.0073641)
(0.00747875 -0.00105507 0.00741071)
(0.00733941 -0.00084876 0.00765698)
(0.00741488 -0.000872244 0.00728144)
(0.00868664 -0.00126623 0.00702871)
(0.0079361 -0.00111713 0.00675545)
(0.0083944 -0.0010149 0.00631572)
(0.0087551 -0.00095402 0.00696334)
(0.00792384 -0.00100081 0.00676056)
(0.00574607 -0.00269834 0.00815811)
(0.00607543 -0.00272898 0.00898784)
(0.00603244 -0.00222634 0.00927652)
(0.00639166 -0.00286677 0.00956458)
(0.0060942 -0.00310822 0.00836978)
(0.00586599 -0.00249658 0.00874817)
(0.00695273 0.000930723 0.00895918)
(0.00717932 -5.43852e-05 0.00921932)
(0.0071218 0.00179382 0.00964696)
(0.00702078 0.000370764 0.00940917)
(0.00762991 0.000992164 0.0100785)
(0.00713948 2.10469e-05 0.00871027)
(0.00701562 0.00119837 0.00827716)
(0.00735408 0.00190847 0.00890441)
(0.00674914 0.00138596 0.00826744)
(0.00719923 0.00240718 0.00871378)
(0.00686684 0.00084753 0.00788844)
(0.0067068 -0.00112547 0.011162)
(0.00729725 0.00118595 0.0124964)
(0.0073022 -0.000422092 0.0124202)
(0.00721124 0.000422272 0.0123514)
(0.00639057 -0.000763047 0.0103681)
(0.00772121 0.00105162 0.0128206)
(0.010822 0.0029381 0.0151931)
(0.00959251 0.00230605 0.0147853)
(0.011837 0.00390736 0.0154604)
(0.0106686 0.00332119 0.0150172)
(0.00962924 0.00236788 0.014792)
(0.0125322 0.00147203 0.00567384)
(0.0122676 0.00133458 0.0059926)
(0.0110393 0.00067838 0.00608917)
(0.0115138 0.000832362 0.00597212)
(0.0120914 0.00170425 0.00562557)
(0.0105326 0.00076531 0.00584296)
(0.0162026 0.0144692 0.0121897)
(0.0170684 0.0156679 0.0128564)
(0.0166902 0.0161954 0.0144222)
(0.0183267 0.0140502 0.0128214)
(0.0170592 0.0140168 0.0149247)
(0.0168771 0.0129627 0.0121683)
(0.0169854 0.0148115 0.0142384)
(0.0171057 0.0169506 0.0140956)
(0.0147371 0.0151229 0.0158997)
(0.0181439 0.015949 0.017083)
(0.0156331 0.0164459 0.0170843)
(0.0169684 0.0146121 0.0170071)
(0.0174363 0.0128796 0.00866415)
(0.0182321 0.0145523 0.0124751)
(0.0181688 0.0142536 0.0103617)
(0.0188353 0.0134144 0.00927389)
(0.0186499 0.0145025 0.0124149)
(0.0189313 0.0144119 0.0105358)
(0.0197051 0.000881207 0.0186592)
(0.0191451 0.00182319 0.0197955)
(0.0213436 0.000616486 0.0180476)
(0.0161998 0.00594027 0.0215995)
(0.0148893 0.00697088 0.0208634)
(0.0149506 0.00898648 0.0217909)
(0.016593 0.00460376 0.0216201)
(0.0105081 0.00933364 0.0199481)
(0.00943763 0.00879129 0.0231209)
(0.0101827 0.00878125 0.0212542)
(0.0091967 0.00799954 0.0216508)
(0.0111106 0.00880196 0.0207763)
(0.0104913 0.00739083 0.0216318)
(0.00826325 0.00080911 0.0243081)
(0.00891722 -0.00213145 0.0241246)
(0.00821244 0.000925711 0.0253456)
(0.00890184 -0.00242889 0.0242956)
(0.00908297 -0.000462862 0.0252652)
(0.00791387 -0.00102859 0.0244335)
(0.00771795 -0.000115166 0.0257455)
(0.00769856 0.00281126 0.0251868)
(0.00748104 0.00341814 0.0244677)
(0.0071583 0.00149639 0.0253102)
(0.00773993 0.00210251 0.0251873)
(0.00754094 2.56477e-05 0.0254772)
(0.0149906 0.00630269 0.0135527)
(0.0142427 0.00654026 0.0114207)
(0.0145187 0.00543542 0.00964695)
(0.0146388 0.00461923 0.00969497)
(0.0148818 0.00510848 0.0100712)
(0.0137979 0.00581671 0.0119325)
(0.0141931 0.00568969 0.0112906)
(0.0159889 0.0044286 0.0110974)
(0.0105113 0.00855551 0.0212924)
(0.0116462 0.0100022 0.0193987)
(0.0105988 0.00732022 0.0194631)
(0.0130276 0.00800389 0.0199753)
(0.0103626 0.00952149 0.0199912)
(0.0127883 0.00923643 0.0192951)
(0.0137177 0.0083834 0.014806)
(0.014304 0.00649333 0.0139411)
(0.0129114 0.00605862 0.0126264)
(0.0117219 0.00733846 0.0242203)
(0.0103142 0.00836838 0.0219855)
(0.00924719 0.00806733 0.022556)
(0.0102583 0.00533963 0.0236909)
(0.0105762 0.00983771 0.0217059)
(0.0103203 0.00624938 0.0248255)
(0.01203 0.000688003 0.00651688)
(0.0130815 0.00139244 0.00727451)
(0.013715 0.00399096 0.00852558)
(0.0136651 0.00249131 0.00795127)
(0.0151489 0.00437312 0.00971305)
(0.0141565 0.0030341 0.00817477)
(0.00591518 -0.00399494 0.00821435)
(0.00560922 -0.00370733 0.0087854)
(0.00782591 -0.00266341 0.00537978)
(0.00826619 -0.00232589 0.00539978)
(0.0158303 0.0125186 0.0213603)
(0.0158518 0.0139114 0.0197622)
(0.0163189 0.0134615 0.0204351)
(0.0137173 0.0123151 0.0188566)
(0.0150976 0.00439345 0.00789469)
(0.0148169 0.0053832 0.00923424)
(0.016099 0.00565201 0.00881491)
(0.0151253 0.00690355 0.00903787)
(0.0157869 0.00679017 0.0103621)
(0.0153814 0.00417431 0.00890859)
(0.0136788 0.000504053 0.00687355)
(0.0130725 0.000271618 0.00672313)
(0.0140367 0.00102443 0.00712516)
(0.0140758 0.0020689 0.00734723)
(0.0138027 0.00139078 0.00714286)
(0.0145561 0.00222588 0.00767315)
(0.0117652 0.0075857 0.0177696)
(0.0111011 0.00821263 0.0195714)
(0.0107304 0.00882681 0.0178858)
(0.0115773 0.00745091 0.0161379)
(0.011124 0.00800175 0.0203042)
(0.0114903 0.00802358 0.0174667)
(0.00883157 0.00538711 0.0238256)
(0.00960626 0.00763495 0.0222233)
(0.00967536 0.00623796 0.0222125)
(0.00937695 0.00501965 0.0246883)
(0.00987403 0.00769529 0.0213409)
(0.00856696 0.00704118 0.022418)
(0.00730097 0.00517614 0.0234353)
(0.00654758 0.00233187 0.0240636)
(0.00764079 0.00413388 0.0251594)
(0.015895 0.00481678 0.00595605)
(0.0177657 0.00733233 0.00695884)
(0.0160542 0.00563627 0.00602012)
(0.0173576 0.00641209 0.00653087)
(0.0173654 0.0072384 0.00640085)
(0.0162318 0.00452582 0.00635994)
(0.0159365 0.00662704 0.00531334)
(0.017815 0.00808907 0.00700185)
(0.0173081 0.00915838 0.0059606)
(0.0169065 0.0096475 0.00714129)
(0.0175718 0.00941961 0.00777921)
(0.0170431 0.00763606 0.00643581)
(0.0165118 0.00611041 0.00602127)
(0.0175863 0.00862707 0.00709346)
(0.00687318 -0.00194916 0.00784263)
(0.00718795 -0.0022623 0.00709166)
(0.0070742 -0.00189396 0.00758266)
(0.00740191 -0.00205794 0.00740509)
(0.00670768 -0.00207447 0.00733323)
(0.00689251 -0.00275477 0.00698056)
(0.0067803 -0.00266449 0.00719888)
(0.00726941 -0.00271456 0.00661505)
(0.00693389 -0.00259707 0.00671191)
(0.00741521 -0.00273683 0.0070177)
(0.00692703 -0.00263882 0.00708555)
(0.00700753 -0.00250104 0.00743309)
(0.00663536 -0.00255276 0.00797151)
(0.00968189 -0.00129625 0.00680411)
(0.0104389 -0.000844122 0.0064403)
(0.0112182 -0.00132346 0.00694341)
(0.00881472 -0.00136262 0.00646297)
(0.00946355 -0.00187435 0.00685995)
(0.00895277 -0.0017093 0.00633553)
(0.00984907 -0.00146411 0.005919)
(0.0162444 0.0145277 0.0158007)
(0.014478 0.0133517 0.0192511)
(0.0135512 0.0113892 0.0172974)
(0.0159209 0.0121811 0.0162559)
(0.0168919 0.0127763 0.0186517)
(0.0159887 0.0120642 0.0193609)
(0.0150709 0.0119817 0.0154575)
(0.0162676 0.0136861 0.0155719)
(0.0173039 0.0125917 0.0155721)
(0.0155813 0.0141855 0.0161331)
(0.0151975 0.011523 0.0166539)
(0.0165687 0.0116751 0.0151835)
(0.0167083 0.00741649 0.00772771)
(0.0183934 0.00867423 0.00980321)
(0.0179086 0.00887594 0.00922587)
(0.0177412 0.00748427 0.00829451)
(0.0171784 0.00618255 0.00753147)
(0.0175595 0.00625174 0.00789259)
(0.017202 0.0122103 0.0144985)
(0.0185073 0.011866 0.0106269)
(0.0183559 0.0108151 0.0129418)
(0.0177648 0.0111915 0.0112313)
(0.0168642 0.0116995 0.0126655)
(0.0160912 0.0111331 0.0137119)
(0.0173609 0.0151151 0.0142575)
(0.0165644 0.0128827 0.0156686)
(0.0187678 0.0128745 0.0145661)
(0.0167416 0.0152371 0.0153619)
(0.015605 0.0126514 0.013241)
(0.0180592 0.0124841 0.0141238)
(0.0246758 0.00694516 0.00713799)
(0.0265719 0.00517754 0.00800787)
(0.0251153 0.0054569 0.00778266)
(0.0260475 0.00490797 0.00781011)
(0.0228347 0.00185025 0.0103545)
(0.0242378 0.00127194 0.0108665)
(0.0236105 0.00138864 0.0118125)
(0.0228661 -0.000279652 0.0121249)
(0.0230898 -0.000385603 0.0112156)
(0.0234616 -0.000839587 0.0119485)
(0.0222618 0.00521266 0.0121394)
(0.0229311 0.00347156 0.0114088)
(0.0224095 0.00413215 0.0113848)
(0.0215027 0.00594657 0.0107853)
(0.0224769 0.00541654 0.0106807)
(0.00755754 -0.00317101 0.00587489)
(0.00748657 -0.00302274 0.0058495)
(0.00699774 -0.00311878 0.00615356)
(0.00661328 -0.00345242 0.00607511)
(0.00659488 -0.00352449 0.00611343)
(0.00659767 -0.00317805 0.00562851)
(0.0211278 0.00668337 0.0104994)
(0.0194894 0.00718537 0.00992567)
(0.0203896 0.0067567 0.0107285)
(0.022775 0.00436958 0.0121116)
(0.0230479 0.00341851 0.0126812)
(0.0220776 0.00231997 0.0112404)
(0.022907 7.68538e-05 0.0118817)
(0.0231183 0.0031444 0.0106227)
(0.0242711 -0.000345957 0.0133981)
(0.0234587 0.00180775 0.0118017)
(0.0228429 0.00232163 0.0112191)
(0.02305 0.000932307 0.0112109)
(0.023589 0.00166527 0.0104311)
(0.0215085 0.00550923 0.00999452)
(0.0235161 0.00307896 0.00988459)
(0.0226244 0.00499682 0.00974633)
(0.024951 0.00383311 0.00839423)
(0.0249703 0.00398321 0.00762554)
(0.0256546 0.00555267 0.00767918)
(0.0267385 0.002938 0.00957027)
(0.0263571 0.00290876 0.00998163)
(0.0245028 0.00145202 0.0103357)
(0.0258671 0.00271347 0.00900435)
(0.0282829 0.00420355 0.0100935)
(0.0166047 0.0126184 0.0196173)
(0.0164825 0.0129093 0.0186969)
(0.015304 0.0125426 0.0139294)
(0.0168708 0.0140206 0.0149629)
(0.0102744 -0.00148514 0.0064297)
(0.00880906 -0.00156392 0.00656948)
(0.00739484 -0.00147734 0.00698027)
(0.00815919 -0.00153919 0.00695473)
(0.00885302 -0.0022654 0.00600766)
(0.00954174 -0.00181432 0.00615829)
(0.00991887 -0.00221405 0.00665842)
(0.00967664 -0.00197333 0.00646779)
(0.00983574 -0.0016297 0.00588645)
(0.00794085 0.00292614 0.010393)
(0.0093106 0.00363678 0.0131452)
(0.0131772 0.00250703 0.00534852)
(0.013021 0.00159002 0.0053255)
(0.0136039 0.00186321 0.00603109)
(0.0132441 0.00204272 0.00566188)
(0.0146194 0.00244499 0.00598308)
(0.0140967 0.00262102 0.00569953)
(0.0149234 0.00336444 0.00564301)
(0.0153649 0.00375094 0.00589486)
(0.0179007 0.00834816 0.00750924)
(0.00766194 0.00362518 0.0238415)
(0.0134855 0.000967274 0.00714445)
(0.0128681 0.000565411 0.0068703)
(0.0126684 0.000441917 0.00635721)
(0.0134236 0.000922195 0.00688249)
(0.012938 -4.67453e-05 0.00666146)
(0.0125325 -0.000146889 0.00628463)
(0.0136067 0.00158274 0.00763634)
(0.0133964 0.00152977 0.00732444)
(0.0145947 0.0098939 0.0212798)
(0.0150942 0.0133045 0.0217121)
(0.00594985 -0.00332768 0.0101649)
(0.0116343 -0.00068987 0.00608664)
(0.0121633 -0.00046429 0.00628138)
(0.00770281 -0.00284611 0.00573146)
(0.00873029 -0.00262264 0.00603266)
(0.0084011 -0.00248655 0.00567723)
(0.0110935 -0.00145648 0.00613009)
(0.0100199 -0.00185278 0.00578161)
(0.00939036 -0.00232555 0.00586194)
(0.0109564 -0.00112494 0.00599337)
(0.010253 -0.00181707 0.00599678)
(0.0095586 -0.00209683 0.00591673)
(0.0093566 -0.00207894 0.00567625)
(0.0113501 -0.00102961 0.00630491)
(0.0103385 -0.0013822 0.00580502)
(0.0118631 -0.000147549 0.00624706)
(0.0105995 -0.00121132 0.00594042)
(0.0111653 -0.000439496 0.00610149)
(0.0113959 -0.000219145 0.00624329)
(0.0127398 0.000955315 0.00677978)
(0.0121699 9.02959e-05 0.00659401)
(0.0123513 0.0100803 0.0212739)
(0.00998202 0.00845155 0.0201678)
(0.0108074 0.00856712 0.0210565)
(0.0122911 0.00857531 0.0161892)
(0.0118794 0.00841246 0.0188286)
(0.0133209 0.00858513 0.0148189)
(0.0120727 0.00854143 0.0142456)
(0.0130336 0.0100417 0.0157431)
(0.0127707 0.00877863 0.0166124)
(0.0151328 0.00869417 0.0136612)
(0.013454 0.00892361 0.0133172)
(0.013493 0.00938205 0.0143977)
(0.0143826 0.00748324 0.0118186)
(0.0138964 0.00783408 0.0149416)
(0.0133664 0.00774062 0.0136391)
(0.0137444 0.00801172 0.0136618)
(0.0146115 0.00688329 0.0128861)
(0.0137954 0.00530081 0.0104284)
(0.0139042 0.00521235 0.0117224)
(0.0139688 0.00241808 0.00869262)
(0.0145988 0.00368303 0.00847878)
(0.00955817 0.00699934 0.0233142)
(0.009309 0.00569554 0.0247748)
(0.0109322 0.00987565 0.0180196)
(0.0071316 0.000653183 0.025272)
(0.00819478 -0.0043485 0.0239663)
(0.00776636 -0.0010898 0.0248183)
(0.00795824 -0.00277385 0.0241597)
(0.00743033 -0.00192657 0.0247145)
(0.00809992 -0.00314948 0.0243702)
(0.0164989 0.00290507 0.0206221)
(0.0170819 0.00461178 0.0221109)
(0.0178836 0.00211723 0.0203127)
(0.0176309 0.00239502 0.0198595)
(0.0147568 0.0111806 0.0198039)
(0.0145964 0.0102259 0.0197078)
(0.0140252 0.010068 0.0213419)
(0.0167631 0.00561388 0.00660594)
(0.0157372 0.00414455 0.00648462)
(0.0170573 0.0107141 0.00759187)
(0.0170922 0.0146679 0.0192617)
(0.0178975 0.0167595 0.0130625)
(0.0175328 0.00932182 0.00819489)
(0.0170738 0.0105119 0.0081953)
(0.0192577 0.0118692 0.00933414)
(0.0186048 0.0128542 0.00888795)
(0.0181909 0.0125805 0.0107036)
(0.0158305 0.0147083 0.0115669)
(0.0116463 0.000580494 0.00613582)
(0.012314 0.000958397 0.0059683)
(0.0121088 0.0011152 0.00551898)
(0.00866876 0.00184105 0.0124953)
(0.00953258 0.00435841 0.0130184)
(0.00660216 0.000744589 0.0105826)
(0.00720363 0.00165481 0.0111854)
(0.0077241 0.000402652 0.0114815)
(0.00654996 -0.000174326 0.0101562)
(0.0069597 -0.00090915 0.010407)
(0.00842719 0.00199362 0.0134505)
(0.00710723 -0.00138677 0.0112545)
(0.00584598 -0.00144123 0.00948844)
(0.00725483 -0.000921819 0.0112106)
(0.00635527 -0.00202993 0.00975702)
(0.0145412 0.00675734 0.0149662)
(0.0116518 0.00468901 0.0140886)
(0.0119292 0.00405192 0.0150862)
(0.0120374 0.00439035 0.0134053)
(0.0158577 0.00689223 0.0148601)
(0.0115108 0.00490298 0.0128376)
(0.0123707 0.00617122 0.01363)
(0.012788 0.00655316 0.013083)
(0.0162013 0.00607573 0.0157826)
(0.0142404 0.00504669 0.015825)
(0.0183686 0.00633364 0.0167924)
(0.0154824 0.00663775 0.0158274)
(0.0140221 0.00511141 0.0153747)
(0.0154914 0.00538414 0.0160168)
(0.0181659 0.00551297 0.0179213)
(0.0194762 0.0069095 0.0178562)
(0.0176581 0.00709286 0.0172499)
(0.00774757 0.00305927 0.00921597)
(0.00665964 7.37142e-05 0.00754719)
(0.0076535 0.00371919 0.00908423)
(0.00979225 0.00537327 0.0109633)
(0.00978463 0.00527995 0.0102004)
(0.00834872 0.00436917 0.00941442)
(0.0116295 0.0068105 0.0113984)
(0.0103091 0.0070316 0.0103861)
(0.00940776 0.0060554 0.00967425)
(0.0111235 0.00807393 0.0107385)
(0.0105857 0.00477177 0.0127097)
(0.00900414 0.00349739 0.0110278)
(0.0103254 0.00465227 0.0116685)
(0.00991879 0.00563387 0.0105526)
(0.0108925 0.00681739 0.0113971)
(0.0155391 0.00733902 0.0148648)
(0.0125202 0.00584589 0.0128463)
(0.0145715 0.00701058 0.0134523)
(0.00767077 -0.00269222 0.00611387)
(0.00825091 -0.00250726 0.00626363)
(0.00775982 -0.00284007 0.00718316)
(0.00687619 -0.00158435 0.00761467)
(0.0070271 0.00034183 0.00891043)
(0.00730672 -0.000413499 0.00828458)
(0.00693674 -0.000787033 0.00757943)
(0.00690996 -0.000348225 0.00816057)
(0.00674379 -0.00132737 0.00750889)
(0.0071794 -0.00116401 0.00820436)
(0.00716795 -0.00105784 0.00753429)
(0.0069883 -0.000774612 0.00799608)
(0.00718546 -0.00162255 0.00726237)
(0.00768174 -0.00142972 0.00746083)
(0.00717556 -0.00138714 0.00770739)
(0.00735286 -0.00138665 0.00742452)
(0.0067243 -0.00211534 0.00932193)
(0.00605243 -0.000733552 0.00903752)
(0.00675025 -0.000330124 0.0106372)
(0.00661833 -0.00190623 0.00837916)
(0.00661009 -0.00282001 0.00733486)
(0.00673169 -0.00271393 0.00807399)
(0.00619304 -0.00154462 0.00780494)