/*--------------------------------*- C++ -*----------------------------------*\
| =========                 |                                                 |
| \\      /  F ield         | OpenFOAM: The Open Source CFD Toolbox           |
|  \\    /   O peration     | Version:  v1612+                                |
|   \\  /    A nd           | Web:      www.OpenFOAM.com                      |
|    \\/     M anipulation  |                                                 |
\*---------------------------------------------------------------------------*/
FoamFile
{
    version     2.0;
    format      ascii;
    class       surfaceScalarField;
    location    "206";
    object      phi;
}
// * * * * * * * * * * * * * * * * * * * * * * * * * * * * * * * * * * * * * //

dimensions      [0 3 -1 0 0 0 0];

internalField   nonuniform List<scalar> 
41250
(
-7.96372e-09
1.71561e-08
-1.06809e-08
1.48841e-09
5.29933e-09
-7.57178e-09
-8.52718e-09
1.07996e-08
-1.63644e-09
-6.41587e-09
2.66724e-09
5.38502e-09
-7.13151e-09
4.0027e-09
3.77395e-10
2.75142e-09
8.4832e-09
-4.84412e-09
-1.07706e-08
2.56764e-09
2.51405e-09
5.95982e-10
-5.67769e-09
7.60298e-09
-8.7333e-09
1.14415e-08
7.05298e-09
-1.06229e-09
-6.93669e-09
9.45939e-10
1.05222e-08
-6.23084e-10
-2.84619e-09
-2.97058e-09
1.23285e-08
1.16428e-09
1.37963e-08
-1.22423e-09
-1.31212e-08
5.49123e-10
8.11276e-09
-3.09593e-10
-8.86549e-09
-1.00295e-09
6.14512e-09
-2.9786e-10
6.15948e-09
7.9346e-09
7.08483e-09
9.16791e-09
-1.65506e-08
-8.09823e-09
9.13731e-09
6.04569e-09
1.39064e-09
2.83959e-09
5.64211e-10
-6.64104e-09
5.76723e-09
-3.08812e-09
-3.94332e-09
6.22553e-10
6.40887e-09
-8.81883e-10
-6.43041e-09
4.22421e-09
6.44662e-09
-7.10664e-09
3.75623e-09
-1.25298e-09
4.35927e-09
5.55639e-09
5.82859e-10
-6.4705e-09
3.55718e-09
2.33044e-09
-5.07224e-09
2.53321e-09
3.12186e-09
2.07446e-09
-1.25527e-09
-7.28968e-09
-3.43862e-09
4.40842e-10
2.07812e-09
-4.6704e-09
4.56878e-09
-1.97652e-09
3.23766e-09
-1.31643e-09
1.56892e-10
-3.62939e-09
1.49216e-09
-3.66113e-09
3.60961e-09
3.28924e-09
1.61886e-10
7.45742e-10
5.28243e-09
9.1864e-10
-6.03921e-09
-7.90806e-10
1.0685e-10
5.9664e-09
6.84901e-09
3.16728e-09
-4.43831e-09
-5.57799e-09
-7.29034e-10
6.78721e-09
-6.34377e-10
4.35086e-09
-9.53716e-09
2.02198e-10
8.6059e-09
-3.40956e-09
-2.9603e-09
8.5907e-10
6.20279e-09
-6.85964e-09
2.03825e-09
-2.32808e-10
-4.89634e-09
5.04397e-09
-3.44968e-09
3.67437e-09
-5.88939e-10
-8.22468e-10
-4.47559e-09
3.09073e-09
-1.50656e-09
2.8913e-09
7.08503e-10
-2.95237e-09
-2.23176e-09
-4.46728e-09
-2.223e-09
7.39875e-09
4.07748e-09
5.89652e-10
-1.57639e-09
1.66381e-09
-1.47539e-09
-3.14084e-09
2.36435e-10
-7.92851e-11
-4.26081e-09
1.3465e-09
3.96163e-09
-1.04722e-09
1.97873e-09
7.10479e-10
-2.54413e-09
-1.45085e-10
1.38022e-09
-1.06844e-09
-7.53851e-11
1.63969e-09
-4.10594e-09
9.9084e-10
-2.4632e-09
-1.04604e-10
-1.69297e-09
-5.2908e-09
-2.06448e-09
2.83672e-09
5.74262e-10
-8.94886e-10
-1.27417e-09
-8.87336e-09
4.43329e-10
3.92807e-09
4.50208e-09
-6.98456e-09
1.08445e-08
1.95976e-09
-5.81961e-09
-8.41828e-09
4.98099e-09
-1.17955e-09
4.61689e-09
-1.4909e-09
-8.72812e-09
1.8007e-09
-3.65189e-09
-4.2569e-09
-9.64501e-10
-5.41673e-09
-5.21972e-09
-2.58334e-09
-2.95373e-09
-7.21803e-10
6.25895e-09
-5.82568e-09
3.6857e-09
-1.87445e-09
3.90385e-09
-4.98307e-09
2.22466e-09
9.50181e-09
-5.41663e-09
-4.80698e-09
-4.42269e-09
4.91186e-09
-4.74607e-09
-1.1019e-08
-7.14876e-10
-1.98892e-10
-1.00057e-09
-7.07631e-09
-6.85993e-09
1.49368e-08
-7.81775e-09
-2.884e-09
-4.65568e-10
1.11673e-08
-5.26385e-10
-7.55121e-09
2.59857e-10
1.70565e-08
-8.69829e-09
-9.35879e-09
3.15861e-09
1.09962e-08
2.90167e-09
-6.51403e-09
2.3495e-09
8.47959e-09
-4.31506e-09
6.93351e-09
-6.64907e-09
-7.36076e-09
2.59743e-10
1.5973e-10
-9.36097e-09
9.6356e-09
-5.40334e-09
7.28727e-09
-5.76489e-09
-1.64834e-10
8.30117e-10
-1.05951e-08
2.21377e-09
-1.21062e-08
3.57532e-09
9.5946e-10
2.58073e-09
-1.01893e-08
3.27182e-09
-1.10107e-08
-4.41698e-10
-2.63683e-09
-7.51659e-09
-9.27606e-09
5.6748e-09
-5.73091e-09
1.69652e-10
-4.91198e-09
-8.91734e-10
9.80643e-09
9.44411e-09
-9.15791e-09
-5.19816e-09
8.75605e-09
3.09128e-09
-3.36413e-09
7.75355e-09
1.77723e-09
-4.45834e-09
-5.07241e-09
7.69499e-10
-1.87884e-09
1.05535e-08
3.03989e-10
-5.12818e-09
7.39849e-09
-2.5743e-09
-8.83761e-10
2.70842e-09
1.35123e-09
-3.17581e-09
-2.55793e-09
1.32026e-09
3.53898e-10
-3.61885e-10
-2.09948e-09
-9.46319e-11
1.19162e-09
-3.25986e-10
-3.58277e-09
2.7172e-09
3.57508e-09
3.25053e-10
-2.34371e-09
-1.02874e-09
7.89974e-10
2.58321e-09
-8.96846e-10
-8.69008e-10
-5.77493e-10
-9.08938e-10
9.83383e-10
1.24666e-09
3.95096e-09
-2.47666e-09
-2.37088e-09
2.59636e-09
-1.04317e-09
1.53711e-09
2.96129e-10
-6.88086e-10
-4.45096e-10
9.11425e-11
-1.24097e-09
-3.15777e-10
1.22646e-09
-2.93062e-10
-1.29353e-09
-1.26293e-10
-2.79799e-10
-1.25334e-09
-3.18052e-09
4.23995e-10
1.26584e-09
-6.03107e-09
9.97752e-09
-5.21233e-09
-7.63714e-09
1.26301e-08
-3.72717e-09
-2.08735e-09
5.34623e-09
-9.28995e-09
6.84983e-09
-1.65743e-08
1.37558e-08
-1.34111e-08
1.60567e-09
-1.95043e-09
-1.09901e-08
7.07669e-09
1.76692e-08
6.33493e-09
8.08862e-09
-1.79345e-09
-7.86861e-09
3.21345e-09
-1.18306e-08
-9.44912e-09
2.18974e-09
-7.17047e-09
9.20427e-09
-1.66829e-09
-3.5581e-09
7.80405e-09
3.84266e-09
7.25515e-09
-8.35721e-10
9.70766e-09
-8.55336e-09
4.51414e-10
-3.9712e-09
2.07555e-08
-7.75319e-09
1.15861e-08
-1.41831e-09
9.20285e-10
-7.67382e-10
-8.63865e-09
8.87537e-09
-4.89504e-10
2.52765e-10
-2.05596e-09
1.53168e-09
-8.11435e-09
1.40525e-09
5.4332e-09
2.03691e-09
6.0837e-09
-4.87016e-10
-7.65264e-09
5.71638e-09
-1.22192e-10
-8.39109e-09
6.64748e-09
3.14889e-09
-2.78956e-10
-6.58047e-09
-5.49259e-09
5.32295e-09
5.60284e-09
3.16179e-10
-9.23872e-11
-7.4521e-10
1.02514e-08
2.13831e-09
-1.16445e-08
5.10573e-09
-6.33795e-09
-1.1255e-09
9.67737e-09
-3.22891e-09
7.19245e-10
1.12369e-08
-1.70475e-09
6.10358e-09
-2.78599e-10
1.37718e-08
1.20755e-09
-3.74247e-09
6.48082e-10
9.2265e-09
3.89716e-09
1.06316e-08
-8.77229e-09
-1.37946e-08
4.2156e-09
1.02271e-08
-1.95545e-09
9.73757e-09
5.88172e-09
-1.12366e-08
-7.59478e-09
1.29497e-08
-6.43483e-10
5.9007e-09
6.24516e-10
-8.96098e-11
-5.14716e-10
-1.06323e-08
-8.13616e-09
4.35888e-09
4.88847e-09
-1.11117e-09
-4.93027e-10
-7.73274e-09
5.28558e-09
-1.79333e-10
-5.62095e-09
4.16733e-09
4.74753e-10
2.87823e-09
-6.03277e-09
7.59131e-09
-4.43675e-09
-2.4902e-09
-4.08054e-09
9.44894e-09
-3.2538e-09
5.12246e-09
-4.76713e-09
7.98918e-09
2.30261e-09
-5.52464e-09
-4.77672e-09
-4.83426e-10
-5.57751e-09
5.10577e-11
5.34714e-09
-2.50667e-09
6.41248e-10
-3.0848e-09
6.02131e-09
-7.01708e-09
1.65052e-09
1.76051e-09
-1.64347e-09
1.01529e-08
-1.027e-08
-9.62195e-09
-5.34648e-10
1.19171e-08
-6.07775e-09
-4.17686e-09
6.32658e-10
-6.45437e-09
-4.06026e-10
5.21689e-09
4.84686e-09
-5.13101e-09
-5.77187e-09
6.056e-09
-9.94304e-10
-6.13215e-10
-7.24458e-09
-4.26019e-09
5.42703e-09
4.62907e-09
-2.8799e-10
-1.15857e-08
-1.91913e-08
1.16815e-08
3.24962e-09
3.16603e-09
-1.77283e-08
-1.81043e-09
-8.8176e-09
1.00934e-08
-8.55485e-09
6.33837e-09
-6.06994e-09
-7.65859e-09
5.17368e-09
-6.19519e-09
-8.69082e-10
3.09171e-09
-8.51072e-09
2.5388e-09
-5.64231e-09
-3.59002e-10
-4.76081e-09
-6.95831e-09
9.82217e-09
-4.15129e-09
1.48626e-10
-7.07372e-09
2.69302e-10
6.65578e-09
-9.12881e-09
3.69551e-10
8.90786e-09
-6.29379e-09
-5.24213e-09
4.639e-09
6.89689e-09
-5.22474e-09
-9.55713e-10
-1.13351e-10
5.93101e-09
-5.06432e-09
-6.09144e-09
6.72023e-10
1.68627e-11
-6.98224e-09
6.91877e-09
-7.01025e-09
-1.06148e-08
-5.49627e-09
-2.09144e-11
4.92924e-09
-6.77184e-09
7.12047e-09
5.08514e-09
-5.76161e-09
-2.79267e-10
3.86428e-09
-1.09872e-08
2.05863e-09
-1.04261e-09
-2.851e-09
-6.72119e-09
-7.42395e-09
5.73726e-09
5.3631e-09
-7.26044e-09
-3.10345e-09
-2.26655e-10
-2.20092e-09
1.98271e-09
4.44536e-10
-6.68029e-10
-9.14796e-10
1.49892e-09
8.34717e-11
-1.65186e-10
-2.0062e-09
1.93181e-09
2.39086e-10
-2.40291e-09
2.01103e-09
-9.96295e-10
-2.1259e-09
9.21093e-10
-1.6391e-09
-2.54265e-11
-1.98144e-09
1.04119e-10
2.28662e-10
1.64849e-09
-5.89135e-10
-1.81274e-09
4.19808e-10
-1.49356e-09
-1.07064e-11
-2.71121e-09
6.96845e-10
-1.11559e-10
4.12121e-10
-2.31419e-09
9.39654e-12
-2.42036e-09
5.98075e-10
2.50104e-10
-1.73446e-09
-5.7366e-10
-2.60242e-09
4.64601e-10
-1.96285e-09
-2.62276e-09
9.16628e-10
9.68069e-10
-1.08765e-09
-2.48336e-09
-1.04681e-09
5.18348e-11
-1.71088e-09
-4.47227e-10
7.77114e-09
-4.20959e-09
7.08175e-09
-1.06433e-08
-1.75666e-09
8.91503e-09
6.12759e-10
4.69654e-09
4.69615e-10
-9.37576e-09
3.62806e-09
-6.88194e-10
3.877e-09
3.96705e-09
-3.98968e-09
-3.85439e-09
1.10027e-09
2.73186e-09
4.48534e-11
-2.94871e-09
-4.17564e-09
1.10914e-08
6.24575e-10
3.37854e-09
3.07862e-09
4.36371e-09
5.17588e-09
4.57877e-09
1.49555e-10
-1.42919e-08
5.51829e-09
1.13604e-08
-2.58684e-09
-7.63863e-09
1.23148e-09
-7.88477e-09
3.81832e-09
-7.33839e-09
-6.76901e-09
2.60227e-09
2.57981e-09
-2.45022e-09
2.64063e-09
6.30186e-09
-7.36788e-09
9.38646e-10
1.19475e-08
-2.75786e-09
6.18154e-09
-4.9524e-10
3.20271e-09
-2.98377e-09
2.75891e-10
1.73982e-09
-1.04673e-09
4.02835e-10
-1.09652e-09
1.45778e-09
-2.13607e-10
-3.94208e-10
8.00372e-10
2.79536e-09
-3.41813e-09
7.43437e-10
2.27935e-09
-1.27755e-09
1.13565e-09
-3.2763e-09
-2.59187e-09
2.06387e-09
-1.18663e-09
1.71447e-09
1.45496e-09
-2.50323e-09
-1.54367e-09
-7.61418e-11
1.52863e-09
5.08064e-12
9.89962e-10
-1.15409e-09
8.78451e-11
1.45568e-09
7.42585e-10
2.72975e-10
3.24653e-09
1.2414e-09
-2.23935e-09
-1.50536e-09
-7.45413e-11
1.29232e-10
5.0702e-10
1.82175e-09
-8.56081e-10
1.63595e-09
5.92818e-11
-8.05159e-10
-1.39454e-09
4.14433e-09
-4.04166e-09
5.43773e-09
-2.00707e-09
6.11075e-10
-9.81607e-10
4.28708e-09
1.72298e-09
-7.65458e-10
-6.45429e-09
-8.64023e-09
1.58599e-08
6.29642e-09
7.13803e-09
-1.46017e-08
1.16713e-09
1.07404e-08
-5.20942e-09
1.16787e-08
9.12509e-09
-1.36658e-08
3.27115e-09
8.40712e-09
4.4017e-13
-1.80924e-08
5.33641e-09
2.33386e-08
-1.05826e-08
-1.7572e-08
3.72952e-09
-4.24991e-09
-5.66332e-09
6.54013e-09
2.39446e-09
2.00807e-09
3.069e-09
-1.51838e-08
1.267e-08
1.09208e-08
-2.67378e-10
-5.79128e-09
8.94406e-09
-1.42339e-08
-1.22822e-08
-1.42954e-08
8.37206e-09
1.85934e-08
-5.61874e-09
2.02486e-08
-1.94834e-08
2.12508e-08
-7.60339e-09
5.83596e-09
-1.10806e-08
-2.01296e-08
1.17268e-08
-1.22745e-08
2.68526e-09
1.03486e-08
-7.59422e-10
-7.09251e-09
-5.7927e-09
6.10714e-10
1.40599e-08
9.2718e-09
-8.53937e-09
-1.47923e-08
1.64003e-08
3.44834e-10
2.08072e-08
-1.16102e-09
-1.03744e-08
1.3411e-08
-3.08799e-09
1.04842e-08
1.2819e-08
1.08471e-08
-2.41532e-09
-9.60523e-09
7.72588e-09
-5.72405e-09
2.32986e-09
-2.30156e-08
-1.3302e-08
1.15604e-08
1.01293e-08
-1.13411e-08
-1.68917e-08
9.52211e-09
4.3837e-09
2.98585e-09
-1.03269e-08
7.9983e-09
1.49348e-08
-9.69296e-09
2.67301e-09
-3.67976e-10
7.38793e-09
-1.28406e-10
-8.97479e-09
-5.89773e-10
1.10301e-08
-1.04194e-08
-7.39079e-10
-4.54316e-10
1.41574e-08
8.47123e-09
4.84107e-09
2.21008e-09
5.42025e-09
-9.28544e-09
1.10412e-08
8.22789e-09
3.95722e-09
-2.81616e-09
3.14302e-09
-1.34667e-08
-1.02202e-08
2.4963e-09
-2.33487e-09
-1.10598e-08
-8.38111e-09
-1.6771e-08
3.97584e-10
-8.28572e-09
1.86463e-09
-1.25806e-08
-2.16394e-09
-8.44484e-09
-7.8474e-09
1.33775e-10
-8.09544e-09
2.38593e-09
5.57578e-09
-5.91995e-09
4.33677e-09
1.71688e-09
-3.33831e-10
-2.79053e-09
-2.79553e-09
-4.24948e-09
-4.17979e-09
4.41651e-09
7.49973e-10
3.05046e-09
-8.21689e-09
4.86397e-09
-3.23795e-09
-2.89402e-10
4.12882e-09
4.97292e-10
3.61773e-09
-7.11729e-09
4.44564e-09
-2.05982e-09
2.4782e-09
-3.07508e-10
4.46371e-09
-6.04395e-09
2.96494e-09
1.01925e-09
1.95485e-09
-4.94832e-09
2.17973e-10
-7.47499e-09
7.40098e-09
-1.44011e-10
-6.17866e-09
6.08912e-09
7.97114e-09
-1.88622e-09
-4.13009e-09
4.75743e-09
-5.74346e-09
-7.98576e-09
1.42225e-08
2.08468e-09
-8.32105e-09
-5.42441e-09
1.09712e-09
-3.65819e-09
-1.30984e-08
1.41225e-08
-1.0849e-08
9.82504e-09
-6.18268e-09
-3.65856e-09
-3.25713e-09
-5.15553e-09
1.2737e-08
6.54099e-09
3.01004e-09
-7.09161e-09
8.63534e-09
-4.55358e-09
3.47109e-10
-1.35331e-09
4.01635e-09
1.95329e-09
1.62993e-10
-7.5405e-09
-1.18994e-08
-9.87425e-09
1.19024e-08
9.8713e-09
-1.55962e-08
-2.48582e-09
6.0391e-10
-3.80611e-09
5.61741e-09
-4.30361e-09
-1.691e-08
-3.9097e-09
-1.22254e-08
7.97616e-09
-5.42413e-11
8.68448e-09
1.35026e-08
-1.12347e-08
-1.09523e-08
1.29654e-08
-1.88645e-09
5.07794e-09
7.69709e-09
1.90346e-10
1.12797e-08
7.30089e-09
5.44979e-09
-1.46765e-08
7.45298e-09
-3.51691e-09
7.34369e-09
1.49754e-08
-7.00743e-10
-8.82479e-09
5.74253e-09
-4.82211e-09
6.77668e-09
-1.5363e-09
1.47319e-08
4.27218e-09
1.11542e-08
9.46932e-09
1.81414e-08
6.05942e-09
5.39905e-09
1.62697e-08
-1.08921e-08
-6.07833e-09
-1.16062e-08
1.95392e-08
1.07229e-08
3.2639e-09
-2.09186e-09
-2.13865e-09
9.66984e-10
-1.40438e-09
8.25647e-10
3.84281e-09
4.92799e-09
-1.50341e-08
-1.97097e-09
1.20771e-08
-9.89029e-09
8.05691e-10
1.40126e-08
1.52384e-09
-3.36534e-09
-2.49606e-10
-1.34734e-09
1.46723e-09
5.82347e-10
-6.28311e-09
-9.33327e-09
-4.09769e-09
-5.21018e-09
-3.33764e-09
4.96915e-09
-4.70267e-09
-7.73571e-10
1.8657e-10
-6.17733e-09
4.01983e-09
-3.98305e-09
2.82189e-09
3.25291e-09
1.92495e-09
9.70003e-11
-5.27448e-09
2.38594e-09
-3.23059e-09
-4.57201e-09
-7.88828e-09
-2.48478e-09
1.68122e-10
1.4194e-09
-1.97892e-09
4.90747e-10
-2.23329e-09
-2.24037e-09
-1.45459e-09
-6.70817e-09
-1.08485e-08
7.95154e-09
-7.42995e-09
1.45663e-09
-1.80292e-08
-1.43988e-08
6.00242e-09
1.13822e-08
-3.41333e-09
-3.03397e-09
-1.40144e-08
1.54216e-08
9.44001e-09
-1.56778e-09
-6.61065e-09
-9.77701e-09
1.24736e-08
-6.10993e-09
6.99459e-09
-1.5315e-08
-6.38253e-09
1.7632e-08
1.22405e-09
1.22592e-08
-1.27779e-08
-5.86385e-09
9.08389e-09
7.41129e-09
1.13686e-09
9.75181e-09
1.15913e-08
2.97017e-09
2.06793e-08
-7.35109e-09
3.89147e-09
9.52222e-09
1.66135e-08
4.80632e-09
-8.09333e-09
1.24542e-08
-9.16695e-09
-6.76442e-09
-6.34541e-09
1.79164e-08
5.7651e-09
3.40382e-09
-1.72622e-08
9.21718e-09
-1.14606e-08
8.00854e-09
1.35911e-09
-9.08745e-10
1.20039e-08
-1.19416e-08
2.0345e-08
-1.97935e-08
1.13901e-08
1.08029e-08
-2.65426e-09
1.60053e-08
-2.41539e-08
7.55303e-09
-5.10014e-09
1.1728e-08
-2.02658e-08
-5.47448e-09
1.58062e-08
1.38032e-10
-1.04697e-08
1.44669e-08
-1.37979e-09
-1.06796e-08
9.7091e-09
1.17734e-08
6.79502e-09
-1.71357e-09
-1.5761e-08
6.08428e-09
1.16065e-08
1.36327e-08
6.91842e-09
1.48572e-08
-5.09153e-10
1.90918e-08
-1.71056e-09
-4.68703e-09
1.1072e-08
7.54586e-09
-4.57192e-09
6.54507e-10
3.57563e-09
-6.55067e-10
7.64249e-09
-9.94187e-10
-4.39988e-09
-2.24849e-09
8.32037e-09
5.64829e-09
-6.32612e-09
-1.94493e-09
-2.83396e-09
3.78462e-09
2.64454e-09
-6.68102e-10
-2.70863e-09
4.0636e-09
5.8444e-09
-3.43746e-09
-1.05545e-09
-2.09166e-10
8.42605e-09
-4.31755e-09
1.0761e-08
8.73716e-09
-1.49148e-09
1.20436e-08
6.52934e-10
7.03019e-09
6.37252e-10
9.58613e-09
-1.04246e-08
1.16399e-08
-6.254e-09
9.15806e-09
-1.45439e-08
-2.69988e-09
1.19895e-08
2.35023e-09
7.5029e-09
2.15112e-09
-1.5908e-08
5.95675e-09
-1.15373e-09
6.56792e-09
4.00098e-09
1.42065e-09
1.28738e-08
4.47602e-09
-8.19168e-09
1.0865e-08
8.57667e-09
-2.36327e-09
4.01474e-09
9.21359e-09
4.36424e-09
-1.37536e-08
7.02611e-09
2.78872e-09
-7.58236e-09
-4.98945e-09
1.17929e-08
4.89001e-09
1.56221e-09
-4.95468e-10
5.82443e-09
3.06658e-09
-5.66319e-09
-3.61437e-09
7.87402e-09
9.25442e-09
-1.49773e-08
4.70848e-09
6.10467e-09
-2.93913e-09
-4.17749e-09
5.01248e-09
6.68402e-09
-4.1332e-10
9.82317e-09
-6.23195e-09
1.13895e-08
4.53841e-09
-6.08644e-10
4.41574e-09
1.89788e-09
7.11071e-09
2.84953e-09
-2.23957e-09
-7.72062e-09
-5.80293e-09
8.90788e-09
4.00587e-09
-3.89483e-09
7.31317e-09
-1.3257e-09
-2.09256e-09
-6.62213e-09
4.98784e-09
-2.26029e-09
-1.137e-08
4.67395e-11
4.70124e-09
9.82291e-09
3.39795e-10
5.87767e-10
-6.40741e-10
-5.74991e-09
-1.7983e-09
4.91919e-09
5.78701e-09
4.14068e-09
3.88383e-09
9.05845e-09
-1.44179e-09
-7.02897e-09
-4.33362e-09
-1.69952e-09
-5.94437e-09
5.75148e-09
4.22979e-10
-1.43874e-08
7.71595e-09
6.24845e-09
-1.04224e-08
4.90105e-09
-1.56938e-08
1.37345e-08
-1.2428e-08
4.74054e-09
-4.62813e-09
8.66004e-09
-4.81101e-09
-6.93938e-10
6.25796e-09
2.80806e-09
-4.33039e-09
-4.73567e-09
-3.09389e-09
-1.03587e-09
9.43204e-10
-1.50497e-09
8.52606e-09
-2.87631e-09
3.26895e-09
-8.91868e-09
6.07888e-09
-6.46679e-10
-5.15047e-10
-6.69167e-09
-7.70586e-09
6.13395e-09
-6.47196e-09
1.02861e-08
-1.2054e-10
-6.89653e-09
-3.67233e-09
-3.09033e-09
7.57638e-10
-1.71739e-09
2.23255e-09
-6.4199e-09
-3.96018e-09
-1.57488e-09
-3.02059e-09
-4.8025e-09
-4.7482e-09
9.67368e-09
4.95769e-10
4.05323e-09
7.19493e-09
-3.5419e-09
6.0208e-09
-2.376e-09
1.0573e-09
-4.47147e-09
5.79037e-09
-7.32391e-09
5.49363e-09
2.32636e-09
7.91221e-09
3.22112e-09
-7.08005e-09
6.20409e-09
8.90326e-09
-1.75321e-09
-4.86165e-09
6.53568e-09
7.93526e-11
-6.88552e-09
6.65814e-09
-1.52541e-09
-1.52075e-09
5.2534e-09
-8.59402e-09
-4.00945e-09
3.45136e-10
1.56136e-09
-5.45789e-09
6.4603e-09
-7.1076e-10
-5.79602e-09
4.66191e-11
-1.8652e-09
8.66526e-09
-5.14325e-09
-2.46267e-09
5.74094e-09
-5.11955e-09
-7.34344e-10
-4.43399e-09
-3.59584e-10
2.3315e-09
-5.70142e-09
-3.85204e-09
8.37874e-10
-3.47436e-09
4.03286e-09
-1.39589e-09
-2.48604e-09
2.29903e-10
3.09428e-09
-5.46627e-09
-4.93589e-10
-4.48149e-09
-2.64005e-09
1.43381e-09
-3.2892e-10
-3.99498e-09
-9.24696e-09
1.35708e-08
4.42686e-10
-8.92287e-09
-4.06742e-09
1.25475e-08
-9.55683e-09
1.4139e-08
-4.13951e-09
1.45024e-08
-4.51319e-09
-1.03181e-08
7.59474e-09
-3.6054e-09
-7.98434e-09
6.23543e-09
1.62554e-09
-2.66255e-10
-1.98914e-09
1.04285e-08
6.06301e-09
8.21187e-09
3.53227e-09
-1.37333e-08
8.24092e-09
-7.43197e-09
7.40292e-09
-4.70025e-09
4.81649e-10
1.24595e-08
-1.37277e-09
4.21462e-09
-1.17647e-08
9.1702e-09
-1.41484e-08
7.82448e-09
-8.2111e-09
3.49252e-09
8.02309e-09
2.62339e-09
-7.18131e-09
5.97358e-09
9.80631e-10
-3.37478e-10
-5.82358e-09
1.67337e-08
-2.15914e-10
9.51421e-09
-9.81283e-09
1.84827e-08
-4.18783e-09
-4.78066e-09
2.02036e-08
-7.5445e-09
2.37309e-09
2.5427e-09
-1.20927e-08
7.17692e-09
4.47904e-09
-9.34096e-09
7.23498e-09
-3.2072e-09
-2.17749e-09
1.29564e-08
-7.57181e-09
1.38587e-08
-1.25869e-08
7.28397e-09
-1.05356e-08
5.16424e-09
1.92299e-08
-5.62206e-10
2.98296e-09
9.24897e-09
4.69075e-09
6.52514e-09
2.16161e-09
3.07391e-09
-6.40633e-09
9.85752e-09
-6.58756e-09
1.48257e-08
-1.60677e-09
6.17759e-09
-1.11584e-08
3.46909e-09
-1.14822e-08
3.96583e-09
-8.59391e-10
-8.94438e-09
5.83791e-09
3.84671e-09
3.60963e-09
-7.60815e-09
1.51796e-10
3.27826e-10
3.61979e-09
1.8169e-11
2.76288e-10
-1.04126e-08
1.0464e-08
-4.67128e-09
3.27058e-09
6.7552e-09
-5.35453e-09
-7.50017e-10
-3.01493e-10
3.92987e-09
-4.28784e-09
-6.67156e-09
7.02948e-09
3.69005e-09
-5.10206e-10
3.00018e-09
6.32514e-09
-5.63529e-09
-4.14155e-09
1.04123e-08
3.34021e-09
-3.63505e-09
-1.15589e-08
6.41166e-09
1.79676e-08
-3.31882e-09
6.01315e-09
-1.16815e-08
1.27968e-08
1.68524e-08
1.69992e-09
5.87676e-10
1.62499e-08
2.33811e-09
-2.94935e-09
-3.90693e-09
1.96531e-08
1.20703e-08
1.19834e-09
-5.11567e-09
1.84162e-08
-2.25059e-09
1.71175e-08
3.9536e-09
1.48504e-08
1.2117e-08
6.98391e-09
9.74637e-09
-4.092e-09
-1.26383e-08
-3.95141e-09
1.01521e-08
-2.26887e-08
1.6488e-08
5.34612e-09
2.58606e-10
-9.22775e-09
3.62298e-09
-1.30213e-08
-7.29527e-09
1.39783e-08
6.33825e-09
-1.05798e-08
-7.33446e-10
-1.70811e-09
6.82559e-09
-2.20238e-08
1.12467e-08
-1.17179e-08
-1.18736e-08
1.38295e-09
8.17422e-09
2.31657e-09
-4.73758e-09
-9.54963e-09
2.41372e-09
5.93313e-10
-6.36671e-09
-7.1743e-09
1.29477e-08
-4.79848e-09
-5.21498e-09
1.06068e-08
-4.47149e-09
-5.08964e-09
4.76268e-09
2.5067e-10
-8.00245e-09
3.2803e-09
5.05856e-09
-1.11746e-08
6.56451e-09
-4.80783e-10
-1.08212e-08
7.6356e-09
3.1921e-09
-4.2631e-09
6.10502e-09
2.91358e-09
1.16428e-08
-1.06428e-08
-1.85353e-09
2.74359e-09
-7.62048e-09
6.77357e-10
-2.17925e-09
-6.90914e-10
-5.13225e-09
4.54878e-09
2.96584e-09
-7.99534e-09
7.37765e-09
3.63273e-10
-1.01259e-08
3.65378e-09
9.43799e-09
-2.42206e-09
-8.17518e-09
1.09676e-08
7.56716e-10
-3.54916e-09
-2.41331e-09
4.30034e-09
5.02277e-09
-6.90984e-09
-8.35716e-09
6.12418e-09
-1.80344e-10
1.74953e-08
-4.28478e-09
-1.26598e-08
-5.50633e-10
-7.51886e-10
1.26457e-08
5.60147e-09
-6.66469e-09
-9.07786e-09
5.40251e-09
1.034e-08
8.58488e-10
-6.32453e-09
-1.19866e-09
1.40762e-08
-6.57535e-09
-1.17857e-08
4.24647e-09
-6.416e-09
-1.0827e-09
-3.67988e-10
-8.41754e-09
-6.86251e-10
9.47175e-09
-6.14753e-09
-6.36457e-10
1.93218e-08
-1.48513e-08
4.38216e-09
2.75435e-09
-1.01233e-09
-3.84339e-09
-9.05648e-09
4.99754e-10
4.83752e-09
-1.37548e-08
-9.49117e-09
-5.75191e-09
4.08994e-09
6.49946e-09
-1.796e-08
3.81696e-09
-5.7912e-09
1.99342e-08
-4.29403e-10
3.95479e-09
1.10555e-08
-1.45809e-08
9.72752e-09
3.1381e-09
-1.3295e-08
-1.00364e-08
1.82209e-09
-3.33949e-09
1.15537e-08
-1.82689e-08
-1.52185e-08
1.89278e-08
5.0524e-09
-8.76169e-09
-9.22841e-09
-2.17317e-09
2.30708e-09
-1.75436e-08
3.49797e-09
1.17384e-08
-1.84967e-08
-3.99474e-09
2.64622e-08
-3.97084e-09
1.65065e-10
1.69122e-08
-1.31225e-08
1.4756e-08
-1.14528e-08
-3.81026e-09
1.66878e-08
3.60885e-09
2.80952e-09
9.70154e-09
-1.61199e-08
6.10492e-09
1.64317e-08
1.24718e-08
-6.94425e-09
-1.18532e-08
1.64132e-08
1.54486e-09
2.92565e-09
-1.91281e-08
1.48609e-08
7.82231e-09
-1.98737e-08
-3.66464e-09
6.89292e-09
-6.66948e-09
3.44116e-09
1.39137e-09
-4.99658e-09
-5.94707e-11
-4.35681e-09
2.85398e-09
3.63557e-09
-2.13275e-09
-1.66982e-09
-3.28502e-09
5.98009e-10
5.32562e-09
-2.52601e-09
5.43037e-11
-2.81362e-09
4.21457e-09
-9.62069e-12
1.60697e-10
4.02656e-09
2.70561e-09
2.00676e-09
-4.39417e-09
2.51224e-09
-1.24908e-10
4.00079e-09
-4.38663e-09
-4.61076e-09
-4.19126e-10
-2.24961e-09
-4.81824e-09
3.34807e-10
-8.57233e-09
5.48546e-09
3.24748e-09
-4.75331e-09
-5.23625e-09
5.1713e-09
-8.03538e-10
5.87774e-09
-5.53008e-09
4.55766e-10
-8.02372e-09
7.49371e-09
-2.73639e-10
-3.11371e-09
3.34858e-10
-9.47482e-09
6.06633e-09
-1.12616e-08
4.61507e-09
-6.57253e-09
-3.79352e-09
6.82049e-09
4.4667e-09
1.18973e-09
-3.68244e-10
-2.28147e-09
-8.13569e-10
-5.95508e-09
9.05012e-09
-5.25434e-09
-1.49556e-09
4.46843e-09
2.28806e-09
-6.51071e-10
7.30421e-09
-8.94122e-09
1.19198e-08
-8.70525e-10
-8.76128e-09
-2.04797e-10
7.35555e-09
-7.67276e-09
5.22019e-10
-5.61751e-09
1.58369e-10
-1.53395e-09
-6.27731e-09
6.99769e-09
-7.31928e-09
4.28976e-09
-5.61671e-09
7.01719e-09
1.15156e-08
-7.68091e-11
4.81025e-10
-2.54473e-09
1.18282e-08
-1.0154e-08
7.20536e-09
-1.04012e-08
-3.83553e-09
9.07381e-09
2.37596e-09
-8.63804e-09
8.09952e-09
4.61702e-10
5.298e-09
-6.63185e-09
5.4246e-09
-5.89199e-09
-2.97928e-11
-1.63124e-10
-5.48429e-09
6.26453e-09
-2.16081e-10
3.95084e-09
1.90804e-10
-6.87214e-09
2.73036e-09
-8.61658e-09
9.49519e-09
3.07211e-09
-1.85686e-09
-5.19717e-09
4.25816e-09
2.79594e-09
1.25392e-09
-5.21584e-09
2.10521e-09
-5.12156e-09
2.36602e-09
4.0094e-09
-4.01241e-09
1.57979e-09
2.62344e-09
7.87615e-09
-8.06001e-09
-6.68834e-09
-2.71125e-09
1.9707e-09
-2.48003e-09
-2.0687e-09
-6.48422e-10
-4.02552e-09
-3.67035e-09
1.56651e-09
-3.86576e-09
2.30607e-10
-4.57158e-09
2.12568e-09
-6.37537e-09
-1.45745e-09
-1.54896e-09
-5.96711e-11
-2.25709e-09
-4.56188e-09
-1.55863e-09
1.72358e-09
-7.5875e-09
-5.11434e-10
-2.36161e-09
1.30991e-08
6.56239e-09
-1.03464e-08
-9.31509e-09
9.5438e-09
3.60082e-09
-4.55615e-11
-6.94957e-09
7.20036e-09
9.293e-09
-4.25164e-10
3.79682e-11
-7.00317e-09
3.53832e-09
-5.30443e-09
8.76926e-09
-7.4715e-09
4.31661e-11
5.94361e-09
2.71567e-09
-7.09641e-10
-7.94964e-09
-1.66865e-09
1.40733e-10
1.62369e-09
-9.2544e-09
1.44827e-08
-3.74403e-09
4.70615e-09
-1.863e-08
1.32142e-08
-4.04984e-09
-1.10416e-08
1.67151e-08
-9.23262e-10
9.41645e-09
-1.37976e-08
1.82046e-08
-1.75483e-08
1.12795e-08
6.00188e-09
9.54306e-09
-4.96868e-09
-2.22844e-09
-2.34588e-09
-1.07436e-08
1.28493e-08
7.4373e-09
-9.21769e-09
1.19864e-09
3.05046e-09
-5.20712e-09
-1.08962e-08
6.88562e-09
1.1831e-08
-1.10192e-08
-3.04029e-09
-1.08662e-08
1.19536e-08
-1.51647e-08
-1.04939e-08
1.95056e-08
6.15301e-09
-1.32992e-08
-1.23554e-08
1.04899e-08
2.22405e-09
-2.19202e-08
6.39697e-09
-1.49548e-08
6.68488e-09
1.30808e-08
-8.24196e-09
-1.5858e-08
1.16593e-09
1.04874e-09
-1.00264e-08
-5.98749e-09
-1.45919e-08
8.03043e-10
-1.51083e-08
-2.14038e-08
1.21542e-09
-1.46645e-08
-2.39193e-08
-3.13002e-09
6.98133e-09
-8.60901e-10
-2.99054e-09
-8.05862e-10
-6.81615e-09
4.49195e-09
-1.21227e-08
2.85392e-09
6.42283e-09
2.84596e-09
-3.40348e-09
-6.63825e-10
-8.05543e-09
7.39573e-09
5.73851e-09
-6.15297e-09
4.28958e-09
2.45719e-09
-7.55273e-09
5.83187e-09
-2.40329e-09
-3.09441e-09
-6.38441e-09
6.07533e-09
5.37764e-09
-6.01486e-09
4.31741e-09
1.08455e-09
-2.43588e-11
5.09415e-09
-6.31241e-10
-1.45528e-10
1.1194e-08
-7.7395e-09
-4.1183e-09
9.54662e-09
4.50128e-09
-4.48939e-10
3.11779e-09
4.72683e-09
6.17332e-09
7.43066e-10
3.94796e-09
-3.39759e-09
4.54373e-09
7.08463e-09
-3.8909e-09
7.54229e-10
2.32677e-09
1.75482e-08
-8.60739e-09
1.56264e-09
-1.05034e-08
1.19191e-08
3.30357e-09
2.32547e-09
-7.86063e-09
8.25483e-09
1.15248e-08
-6.79685e-10
-1.88211e-08
1.08934e-08
1.36924e-08
-5.59322e-09
-6.5366e-09
3.1165e-09
2.71533e-09
1.12979e-08
-7.72262e-09
-9.16857e-09
-5.38772e-09
1.32046e-08
3.48107e-09
-7.80069e-09
6.35869e-09
1.82556e-08
-1.68136e-08
-2.82119e-08
1.88243e-09
1.85288e-08
7.73752e-10
-1.60135e-08
-1.29722e-08
8.84328e-09
-1.72456e-08
8.19933e-09
-4.74377e-09
1.00734e-08
6.24775e-09
-1.8714e-09
1.64849e-08
2.07617e-08
-1.17886e-08
6.78877e-09
1.58553e-08
1.49907e-08
-1.09224e-08
-9.88798e-09
9.62408e-09
1.11863e-08
-1.1079e-08
3.80166e-09
-3.64507e-09
1.08895e-08
-5.47519e-09
-1.64933e-08
1.32298e-09
-3.2147e-10
5.03658e-09
-1.19057e-08
-7.00399e-09
1.38732e-08
-2.53765e-09
1.71983e-08
-4.88533e-09
-3.21874e-09
-8.88974e-09
9.63999e-09
5.72734e-10
-7.38373e-09
4.48946e-10
-1.95497e-09
-1.50471e-08
2.18813e-09
-5.9021e-09
1.30045e-08
1.20728e-08
-1.89866e-09
-9.72523e-09
-4.7521e-10
-1.36856e-08
7.15687e-09
5.69553e-09
-9.81791e-09
-8.75308e-09
-3.86101e-10
-4.12432e-09
3.82497e-09
6.85389e-10
-7.15691e-09
6.17699e-09
5.93804e-10
-2.8857e-09
-2.41754e-10
1.39117e-10
2.98835e-09
-7.44878e-10
-3.17185e-09
1.0309e-09
2.75106e-09
-4.89612e-10
-3.29293e-10
-1.93225e-09
3.29267e-09
-1.96238e-09
1.42051e-09
2.02482e-09
5.22925e-10
1.92108e-09
-1.54412e-09
1.64784e-09
-2.23309e-09
2.92697e-10
-2.20917e-11
-1.81506e-09
-9.07469e-10
4.95042e-09
-1.86928e-09
-7.20545e-09
3.78393e-09
-5.99041e-09
-4.16424e-09
5.07538e-09
5.26585e-09
-5.30764e-09
1.97989e-10
4.86791e-09
-5.98691e-10
-8.83998e-10
-1.94209e-10
2.25441e-09
-2.82551e-09
-9.45045e-10
-1.57656e-10
3.40153e-11
-1.8999e-09
-1.25487e-09
1.10282e-09
-4.87202e-09
-5.1727e-11
-3.28597e-10
4.83448e-10
4.78994e-09
2.1881e-09
-2.03152e-09
-2.08318e-10
-1.96883e-09
2.25801e-09
6.16088e-11
4.59783e-09
1.12235e-08
-9.77999e-09
-6.0414e-09
-1.314e-08
2.03242e-08
-2.58644e-09
1.24328e-08
-2.06271e-09
-9.63506e-09
-7.3505e-10
1.26655e-08
5.37441e-10
-7.70108e-10
-2.31541e-09
-3.82135e-09
1.35915e-08
-7.45477e-09
9.08611e-09
-9.94711e-11
2.23685e-09
-9.09893e-09
1.58697e-08
-9.25324e-09
1.91096e-09
7.2428e-09
-9.25722e-09
-8.28782e-09
8.29179e-09
-2.57628e-09
-1.37777e-08
3.21397e-09
1.68903e-10
-1.25252e-08
3.79117e-09
3.07497e-09
8.20233e-09
-1.50685e-08
1.50165e-08
-8.30758e-09
-5.77425e-09
1.02605e-08
-8.34595e-09
4.51604e-10
-4.1322e-10
9.96618e-09
7.80774e-09
-2.64792e-09
-7.22255e-09
-7.71232e-13
-1.17362e-08
1.16813e-08
-1.25508e-10
-2.9166e-09
-8.63923e-09
-1.48447e-08
1.1024e-08
1.5502e-08
-1.11276e-08
8.98055e-09
3.50153e-09
-1.33178e-08
1.04261e-08
-5.25222e-10
-1.1412e-08
-7.07235e-10
-3.33201e-09
1.54512e-08
-1.10497e-09
1.19043e-10
1.03566e-08
-9.77171e-09
-1.07909e-08
-3.46505e-09
1.35487e-08
-1.53921e-09
-4.61646e-10
8.7157e-09
7.09729e-09
1.28343e-08
-4.55813e-09
1.18358e-08
-2.01121e-08
2.8808e-09
3.88644e-09
6.06701e-09
5.09679e-09
5.76419e-09
-7.98019e-09
4.58079e-09
-1.4507e-08
5.36803e-09
1.6889e-08
5.94477e-10
-5.64774e-09
5.83527e-09
1.49402e-08
6.61386e-09
5.81673e-09
-7.84982e-09
1.01122e-08
-2.90383e-09
-5.33883e-09
9.01006e-10
9.5346e-09
-9.8568e-10
-4.45435e-09
1.01181e-10
-4.68779e-09
6.85286e-09
7.94707e-09
1.43252e-10
1.35891e-08
5.51807e-10
-2.86814e-09
-6.80407e-09
9.12042e-09
-5.48315e-09
9.11579e-09
-1.93649e-09
-1.6961e-09
-4.50519e-12
-6.82201e-09
-1.09328e-11
6.83748e-09
-4.63853e-09
4.58137e-09
5.26746e-11
1.36568e-08
-3.29659e-09
-9.80848e-09
-3.31919e-09
1.16333e-08
5.34274e-09
-3.26731e-09
-5.9926e-09
-4.84077e-10
3.15746e-09
-3.14131e-09
-6.14788e-09
4.20044e-09
-8.8543e-09
4.1698e-09
-6.50842e-09
7.5109e-09
3.19797e-09
-4.55661e-09
1.80956e-10
-2.62859e-10
-9.75537e-10
-6.84839e-09
6.1861e-09
-5.93171e-09
-9.1087e-09
-1.41357e-10
-1.00486e-08
-1.75315e-10
-2.6628e-10
2.85035e-10
1.57123e-10
-6.19479e-11
-1.08696e-10
-4.51195e-12
-1.57709e-10
3.23287e-10
-3.24147e-10
1.58639e-10
-2.24996e-10
5.3916e-12
9.98739e-11
-1.08678e-10
-2.57557e-10
1.0224e-11
5.97946e-10
2.31798e-10
-3.50115e-10
-2.05975e-10
-1.21089e-11
1.86118e-11
1.2748e-10
-1.70975e-10
3.13091e-11
4.39917e-10
6.04706e-10
-6.88389e-10
-3.56622e-10
4.12314e-10
-5.73668e-10
6.01014e-10
1.02691e-09
3.48714e-12
9.67756e-10
-8.58464e-11
-8.84447e-10
5.53596e-10
-5.8453e-10
3.43904e-11
-5.22269e-10
4.84983e-11
2.557e-10
-5.25858e-11
5.33904e-10
-5.52451e-10
-5.51138e-11
2.90268e-09
3.37972e-09
1.13868e-08
6.36923e-09
1.7289e-08
9.64512e-09
-1.78158e-10
-1.14174e-08
1.14241e-08
4.93694e-10
-2.27268e-09
5.80835e-09
8.99547e-09
-1.26412e-08
3.94301e-09
1.50674e-08
-1.22985e-08
-3.39135e-11
-3.08696e-10
-1.44137e-09
-1.04058e-08
1.56395e-09
8.2017e-09
-9.94382e-09
-8.642e-09
1.10647e-08
-1.92901e-09
-7.80575e-09
-4.31796e-10
1.21806e-08
-7.67049e-09
-1.69163e-10
7.52422e-09
-7.40164e-09
7.01894e-09
-7.45924e-09
1.08345e-08
-8.03765e-09
8.26784e-09
1.62111e-08
4.82758e-10
-6.2903e-10
-5.35949e-10
4.20762e-09
9.88699e-09
2.11648e-09
9.06377e-09
4.52193e-09
-9.37809e-09
-1.13659e-09
1.10522e-08
-8.51874e-10
1.11661e-08
-2.41565e-09
-2.32338e-10
-8.98231e-09
1.37366e-08
-5.61251e-09
-1.08053e-08
1.61855e-08
-1.83987e-08
1.49027e-08