/*--------------------------------*- C++ -*----------------------------------*\
| =========                 |                                                 |
| \\      /  F ield         | OpenFOAM: The Open Source CFD Toolbox           |
|  \\    /   O peration     | Version:  v1612+                                |
|   \\  /    A nd           | Web:      www.OpenFOAM.com                      |
|    \\/     M anipulation  |                                                 |
\*---------------------------------------------------------------------------*/
FoamFile
{
    version     2.0;
    format      ascii;
    class       volVectorField;
    location    "118";
    object      U;
}
// * * * * * * * * * * * * * * * * * * * * * * * * * * * * * * * * * * * * * //

dimensions      [0 1 -1 0 0 0 0];

internalField   nonuniform List<vector> 
21523
(
(-0.276525 0.468569 -0.501738)
(-0.531926 0.430532 -0.567752)
(-0.338077 0.544642 -0.553962)
(-0.230902 0.623275 -0.266644)
(-0.289144 0.487757 -0.264986)
(-0.257289 0.556004 -0.269094)
(-0.298258 0.56097 -0.281175)
(-0.20163 0.708321 -0.442446)
(-0.138762 0.462026 -0.387758)
(-0.0992369 0.485522 -0.350703)
(-0.0957501 0.710811 -0.417324)
(-0.133149 0.600377 -0.410893)
(-0.203136 0.608912 -0.47565)
(-0.121339 0.62804 -0.40394)
(-0.165345 0.478096 -0.430092)
(-0.292915 0.709524 -0.55439)
(-0.499483 0.636715 -0.521782)
(-0.187932 0.603241 -0.443663)
(-0.184539 0.549662 -0.427419)
(-0.0547765 0.477521 -0.29783)
(-0.324123 0.528501 -0.284614)
(-0.298793 0.683034 -0.370529)
(-0.316436 0.660143 -0.36502)
(-0.310793 0.625194 -0.493842)
(-0.20927 0.57988 -0.269983)
(-0.0548187 0.503945 -0.290856)
(-0.104524 0.383253 -0.283039)
(-0.0428023 0.441834 -0.281174)
(-0.0716277 0.586643 -0.33607)
(-0.411252 0.54171 -0.619604)
(-0.181523 0.417424 -0.419968)
(-0.0834639 0.718143 -0.400088)
(-0.237502 0.655734 -0.320575)
(-0.207466 0.71603 -0.331895)
(-0.385925 0.632042 -0.473808)
(-0.119575 0.62674 -0.405064)
(-0.444324 0.477032 -0.619738)
(-0.520092 0.46586 -0.449576)
(-0.457469 0.586862 -0.485355)
(-0.23551 0.667761 -0.464626)
(-0.27183 0.633929 -0.423942)
(-0.325465 0.532601 -0.480695)
(-0.0807652 0.584939 -0.283259)
(-0.468383 0.385784 -0.623595)
(-0.507783 0.386118 -0.409721)
(-0.262839 0.699689 -0.381532)
(-0.209672 0.341519 -0.421827)
(-0.478551 0.543629 -0.458778)
(-0.454407 0.541166 -0.424217)
(-0.46807 0.440204 -0.391589)
(-0.25074 0.62955 -0.338964)
(-0.531804 0.550754 -0.498528)
(-0.458164 0.481859 -0.391345)
(-0.465717 0.647867 -0.455189)
(-0.278594 0.438171 -0.261892)
(-0.427847 0.640081 -0.418057)
(-0.347314 0.565356 -0.423309)
(-0.381829 0.642125 -0.407959)
(-0.0836508 0.573027 -0.299564)
(-0.456175 0.490607 -0.649897)
(-0.567444 0.455155 -0.4654)
(-0.205218 0.380229 -0.406972)
(-0.261829 0.297492 -0.472067)
(-0.361571 0.46106 -0.332326)
(-0.33874 0.593665 -0.348888)
(-0.478175 0.485977 -0.507921)
(-0.570671 0.518891 -0.503322)
(-0.430553 0.568312 -0.396998)
(-0.504427 0.561826 -0.481435)
(-0.589084 0.417901 -0.481329)
(-0.134338 0.477263 -0.208617)
(-0.157028 0.532872 -0.228137)
(-0.377673 0.640654 -0.518773)
(-0.450842 0.605512 -0.517003)
(-0.0958998 0.563764 -0.326702)
(-0.0974026 0.508975 -0.319246)
(-0.378485 0.494339 -0.559287)
(-0.290262 0.609704 -0.361936)
(-0.209048 0.667304 -0.380727)
(-0.139288 0.426156 -0.307734)
(-0.452425 0.546633 -0.472933)
(-0.212636 0.623176 -0.412604)
(-0.389662 0.488669 -0.467198)
(-0.276008 0.616842 -0.370377)
(-0.114333 0.292829 -0.322771)
(-0.0894055 0.427925 -0.194855)
(-0.150549 0.695108 -0.383455)
(-0.148519 0.601031 -0.421796)
(-0.224541 0.549063 -0.429278)
(-0.483837 0.418016 -0.630873)
(-0.459375 0.436235 -0.623307)
(-0.443563 0.387866 -0.598355)
(-0.261782 0.54297 -0.260897)
(-0.204162 0.53773 -0.451678)
(-0.534215 0.32398 -0.581716)
(-0.533885 0.420187 -0.61812)
(-0.0396953 0.548453 -0.299972)
(-0.476258 0.53213 -0.523667)
(-0.559596 0.518628 -0.48708)
(-0.0932154 0.586417 -0.367949)
(-0.132273 0.342475 -0.299024)
(-0.0846342 0.558409 -0.32228)
(-0.114892 0.600917 -0.377643)
(-0.148242 0.278181 -0.233491)
(-0.172155 0.357195 -0.266916)
(-0.165077 0.30699 -0.3396)
(-0.0977736 0.571304 -0.38255)
(-0.0874333 0.604858 -0.338923)
(-0.357664 0.473072 -0.490963)
(-0.142899 0.633976 -0.415871)
(-0.134207 0.566153 -0.383547)
(-0.366921 0.527121 -0.304031)
(-0.147723 0.606084 -0.436241)
(-0.109907 0.361689 -0.300304)
(-0.130893 0.437857 -0.305002)
(-0.435484 0.54429 -0.403386)
(-0.217555 0.358475 -0.233979)
(-0.295169 0.399509 -0.248867)
(-0.0615077 0.484827 -0.244117)
(-0.0723256 0.509159 -0.238627)
(-0.051322 0.520794 -0.235393)
(-0.0672637 0.59082 -0.252888)
(-0.451425 0.623988 -0.462997)
(-0.136953 0.214241 -0.219544)
(-0.295382 0.699617 -0.382322)
(-0.324542 0.659734 -0.358025)
(-0.206653 0.631933 -0.400438)
(-0.55422 0.383816 -0.460281)
(-0.188434 0.623377 -0.435954)
(-0.200398 0.680277 -0.387905)
(-0.129905 0.661643 -0.289745)
(-0.157383 0.63146 -0.272358)
(-0.130447 0.678755 -0.281449)
(-0.166635 0.7074 -0.309124)
(-0.19589 0.634874 -0.263826)
(-0.222826 0.610381 -0.28903)
(-0.440351 0.566578 -0.530667)
(-0.347961 0.472102 -0.475263)
(-0.21366 0.268721 -0.436869)
(-0.246564 0.517941 -0.451962)
(-0.347344 0.611333 -0.454261)
(-0.288187 0.528733 -0.516224)
(-0.31034 0.634825 -0.570801)
(-0.310142 0.430837 -0.522515)
(-0.0542052 0.511928 -0.308915)
(-0.0863803 0.430997 -0.303561)
(-0.177864 0.440206 -0.197944)
(-0.222808 0.518182 -0.235587)
(-0.249932 0.621734 -0.288842)
(-0.313113 0.614719 -0.504243)
(-0.330104 0.619008 -0.520693)
(-0.13705 0.439128 -0.38626)
(-0.474101 0.584671 -0.447373)
(-0.230062 0.719545 -0.35101)
(-0.252423 0.671649 -0.324228)
(-0.293556 0.618992 -0.360317)
(-0.535737 0.324028 -0.568044)
(-0.0886752 0.479334 -0.244851)
(-0.0985083 0.467331 -0.243362)
(-0.116989 0.559375 -0.227848)
(-0.417064 0.608471 -0.428231)
(-0.326141 0.699683 -0.416623)
(-0.339797 0.596709 -0.362514)
(-0.518101 0.5363 -0.475768)
(-0.200317 0.565785 -0.35132)
(-0.207055 0.642535 -0.410443)
(-0.33174 0.591739 -0.346472)
(-0.321813 0.550367 -0.359428)
(-0.299796 0.64764 -0.406119)
(-0.455206 0.488371 -0.436746)
(-0.139218 0.355692 -0.249762)
(-0.146747 0.350008 -0.250536)
(-0.208006 0.381256 -0.229152)
(-0.457967 0.622125 -0.457167)
(-0.46329 0.566953 -0.439414)
(-0.217935 0.55564 -0.461967)
(-0.256238 0.519921 -0.493707)
(-0.14933 0.350507 -0.189823)
(-0.167061 0.393617 -0.216224)
(-0.243108 0.501007 -0.480133)
(-0.258882 0.521955 -0.495752)
(-0.260366 0.505207 -0.48048)
(-0.288231 0.480258 -0.442786)
(-0.179904 0.395824 -0.191293)
(-0.520897 0.48426 -0.496827)
(-0.571268 0.49801 -0.499577)
(-0.33758 0.663949 -0.428114)
(-0.306631 0.618182 -0.425871)
(-0.289044 0.610986 -0.396729)
(-0.116618 0.609304 -0.404995)
(-0.121812 0.518111 -0.376461)
(-0.146985 0.421481 -0.385311)
(-0.168016 0.354579 -0.367096)
(-0.494861 0.400828 -0.531025)
(-0.499368 0.427372 -0.550655)
(-0.518191 0.40818 -0.428094)
(-0.522264 0.485412 -0.54045)
(-0.202012 0.585211 -0.459883)
(-0.52546 0.373772 -0.577237)
(-0.544492 0.44563 -0.584598)
(-0.511693 0.408366 -0.562405)
(-0.292616 0.321966 -0.241078)
(-0.202657 0.277168 -0.224428)
(-0.231364 0.306374 -0.224326)
(-0.301344 0.341519 -0.232906)
(-0.0664747 0.684647 -0.348588)
(-0.459614 0.437356 -0.373794)
(-0.191275 0.706302 -0.303255)
(-0.212292 0.601074 -0.283947)
(-0.23398 0.721117 -0.365829)
(-0.271924 0.573027 -0.328347)
(-0.290437 0.531634 -0.343605)
(-0.316624 0.557845 -0.399011)
(-0.352058 0.576282 -0.415383)
(-0.309419 0.559248 -0.380946)
(-0.278382 0.523672 -0.424052)
(-0.437934 0.674527 -0.452114)
(-0.396467 0.660865 -0.426683)
(-0.391661 0.573927 -0.376258)
(-0.36897 0.609542 -0.38579)
(-0.217158 0.553938 -0.39697)
(-0.360178 0.56542 -0.459406)
(-0.412506 0.444496 -0.451959)
(-0.302767 0.487679 -0.481084)
(-0.361527 0.470411 -0.455404)
(-0.420056 0.563449 -0.497368)
(-0.444319 0.581222 -0.487723)
(-0.37165 0.51616 -0.474327)
(-0.423179 0.500732 -0.480813)
(-0.428897 0.563209 -0.501653)
(-0.176974 0.233537 -0.36845)
(-0.187102 0.30514 -0.40275)
(-0.167616 0.258528 -0.328224)
(-0.191798 0.286066 -0.387244)
(-0.105222 0.408017 -0.243689)
(-0.331011 0.55066 -0.563807)
(-0.34701 0.600802 -0.591315)
(-0.380378 0.556871 -0.581384)
(-0.414991 0.491932 -0.59705)
(-0.386617 0.453867 -0.572476)
(-0.439033 0.467746 -0.64591)
(-0.483965 0.496592 -0.679004)
(-0.159072 0.555632 -0.422713)
(-0.256469 0.608601 -0.39905)
(-0.250004 0.6439 -0.400772)
(-0.335623 0.551596 -0.570742)
(-0.417475 0.460073 -0.516535)
(-0.375152 0.42157 -0.529898)
(-0.386746 0.448608 -0.547702)
(-0.394917 0.587764 -0.61054)
(-0.414097 0.505607 -0.575413)
(-0.449192 0.552825 -0.437392)
(-0.274684 0.363811 -0.469112)
(-0.283423 0.319563 -0.465824)
(-0.324625 0.285582 -0.468266)
(-0.304474 0.348907 -0.491334)
(-0.286423 0.268457 -0.4668)
(-0.363103 0.410588 -0.511576)
(-0.346383 0.428708 -0.52234)
(-0.376711 0.358217 -0.511388)
(-0.322494 0.294022 -0.487208)
(-0.393822 0.502714 -0.59686)
(-0.381749 0.517609 -0.576275)
(-0.393109 0.554647 -0.591977)
(-0.424594 0.590553 -0.636317)
(-0.363827 0.494211 -0.574455)
(-0.380786 0.538057 -0.579994)
(-0.366046 0.452828 -0.570362)
(-0.180489 0.539514 -0.419588)
(-0.302788 0.568856 -0.408583)
(-0.371023 0.615182 -0.462796)
(-0.1795 0.64273 -0.440623)
(-0.244224 0.519922 -0.483005)
(-0.197717 0.56189 -0.471935)
(-0.204792 0.614462 -0.47749)
(-0.205578 0.667292 -0.455577)
(-0.205118 0.594157 -0.425652)
(-0.215571 0.629884 -0.449714)
(-0.224151 0.599228 -0.466826)
(-0.204358 0.569398 -0.425977)
(-0.109105 0.55771 -0.208338)
(-0.423889 0.580653 -0.397563)
(-0.247957 0.600996 -0.418152)
(-0.528307 0.452676 -0.564227)
(-0.380656 0.414876 -0.501586)
(-0.482686 0.411698 -0.602379)
(-0.494317 0.450457 -0.616219)
(-0.566247 0.357944 -0.505495)
(-0.585895 0.408971 -0.539905)
(-0.157635 0.522671 -0.3966)
(-0.173685 0.596152 -0.413022)
(-0.14293 0.524502 -0.362003)
(-0.14017 0.534829 -0.395446)
(-0.476699 0.466807 -0.621503)
(-0.421614 0.466147 -0.585972)
(-0.357695 0.555865 -0.336043)
(-0.282473 0.508884 -0.24684)
(-0.163951 0.549886 -0.388894)
(-0.108127 0.627005 -0.412123)
(-0.105592 0.509651 -0.332175)
(-0.115914 0.47521 -0.32084)
(-0.396014 0.492891 -0.470142)
(-0.284951 0.24034 -0.485586)
(-0.282079 0.520039 -0.415632)
(-0.241894 0.560842 -0.407757)
(-0.290354 0.47722 -0.412153)
(-0.379873 0.529589 -0.36508)
(-0.425907 0.530379 -0.471329)
(-0.430693 0.537764 -0.462251)
(-0.545727 0.385487 -0.561876)
(-0.0781481 0.545145 -0.309143)
(-0.574543 0.524577 -0.535291)
(-0.592322 0.455764 -0.497738)
(-0.210482 0.4968 -0.300644)
(-0.221941 0.643369 -0.342944)
(-0.433668 0.430318 -0.448251)
(-0.273715 0.637996 -0.339279)
(-0.19123 0.316287 -0.400038)
(-0.244984 0.426861 -0.436825)
(-0.286433 0.592146 -0.294705)
(-0.412653 0.461226 -0.611699)
(-0.137118 0.433487 -0.381161)
(-0.327587 0.413555 -0.513944)
(-0.404508 0.375738 -0.510305)
(-0.152439 0.643967 -0.320963)
(-0.29569 0.635332 -0.509372)
(-0.47376 0.496316 -0.450823)
(-0.460407 0.442423 -0.427639)
(-0.491039 0.42108 -0.45818)
(-0.189606 0.68407 -0.301509)
(-0.15798 0.696751 -0.319116)
(-0.137698 0.585112 -0.281185)
(-0.176186 0.620479 -0.281241)
(-0.174136 0.584659 -0.437268)
(-0.236938 0.547555 -0.241879)
(-0.275783 0.478888 -0.234471)
(-0.377273 0.463885 -0.285177)
(-0.438602 0.477859 -0.588832)
(-0.411441 0.582724 -0.466109)
(-0.418987 0.572818 -0.44096)
(-0.290394 0.669227 -0.350464)
(-0.264745 0.670906 -0.335161)
(-0.425903 0.553065 -0.386398)
(-0.42289 0.567583 -0.38567)
(-0.331612 0.656024 -0.416345)
(-0.619289 0.4743 -0.514402)
(-0.603535 0.446248 -0.496602)
(-0.435633 0.453029 -0.514674)
(-0.421279 0.445652 -0.552857)
(-0.272662 0.432383 -0.242888)
(-0.147436 0.399657 -0.264954)
(-0.131549 0.327173 -0.287039)
(-0.139028 0.402409 -0.302469)
(-0.101557 0.631095 -0.331004)
(-0.146904 0.521113 -0.227086)
(-0.157885 0.596376 -0.247984)
(-0.207462 0.640177 -0.268238)
(-0.286012 0.338788 -0.510661)
(-0.413863 0.47132 -0.514161)
(-0.233827 0.546184 -0.401668)
(-0.32879 0.487186 -0.262915)
(-0.35674 0.477059 -0.568051)
(-0.182664 0.643571 -0.282087)
(-0.188119 0.218322 -0.385148)
(-0.24752 0.616756 -0.507501)
(-0.234279 0.255601 -0.457604)
(-0.195574 0.705676 -0.324658)
(-0.230988 0.583422 -0.290244)
(-0.174973 0.647452 -0.447385)
(-0.322586 0.680095 -0.440894)
(-0.265463 0.658524 -0.422501)
(-0.287537 0.660163 -0.425731)
(-0.201195 0.611449 -0.473232)
(-0.195323 0.365699 -0.174579)
(-0.216112 0.391477 -0.19182)
(-0.254855 0.590197 -0.277458)
(-0.142455 0.407212 -0.379527)
(-0.134521 0.371162 -0.355245)
(-0.307259 0.620332 -0.405018)
(-0.204157 0.514286 -0.392786)
(-0.480138 0.402365 -0.369768)
(-0.298084 0.682498 -0.384849)
(-0.257542 0.242226 -0.459082)
(-0.367663 0.607542 -0.484553)
(-0.385625 0.507013 -0.587483)
(-0.258557 0.568183 -0.492602)
(-0.305871 0.540274 -0.484954)
(-0.313484 0.492841 -0.429575)
(-0.275652 0.531773 -0.430247)
(-0.0911735 0.399204 -0.268789)
(-0.108617 0.516229 -0.299952)
(-0.358032 0.469174 -0.372682)
(-0.346493 0.522299 -0.411521)
(-0.101863 0.60174 -0.395859)
(-0.14374 0.582965 -0.414989)
(-0.145946 0.506875 -0.39992)
(-0.10272 0.387604 -0.332033)
(-0.353552 0.598719 -0.381524)
(-0.463699 0.505808 -0.477576)
(-0.469745 0.583243 -0.50563)
(-0.041303 0.497262 -0.247951)
(-0.198239 0.547233 -0.224057)
(-0.283594 0.56398 -0.531392)
(-0.408206 0.490054 -0.480197)
(-0.295424 0.598254 -0.399149)
(-0.312703 0.504753 -0.40228)
(-0.280488 0.528537 -0.449714)
(-0.28333 0.478432 -0.427006)
(-0.189385 0.356541 -0.261276)
(-0.467956 0.603797 -0.492167)
(-0.375086 0.643488 -0.386814)
(-0.165669 0.504854 -0.217055)
(-0.195986 0.512355 -0.222121)
(-0.200166 0.595597 -0.275702)
(-0.371215 0.524449 -0.514521)
(-0.517066 0.451843 -0.444095)
(-0.500853 0.480845 -0.439732)
(-0.536557 0.381757 -0.482895)
(-0.257733 0.519437 -0.484584)
(-0.289549 0.597972 -0.523384)
(-0.519341 0.431961 -0.422666)
(-0.527907 0.433352 -0.445012)
(-0.26791 0.581637 -0.500605)
(-0.276236 0.595587 -0.437884)
(-0.297791 0.562871 -0.463487)
(-0.365897 0.683224 -0.486411)
(-0.365495 0.64961 -0.46029)
(-0.160676 0.594093 -0.4437)
(-0.293745 0.534878 -0.520389)
(-0.34023 0.626622 -0.569522)
(-0.160613 0.564542 -0.430242)
(-0.454395 0.539458 -0.652815)
(-0.420828 0.523931 -0.627609)
(-0.0947599 0.534684 -0.334254)
(-0.0631556 0.62249 -0.341346)
(-0.488987 0.343489 -0.348838)
(-0.439709 0.332903 -0.294183)
(-0.291081 0.458882 -0.471195)
(-0.305373 0.364212 -0.436995)
(-0.287731 0.493882 -0.465756)
(-0.258947 0.687664 -0.381684)
(-0.277082 0.680184 -0.392548)
(-0.437285 0.458571 -0.567315)
(-0.308531 0.422298 -0.494439)
(-0.327829 0.597005 -0.392828)
(-0.299446 0.538689 -0.304087)
(-0.409996 0.393352 -0.264307)
(-0.41941 0.391247 -0.271019)
(-0.356152 0.409778 -0.258362)
(-0.220592 0.502021 -0.207387)
(-0.251539 0.527527 -0.226762)
(-0.397006 0.56766 -0.363185)
(-0.369842 0.507129 -0.33495)
(-0.365392 0.640996 -0.385445)
(-0.240021 0.532407 -0.366562)
(-0.237441 0.570472 -0.292047)
(-0.255007 0.572022 -0.32603)
(-0.247248 0.657404 -0.341946)
(-0.217283 0.546694 -0.264012)
(-0.217531 0.625612 -0.288603)
(-0.474811 0.34706 -0.521787)
(-0.570111 0.402962 -0.527194)
(-0.590241 0.44171 -0.511675)
(-0.0705382 0.449858 -0.212466)
(-0.089752 0.550669 -0.292786)
(-0.118812 0.563568 -0.350325)
(-0.144757 0.423693 -0.359383)
(-0.272571 0.682705 -0.360127)
(-0.270684 0.663378 -0.333392)
(-0.256939 0.634335 -0.323624)
(-0.238983 0.495239 -0.454417)
(-0.381768 0.526419 -0.548364)
(-0.379852 0.523474 -0.559838)
(-0.391054 0.499458 -0.55099)
(-0.412242 0.536842 -0.544533)
(-0.352104 0.585817 -0.586276)
(-0.450452 0.290655 -0.530994)
(-0.459443 0.327097 -0.536907)
(-0.467667 0.355364 -0.547771)
(-0.102523 0.549217 -0.303806)
(-0.111122 0.424615 -0.261103)
(-0.508329 0.287988 -0.522527)
(-0.523453 0.313703 -0.508188)
(-0.519451 0.387655 -0.535509)
(-0.299374 0.475453 -0.515956)
(-0.203486 0.665592 -0.383347)
(-0.165134 0.286445 -0.379795)
(-0.120281 0.539532 -0.394178)
(-0.152337 0.656339 -0.426684)
(-0.41125 0.542588 -0.616535)
(-0.144585 0.599098 -0.263985)
(-0.259441 0.585251 -0.301079)
(-0.26663 0.673972 -0.341804)
(-0.430164 0.429149 -0.360549)
(-0.427535 0.523868 -0.40976)
(-0.290769 0.566044 -0.341242)
(-0.0670184 0.558047 -0.303005)
(-0.0693683 0.654806 -0.328704)
(-0.298069 0.349921 -0.257098)
(-0.401378 0.409157 -0.294269)
(-0.358483 0.450043 -0.279369)
(-0.334938 0.505796 -0.318453)
(-0.50269 0.529783 -0.473297)
(-0.509265 0.471401 -0.429313)
(-0.446761 0.503131 -0.388656)
(-0.1608 0.632048 -0.386187)
(-0.22132 0.469051 -0.217239)
(-0.222011 0.481906 -0.230593)
(-0.154004 0.323382 -0.283032)
(-0.162516 0.286656 -0.233863)
(-0.217235 0.394163 -0.261469)
(-0.153959 0.327851 -0.249398)
(-0.161698 0.286691 -0.186725)
(-0.255926 0.587507 -0.437658)
(-0.233523 0.573163 -0.409476)
(-0.267857 0.648969 -0.427951)
(-0.116782 0.467195 -0.224514)
(-0.120911 0.546783 -0.254475)
(-0.478101 0.556204 -0.443107)
(-0.248696 0.577627 -0.257006)
(-0.546284 0.480126 -0.459303)
(-0.518666 0.487111 -0.439523)
(-0.508551 0.491379 -0.418091)
(-0.401914 0.285355 -0.567121)
(-0.367042 0.235372 -0.541014)
(-0.354005 0.29313 -0.534252)
(-0.43681 0.471568 -0.380454)
(-0.277023 0.245073 -0.491475)
(-0.171355 0.614013 -0.458275)
(-0.176051 0.61874 -0.43359)
(-0.186739 0.434431 -0.387892)
(-0.213086 0.610317 -0.364891)
(-0.203007 0.507498 -0.357964)
(-0.28707 0.580174 -0.277133)
(-0.344245 0.606505 -0.42769)
(-0.369009 0.598443 -0.387327)
(-0.383334 0.635202 -0.436445)
(-0.47292 0.377509 -0.442087)
(-0.473635 0.470221 -0.48169)
(-0.262912 0.473149 -0.213219)
(-0.264523 0.501192 -0.226262)
(-0.420269 0.542362 -0.413341)
(-0.417335 0.539061 -0.492623)
(-0.241888 0.350587 -0.449224)
(-0.286978 0.318919 -0.442494)
(-0.278728 0.472943 -0.477092)
(-0.286214 0.446622 -0.463187)
(-0.337516 0.348049 -0.444626)
(-0.102677 0.303295 -0.224395)
(-0.129165 0.395659 -0.297841)
(-0.336431 0.485197 -0.528008)
(-0.322948 0.579346 -0.555632)
(-0.454206 0.481831 -0.390412)
(-0.435483 0.503079 -0.448005)
(-0.475424 0.477229 -0.44437)
(-0.361825 0.536944 -0.453452)
(-0.401779 0.42948 -0.480119)
(-0.205055 0.59597 -0.313046)
(-0.130431 0.239903 -0.318836)
(-0.17948 0.376029 -0.390941)
(-0.146966 0.220996 -0.336983)
(-0.170258 0.328169 -0.38217)
(-0.175396 0.303495 -0.383092)
(-0.452084 0.577607 -0.4693)
(-0.46839 0.384438 -0.439577)
(-0.472443 0.452422 -0.40398)
(-0.462184 0.575596 -0.422647)
(-0.439814 0.616784 -0.438323)
(-0.411187 0.584302 -0.397538)
(-0.349592 0.475102 -0.469365)
(-0.512371 0.428158 -0.561946)
(-0.207296 0.538686 -0.246681)
(-0.281286 0.641392 -0.349195)
(-0.194198 0.59566 -0.237574)
(-0.185326 0.557588 -0.37171)
(-0.498118 0.440105 -0.632802)
(-0.137381 0.281027 -0.217114)
(-0.115159 0.220362 -0.259332)
(-0.55634 0.457948 -0.459285)
(-0.525821 0.508969 -0.476686)
(-0.385888 0.42616 -0.464537)
(-0.531812 0.530512 -0.49111)
(-0.113128 0.338784 -0.325849)
(-0.123108 0.395542 -0.340448)
(-0.139812 0.208023 -0.310539)
(-0.179372 0.301308 -0.300026)
(-0.145537 0.238462 -0.28674)
(-0.322201 0.541414 -0.405561)
(-0.108852 0.40577 -0.348)
(-0.481908 0.407888 -0.628095)
(-0.408333 0.575427 -0.406409)
(-0.397746 0.64875 -0.405543)
(-0.374215 0.639676 -0.434717)
(-0.301587 0.645807 -0.384073)
(-0.315567 0.595413 -0.34721)
(-0.109586 0.398979 -0.344218)
(-0.34116 0.535964 -0.510648)
(-0.361548 0.562778 -0.483124)
(-0.363363 0.532052 -0.47774)
(-0.350365 0.547783 -0.472111)
(-0.305739 0.522792 -0.46052)
(-0.178829 0.469318 -0.398138)
(-0.266331 0.339575 -0.190415)
(-0.546941 0.499369 -0.509365)
(-0.422959 0.530713 -0.477794)
(-0.483841 0.347939 -0.345942)
(-0.125428 0.576974 -0.412388)
(-0.52648 0.413752 -0.454215)
(-0.532206 0.385734 -0.409842)
(-0.520675 0.426572 -0.471497)
(-0.0878242 0.673191 -0.39726)
(-0.201723 0.525891 -0.36389)
(-0.18657 0.596783 -0.369449)
(-0.318604 0.620043 -0.370884)
(-0.228181 0.634416 -0.325341)
(-0.463807 0.591469 -0.530605)
(-0.438359 0.584511 -0.530601)
(-0.215404 0.593299 -0.247329)
(-0.113771 0.66746 -0.333942)
(-0.158987 0.554837 -0.253351)
(-0.135084 0.418268 -0.226977)
(-0.158779 0.392719 -0.188426)
(-0.148564 0.441755 -0.230499)
(-0.201584 0.416701 -0.194087)
(-0.0739826 0.470058 -0.232004)
(-0.233524 0.631994 -0.310894)
(-0.524545 0.340814 -0.516875)
(-0.388778 0.555867 -0.382953)
(-0.390671 0.483644 -0.347822)
(-0.394071 0.573695 -0.394931)
(-0.185996 0.860004 -0.453077)
(-0.171674 0.707942 -0.308688)
(-0.135181 0.456927 -0.360745)
(-0.569328 0.569359 -0.563093)
(-0.494569 0.398893 -0.492797)
(-0.515086 0.519578 -0.651)
(-0.0537987 0.947182 -0.430064)
(-0.37176 0.519861 -0.469677)
(-0.489343 0.407942 -0.379576)
(-0.406145 0.668767 -0.527491)
(-0.335504 0.583572 -0.540198)
(-0.381058 0.707183 -0.537573)
(-0.41599 0.507211 -0.531611)
(-0.469213 0.65832 -0.641127)
(-0.20101 0.758089 -0.352861)
(-0.0915354 0.765931 -0.367196)
(-0.528408 0.48169 -0.452728)
(-0.310953 0.795229 -0.57248)
(-0.300504 0.671252 -0.493668)
(-0.400457 0.785485 -0.56565)
(-0.240001 0.596789 -0.423607)
(-0.336628 0.817353 -0.488802)
(-0.359648 0.458476 -0.508318)
(-0.370562 0.719345 -0.449029)
(-0.440933 0.584767 -0.615015)
(-0.436873 0.508591 -0.596624)
(-0.183951 0.553376 -0.24196)
(-0.144159 0.500151 -0.2767)
(-0.18666 0.697439 -0.352369)
(-0.115828 0.654208 -0.303106)
(-0.133925 0.927338 -0.450443)
(-0.101876 0.832372 -0.384355)
(-0.178328 0.594771 -0.236439)
(-0.231019 0.734755 -0.367598)
(-0.122362 0.64381 -0.260469)
(-0.249852 0.514308 -0.380509)
(-0.267073 0.458948 -0.440636)
(-0.157433 0.9145 -0.461738)
(-0.331017 0.532879 -0.432598)
(-0.14415 0.869641 -0.447752)
(-0.233981 0.518712 -0.458587)
(-0.194969 0.867068 -0.470551)
(-0.184997 0.678884 -0.425549)
(-0.163847 0.585559 -0.426467)
(-0.317752 0.588318 -0.438376)
(-0.142646 0.501014 -0.397014)
(-0.193424 0.466084 -0.401678)
(-0.38748 0.451379 -0.319939)
(-0.506333 0.315973 -0.565983)
(-0.542725 0.390438 -0.550059)
(-0.396947 0.318136 -0.258406)
(-0.517726 0.429372 -0.443302)
(-0.0370029 0.957842 -0.406568)
(-0.180437 0.851739 -0.461824)
(-0.105201 0.814699 -0.346)
(-0.14973 0.867348 -0.454377)
(-0.0784819 0.999259 -0.44814)
(-0.0849083 0.969609 -0.444126)
(-0.137003 0.825987 -0.416956)
(-0.237941 0.549616 -0.449284)
(-0.146309 0.60332 -0.43159)
(-0.171331 0.789674 -0.422983)
(-0.241812 0.577173 -0.367802)
(-0.216031 0.543146 -0.399339)
(-0.077533 0.669195 -0.276073)
(-0.16112 0.5406 -0.213066)
(-0.417119 0.623434 -0.604378)
(-0.395323 0.516956 -0.574391)
(-0.353068 0.500123 -0.556617)
(-0.232818 0.457187 -0.29976)
(-0.187744 0.346341 -0.306591)
(-0.319616 0.71609 -0.464788)
(-0.275617 0.732351 -0.413004)
(-0.253158 0.530389 -0.251328)
(-0.21156 0.758963 -0.418361)
(-0.204312 0.73323 -0.378033)
(-0.201802 0.400183 -0.21096)
(-0.41994 0.480253 -0.322019)
(-0.31033 0.759438 -0.496989)
(-0.380288 0.584229 -0.377982)
(-0.244379 0.519543 -0.309495)
(-0.161295 0.339084 -0.199587)
(-0.287391 0.709838 -0.398126)
(-0.280638 0.474028 -0.231548)
(-0.35685 0.544084 -0.380538)
(-0.395224 0.468521 -0.374646)
(-0.174178 0.753153 -0.346682)
(-0.116223 0.920499 -0.423442)
(-0.407797 0.702874 -0.637469)
(-0.385514 0.587188 -0.60732)
(-0.48953 0.524608 -0.453086)
(-0.521828 0.551489 -0.475059)
(-0.53922 0.614278 -0.572211)
(-0.526743 0.661581 -0.580131)
(-0.458625 0.734526 -0.605782)
(-0.461652 0.70306 -0.634663)
(-0.427019 0.736254 -0.622509)
(-0.418741 0.576993 -0.512693)
(-0.454327 0.613616 -0.58505)
(-0.367 0.501046 -0.52731)
(-0.462334 0.592541 -0.645579)
(-0.423814 0.75323 -0.580127)
(-0.569815 0.596696 -0.564596)
(-0.446124 0.632496 -0.51674)
(-0.507149 0.673416 -0.599337)
(-0.491076 0.705713 -0.547442)
(-0.531438 0.596033 -0.508259)
(-0.459245 0.643657 -0.585296)
(-0.463157 0.694529 -0.651021)
(-0.471264 0.641274 -0.666353)
(-0.135147 0.975646 -0.472183)
(-0.0575223 0.942578 -0.425931)
(-0.0890991 0.986194 -0.449482)
(-0.072999 0.971799 -0.427201)
(-0.14792 0.928744 -0.457334)
(-0.148674 0.876797 -0.410853)
(-0.0872374 0.993555 -0.434805)
(-0.0892578 0.683371 -0.32538)
(-0.172065 0.56416 -0.247077)
(-0.167073 0.759957 -0.467488)
(-0.142113 0.895472 -0.46772)
(-0.185735 0.72604 -0.34898)
(-0.169815 0.754229 -0.355116)
(-0.293048 0.53548 -0.31944)
(-0.302378 0.589868 -0.406401)
(-0.489066 0.477409 -0.435012)
(-0.250333 0.521326 -0.382519)
(-0.177065 0.344451 -0.350044)
(-0.320768 0.443483 -0.531768)
(-0.259713 0.404857 -0.479127)
(-0.354929 0.705295 -0.557033)
(-0.341928 0.811387 -0.593035)
(-0.299722 0.8001 -0.568893)
(-0.38249 0.624645 -0.6099)
(-0.379537 0.652147 -0.596474)
(-0.290649 0.631154 -0.527839)
(-0.226517 0.66223 -0.430741)
(-0.188051 0.446218 -0.442018)
(-0.222098 0.915082 -0.501579)
(-0.302812 0.748326 -0.506165)
(-0.188647 0.672001 -0.396765)
(-0.188626 0.656576 -0.42377)
(-0.303882 0.868603 -0.520195)
(-0.484008 0.53363 -0.493193)
(-0.495963 0.61617 -0.554047)
(-0.415166 0.731193 -0.551705)
(-0.400288 0.792078 -0.544119)
(-0.503045 0.67695 -0.538746)
(-0.38243 0.824402 -0.553504)
(-0.332499 0.564851 -0.509106)
(-0.1763 0.429546 -0.415603)
(-0.422724 0.555144 -0.547979)
(-0.281783 0.711832 -0.485115)
(-0.253078 0.400129 -0.470034)
(-0.374831 0.741895 -0.530006)
(-0.297892 0.854371 -0.554501)
(-0.254404 0.91035 -0.527599)
(-0.34056 0.665689 -0.451081)
(-0.337768 0.856448 -0.52203)
(-0.299717 0.831619 -0.565289)
(-0.288935 0.854823 -0.530576)
(-0.374504 0.814532 -0.526963)
(-0.247382 0.286665 -0.469221)
(-0.246676 0.396724 -0.462666)
(-0.461438 0.382263 -0.516148)
(-0.224108 0.924457 -0.484902)
(-0.334497 0.624216 -0.375686)
(-0.193659 0.763961 -0.428833)
(-0.251398 0.765042 -0.386068)
(-0.22939 0.835672 -0.474584)
(-0.284832 0.676791 -0.429981)
(-0.17251 0.91675 -0.434119)
(-0.208822 0.627647 -0.447434)
(-0.1935 0.821029 -0.456078)
(-0.251778 0.750009 -0.387939)
(-0.242825 0.632814 -0.349954)
(-0.257586 0.887335 -0.516749)
(-0.269469 0.591541 -0.430291)
(-0.319202 0.739477 -0.480967)
(-0.282201 0.751052 -0.42055)
(-0.225337 0.848038 -0.482838)
(-0.154844 0.870306 -0.426986)
(-0.255721 0.770398 -0.417278)
(-0.173546 0.847564 -0.426118)
(-0.191987 0.891079 -0.486528)
(-0.172519 0.89756 -0.475684)
(-0.192946 0.84784 -0.438394)
(-0.205967 0.714134 -0.362664)
(-0.547301 0.393962 -0.567419)
(-0.442609 0.361157 -0.574715)
(-0.502207 0.54697 -0.573467)
(-0.463518 0.474252 -0.577613)
(-0.544621 0.358403 -0.582318)
(-0.53799 0.341678 -0.585471)
(-0.466014 0.492113 -0.56831)
(-0.135485 0.341479 -0.351308)
(-0.133677 0.505796 -0.346487)
(-0.150802 0.427581 -0.406841)
(-0.49052 0.555334 -0.63086)
(-0.532909 0.429934 -0.496864)
(-0.456047 0.652889 -0.618)
(-0.523432 0.474177 -0.513276)
(-0.523197 0.406232 -0.583562)
(-0.513244 0.563113 -0.588787)
(-0.434555 0.641262 -0.553622)
(-0.539942 0.421692 -0.494681)
(-0.420196 0.663278 -0.554146)
(-0.532487 0.500094 -0.558657)
(-0.48582 0.623712 -0.624484)
(-0.511627 0.558668 -0.634969)
(-0.489003 0.586839 -0.556292)
(-0.0927314 0.844732 -0.434223)
(-0.102054 0.770352 -0.4303)
(-0.0956959 0.885196 -0.438262)
(-0.0655074 0.875364 -0.426476)
(-0.100423 0.828246 -0.434393)
(-0.267745 0.820974 -0.535354)
(-0.326944 0.616299 -0.556581)
(-0.293094 0.81107 -0.541089)
(-0.337777 0.676767 -0.566759)
(-0.296149 0.69175 -0.522632)
(-0.315271 0.696369 -0.522598)
(-0.333252 0.717431 -0.560443)
(-0.412159 0.466886 -0.33558)
(-0.391061 0.55252 -0.368476)
(-0.409356 0.602733 -0.438896)
(-0.438988 0.56596 -0.406788)
(-0.42206 0.561691 -0.394472)
(-0.493437 0.486232 -0.453381)
(-0.389831 0.552868 -0.364277)
(-0.441398 0.631845 -0.522169)
(-0.380405 0.665147 -0.460251)
(-0.450166 0.565548 -0.468439)
(-0.448782 0.571351 -0.458744)
(-0.389952 0.640699 -0.459084)
(-0.295605 0.53134 -0.514951)
(-0.384281 0.520689 -0.485094)
(-0.282282 0.70691 -0.536598)
(-0.351646 0.525988 -0.466412)
(-0.316274 0.450962 -0.458518)
(-0.336609 0.543443 -0.461845)
(-0.565361 0.332023 -0.554957)
(-0.350132 0.529165 -0.547301)
(-0.329138 0.647363 -0.47573)
(-0.341552 0.530569 -0.50487)
(-0.563654 0.363579 -0.482828)
(-0.599599 0.445634 -0.503515)
(-0.556726 0.436031 -0.449547)
(-0.559836 0.446182 -0.480447)
(-0.548076 0.453645 -0.460319)
(-0.581712 0.46287 -0.4986)
(-0.389132 0.676468 -0.551702)
(-0.430586 0.744331 -0.62527)
(-0.377977 0.703884 -0.555046)
(-0.417109 0.754366 -0.603257)
(-0.370873 0.68626 -0.5423)
(-0.390361 0.705842 -0.558194)
(-0.398476 0.73531 -0.590239)
(-0.484932 0.581053 -0.593734)
(-0.442915 0.481532 -0.558718)
(-0.449842 0.510623 -0.522998)
(-0.443733 0.535858 -0.606282)
(-0.479109 0.531385 -0.583441)
(-0.493418 0.611658 -0.59548)
(-0.483332 0.566642 -0.545463)
(-0.486401 0.580068 -0.529561)
(-0.505233 0.538136 -0.527387)
(-0.468964 0.63413 -0.661235)
(-0.444747 0.730562 -0.638123)
(-0.437268 0.697915 -0.632589)
(-0.427097 0.714801 -0.624784)
(-0.471205 0.657166 -0.657072)
(-0.474016 0.653011 -0.65205)
(-0.415796 0.720508 -0.624169)
(-0.264512 0.624106 -0.53173)
(-0.249993 0.728631 -0.538025)
(-0.224913 0.601751 -0.481737)
(-0.220928 0.594017 -0.478813)
(-0.198046 0.528204 -0.453956)
(-0.214257 0.644845 -0.499973)
(-0.159946 0.808211 -0.363268)
(-0.154538 0.66853 -0.287872)
(-0.171781 0.786171 -0.358344)
(-0.222082 0.68444 -0.323113)
(-0.225757 0.707051 -0.335744)
(-0.174003 0.779729 -0.346608)
(-0.0958613 0.612934 -0.348669)
(-0.0898884 0.656034 -0.350048)
(-0.0789282 0.68681 -0.367674)
(-0.0967245 0.735529 -0.414305)
(-0.0943026 0.62231 -0.36566)
(-0.0743592 0.629127 -0.389155)
(-0.0821735 0.768881 -0.400927)
(-0.0886103 0.72159 -0.371528)
(-0.333528 0.641661 -0.366016)
(-0.560844 0.442308 -0.482127)
(-0.155114 0.262539 -0.324242)
(-0.126267 0.271304 -0.278266)
(-0.131506 0.283237 -0.292455)
(-0.162321 0.308605 -0.336868)
(-0.277398 0.805568 -0.547835)
(-0.271792 0.759535 -0.549579)
(-0.275027 0.830966 -0.552387)
(-0.284115 0.70179 -0.552397)
(-0.308103 0.739804 -0.569259)
(-0.259414 0.824986 -0.549548)
(-0.326843 0.795878 -0.47823)
(-0.372638 0.748541 -0.504924)
(-0.387628 0.651642 -0.452906)
(-0.404962 0.690975 -0.502955)
(-0.316795 0.78756 -0.493524)
(-0.322554 0.767995 -0.499694)
(-0.383455 0.673587 -0.501285)
(-0.380655 0.791776 -0.598881)
(-0.331673 0.814297 -0.537599)
(-0.366584 0.782603 -0.586396)
(-0.341477 0.803623 -0.546221)
(-0.394594 0.801317 -0.58175)