/*--------------------------------*- C++ -*----------------------------------*\
| =========                 |                                                 |
| \\      /  F ield         | OpenFOAM: The Open Source CFD Toolbox           |
|  \\    /   O peration     | Version:  v1612+                                |
|   \\  /    A nd           | Web:      www.OpenFOAM.com                      |
|    \\/     M anipulation  |                                                 |
\*---------------------------------------------------------------------------*/
FoamFile
{
    version     2.0;
    format      ascii;
    class       volVectorField;
    location    "50";
    object      U;
}
// * * * * * * * * * * * * * * * * * * * * * * * * * * * * * * * * * * * * * //

dimensions      [0 1 -1 0 0 0 0];

internalField   nonuniform List<vector> 
17049
(
(0.252633 0.619862 0.00987679)
(0.237226 0.563654 0.00606213)
(0.225824 0.541824 0.0058883)
(0.34475 0.830892 -0.0157257)
(0.270136 0.669702 -0.0113664)
(0.30449 0.752195 -0.00988565)
(0.336174 0.829912 -0.0105297)
(0.302922 0.758554 -0.00959484)
(0.269149 0.672699 -0.00760329)
(0.289978 0.705863 -0.011727)
(0.331869 0.808294 -0.00805522)
(0.302208 0.757961 -0.00773932)
(0.305334 0.760243 -0.00767821)
(0.28763 0.74223 -0.00799816)
(0.261544 0.655407 -0.00871627)
(0.258667 0.648323 -0.00635563)
(0.272343 0.677859 -0.00879974)
(0.295305 0.742768 -0.0069503)
(0.258811 0.637204 -0.00983347)
(0.409873 1.00771 -0.000512362)
(0.407966 0.99454 -0.016686)
(0.384469 0.944721 -0.00751195)
(0.381746 0.940963 -0.00601962)
(0.432342 1.0594 -0.0114411)
(0.422306 1.03856 -0.00594808)
(0.403716 0.982715 -0.00679645)
(0.466262 1.13541 -0.00896482)
(0.486015 1.16819 -0.014555)
(0.473577 1.14534 -0.000961439)
(0.412835 1.01107 -0.00849989)
(0.417235 1.02234 -0.00872202)
(0.437193 1.06443 -0.00995094)
(0.43406 1.06029 -0.00751185)
(0.432787 1.05837 -0.00874053)
(0.439906 1.08693 -0.00603578)
(0.465369 1.11538 -0.0172895)
(0.291905 0.709062 0.00918071)
(0.302944 0.741585 0.00596629)
(0.227677 0.541721 0.00693975)
(0.246336 0.590798 0.0124546)
(0.319424 0.760025 -0.00261528)
(0.314142 0.772483 0.00322852)
(0.252003 0.607392 0.00945128)
(0.234274 0.5574 0.0045905)
(0.2148 0.511289 0.00461928)
(0.292429 0.717146 0.00565056)
(0.309873 0.756246 0.00275161)
(0.315598 0.759542 0.00367521)
(0.254977 0.63353 0.00433866)
(0.229881 0.559171 0.00617087)
(0.228624 0.559247 0.00323243)
(0.205018 0.489329 0.0012554)
(0.251204 0.615205 0.00539462)
(0.248102 0.612231 0.000541297)
(0.215196 0.51376 0.00362943)
(0.229896 0.558779 0.00518119)
(0.224284 0.56213 -0.00595726)
(0.196575 0.496688 -0.00867103)
(0.236359 0.59842 -0.00951222)
(0.22934 0.566838 -0.0069402)
(0.213885 0.546914 -0.00865544)
(0.208159 0.52508 -0.00574269)
(0.238007 0.608502 -0.00758222)
(0.2329 0.58736 -0.00437619)
(0.230652 0.574938 -0.00509434)
(0.204254 0.513875 -0.00694011)
(0.212477 0.537113 -0.00567655)
(0.255485 0.609528 0.00619755)
(0.231321 0.55079 0.00229177)
(0.311673 0.736478 0.00611969)
(0.310485 0.734357 -0.000812839)
(0.221542 0.538585 0.000606645)
(0.236329 0.569437 0.00475992)
(0.33108 0.774032 0.000783449)
(0.25469 0.596973 0.00393098)
(0.313571 0.73696 0.00504103)
(0.303092 0.70502 0.0105171)
(0.221384 0.540402 0.00313233)
(0.208242 0.511601 0.00515229)
(0.256642 0.626428 0.00169833)
(0.244936 0.587233 0.00573579)
(0.238308 0.569925 -0.0018902)
(0.265565 0.628843 0.00412224)
(0.240711 0.574048 0.00122172)
(0.243523 0.569431 0.00464655)
(0.21877 0.516917 -0.00702426)
(0.226698 0.552076 0.001083)
(0.350109 0.865418 0.0110498)
(0.372914 0.908941 -0.00504592)
(0.434209 1.03665 -0.000538857)
(0.4553 1.09005 0.00623425)
(0.411575 0.994915 0.0051077)
(0.326758 0.813575 0.000221135)
(0.322711 0.799348 0.0101622)
(0.343059 0.852841 0.0117139)
(0.380172 0.947378 -0.00306767)
(0.398216 0.978119 0.00442178)
(0.40734 0.984205 0.00130505)
(0.409747 0.991954 0.00440739)
(0.340162 0.84813 0.00308981)
(0.312825 0.788939 0.00170527)
(0.350729 0.860059 0.00460238)
(0.313451 0.7858 0.00890589)
(0.3108 0.765658 0.00502072)
(0.328386 0.813111 0.00736383)
(0.339114 0.870394 0.000943643)
(0.369 0.898635 0.00658704)
(0.38766 0.923994 0.00570453)
(0.382527 0.919525 0.0174776)
(0.403226 0.959042 0.0150984)
(0.322683 0.790604 0.0196732)
(0.32886 0.80321 0.010692)
(0.328229 0.797393 0.0162805)
(0.310484 0.768075 0.00663168)
(0.328726 0.788039 0.00705026)
(0.31096 0.78784 -0.00181196)
(0.320817 0.773482 0.012637)
(0.30114 0.756782 -0.0010087)
(0.315017 0.733364 -0.00665947)
(0.299499 0.691388 -0.000304314)
(0.311937 0.731222 -0.00132801)
(0.298725 0.696491 -0.000920863)
(0.325625 0.760688 0.00254422)
(0.307802 0.713541 -0.00144718)
(0.399431 0.917661 0.000800247)
(0.358625 0.820917 0.00976372)
(0.357233 0.81889 -0.00322021)
(0.376268 0.876391 0.00633052)
(0.480163 1.1152 -0.0140573)
(0.47592 1.15512 -0.0165313)
(0.488995 1.16746 -0.0245911)
(0.440494 1.04612 -0.0184478)
(0.422596 1.00872 -0.0180258)
(0.448578 1.08047 -0.0220101)
(0.490322 1.14747 -0.0145796)
(0.239644 0.58205 0.00442226)
(0.213951 0.515869 0.00439695)
(0.29307 0.698119 -0.00401565)
(0.241507 0.561491 0.00340689)
(0.22085 0.533712 0.00359459)
(0.267725 0.644473 -0.010247)
(0.24028 0.568012 -0.00245071)
(0.222398 0.522408 0.00236878)
(0.204628 0.493271 0.00596962)
(0.236407 0.57548 -0.00303248)
(0.236718 0.575786 0.000682132)
(0.282692 0.668483 -0.000260435)
(0.277923 0.679179 -0.00419016)
(0.286289 0.688229 -0.00188583)
(0.216357 0.514266 -0.000919191)
(0.261172 0.634346 0.00222369)
(0.246627 0.587471 -0.00672232)
(0.246577 0.602894 -0.0057776)
(0.242015 0.620443 -0.00388275)
(0.319427 0.786082 -0.00620477)
(0.353453 0.857067 -0.00601798)
(0.338352 0.831486 -0.0114118)
(0.294392 0.750235 -0.00712179)
(0.305786 0.767084 -0.0100491)
(0.262171 0.647829 -0.00528866)
(0.27629 0.677794 -0.00733543)
(0.244898 0.5995 -0.00787494)
(0.257185 0.635137 0.000769043)
(0.329282 0.827055 -0.0182184)
(0.320085 0.793897 -0.00956709)
(0.268061 0.653907 0.00195694)
(0.27883 0.70179 -0.00668612)
(0.265196 0.670124 -0.00736325)
(0.354946 0.874109 -0.00757202)
(0.305533 0.748448 -0.00547423)
(0.325669 0.804749 -0.00842287)
(0.389284 0.913176 -0.00860659)
(0.378335 0.896818 -0.00278052)
(0.293611 0.704472 -0.00112363)
(0.312348 0.757076 0.00367748)
(0.301132 0.718126 -0.00118042)
(0.322319 0.779319 -0.00114698)
(0.322016 0.774977 -0.0027274)
(0.37928 0.887415 -0.00239737)
(0.371238 0.868833 -0.00246614)
(0.375294 0.886323 -0.00571621)
(0.365902 0.867049 0.000959325)
(0.335276 0.805023 0.0066089)
(0.296143 0.711093 -0.00378114)
(0.312144 0.74912 -0.00419512)
(0.365421 0.861616 0.00013912)
(0.337739 0.83565 -0.000277812)
(0.342354 0.83677 0.00227261)
(0.405435 0.988418 -0.00396959)
(0.400277 0.963647 -0.0058611)
(0.32898 0.815666 0.00443467)
(0.366776 0.888067 0.00351096)
(0.371041 0.909133 0.00249398)
(0.288314 0.71237 -0.000661568)
(0.290621 0.710369 0.000166293)
(0.347711 0.856583 0.00470529)
(0.351381 0.86425 0.00234677)
(0.336214 0.844225 -0.00114147)
(0.339199 0.822779 0.00573011)
(0.340925 0.841874 0.00122704)
(0.305654 0.718666 -0.0129045)
(0.289397 0.68463 -0.0144015)
(0.218742 0.521845 -0.0104722)
(0.24055 0.562681 -0.00465716)
(0.308704 0.733433 -0.00983032)
(0.325885 0.767623 -0.0131526)
(0.280216 0.659954 -0.00185162)
(0.239202 0.583523 -0.0118912)
(0.228724 0.552637 -0.00345501)
(0.203083 0.494798 -0.00286959)
(0.303458 0.697105 -0.0112707)
(0.303435 0.695498 -0.00723022)
(0.295728 0.685656 -0.00550411)
(0.245373 0.578427 -0.00675774)
(0.222525 0.530455 -0.00990311)
(0.247165 0.593166 -0.0100434)
(0.239225 0.569209 -0.00592011)
(0.291588 0.679611 -0.00777136)
(0.230099 0.544698 -0.00427471)
(0.199416 0.475446 -0.00830858)
(0.450728 1.08826 -0.00763651)
(0.426406 1.02927 -0.00212974)
(0.447565 1.08222 0.00448377)
(0.431991 1.03623 2.60217e-05)
(0.463048 1.08483 -0.000535216)
(0.486855 1.15131 0.00688046)
(0.481139 1.13739 0.0107435)
(0.501162 1.18103 0.00701249)
(0.446873 1.08162 -0.00384345)
(0.448454 1.09064 0.00616969)
(0.458961 1.09854 -0.00241467)
(0.461365 1.12438 0.00374637)
(0.488902 1.16622 0.000310834)
(0.448555 1.07732 0.00094847)
(0.485834 1.15363 0.00501472)
(0.487407 1.16329 0.00704875)
(0.479699 1.14178 0.00137234)
(0.504404 1.20876 -0.000461227)
(0.481505 1.167 -0.00108347)
(0.333961 0.821701 0.000280317)
(0.329951 0.812172 0.0064785)
(0.395482 0.975671 0.00114785)
(0.351931 0.864273 0.00136998)
(0.3192 0.790249 0.00631993)
(0.330701 0.825042 7.82275e-05)
(0.341935 0.845083 0.000944325)
(0.340141 0.831227 0.00114315)
(0.41955 1.01674 0.00348447)
(0.417037 1.02014 0.00699056)
(0.360785 0.883789 0.00934713)
(0.222893 0.541283 -0.0109597)
(0.229921 0.546735 -0.0127904)
(0.242139 0.580324 -0.00542714)
(0.234902 0.581153 -0.00554162)
(0.2354 0.57168 -0.00995824)
(0.230624 0.592123 -0.00615522)
(0.227498 0.563744 -0.00260393)
(0.239064 0.598895 0.00137737)
(0.238404 0.591119 0.00259733)
(0.305264 0.728077 -0.00598314)
(0.310715 0.778403 -0.00484972)
(0.313543 0.76024 -0.0026675)
(0.303495 0.741099 -0.0011635)
(0.24566 0.612842 -0.00271176)
(0.286468 0.71217 -0.00198458)
(0.300328 0.708999 -0.00803966)
(0.329726 0.767242 -0.00224995)
(0.312201 0.73151 0.00344747)
(0.325477 0.764348 0.0049849)
(0.295956 0.67454 -0.0053955)
(0.297174 0.68942 -0.00460609)
(0.284205 0.661737 -0.0116587)
(0.306908 0.722143 -0.00832262)
(0.303607 0.71546 0.00445909)
(0.317504 0.733851 -0.000249777)
(0.247687 0.580177 -0.00170115)
(0.251342 0.595143 0.00216004)
(0.244694 0.579764 0.00194535)
(0.220797 0.518591 0.00363116)
(0.232744 0.549785 -0.00881793)
(0.204131 0.482372 -0.0027555)
(0.237732 0.552108 -0.00300602)
(0.227934 0.535796 0.00756317)
(0.310086 0.717726 -0.0026436)
(0.225893 0.53678 -0.0043078)
(0.195812 0.473033 -0.000814562)
(0.254725 0.598338 -0.00193227)
(0.238551 0.554312 -0.00109834)
(0.220518 0.523783 0.00308845)
(0.28336 0.666319 -0.00497107)
(0.253939 0.612239 -0.00378175)
(0.24906 0.592692 0.00596078)
(0.231649 0.561017 -0.000446579)
(0.269214 0.637996 0.00237168)
(0.248377 0.595071 0.00144526)
(0.269323 0.640541 -0.000896504)
(0.270923 0.666763 -0.00568053)
(0.335723 0.811471 0.00350524)
(0.342953 0.811292 -0.0024682)
(0.335849 0.80053 -0.00592729)
(0.350554 0.835036 -0.0014811)
(0.240107 0.591212 0.000263788)
(0.217315 0.536513 0.00310356)
(0.290855 0.70545 -0.0043795)
(0.239128 0.581529 -0.00302746)
(0.230211 0.575455 -0.00278828)
(0.316561 0.777278 -0.00910656)
(0.328135 0.800951 -0.00368959)
(0.24132 0.580176 -0.00431285)
(0.219028 0.522016 -0.00655301)
(0.249234 0.600326 -0.00325012)
(0.213339 0.532948 0.000822726)
(0.197698 0.497855 5.0614e-05)
(0.223687 0.533364 0.000963613)
(0.194821 0.468415 -0.00178139)
(0.242042 0.571558 -0.00537777)
(0.254083 0.6067 0.00145084)
(0.295517 0.702516 0.00564908)
(0.247564 0.584542 -0.00541344)
(0.23489 0.585537 0.00690409)
(0.23187 0.562888 0.0032897)
(0.212146 0.534343 -0.00158615)
(0.260243 0.634334 0.00201317)
(0.307593 0.754196 0.00273538)
(0.303239 0.755252 0.00790018)
(0.233271 0.549997 0.00737976)
(0.216125 0.529804 0.00868648)
(0.26634 0.642304 0.00708943)
(0.227503 0.543487 0.00372323)
(0.202089 0.498185 0.00444207)
(0.232471 0.595486 0.00887647)
(0.225354 0.58263 0.00458463)
(0.220854 0.574364 0.00537294)
(0.316668 0.770054 0.00397318)
(0.300631 0.738862 0.00359559)
(0.319345 0.771987 0.00302602)
(0.241938 0.589107 -0.00122351)
(0.247111 0.606589 -0.00254228)
(0.301972 0.745641 0.00570378)
(0.261964 0.628541 0.00478466)
(0.228215 0.559848 0.000459348)
(0.299372 0.716879 0.00434912)
(0.301927 0.711376 0.00431622)
(0.295647 0.698258 0.00808958)
(0.231588 0.557034 0.00492574)
(0.201127 0.482363 0.0105347)
(0.244044 0.603272 0.000408323)
(0.29989 0.726078 0.00208143)
(0.290877 0.701118 0.00468393)
(0.288357 0.695113 0.00748735)
(0.25029 0.595482 0.00227291)
(0.225748 0.542307 0.00486486)
(0.237739 0.583476 -0.0004775)
(0.226276 0.545113 0.00734687)
(0.207119 0.495462 0.00827146)
(0.238629 0.577318 0.00541822)
(0.278157 0.682031 0.000904631)
(0.428949 1.01892 -0.00296063)
(0.395338 0.94573 0.00446645)
(0.425979 1.00288 0.0103193)
(0.453399 1.06853 0.00254371)
(0.408588 0.951379 0.00775694)
(0.417874 0.982383 0.00486469)
(0.429367 0.983229 -5.38681e-05)
(0.389718 0.923243 0.00367504)
(0.41348 0.958211 0.00296881)
(0.37972 0.914056 0.00745529)
(0.427484 0.987265 0.00272243)
(0.441115 1.02815 -0.0016164)
(0.453062 1.0729 0.00360627)
(0.437341 1.01409 0.00440299)
(0.452642 1.0669 0.000511814)
(0.305714 0.742799 0.000724903)
(0.25206 0.629967 0.000975985)
(0.305872 0.762408 0.0037847)
(0.319134 0.766654 -0.00290533)
(0.250609 0.629011 0.00408107)
(0.25798 0.62509 0.00654011)
(0.24432 0.586013 0.00765279)
(0.233982 0.573443 0.00228875)
(0.253894 0.624553 0.00826166)
(0.234316 0.576071 0.00618462)
(0.25088 0.616566 0.00300385)
(0.227338 0.549975 0.00717555)
(0.246459 0.604795 0.00515405)
(0.215825 0.534224 0.00408112)
(0.217115 0.53573 0.00053815)
(0.299248 0.70976 -0.00758751)
(0.330487 0.792293 -0.00184192)
(0.292066 0.713864 -0.00812775)
(0.307638 0.749061 -0.00474794)
(0.262965 0.639616 -0.000446013)
(0.235598 0.566268 -0.00186677)
(0.216821 0.511718 0.00863352)
(0.235018 0.542285 0.00277296)
(0.326371 0.802346 -0.00798225)
(0.302834 0.747942 -0.00918152)
(0.228092 0.544938 0.00463078)
(0.248341 0.602557 -0.00252792)
(0.244205 0.594359 0.00720727)
(0.240814 0.578787 0.0086486)
(0.257598 0.618276 0.00343497)
(0.251381 0.588781 0.00592175)
(0.24342 0.580333 0.00432595)
(0.304822 0.715731 0.00561838)
(0.251228 0.597694 0.00356963)
(0.229067 0.555585 -0.00251171)
(0.238424 0.572491 0.00155476)
(0.211851 0.509918 2.63069e-06)
(0.322886 0.758069 -0.00302175)
(0.333835 0.78831 0.00141807)
(0.257685 0.613707 0.00405448)
(0.252319 0.610541 -0.00116455)
(0.299712 0.700501 0.000558965)
(0.258488 0.620426 -0.00637911)
(0.232334 0.568206 -0.00405013)
(0.210836 0.521084 -0.00199249)
(0.496498 1.16958 0.00216184)
(0.506604 1.18361 0.000746142)
(0.500071 1.17407 -0.000200928)
(0.498703 1.16926 0.00105664)
(0.504595 1.18072 -0.00419986)
(0.510481 1.18681 -1.88883e-05)
(0.501199 1.17572 -0.000562494)
(0.511359 1.202 0.00150933)
(0.509035 1.20539 0.000522751)
(0.499717 1.19293 0.00156859)
(0.537919 1.27635 -0.0017311)
(0.499672 1.16938 -0.0013651)
(0.494113 1.14156 0.00635116)
(0.494911 1.1847 0.000121224)
(0.457751 1.0834 0.0036984)
(0.490128 1.13849 0.00426897)
(0.505623 1.19185 0.00151985)
(0.493241 1.16457 0.00335224)
(0.489784 1.15956 0.000813992)
(0.498963 1.1727 -0.00408023)
(0.50525 1.19454 0.00227616)
(0.497287 1.17302 0.0053968)
(0.469028 1.10515 0.0041988)
(0.499825 1.17201 0.00605859)
(0.459834 1.09397 0.000341073)
(0.459774 1.10868 0.00186871)
(0.481449 1.14023 0.00581358)
(0.481644 1.14071 0.00364795)
(0.498623 1.17433 -0.000812954)
(0.477956 1.13222 0.00573341)
(0.483223 1.12411 0.00992916)
(0.490421 1.15126 0.00131552)
(0.422007 1.04466 0.0147007)
(0.408018 0.994878 0.00278629)
(0.429307 1.05365 0.012649)
(0.390123 0.955459 0.00831754)
(0.445415 1.09293 0.0116149)
(0.419928 1.02193 0.00639986)
(0.387732 0.958407 0.00428492)
(0.388846 0.951285 0.00250782)
(0.475172 1.14421 0.00867341)
(0.438907 1.08077 0.00405651)
(0.447662 1.11506 0.0021608)
(0.411626 1.00291 0.00208638)
(0.450967 1.08097 0.00283142)
(0.426007 1.03739 0.00156691)
(0.388952 0.950899 -0.000623096)
(0.464749 1.13546 0.0109348)
(0.46713 1.13969 0.00479814)
(0.439645 1.07539 0.00290534)
(0.431677 1.06915 -0.000869092)
(0.409538 1.01187 -0.00308688)
(0.295788 0.702749 0.00632827)
(0.311751 0.740256 0.00945313)
(0.34058 0.821176 0.00235435)
(0.304858 0.718954 0.00407249)
(0.307879 0.765831 0.0106453)
(0.277795 0.667824 0.00209819)
(0.328837 0.780052 0.0120309)
(0.355175 0.845042 0.00970014)
(0.343088 0.801024 0.0053783)
(0.351499 0.83563 0.00772392)
(0.390966 0.925969 0.00911005)
(0.339218 0.807996 0.00799206)
(0.396292 0.925004 -0.000889754)
(0.382078 0.895465 0.00117711)
(0.32008 0.79527 -0.00386341)
(0.37035 0.892299 -0.00238637)
(0.346027 0.845259 -0.0124454)
(0.318749 0.770345 0.00203474)
(0.379839 0.886516 -0.00225706)
(0.389121 0.918684 -0.00170375)
(0.33816 0.807026 -0.00247495)
(0.312144 0.754967 -0.00747536)
(0.305295 0.72869 -0.00188799)
(0.313243 0.751167 -0.00354103)
(0.288041 0.694498 0.00497499)
(0.339465 0.808754 -0.0178675)
(0.34769 0.828465 -0.00794782)
(0.383851 0.899987 -0.0141287)
(0.338778 0.806772 -0.0220285)
(0.364844 0.866386 -0.0145633)
(0.354276 0.856756 -0.013018)
(0.354218 0.829598 -0.0141395)
(0.452638 1.07017 -0.0114011)
(0.456905 1.07446 -0.0166151)
(0.417401 0.977932 -0.023552)
(0.454161 1.08092 -0.00912973)
(0.443254 1.05955 -0.00818888)
(0.37391 0.903495 -0.015145)
(0.413667 0.980086 -0.0218912)
(0.395246 0.934075 -0.0219335)
(0.40594 0.946547 -0.0217908)
(0.385406 0.907421 -0.0146455)
(0.361064 0.833439 -0.0225621)
(0.466912 1.13372 -0.0129759)
(0.431365 1.06147 -0.0179392)
(0.395087 0.961772 -0.0102853)
(0.340751 0.860704 -0.0125646)
(0.430151 1.04386 -0.0118828)
(0.439076 1.07807 -0.013949)
(0.356019 0.896356 -0.0119117)
(0.385941 0.949881 -0.0212533)
(0.341324 0.862351 -0.0174057)
(0.356968 0.882231 -0.00835211)
(0.392023 0.978196 -0.00677219)
(0.370595 0.929942 -0.00816023)
(0.471017 1.13087 -0.00985852)
(0.406005 1.00647 7.76511e-05)
(0.41258 1.01395 0.000618386)
(0.388628 0.949226 -0.00444567)
(0.422685 1.03613 -0.00831723)
(0.464893 1.1149 -0.00609968)
(0.318396 0.779848 0.00887777)
(0.337393 0.83088 0.0143447)
(0.342909 0.830926 0.000940711)
(0.33228 0.795737 0.00505318)
(0.259463 0.649977 0.00409206)
(0.269356 0.67189 -0.000618534)
(0.388966 0.958759 -0.00805631)
(0.34639 0.858863 -0.0042373)
(0.355978 0.862326 0.0120356)
(0.350267 0.856667 0.0077981)
(0.247277 0.627961 -0.00449966)
(0.328544 0.804546 0.0039409)
(0.377176 0.938582 0.000629388)
(0.282421 0.683377 0.00598689)
(0.284123 0.709135 0.00106664)
(0.284016 0.718902 0.00334183)
(0.326008 0.815484 0.00594535)
(0.364687 0.902501 -0.000316778)
(0.334651 0.817535 0.00871628)
(0.32798 0.814096 0.00717358)
(0.335638 0.824856 0.0154127)
(0.241835 0.581361 -0.00535198)
(0.206605 0.513151 -0.00843049)
(0.227752 0.542518 -0.00496968)
(0.218532 0.533329 -0.00223388)
(0.264325 0.637367 0.00280395)
(0.290988 0.695878 0.00500851)
(0.254448 0.624144 -0.00359641)
(0.275708 0.678947 -0.003977)
(0.230021 0.56214 -0.00561181)
(0.249167 0.58784 -0.00846307)
(0.244517 0.586974 0.00137904)
(0.288485 0.685197 0.00364)
(0.332332 0.799333 0.00460254)
(0.306095 0.749195 -0.00442511)
(0.30866 0.747077 -0.0028949)
(0.247144 0.589021 -0.00281487)
(0.323143 0.772712 0.00122099)
(0.350897 0.821811 0.00690001)
(0.39877 0.965434 -0.00455635)
(0.404858 0.982468 -0.00767065)
(0.428863 1.03047 -0.00599676)
(0.443281 1.06729 -0.00589695)
(0.420998 1.01447 -0.00208278)
(0.408743 0.974199 -0.00162509)
(0.408108 0.969196 -0.00478826)
(0.377467 0.905265 -0.00911239)
(0.417378 0.994335 -0.00130543)
(0.391352 0.923956 -0.00718038)
(0.382272 0.928934 0.00349831)
(0.381474 0.906426 0.000430535)
(0.457442 1.10911 -0.00578219)
(0.407205 0.979755 0.00576237)
(0.378017 0.906041 0.000943284)
(0.422927 1.02793 -0.00162)
(0.388003 0.945503 -0.000861694)
(0.414879 0.998384 0.00607248)
(0.412369 1.03135 0.000111218)
(0.410141 0.994663 0.00330424)
(0.412881 1.01831 0.00672052)
(0.370675 0.910025 -6.01707e-05)
(0.393086 0.965226 -0.00398621)
(0.404989 1.01218 -0.00419877)
(0.458296 1.11676 0.00749423)
(0.466784 1.12734 0.0108354)
(0.372855 0.901208 -0.00146943)
(0.400511 0.969517 0.00724693)
(0.379483 0.938816 0.00186831)
(0.387718 0.944222 -0.00251772)
(0.417484 1.00825 -0.00265548)
(0.418729 1.02398 -0.00254279)
(0.471195 1.13386 0.00874793)
(0.417574 0.998648 0.00127749)
(0.378156 0.925845 -0.000718901)
(0.375767 0.918397 -0.00109306)
(0.40205 0.953631 0.00100489)
(0.364412 0.878216 -0.00419107)
(0.453432 1.08218 0.00953634)
(0.45611 1.11459 0.00732753)
(0.438103 1.03779 0.00216842)
(0.407852 0.981199 0.00439433)
(0.496119 1.21739 0.00346455)
(0.482106 1.18933 -0.00396362)
(0.436057 1.08923 -1.24592e-05)
(0.400774 1.01539 -0.00503315)
(0.411424 1.05257 0.00162273)
(0.376572 0.962365 -0.00710352)
(0.453315 1.1373 -0.00543277)
(0.447381 1.11796 -0.005491)
(0.449127 1.12862 -0.00907976)
(0.451444 1.12619 -0.00818734)
(0.406286 1.01298 -0.012521)
(0.455016 1.14384 -0.0119484)
(0.467132 1.09033 0.014476)
(0.432105 1.02178 0.0127393)
(0.401136 0.954892 0.0108834)
(0.414069 0.976166 0.00763508)
(0.413614 0.971352 0.0073664)
(0.44314 1.03758 0.00892246)
(0.404591 0.955917 0.0033051)
(0.488465 1.14298 0.0150704)
(0.430116 1.01312 0.0121919)
(0.415923 0.98175 0.0111868)
(0.423349 0.998966 0.00835105)
(0.428572 1.02215 0.0152214)
(0.406568 0.938147 0.00324071)
(0.414592 0.96859 0.00836925)
(0.478176 1.12047 0.0153249)
(0.475111 1.13339 0.00716127)
(0.461069 1.09527 0.00652054)
(0.267731 0.647047 0.00953468)
(0.239712 0.591262 0.00485989)
(0.294401 0.708231 0.00502071)
(0.317492 0.769301 0.0122669)
(0.273932 0.664259 0.0110441)
(0.229098 0.570434 0.00990123)
(0.206878 0.520961 0.0108669)
(0.238816 0.613983 0.0133876)
(0.256414 0.63078 0.00848677)
(0.226889 0.542145 0.00806347)
(0.236426 0.567756 0.00168178)
(0.244708 0.588474 0.00841451)
(0.229241 0.548102 0.00635347)
(0.303949 0.73305 0.00698222)
(0.302719 0.729145 0.00783668)
(0.322568 0.783117 0.00697678)
(0.323023 0.77469 0.00534399)
(0.235396 0.552759 0.00664097)
(0.211687 0.502179 0.00549488)
(0.230557 0.554587 0.00466612)
(0.201157 0.478359 0.00324398)
(0.215753 0.525133 0.0108056)
(0.214352 0.504551 0.00531795)
(0.245798 0.595064 0.00648783)
(0.291716 0.701398 0.0124542)
(0.250222 0.593234 0.00814475)
(0.242572 0.589283 0.00905198)
(0.215705 0.531739 0.00611153)
(0.248837 0.599359 0.004383)
(0.298825 0.731255 0.0110597)
(0.293626 0.720071 0.0103661)
(0.396383 0.962103 -0.00294033)
(0.407259 0.97585 -0.00194912)
(0.356578 0.850838 0.00495875)
(0.329646 0.775793 -0.00445651)
(0.42304 1.00553 0.00592601)
(0.421674 0.996491 0.0049068)
(0.352141 0.85152 -0.00601472)
(0.371773 0.886592 -1.78009e-05)
(0.361429 0.869109 0.00156072)
(0.340527 0.832443 0.00893263)
(0.313913 0.755087 0.00457891)
(0.374455 0.903497 0.00456647)
(0.394517 0.930088 0.00611219)
(0.313152 0.774485 0.00146509)
(0.330007 0.80021 0.000963648)
(0.357252 0.860857 0.00309336)
(0.321034 0.774776 0.000335642)
(0.362154 0.863277 0.000806479)
(0.344937 0.836019 0.000101619)
(0.32504 0.787796 -0.00116709)
(0.31507 0.757762 0.00333575)
(0.423609 0.989648 0.00470894)
(0.400797 0.927448 0.00107897)
(0.394256 0.923229 -0.00458634)
(0.416478 0.986699 0.00385691)
(0.407079 0.964948 -0.00166699)
(0.41615 0.968873 0.00305033)
(0.386583 0.892926 0.0024507)
(0.411763 0.973699 0.0011461)
(0.455898 1.0834 -0.00109953)
(0.458847 1.08477 -0.00222231)
(0.45267 1.07504 0.000820041)
(0.464254 1.08924 0.00545411)
(0.38646 0.884556 0.00259946)
(0.389236 0.920331 -0.00119925)
(0.386357 0.941977 -0.00388392)
(0.404755 0.976286 -0.010718)
(0.397721 0.950426 -0.00371143)
(0.416023 0.973593 -0.00113517)
(0.413597 0.979793 0.000923406)
(0.397048 0.97791 -0.00877659)
(0.416223 0.912759 -0.00655829)
(0.391204 0.865477 -0.00533107)
(0.401261 0.927288 0.00385858)
(0.455991 1.06245 -0.00402054)
(0.448897 1.0527 0.00143535)
(0.382679 0.868005 -0.0123507)
(0.39021 0.908472 0.00468277)
(0.446184 1.03615 -0.00187516)
(0.44433 1.04254 0.00210749)
(0.395052 0.893382 -0.00764137)
(0.236555 0.617321 0.00502952)
(0.241436 0.616356 0.00756402)
(0.266385 0.682533 -0.0012211)
(0.251237 0.642479 0.00410605)
(0.333642 0.825142 -0.000887101)
(0.324302 0.809998 -0.00173646)
(0.251038 0.616819 0.00374676)
(0.22509 0.570945 0.00308878)
(0.255612 0.635577 -0.000654807)
(0.23183 0.570605 5.90577e-05)
(0.247922 0.623756 0.00113718)
(0.260808 0.666368 0.00296818)
(0.337113 0.814428 0.000904871)
(0.34901 0.852893 -0.000815161)
(0.316783 0.77577 -0.0033386)
(0.279379 0.670553 -0.00429849)
(0.258712 0.634303 -0.00452986)
(0.280613 0.684873 -0.00597923)
(0.272684 0.657626 -0.00719513)
(0.277549 0.666071 -0.00507708)
(0.242816 0.597287 -0.00692642)
(0.248462 0.589898 -0.00928237)
(0.299763 0.754173 -0.0133791)
(0.301489 0.739718 -0.00357216)
(0.275291 0.665856 -0.00879966)
(0.253807 0.623345 -0.00680624)
(0.344856 0.851746 -0.00619797)
(0.300492 0.74483 -0.00355957)
(0.32978 0.820185 -0.00495812)
(0.316762 0.798878 -0.00554778)
(0.325616 0.780171 0.00585008)
(0.303433 0.727345 0.00850604)
(0.32238 0.771354 0.0031831)
(0.339425 0.812074 0.00543864)
(0.297411 0.724945 0.00116207)
(0.29087 0.696666 -0.00131559)
(0.31179 0.747647 0.00146807)
(0.27741 0.670944 2.25876e-05)
(0.316163 0.769801 0.00373836)
(0.332528 0.778221 0.00574096)
(0.280499 0.680135 0.00131642)
(0.352678 0.844511 0.00773255)
(0.31306 0.754534 0.00436464)
(0.312336 0.734255 0.00395482)
(0.286552 0.693831 0.00528263)
(0.309189 0.746968 0.00472316)
(0.452349 1.05023 0.0086645)
(0.422187 0.984177 0.00720587)
(0.406746 0.950877 0.0111914)
(0.459858 1.07537 0.00576169)
(0.462191 1.10151 0.00750695)
(0.457356 1.07704 0.00484734)
(0.406729 0.948547 0.00552365)
(0.415739 0.97546 0.00375245)
(0.455288 1.07524 0.0061372)
(0.460008 1.08157 0.00473686)
(0.347749 0.815045 -0.00676486)
(0.309357 0.746788 0.00951115)
(0.367063 0.85519 0.0216139)
(0.334993 0.794927 0.0014433)
(0.415065 0.972213 0.00635262)
(0.447563 1.03597 0.00357941)
(0.460397 1.08833 0.00847813)
(0.415629 0.978593 0.00284288)
(0.442335 1.04398 0.00423293)
(0.357988 0.847524 0.003472)
(0.427323 0.993249 0.000446778)
(0.4207 0.985102 0.00531067)
(0.315765 0.789515 0.00159061)
(0.290992 0.753414 0.0035064)
(0.293986 0.733816 -7.67868e-05)
(0.294557 0.747827 -0.000828605)
(0.292588 0.74117 0.00797055)
(0.283073 0.710402 0.0103635)
(0.222754 0.550877 0.00530237)
(0.246231 0.620626 0.000328987)
(0.237323 0.593868 0.00255586)
(0.22435 0.555612 0.00596459)
(0.210587 0.533126 -0.00283573)
(0.229854 0.578471 -0.00212888)
(0.190619 0.480584 0.0014791)
(0.329317 0.799208 0.00249004)
(0.316998 0.760728 0.0208734)
(0.444911 1.09537 0.00268909)
(0.334459 0.802177 -0.00313966)
(0.33647 0.80363 0.00640863)
(0.353178 0.895728 0.00341086)
(0.336073 0.836835 0.00316321)
(0.413091 1.01141 0.00706997)
(0.38152 0.951537 0.0053538)
(0.345886 0.836676 0.00840161)
(0.439503 1.07971 0.000673554)
(0.436556 1.06958 0.00443732)
(0.326092 0.792645 0.00179207)
(0.346616 0.873115 0.00948327)
(0.365447 0.893761 0.00487014)
(0.337674 0.82 0.00512843)
(0.2586 0.629286 0.0046127)
(0.208792 0.507654 -0.00158228)
(0.242505 0.583734 0.00572563)
(0.190824 0.472606 0.000197006)
(0.254396 0.610906 0.00720119)
(0.230259 0.554352 0.00642908)
(0.221141 0.55785 0.00192616)
(0.219559 0.53233 -0.000937301)
(0.268268 0.635019 0.00501793)
(0.23035 0.543884 -0.00304848)
(0.209922 0.495507 -0.00584699)
(0.238009 0.566269 0.00174957)
(0.39099 0.932891 0.0120063)
(0.432942 1.02262 0.00554647)
(0.394732 0.948451 0.00572001)
(0.387609 0.919706 0.00373038)
(0.445042 1.06379 0.00993346)
(0.428438 1.01764 0.00799798)
(0.41061 0.963643 0.00305)
(0.434458 1.02188 0.000255205)
(0.447914 1.04882 -0.00135747)
(0.421147 0.992035 0.00403017)
(0.395762 0.941735 0.00826922)
(0.426391 1.01526 0.00919087)
(0.395765 0.923506 0.00896289)
(0.396271 0.930176 0.0025454)
(0.383979 0.918003 0.00678326)
(0.358527 0.861854 0.0104602)
(0.373515 0.894612 0.00184618)
(0.36201 0.859615 0.00780423)
(0.373968 0.885477 0.0103045)
(0.377748 0.893126 0.00662746)
(0.303924 0.757228 0.00614026)
(0.320745 0.78182 0.00305015)
(0.325387 0.781586 0.000396411)
(0.316668 0.776823 -0.00289996)
(0.312412 0.755523 -0.00726319)
(0.251142 0.607451 -0.000202243)
(0.250152 0.608763 0.00466444)
(0.250686 0.605255 0.00468794)
(0.244573 0.618771 0.00266101)
(0.244458 0.595722 0.0029368)
(0.210169 0.520162 0.00227415)
(0.250663 0.611811 0.00688659)
(0.252566 0.605568 0.00460852)
(0.223891 0.545384 0.00143487)
(0.210535 0.511462 -0.0092034)
(0.307996 0.751032 0.00790455)
(0.302492 0.728866 -0.00259658)
(0.298027 0.719175 -0.00346911)
(0.306139 0.737225 -0.00372682)
(0.292512 0.72443 -0.000228045)
(0.217759 0.533143 0.00543307)
(0.245118 0.587999 -0.000983933)
(0.224115 0.551648 -0.00718239)
(0.225267 0.560789 0.00069878)
(0.293857 0.702151 0.00579709)
(0.255438 0.622343 0.00536985)
(0.224178 0.537112 -0.00206839)
(0.206011 0.492349 -0.00727238)
(0.239422 0.588088 0.00272766)
(0.204778 0.488476 -0.00326562)
(0.245052 0.58193 0.000357794)
(0.229028 0.546546 -0.00348252)
(0.207985 0.493006 -0.0111218)
(0.293281 0.700369 0.00535195)
(0.291068 0.693783 -0.0105511)
(0.297922 0.723691 -0.014199)
(0.277511 0.665352 -0.00950236)
(0.24076 0.575512 -0.00453802)
(0.33679 0.801502 -0.00376294)
(0.381228 0.921692 0.0127512)
(0.363506 0.886368 0.0119057)
(0.286756 0.675463 0.00426702)
(0.284664 0.687363 -0.000468984)
(0.270726 0.640784 -0.00460435)
(0.26444 0.661101 0.00339842)
(0.266902 0.659896 0.00865684)
(0.288308 0.661915 -0.00506029)
(0.353169 0.844605 -0.00180054)
(0.367909 0.875571 0.00488468)
(0.342187 0.79936 -0.00297798)
(0.328499 0.797619 0.000184749)
(0.375422 0.913437 0.00595587)
(0.36161 0.880967 -0.000659678)
(0.373717 0.906081 0.00418716)
(0.354429 0.884956 0.00619293)
(0.374957 0.918862 -0.00622629)
(0.430629 1.05075 0.00796717)
(0.334893 0.847599 0.00760625)
(0.371205 0.88995 0.000230962)
(0.429079 1.06975 0.00531465)
(0.361271 0.869033 0.00734877)
(0.450743 1.10246 0.00131969)
(0.464403 1.16183 0.00170336)
(0.327222 0.807692 0.00546674)
(0.316993 0.774178 0.00388172)
(0.422788 1.0345 0.000735746)
(0.377385 0.921004 0.00880639)
(0.446002 1.0931 0.00180925)
(0.347458 0.874329 0.00293449)
(0.349609 0.863118 -0.00443781)
(0.41143 1.02574 0.0047943)
(0.251444 0.618034 -0.0043407)
(0.247606 0.606469 -0.0111153)
(0.242759 0.580443 -0.00919919)
(0.264594 0.636065 -0.00854283)
(0.304615 0.734227 -0.00653917)
(0.305285 0.735832 -0.00593326)
(0.236983 0.558737 -0.00747287)
(0.196974 0.481089 -0.00438526)
(0.303598 0.722408 -0.00214561)
(0.21161 0.532567 -0.0076528)
(0.20926 0.521199 -0.0124462)
(0.292853 0.715013 -0.00534489)
(0.295657 0.710869 -0.00662241)
(0.22263 0.548206 -0.00747868)
(0.248222 0.605741 -0.0102348)
(0.226931 0.560286 0.000487956)
(0.22372 0.546074 -0.00529614)
(0.205448 0.511438 0.000212306)
(0.217683 0.530513 0.00389223)
(0.211108 0.502606 -0.00162756)