/*--------------------------------*- C++ -*----------------------------------*\
| =========                 |                                                 |
| \\      /  F ield         | OpenFOAM: The Open Source CFD Toolbox           |
|  \\    /   O peration     | Version:  v1612+                                |
|   \\  /    A nd           | Web:      www.OpenFOAM.com                      |
|    \\/     M anipulation  |                                                 |
\*---------------------------------------------------------------------------*/
FoamFile
{
    version     2.0;
    format      ascii;
    class       volVectorField;
    location    "118";
    object      U;
}
// * * * * * * * * * * * * * * * * * * * * * * * * * * * * * * * * * * * * * //

dimensions      [0 1 -1 0 0 0 0];

internalField   nonuniform List<vector> 
21261
(
(-0.159424 0.862369 -0.28204)
(-0.202243 0.894486 -0.283682)
(-0.156929 0.39999 -0.10557)
(-0.102837 0.794283 -0.248391)
(0.150671 0.597183 -0.554598)
(-0.310769 0.927594 -0.265063)
(-0.126077 0.684616 -0.254171)
(-0.178793 0.712247 -0.165116)
(-0.214573 0.63287 -0.154534)
(-0.178642 0.816136 -0.262978)
(-0.152437 0.809935 -0.20981)
(-0.149042 0.794434 -0.208991)
(-0.257727 0.933447 -0.256208)
(-0.365112 0.940787 -0.293592)
(-0.15325 0.488547 -0.142828)
(-0.140349 0.509102 -0.123796)
(-0.244067 0.808538 -0.220304)
(-0.0568572 0.689866 -0.207242)
(-0.246943 0.804981 -0.270242)
(-0.133324 0.749899 -0.165221)
(-0.195147 0.676959 -0.17423)
(-0.0895379 0.776228 -0.214638)
(-0.0819402 0.575967 -0.237828)
(-0.238421 0.874265 -0.301674)
(-0.146949 0.637324 -0.136865)
(-0.144187 0.829923 -0.289623)
(-0.144006 0.467259 -0.114845)
(0.127811 0.51959 -0.509834)
(-0.172723 0.45608 -0.158316)
(-0.236033 0.863881 -0.32172)
(0.12937 0.501348 -0.476177)
(-0.222792 0.60751 -0.123806)
(-0.261399 0.638317 -0.156007)
(-0.0949055 0.625386 -0.261393)
(-0.0764602 0.735016 -0.221309)
(-0.156684 0.645281 -0.146622)
(-0.0876835 0.454642 -0.200313)
(-0.100339 0.480119 -0.218977)
(-0.154639 0.562229 -0.247022)
(-0.165853 0.572265 -0.250637)
(-0.136822 0.535656 -0.124938)
(-0.283422 0.832878 -0.219759)
(-0.147834 0.700534 -0.285849)
(-0.11625 0.773614 -0.213179)
(0.142332 0.453373 -0.455543)
(-0.241836 0.927427 -0.287087)
(-0.0995209 0.633542 -0.251548)
(-0.135462 0.373912 -0.133077)
(-0.24954 0.919081 -0.327811)
(0.143281 0.595897 -0.546405)
(-0.153737 0.829061 -0.280572)
(-0.125953 0.646025 -0.12548)
(-0.143237 0.519802 -0.119185)
(0.13375 0.471805 -0.445426)
(-0.168038 0.7662 -0.282091)
(-0.264544 0.839596 -0.209947)
(-0.180348 0.900372 -0.237817)
(-0.10181 0.794173 -0.2511)
(-0.121436 0.798232 -0.211313)
(0.155559 0.589671 -0.589914)
(-0.0906631 0.742103 -0.232672)
(-0.0995404 0.760512 -0.219329)
(-0.0791204 0.698762 -0.225691)
(-0.113538 0.730325 -0.246344)
(0.124753 0.440327 -0.444915)
(-0.0865103 0.537016 -0.226228)
(-0.0675412 0.608712 -0.241792)
(-0.107529 0.731697 -0.212872)
(-0.192784 0.810685 -0.299641)
(-0.340244 0.874884 -0.292033)
(-0.200768 0.792306 -0.251431)
(-0.228088 0.895741 -0.298127)
(-0.226433 0.863209 -0.240411)
(-0.180168 0.803665 -0.290444)
(-0.151835 0.748088 -0.284111)
(-0.0839742 0.777897 -0.213)
(-0.0716275 0.676354 -0.17071)
(0.149322 0.587514 -0.528253)
(-0.221475 0.929111 -0.317844)
(-0.105911 0.693686 -0.252282)
(-0.110322 0.621429 -0.265903)
(-0.142392 0.714944 -0.19596)
(-0.161107 0.750843 -0.156978)
(-0.295216 0.898295 -0.343063)
(-0.227229 0.816836 -0.306336)
(-0.292779 0.879415 -0.245267)
(-0.195446 0.787708 -0.242366)
(-0.0802316 0.669768 -0.242887)
(-0.160027 0.855018 -0.303293)
(0.127863 0.502606 -0.456707)
(-0.0654798 0.51548 -0.225642)
(-0.153059 0.782227 -0.188168)
(-0.0826022 0.721564 -0.200608)
(-0.0698071 0.7212 -0.205824)
(-0.182141 0.807114 -0.258932)
(-0.194024 0.794166 -0.267303)
(-0.143586 0.390379 -0.141271)
(-0.109503 0.410725 -0.0945036)
(-0.113948 0.816427 -0.210551)
(-0.121675 0.357412 -0.114344)
(-0.316351 0.857151 -0.284673)
(-0.0636888 0.521168 -0.229704)
(-0.234406 0.839651 -0.25638)
(-0.201047 0.793899 -0.222315)
(-0.0770775 0.636863 -0.233878)
(-0.0844135 0.519478 -0.232258)
(-0.305584 0.840657 -0.232823)
(-0.128276 0.824744 -0.29601)
(-0.149904 0.377301 -0.127758)
(-0.109121 0.625751 -0.265275)
(-0.0518096 0.523865 -0.219455)
(-0.137964 0.411582 -0.0734451)
(-0.114216 0.371472 -0.1822)
(-0.132808 0.783241 -0.287706)
(-0.144762 0.835788 -0.305582)
(-0.109193 0.366573 -0.154428)
(-0.148983 0.815447 -0.2149)
(-0.096501 0.60766 -0.235197)
(-0.219455 0.877023 -0.264168)
(-0.1011 0.795044 -0.235597)
(0.110388 0.467152 -0.429377)
(-0.257832 0.800003 -0.297909)
(-0.0795901 0.753275 -0.227879)
(-0.0423221 0.589152 -0.217521)
(-0.354013 0.860843 -0.311946)
(-0.342306 0.843824 -0.285806)
(-0.195173 0.503053 -0.100236)
(-0.171763 0.459178 -0.0849709)
(-0.231838 0.626555 -0.13695)
(-0.172349 0.462263 -0.107885)
(-0.286813 0.822061 -0.323137)
(-0.146308 0.373295 -0.0813074)
(-0.100565 0.747569 -0.24888)
(-0.203583 0.850135 -0.316943)
(-0.223015 0.863194 -0.316615)
(-0.112757 0.768228 -0.24102)
(-0.0237495 0.582585 -0.209954)
(-0.227273 0.827906 -0.257429)
(-0.178039 0.765323 -0.260043)
(-0.15178 0.783797 -0.212111)
(-0.229134 0.840199 -0.30382)
(-0.0873698 0.746746 -0.242453)
(-0.105111 0.439833 -0.116064)
(-0.141907 0.489677 -0.124558)
(-0.14078 0.561197 -0.125925)
(-0.17931 0.652144 -0.157976)
(-0.178269 0.581736 -0.168454)
(-0.133774 0.806305 -0.245784)
(-0.0636559 0.466666 -0.208916)
(-0.0622051 0.574835 -0.247083)
(-0.173169 0.784225 -0.255783)
(-0.17959 0.790859 -0.244496)
(-0.153049 0.705104 -0.238821)
(-0.249615 0.8338 -0.184958)
(-0.120814 0.758219 -0.25248)
(-0.127632 0.783559 -0.261979)
(-0.111327 0.701824 -0.23202)
(0.143678 0.650675 -0.595925)
(0.103623 0.46193 -0.433337)
(-0.217474 0.74887 -0.243796)
(-0.165415 0.798575 -0.23963)
(-0.313773 0.866016 -0.2471)
(-0.289617 0.842741 -0.22261)
(-0.218829 0.778775 -0.17427)
(-0.0263998 0.611836 -0.215058)
(-0.08244 0.70574 -0.217923)
(-0.298621 0.821156 -0.217882)
(-0.126169 0.765252 -0.247213)
(-0.133699 0.426643 -0.115196)
(-0.149287 0.530864 -0.13551)
(-0.0915426 0.752424 -0.197155)
(-0.131856 0.770691 -0.182424)
(-0.186974 0.806992 -0.227422)
(-0.16075 0.501067 -0.100843)
(-0.202995 0.835125 -0.304912)
(-0.182477 0.797713 -0.292681)
(-0.200346 0.804601 -0.293477)
(-0.155839 0.751067 -0.197155)
(-0.16693 0.752757 -0.204965)
(-0.182922 0.813702 -0.226821)
(-0.191644 0.830697 -0.216351)
(-0.182039 0.852509 -0.211983)
(-0.133813 0.749923 -0.157431)
(-0.154957 0.493406 -0.223233)
(-0.0898402 0.33901 -0.162702)
(-0.117248 0.399249 -0.178394)
(-0.160042 0.439819 -0.174548)
(-0.206201 0.83108 -0.188556)
(-0.141506 0.622063 -0.106542)
(0.124944 0.521529 -0.494846)
(-0.170825 0.774887 -0.248111)
(-0.197581 0.830223 -0.282989)
(-0.138364 0.63151 -0.111412)
(-0.0861431 0.720608 -0.195851)
(0.139075 0.497359 -0.498677)
(0.115462 0.414312 -0.418634)
(0.130551 0.553411 -0.524414)
(0.13237 0.564421 -0.552756)
(-0.200676 0.813506 -0.266974)
(-0.105313 0.634083 -0.266486)
(-0.086854 0.647422 -0.246875)
(-0.108376 0.760702 -0.238071)
(-0.121927 0.767675 -0.242434)
(-0.0555687 0.610553 -0.212475)
(-0.110232 0.69581 -0.249709)
(-0.323226 0.832284 -0.222994)
(-0.307409 0.818984 -0.217334)
(-0.0804062 0.769823 -0.222931)
(-0.034445 0.6876 -0.212122)
(-0.138609 0.796677 -0.275625)
(-0.102858 0.39266 -0.15243)
(-0.103564 0.366612 -0.137641)
(-0.273842 0.805258 -0.284541)
(-0.307985 0.910302 -0.295486)
(-0.236525 0.857428 -0.230838)
(-0.243338 0.821748 -0.233111)
(-0.171862 0.793024 -0.217107)
(-0.191448 0.826514 -0.228741)
(-0.0902263 0.611983 -0.228735)
(-0.112882 0.661477 -0.265164)
(-0.108821 0.46971 -0.234771)
(-0.0837284 0.542735 -0.234579)
(-0.121212 0.605355 -0.264109)
(0.137317 0.522215 -0.469416)
(-0.149494 0.811631 -0.30516)
(-0.159457 0.836312 -0.308474)
(-0.20328 0.843533 -0.203758)
(-0.160282 0.777384 -0.219745)
(-0.22526 0.822773 -0.308169)
(-0.178504 0.812413 -0.283942)
(-0.152963 0.473809 -0.104106)
(-0.140503 0.457994 -0.09411)
(-0.156329 0.627692 -0.0945857)
(-0.146028 0.581444 -0.0902119)
(-0.134081 0.580935 -0.0929723)
(-0.171528 0.605239 -0.101316)
(-0.193324 0.746346 -0.15086)
(-0.139145 0.748989 -0.162269)
(-0.152288 0.405729 -0.155724)
(-0.138684 0.391565 -0.110639)
(-0.257547 0.841936 -0.234641)
(-0.25214 0.863117 -0.22077)
(-0.273238 0.863196 -0.260231)
(-0.117561 0.375305 -0.110519)
(-0.11209 0.347156 -0.103311)
(-0.11996 0.737532 -0.162778)
(0.139835 0.499667 -0.483385)
(-0.138049 0.470282 -0.108504)
(-0.135058 0.436837 -0.108875)
(-0.0658538 0.580669 -0.248693)
(-0.0547701 0.400488 -0.182887)
(-0.196265 0.822871 -0.287715)
(-0.290698 0.897379 -0.241377)
(-0.251781 0.830325 -0.292827)
(-0.252237 0.856863 -0.326816)
(-0.23631 0.764485 -0.291278)
(-0.0848877 0.746283 -0.206706)
(-0.0690638 0.738119 -0.207597)
(-0.195315 0.754498 -0.156838)
(-0.160561 0.754001 -0.155353)
(-0.104048 0.409998 -0.162404)
(-0.0890351 0.346134 -0.123534)
(-0.170137 0.818249 -0.196488)
(-0.17302 0.788311 -0.188313)
(-0.217835 0.883611 -0.232362)
(-0.178102 0.820937 -0.29326)
(-0.18157 0.866288 -0.311534)
(-0.191744 0.779654 -0.277128)
(-0.153239 0.404535 -0.140534)
(-0.123124 0.321316 -0.104926)
(0.132413 0.407702 -0.395381)
(0.113925 0.473052 -0.42248)
(0.1288 0.530957 -0.496244)
(0.148519 0.627086 -0.566051)
(0.146621 0.5689 -0.513945)
(0.135123 0.552612 -0.493499)
(0.140702 0.538308 -0.48108)
(-0.106194 0.502581 -0.236853)
(-0.286373 0.844194 -0.293554)
(0.110614 0.46829 -0.457336)
(0.113031 0.496061 -0.478006)
(0.13008 0.566168 -0.530984)
(0.145327 0.615092 -0.572633)
(-0.158549 0.832892 -0.284355)
(-0.21802 0.819029 -0.256608)
(-0.0970382 0.438119 -0.205139)
(0.113237 0.502637 -0.458012)
(0.115987 0.490032 -0.453919)
(-0.0584228 0.578392 -0.240177)
(-0.07592 0.602907 -0.257817)
(-0.160439 0.808043 -0.212142)
(-0.173494 0.814096 -0.215842)
(-0.171038 0.828886 -0.222867)
(-0.114354 0.800694 -0.261716)
(-0.165187 0.767115 -0.173153)
(-0.136058 0.844623 -0.283042)
(-0.256196 0.867674 -0.256481)
(-0.0930569 0.700104 -0.191762)
(-0.13643 0.802163 -0.275578)
(-0.11563 0.812263 -0.272239)
(-0.278406 0.863823 -0.244496)
(-0.279692 0.865634 -0.225483)
(-0.0978204 0.51078 -0.0985137)
(-0.128131 0.578729 -0.120819)
(-0.163529 0.792475 -0.180509)
(-0.193829 0.797655 -0.177527)
(-0.218044 0.79091 -0.173076)
(0.132415 0.496685 -0.476593)
(-0.212721 0.803158 -0.180306)
(-0.191213 0.803009 -0.175304)
(-0.130741 0.766876 -0.185967)
(-0.159069 0.600595 -0.122465)
(-0.132349 0.654036 -0.118985)
(-0.191903 0.817565 -0.183574)
(-0.196767 0.832773 -0.191307)
(-0.228352 0.86976 -0.205747)
(-0.0432638 0.669349 -0.210669)
(-0.0616481 0.697579 -0.20979)
(0.125336 0.521119 -0.494697)
(-0.126928 0.414732 -0.112807)
(-0.156044 0.454192 -0.136636)
(-0.134038 0.403717 -0.109989)
(-0.222469 0.787404 -0.263912)
(-0.230585 0.803424 -0.267623)
(-0.231076 0.816228 -0.267907)
(-0.230172 0.798884 -0.263618)
(-0.22763 0.825514 -0.2846)
(-0.0479251 0.648403 -0.206996)
(0.130697 0.50132 -0.448768)
(-0.0808526 0.341047 -0.148575)
(-0.177551 0.848841 -0.292364)
(-0.0887111 0.418578 -0.186958)
(-0.0749686 0.478268 -0.216973)
(-0.0792487 0.365894 -0.165108)
(-0.1364 0.412517 -0.105649)
(-0.138512 0.418127 -0.101597)
(-0.136294 0.437639 -0.109618)
(-0.176456 0.784643 -0.252195)
(-0.176513 0.783872 -0.281266)
(-0.060505 0.57139 -0.222686)
(0.122535 0.403508 -0.395768)
(-0.144177 0.648187 -0.117112)
(-0.124144 0.596164 -0.100825)
(0.129999 0.549298 -0.504981)
(0.102203 0.495131 -0.469867)
(0.120384 0.530779 -0.479169)
(-0.187873 0.857111 -0.305564)
(-0.176677 0.817308 -0.287265)
(-0.194021 0.802402 -0.187352)
(-0.147743 0.7662 -0.16832)
(-0.156861 0.817792 -0.179993)
(-0.139881 0.777298 -0.170754)
(-0.0911586 0.714026 -0.171713)
(-0.207737 0.836477 -0.191733)
(-0.225453 0.831322 -0.19226)
(0.134538 0.532458 -0.472321)
(0.12266 0.512421 -0.461904)
(-0.145412 0.68557 -0.129872)
(-0.180967 0.729434 -0.14641)
(-0.159157 0.688652 -0.145322)
(-0.16456 0.658605 -0.124877)
(-0.159822 0.701412 -0.146463)
(0.13056 0.489349 -0.484736)
(-0.0986047 0.397945 -0.106946)
(-0.1217 0.446104 -0.109186)
(-0.117103 0.459432 -0.114155)
(0.150989 0.625916 -0.558366)
(0.115627 0.491399 -0.438878)
(-0.100201 0.55513 -0.247707)
(-0.0627672 0.434386 -0.192734)
(-0.126672 0.607963 -0.100929)
(-0.0952042 0.692566 -0.160961)
(-0.0859529 0.397322 -0.169452)
(-0.104108 0.744005 -0.166585)
(-0.109018 0.766885 -0.192796)
(-0.0758572 0.711449 -0.194322)
(-0.136665 0.839622 -0.258507)
(-0.0818884 0.732311 -0.211193)
(-0.0762034 0.704289 -0.184359)
(-0.110309 0.811053 -0.24263)
(-0.121413 0.836297 -0.254716)
(-0.084734 0.751282 -0.190054)
(-0.0883354 0.762328 -0.195628)
(-0.0828147 0.689313 -0.176076)
(-0.101384 0.77083 -0.218561)
(-0.0616971 0.681644 -0.191788)
(0.118191 0.529135 -0.488427)
(-0.0898209 0.526901 -0.23602)
(-0.315332 0.834099 -0.249853)
(-0.145935 0.762387 -0.270887)
(-0.033151 0.495233 -0.208733)
(-0.0909165 0.742056 -0.188589)
(-0.143452 0.417082 -0.112813)
(-0.130092 0.498216 -0.0781435)
(-0.201004 0.909385 -0.307158)
(-0.0966286 0.72688 -0.235251)
(-0.13155 0.73539 -0.24312)
(-0.272772 0.844516 -0.246133)
(-0.116539 0.782222 -0.188176)
(-0.067396 0.443411 -0.20954)
(-0.258595 0.80831 -0.304099)
(0.108741 0.508052 -0.469449)
(-0.0924885 0.386028 -0.165858)
(-0.113619 0.803581 -0.236552)
(-0.0814481 0.733566 -0.210558)
(-0.103434 0.776282 -0.229477)
(0.128818 0.452768 -0.452838)
(0.110766 0.467958 -0.415345)
(-0.104097 0.383187 -0.129706)
(-0.168965 0.788066 -0.176108)
(-0.141713 0.73419 -0.163593)
(-0.300196 0.770178 -0.235294)
(-0.186782 0.543961 -0.0889535)
(-0.084162 0.689441 -0.246163)
(-0.212521 0.876735 -0.308812)
(-0.133061 0.415908 -0.117073)
(-0.107479 0.753509 -0.265027)
(-0.0857683 0.688309 -0.219589)
(-0.224688 0.814084 -0.224126)
(-0.283314 0.783425 -0.254942)
(-0.153098 0.858253 -0.289247)
(-0.151352 0.841032 -0.288041)
(-0.176955 0.735367 -0.217812)
(-0.235922 0.895819 -0.267398)
(-0.115277 0.752029 -0.218971)
(-0.293368 0.810418 -0.236784)
(-0.0848168 0.344462 -0.132895)
(-0.173688 0.778023 -0.236155)
(-0.102494 0.3456 -0.155688)
(-0.117956 0.397422 -0.174147)
(-0.120605 0.360766 -0.152219)
(-0.115911 0.732224 -0.163971)
(-0.195925 0.818734 -0.290123)
(-0.202507 0.748448 -0.240808)
(-0.102535 0.42019 -0.180308)
(-0.098932 0.420679 -0.181341)
(-0.110675 0.447175 -0.18996)
(-0.0890824 0.371 -0.174416)
(-0.117627 0.535163 -0.250793)
(-0.172016 0.793618 -0.276597)
(-0.160393 0.799895 -0.233527)
(-0.101476 0.492928 -0.228313)
(-0.168464 0.762744 -0.270432)
(-0.179121 0.785494 -0.270174)
(-0.132523 0.787025 -0.174832)
(-0.0492704 0.579496 -0.221022)
(-0.0504701 0.54259 -0.230713)
(-0.0423726 0.51151 -0.209115)
(-0.272509 0.724388 -0.190242)
(-0.311958 0.770972 -0.236939)
(-0.282942 0.818122 -0.297235)
(-0.123967 0.478862 -0.120526)
(-0.125907 0.38446 -0.177769)
(-0.159853 0.776493 -0.231688)
(-0.103776 0.305006 -0.141699)
(-0.118238 0.761383 -0.243395)
(-0.240298 0.729072 -0.259372)
(-0.0967446 0.709818 -0.175106)
(-0.198599 0.787723 -0.298351)
(-0.33446 0.797463 -0.262909)
(-0.230213 0.831165 -0.317088)
(-0.22835 0.753101 -0.29055)
(-0.101959 0.788303 -0.220271)
(-0.323382 0.8424 -0.307135)
(-0.271991 0.837782 -0.201898)
(-0.158 0.772703 -0.291465)
(-0.200742 0.835121 -0.295084)
(-0.233287 0.778623 -0.301879)
(-0.130992 0.360489 -0.126129)
(0.133425 0.535262 -0.532071)
(-0.139987 0.859611 -0.288945)
(-0.221325 0.742632 -0.224197)
(-0.0884947 0.34069 -0.129515)
(-0.26606 0.830605 -0.229169)
(-0.245094 0.804457 -0.235998)
(-0.0251774 0.497616 -0.202331)
(-0.123542 0.339007 -0.129712)
(-0.12163 0.347167 -0.12428)
(-0.140256 0.829603 -0.266221)
(-0.0965389 0.711065 -0.232533)
(-0.188481 0.829099 -0.274315)
(-0.166656 0.809764 -0.262089)
(-0.183432 0.828785 -0.20557)
(-0.235664 0.771652 -0.273897)
(-0.0765666 0.498705 -0.225855)
(-0.100084 0.361587 -0.159786)
(-0.0447187 0.664576 -0.202629)
(-0.178715 0.821687 -0.183965)
(-0.142788 0.767255 -0.173589)
(0.120815 0.479837 -0.432489)
(0.130512 0.558632 -0.514625)
(0.115915 0.500567 -0.46718)
(0.121999 0.543756 -0.508477)
(-0.150073 0.822743 -0.197214)
(-0.1433 0.432954 -0.113519)
(-0.192963 0.74975 -0.211425)
(-0.274975 0.79216 -0.233426)
(-0.26477 0.774944 -0.233818)
(-0.281947 0.818773 -0.265169)
(-0.219294 0.851521 -0.27682)
(-0.172704 0.764105 -0.265233)
(-0.17321 0.777958 -0.270546)
(-0.0891873 0.3856 -0.158898)
(-0.149492 0.818996 -0.297843)
(-0.045239 0.663934 -0.25096)
(0.130409 0.598814 -0.55685)
(-0.0358337 0.630579 -0.218897)
(-0.149872 0.537527 -0.105027)
(-0.272785 0.788006 -0.250725)
(-0.237318 0.760698 -0.255676)
(0.136528 0.495746 -0.484237)
(0.115857 0.351844 -0.333357)
(-0.167389 0.829818 -0.299161)
(-0.155349 0.790769 -0.284139)
(-0.119457 0.444985 -0.0872498)
(-0.0915065 0.512935 -0.233012)
(-0.0821945 0.396518 -0.188174)
(-0.0688056 0.594663 -0.135453)
(-0.0738372 0.655833 -0.159273)
(-0.126357 0.793648 -0.201902)
(-0.191307 0.84519 -0.30425)
(-0.124507 0.527862 -0.100413)
(-0.187653 0.810173 -0.293027)
(-0.163063 0.785834 -0.28202)
(0.115742 0.47717 -0.443673)
(0.128141 0.50284 -0.468426)
(-0.113376 0.373499 -0.141136)
(-0.103844 0.354301 -0.123581)
(-0.0431402 0.5806 -0.206514)
(-0.19998 0.743793 -0.167905)
(-0.261089 0.856014 -0.206023)
(-0.197254 0.786391 -0.172675)
(-0.25757 0.891503 -0.232607)
(-0.178575 0.756249 -0.263202)
(-0.0950051 0.363683 -0.117554)
(-0.0581547 0.455134 -0.20549)
(0.119264 0.458724 -0.454089)
(-0.0860222 0.734305 -0.221637)
(-0.0930729 0.340111 -0.142528)
(-0.0846057 0.311538 -0.131125)
(-0.078997 0.732786 -0.22017)
(-0.0831918 0.708059 -0.165654)
(-0.154292 0.813013 -0.199063)
(-0.119978 0.590764 -0.264591)
(-0.283286 0.796078 -0.203268)
(-0.0955236 0.733652 -0.21798)
(-0.0979293 0.724287 -0.182893)
(-0.157505 0.834218 -0.228873)
(-0.310246 0.843163 -0.226163)
(-0.0528548 0.531402 -0.227725)
(-0.0786686 0.438953 -0.191997)
(-0.0733674 0.499233 -0.224035)
(-0.117176 0.324888 -0.142212)
(-0.101447 0.765627 -0.185069)
(-0.132189 0.791151 -0.191654)
(-0.162756 0.801012 -0.231674)
(-0.109567 0.732745 -0.202402)
(-0.108431 0.724643 -0.206228)
(-0.0685986 0.55199 -0.234858)
(-0.188142 0.812668 -0.274286)
(-0.152061 0.746674 -0.277896)
(-0.124113 0.756848 -0.190484)
(-0.162557 0.805516 -0.21972)
(-0.121279 0.741065 -0.20565)
(-0.0657829 0.55793 -0.234329)
(-0.0628166 0.448794 -0.195774)
(-0.0801338 0.479737 -0.220312)
(0.123106 0.504255 -0.458319)
(0.132467 0.590304 -0.534625)
(-0.176592 0.799887 -0.27123)
(-0.173184 0.715791 -0.235549)
(-0.102312 0.342098 -0.11677)
(-0.110443 0.578945 -0.266716)
(-0.0897458 0.724398 -0.201229)
(-0.0684557 0.714876 -0.205245)
(-0.102617 0.442684 -0.201686)
(0.151562 0.571789 -0.55752)
(0.11466 0.47799 -0.455058)
(-0.0845146 0.567038 -0.245667)
(-0.0940943 0.59154 -0.107894)
(-0.138865 0.405666 -0.137852)
(-0.106572 0.327157 -0.134784)
(-0.1825 0.79821 -0.279542)
(-0.120028 0.411581 -0.100391)
(-0.156465 0.804221 -0.290765)
(-0.0796024 0.559086 -0.253397)
(-0.0461813 0.503698 -0.202459)
(-0.0614264 0.46111 -0.201504)
(-0.0818045 0.56871 -0.248696)
(-0.13745 0.405063 -0.154521)
(-0.190631 0.815423 -0.295055)
(0.123614 0.507237 -0.459533)
(0.124801 0.49155 -0.453201)
(0.123892 0.477627 -0.462126)
(-0.128744 0.344689 -0.152012)
(-0.0973932 0.402143 -0.195365)
(-0.0749727 0.558231 -0.23338)
(-0.145498 0.760186 -0.286479)
(-0.163392 0.816112 -0.298276)
(-0.11257 0.323576 -0.125637)
(-0.114098 0.303552 -0.13014)
(-0.103879 0.283267 -0.11576)
(-0.158959 0.764833 -0.205736)
(-0.130502 0.530102 -0.251123)
(0.113063 0.482683 -0.462198)
(-0.18742 0.56385 -0.187277)
(-0.173255 0.479869 -0.163536)
(0.200681 0.785027 -0.684717)
(-0.374389 0.969017 -0.309894)
(-0.371011 0.950516 -0.355486)
(-0.191519 0.789784 -0.293071)
(-0.36693 0.977619 -0.308353)
(-0.146117 0.730348 -0.268794)
(-0.200475 0.839628 -0.288095)
(-0.269754 1.00686 -0.337822)
(-0.131019 0.716636 -0.279407)
(-0.261042 0.689428 -0.246354)
(-0.314661 0.972339 -0.313619)
(-0.351098 0.921502 -0.312343)
(-0.276509 0.940975 -0.319326)
(-0.223354 0.832052 -0.295192)
(-0.109258 0.564824 -0.236086)
(-0.274503 0.594788 -0.263768)
(-0.338857 0.840637 -0.297796)
(-0.374221 0.817946 -0.309419)
(0.187135 0.727861 -0.669255)
(0.170614 0.665475 -0.585158)
(-0.228962 0.84957 -0.299721)
(-0.109834 0.599831 -0.109663)
(-0.144951 0.52417 -0.120144)
(-0.113265 0.540929 -0.112082)
(-0.224816 0.803608 -0.167886)
(-0.111465 0.445739 -0.0861986)
(-0.188515 0.570743 -0.186609)
(-0.125378 0.42606 -0.154047)
(-0.188217 0.626393 -0.143754)
(-0.204672 0.551305 -0.169181)
(-0.125043 0.414413 -0.133751)
(-0.113587 0.683782 -0.163511)
(-0.140834 0.748699 -0.176233)
(-0.263805 0.801112 -0.197947)
(0.177906 0.600966 -0.583837)
(0.155482 0.48986 -0.459304)
(-0.203781 0.856976 -0.242655)
(-0.266528 0.775011 -0.179472)
(-0.335736 0.909784 -0.285735)
(-0.372689 0.945571 -0.288404)
(-0.221113 0.874207 -0.203915)
(-0.321459 0.951225 -0.26256)
(-0.412729 0.956313 -0.313231)
(-0.235676 0.803812 -0.305631)
(-0.361807 0.909233 -0.35694)
(-0.427706 0.912748 -0.350767)
(-0.17834 0.814988 -0.279272)
(-0.36242 0.942505 -0.357639)
(-0.34361 0.925384 -0.358325)
(-0.372593 0.915483 -0.344813)
(-0.286986 0.902045 -0.349982)
(-0.334401 0.914411 -0.305604)
(-0.338178 0.876397 -0.314187)
(-0.244466 0.744353 -0.294665)
(-0.395036 0.956916 -0.352611)
(-0.361881 0.906334 -0.343156)
(-0.410495 0.95526 -0.322098)
(-0.423789 0.943923 -0.327314)
(-0.236768 0.78806 -0.308954)
(-0.221417 0.862745 -0.301287)
(-0.237225 0.811039 -0.31103)
(-0.233992 0.82544 -0.202852)
(-0.280487 0.93903 -0.247834)
(-0.29935 0.86942 -0.27975)
(-0.273107 0.864994 -0.252979)
(-0.238733 0.835816 -0.249711)
(-0.230475 0.805061 -0.287834)
(-0.159191 0.772538 -0.285298)
(-0.272049 1.002 -0.334527)
(-0.184278 0.835196 -0.299775)
(-0.237092 0.959606 -0.299808)
(-0.248624 0.972005 -0.307051)
(-0.163864 0.773379 -0.266365)
(-0.123988 0.742283 -0.263999)
(-0.0879003 0.690694 -0.241366)
(-0.119326 0.607343 -0.130665)
(-0.0926938 0.743188 -0.228649)
(-0.193923 0.878872 -0.310928)
(-0.236271 0.984323 -0.336873)
(-0.203242 0.922947 -0.328157)
(-0.205672 0.9517 -0.324738)
(-0.231573 0.923166 -0.288578)
(-0.0714177 0.695405 -0.202025)
(-0.183817 0.921591 -0.290453)
(-0.123481 0.835604 -0.276995)
(-0.177708 0.55176 -0.186929)
(-0.123581 0.421826 -0.135838)
(-0.192386 0.906829 -0.248021)
(-0.243377 0.983366 -0.300134)
(-0.419962 0.939301 -0.318546)
(-0.102817 0.68153 -0.216137)
(-0.219954 0.880507 -0.300982)
(-0.286363 0.997709 -0.305186)
(-0.221704 0.846485 -0.237976)
(-0.239594 0.92603 -0.287776)
(-0.235011 0.941575 -0.268144)
(-0.161675 0.832323 -0.192052)
(-0.364623 0.965388 -0.31036)
(-0.306396 0.911233 -0.29848)
(-0.209668 0.910419 -0.251282)
(-0.237694 0.874156 -0.292398)
(-0.157 0.833455 -0.251805)
(-0.169487 0.814941 -0.29965)
(-0.223892 0.926673 -0.324008)
(-0.0866904 0.754347 -0.224919)
(-0.127243 0.805516 -0.256528)
(-0.344011 0.849999 -0.30442)
(-0.22396 0.630136 -0.255004)
(-0.204995 0.765447 -0.173552)
(-0.311734 0.835231 -0.296694)
(-0.268805 0.689067 -0.212493)
(-0.223496 0.577218 -0.188211)
(-0.3072 0.91488 -0.316928)
(-0.293543 0.982709 -0.303428)
(-0.271223 0.971293 -0.263044)
(-0.226112 0.844548 -0.289541)
(-0.327198 0.990253 -0.324364)
(-0.257014 0.91287 -0.265527)
(-0.261286 0.914531 -0.260684)
(-0.308114 0.989178 -0.336886)
(-0.273791 0.789231 -0.291542)
(-0.256054 0.693502 -0.278276)
(-0.262967 0.958328 -0.255923)
(-0.340281 0.91474 -0.315147)
(-0.198063 0.842654 -0.289044)
(-0.238131 0.844624 -0.296386)
(-0.332092 0.988642 -0.316854)
(-0.292575 0.955538 -0.331189)
(-0.19607 0.864375 -0.235751)
(-0.220235 0.93757 -0.329555)
(-0.301224 0.950714 -0.329719)
(-0.170597 0.865987 -0.282943)
(-0.188722 0.921648 -0.294301)
(-0.304809 0.994058 -0.338999)
(-0.0629526 0.702873 -0.222194)
(-0.170414 0.531927 -0.190176)
(-0.117474 0.741554 -0.164899)
(-0.168862 0.892802 -0.256044)
(-0.185438 0.904391 -0.236336)
(-0.0701888 0.605698 -0.250097)
(-0.0874462 0.586973 -0.259186)
(-0.177294 0.893159 -0.235553)
(-0.0528073 0.660782 -0.230484)
(-0.130668 0.773088 -0.278232)
(-0.0686545 0.414835 -0.186328)
(-0.091998 0.78054 -0.243398)
(-0.111225 0.791407 -0.197846)
(-0.117431 0.3934 -0.0971484)
(-0.0624993 0.561064 -0.227805)
(-0.368306 0.948699 -0.309819)
(-0.0870094 0.64578 -0.243415)
(-0.361618 0.915449 -0.305264)
(-0.253724 0.637953 -0.269905)
(-0.311248 0.665762 -0.273863)
(-0.242902 0.868572 -0.277748)
(-0.108354 0.732384 -0.184156)
(-0.19014 0.860963 -0.30319)
(-0.132264 0.76111 -0.258983)
(-0.113339 0.71922 -0.237884)
(-0.369983 0.880121 -0.328507)
(-0.334118 0.695553 -0.229817)
(-0.251664 0.712851 -0.156143)
(-0.349111 0.902385 -0.327659)
(-0.314412 0.829638 -0.249268)
(-0.160462 0.721131 -0.131389)
(-0.158426 0.441966 -0.0983059)
(-0.241248 0.562712 -0.206043)
(-0.21805 0.832038 -0.208965)
(-0.303567 0.750212 -0.236036)
(-0.172558 0.484728 -0.111435)
(-0.258699 0.639354 -0.193749)
(-0.224108 0.79925 -0.19476)
(-0.25688 0.642247 -0.152188)
(-0.361448 0.707055 -0.270815)
(-0.247494 0.594025 -0.246986)
(-0.345664 0.800544 -0.268523)
(-0.224875 0.491062 -0.183082)
(-0.30939 0.625978 -0.252072)
(-0.304391 0.718923 -0.227136)
(-0.224879 0.909973 -0.291192)
(-0.151992 0.74665 -0.172324)
(-0.156341 0.660574 -0.116865)
(-0.102583 0.375117 -0.16835)
(-0.0942548 0.608246 -0.24378)
(-0.149552 0.469004 -0.221392)
(-0.0906194 0.435972 -0.212702)
(-0.190028 0.642461 -0.285169)
(-0.112455 0.32511 -0.128475)
(-0.131608 0.347556 -0.0873095)
(-0.121324 0.4256 -0.202826)
(-0.20181 0.464841 -0.185248)
(0.165261 0.62159 -0.576188)
(0.140564 0.551996 -0.506764)
(0.137583 0.549691 -0.545652)
(0.140701 0.505523 -0.4946)
(0.169471 0.555294 -0.551433)
(0.125942 0.499048 -0.443828)
(0.112617 0.507871 -0.457465)
(0.151409 0.634104 -0.566742)
(0.199023 0.800905 -0.706043)
(0.202471 0.779706 -0.678884)
(0.200352 0.790555 -0.696872)
(0.159554 0.665402 -0.593191)
(0.163625 0.638473 -0.575956)
(-0.275032 0.809444 -0.280285)
(-0.190533 0.727857 -0.184415)
(-0.261363 0.815789 -0.26134)
(-0.235625 0.682162 -0.222698)
(-0.213609 0.647531 -0.209089)
(-0.230022 0.751985 -0.212062)
(-0.116374 0.448702 -0.201582)
(-0.113116 0.402265 -0.15949)
(-0.133293 0.506679 -0.219805)
(-0.100028 0.368943 -0.151982)
(-0.110973 0.360132 -0.141782)
(-0.126242 0.38297 -0.135706)
(-0.131414 0.437895 -0.171815)
(0.201031 0.793088 -0.701469)
(0.194208 0.717794 -0.646203)
(0.195915 0.781366 -0.699182)
(0.198529 0.740255 -0.656067)
(0.203504 0.794484 -0.697504)
(0.203067 0.784487 -0.685535)
(0.196352 0.759874 -0.683789)
(-0.359588 0.964247 -0.332352)
(-0.400501 0.961374 -0.333841)
(-0.349744 0.941831 -0.308946)
(-0.387803 0.968701 -0.318725)
(-0.37956 0.969546 -0.328152)
(-0.387119 0.968646 -0.326055)
(-0.378645 0.966309 -0.320815)
(-0.278261 0.937672 -0.337734)
(-0.32205 0.922457 -0.344786)
(-0.318655 0.955611 -0.351456)
(-0.352781 0.955375 -0.354012)
(-0.333214 0.955493 -0.355742)
(-0.339664 0.951966 -0.358614)
(-0.341914 0.95049 -0.353829)
(-0.302047 0.783448 -0.302616)
(-0.299089 0.795986 -0.310568)
(-0.315833 0.778775 -0.288102)
(-0.313691 0.813039 -0.318992)
(-0.316633 0.924703 -0.342964)
(-0.2839 0.906355 -0.331337)
(-0.303523 0.923904 -0.347513)
(-0.220312 0.857322 -0.318072)
(-0.174044 0.730867 -0.276361)
(-0.295066 0.907238 -0.341753)
(-0.199456 0.75247 -0.239208)
(-0.186537 0.767715 -0.262287)
(-0.352399 0.980603 -0.328065)
(-0.314088 0.926665 -0.275551)
(-0.338243 0.980095 -0.309848)
(-0.324146 0.944217 -0.27494)
(-0.365019 0.978333 -0.315934)
(-0.365612 0.974774 -0.315612)
(-0.327259 0.956542 -0.286565)
(-0.280494 0.879965 -0.322898)
(-0.261161 0.770775 -0.264603)
(-0.258005 0.788009 -0.278413)
(-0.265464 0.836552 -0.286866)
(-0.250275 0.876867 -0.309819)
(-0.291874 0.931303 -0.329715)
(-0.219603 0.803864 -0.293975)
(-0.237778 0.847226 -0.298911)
(-0.162147 0.744845 -0.272489)
(-0.166108 0.809601 -0.289965)
(-0.286466 1.00212 -0.336459)
(-0.260327 0.976698 -0.329186)
(-0.296166 0.984137 -0.329337)
(-0.277252 0.979465 -0.334231)
(-0.270597 1.00049 -0.339516)
(-0.267348 1.00124 -0.340105)
(-0.281063 0.968837 -0.331875)
(-0.253776 0.961386 -0.323282)
(-0.281624 0.949489 -0.322277)
(-0.269214 0.930105 -0.310113)
(-0.27624 0.938725 -0.321656)
(-0.0558881 0.668683 -0.209827)
(-0.182083 0.902326 -0.2916)
(-0.231247 0.903775 -0.304585)
(-0.137786 0.644346 -0.26764)
(-0.217768 0.749551 -0.285126)
(-0.225983 0.864618 -0.224957)
(-0.171622 0.775506 -0.190264)
(-0.132243 0.545124 -0.24609)
(-0.114875 0.64313 -0.270307)
(-0.221349 0.641151 -0.271094)
(-0.169572 0.722894 -0.283461)
(-0.13131 0.615261 -0.277091)
(-0.105089 0.623822 -0.267914)
(-0.184995 0.696258 -0.287094)
(-0.0673187 0.64787 -0.158581)
(-0.28134 0.843887 -0.275479)
(-0.316675 0.917796 -0.314971)
(-0.290072 0.842881 -0.290412)
(-0.295208 0.848051 -0.301243)
(-0.281657 0.772198 -0.267631)
(-0.279599 0.765848 -0.266916)
(-0.301689 0.874082 -0.304668)
(-0.286491 0.939519 -0.333045)
(-0.335157 0.97599 -0.337719)
(-0.315132 0.969385 -0.343085)
(-0.340812 0.983274 -0.336151)
(-0.307371 0.965581 -0.324627)
(-0.313897 0.970759 -0.324005)
(-0.33294 0.982211 -0.340771)
(-0.34266 0.985414 -0.313393)
(-0.343169 0.973042 -0.334799)
(-0.351287 0.980426 -0.330316)
(-0.349128 0.951965 -0.333495)
(-0.353406 0.976396 -0.317937)
(-0.347622 0.956396 -0.318123)
(-0.353079 0.974727 -0.335944)
(-0.293421 0.992807 -0.336012)
(-0.312383 0.931914 -0.321366)
(-0.298304 0.959114 -0.325854)
(-0.303693 0.904652 -0.317102)
(-0.292697 0.982341 -0.335547)
(-0.293119 0.973431 -0.334957)
(-0.303475 0.938536 -0.32236)
(-0.0604747 0.480996 -0.211913)
(-0.0485111 0.556793 -0.222335)
(-0.105385 0.613312 -0.260711)
(-0.0727898 0.62835 -0.233204)
(-0.102113 0.73134 -0.169784)
(-0.255697 0.958941 -0.291259)
(-0.135142 0.799167 -0.27466)
(-0.266819 0.933463 -0.302895)
(-0.179639 0.816597 -0.292334)
(-0.214516 0.882165 -0.292189)
(-0.196789 0.866791 -0.293743)
(-0.193739 0.83565 -0.29478)
(-0.202357 0.701419 -0.281794)
(-0.109402 0.750048 -0.27106)
(-0.229922 0.764376 -0.290553)
(-0.148541 0.765883 -0.283667)
(-0.137849 0.648863 -0.272436)
(-0.103358 0.590679 -0.253288)
(-0.174056 0.791124 -0.296982)
(-0.129392 0.390246 -0.143642)