/*--------------------------------*- C++ -*----------------------------------*\
| =========                 |                                                 |
| \\      /  F ield         | OpenFOAM: The Open Source CFD Toolbox           |
|  \\    /   O peration     | Version:  v1612+                                |
|   \\  /    A nd           | Web:      www.OpenFOAM.com                      |
|    \\/     M anipulation  |                                                 |
\*---------------------------------------------------------------------------*/
FoamFile
{
    version     2.0;
    format      ascii;
    class       volVectorField;
    location    "50";
    object      wallShearStress;
}
// * * * * * * * * * * * * * * * * * * * * * * * * * * * * * * * * * * * * * //

dimensions      [0 2 -2 0 0 0 0];

internalField   uniform (0 0 0);

boundaryField
{
    WALL
    {
        type            calculated;
        value           nonuniform List<vector> 
1682
(
(0.0053449 -0.0103584 0.00422428)
(0.00505609 -0.0105481 0.00462114)
(0.00533082 -0.0103938 0.00427804)
(0.000196756 -0.00329524 0.00467484)
(0.000925521 -0.00436456 0.00435742)
(0.00430478 -0.00907998 0.00427084)
(0.00485484 -0.010016 0.00412916)
(0.00590782 -0.0116012 0.00441977)
(0.00588274 -0.0117611 0.00456236)
(0.00463098 -0.0101394 0.00442513)
(-0.00148856 -0.00222055 0.00487255)
(-0.00202045 -0.00184825 0.0050269)
(-0.00377102 -0.00651175 0.00603283)
(-0.00358365 -0.00465991 0.00593283)
(0.00244292 -0.00864214 0.00457808)
(0.00234407 -0.00818031 0.00434918)
(0.00317939 -0.00892553 0.00433402)
(0.00340558 -0.0093851 0.00429956)
(0.00520668 -0.0104892 0.00450075)
(0.00503235 -0.0104829 0.00454117)
(0.00338265 -0.00808918 0.00415355)
(0.00398654 -0.00874659 0.00409846)
(0.00526054 -0.0132289 0.00416944)
(0.0048582 -0.0123861 0.00370318)
(0.00530566 -0.0119302 0.00627726)
(0.00498902 -0.0118369 0.00616826)
(-0.00467426 -0.014478 0.00907406)
(-0.00253513 -0.015111 0.00885077)
(0.00439448 -0.01341 0.00834818)
(0.00336504 -0.0130232 0.00819027)
(0.00156142 -0.0141062 0.00933769)
(0.00278926 -0.0134982 0.00920787)
(-0.00287237 -0.00636822 -0.00136228)
(-0.00512163 -0.00803762 -0.000877141)
(0.00532896 -0.0106558 0.00449884)
(0.0052893 -0.0108722 0.00454372)
(0.00605505 -0.0120469 0.00501521)
(0.00629513 -0.0122692 0.00540021)
(0.00496633 -0.0115874 0.00547597)
(0.00490105 -0.0114617 0.00585296)
(0.00285918 -0.00781775 0.00456134)
(0.00238664 -0.00728245 0.00450889)
(0.00537992 -0.0105814 0.00451287)
(0.00504769 -0.0105913 0.00458203)
(0.000240002 -0.0162414 0.0118719)
(0.00351739 -0.016443 0.0117282)
(0.00584395 -0.0115025 0.00521774)
(0.00421198 -0.00926512 0.00421062)
(0.00405308 -0.00899576 0.00414245)
(0.0036633 -0.00857244 0.00422711)
(0.00366786 -0.00880232 0.00427324)
(0.00384204 -0.00900466 0.00412175)
(0.00393043 -0.00892241 0.00440062)
(0.00564081 -0.0112524 0.00471818)
(0.00534753 -0.0110634 0.00454493)
(0.0052097 -0.0111549 0.00451351)
(0.00577624 -0.0115352 0.00493741)
(0.0053643 -0.0107265 0.00456413)
(0.00543269 -0.0112575 0.00456512)
(-1.99376e-07 -0.000953681 0.00294541)
(-0.000436094 -0.00118938 0.00362304)
(-0.00302833 -0.00341817 0.00579145)
(-0.00302955 -0.00273877 0.00561962)
(-0.00474249 -0.00445078 0.00645244)
(-0.00482073 -0.00380649 0.00664523)
(-0.00405426 -0.00285351 0.00617842)
(-0.00364917 -0.00441982 0.0061694)
(0.00603017 -0.0120722 0.00535457)
(0.00577455 -0.0120018 0.0051302)
(0.0053456 -0.011254 0.00520089)
(0.00583579 -0.0118298 0.0052408)
(0.00609095 -0.0120796 0.00554618)
(0.00575419 -0.0115471 0.00526523)
(0.00503317 -0.0103593 0.00404793)
(0.00460874 -0.00977891 0.00381466)
(0.00485375 -0.00969559 0.00420395)
(0.00450111 -0.00986222 0.00384338)
(0.00471651 -0.0103921 0.00420376)
(0.00482093 -0.00992519 0.00413776)
(0.0049876 -0.01091 0.00489098)
(0.0052702 -0.0114069 0.00474907)
(0.0052918 -0.0113919 0.00491276)
(0.00535871 -0.0110908 0.00479474)
(0.00544184 -0.0107246 0.00442668)
(0.00377386 -0.00799307 0.00413869)
(0.00387509 -0.00822661 0.00418318)
(0.00399809 -0.00823285 0.00410208)
(0.00386548 -0.00801089 0.004053)
(0.00401926 -0.00815525 0.00419)
(0.0041719 -0.00864729 0.00396939)
(0.00122241 -0.00580983 0.00036576)
(0.00100702 -0.00705193 0.000648282)
(0.00146593 -0.00678692 0.000500925)
(0.000603709 -0.00605675 3.11788e-05)
(0.00137746 -0.00646459 0.000485137)
(0.000352078 -0.00655488 -3.47872e-05)
(0.00499393 -0.0106302 0.00435952)
(0.00478362 -0.0107334 0.00459102)
(0.00420495 -0.00972908 0.00415303)
(0.00487494 -0.010717 0.00449663)
(0.00514494 -0.0113683 0.00470223)
(0.00480429 -0.0103266 0.00409074)
(0.00571756 -0.0124014 0.00556498)
(0.00522208 -0.0117782 0.00522313)
(0.0052968 -0.0123197 0.00580352)
(0.00529979 -0.0116357 0.00511297)
(0.00496001 -0.0116536 0.00551683)
(0.0052027 -0.0121975 0.00589631)
(0.00326931 -0.0106801 0.00510062)
(0.00322324 -0.0106318 0.0047661)
(0.00300858 -0.0108978 0.00506502)
(0.00306587 -0.0117147 0.005606)
(0.00360205 -0.0109559 0.00497828)
(0.00572854 -0.011753 0.00504213)
(0.00581831 -0.0119378 0.00504393)
(0.00584208 -0.0118242 0.00492088)
(0.0057496 -0.0115677 0.00481433)
(0.00603288 -0.0119786 0.00496055)
(0.00582656 -0.011442 0.00464238)
(0.00549805 -0.0114558 0.00493223)
(0.00576979 -0.0119575 0.00503108)
(0.00619558 -0.0123904 0.00513348)
(0.00568829 -0.0122078 0.00543933)
(0.00544201 -0.0117743 0.00564855)
(0.00569125 -0.011512 0.00476077)
(0.00528144 -0.010982 0.00444168)
(0.00523568 -0.0110505 0.00471667)
(0.00525893 -0.0107431 0.00443588)
(0.00528383 -0.0108423 0.00445671)
(0.00542138 -0.0105369 0.00398485)
(0.00570695 -0.0113703 0.00461247)
(0.00531947 -0.0106047 0.0042993)
(0.00537485 -0.0104961 0.0043628)
(0.00475743 -0.0103101 0.00385414)
(0.00488647 -0.0101161 0.00403419)
(0.00537321 -0.0108346 0.00430107)
(0.00511219 -0.0109842 0.00448558)
(0.00540793 -0.0105557 0.00451319)
(0.00552452 -0.0114257 0.00491346)
(0.00500832 -0.0103297 0.0042943)
(0.00565553 -0.0111625 0.00453866)
(0.005304 -0.0111841 0.00457622)
(0.0054598 -0.0112811 0.0048126)
(0.00466981 -0.0101462 0.00415969)
(0.00433133 -0.0100508 0.00432399)
(0.00483175 -0.010508 0.00450882)
(0.00479055 -0.0102302 0.00435357)
(0.00451729 -0.0104284 0.00431735)
(0.00502368 -0.0109555 0.00458847)
(0.00496425 -0.010516 0.0045016)
(0.0051175 -0.0103785 0.00436082)
(0.00525543 -0.0107602 0.00452488)
(0.00542801 -0.0114586 0.00485388)
(0.00496652 -0.0098826 0.00411338)
(0.00135571 -0.0110951 0.00406002)
(0.0012516 -0.0119814 0.00473325)
(0.00090663 -0.0110195 0.00362325)
(0.00126387 -0.0101502 0.00326037)
(0.000889329 -0.0122109 0.00435158)
(0.00112033 -0.0108947 0.00320108)
(0.00167202 -0.0113038 0.00364556)
(0.00292932 -0.0110516 0.00466727)
(0.00272928 -0.0116612 0.0043924)
(0.00258463 -0.0109243 0.00446366)
(0.0025346 -0.0105071 0.00405375)
(0.00313894 -0.0112371 0.00453037)
(0.00275868 -0.0114956 0.00408628)
(0.00183683 -0.0087675 0.00182725)
(0.00258282 -0.00861592 0.00183456)
(0.00242311 -0.00923102 0.00203811)
(0.00340137 -0.010634 0.0039502)
(0.00372968 -0.0102128 0.00385905)
(0.00362992 -0.0102803 0.0037829)
(0.00341194 -0.0108185 0.00413312)
(0.00316505 -0.0104138 0.00343473)
(0.00310308 -0.0102894 0.00375643)
(0.00178359 -0.0115758 0.00510012)
(0.00235031 -0.0120245 0.00529513)
(0.00292745 -0.0112733 0.005173)
(0.00183304 -0.0114511 0.00485557)
(0.00261892 -0.0114186 0.00563867)
(0.00236592 -0.0126755 0.00610742)
(0.00605713 -0.0231047 0.0171917)
(0.00679376 -0.0200277 0.013692)
(0.0062825 -0.0193971 0.0132803)
(0.00511499 -0.021246 0.0159131)
(0.00408634 -0.0193273 0.0153058)
(0.00546406 -0.0192327 0.0144282)
(0.00725849 -0.0259913 0.0100929)
(0.00868897 -0.0276558 0.0103766)
(0.00567329 -0.0251287 0.0082459)
(0.009188 -0.0224562 0.0120807)
(0.00812513 -0.0204367 0.0127597)
(0.00852461 -0.0182695 0.0101021)
(0.00849663 -0.0204278 0.0125113)
(0.00886323 -0.0186586 0.0108722)
(0.00984668 -0.0211458 0.010709)
(0.00399176 -0.0135946 0.00856297)
(0.00422318 -0.014024 0.00903178)
(0.00355038 -0.013093 0.00776661)
(0.00267212 -0.0135338 0.00873973)
(0.00329046 -0.0138479 0.0095972)
(0.00552127 -0.0117848 0.00597827)
(0.00541807 -0.0120844 0.00649911)
(0.00534121 -0.012099 0.00656484)
(0.00502826 -0.012234 0.0066809)
(0.00512326 -0.0118278 0.00621556)
(0.00526112 -0.0122379 0.00682833)
(0.00384199 -0.0117856 0.0060147)
(0.00328521 -0.0121235 0.00667558)
(0.00308061 -0.0115401 0.00607176)
(0.0036048 -0.0113495 0.0056465)
(0.00343539 -0.0115728 0.00560481)
(0.00352413 -0.011749 0.0064845)
(-0.00107128 -0.0187865 0.0153633)
(-0.00230566 -0.0177508 0.0148654)
(0.00174977 -0.0168701 0.0134947)
(0.00146559 -0.0200393 0.0161395)
(-0.000178267 -0.0196858 0.014643)
(0.00306302 -0.020771 0.0167286)
(-0.0020697 -0.0113695 0.00309114)
(-0.00214389 -0.0111538 0.00342533)
(-0.00298723 -0.0123035 0.00441785)
(-0.00307476 -0.0113224 0.00255802)
(-0.00199783 -0.0128007 0.00467142)
(-0.00356314 -0.0111936 0.00332541)
(-0.00198112 -0.0138911 0.00685183)
(-0.00140164 -0.0121653 0.00588139)
(-0.000918129 -0.0133752 0.00713902)
(-0.00216871 -0.014554 0.00822455)
(-0.00176245 -0.0134658 0.00800415)
(-0.00197234 -0.0130525 0.00602459)
(-0.00341068 -0.0156564 0.0110237)
(-0.00124554 -0.0155352 0.0104831)
(-0.00240682 -0.0171477 0.0126419)
(-0.00107522 -0.0150683 0.0108066)
(-0.00803872 -0.0136593 0.00691408)
(-0.00893778 -0.0140707 0.00616404)
(-0.00791767 -0.0147307 0.00850207)
(0.00585833 -0.0121681 0.00510888)
(0.00611162 -0.0115056 0.00564973)
(0.00608537 -0.0122222 0.00490441)
(0.00558185 -0.0113945 0.00500487)
(0.0072864 -0.0136799 0.00621108)
(0.00638666 -0.01211 0.00558598)
(0.00665385 -0.0134402 0.00669531)
(0.00589526 -0.0122001 0.00640694)
(0.0062078 -0.0127155 0.00670438)
(0.00677423 -0.0138629 0.00742584)
(0.00619376 -0.0129408 0.00719654)
(0.00677976 -0.0136656 0.00727153)
(0.00618984 -0.0125478 0.00569051)
(0.0056378 -0.0116802 0.00573858)
(0.00548364 -0.0112572 0.00553028)
(0.00582796 -0.0120701 0.00584121)
(0.00570062 -0.0117466 0.00555619)
(0.00592837 -0.0122085 0.00571645)
(0.00426721 -0.0102542 0.00409013)
(0.00511528 -0.0110749 0.00488752)
(0.00411599 -0.00978518 0.00429108)
(0.00414097 -0.00963427 0.00386405)
(0.00436471 -0.0102797 0.00392308)
(0.00452147 -0.0101075 0.00410291)
(0.00470874 -0.010806 0.00488154)
(0.00488327 -0.0111298 0.00498235)
(0.00472997 -0.0113023 0.00518671)
(0.00502913 -0.0115237 0.00506046)
(0.00597521 -0.0121079 0.00544008)
(0.0048258 -0.010941 0.00481548)
(0.00508792 -0.00963562 0.00436892)
(0.00477348 -0.0104755 0.00417792)
(0.00506058 -0.0115456 0.0049118)
(0.00531279 -0.0115475 0.00453681)
(0.00567099 -0.0110106 0.00484698)
(0.00454303 -0.0112362 0.0040973)
(0.00536362 -0.0123746 0.00413448)
(0.00478595 -0.0125322 0.00403386)
(0.00508758 -0.0118563 0.00414384)
(0.00475908 -0.0122337 0.00399743)
(0.00478394 -0.0117726 0.00403182)
(0.0103692 -0.0279582 0.0119776)
(0.00900012 -0.0229643 0.0100394)
(0.0109171 -0.0260641 0.00948142)
(0.0103355 -0.0263773 0.0107165)
(0.0103541 -0.0246762 0.0092278)
(0.00733473 -0.0153732 0.00478019)
(0.00687859 -0.0144999 0.00587147)
(0.00665646 -0.0136776 0.00616791)
(0.00709462 -0.0152389 0.00569655)
(0.00703402 -0.0143656 0.00592098)
(0.00661949 -0.0138619 0.00499314)
(0.00480653 -0.00971726 0.00415467)
(0.00455461 -0.00935114 0.00392805)
(0.0045458 -0.00942268 0.00398272)
(0.00492011 -0.00993798 0.00398458)
(0.0048088 -0.00967893 0.00401699)
(0.0045767 -0.00955345 0.00420137)
(0.00463981 -0.00927491 0.00380984)
(0.00488793 -0.00996422 0.00389804)
(0.00467819 -0.00947897 0.00416406)
(0.00475438 -0.00964597 0.00399098)
(0.00484509 -0.00984237 0.00392786)
(0.00503562 -0.00989099 0.00411478)
(-0.000750818 -0.00531187 -0.000851373)
(-0.000415108 -0.00559552 -0.000622576)
(-0.000786913 -0.00652196 -0.000208323)
(-0.00143057 -0.00602862 -0.00108892)
(-0.000606402 -0.00631496 -0.000497855)
(-0.00168225 -0.00669556 -0.000829188)
(0.000464842 -0.00350766 -0.00041919)
(0.000719774 -0.00469201 -0.000100236)
(0.000272671 -0.0048948 -0.000453079)
(0.000108168 -0.00438723 -0.000634658)
(4.47369e-05 -0.00317219 -0.000500271)
(0.000949376 -0.00394677 0.000319052)
(0.00294262 -0.00629267 0.00220113)
(0.00285667 -0.00549166 0.00265531)
(0.00251286 -0.005571 0.00177912)
(0.00346856 -0.00694231 0.00270697)
(0.00242636 -0.00535275 0.00199603)
(0.00243223 -0.00489364 0.00222682)
(0.00437764 -0.00893158 0.00348437)
(0.00491902 -0.00978535 0.00394042)
(0.00458783 -0.00987841 0.00392272)
(0.00491528 -0.010519 0.00404911)
(0.00482885 -0.00984461 0.00354542)
(0.00474208 -0.0102583 0.0039794)
(0.0043447 -0.00865005 0.00362446)
(0.00431368 -0.009095 0.0034546)
(0.00446588 -0.00876449 0.00369444)
(0.00444253 -0.00903991 0.003531)
(0.0044476 -0.00941928 0.00367806)
(0.00428481 -0.00863452 0.00389913)
(0.00409147 -0.00805009 0.00317576)
(0.00402561 -0.00800166 0.00388393)
(0.00430215 -0.00847467 0.00360137)
(0.00418592 -0.0082946 0.00369453)
(0.00388043 -0.00746756 0.00363901)
(0.00388179 -0.00767089 0.00352535)
(0.00370504 -0.00743985 0.00403637)
(0.0034844 -0.00719293 0.00391145)
(0.00359177 -0.00744229 0.00425449)
(0.00307183 -0.00673328 0.00427927)
(0.00357314 -0.00706491 0.00373892)
(0.00311402 -0.00684697 0.00435608)
(0.00316688 -0.00741417 0.00411201)
(0.00337074 -0.00777913 0.00439949)
(0.00346339 -0.00775389 0.0043231)
(0.00299294 -0.00755479 0.00460161)
(0.00329026 -0.00738033 0.00422881)
(0.00506283 -0.0103058 0.0044126)
(0.00502136 -0.0108363 0.00465892)
(0.00526354 -0.0113919 0.00475159)
(0.00507972 -0.0110755 0.00478652)
(0.00492066 -0.0111871 0.0046081)
(0.00487963 -0.0104805 0.00450858)
(0.00503149 -0.0105464 0.00455703)
(0.0054042 -0.011041 0.00467008)
(0.00565936 -0.0104533 0.00432128)
(0.00501122 -0.0104339 0.00475406)
(0.00513854 -0.0106033 0.00463696)
(0.00547726 -0.0110256 0.00468217)
(0.00516233 -0.0103565 0.0043063)
(0.00522066 -0.0102723 0.00413454)
(0.00531307 -0.0107648 0.00461558)
(0.00519344 -0.0105661 0.00464011)
(0.00525361 -0.0106433 0.0045387)
(0.00525048 -0.0105673 0.00435863)
(0.00463261 -0.00961202 0.0041239)
(0.00483935 -0.00989687 0.00414317)
(0.0049464 -0.00990663 0.00405625)
(0.00475736 -0.00983698 0.00436424)
(0.00502553 -0.0101448 0.00422573)
(0.00479171 -0.0109032 0.00495047)
(0.00467933 -0.0104836 0.0045377)
(0.0046383 -0.0103412 0.00450334)
(0.00495154 -0.0106201 0.00453781)
(0.0046743 -0.0108503 0.00481748)
(0.0048628 -0.0100208 0.00426434)
(0.00528584 -0.0103878 0.00412279)
(0.0049688 -0.010135 0.0038272)
(0.00500773 -0.0100146 0.00390945)
(0.00516075 -0.0109239 0.00431271)
(0.00492905 -0.0100254 0.00434157)
(0.00544472 -0.0108404 0.00403019)
(0.00518273 -0.0104266 0.00410301)
(0.00545611 -0.0108777 0.0044439)
(0.00557679 -0.0111784 0.00425309)
(0.00505083 -0.0108322 0.0040701)
(0.00543427 -0.0115673 0.00462381)
(0.00547278 -0.0115163 0.00459772)
(0.00505951 -0.0101482 0.00430248)
(0.00508752 -0.0101691 0.00436379)
(0.00529552 -0.0106009 0.00433881)
(0.00522436 -0.010257 0.00415668)
(0.00515189 -0.0103323 0.00454808)
(0.00506813 -0.0099963 0.00418231)
(0.00505375 -0.0100959 0.00437462)
(0.00534398 -0.0105658 0.0045785)
(0.00511834 -0.010274 0.00427318)
(0.00502465 -0.0100125 0.00446082)
(0.00419706 -0.00972122 0.00417397)
(0.00391591 -0.00981849 0.00434699)
(0.00400258 -0.0101596 0.00426285)
(0.00372157 -0.00987674 0.00426483)
(0.00409083 -0.0101885 0.00418486)
(0.00400774 -0.00977383 0.00410977)
(0.0021788 -0.00933968 0.0044955)
(0.00227085 -0.00924184 0.00438525)
(0.00236374 -0.00975396 0.00439724)
(0.0019972 -0.00962519 0.0044361)
(0.0021905 -0.00976112 0.00432271)
(0.00208333 -0.00912547 0.0044723)
(0.00260931 -0.00869975 0.00455472)
(0.00282108 -0.0088452 0.00444139)
(0.00249304 -0.00826144 0.00421915)
(0.00237235 -0.00862743 0.0042119)
(0.0024441 -0.00862928 0.00429252)
(0.00257676 -0.0101056 0.00406763)
(0.00263271 -0.01144 0.00430706)
(0.00298598 -0.0103268 0.00417012)
(0.00263388 -0.0103336 0.00415655)
(0.00268062 -0.010611 0.00388627)
(0.00333888 -0.0106609 0.00417336)
(0.00400061 -0.010195 0.00404983)
(0.00451318 -0.0101486 0.00430128)
(0.00405047 -0.0103375 0.00427837)
(0.00405129 -0.00978602 0.00397093)
(0.00393259 -0.0100538 0.00409923)
(0.00408079 -0.0106322 0.00447699)
(0.00499053 -0.0101118 0.00467399)
(0.00554125 -0.0113329 0.0049138)
(0.00480327 -0.0100437 0.0046289)
(0.0045511 -0.00938902 0.00445068)
(0.00515572 -0.0103658 0.00465348)
(0.00460443 -0.00938035 0.00427008)
(0.00479591 -0.00984724 0.00447518)
(0.00545716 -0.0107256 0.00442083)
(0.00520384 -0.0104503 0.00441425)
(0.00553467 -0.0113425 0.00442486)
(0.0057968 -0.0116265 0.00487423)
(0.00529896 -0.0106817 0.00434509)
(0.00543266 -0.0109849 0.00461931)
(0.00500423 -0.0101267 0.00423356)
(0.00603928 -0.0115019 0.00522855)
(0.00562297 -0.0115185 0.00426372)
(0.00556025 -0.0109092 0.00475706)
(0.0058755 -0.0115431 0.00523862)
(0.00467971 -0.00985491 0.00384673)
(0.00527915 -0.010712 0.00413222)
(0.00483603 -0.0103061 0.00415483)
(0.00484739 -0.010249 0.004141)
(0.00468653 -0.0104436 0.00387142)
(0.00442087 -0.0102007 0.00403355)
(0.00486598 -0.0105292 0.00423189)
(0.00499452 -0.0102836 0.00420481)
(0.00452143 -0.0103628 0.00443105)
(0.00447246 -0.0104559 0.00444545)
(0.00454308 -0.0103688 0.00440071)
(0.00450474 -0.0105049 0.00452254)
(0.00470971 -0.0100779 0.00433372)
(0.00456867 -0.0102466 0.00429809)
(0.00470794 -0.0104558 0.00422545)
(0.00482513 -0.011041 0.00471333)
(0.005155 -0.011015 0.00461551)
(0.00484378 -0.010457 0.00436669)
(0.00434876 -0.0107619 0.00440142)
(0.00436108 -0.0111646 0.00436247)
(0.00555092 -0.0116036 0.00456482)
(0.00562126 -0.0114448 0.00461529)
(0.00568295 -0.0116206 0.00460718)
(0.00580335 -0.0115765 0.00471921)
(0.00564407 -0.011555 0.00465913)
(0.0058809 -0.0119014 0.00480751)
(0.00569783 -0.0118058 0.00500564)
(0.00591371 -0.0119491 0.00514593)
(0.00594287 -0.0121015 0.00527809)
(0.0058823 -0.0116224 0.00536591)
(0.00581757 -0.01172 0.00522552)
(0.00579307 -0.0117034 0.00502535)
(0.00572629 -0.0116443 0.00496161)
(0.0059329 -0.01176 0.00536346)
(0.00552098 -0.0111526 0.00511888)
(0.00576087 -0.0116463 0.00502388)
(0.00566205 -0.0115468 0.00513037)
(0.00577376 -0.0113985 0.00527769)
(0.00568502 -0.0115249 0.00505046)
(0.00472233 -0.0098992 0.004498)
(0.00515712 -0.0104747 0.00472144)
(0.00516052 -0.0105377 0.00463835)
(0.00504208 -0.0102713 0.00404046)
(0.00499905 -0.0105022 0.00429974)
(0.00558861 -0.0114087 0.00497549)
(0.00569414 -0.0115847 0.00477024)
(0.00554786 -0.011502 0.00480596)
(0.00568917 -0.0115826 0.00508893)
(0.00568271 -0.0116669 0.00521856)
(0.00578519 -0.0117799 0.00499856)
(-0.00112627 -0.0113467 0.00500135)
(0.000187685 -0.0109004 0.0047645)
(-0.00124918 -0.00993022 0.00496788)
(-0.000664836 -0.0094088 0.00498707)
(-4.94234e-05 -0.00949209 0.00465281)
(-0.000529914 -0.0114613 0.00466884)
(0.000872458 -0.0123672 0.0044922)
(0.000349422 -0.013194 0.00455334)
(0.00180657 -0.0141574 0.00421499)
(0.000587399 -0.0145973 0.00396874)
(0.000247389 -0.0141497 0.00428448)
(0.00125312 -0.0124437 0.00423214)
(-0.0011146 -0.0082448 0.00531273)
(-0.00209158 -0.00842325 0.0053204)
(-0.00155001 -0.00702597 0.0057311)
(-0.00230672 -0.00708774 0.00567489)
(-0.00122318 -0.00692118 0.00526593)
(-0.00242281 -0.0082986 0.00570774)
(-0.00685068 -0.0177902 0.00378386)
(-0.00664149 -0.0159042 0.00423131)
(-0.00536834 -0.0196932 0.00367826)
(-0.00429936 -0.0154255 0.00452739)
(-0.00380356 -0.0165931 0.00411549)
(-0.00300361 -0.0193214 0.00411762)
(-0.00646228 -0.0056699 0.00643722)
(-0.0083828 -0.00772873 0.00674176)
(-0.00631432 -0.00559689 0.00708953)
(-0.00697961 -0.00716888 0.00667051)
(-0.00162058 -0.00143726 0.00505081)
(-0.00264387 -0.00204281 0.00539616)
(-0.00243047 -0.00200693 0.00563196)
(-0.00135317 -0.00110692 0.00446906)
(-0.00161247 -0.00116599 0.00438702)
(0.00084277 -0.00815385 0.00533934)
(0.000921146 -0.00895008 0.00506441)
(-0.000172179 -0.00769883 0.00535596)
(0.00036557 -0.00901293 0.0052047)
(0.00108958 -0.00800094 0.00476198)
(0.000204226 -0.00795275 0.00494742)
(0.00199989 -0.00739591 0.00509079)
(0.00155221 -0.00705856 0.00481667)
(0.00188146 -0.00771999 0.00477637)
(0.00142239 -0.00675712 0.00510697)
(0.00198434 -0.00770207 0.00488049)
(0.0019014 -0.00771054 0.00480358)
(5.72688e-05 -0.00454488 0.00498587)
(-0.000123634 -0.0036546 0.0046854)
(0.00058814 -0.00487832 0.0048882)
(-0.000216871 -0.00541536 0.00517187)
(0.000691018 -0.00512526 0.00485929)
(0.000519233 -0.00559034 0.00510859)
(-0.000231264 -0.00467406 0.00488412)
(0.000941073 -0.00395297 0.00417246)
(0.000527019 -0.00220575 0.00320256)
(0.000706623 -0.00201755 0.00281609)
(0.00117294 -0.00269367 0.00269014)
(0.000591312 -0.00267566 0.00346601)
(0.00129351 -0.0030725 0.00301179)
(0.0010174 -0.00301018 0.00342169)
(0.000439097 -0.00125739 0.000715661)
(0.000528279 -0.00102296 0.00114171)
(0.000297321 -0.000806518 0.00177254)
(0.000518457 -0.0014933 0.000946352)
(0.000506397 -0.00139977 0.00154384)
(0.00196053 -0.00422667 0.00170416)
(0.00178894 -0.00364695 0.0026092)
(0.00157151 -0.00328717 0.00184753)
(0.00166528 -0.00348876 0.00192891)
(0.0022071 -0.0043759 0.00239442)
(0.00527609 -0.0108077 0.00446445)
(0.00499216 -0.0109058 0.00440397)
(0.00516835 -0.0109491 0.00432136)
(0.00563177 -0.0116016 0.00458035)
(0.00525549 -0.010797 0.00434213)
(0.00498027 -0.0109782 0.0042407)
(0.00534532 -0.0118831 0.00453461)
(0.00520006 -0.0116101 0.00477418)
(0.00495859 -0.010973 0.00418596)
(0.00484775 -0.0111219 0.0040029)
(0.00593653 -0.0113677 0.00490289)
(0.005747 -0.0111361 0.00449761)
(0.005882 -0.0110559 0.00496855)
(0.0050976 -0.0112945 0.00417894)
(0.00511032 -0.0103005 0.00443617)
(0.00483987 -0.0107418 0.00405927)
(0.00514782 -0.0114747 0.00440059)
(0.00510958 -0.0107595 0.00442277)
(0.00597523 -0.0121656 0.00515754)
(0.00620126 -0.0121754 0.00508518)
(0.0053286 -0.0116531 0.00449129)
(0.00574617 -0.0108634 0.00474989)
(0.00557293 -0.0115667 0.00477747)
(0.00609768 -0.0115305 0.0050826)
(0.00564521 -0.0114152 0.00499381)
(0.00548436 -0.0111634 0.00471131)
(0.00561078 -0.0112279 0.0046771)
(0.00570283 -0.0115345 0.00474967)
(0.00521474 -0.0105926 0.00457383)
(0.00572631 -0.0111891 0.00494784)
(-0.00170308 -0.00517281 -0.00171772)
(-0.00163223 -0.00508778 -0.00139312)
(-0.000882505 -0.00437865 -0.00131069)
(-0.00102945 -0.00475156 -0.00139205)
(-0.00124229 -0.00453999 -0.00141252)
(0.00517013 -0.0107801 0.00469578)
(0.00486215 -0.0104237 0.00454209)
(0.00528925 -0.010882 0.0045884)
(0.00543412 -0.0114994 0.00484958)
(0.00413042 -0.00949392 0.0043134)
(0.00394611 -0.00946151 0.00434093)
(0.00418643 -0.00964396 0.00427544)
(0.00440741 -0.00937464 0.00412782)
(0.00452688 -0.0101065 0.00443261)
(0.0038268 -0.00922623 0.00418699)
(0.00472663 -0.00978135 0.00427986)
(0.00410491 -0.00899059 0.00432865)
(0.00479578 -0.0100169 0.00418237)
(0.00522943 -0.0109198 0.00424192)
(0.0053131 -0.0107414 0.00434239)
(0.00533387 -0.0110507 0.00443082)
(0.00472924 -0.0097556 0.00387088)
(0.00484287 -0.00973524 0.00408233)
(0.00506661 -0.0102743 0.00394212)
(0.00314617 -0.00649754 0.00320725)
(0.00348047 -0.00734072 0.00304963)
(-0.00653339 -0.0101817 -0.00038376)
(0.00498176 -0.0112324 0.00448394)
(0.00523247 -0.0109862 0.00438514)
(0.00559825 -0.0117329 0.00476987)
(0.00485998 -0.0113596 0.00466038)
(0.00503621 -0.0106271 0.00452365)
(0.00465009 -0.0103856 0.00415052)
(0.00535842 -0.0117023 0.00424991)
(0.000630623 -0.00131002 0.00174332)
(0.000615484 -0.00112104 0.0016146)
(0.000343457 -0.000972856 0.00200179)
(0.000668047 -0.00235169 -5.7939e-05)
(0.00110114 -0.00231998 0.00169811)
(0.00102739 -0.0022501 0.00110653)
(0.000315039 -0.00110135 0.00201957)
(0.000526527 -0.00166091 0.000158037)
(0.000683742 -0.00157291 0.000746839)
(0.000621488 -0.00165053 0.000492443)
(0.000577608 -0.0013588 0.000962646)
(0.000425576 -0.00218007 0.000422762)
(0.000359013 -0.00220353 0.00018232)
(0.000325707 -0.00268498 -0.000107798)
(7.73319e-06 -0.000860259 0.00226403)
(0.00137542 -0.00284641 0.00234602)
(0.000555437 -0.00150865 0.0024137)
(0.00170225 -0.00360752 0.00281981)
(0.00225912 -0.00450445 0.0029657)
(-0.000115176 -0.00087741 0.00272382)
(4.76405e-05 -0.000684889 0.00235801)
(0.000172127 -0.00102532 0.00256707)
(0.00121562 -0.00363696 0.00385174)
(0.00208058 -0.0044744 0.00327106)
(0.00195654 -0.00429964 0.00341299)
(0.00155048 -0.0040087 0.00369483)
(0.00211443 -0.00459745 0.00357454)
(0.00223251 -0.00504307 0.00382117)
(0.00149594 -0.00468508 0.00418113)
(0.00158846 -0.00437032 0.00399952)
(0.00217536 -0.00544738 0.00434028)
(0.00187625 -0.00543264 0.00440931)
(0.00158339 -0.00514292 0.00454429)
(0.0011981 -0.00526646 0.00478717)
(0.0019688 -0.00582678 0.00454075)
(0.000599261 -0.00573276 0.0049682)
(0.00113957 -0.00587499 0.00483399)
(0.00125986 -0.00565873 0.0048205)
(0.00198246 -0.00664782 0.00480198)
(0.002011 -0.00625846 0.00466155)
(0.000542413 -0.00675277 0.00517014)
(0.000777656 -0.0069129 0.00490277)
(0.00139398 -0.0076943 0.00470067)
(-0.000428424 -0.00079935 0.00318971)
(-0.000644889 -0.00102592 0.00375566)
(0.000276605 -0.00279322 0.00414513)
(-0.000300054 -0.00265325 0.00439789)
(-0.000680391 -0.000882024 0.00352698)
(-0.00025237 -0.00200266 0.00379221)
(-0.000844203 -0.00144181 0.00398253)
(-9.08533e-06 -0.0016215 0.00339076)
(-2.61087e-05 -0.00119626 0.00313275)
(-0.000924653 -0.00473116 0.00510344)
(-0.000999357 -0.00438867 0.00519043)
(-0.000693456 -0.00330786 0.0048111)
(-0.000731056 -0.00295775 0.00476887)
(-0.00537572 -0.00761401 0.00620386)
(-0.00702201 -0.00771781 0.00627759)
(-0.00744173 -0.00910522 0.00589065)
(-0.00265497 -0.00649467 0.00590508)
(-0.00148343 -0.00572032 0.00564036)
(-0.00226845 -0.00572548 0.00594537)
(-0.000450095 -0.00588942 0.00526158)
(-0.00136831 -0.00592569 0.00547269)
(-0.000468591 -0.00646155 0.0054582)
(-0.000703749 -0.00680622 0.00525769)
(-0.00485661 -0.00776005 0.00561271)
(-0.00416833 -0.00749408 0.00584379)
(-0.0035235 -0.00827428 0.00560072)
(-0.00675772 -0.0101735 0.00562077)
(-0.00495766 -0.0101133 0.00597101)
(-0.000671441 -0.00807107 0.00472139)
(-0.00175184 -0.0097261 0.00533133)
(0.000731247 -0.00956267 0.00494066)
(-0.000705242 -0.0128885 0.00460115)
(-0.0012848 -0.0136251 0.00450029)
(-0.000713725 -0.0148218 0.00443175)
(1.62819e-05 -0.016229 0.0044252)
(0.0012757 -0.020355 0.00381594)
(0.000157117 -0.019332 0.00374243)
(-0.000490884 -0.0214308 0.00273466)
(-0.000910528 -0.0225455 0.00379408)
(-0.00166911 -0.0160963 0.00385262)
(-0.00270902 -0.0162225 0.00432369)
(-0.0011798 -0.0185484 0.00383703)
(-0.00239136 -0.0190909 0.00308826)
(-0.00738217 -0.0108077 0.00450149)
(-0.00677109 -0.0105839 0.00536965)
(-0.0075213 -0.0145701 0.00445891)
(-0.00740965 -0.0127369 0.00470128)
(0.00527247 -0.0108452 0.00479263)
(0.0050133 -0.0104755 0.00423967)
(0.00544988 -0.0112504 0.00436703)
(0.00594884 -0.0118042 0.00478716)
(0.00506665 -0.010821 0.00476374)
(0.00477607 -0.00998527 0.00475985)
(0.00534847 -0.0110031 0.00443343)
(0.00514356 -0.0107424 0.00457856)
(0.00570743 -0.0114641 0.00502453)
(0.00571421 -0.0115258 0.00512126)
(0.00592112 -0.0118617 0.00534595)
(0.00524822 -0.0115455 0.00429906)
(0.00536894 -0.0111906 0.00460289)
(0.00528015 -0.0111022 0.00431541)
(0.00494996 -0.010918 0.00425665)
(0.00482553 -0.0110435 0.00428009)
(0.00519438 -0.0110533 0.00462483)
(0.00505012 -0.0114915 0.00461757)
(0.00513329 -0.0116239 0.00472001)
(0.00498891 -0.0112659 0.00459174)
(0.00519936 -0.01105 0.00449783)
(0.00461858 -0.0103268 0.00416215)
(0.00437099 -0.0105367 0.00421316)
(0.00517672 -0.0114667 0.00467484)
(0.00504953 -0.010845 0.00467559)
(0.00475937 -0.00995611 0.00410482)
(0.00453104 -0.0106885 0.0046046)
(0.00485245 -0.0107373 0.00426563)
(0.00505894 -0.0106695 0.00434551)
(0.00539394 -0.0116095 0.00461653)
(0.00514867 -0.0104378 0.0043558)
(0.004124 -0.00986769 0.003948)
(0.00445823 -0.0105566 0.00413546)
(0.00492505 -0.0105538 0.00431251)
(0.00478079 -0.0106248 0.00412998)
(0.00483019 -0.0105016 0.00399076)
(0.00463607 -0.0105061 0.00421484)
(0.00604808 -0.0119264 0.00528177)
(0.00566563 -0.0115706 0.00483153)
(0.00578294 -0.0117815 0.0050844)
(0.00582531 -0.0117348 0.0050893)
(0.00585441 -0.0117688 0.00506974)
(0.00558145 -0.0115369 0.0048706)
(0.00594781 -0.011884 0.0051787)
(0.00599414 -0.0117662 0.00532193)
(0.00591807 -0.0116749 0.00525578)
(0.00601241 -0.0118431 0.00485545)
(0.00571931 -0.0114244 0.00489756)
(0.00609103 -0.0121478 0.00492115)
(0.00558694 -0.0112997 0.00458817)
(0.00522603 -0.00988729 0.00429552)
(0.005431 -0.0109593 0.00477233)
(0.00530531 -0.0108669 0.00506753)
(0.00538247 -0.0108614 0.00492206)
(0.00598526 -0.0117209 0.00548167)
(0.00576438 -0.0116073 0.00504872)
(0.00600283 -0.0120881 0.00534571)
(0.00583262 -0.0115289 0.00513827)
(0.00555825 -0.0114992 0.0046079)
(0.00562173 -0.0116693 0.0047317)
(0.00572907 -0.0114301 0.00498502)
(0.00544381 -0.0109533 0.0049352)
(0.00563861 -0.0116384 0.00486317)
(0.00535923 -0.0110097 0.00487468)
(0.00525173 -0.0109499 0.00507579)
(0.00555641 -0.0115624 0.00510929)
(0.00546136 -0.0112761 0.00467519)
(0.00541599 -0.0109245 0.00454542)
(0.0051496 -0.0105899 0.0043301)
(0.00598649 -0.0118458 0.00473916)
(0.00494712 -0.0101588 0.00418572)
(0.00443642 -0.0099192 0.00380906)
(0.00494845 -0.0105943 0.00412176)
(0.00498925 -0.00994852 0.00438537)
(0.00491983 -0.0101975 0.00439863)
(0.00457905 -0.00959208 0.00390822)
(0.00493006 -0.00991076 0.00436348)
(0.00447571 -0.00931758 0.00408173)
(0.00531241 -0.0108442 0.00464561)
(-0.000812072 -0.00315577 -0.00144073)
(-0.000305388 -0.00331607 -0.000890951)
(0.000151521 -0.00214974 -0.000689472)
(0.000277222 -0.00226109 -0.000415837)
(-2.33872e-05 -0.00343406 -0.000488131)
(-0.000313396 -0.00427076 -0.000959325)
(-0.000837323 -0.00455936 -0.00114788)
(-0.00234653 -0.00569434 -0.00128317)
(-0.00114321 -0.00477285 -0.00128485)
(-0.00271952 -0.00650696 -0.00151625)
(-0.00194312 -0.00565923 -0.00131846)
(-0.00574982 -0.0102114 -0.000685015)
(-0.0034064 -0.00799495 -0.00110756)
(-0.00419548 -0.0088668 -0.00109256)
(0.00501425 -0.0107072 0.00436479)
(0.00488183 -0.0108896 0.00455712)
(0.00490143 -0.0107702 0.00457629)
(0.00455789 -0.0107973 0.00405518)
(0.00425535 -0.0108027 0.0041718)
(0.00207009 -0.0086908 0.00441644)