/*--------------------------------*- C++ -*----------------------------------*\
| =========                 |                                                 |
| \\      /  F ield         | OpenFOAM: The Open Source CFD Toolbox           |
|  \\    /   O peration     | Version:  v1612+                                |
|   \\  /    A nd           | Web:      www.OpenFOAM.com                      |
|    \\/     M anipulation  |                                                 |
\*---------------------------------------------------------------------------*/
FoamFile
{
    version     2.0;
    format      ascii;
    class       volVectorField;
    location    "200";
    object      U;
}
// * * * * * * * * * * * * * * * * * * * * * * * * * * * * * * * * * * * * * //

dimensions      [0 1 -1 0 0 0 0];

internalField   nonuniform List<vector> 
16780
(
(0.561412 0.620614 0.35584)
(0.52471 0.610508 0.342267)
(0.44839 0.560763 0.278853)
(0.464412 0.563613 0.275358)
(0.512199 0.584531 0.284314)
(0.491624 0.589984 0.303589)
(0.546839 0.60716 0.310354)
(0.587857 0.620613 0.349068)
(0.553273 0.625199 0.364358)
(0.498667 0.591365 0.295168)
(0.580052 0.618536 0.30223)
(0.593826 0.623381 0.347844)
(0.592391 0.624429 0.312095)
(0.597178 0.622952 0.304565)
(0.619155 0.628208 0.329549)
(0.550259 0.616659 0.330491)
(0.535793 0.606944 0.308444)
(0.0335735 0.0976717 -0.00755061)
(0.0211124 0.0988751 -0.008137)
(0.0876774 0.188589 0.0119838)
(0.0723085 0.1598 0.00613695)
(0.0586296 0.206449 0.0291763)
(0.034325 0.168347 0.0140907)
(0.101563 0.19702 0.0196969)
(0.058679 0.177222 0.0160298)
(0.0226442 0.132872 0.00699638)
(0.0871853 0.217211 0.0316003)
(0.171119 0.147665 0.0664134)
(0.21663 0.20868 0.0868726)
(0.202437 0.197222 0.0838316)
(0.162706 0.141788 0.0641064)
(0.254909 0.275716 0.100064)
(0.220168 0.227119 0.0773536)
(0.251686 0.277338 0.0866441)
(0.178883 0.197046 0.0441208)
(0.156731 0.163701 0.0500339)
(0.119407 0.112184 0.0439705)
(0.19832 0.211305 0.0507822)
(0.0965874 0.129009 0.0198566)
(0.0933419 0.0964712 0.0223456)
(0.146491 0.170572 0.040292)
(0.46863 0.737471 0.242535)
(0.436873 0.675662 0.224412)
(0.453293 0.712897 0.239286)
(0.455647 0.705801 0.244741)
(0.445339 0.713909 0.231252)
(0.431958 0.655508 0.21238)
(0.468817 0.756398 0.247395)
(0.442447 0.696224 0.230138)
(0.409123 0.642634 0.19333)
(0.387365 0.620982 0.180132)
(0.36617 0.586737 0.184721)
(0.472886 0.744167 0.24348)
(0.460017 0.713758 0.226743)
(0.478586 0.76373 0.239154)
(0.441638 0.699246 0.203877)
(0.348228 0.559904 0.169655)
(0.451244 0.564102 0.27604)
(0.404797 0.528548 0.27477)
(0.374606 0.52098 0.269902)
(0.396024 0.558619 0.283535)
(0.529005 0.603034 0.293916)
(0.516051 0.622497 0.329208)
(0.507008 0.613964 0.323485)
(0.473834 0.590473 0.293374)
(0.452062 0.610039 0.308785)
(0.458091 0.607683 0.321568)
(0.399237 0.541555 0.278691)
(0.429305 0.577733 0.289525)
(0.355532 0.810256 0.327078)
(0.352145 0.790956 0.317781)
(0.491655 0.716213 0.352671)
(0.466566 0.697055 0.345382)
(0.386251 0.803192 0.31869)
(0.370516 0.781419 0.333175)
(0.334476 0.756848 0.30792)
(0.456393 0.748621 0.346282)
(0.395744 0.729044 0.333303)
(0.396281 0.730779 0.331358)
(0.408192 0.881492 0.116777)
(0.430686 0.934095 0.131269)
(0.424761 0.900911 0.108555)
(0.384722 0.836425 0.112503)
(0.431352 0.939476 0.131725)
(0.428567 0.926701 0.127491)
(0.426964 0.936848 0.133558)
(0.391316 0.901576 0.124487)
(0.361206 0.833653 0.114322)
(0.422426 0.935477 0.166532)
(0.407717 0.9019 0.145206)
(0.39864 0.928619 0.165441)
(0.385414 0.885301 0.147515)
(0.415702 0.927232 0.163343)
(0.3219 0.388608 0.112525)
(0.322496 0.398076 0.114028)
(0.27147 0.360718 0.108005)
(0.25749 0.352081 0.104425)
(0.287537 0.393391 0.119528)
(0.265018 0.371842 0.119283)
(0.248932 0.344981 0.107146)
(0.480115 0.853683 0.0774653)
(0.479831 0.877424 0.0832728)
(0.563509 0.845855 0.0623198)
(0.535493 0.834054 0.0599922)
(0.497901 0.875889 0.0838232)
(0.494811 0.894348 0.0825811)
(0.512117 0.862718 0.0601522)
(0.489687 0.83374 0.0611343)
(0.509981 0.827456 0.0698575)
(0.501137 0.812428 0.0556225)
(0.579795 0.849102 0.0554596)
(0.548543 0.849146 0.0509653)
(0.550035 0.852472 0.0647281)
(0.547383 0.88059 0.0529417)
(0.557097 0.881098 0.0533774)
(0.559326 0.883761 0.050715)
(0.559084 0.870063 0.0509945)
(0.544622 0.882945 0.0573539)
(0.498997 0.890259 0.0814919)
(0.549089 0.861347 0.0620514)
(0.544898 0.878893 0.0603062)
(0.622242 0.774114 0.157661)
(0.638525 0.792062 0.157117)
(0.632715 0.750766 0.153024)
(0.636028 0.697331 0.132649)
(0.606782 0.792666 0.181357)
(0.600299 0.80867 0.188331)
(0.582121 0.844818 0.204715)
(0.636259 0.704143 0.188981)
(0.624697 0.758211 0.223891)
(0.59216 0.805769 0.227229)
(0.63338 0.763293 0.23988)
(0.562937 0.591672 0.244308)
(0.591838 0.597397 0.245696)
(0.597743 0.62939 0.29696)
(0.473281 0.499988 0.202102)
(0.503297 0.511023 0.194846)
(0.486145 0.510367 0.196706)
(0.605451 0.633242 0.28641)
(0.554487 0.555576 0.210454)
(0.46438 0.489292 0.165336)
(0.409968 0.452903 0.15286)
(0.529731 0.530191 0.187338)
(0.589514 0.596965 0.212084)
(0.482165 0.489062 0.165431)
(0.56283 0.846691 0.20837)
(0.577336 0.82494 0.220896)
(0.577649 0.809024 0.209602)
(0.55411 0.819657 0.254322)
(0.553617 0.851527 0.190254)
(0.560342 0.848707 0.167766)
(0.547409 0.869297 0.196951)
(0.561841 0.860209 0.190056)
(0.540554 0.854469 0.259544)
(0.541386 0.830921 0.27099)
(0.58885 0.801082 0.204055)
(0.553956 0.811833 0.272791)
(0.526545 0.855052 0.21078)
(0.569117 0.84024 0.178595)
(0.520282 0.880556 0.251997)
(0.516292 0.861026 0.272602)
(0.538863 0.857056 0.235776)
(0.564332 0.836037 0.176011)
(0.514352 0.868045 0.250599)
(0.694527 0.647534 0.212179)
(0.69189 0.694294 0.146511)
(0.710446 0.656491 0.201331)
(0.673753 0.614864 0.247579)
(0.701126 0.721828 0.120357)
(0.696519 0.718133 0.145022)
(0.712046 0.709299 0.113242)
(0.685089 0.693604 0.165035)
(0.647323 0.627156 0.215623)
(0.684667 0.714644 0.132434)
(0.692146 0.670165 0.150584)
(0.665406 0.667433 0.178498)
(0.682642 0.686762 0.147944)
(0.576199 0.845762 0.0958671)
(0.549822 0.862894 0.106898)
(0.551096 0.846344 0.110267)
(0.584286 0.847752 0.0993593)
(0.503295 0.823383 0.124951)
(0.5376 0.873858 0.10174)
(0.514166 0.870546 0.108276)
(0.505473 0.855664 0.140826)
(0.535145 0.858821 0.134978)
(0.503642 0.880277 0.156984)
(0.57016 0.832759 0.124237)
(0.507848 0.886094 0.124167)
(0.565867 0.860333 0.125043)
(0.517923 0.866544 0.164397)
(0.549809 0.847612 0.154068)
(0.494939 0.88341 0.139542)
(0.512253 0.888847 0.15287)
(0.616625 0.534535 0.364766)
(0.654517 0.587806 0.477791)
(0.676538 0.573211 0.412447)
(0.646972 0.603805 0.366549)
(0.67942 0.572087 0.416816)
(0.637717 0.570679 0.392466)
(0.603869 0.551128 0.400861)
(0.657679 0.592174 0.474466)
(0.659224 0.569313 0.456131)
(0.649219 0.541103 0.429305)
(0.673932 0.583755 0.430953)
(0.688598 0.588845 0.484176)
(0.651982 0.562411 0.449444)
(0.684048 0.556748 0.479111)
(0.676582 0.572859 0.430868)
(0.441042 0.460354 0.25205)
(0.451296 0.451507 0.274021)
(0.49569 0.599624 0.272282)
(0.508077 0.651696 0.209101)
(0.503907 0.630401 0.210077)
(0.511428 0.605351 0.248446)
(0.451983 0.540442 0.184739)
(0.391734 0.385948 0.184122)
(0.425766 0.426113 0.229035)
(0.420706 0.458727 0.275155)
(0.534501 0.646154 0.255123)
(0.512607 0.685992 0.202314)
(0.507875 0.632892 0.201281)
(0.515031 0.676923 0.176934)
(0.469936 0.56636 0.169029)
(0.488451 0.580135 0.263861)
(0.437992 0.92366 0.235994)
(0.452411 0.912046 0.231598)
(0.438617 0.917018 0.224924)
(0.4469 0.921203 0.199189)
(0.436314 0.93754 0.15221)
(0.438325 0.929915 0.14749)
(0.426693 0.925422 0.116469)
(0.436996 0.92834 0.129824)
(0.422468 0.919275 0.127783)
(0.494872 0.86123 0.145548)
(0.502064 0.865941 0.136245)
(0.54479 0.873666 0.0845002)
(0.480938 0.871087 0.153751)
(0.489063 0.871002 0.132677)
(0.489629 0.902137 0.0948045)
(0.497631 0.899619 0.0960411)
(0.522383 0.88473 0.0544983)
(0.460418 0.908875 0.114008)
(0.453881 0.915113 0.107057)
(0.54537 0.674763 0.293762)
(0.499551 0.616726 0.27792)
(0.509922 0.642027 0.279712)
(0.51453 0.638808 0.282177)
(0.547476 0.683738 0.288619)
(0.540358 0.676417 0.286116)
(0.578968 0.703978 0.300807)
(0.583164 0.690888 0.289023)
(0.568959 0.704607 0.304545)
(0.580685 0.698185 0.293915)
(0.556169 0.714747 0.299021)
(0.552872 0.721113 0.30352)
(0.529518 0.672876 0.285362)
(0.564758 0.69548 0.297379)
(0.503803 0.639819 0.280085)
(0.558686 0.712782 0.281464)
(0.546951 0.703069 0.285664)
(0.534249 0.696317 0.292849)
(0.541703 0.706744 0.298019)
(0.497558 0.643855 0.263619)
(0.513285 0.658904 0.268541)
(0.526798 0.687814 0.290513)
(0.522177 0.668614 0.270658)
(0.521342 0.662888 0.275662)
(0.527611 0.683307 0.262254)
(0.474267 0.603912 0.227185)
(0.546783 0.706775 0.273029)
(0.51754 0.663628 0.263333)
(0.493252 0.630263 0.245327)
(0.532675 0.69365 0.286448)
(0.513105 0.659567 0.249579)
(0.536518 0.69909 0.286217)
(0.55799 0.744235 0.271227)
(0.517902 0.678437 0.255247)
(0.558256 0.740837 0.311662)
(0.566438 0.756055 0.32895)
(0.556235 0.742771 0.313042)
(0.559226 0.735494 0.301583)
(0.568184 0.756344 0.310466)
(0.574426 0.752242 0.345665)
(0.519449 0.678202 0.257464)
(0.532371 0.859101 0.263978)
(0.549866 0.857588 0.230094)
(0.511143 0.833056 0.23115)
(0.513331 0.828799 0.22671)
(0.513865 0.854701 0.261381)
(0.545267 0.853052 0.235775)
(0.514827 0.834654 0.216738)
(0.497404 0.794105 0.211136)
(0.512703 0.817118 0.215046)
(0.535917 0.827149 0.206592)
(0.522421 0.799673 0.198861)
(0.493751 0.805696 0.201891)
(0.549944 0.848256 0.187109)
(0.517441 0.795473 0.178821)
(0.558069 0.855574 0.192)
(0.492597 0.894937 0.0994343)
(0.60617 0.804489 0.105386)
(0.634115 0.785532 0.090442)
(0.619023 0.794305 0.101043)
(0.588296 0.842373 0.0417661)
(0.604566 0.832893 0.039313)
(0.596931 0.817162 0.0692794)
(0.624409 0.833824 0.0374223)
(0.570627 0.858957 0.0539962)
(0.570289 0.70811 0.325291)
(0.568509 0.70954 0.329095)
(0.571872 0.70071 0.326789)
(0.566445 0.666576 0.311318)
(0.558652 0.660593 0.312126)
(0.569376 0.715524 0.380581)
(0.565097 0.712815 0.397157)
(0.573909 0.71088 0.42067)
(0.576123 0.697269 0.359661)
(0.579102 0.680517 0.337716)
(0.556006 0.649984 0.31789)
(0.549693 0.646804 0.341466)
(0.572009 0.707743 0.390526)
(0.578785 0.708955 0.428504)
(0.582779 0.686371 0.361694)
(0.573833 0.671493 0.388552)
(0.586223 0.699342 0.420993)
(0.58895 0.686556 0.395426)
(0.394795 0.622604 0.269812)
(0.416793 0.627237 0.284415)
(0.464634 0.711036 0.313424)
(0.477457 0.702821 0.335666)
(0.482302 0.707263 0.325862)
(0.47298 0.68926 0.30366)
(0.400128 0.612891 0.271028)
(0.365664 0.585699 0.250463)
(0.416675 0.659011 0.287681)
(0.44083 0.65797 0.301685)
(0.45587 0.690652 0.304912)
(0.451642 0.721071 0.290349)
(0.447691 0.672421 0.299486)
(0.445275 0.677654 0.292146)
(0.392953 0.644475 0.252708)
(0.359778 0.588944 0.239259)
(0.400014 0.653741 0.259561)
(0.426487 0.687352 0.269056)
(0.593261 0.639124 0.358109)
(0.591813 0.650405 0.357173)
(0.650973 0.589551 0.458114)
(0.625854 0.590948 0.419056)
(0.594362 0.665213 0.337334)
(0.648792 0.602495 0.42916)
(0.649076 0.602821 0.451517)
(0.622095 0.622946 0.411143)
(0.668332 0.596418 0.472466)
(0.634544 0.592788 0.427073)
(0.61663 0.591879 0.389068)
(0.64358 0.603742 0.350108)
(0.64621 0.592573 0.418186)
(0.636697 0.612112 0.380067)
(0.648326 0.593504 0.453989)
(0.657177 0.581785 0.464002)
(0.624216 0.651165 0.445467)
(0.62847 0.664456 0.456807)
(0.626008 0.629352 0.417395)
(0.619352 0.670277 0.424174)
(0.640518 0.605848 0.449233)
(0.618055 0.636887 0.421019)
(0.591793 0.652216 0.385008)
(0.631405 0.623896 0.358291)
(0.613622 0.649291 0.469862)
(0.629329 0.619118 0.444281)
(0.630108 0.627259 0.443984)
(0.592513 0.685502 0.429954)
(0.589689 0.679973 0.419046)
(0.611737 0.643838 0.379627)
(0.585013 0.650073 0.382436)
(0.632772 0.61736 0.413461)
(0.644326 0.605438 0.403786)
(0.135136 0.312588 0.0750702)
(0.134048 0.321895 0.0917284)
(0.191693 0.328714 0.0831523)
(0.229624 0.341772 0.0990154)
(0.326168 0.432042 0.154278)
(0.358978 0.452498 0.163726)
(0.126884 0.34707 0.112096)
(0.13174 0.33353 0.0893669)
(0.202098 0.408312 0.131959)
(0.246454 0.44107 0.165491)
(0.234768 0.42935 0.154274)
(0.260717 0.398711 0.117836)
(0.346814 0.441197 0.159533)
(0.28298 0.392635 0.134465)
(0.1984 0.42015 0.144908)
(0.17288 0.406244 0.128661)
(0.167567 0.387168 0.122419)
(0.168443 0.39979 0.135214)
(0.210954 0.431377 0.152415)
(0.297656 0.426876 0.14969)
(0.252323 0.44853 0.161076)
(0.468652 0.578411 0.213804)
(0.489302 0.600141 0.22058)
(0.578769 0.555503 0.168178)
(0.534347 0.540322 0.169824)
(0.534279 0.619299 0.210708)
(0.496944 0.591385 0.215583)
(0.602763 0.584559 0.154268)
(0.528453 0.621655 0.217561)
(0.505791 0.607381 0.21339)
(0.481527 0.590673 0.217894)
(0.541465 0.574109 0.182501)
(0.575301 0.600103 0.176247)
(0.609716 0.624871 0.159904)
(0.535117 0.627378 0.214297)
(0.475854 0.612518 0.240963)
(0.464477 0.589967 0.229692)
(0.419661 0.523442 0.19738)
(0.434157 0.531461 0.207435)
(0.479983 0.623522 0.252233)
(0.425103 0.508532 0.198757)
(0.529357 0.698792 0.295236)
(0.525034 0.69422 0.284918)
(0.466449 0.597534 0.262897)
(0.49911 0.655332 0.291828)
(0.440339 0.5554 0.219407)
(0.401011 0.520056 0.187536)
(0.402599 0.501586 0.17967)
(0.501209 0.643873 0.279647)
(0.441097 0.543737 0.229055)
(0.346324 0.407862 0.145478)
(0.378218 0.919215 0.227601)
(0.355511 0.857321 0.210533)
(0.377937 0.903921 0.169338)
(0.357417 0.838553 0.186121)
(0.3727 0.897449 0.240136)
(0.371105 0.883267 0.223517)
(0.388485 0.925472 0.210248)
(0.391996 0.917974 0.189122)
(0.382318 0.892804 0.188605)
(0.377367 0.88396 0.25687)
(0.385069 0.899566 0.241566)
(0.404753 0.912996 0.242624)
(0.400922 0.903064 0.263182)
(0.406658 0.908069 0.261336)
(0.411265 0.913897 0.22346)
(0.415917 0.636768 0.305795)
(0.442548 0.663401 0.318931)
(0.494179 0.652191 0.345371)
(0.492005 0.680436 0.347841)
(0.419659 0.637895 0.301188)
(0.376961 0.587262 0.276641)
(0.445037 0.6348 0.316597)
(0.436846 0.614087 0.313632)
(0.427415 0.589658 0.302959)
(0.489173 0.609631 0.334131)
(0.490897 0.655591 0.342919)
(0.405462 0.620734 0.301921)
(0.385126 0.568646 0.2815)
(0.447575 0.599848 0.309363)
(0.404637 0.591955 0.291694)
(-0.00281439 -0.0255268 -0.0226369)
(0.0190303 0.0104388 -0.0428036)
(0.180673 0.134101 -0.0119194)
(0.0176362 -0.00375839 -0.0134394)
(-0.0119838 -0.0193621 -0.0191228)
(-0.0166956 -0.0195672 -0.0235796)
(0.104374 0.0856783 -0.000398346)
(0.17287 0.138855 -0.00826024)
(0.199046 0.156117 -0.0088521)
(0.0966374 0.0375228 -0.0389159)
(-0.00147108 0.0257715 -0.036324)
(-0.019407 -0.00830549 -0.0266987)
(0.110301 0.0620568 -0.0344895)
(0.00133353 -0.00171469 -0.0219007)
(-0.00962671 0.00314698 -0.0272465)
(-0.0139091 0.00203107 -0.0260687)
(0.0989028 0.106362 -0.00415578)
(0.10133 0.102176 -0.0246297)
(0.0182137 0.0351181 -0.0295061)
(0.00468602 0.027877 -0.0240038)
(0.033237 0.0570308 -0.0370008)
(0.390793 0.702051 0.321002)
(0.348259 0.765377 0.322835)
(0.334033 0.841843 0.297313)
(0.358482 0.737607 0.328434)
(0.327503 0.749417 0.320305)
(0.435344 0.691326 0.319158)
(0.333259 0.81274 0.301353)
(0.340681 0.838839 0.315081)
(0.314583 0.7822 0.297553)
(0.390594 0.72114 0.337369)
(0.442481 0.696583 0.327329)
(0.437009 0.760822 0.334137)
(0.356124 0.764184 0.327162)
(0.551672 0.628372 0.298724)
(0.592757 0.613515 0.286952)
(0.579089 0.594195 0.3082)
(0.578487 0.60513 0.361557)
(0.509928 0.674759 0.347619)
(0.516601 0.634092 0.324747)
(0.64491 0.613559 0.296143)
(0.61823 0.568398 0.358757)
(0.64811 0.566701 0.338736)
(0.588291 0.634204 0.39172)
(0.617997 0.592985 0.382585)
(0.490064 0.641965 0.326447)
(0.503856 0.649811 0.321215)
(0.525111 0.679761 0.363249)
(0.632054 0.601469 0.357576)
(0.517215 0.704388 0.382061)
(0.499677 0.70811 0.366163)
(0.552335 0.632347 0.335216)
(0.60957 0.615579 0.317159)
(0.489813 0.648226 0.326402)
(0.495809 0.682115 0.359208)
(0.483528 0.66927 0.3369)
(0.554718 0.629592 0.367374)
(0.6215 0.597393 0.364638)
(0.539411 0.74794 0.42614)
(0.543674 0.758489 0.421417)
(0.546605 0.753595 0.438279)
(0.535439 0.790246 0.397118)
(0.553927 0.751253 0.432279)
(0.567117 0.745397 0.440872)
(0.530913 0.775986 0.391411)
(0.532677 0.799565 0.378616)
(0.543722 0.760144 0.420445)
(0.543808 0.790296 0.399547)
(0.562721 0.743865 0.445344)
(0.567943 0.750703 0.444848)
(0.523622 0.812882 0.370711)
(0.558838 0.756956 0.415543)
(0.56498 0.770675 0.344887)
(0.597011 0.749666 0.348617)
(0.573514 0.774431 0.325609)
(0.54219 0.806313 0.341231)
(0.534727 0.802942 0.393359)
(0.54024 0.789982 0.422251)
(0.565025 0.781619 0.344411)
(0.537684 0.790795 0.377851)
(0.354376 0.954251 0.110951)
(0.338515 0.954568 0.0925582)
(0.341881 0.94101 0.0975219)
(0.337486 0.916243 0.0969449)
(0.366484 0.938641 0.153482)
(0.350068 0.940023 0.134908)
(0.340569 0.922715 0.0878027)
(0.342592 0.94537 0.0745221)
(0.329925 0.920922 0.148764)
(0.329649 0.92298 0.170689)
(0.302948 0.913103 0.138661)
(0.317253 0.932726 0.137125)
(0.315454 0.894687 0.1145)
(0.36253 0.926706 0.182012)
(0.310929 0.922161 0.110338)
(0.304533 0.891431 0.129369)
(0.519361 0.649022 0.289109)
(0.510916 0.636078 0.285114)
(0.520767 0.64326 0.297325)
(0.48409 0.609818 0.272307)
(0.469623 0.581944 0.260481)
(0.517988 0.63724 0.28438)
(0.540203 0.65273 0.305573)
(0.508556 0.638618 0.285061)
(0.530981 0.674175 0.300684)
(0.535584 0.672053 0.29794)
(0.547251 0.710761 0.321858)
(0.544622 0.710759 0.319414)
(0.543608 0.688917 0.313929)
(0.543138 0.698481 0.310313)
(0.547701 0.708562 0.313763)
(0.545718 0.658917 0.308662)
(0.521436 0.654741 0.299608)
(0.567187 0.722961 0.363518)
(0.559689 0.728826 0.36293)
(0.573802 0.727154 0.349565)
(0.574297 0.701701 0.338656)
(0.568124 0.696299 0.341632)
(0.643077 0.553866 0.216496)
(0.506662 0.543861 0.205881)
(0.595476 0.547074 0.224464)
(0.516168 0.566432 0.201247)
(0.43785 0.520381 0.188698)
(0.519697 0.541035 0.213035)
(0.411509 0.450318 0.155692)
(0.401515 0.431435 0.168167)
(0.532792 0.519685 0.199353)
(0.621275 0.552254 0.211713)
(0.394829 0.470906 0.174148)
(0.684476 0.564306 0.218795)
(0.636331 0.546886 0.216709)
(0.437633 0.477703 0.172666)
(0.394067 0.498842 0.190025)
(0.393661 0.465259 0.177467)
(0.610394 0.547438 0.20359)
(0.494579 0.500406 0.194757)
(0.549393 0.508431 0.191926)
(0.645179 0.634942 0.414537)
(0.687073 0.517821 0.473384)
(0.717809 0.591744 0.338651)
(0.665497 0.675685 0.317943)
(0.672538 0.559608 0.407687)
(0.69379 0.508784 0.484619)
(0.656034 0.671024 0.392466)
(0.668825 0.617473 0.431376)
(0.696036 0.602186 0.384053)
(0.671761 0.615012 0.380427)
(0.697791 0.625313 0.345433)
(0.667682 0.516122 0.448127)
(0.671224 0.521676 0.38809)
(0.408021 0.417462 0.0973172)
(0.266597 0.279475 0.0592967)
(0.239348 0.263731 0.0481488)
(0.516532 0.542389 0.135526)
(0.427708 0.426517 0.107674)
(0.092771 0.0460702 -0.0446009)
(0.0508777 0.0313074 -0.0421266)
(0.165395 0.195434 0.0256971)
(0.115803 0.17365 0.010042)
(0.0540622 0.0697363 -0.0383505)
(0.101501 0.0555797 -0.012567)
(0.0657228 0.0679223 -0.0239683)
(0.31734 0.375463 0.151683)
(0.294512 0.332311 0.149057)
(0.339261 0.390416 0.174714)
(0.338673 0.376925 0.164957)
(0.36745 0.404285 0.187574)
(0.401153 0.459846 0.217031)
(0.424843 0.491246 0.230811)
(0.461231 0.529325 0.230461)
(0.432581 0.504838 0.220292)
(0.385251 0.444175 0.18548)
(0.422833 0.489466 0.229354)
(0.444737 0.512279 0.226796)
(0.531299 0.619427 0.277669)
(0.466379 0.557314 0.250585)
(0.534445 0.638396 0.290975)
(0.500795 0.576916 0.260367)
(0.508693 0.609464 0.271932)
(0.492524 0.593401 0.267969)
(0.575357 0.740892 0.415314)
(0.61701 0.720044 0.390424)
(0.61886 0.720655 0.3748)
(0.58147 0.736414 0.414571)
(0.566508 0.726488 0.428698)
(0.607478 0.728545 0.410376)
(0.591639 0.72642 0.436902)
(0.619104 0.720715 0.410152)
(0.619997 0.70704 0.402803)
(0.57716 0.72695 0.439111)
(0.584222 0.72545 0.44179)
(0.548275 0.686474 0.370592)
(0.531031 0.699459 0.396343)
(0.537174 0.675781 0.374269)
(0.540146 0.700386 0.391753)
(0.492932 0.643245 0.327613)
(0.502956 0.634786 0.322975)
(0.490913 0.643279 0.326282)
(0.552141 0.70728 0.383609)
(0.575407 0.710117 0.373161)
(0.539387 0.699527 0.379488)
(0.531854 0.703245 0.376117)
(0.535834 0.700297 0.372605)
(0.509575 0.630587 0.328971)
(0.541044 0.707728 0.388593)
(0.532197 0.697543 0.372433)
(0.496954 0.628229 0.31396)
(0.48324 0.606038 0.304464)
(0.539717 0.666223 0.329159)
(0.519929 0.659867 0.333047)
(0.539555 0.66324 0.33445)
(0.552295 0.706086 0.380535)
(0.52494 0.652745 0.32007)
(0.540203 0.700139 0.344255)
(0.547975 0.754734 0.404353)
(0.564903 0.771623 0.393911)
(0.543943 0.705031 0.350626)
(0.555096 0.729381 0.347893)
(0.534209 0.732214 0.376907)
(0.544081 0.732265 0.388894)
(0.548366 0.754974 0.387203)
(0.543766 0.752089 0.406205)
(0.528673 0.721724 0.383913)
(0.53052 0.723499 0.386161)
(0.515585 0.723183 0.361276)
(0.502469 0.73464 0.350521)
(0.461047 0.660991 0.301838)
(0.489162 0.719887 0.331828)
(0.433854 0.624312 0.280683)
(0.527652 0.706466 0.37993)
(0.482578 0.653623 0.321742)
(0.456783 0.631077 0.304578)
(0.475738 0.651059 0.318083)
(0.457507 0.63994 0.298212)
(0.464243 0.634812 0.311666)
(0.457165 0.614933 0.298121)
(0.536003 0.585603 0.154384)
(0.522672 0.555947 0.156085)
(0.602706 0.616511 0.146899)
(0.588147 0.593385 0.138844)
(0.607227 0.627388 0.137592)
(0.597015 0.608321 0.145049)
(0.557386 0.630706 0.182606)
(0.566194 0.608425 0.160722)
(0.492681 0.610996 0.202047)
(0.520899 0.62951 0.208334)
(0.596654 0.636561 0.15721)
(0.478083 0.586272 0.19675)
(0.505218 0.616537 0.206785)
(0.489856 0.517343 0.152199)
(0.580428 0.619274 0.159196)
(0.572231 0.578177 0.147443)
(0.501689 0.585246 0.175873)
(0.578514 0.6396 0.178084)
(0.535828 0.633365 0.204209)
(0.482154 0.549624 0.164391)
(0.494414 0.547019 0.15316)
(0.667588 0.747578 0.106312)
(0.623459 0.78868 0.10564)
(0.647073 0.768536 0.119534)
(0.668619 0.746584 0.124076)
(0.596278 0.74155 0.137396)
(0.601326 0.729797 0.140185)
(0.599397 0.714387 0.141796)
(0.55761 0.690639 0.138799)
(0.632676 0.782723 0.112586)
(0.673729 0.738206 0.108646)
(0.654567 0.737923 0.147492)
(0.62268 0.720176 0.164992)
(0.613313 0.76377 0.119519)
(0.654284 0.741636 0.156488)
(0.637391 0.727031 0.15915)
(0.596415 0.686843 0.167943)
(0.669113 0.735401 0.115997)
(0.657449 0.738126 0.134581)
(0.619212 0.762865 0.123575)
(0.57709 0.720731 0.120903)
(0.58743 0.711043 0.138807)
(0.576975 0.690272 0.311807)
(0.59933 0.669128 0.34795)
(0.622154 0.646962 0.366595)
(0.622714 0.653438 0.381457)
(0.601953 0.656745 0.385718)
(0.616656 0.68231 0.310415)
(0.626128 0.675227 0.303145)
(0.613283 0.667023 0.352437)
(0.616753 0.651465 0.357725)
(0.606135 0.687002 0.313464)
(0.596917 0.671529 0.363844)
(0.601169 0.6776 0.297582)
(0.539473 0.701337 0.280266)
(0.553771 0.722473 0.300514)
(0.550876 0.700809 0.276653)
(0.493034 0.682543 0.350199)
(0.502726 0.65675 0.3466)
(0.423018 0.667226 0.317991)
(0.396482 0.62586 0.295627)
(0.445876 0.640168 0.319324)
(0.392003 0.563745 0.280523)
(0.402371 0.601101 0.286992)
(0.54615 0.633269 0.349618)
(0.545864 0.633665 0.343068)
(0.501095 0.679327 0.35333)
(0.462056 0.621336 0.323061)
(0.436914 0.624389 0.311783)
(0.448474 0.662737 0.328599)
(0.559406 0.796033 0.375691)
(0.590586 0.76727 0.334163)
(0.625814 0.755505 0.249965)
(0.635293 0.729354 0.221869)
(0.592036 0.767605 0.319359)
(0.581834 0.787654 0.32654)
(0.591344 0.783463 0.33)
(0.650142 0.718942 0.263348)
(0.579741 0.787265 0.337948)
(0.557771 0.82353 0.316146)
(0.562926 0.802227 0.348095)
(0.559818 0.82238 0.330073)
(0.632297 0.713233 0.247906)
(0.631313 0.683495 0.255351)
(0.531907 0.621558 0.273892)
(0.50221 0.601936 0.266359)
(0.625811 0.702314 0.261473)
(0.620676 0.687346 0.259171)
(0.570212 0.639157 0.273773)
(0.571172 0.656813 0.264008)
(0.535857 0.633274 0.267065)
(0.662885 0.665058 0.294474)
(0.650732 0.676142 0.288893)
(0.54365 0.62285 0.278)
(0.546772 0.618594 0.269879)
(0.571233 0.668586 0.271145)
(0.628564 0.637819 0.286827)
(0.634872 0.655907 0.308892)
(0.618954 0.641217 0.305091)
(0.574501 0.621295 0.299335)
(0.608144 0.645771 0.29375)
(0.541028 0.633263 0.271204)
(0.618359 0.706035 0.260314)
(0.657905 0.678733 0.295355)
(0.642956 0.70184 0.274842)
(0.719874 0.734457 0.0659103)
(0.693983 0.721672 0.127687)
(0.717968 0.750124 0.0633006)
(0.698338 0.764745 0.0655341)
(0.698987 0.734477 0.099135)
(0.673594 0.735651 0.130441)
(0.67943 0.730675 0.131843)
(0.706719 0.764789 0.0474446)
(0.712929 0.751801 0.0602751)
(0.687332 0.753959 0.0959464)
(0.668344 0.78296 0.0705202)
(0.671502 0.767705 0.0957585)
(0.648194 0.726102 0.13144)
(0.65671 0.767614 0.0973598)
(0.646747 0.746453 0.104441)
(0.675921 0.764868 0.0802912)
(0.532807 0.726312 0.399418)
(0.537824 0.742626 0.415343)
(0.523129 0.758339 0.390874)
(0.520976 0.772432 0.385577)
(0.526404 0.716197 0.382411)
(0.531911 0.686135 0.369884)
(0.492554 0.761868 0.350558)
(0.523229 0.754797 0.380104)
(0.496438 0.736092 0.342892)
(0.496826 0.717334 0.350614)
(0.495387 0.742937 0.338991)
(0.468625 0.68625 0.319855)
(0.487497 0.704667 0.340322)
(0.461744 0.702979 0.318944)
(0.48269 0.684422 0.335512)
(0.452407 0.656523 0.309137)
(0.513321 0.603436 0.264483)
(0.48995 0.54673 0.288535)
(0.459466 0.563328 0.326318)
(0.494996 0.616388 0.289937)
(0.547656 0.717468 0.274235)
(0.504447 0.676234 0.311247)
(0.548126 0.71428 0.250591)
(0.534939 0.703632 0.265783)
(0.551145 0.738849 0.235927)
(0.555016 0.725441 0.24634)
(0.53484 0.719215 0.272756)
(0.531893 0.630811 0.273783)
(0.479513 0.572003 0.262686)
(0.535232 0.639877 0.270893)
(0.557338 0.668186 0.27801)
(0.578364 0.646661 0.279485)
(0.518937 0.604738 0.269214)
(0.476375 0.57776 0.262874)
(0.583687 0.666573 0.267026)
(0.496666 0.586612 0.265616)
(0.607701 0.65477 0.293924)
(0.542156 0.636565 0.27247)
(0.593373 0.646019 0.292405)
(0.801487 0.610183 0.146889)
(0.685603 0.580039 0.133096)
(0.851212 0.599222 0.15716)
(0.805288 0.585701 0.128459)
(0.684409 0.544312 0.142563)
(0.514378 0.514934 0.154134)
(0.629709 0.582369 0.154929)
(0.911188 0.618727 0.130764)
(0.742492 0.540612 0.123481)
(0.578114 0.485325 0.0828408)
(0.496888 0.616847 0.218011)
(0.536037 0.737258 0.218147)
(0.557577 0.77926 0.195786)
(0.539672 0.739434 0.226945)
(0.573616 0.81269 0.191074)
(0.5626 0.784359 0.188403)
(0.470785 0.591398 0.179676)
(0.530138 0.716827 0.223245)
(0.527103 0.719585 0.189211)
(0.546604 0.770345 0.205993)
(0.539438 0.742006 0.209811)
(0.552163 0.77595 0.207956)
(0.677624 0.633058 0.269218)
(0.674669 0.640543 0.242207)
(0.649535 0.67829 0.219938)
(0.666871 0.658485 0.253657)
(0.618672 0.643823 0.25649)
(0.638953 0.645799 0.271701)
(0.616394 0.637787 0.283984)
(0.537205 0.630943 0.261705)
(0.510733 0.6323 0.281415)
(0.495386 0.631968 0.296457)
(0.477967 0.621778 0.286104)
(0.534976 0.630693 0.277703)
(0.547115 0.631465 0.264844)
(0.514774 0.625004 0.257527)
(0.569321 0.648598 0.249491)
(0.474387 0.629244 0.282581)
(0.452033 0.607464 0.269125)
(0.54169 0.634623 0.2599)
(0.47082 0.601098 0.268742)
(0.505312 0.430236 0.0941773)
(0.646889 0.507937 0.105138)
(0.432193 0.391569 0.0719283)
(0.70451 0.555486 0.124499)
(0.597069 0.507987 0.118229)
(0.631849 0.654302 0.239055)
(0.656865 0.638179 0.158308)
(0.581539 0.686084 0.145793)
(0.545936 0.716951 0.0921592)
(0.589691 0.714214 0.153661)
(0.542516 0.774626 0.00972302)
(0.536458 0.783187 0.00215432)
(0.464614 0.874453 -0.0197076)
(0.442562 0.863378 0.0514487)
(0.42295 0.881981 0.0638362)
(0.429039 0.90131 0.0182746)
(0.447669 0.89619 -0.000333028)
(0.411241 0.889456 0.0740375)
(0.419446 0.924832 0.0451887)
(0.507046 0.817377 -0.010454)
(0.584307 0.733709 0.155502)
(0.561702 0.766466 0.174743)
(0.546708 0.74982 0.16965)
(0.48203 0.858063 0.0296153)
(0.505482 0.806392 0.192835)
(0.0535812 0.0201899 -0.00919277)
(0.053275 0.019744 0.00552184)
(0.113401 0.0888081 0.0256318)
(0.125422 0.110683 0.0312608)
(0.0132218 -0.0115209 -0.00369632)
(-0.0072582 -0.0324483 -0.0144063)
(0.112343 0.101862 0.00648967)
(0.0128395 -0.0276292 -0.0160269)
(-0.0190403 -0.0334321 -0.0195607)
(0.0168924 0.0119413 -0.0164055)
(-0.0123208 -0.0186374 -0.0237383)
(0.611198 0.818681 0.118247)
(0.599766 0.817675 0.109555)
(0.595316 0.822555 0.10584)
(0.528093 0.800684 0.123468)
(0.507017 0.751675 0.112154)
(0.50695 0.735413 0.101288)
(0.545535 0.800075 0.117255)
(0.552955 0.826758 0.131673)
(0.546499 0.834846 0.136157)
(0.521652 0.771989 0.116836)
(0.527158 0.796459 0.123802)
(0.582166 0.798584 0.112824)
(0.579111 0.784694 0.123474)
(0.533935 0.732037 0.109762)
(0.749953 0.712877 -0.0520744)
(0.742964 0.711084 -0.0920043)
(0.701952 0.74755 -0.117778)
(0.494972 0.612633 0.2179)
(0.508278 0.60278 0.217027)
(0.448367 0.593264 0.223104)
(0.365641 0.913106 0.031901)
(0.346142 0.91956 0.0344923)
(0.338255 0.925933 0.0601158)
(-0.0218255 -0.0214335 -0.0235476)
(-0.0261512 -0.0195713 -0.0259524)
(0.597974 0.629511 0.215846)
(0.604747 0.59579 0.191756)
(0.348039 0.84826 0.269325)
(0.332044 0.84741 0.278648)
(0.342361 0.871208 0.265075)
(0.182638 0.0976187 0.0631844)
(0.140539 0.0663844 0.0509519)
(0.672029 0.809184 -0.0658062)
(0.703052 0.779626 -0.0603355)
(0.697792 0.785345 -0.0410916)
(0.11027 0.30605 0.0565164)
(0.0710429 0.221168 0.0192382)
(0.0925557 0.274585 0.0408585)
(0.54708 0.703903 0.23835)
(0.566154 0.72685 0.23156)
(0.545429 0.709289 0.252536)
(0.575914 0.756882 0.242232)
(0.335925 0.868941 0.237119)
(0.33365 0.840481 0.23587)
(0.350855 0.859756 0.268992)
(0.354636 0.885358 0.266661)
(0.398383 0.64784 0.304954)
(0.38861 0.67985 0.306541)
(0.707106 0.685493 0.142501)
(0.691731 0.691717 0.123812)
(0.4909 0.630605 0.296382)
(0.474867 0.56209 0.296169)
(0.481199 0.547906 0.275732)
(0.489982 0.598459 0.292798)
(0.430541 0.910291 0.0556057)
(0.406067 0.89849 0.0829212)
(0.43548 0.859303 0.0618551)
(0.0399855 0.199123 0.0217153)
(0.0802979 0.268022 0.0548425)
(0.363794 0.78678 0.291269)
(0.379494 0.816149 0.297237)
(0.365672 0.795912 0.275072)
(0.54533 0.676542 0.258227)
(0.514657 0.640097 0.257726)
(0.514941 0.655456 0.275774)
(0.641375 0.813208 0.0170125)
(0.685084 0.781957 0.0503564)
(0.654554 0.791571 0.0457953)
(0.420898 0.625206 0.298682)
(0.439626 0.604049 0.287564)
(0.362899 0.842781 0.16429)
(0.372939 0.84733 0.158178)