/*--------------------------------*- C++ -*----------------------------------*\
| =========                 |                                                 |
| \\      /  F ield         | OpenFOAM: The Open Source CFD Toolbox           |
|  \\    /   O peration     | Version:  v1612+                                |
|   \\  /    A nd           | Web:      www.OpenFOAM.com                      |
|    \\/     M anipulation  |                                                 |
\*---------------------------------------------------------------------------*/
FoamFile
{
    version     2.0;
    format      ascii;
    class       volVectorField;
    location    "206";
    object      U;
}
// * * * * * * * * * * * * * * * * * * * * * * * * * * * * * * * * * * * * * //

dimensions      [0 1 -1 0 0 0 0];

internalField   nonuniform List<vector> 
18912
(
(0.353237 0.515291 -0.165805)
(0.333988 0.475997 -0.155714)
(0.40473 0.616484 -0.210299)
(0.559649 0.798988 -0.267798)
(0.590937 0.8303 -0.286463)
(0.519902 0.750234 -0.248733)
(0.526113 0.762253 -0.255815)
(0.576255 0.824215 -0.283254)
(0.6047 0.857219 -0.293597)
(0.581728 0.830124 -0.281765)
(0.611264 0.876348 -0.299333)
(0.565858 0.812725 -0.272982)
(0.588825 0.851407 -0.289653)
(0.589955 0.83447 -0.284574)
(0.6149 0.872308 -0.299503)
(0.518198 0.74247 -0.247778)
(0.519301 0.741065 -0.247157)
(0.568382 0.813879 -0.278925)
(0.549234 0.782572 -0.261015)
(0.587956 0.835835 -0.284512)
(0.577718 0.870618 -0.257609)
(0.574772 0.874748 -0.259657)
(0.578557 0.866459 -0.255547)
(0.574625 0.863663 -0.259633)
(0.575022 0.861004 -0.24443)
(0.563509 0.855704 -0.242218)
(0.569234 0.875934 -0.261089)
(0.57185 0.865961 -0.252813)
(0.565203 0.857657 -0.250466)
(0.546509 0.84307 -0.246132)
(0.563563 0.861455 -0.260498)
(0.567545 0.861054 -0.24084)
(0.554116 0.834473 -0.233629)
(0.554415 0.831455 -0.233558)
(0.575678 0.86757 -0.257772)
(0.552064 0.841045 -0.240659)
(0.559098 0.8472 -0.238027)
(0.567097 0.855193 -0.250256)
(0.480413 0.705838 -0.237452)
(0.504852 0.733525 -0.244704)
(0.463277 0.685634 -0.230645)
(0.538542 0.790377 -0.263161)
(0.539107 0.791274 -0.26681)
(0.486567 0.718845 -0.234803)
(0.464346 0.677326 -0.234323)
(0.473201 0.695034 -0.234248)
(0.515815 0.750226 -0.25325)
(0.493388 0.726102 -0.248)
(0.456739 0.674021 -0.229082)
(0.50155 0.742556 -0.251758)
(0.51141 0.753136 -0.257308)
(0.528627 0.775914 -0.261831)
(0.545664 0.799872 -0.27406)
(0.541044 0.796984 -0.269716)
(0.547281 0.808811 -0.271581)
(0.459128 0.672927 -0.231836)
(0.379101 0.577266 -0.203134)
(0.346051 0.52057 -0.183587)
(0.418227 0.648639 -0.219513)
(0.380928 0.579 -0.203654)
(0.399019 0.604473 -0.219282)
(0.382653 0.576376 -0.209999)
(0.426905 0.654546 -0.227058)
(0.346797 0.536952 -0.194271)
(0.375163 0.582654 -0.206372)
(0.344597 0.528086 -0.185466)
(0.309336 0.47848 -0.173839)
(0.420582 0.642481 -0.222859)
(0.428928 0.657956 -0.230586)
(0.301688 0.441683 -0.141423)
(0.274276 0.399902 -0.136459)
(0.26426 0.399031 -0.132093)
(0.327066 0.478778 -0.156005)
(0.291804 0.432233 -0.145355)
(0.303004 0.451137 -0.146477)
(0.332916 0.479101 -0.15532)
(0.404729 0.587957 -0.190828)
(0.396439 0.576827 -0.186895)
(0.392788 0.565892 -0.191786)
(0.390608 0.572769 -0.190414)
(0.392767 0.572647 -0.188224)
(0.383754 0.563214 -0.181525)
(0.340539 0.496979 -0.162996)
(0.32564 0.46857 -0.157757)
(0.315441 0.456898 -0.146173)
(0.299642 0.44138 -0.142295)
(0.335018 0.477954 -0.160445)
(0.331484 0.482176 -0.15794)
(0.319843 0.471094 -0.156797)
(0.477997 0.713246 -0.203166)
(0.468192 0.700747 -0.202815)
(0.493059 0.738444 -0.206146)
(0.485009 0.731356 -0.210536)
(0.49617 0.747626 -0.212437)
(0.488412 0.720472 -0.206936)
(0.436976 0.646861 -0.18456)
(0.467438 0.679605 -0.194181)
(0.456302 0.667328 -0.189121)
(0.500221 0.751328 -0.210805)
(0.481654 0.699839 -0.196157)
(0.45791 0.664127 -0.188345)
(0.442096 0.64314 -0.182433)
(0.484718 0.698024 -0.200675)
(0.47264 0.673344 -0.194346)
(0.530927 0.766842 -0.222264)
(0.521662 0.757399 -0.216151)
(0.430383 0.619782 -0.180152)
(0.471559 0.670599 -0.200088)
(0.528206 0.759491 -0.221185)
(0.520113 0.744073 -0.218131)
(0.501806 0.729077 -0.209856)
(0.478581 0.675393 -0.197515)
(0.488853 0.690665 -0.203587)
(0.387725 0.531929 -0.174219)
(0.339597 0.463057 -0.154152)
(0.38095 0.520193 -0.176332)
(0.41059 0.562659 -0.184535)
(0.46324 0.639651 -0.213084)
(0.463044 0.639952 -0.212623)
(0.411793 0.566312 -0.185026)
(0.432016 0.598335 -0.191753)
(0.47101 0.638385 -0.218468)
(0.405751 0.561265 -0.18587)
(0.370757 0.501463 -0.172541)
(0.333392 0.449617 -0.152009)
(0.379893 0.537054 -0.169202)
(0.376121 0.499554 -0.160322)
(0.337159 0.453915 -0.144001)
(0.373772 0.510779 -0.167248)
(0.357508 0.490487 -0.163838)
(0.402734 0.543147 -0.177262)
(0.366556 0.495831 -0.164466)
(0.32585 0.437893 -0.150267)
(0.355397 0.47656 -0.15659)
(0.455614 0.620406 -0.200448)
(0.402896 0.55644 -0.184592)
(0.593982 0.868099 -0.290017)
(0.581134 0.856864 -0.284226)
(0.556934 0.827473 -0.275005)
(0.524557 0.799871 -0.263543)
(0.606066 0.868026 -0.282138)
(0.584955 0.839059 -0.277668)
(0.592884 0.84569 -0.276546)
(0.556686 0.793632 -0.258779)
(0.589449 0.861601 -0.283952)
(0.59421 0.859213 -0.281874)
(0.541018 0.798697 -0.261393)
(0.526091 0.751046 -0.234225)
(0.521939 0.744449 -0.229423)
(0.548169 0.786458 -0.255848)
(0.585685 0.84904 -0.269888)
(0.532652 0.800207 -0.255592)
(0.529742 0.776827 -0.246982)
(0.522218 0.754578 -0.241707)
(0.564892 0.828052 -0.260014)
(0.518323 0.756743 -0.23643)
(0.512848 0.742059 -0.241182)
(0.476838 0.691264 -0.228089)
(0.519103 0.753179 -0.244058)
(0.538925 0.769588 -0.266261)
(0.522542 0.745628 -0.254947)
(0.502587 0.713282 -0.240125)
(0.507908 0.719128 -0.238593)
(0.491234 0.703067 -0.240563)
(0.499714 0.711326 -0.235112)
(0.564006 0.807084 -0.271967)
(0.548466 0.790067 -0.263631)
(0.523162 0.74852 -0.248146)
(0.523725 0.737275 -0.250884)
(0.626244 0.887823 -0.305365)
(0.605446 0.85722 -0.293321)
(0.608847 0.864837 -0.300367)
(0.536073 0.775891 -0.258786)
(0.617354 0.876162 -0.305295)
(0.523745 0.778377 -0.202772)
(0.517391 0.782034 -0.202024)
(0.555676 0.824515 -0.22593)
(0.563025 0.825239 -0.228903)
(0.50718 0.786309 -0.20162)
(0.534359 0.816014 -0.213845)
(0.524724 0.762648 -0.206984)
(0.518417 0.775259 -0.20924)
(0.558088 0.81556 -0.23382)
(0.53327 0.800997 -0.212002)
(0.550583 0.84045 -0.227969)
(0.5392 0.830812 -0.222678)
(0.528979 0.815099 -0.211669)
(0.53243 0.788379 -0.216049)
(0.555964 0.830121 -0.228448)
(0.532659 0.810234 -0.212443)
(0.401178 0.5734 -0.189271)
(0.408048 0.584767 -0.19044)
(0.35838 0.513858 -0.172722)
(0.34124 0.489347 -0.171051)
(0.405503 0.579811 -0.192819)
(0.400976 0.57696 -0.192461)
(0.355104 0.50018 -0.168654)
(0.302289 0.434315 -0.145867)
(0.332339 0.474447 -0.15488)
(0.357677 0.520947 -0.17446)
(0.350038 0.511452 -0.168738)
(0.328847 0.478762 -0.16207)
(0.335605 0.481202 -0.154505)
(0.342905 0.499797 -0.160392)
(0.326221 0.480001 -0.155505)
(0.30742 0.447335 -0.138225)
(0.596824 0.867895 -0.28696)
(0.579425 0.847642 -0.271297)
(0.595838 0.837973 -0.286324)
(0.587287 0.826914 -0.276389)
(0.616239 0.879464 -0.296635)
(0.607161 0.85746 -0.295776)
(0.601725 0.861163 -0.279294)
(0.598551 0.845421 -0.271697)
(0.592917 0.836523 -0.279819)
(0.622451 0.886409 -0.295937)
(0.60901 0.873326 -0.291019)
(0.60622 0.86823 -0.290033)
(0.579963 0.82692 -0.271231)
(0.600283 0.871501 -0.28509)
(0.557053 0.80233 -0.282754)
(0.537344 0.777009 -0.275269)
(0.563163 0.808869 -0.28688)
(0.570161 0.8189 -0.291455)
(0.58254 0.844824 -0.300673)
(0.615336 0.891665 -0.308395)
(0.559471 0.81401 -0.2944)
(0.571191 0.81703 -0.294651)
(0.616425 0.898583 -0.314531)
(0.598792 0.875747 -0.307042)
(0.569344 0.831711 -0.30277)
(0.567461 0.82324 -0.306993)
(0.551887 0.816402 -0.301401)
(0.579016 0.852414 -0.309549)
(0.558017 0.811619 -0.293239)
(0.580226 0.839585 -0.307514)
(0.586511 0.856999 -0.300977)
(0.580024 0.831331 -0.297831)
(0.590237 0.865588 -0.313946)
(0.570576 0.83819 -0.311012)
(0.570828 0.844926 -0.305509)
(0.587565 0.869311 -0.306911)
(0.583591 0.861429 -0.306141)
(0.56248 0.824185 -0.301478)
(0.604689 0.886816 -0.307206)
(0.601148 0.884946 -0.309425)
(0.597771 0.880538 -0.311611)
(0.497951 0.717186 -0.232856)
(0.523935 0.752531 -0.246395)
(0.503282 0.72628 -0.238652)
(0.537976 0.76111 -0.255889)
(0.470126 0.682077 -0.221637)
(0.488138 0.701914 -0.228975)
(0.527414 0.776469 -0.246781)
(0.497287 0.738156 -0.232018)
(0.494085 0.703239 -0.219057)
(0.498233 0.724064 -0.23862)
(0.504833 0.729221 -0.233624)
(0.558382 0.787642 -0.266459)
(0.520291 0.754392 -0.248191)
(0.532002 0.765684 -0.266759)
(0.540404 0.786504 -0.273571)
(0.518336 0.752303 -0.266195)
(0.512521 0.742762 -0.262786)
(0.477767 0.705525 -0.247098)
(0.436023 0.635379 -0.217174)
(0.487678 0.718633 -0.250976)
(0.446735 0.647093 -0.227602)
(0.546761 0.786848 -0.27761)
(0.498017 0.711291 -0.25246)
(0.450173 0.652683 -0.230225)
(0.399435 0.574367 -0.205081)
(0.415789 0.60055 -0.215942)
(0.462238 0.657638 -0.237624)
(0.476062 0.681432 -0.244833)
(0.398125 0.587085 -0.20427)
(0.394487 0.581947 -0.20372)
(0.454196 0.669142 -0.236874)
(0.406059 0.600182 -0.209035)
(0.397837 0.589244 -0.20816)
(0.456669 0.680289 -0.251213)
(0.526109 0.780828 -0.278963)
(0.534293 0.791247 -0.285621)
(0.503851 0.732092 -0.26714)
(0.52184 0.772169 -0.27645)
(0.493479 0.728897 -0.269317)
(0.440461 0.627826 -0.229781)
(0.421262 0.597467 -0.220893)
(0.473471 0.701575 -0.258749)
(0.52264 0.764949 -0.277004)
(0.49608 0.730736 -0.273929)
(0.385291 0.554587 -0.19978)
(0.378086 0.553559 -0.201311)
(0.470111 0.67997 -0.250192)
(0.506239 0.739315 -0.268197)
(0.429054 0.630333 -0.22161)
(0.54719 0.773987 -0.2709)
(0.558898 0.793164 -0.274403)
(0.45467 0.655364 -0.233993)
(0.441437 0.630256 -0.227331)
(0.480293 0.681728 -0.238051)
(0.463667 0.650529 -0.226318)
(0.549877 0.775188 -0.274346)
(0.498904 0.694881 -0.244999)
(0.51012 0.706344 -0.256058)
(0.434621 0.628713 -0.222373)
(0.438295 0.622107 -0.220889)
(0.50177 0.715481 -0.252736)
(0.554071 0.795101 -0.277482)
(0.565846 0.806036 -0.281203)
(0.517137 0.722744 -0.258875)
(0.487357 0.696275 -0.245812)
(0.507153 0.723661 -0.262462)
(0.481391 0.681772 -0.245245)
(0.450927 0.646649 -0.226901)
(0.497332 0.710224 -0.246674)
(0.490642 0.711384 -0.247873)
(0.530201 0.755274 -0.269078)
(0.469368 0.655145 -0.245161)
(0.483046 0.679821 -0.243715)
(0.493376 0.736461 -0.247447)
(0.482369 0.710693 -0.245481)
(0.463686 0.694152 -0.23335)
(0.453846 0.679812 -0.227711)
(0.451138 0.670704 -0.228312)
(0.507408 0.76126 -0.250003)
(0.49716 0.748683 -0.254021)
(0.51162 0.762201 -0.260894)
(0.486428 0.725936 -0.245662)
(0.510625 0.764731 -0.260969)
(0.530424 0.788986 -0.267155)
(0.481137 0.711856 -0.244908)
(0.486355 0.732699 -0.239557)
(0.467964 0.699289 -0.232437)
(0.509993 0.766058 -0.253637)
(0.51959 0.786154 -0.282015)
(0.51147 0.776201 -0.281764)
(0.468081 0.717662 -0.259896)
(0.452459 0.69982 -0.252808)
(0.528586 0.794846 -0.28284)
(0.523444 0.780983 -0.279777)
(0.47727 0.720642 -0.256816)
(0.446562 0.682915 -0.247804)
(0.471187 0.710456 -0.261291)
(0.445825 0.682793 -0.246721)
(0.444133 0.669385 -0.243758)
(0.470235 0.702247 -0.253701)
(0.466342 0.699737 -0.25513)
(0.433777 0.651008 -0.237186)
(0.455038 0.680664 -0.25239)
(0.471899 0.70081 -0.249416)
(0.494213 0.727159 -0.261059)
(0.467424 0.698533 -0.242683)
(0.502184 0.745262 -0.255374)
(0.511561 0.753746 -0.263418)
(0.469361 0.699084 -0.242911)
(0.488648 0.71862 -0.24261)
(0.462595 0.684204 -0.235155)
(0.501506 0.741883 -0.256032)
(0.517445 0.758815 -0.264222)
(0.520942 0.76283 -0.262141)
(0.495197 0.730123 -0.256577)
(0.560858 0.822697 -0.289718)
(0.563831 0.818933 -0.292135)
(0.56701 0.831278 -0.29299)
(0.564232 0.824408 -0.294463)
(0.547916 0.80221 -0.291007)
(0.514313 0.753685 -0.260799)
(0.499377 0.689829 -0.243027)
(0.515495 0.723599 -0.247052)
(0.613022 0.871122 -0.307271)
(0.618146 0.875339 -0.31025)
(0.53895 0.765997 -0.260533)
(0.503009 0.711927 -0.245586)
(0.596581 0.849495 -0.29888)
(0.596958 0.845682 -0.298291)
(0.589727 0.829511 -0.286667)
(0.608655 0.854697 -0.299905)
(0.537236 0.758022 -0.261926)
(0.555047 0.786886 -0.273364)
(0.587601 0.819582 -0.281694)
(0.541612 0.757611 -0.261872)
(0.337531 0.48962 -0.155703)
(0.321559 0.465123 -0.149415)
(0.289677 0.422629 -0.135991)
(0.393205 0.570395 -0.190935)
(0.329038 0.475019 -0.151777)
(0.311437 0.44814 -0.142595)
(0.34631 0.492289 -0.158087)
(0.386211 0.551549 -0.185673)
(0.330141 0.476801 -0.153)
(0.34613 0.497125 -0.158062)
(0.398877 0.576571 -0.188302)
(0.477625 0.669467 -0.22337)
(0.415588 0.590962 -0.194963)
(0.48583 0.697224 -0.228166)
(0.468589 0.66827 -0.229209)
(0.424577 0.604718 -0.196234)
(0.472684 0.662235 -0.222183)
(0.406636 0.580797 -0.184793)
(0.374248 0.540845 -0.177264)
(0.484843 0.694785 -0.229257)
(0.523489 0.736403 -0.247574)
(0.342612 0.487809 -0.15047)
(0.380007 0.554531 -0.174986)
(0.488853 0.689471 -0.225567)
(0.513911 0.73974 -0.239547)
(0.396754 0.546128 -0.173552)
(0.42137 0.596068 -0.193143)
(0.50756 0.716949 -0.242537)
(0.436035 0.617485 -0.201131)
(0.405239 0.583212 -0.18749)
(0.384042 0.541937 -0.170152)
(0.355737 0.497381 -0.156722)
(0.367683 0.517847 -0.164508)
(0.323771 0.468881 -0.148936)
(0.283487 0.411778 -0.135671)
(0.277231 0.403268 -0.13437)
(0.336322 0.482788 -0.155567)
(0.315884 0.45349 -0.149295)
(0.296645 0.436201 -0.149703)
(0.354643 0.51161 -0.167401)
(0.404443 0.582747 -0.195469)
(0.407139 0.593489 -0.188655)
(0.345833 0.494602 -0.160381)
(0.389607 0.563087 -0.189426)
(0.332297 0.473556 -0.155545)
(0.324976 0.470478 -0.152636)
(0.304887 0.439078 -0.140342)
(0.319601 0.464439 -0.155908)
(0.293723 0.429153 -0.147517)
(0.333162 0.477169 -0.157763)
(0.386771 0.560336 -0.189634)
(0.386285 0.545405 -0.175398)
(0.344715 0.511675 -0.168374)
(0.420161 0.599531 -0.203729)
(0.329426 0.477356 -0.154036)
(0.582393 0.843118 -0.312611)
(0.557352 0.804734 -0.29756)
(0.475915 0.684854 -0.247381)
(0.467015 0.672387 -0.235278)
(0.467724 0.683141 -0.250494)
(0.462447 0.680048 -0.253286)
(0.54083 0.790139 -0.286916)
(0.570386 0.828577 -0.303119)
(0.545501 0.796627 -0.289962)
(0.559252 0.815192 -0.295484)
(0.487404 0.71281 -0.25119)
(0.482765 0.705286 -0.249635)
(0.502137 0.72773 -0.263825)
(0.486807 0.705103 -0.25971)
(0.474496 0.67381 -0.256376)
(0.52955 0.764131 -0.273001)
(0.551604 0.793668 -0.28423)
(0.537499 0.782653 -0.291143)
(0.616841 0.895006 -0.31319)
(0.617769 0.902883 -0.31763)
(0.631619 0.916139 -0.322113)
(0.61621 0.896707 -0.318216)
(0.623586 0.900584 -0.319124)
(0.590894 0.86129 -0.303902)
(0.621088 0.89972 -0.324341)
(0.636129 0.918279 -0.328358)
(0.607384 0.879447 -0.317943)
(0.626377 0.904245 -0.324224)
(0.629722 0.90955 -0.323761)
(0.639328 0.92209 -0.330168)
(0.61456 0.887133 -0.322123)
(0.583776 0.851992 -0.30629)
(0.621632 0.907912 -0.325511)
(0.611649 0.89201 -0.320442)
(0.624299 0.906025 -0.322049)
(0.599988 0.873148 -0.318829)
(0.453728 0.650517 -0.211168)
(0.368109 0.528439 -0.171173)
(0.335229 0.491133 -0.15899)
(0.45533 0.646322 -0.213571)
(0.394865 0.571287 -0.181286)
(0.45522 0.646878 -0.208894)
(0.374392 0.53218 -0.172455)
(0.334976 0.475842 -0.160755)
(0.402777 0.569519 -0.18821)
(0.375022 0.530909 -0.172311)
(0.355687 0.507389 -0.169864)
(0.519298 0.743907 -0.252993)
(0.545121 0.784172 -0.259725)
(0.532546 0.775567 -0.257881)
(0.557193 0.806814 -0.271346)
(0.55277 0.788385 -0.265644)
(0.54572 0.781818 -0.262037)
(0.515894 0.744243 -0.245386)
(0.537897 0.759738 -0.253149)
(0.608527 0.875227 -0.302278)
(0.577076 0.823646 -0.281)
(0.555422 0.827117 -0.265)
(0.559833 0.829101 -0.271622)
(0.559638 0.842864 -0.261606)
(0.560583 0.849393 -0.259894)
(0.556598 0.826078 -0.272958)
(0.542923 0.802615 -0.274686)
(0.546836 0.810744 -0.278245)
(0.545253 0.827872 -0.26759)
(0.552332 0.838039 -0.265251)
(0.542788 0.816791 -0.268853)
(0.535285 0.815606 -0.268608)
(0.545505 0.835437 -0.258553)
(0.55623 0.848421 -0.259048)
(0.526325 0.789927 -0.258869)
(0.540575 0.812588 -0.270324)
(0.544701 0.823289 -0.274655)
(0.534994 0.805698 -0.265415)
(0.533537 0.802008 -0.268181)
(0.499213 0.719311 -0.223969)
(0.475377 0.691536 -0.221731)
(0.511972 0.727033 -0.237535)
(0.501005 0.718902 -0.233627)
(0.511592 0.754056 -0.240101)
(0.503216 0.748262 -0.235925)
(0.471241 0.689401 -0.218188)
(0.530985 0.786916 -0.24684)
(0.533099 0.775606 -0.244243)
(0.4905 0.718824 -0.232627)
(0.484833 0.709649 -0.227109)
(0.336598 0.521298 -0.159276)
(0.334728 0.514887 -0.162259)
(0.339604 0.523256 -0.163539)
(0.326397 0.503099 -0.155823)
(0.357533 0.553023 -0.170265)
(0.354159 0.543436 -0.176806)
(0.328889 0.497002 -0.161448)
(0.395743 0.602226 -0.194993)
(0.385751 0.599902 -0.193992)
(0.412226 0.62097 -0.191375)
(0.41345 0.629369 -0.190093)
(0.433804 0.665256 -0.215186)
(0.428978 0.665083 -0.216726)
(0.348857 0.53882 -0.179403)
(0.361669 0.564672 -0.189165)
(0.41129 0.635247 -0.213764)
(0.416471 0.646413 -0.219191)
(0.340752 0.52129 -0.158872)
(0.350731 0.536498 -0.171887)
(0.327585 0.490241 -0.156517)
(0.411779 0.619344 -0.194413)
(0.431364 0.670174 -0.220585)
(0.369397 0.571805 -0.191616)
(0.324216 0.512947 -0.158248)
(0.332386 0.513525 -0.167946)
(0.303149 0.47025 -0.1497)
(0.536328 0.807897 -0.283859)
(0.545025 0.820515 -0.280424)
(0.54476 0.81147 -0.286393)
(0.53405 0.807733 -0.278358)
(0.537355 0.826655 -0.26144)
(0.559962 0.851531 -0.273628)
(0.560632 0.835851 -0.28429)
(0.539264 0.814766 -0.283431)
(0.549278 0.819058 -0.283002)
(0.561429 0.834704 -0.288594)
(0.548443 0.805101 -0.286959)
(0.397309 0.562495 -0.185465)
(0.417157 0.592248 -0.195092)
(0.39333 0.553913 -0.180674)
(0.380262 0.53295 -0.180066)
(0.486738 0.689395 -0.230214)
(0.437883 0.628549 -0.208618)
(0.393862 0.547267 -0.180065)
(0.356916 0.498731 -0.160456)
(0.460019 0.653009 -0.214436)
(0.346383 0.481137 -0.162785)
(0.436967 0.620777 -0.211178)
(0.401812 0.57574 -0.189934)
(0.398898 0.553871 -0.182839)
(0.424568 0.609947 -0.196916)
(0.422738 0.620494 -0.205128)
(0.575771 0.805664 -0.271275)
(0.5716 0.80438 -0.270432)
(0.589768 0.8231 -0.282046)
(0.547686 0.765567 -0.253183)
(0.564937 0.786206 -0.267157)
(0.544188 0.742651 -0.243142)
(0.52336 0.730074 -0.246811)
(0.511702 0.709545 -0.241783)
(0.511584 0.715108 -0.237781)
(0.500201 0.700913 -0.242467)
(0.588344 0.811783 -0.278467)
(0.520384 0.731499 -0.246699)
(0.571209 0.799804 -0.275922)
(0.515237 0.724037 -0.24772)
(0.484347 0.708783 -0.244753)
(0.468266 0.676432 -0.242767)
(0.477213 0.689453 -0.229507)
(0.444876 0.661598 -0.221345)
(0.528623 0.761178 -0.264689)
(0.538136 0.768833 -0.273344)
(0.495112 0.703741 -0.249185)
(0.499664 0.730884 -0.261521)
(0.512748 0.748808 -0.259421)
(0.532577 0.775594 -0.263251)
(0.516761 0.7567 -0.256381)
(0.567383 0.813131 -0.286276)
(0.581935 0.828392 -0.286193)
(0.474715 0.69437 -0.241138)
(0.467965 0.671921 -0.227248)
(0.468083 0.684485 -0.240002)
(0.536437 0.763726 -0.280309)
(0.494411 0.70791 -0.262388)
(0.565507 0.814773 -0.287227)
(0.472876 0.685271 -0.242892)
(0.574971 0.863649 -0.266812)
(0.568806 0.869582 -0.243364)
(0.579786 0.866852 -0.256463)
(0.589989 0.861016 -0.28021)
(0.593432 0.875274 -0.276487)
(0.588755 0.87149 -0.274097)
(0.565647 0.8567 -0.255946)
(0.582448 0.876296 -0.27914)
(0.579093 0.864966 -0.275054)
(0.591119 0.87732 -0.274089)
(0.588619 0.864735 -0.27871)
(0.58293 0.876597 -0.260107)
(0.564959 0.859619 -0.247607)
(0.567466 0.867404 -0.26151)
(0.549905 0.819487 -0.296314)
(0.546494 0.809546 -0.294294)
(0.510094 0.75801 -0.277548)
(0.564071 0.829301 -0.299359)
(0.54072 0.813626 -0.293665)
(0.519777 0.773557 -0.281714)
(0.570786 0.843801 -0.306115)
(0.53094 0.778188 -0.283188)
(0.524021 0.774157 -0.284416)
(0.522261 0.777723 -0.282673)
(0.561706 0.777783 -0.258584)
(0.605049 0.85329 -0.294936)
(0.585466 0.81306 -0.286601)
(0.585091 0.815121 -0.284987)
(0.562309 0.780432 -0.273453)
(0.572885 0.799269 -0.280355)
(0.541547 0.752605 -0.259935)
(0.534862 0.72942 -0.25091)
(0.511377 0.697867 -0.24394)
(0.538314 0.733839 -0.245359)
(0.573094 0.787719 -0.277155)
(0.542552 0.750421 -0.259677)
(0.539992 0.737339 -0.257402)
(0.524321 0.754828 -0.24392)
(0.517836 0.737822 -0.244197)
(0.541381 0.785593 -0.253952)
(0.559242 0.815141 -0.260787)
(0.528008 0.766424 -0.246336)
(0.58366 0.86528 -0.272387)
(0.581254 0.870851 -0.267378)
(0.540378 0.788288 -0.25705)
(0.52786 0.773635 -0.253793)
(0.56669 0.837808 -0.266841)
(0.583495 0.865079 -0.274517)
(0.575743 0.848012 -0.267657)
(0.580064 0.850592 -0.271374)
(0.523847 0.771293 -0.249723)
(0.549162 0.811309 -0.262419)
(0.540087 0.796515 -0.260362)
(0.517809 0.741332 -0.264713)
(0.546492 0.786056 -0.274545)
(0.553255 0.782968 -0.273825)
(0.517918 0.737137 -0.261275)
(0.595788 0.850614 -0.296859)
(0.551751 0.790293 -0.277482)
(0.534929 0.759382 -0.263754)
(0.502581 0.711718 -0.252878)
(0.563519 0.796948 -0.279194)
(0.53864 0.763891 -0.26717)
(0.554086 0.793767 -0.274094)
(0.595277 0.851477 -0.296044)
(0.514649 0.730099 -0.259625)
(0.527458 0.750736 -0.260586)
(0.502583 0.721067 -0.257648)
(0.568665 0.824685 -0.28445)
(0.558603 0.799757 -0.280599)
(0.543939 0.792606 -0.272196)
(0.55347 0.804063 -0.278933)
(0.473892 0.689153 -0.245327)
(0.456118 0.665002 -0.234783)
(0.558493 0.7987 -0.28108)
(0.511961 0.742239 -0.260732)
(0.549633 0.790786 -0.273299)
(0.528226 0.764611 -0.25115)
(0.554004 0.799767 -0.259973)
(0.548132 0.788487 -0.257919)
(0.551485 0.791501 -0.260078)
(0.532496 0.771152 -0.253405)
(0.483363 0.695148 -0.226805)
(0.483967 0.70251 -0.22771)
(0.486239 0.693964 -0.231047)
(0.501903 0.714125 -0.235994)
(0.533308 0.767676 -0.250132)
(0.473941 0.684811 -0.22481)
(0.503532 0.709568 -0.23275)
(0.496313 0.714113 -0.235421)
(0.483068 0.691285 -0.222043)
(0.537356 0.753343 -0.226701)
(0.538665 0.750056 -0.232618)
(0.511913 0.718429 -0.208551)
(0.543928 0.753247 -0.226804)
(0.544466 0.762243 -0.237069)
(0.511677 0.734757 -0.2048)
(0.550361 0.791078 -0.267207)
(0.524573 0.775385 -0.252978)
(0.517389 0.756871 -0.248643)
(0.552637 0.803301 -0.263977)
(0.613221 0.88099 -0.303396)
(0.591609 0.851964 -0.285555)
(0.59865 0.864418 -0.290766)
(0.632427 0.906694 -0.308778)
(0.448499 0.700393 -0.24545)
(0.460046 0.720428 -0.249141)
(0.45799 0.706618 -0.245235)
(0.453965 0.703964 -0.24258)
(0.410984 0.633988 -0.225948)
(0.47694 0.732682 -0.244029)
(0.387288 0.585545 -0.189715)
(0.337572 0.526408 -0.183177)
(0.388874 0.609544 -0.213205)
(0.495191 0.754788 -0.257346)
(0.453284 0.692906 -0.231424)
(0.471892 0.711977 -0.238201)
(0.492148 0.751666 -0.260183)
(0.389313 0.594655 -0.189202)
(0.480539 0.730934 -0.246797)
(0.454731 0.696918 -0.239394)
(0.349781 0.508476 -0.166056)
(0.3245 0.476066 -0.157695)
(0.336109 0.486199 -0.156814)
(0.351104 0.511492 -0.164947)
(0.356963 0.51081 -0.170225)
(0.381655 0.541122 -0.178584)
(0.378537 0.544343 -0.179001)
(0.363699 0.532061 -0.177147)
(0.337571 0.490747 -0.164781)
(0.318993 0.466533 -0.152552)
(0.345608 0.510092 -0.16674)
(0.339237 0.493425 -0.156452)
(0.41274 0.598778 -0.200073)
(0.432241 0.629866 -0.215424)
(0.429851 0.615012 -0.206467)
(0.437494 0.641227 -0.21398)
(0.359877 0.516317 -0.163686)
(0.347829 0.506735 -0.165436)
(0.381583 0.541469 -0.181327)
(0.351057 0.500043 -0.167704)
(0.36224 0.52679 -0.169577)
(0.401064 0.591325 -0.198754)
(0.440085 0.623405 -0.203908)
(0.43145 0.62009 -0.200383)
(0.478695 0.70841 -0.241708)
(0.387381 0.574068 -0.195147)
(0.368118 0.551817 -0.185145)
(0.396244 0.589538 -0.200543)
(0.340912 0.521324 -0.172086)
(0.373542 0.559809 -0.191765)
(0.349943 0.528449 -0.175663)
(0.413462 0.627547 -0.207119)
(0.37565 0.593296 -0.190301)
(0.349577 0.542251 -0.176815)
(0.488409 0.71451 -0.246084)
(0.374524 0.566444 -0.185134)
(0.390804 0.579318 -0.206773)
(0.460793 0.653008 -0.204728)
(0.48739 0.676657 -0.216363)
(0.511859 0.705978 -0.231873)
(0.551159 0.765478 -0.256401)
(0.394624 0.547486 -0.172503)
(0.417741 0.578082 -0.183619)
(0.40881 0.568904 -0.183634)
(0.510721 0.694846 -0.231949)
(0.514976 0.710515 -0.232915)
(0.527707 0.729754 -0.245106)
(0.392793 0.545994 -0.172693)
(0.368898 0.502234 -0.163698)
(0.414993 0.559034 -0.188207)
(0.408909 0.547032 -0.184806)
(0.371832 0.507904 -0.170463)
(0.401734 0.536774 -0.180446)
(0.42532 0.57561 -0.190066)
(0.485081 0.652039 -0.224293)
(0.41307 0.564314 -0.183059)
(0.457375 0.665861 -0.226291)
(0.456155 0.658437 -0.221672)
(0.462639 0.646822 -0.220141)
(0.465678 0.661618 -0.219352)
(0.475903 0.68376 -0.229764)
(0.444821 0.632657 -0.213973)
(0.366385 0.525497 -0.172938)
(0.355767 0.508046 -0.167193)
(0.359246 0.522627 -0.174679)
(0.336761 0.495837 -0.151173)
(0.435823 0.625018 -0.20937)
(0.418465 0.603306 -0.198505)
(0.373523 0.521334 -0.182005)
(0.357745 0.506233 -0.169583)
(0.431514 0.616774 -0.20422)
(0.388339 0.552076 -0.187953)
(0.362215 0.525542 -0.178416)
(0.496473 0.770291 -0.252941)
(0.501821 0.772086 -0.267305)
(0.515975 0.800008 -0.273286)
(0.518585 0.808757 -0.263811)
(0.444218 0.690945 -0.239885)
(0.465345 0.716023 -0.234664)
(0.476218 0.736116 -0.257834)
(0.509109 0.790776 -0.259991)
(0.466588 0.72367 -0.238419)
(0.4994 0.772952 -0.241996)
(0.459171 0.715401 -0.230947)
(0.467117 0.728894 -0.233789)
(0.515829 0.795538 -0.26041)
(0.544545 0.83833 -0.277202)
(0.526781 0.803381 -0.281312)
(0.466165 0.71774 -0.234611)
(0.443723 0.686046 -0.244848)
(0.484686 0.750922 -0.261341)
(0.514006 0.792504 -0.275049)
(0.479642 0.734798 -0.260213)
(0.527062 0.813255 -0.275029)
(0.468836 0.72695 -0.225156)
(0.505964 0.781874 -0.248396)
(0.498981 0.772815 -0.249102)
(0.457567 0.70438 -0.211956)
(0.48383 0.754087 -0.235393)
(0.456791 0.718179 -0.228487)
(0.408391 0.627523 -0.198063)
(0.465725 0.715312 -0.231963)
(0.494313 0.771603 -0.24847)
(0.440082 0.667631 -0.208308)
(0.604903 0.858406 -0.304849)
(0.595673 0.849098 -0.306225)
(0.555605 0.798334 -0.275262)
(0.588631 0.843594 -0.299224)
(0.634964 0.908382 -0.32331)
(0.629225 0.903835 -0.322028)
(0.619724 0.887853 -0.316608)
(0.59784 0.851998 -0.301381)
(0.615051 0.873841 -0.306625)
(0.600561 0.859774 -0.307591)
(0.574141 0.829968 -0.296446)
(0.607254 0.867936 -0.315535)
(0.636079 0.906195 -0.321482)
(0.622845 0.888433 -0.314121)
(0.585437 0.88263 -0.280894)
(0.592042 0.885154 -0.280298)
(0.574306 0.847177 -0.25796)
(0.566814 0.855535 -0.289171)
(0.57539 0.86857 -0.287457)
(0.55839 0.834078 -0.260354)
(0.534282 0.815684 -0.262831)
(0.57122 0.863191 -0.264562)
(0.572072 0.872862 -0.266945)
(0.542604 0.813533 -0.243537)
(0.565541 0.837917 -0.259869)
(0.540551 0.821952 -0.267943)
(0.524271 0.804488 -0.268047)
(0.584897 0.882967 -0.292166)
(0.553788 0.850633 -0.265224)
(0.565821 0.857589 -0.280446)
(0.528695 0.80309 -0.250617)
(0.546862 0.829187 -0.273066)
(0.511048 0.697798 -0.230856)
(0.490882 0.677311 -0.225032)
(0.460955 0.63479 -0.217005)
(0.472237 0.643967 -0.215743)
(0.503854 0.69771 -0.233806)
(0.460444 0.64186 -0.210531)
(0.396454 0.547947 -0.186177)
(0.3585 0.491395 -0.17765)
(0.405436 0.552429 -0.195984)
(0.397036 0.545296 -0.179675)
(0.434282 0.598937 -0.213511)
(0.423503 0.580941 -0.207263)
(0.38825 0.533647 -0.191303)
(0.357438 0.497605 -0.173188)
(0.49191 0.686067 -0.245871)
(0.416939 0.567534 -0.195563)
(0.396381 0.536464 -0.193126)
(0.408761 0.558077 -0.194704)
(0.485732 0.6658 -0.23427)
(0.431037 0.587355 -0.20782)
(0.515459 0.797778 -0.260605)
(0.522146 0.800407 -0.268273)
(0.52981 0.82041 -0.24944)
(0.461924 0.68441 -0.231633)
(0.552141 0.798479 -0.271723)
(0.413209 0.60594 -0.206782)
(0.47508 0.699195 -0.239063)
(0.422964 0.625423 -0.206897)
(0.427389 0.617843 -0.212146)
(0.445538 0.655348 -0.221467)
(0.480385 0.711229 -0.239258)
(0.435932 0.634819 -0.21539)
(0.437662 0.637425 -0.213785)
(0.448956 0.645023 -0.215949)
(0.404316 0.587693 -0.19909)
(0.505212 0.729538 -0.243305)
(0.500396 0.722788 -0.236859)
(0.45854 0.658885 -0.221455)
(0.436961 0.629772 -0.213358)
(0.416781 0.608422 -0.206375)
(0.577466 0.855935 -0.262151)
(0.570644 0.859669 -0.260827)
(0.577798 0.828544 -0.278035)
(0.576444 0.839102 -0.275365)
(0.562711 0.860729 -0.265555)
(0.567542 0.859097 -0.265352)
(0.563882 0.809676 -0.275289)
(0.577104 0.834264 -0.271742)
(0.589241 0.861188 -0.282097)
(0.573699 0.861374 -0.264689)
(0.567441 0.868553 -0.26228)
(0.5792 0.835118 -0.288156)
(0.577188 0.834387 -0.286835)
(0.571429 0.836853 -0.28022)
(0.580274 0.862415 -0.259658)
(0.571882 0.818194 -0.271638)
(0.573786 0.825568 -0.273835)
(0.573704 0.821562 -0.277469)
(0.372577 0.555042 -0.178017)
(0.407346 0.618393 -0.189188)
(0.396986 0.604181 -0.187086)
(0.359837 0.545416 -0.17669)
(0.376149 0.552417 -0.178619)
(0.340182 0.514974 -0.166585)
(0.38346 0.57682 -0.185235)
(0.412732 0.603237 -0.193274)
(0.387444 0.579045 -0.185827)
(0.426954 0.634986 -0.198015)
(0.47313 0.697028 -0.217626)
(0.470677 0.705749 -0.222989)
(0.469873 0.696024 -0.228191)
(0.532817 0.752631 -0.250998)
(0.55777 0.788761 -0.262383)
(0.525359 0.735452 -0.2511)
(0.517683 0.740594 -0.250764)
(0.571313 0.823589 -0.2761)
(0.566793 0.809755 -0.26917)
(0.582776 0.840051 -0.275107)
(0.541767 0.758132 -0.260378)
(0.572682 0.824508 -0.275542)
(0.567847 0.816363 -0.268661)
(0.569536 0.814946 -0.275815)
(0.55348 0.783166 -0.275149)
(0.572747 0.81376 -0.282404)
(0.573141 0.8583 -0.268383)
(0.557478 0.852795 -0.240615)
(0.555688 0.851771 -0.252263)
(0.533889 0.844555 -0.226806)
(0.532298 0.84351 -0.226427)
(0.38935 0.560224 -0.190679)
(0.351594 0.503336 -0.170874)
(0.404309 0.579252 -0.197656)
(0.407539 0.584544 -0.199273)
(0.38605 0.550498 -0.184341)
(0.378123 0.540669 -0.181495)
(0.459989 0.645804 -0.217528)
(0.396081 0.56726 -0.182896)
(0.473964 0.670206 -0.223188)
(0.468961 0.66528 -0.219879)
(0.472064 0.6624 -0.219803)
(0.403586 0.573353 -0.192127)
(0.466356 0.667874 -0.223581)
(0.470852 0.659855 -0.221481)
(0.502423 0.716758 -0.241065)
(0.47691 0.673047 -0.222292)
(0.438772 0.634161 -0.21438)
(0.419765 0.606922 -0.204997)
(0.350192 0.501708 -0.163203)
(0.379406 0.542529 -0.177654)
(0.335931 0.481255 -0.154627)
(0.310158 0.441095 -0.145737)
(0.322347 0.473676 -0.152073)
(0.315379 0.46603 -0.154945)
(0.42469 0.606178 -0.212376)
(0.432024 0.614739 -0.217201)
(0.429187 0.625835 -0.213391)
(0.416485 0.601381 -0.199333)