/*--------------------------------*- C++ -*----------------------------------*\
| =========                 |                                                 |
| \\      /  F ield         | OpenFOAM: The Open Source CFD Toolbox           |
|  \\    /   O peration     | Version:  v1612+                                |
|   \\  /    A nd           | Web:      www.OpenFOAM.com                      |
|    \\/     M anipulation  |                                                 |
\*---------------------------------------------------------------------------*/
FoamFile
{
    version     2.0;
    format      ascii;
    class       volScalarField;
    location    "150";
    object      p;
}
// * * * * * * * * * * * * * * * * * * * * * * * * * * * * * * * * * * * * * //

dimensions      [0 2 -2 0 0 0 0];

internalField   nonuniform List<scalar> 
16890
(
0.258221
0.225289
0.270487
0.268013
0.270832
0.267702
0.268883
0.264284
0.264766
0.268948
0.268609
0.270463
0.26607
0.265991
0.264375
0.270088
0.268436
0.26804
0.193437
0.195487
0.19221
0.189593
0.190282
0.188607
0.187912
0.190072
0.190683
0.188192
0.195018
0.191929
0.197291
0.188877
0.192302
0.195416
0.186014
0.185057
0.190823
0.250735
0.252217
0.253932
0.252297
0.254544
0.24923
0.249885
0.259529
0.25104
0.248343
0.249962
0.250121
0.251792
0.251565
0.253001
0.253961
0.252349
0.254549
0.252089
0.257546
0.246652
0.254585
0.251823
0.2495
0.251257
0.252244
0.250288
0.247259
0.24528
0.247474
0.246429
0.244902
0.250684
0.247528
0.245942
0.248823
0.247172
0.274244
0.273062
0.273186
0.274968
0.276271
0.272469
0.271107
0.274498
0.273323
0.268084
0.274668
0.232058
0.233435
0.231741
0.231149
0.232388
0.236438
0.240657
0.235373
0.232064
0.227438
0.228522
0.226442
0.228011
0.234144
0.225388
0.23194
0.234713
0.185104
0.189679
0.184691
0.19453
0.193782
0.186059
0.185732
0.186394
0.181706
0.185401
0.264641
0.258751
0.264218
0.258106
0.261394
0.254483
0.2643
0.260462
0.258981
0.260715
0.222639
0.216131
0.223804
0.219162
0.219074
0.218437
0.217624
0.218287
0.219172
0.222658
0.217349
0.219665
0.222169
0.221845
0.221805
0.249066
0.254621
0.254487
0.246393
0.247046
0.25377
0.248497
0.248831
0.249362
0.242738
0.251453
0.249441
0.247294
0.244807
0.253777
0.253799
0.204353
0.20611
0.20859
0.214905
0.218588
0.212738
0.204181
0.210492
0.214515
0.212045
0.211507
0.212095
0.209318
0.213181
0.213642
0.205723
0.209845
0.239086
0.244709
0.243475
0.246834
0.242776
0.2417
0.245072
0.250334
0.251772
0.249279
0.252172
0.24354
0.212688
0.212389
0.208844
0.212392
0.210948
0.211448
0.21081
0.215151
0.214318
0.213577
0.214661
0.213284
0.215032
0.2135
0.212452
0.214402
0.21219
0.213647
0.21157
0.216924
0.214329
0.216924
0.21096
0.209218
0.20697
0.207889
0.203964
0.21982
0.216675
0.207849
0.203873
0.216636
0.218833
0.214065
0.209618
0.205636
0.213322
0.218348
0.208554
0.217184
0.207581
0.274244
0.272265
0.266101
0.26957
0.269629
0.268873
0.268919
0.269739
0.268924
0.266741
0.265287
0.270777
0.267375
0.265149
0.267615
0.269183
0.269579
0.26979
0.263865
0.253087
0.25409
0.252712
0.25205
0.251262
0.25087
0.247009
0.25016
0.249668
0.250175
0.253357
0.246451
0.247384
0.24367
0.248866
0.245327
0.246166
0.249443
0.249435
0.245228
0.246096
0.25041
0.253233
0.253506
0.247045
0.243995
0.251907
0.251494
0.251368
0.249607
0.249434
0.248865
0.252879
0.253852
0.249246
0.24942
0.253746
0.252446
0.207716
0.209964
0.204788
0.212732
0.209841
0.206867
0.206132
0.199564
0.205828
0.211381
0.208287
0.207282
0.206993
0.216823
0.208151
0.206727
0.213014
0.212478
0.214631
0.216121
0.215494
0.214833
0.212488
0.209922
0.217308
0.210785
0.214755
0.210592
0.210753
0.217099
0.238704
0.239954
0.240913
0.241157
0.241603
0.241232
0.242894
0.238654
0.239723
0.242399
0.241834
0.24093
0.242177
0.240304
0.242244
0.241878
0.2421
0.242295
0.242236
0.210047
0.209374
0.215854
0.21422
0.208779
0.216822
0.217249
0.206825
0.207194
0.211437
0.220466
0.211096
0.215252
0.206606
0.2122
0.205396
0.25203
0.253279
0.255061
0.246266
0.2472
0.252614
0.249433
0.249781
0.250957
0.248085
0.245567
0.264975
0.259788
0.257639
0.261883
0.257194
0.26287
0.250423
0.254437
0.252994
0.25334
0.25139
0.251434
0.252932
0.252012
0.25467
0.248546
0.25057
0.249167
0.249842
0.252353
0.247958
0.249486
0.247317
0.251397
0.250088
0.247682
0.265831
0.269284
0.272142
0.269323
0.271804
0.269816
0.263183
0.271473
0.268607
0.270679
0.271008
0.272298
0.269264
0.223718
0.227168
0.235153
0.227705
0.228209
0.228962
0.227873
0.227725
0.228446
0.230175
0.230138
0.230498
0.227315
0.227107
0.232311
0.230763
0.231605
0.226355
0.23256
0.227152
0.226822
0.230396
0.238731
0.239261
0.242317
0.237087
0.239313
0.234249
0.235164
0.236939
0.23889
0.239405
0.238102
0.2355
0.18436
0.191366
0.188406
0.184006
0.188607
0.182092
0.185941
0.184287
0.193233
0.240683
0.240487
0.242989
0.240766
0.239173
0.241992
0.240064
0.239084
0.244111
0.239575
0.247307
0.242607
0.239636
0.240963
0.195396
0.199806
0.198768
0.197559
0.202772
0.199695
0.195448
0.201368
0.196353
0.20269
0.197614
0.201815
0.195718
0.205075
0.208705
0.190405
0.191943
0.201045
0.195853
0.199895
0.201701
0.192974
0.198874
0.196103
0.18952
0.229842
0.227766
0.234426
0.23306
0.23332
0.227382
0.224483
0.228635
0.229775
0.230769
0.224865
0.226573
0.22811
0.21935
0.22771
0.229661
0.257331
0.243909
0.254754
0.250465
0.25688
0.254499
0.2544
0.259598
0.254506
0.250533
0.255916
0.25797
0.256417
0.197432
0.194301
0.199628
0.197181
0.196978
0.198723
0.198317
0.189632
0.192679
0.197964
0.189268
0.190311
0.194799
0.196478
0.184919
0.187841
0.191623
0.189184
0.18888
0.186756
0.184223
0.187156
0.186029
0.189602
0.192701
0.189224
0.183518
0.187628
0.191062
0.184009
0.183497
0.18707
0.189211
0.183541
0.184641
0.255711
0.260679
0.263353
0.260089
0.254263
0.257999
0.26349
0.262442
0.259746
0.264726
0.26084
0.256026
0.258328
0.256864
0.258711
0.260279
0.259414
0.257788
0.258726
0.26042
0.258048
0.252515
0.257655
0.257339
0.259401
0.252229
0.261954
0.259734
0.261908
0.256809
0.258372
0.255753
0.256722
0.261893
0.255219
0.254574
0.251406
0.216882
0.215789
0.21972
0.221213
0.216994
0.212366
0.215715
0.21465
0.215493
0.218942
0.215608
0.211578
0.217501
0.214275
0.217015
0.220627
0.22064
0.219768
0.220671
0.224386
0.233983
0.233862
0.233506
0.228375
0.2328
0.224567
0.227785
0.230823
0.230774
0.231594
0.231685
0.229211
0.229024
0.227149
0.232716
0.225134
0.22806
0.229795
0.225571
0.22812
0.225724
0.223494
0.227367
0.23017
0.227692
0.226413
0.2201
0.226827
0.224252
0.225682
0.228828
0.222538
0.221438
0.220759
0.223645
0.223115
0.224294
0.218262
0.222277
0.223035
0.220589
0.224759
0.227005
0.227854
0.218225
0.220623
0.22304
0.216203
0.224363
0.212096
0.209271
0.209225
0.205809
0.212778
0.211374
0.215073
0.21494
0.214735
0.212043
0.215381
0.208088
0.21058
0.20983
0.212095
0.23715
0.236095
0.239358
0.237212
0.238828
0.237909
0.236106
0.240518
0.239568
0.237031
0.237642
0.239251
0.234374
0.239921
0.2372
0.242475
0.24234
0.237809
0.194803
0.1892
0.192626
0.191328
0.189186
0.193449
0.19234
0.192969
0.18981
0.190926
0.187648
0.195909
0.192424
0.197062
0.195527
0.197415
0.189606
0.189008
0.188523
0.183393
0.195163
0.195834
0.196056
0.195721
0.197172
0.193302
0.19494
0.191769
0.198834
0.196446
0.20347
0.204892
0.192961
0.194849
0.197179
0.190633
0.190202
0.201445
0.197771
0.194268
0.232046
0.233806
0.22994
0.232619
0.232947
0.232649
0.232796
0.230695
0.228215
0.229262
0.230825
0.230962
0.2256
0.233132
0.232922
0.242681
0.243119
0.24062
0.236518
0.243995
0.243365
0.241528
0.232809
0.240086
0.239895
0.225054
0.227174
0.229391
0.230077
0.22914
0.229258
0.229067
0.232382
0.259546
0.262329
0.2519
0.253535
0.254121
0.250469
0.252682
0.259491
0.259829
0.261593
0.251016
0.256599
0.252665
0.246196
0.243296
0.242152
0.243668
0.240894
0.245116
0.241837
0.246292
0.247686
0.24698
0.245144
0.246223
0.244679
0.242566
0.262862
0.261067
0.262484
0.251654
0.258329
0.269584
0.255116
0.269363
0.268282
0.26614
0.264795
0.267463
0.267308
0.267483
0.266848
0.266786
0.270992
0.26341
0.265488
0.270513
0.266966
0.26743
0.263428
0.267205
0.271718
0.267326
0.266388
0.26809
0.265728
0.268004
0.272583
0.257159
0.252077
0.264449
0.26362
0.282621
0.283485
0.257016
0.263168
0.264086
0.263708
0.263728
0.270055
0.267414
0.269682
0.274483
0.273146
0.274539
0.271582
0.270719
0.277369
0.280404
0.25716
0.267407
0.267305
0.266222
0.2646
0.268296
0.268562
0.258977
0.260507
0.251032
0.249496
0.264094
0.267213
0.260838
0.256948
0.257284
0.261628
0.257835
0.255422
0.26613
0.261609
0.262965
0.251405
0.245933
0.249384
0.256293
0.25404
0.25935
0.259221
0.260848
0.248158
0.245147
0.249751
0.255735
0.253655
0.251504
0.254109
0.253618
0.244857
0.248822
0.245554
0.249143
0.249123
0.24423
0.245888
0.251855
0.250021
0.246199
0.249929
0.250958
0.241239
0.245733
0.251765
0.248548
0.247358
0.243845
0.246318
0.243466
0.238192
0.239449
0.237748
0.240419
0.235511
0.24316
0.240833
0.244014
0.238978
0.243697
0.241244
0.242013
0.24024
0.243893
0.23665
0.23921
0.236438
0.230161
0.22967
0.234239
0.234831
0.235183
0.234205
0.232596
0.227845
0.235044
0.221039
0.224143
0.225966
0.228987
0.226481
0.231393
0.234115
0.219346
0.225414
0.227265
0.226454
0.225251
0.229146
0.235131
0.221917
0.221583
0.223846
0.226076
0.220937
0.2315
0.221719
0.226533
0.226919
0.224078
0.220285
0.212957
0.220106
0.219817
0.216118
0.222775
0.220266
0.222942
0.215047
0.214616
0.217683
0.21605
0.214742
0.215417
0.206843
0.203627
0.211589
0.208108
0.206859
0.212059
0.211026
0.210894
0.210853
0.21306
0.197651
0.192896
0.203463
0.198055
0.201879
0.198135
0.205637
0.201993
0.211284
0.20716
0.205105
0.198656
0.207859
0.203968
0.19205
0.199331
0.191348
0.196201
0.203791
0.206658
0.20398
0.203157
0.198036
0.200514
0.201985
0.202598
0.202776
0.196892
0.187815
0.190272
0.199734
0.194158
0.196669
0.197757
0.188237
0.200396
0.195931
0.193795
0.19341
0.193876
0.193727
0.192795
0.190828
0.189623
0.203697
0.200737
0.196356
0.200679
0.198394
0.189081
0.193755
0.194241
0.185556
0.188342
0.187433
0.195651
0.198747
0.199399
0.195786
0.202004
0.199996
0.195326
0.198879
0.197726
0.200154
0.201411
0.198914
0.199648
0.202261
0.191066
0.197964
0.193646
0.190498
0.189589
0.188415
0.192935
0.187369
0.207462
0.204403
0.207354
0.202106
0.196208
0.198788
0.209389
0.204422
0.204092
0.204023
0.196634
0.19874
0.198449
0.202198
0.196376
0.192725
0.193594
0.191872
0.204705
0.20088
0.204124
0.2092
0.205227
0.206628
0.201705
0.204511
0.204238
0.206328
0.20341
0.199444
0.20801
0.208329
0.195751
0.199037
0.193275
0.19298
0.195035
0.197359
0.200011
0.194542
0.19306
0.199857
0.193681
0.212449
0.209885
0.208748
0.207589
0.200901
0.208754
0.210933
0.210473
0.20586
0.203123
0.209207
0.207511
0.202402
0.208221
0.205853
0.202994
0.205401
0.210278
0.204882
0.19748
0.198385
0.202387
0.200607
0.203566
0.199979
0.19649
0.198713
0.194549
0.199506
0.192198
0.195457
0.197995
0.200637
0.196734
0.190989
0.200987
0.185389
0.187615
0.195338
0.1905
0.210198
0.211103
0.208687
0.205438
0.197563
0.201396
0.205577
0.203481
0.200804
0.210021
0.199637
0.205116
0.204305
0.212735
0.213732
0.212396
0.205509
0.208232
0.204805
0.205403
0.211324
0.211698
0.211483
0.205619
0.214238
0.205454
0.213242
0.217275
0.209719
0.208592
0.210618
0.210169
0.207421
0.209626
0.205407
0.196689
0.197321
0.204126
0.197939
0.1959
0.196459
0.207147
0.211046
0.211267
0.200006
0.204309
0.206041
0.203457
0.206581
0.206788
0.207456
0.195081
0.19281
0.206402
0.194054
0.193763
0.197898
0.199206
0.193468
0.198548
0.195341
0.195828
0.194935
0.205986
0.205429
0.203763
0.1994
0.194787
0.205237
0.199685
0.198152
0.199129
0.200756
0.19986
0.217285
0.21227
0.212855
0.213647
0.20658
0.216069
0.211853
0.209472
0.204794
0.206052
0.208937
0.210923
0.210747
0.201549
0.205655
0.214556
0.212919
0.215944
0.21159
0.216839
0.209873
0.208509
0.205385
0.216865
0.217151
0.22129
0.204071
0.212952
0.208801
0.204574
0.201915
0.202247
0.194019
0.204292
0.202152
0.20095
0.206721
0.20419
0.204488
0.218
0.213183
0.211632
0.209421
0.212127
0.202828
0.203705
0.218205
0.20541
0.208863
0.210588
0.207821
0.21094
0.212251
0.214939
0.213918
0.217796
0.213598
0.210305
0.214158
0.214587
0.205737
0.210393
0.205864
0.205206
0.211129
0.209216
0.207479
0.208014
0.209052
0.210631
0.212726
0.206287
0.209554
0.207637
0.203961
0.209078
0.210918
0.218332
0.218515
0.211817
0.211711
0.213897
0.205487
0.206103
0.20198
0.200874
0.206101
0.207888
0.219063
0.214277
0.221922
0.212527
0.212606
0.21695
0.211424
0.214101
0.21476
0.221937
0.216335
0.20809
0.216546
0.213903
0.212445
0.207463
0.208073
0.205875
0.215887
0.213824
0.216706
0.21207
0.221534
0.217677
0.216973
0.221052
0.219358
0.215907
0.22004
0.222095
0.212766
0.217405
0.211413
0.209685
0.215791
0.222203
0.216768
0.2105
0.209104
0.215245
0.213318
0.211888
0.217812
0.214802
0.219706
0.21725
0.217338
0.22708
0.223508
0.220419
0.225394
0.218376
0.216537
0.219993
0.223514
0.216403
0.221365
0.220482
0.226661
0.225336
0.223259
0.21588
0.226368
0.219818
0.223575
0.221164
0.220195
0.225566
0.225078
0.224115
0.220073
0.215421
0.216817
0.223448
0.21799
0.214756
0.218336
0.219373
0.217273
0.215841
0.222496
0.22295
0.219074
0.21742
0.222798
0.219917
0.217463
0.213753
0.211227
0.216213
0.216591
0.2265
0.225249
0.224753
0.223156
0.21977
0.22892
0.222217
0.222654
0.225233
0.222224
0.221033
0.222703
0.217304
0.21793
0.224226
0.234263
0.232721
0.227165
0.22912
0.218964
0.223241
0.230725
0.227544
0.225242
0.233549
0.232171
0.229454
0.222566
0.224151
0.2263
0.225736
0.229147
0.232581
0.224855
0.223432
0.223315
0.225187
0.226275
0.214801
0.220882
0.224059
0.219605
0.218411
0.231901
0.231214
0.231477
0.224608
0.234759
0.225119
0.239671
0.223949
0.222557
0.226157
0.230729
0.225664
0.221685
0.230943
0.228292
0.225567
0.227522
0.228765
0.227875
0.230273
0.2272
0.230275
0.221727
0.225539
0.214498
0.220782
0.21876
0.217497
0.223817
0.219925
0.219844
0.221977
0.219602
0.219133
0.222994
0.222534
0.221938
0.225732
0.227099
0.228842
0.222941
0.219535
0.226274
0.226758
0.241651
0.234932
0.227649
0.234939
0.234945
0.228934
0.221747
0.225675
0.223322
0.232392
0.231907
0.226071
0.225911
0.220879
0.217541
0.227442
0.225403
0.224286
0.223921
0.221581
0.227954
0.228902
0.223171
0.234663
0.230356
0.234795
0.231069
0.229632
0.230605
0.225616
0.232917
0.229661
0.230333
0.23069
0.222049
0.221245
0.221713
0.229176
0.228684
0.229392
0.229871
0.224044
0.225597
0.225034
0.240679
0.235235
0.232588
0.233784
0.225683
0.227848
0.237129
0.230489
0.239954
0.23151
0.228799
0.23518
0.233293
0.245667
0.238265
0.235183
0.231086
0.22871
0.238364
0.237599
0.230824
0.243903
0.239387
0.237583
0.237135
0.231074
0.237427
0.23478
0.234743
0.22811
0.233428
0.223517
0.221739
0.23159
0.229609
0.229311
0.224199
0.230065
0.239718
0.235984
0.236739
0.237152
0.242546
0.240366
0.231484
0.243604
0.238767
0.236588
0.236489
0.236239
0.239643
0.232706
0.232311
0.234028
0.229698
0.225689
0.231842
0.231283
0.232539
0.228377
0.229279
0.221404
0.221509
0.227982
0.22669
0.232622
0.232921
0.228373
0.229666
0.244549
0.242107
0.241752
0.23959
0.22747
0.233891
0.22996
0.234447
0.236185
0.235715
0.239595
0.241248
0.2381
0.240743
0.23978
0.239482
0.235575
0.236472
0.23437
0.243013
0.239441
0.242785
0.236553
0.243846
0.242211
0.235687
0.236584
0.235997
0.235818
0.232613
0.231005
0.235226
0.237012
0.236327
0.233099
0.234356
0.237211
0.244098
0.238137
0.232327
0.241185
0.237156
0.235639
0.244037
0.238773
0.238956
0.243007
0.242682
0.241627
0.227362
0.234966
0.233372
0.233387
0.229705
0.230556
0.234646
0.242417
0.244219
0.236844
0.237575
0.240168
0.242746
0.251938
0.233472
0.240526
0.235166
0.235407
0.237087
0.241167
0.23972
0.245568
0.241833
0.244195
0.239893
0.234805
0.237086
0.236753
0.241421
0.243588
0.240928
0.249279
0.237101
0.237832
0.237242
0.236847
0.238619
0.241558
0.239014
0.229885
0.235131
0.231618
0.23337
0.237024
0.238983
0.240552
0.234959
0.245095
0.244393
0.241356
0.236491
0.243201
0.240652
0.243052
0.247051
0.242795
0.23771
0.240906
0.242686
0.239667
0.234728
0.240768
0.233056
0.238205
0.235754
0.238648
0.237162
0.251023
0.247713
0.247389
0.235778
0.237637
0.246369
0.24372
0.241611
0.246042
0.240233
0.244652
0.251416
0.250489
0.241764
0.240736
0.243812
0.241432
0.243212
0.238255
0.24358
0.244142
0.243436
0.240197
0.246112
0.242054
0.23929
0.237385
0.240187
0.257405
0.249819
0.251324
0.252704
0.247532
0.2442
0.250485
0.252486
0.246859
0.250251
0.248653
0.24962
0.243769
0.236034
0.232971
0.24059
0.243059
0.245423
0.240963
0.243306
0.241119
0.239293
0.242619
0.245124
0.241144
0.249298
0.243968
0.246305
0.247435
0.238412
0.240102
0.239306
0.244875
0.254377
0.250964
0.251113
0.252976
0.251223
0.249471
0.250203
0.243859
0.249113
0.247128
0.247157
0.246029
0.245883
0.242773
0.248192
0.250202
0.254241
0.252481
0.258148
0.25039
0.242777
0.248382
0.256501
0.250718
0.24872
0.251894
0.24751
0.239052
0.249499
0.245204
0.245853
0.256408
0.255759
0.253277
0.253968
0.248278
0.245574
0.243479
0.245357
0.250023
0.253046
0.253621
0.250777
0.250337
0.256127
0.256602
0.251207
0.249781
0.246869
0.247528
0.249342
0.246668
0.249855
0.247803
0.252559
0.258664
0.250395
0.25749
0.254519
0.257914
0.253755
0.257177
0.252967
0.253822
0.246659
0.25097
0.261542
0.257638
0.260289
0.252146
0.256173
0.243822
0.250701
0.246585
0.239313
0.245939
0.241759
0.249302
0.243808
0.24317
0.247921
0.237999
0.23902
0.241007
0.239409
0.243363
0.240457
0.248703
0.239172
0.263805
0.262668
0.258836
0.26207
0.265981
0.262687
0.260295
0.25992
0.256266
0.260459
0.259569
0.256535
0.25768
0.258373
0.263423
0.256548
0.251127
0.254312
0.261693
0.258549
0.251983
0.25901
0.256596
0.258961
0.253441
0.259377
0.255656
0.252577
0.262265
0.259692
0.25055
0.261314
0.248821
0.242287
0.243356
0.241199
0.246443
0.246122
0.247969
0.247096
0.25432
0.252745
0.245874
0.262478
0.264801
0.27615
0.270233
0.270763
0.267993
0.272561
0.261746
0.258325
0.255503
0.259483
0.260451
0.267353
0.259992
0.262494
0.258506
0.259896
0.256326
0.267338
0.263359
0.269698
0.269063
0.266845
0.260316
0.261991
0.26594
0.263976
0.265544
0.25854
0.259641
0.264691
0.263773
0.267988
0.266067
0.259252
0.253419
0.25746
0.257539
0.257847
0.257514
0.265147
0.259948
0.254832
0.253249
0.258749
0.258052
0.2598
0.253816
0.262337
0.260629
0.257748
0.260583
0.253611
0.259253
0.27161
0.268238
0.262621
0.265729
0.265222
0.263403
0.260656
0.259605
0.257075
0.261181
0.263066
0.259229
0.269131
0.268348
0.262902
0.267834
0.263165
0.267076
0.265482
0.264262
0.262246
0.25617
0.260426
0.256473
0.259584
0.257489
0.258539
0.254107
0.256621
0.250619
0.253474
0.256391
0.249362
0.250354
0.246979
0.240691
0.241973
0.250362
0.244331
0.254905
0.2478
0.256863
0.255115
0.267964
0.261082
0.257292
0.265749
0.258965
0.265691
0.261954
0.257325
0.263529
0.266658
0.263263
0.258093
0.260365
0.261771
0.262132
0.254747
0.260769
0.25931
0.249317
0.248095
0.271935
0.263764
0.260999
0.270351
0.266617
0.267366
0.265155
0.261271
0.257055
0.263226
0.262079
0.264219
0.255091
0.25178
0.261345
0.263825
0.259819
0.262384
0.259836
0.26459
0.258878
0.260558
0.262371
0.257697
0.258033
0.258727
0.261493
0.263075
0.281351
0.28302
0.273154
0.275592
0.280777
0.276614
0.27325
0.278352
0.281525
0.279583
0.278412
0.270463
0.272118
0.270216
0.274103
0.272297
0.27682
0.272297
0.27217
0.26983
0.270033
0.264126
0.267004
0.265809
0.267203
0.264609
0.269431
0.264304
0.267747
0.273191
0.277603
0.281955
0.271977
0.275996
0.260906
0.258831
0.270413
0.265356
0.265762
0.262765
0.268306
0.265275
0.268328
0.276456
0.273077
0.27204
0.272616
0.284619
0.280037
0.27982
0.278789
0.281021
0.279749
0.280718
0.28315
0.284828
0.28391
0.282042
0.273136
0.282085
0.282899
0.273652
0.274586
0.265304
0.268646
0.254657
0.283659
0.257905
0.256784
0.258989
0.261608
0.268143
0.271226
0.25447
0.254339
0.272213
0.275736
0.276523
0.276631
0.278494
0.273641
0.276734
0.275836
0.262983
0.265718
0.258246
0.267348
0.259587
0.260506
0.255032
0.268469
0.262284
0.261252
0.263978
0.255655
0.258767
0.259113
0.262812
0.263735
0.258651
0.27397
0.271921
0.267038
0.266861
0.266038
0.270568
0.275291
0.274926
0.278129
0.272852
0.276064
0.277125
0.273677
0.274631
0.272258
0.275642
0.268257
0.266974
0.268617
0.265719
0.272635
0.271717
0.273813
0.271797
0.270243
0.269351
0.263441
0.262822
0.272387
0.268357
0.277777
0.276462
0.27189
0.280046
0.2749
0.274749
0.277346
0.274174
0.280637
0.275633
0.258164
0.254198
0.262442
0.262048
0.25844
0.260131
0.26065
0.256609
0.251384
0.251359
0.260502
0.252651
0.259334
0.260011
0.262854
0.262457
0.264402
0.260183
0.242204
0.243319
0.243544
0.245353
0.260976
0.256137
0.251558
0.250626
0.251893
0.24959
0.253562
0.250841
0.253773
0.254734
0.247881
0.242807
0.259549
0.265081
0.259061
0.248847
0.246526
0.255019
0.251147
0.257501
0.255667
0.256821
0.264207
0.265985
0.257865
0.253421
0.259908
0.260643
0.260336
0.257784
0.250697
0.250306
0.253189
0.25813
0.253089
0.246274
0.243777
0.253575
0.254361
0.277587
0.274914
0.269799
0.277015
0.276423
0.279282
0.272257
0.276011
0.281548
0.274246
0.271597
0.271373
0.276655
0.261866
0.269292
0.267029
0.266208
0.261757
0.268977
0.26201
0.259901
0.260032
0.267406
0.265742
0.263829
0.263477
0.277841
0.276226
0.274647
0.2785
0.275978
0.271468
0.26987
0.273845
0.274135
0.270254
0.273338
0.270127
0.262544
0.255994
0.259846
0.255736
0.261472
0.25995
0.257991
0.256857
0.256666
0.257047
0.258743
0.249999
0.247729
0.248953
0.255953
0.253551
0.252769
0.25015
0.256731
0.255509
0.264135
0.267569
0.266047
0.264928
0.272677
0.271194
0.271859
0.273167
0.272641
0.267511
0.266195
0.250009
0.25192
0.257955
0.256599
0.259052
0.258935
0.257633
0.257861
0.257263
0.245305
0.247541
0.249049
0.253513
0.24077
0.244675
0.250735
0.24838
0.248414
0.242698
0.246004
0.245328
0.241634
0.23989
0.247898
0.244289
0.246018
0.246312
0.251929
0.249791
0.255654
0.250645
0.242323
0.24163
0.245697
0.252817
0.251428
0.249278
0.245086
0.248083
0.249637
0.248368
0.255174
0.251307
0.249536
0.256341
0.250826
0.250779
0.257198
0.251875
0.249084
0.251588
0.251487
0.251163
0.247793
0.2445
0.24496
0.241797
0.249561
0.248658
0.2464
0.247697
0.245199
0.247202
0.24671
0.242973
0.249858
0.25063
0.250786
0.238037
0.238977
0.248203
0.245689
0.246102
0.241946
0.246767
0.247102
0.246556
0.250024
0.249219
0.251504
0.249608
0.254747
0.246848
0.24932
0.253527
0.251437
0.249919
0.250289
0.249836
0.253165
0.25466
0.247808
0.245379
0.253138
0.255883
0.255863
0.246929
0.252513
0.252257
0.25118
0.248844
0.252107
0.25501
0.255529
0.257353
0.257066
0.257561
0.25592
0.238952
0.246456
0.242775
0.249507
0.241984
0.238053
0.233451
0.240523
0.243072
0.245437
0.24738
0.243758
0.244604
0.248894
0.243861
0.239621
0.248957
0.24473
0.241287
0.237575
0.241738
0.236029
0.242975
0.240995
0.242165
0.239619
0.24408
0.242036
0.239887
0.242946
0.24369
0.243629
0.251992
0.247571
0.245206
0.244782
0.242212
0.246236
0.244551
0.243518
0.240974
0.252866
0.246982
0.250593
0.243983
0.2501
0.249536
0.239823
0.244675
0.243989
0.240074
0.245193
0.240755
0.245414
0.250139
0.246517
0.249593
0.248712
0.24927
0.245545
0.248505
0.246392
0.236192
0.240036
0.232344
0.236133
0.23834
0.23407
0.236202
0.237117
0.239098
0.236277
0.24098
0.239226
0.240757
0.239881
0.237294
0.242997
0.243493
0.23516
0.238527
0.224076
0.225081
0.231241
0.227919
0.224984
0.22371
0.227659
0.22438
0.222869
0.231826
0.227987
0.24349
0.240698
0.23999
0.236044
0.238066
0.233585
0.239284
0.23631
0.235968
0.234723
0.234294
0.232449
0.23877
0.237233
0.246398
0.246422
0.239204
0.243467
0.246443
0.243473
0.244519
0.243963
0.242083
0.23989
0.225929
0.228213
0.23309
0.23036
0.232818
0.232705
0.235305
0.233883
0.236023
0.237291
0.234486
0.236747
0.23
0.230717
0.226869
0.229725
0.229889
0.22946
0.228014
0.229115
0.233979
0.234416
0.236358
0.233238
0.233746
0.241369
0.236838
0.232621
0.242593
0.238833
0.234381
0.234366
0.234537
0.235346
0.238307
0.23864
0.238314
0.228145
0.22761
0.23212
0.228405
0.228994
0.225884
0.233058
0.229315
0.224259
0.235614
0.23205
0.233451
0.230131
0.229194
0.226617
0.227083
0.229918
0.222742
0.225922
0.22387
0.232018
0.228806
0.22979
0.234665
0.241857
0.22619
0.228084
0.228644
0.22633
0.231953
0.232157
0.239167
0.237368
0.233603
0.240643
0.239018
0.235379
0.238918
0.236402
0.235222
0.242487
0.239567
0.238087
0.236523
0.235052
0.237251
0.230075
0.232482
0.230901
0.227147
0.224806
0.227135
0.223551
0.22191
0.222918
0.221993
0.225181
0.224936
0.22451
0.211046
0.219437
0.232508
0.237778
0.22956
0.223997
0.237116
0.235105
0.240387
0.234984
0.239959
0.23101
0.214703
0.21384
0.220883
0.221462
0.219603
0.22227
0.23667
0.234165
0.225374
0.22816
0.232007
0.235658
0.232513
0.225356
0.227041
0.228766
0.228394
0.223003
0.220215
0.221849
0.227148
0.217429
0.223209
0.217945
0.220969
0.212083
0.225653
0.222209
0.22027
0.2169
0.206259
0.210139
0.212821
0.210097
0.217013
0.214154
0.211219
0.209966
0.209048
0.208025
0.219075
0.214305
0.220827
0.217563
0.220239
0.218036
0.229572
0.222002
0.220819
0.220443
0.21645
0.22249
0.217768
0.21926
0.225631
0.221687
0.216764
0.214582
0.215996
0.212259
0.213866
0.223998
0.223164
0.219699
0.225379
0.221015
0.228056
0.230536
0.226627
0.221632
0.232013
0.22828
0.22721
0.216151
0.21621
0.215433
0.208713
0.213856
0.212372
0.213611
0.21553
0.212379
0.21452
0.214903
0.216043
0.214209
0.218589
0.218355
0.217304
0.212218
0.211237
0.211447
0.214767
0.218384
0.218712
0.211407
0.221545
0.215814
0.216449
0.2159
0.222909
0.221024
0.220699
0.221484
0.228156
0.218701
0.22285
0.221557
0.218225
0.221695
0.223394
0.198065
0.206239
0.20217
0.196226
0.201012
0.198496
0.206772
0.201892
0.203824
0.204282
0.201089
0.208008
0.206059
0.19364
0.194913
0.204529
0.203791
0.202706
0.197786
0.200565
0.210947
0.194775
0.201672
0.20347
0.201509
0.205391
0.20289
0.204479
0.201258
0.201898
0.203857
0.207927
0.216716
0.217862
0.215489
0.207534
0.203534
0.2127
0.207932
0.204481
0.20619
0.212076
0.206603
0.202392
0.190061
0.194308
0.197717
0.201162
0.202318
0.199093
0.196779
0.196332
0.19269
0.196456
0.197342
0.19919
0.221142
0.218264
0.218066
0.213088
0.209476
0.220807
0.214996
0.211558
0.219607
0.208539
0.210047
0.208742
0.206634
0.216372
0.21228
0.209011
0.208127
0.201387
0.202046
0.210378
0.204534
0.207013
0.210058
0.208204
0.20462
0.203849
0.209209
0.20518
0.200979
0.208661
0.202085
0.19596
0.204551
0.204678
0.204648
0.203616
0.207773
0.203948
0.195992
0.191085
0.209309
0.20611
0.209266
0.206932
0.205734
0.204491
0.204089
0.202687
0.213423
0.211755
0.212878
0.211715
0.209695
0.210053
0.218863
0.217652
0.20052
0.199493
0.200427
0.199988
0.191704
0.191552
0.196848
0.202967
0.205884
0.201338
0.201155
0.202051
0.203513
0.205804
0.205154
0.200595
0.20373
0.195581
0.203732
0.199624
0.200103
0.198784
0.197154
0.197075
0.191771
0.187828
0.189611
0.190561
0.1917
0.191762
0.191577
0.202185
0.199162
0.195175
0.202368
0.195949
0.201992
0.198625
0.199596
0.196354
0.202835
0.200744
0.201476
0.202556
0.1998
0.191886
0.192811
0.192229
0.220759
0.209242
0.215852
0.214585
0.214509
0.20464
0.200418
0.208683
0.210563
0.210515
0.20958
0.212705
0.206079
0.210712
0.214475
0.212237
0.212625
0.211731
0.219373
0.222939
0.216899
0.214004
0.229786
0.22903
0.228791
0.234653
0.23444
0.231967
0.234329
0.230535
0.239293
0.233077
0.241043
0.235188
0.234385
0.236777
0.237343
0.237387
0.233997
0.234314
0.229805
0.242005
0.239688
0.228973
0.224244
0.235696
0.225167
0.226291
0.229882
0.226135
0.227583
0.229832
0.229651
0.226223
0.233264
0.235566
0.231793
0.237766
0.233002
0.231129
0.233813
0.237568
0.230684
0.249735
0.245129
0.239763
0.24357
0.250414
0.245012
0.246555
0.245758
0.239592
0.241379
0.247687
0.247577
0.263195
0.264147
0.263922
0.264659
0.266089
0.264555
0.27206
0.266173
0.235177
0.234604
0.235985
0.234864
0.237622
0.228621
0.231254
0.232915
0.230492
0.236501
0.231548
0.235288
0.232059
0.22869
0.236214
0.235992
0.228045
0.241937
0.236469
0.234714
0.24034
0.236518
0.231329
0.230607
0.229942
0.237316
0.227751
0.225733
0.234687
0.234837
0.197891
0.186393
0.190639
0.191093
0.188531
0.193659
0.193468
0.19003
0.193597
0.196456
0.194798
0.19572
0.198533
0.198454
0.205117
0.203385
0.2067
0.205097
0.201857
0.204728
0.201666
0.203735
0.209013
0.206929
0.201806
0.209369
0.205525
0.201117
0.202014
0.201612
0.201651
0.203252
0.198953
0.196925
0.194633
0.198982
0.204469
0.206213
0.208263
0.205942
0.209822
0.207859
0.206528
0.205135
0.206607
0.206302
0.206537
0.203654
0.205011
0.203929
0.197532
0.196195
0.197504
0.207706
0.201586
0.200241
0.191157
0.204378
0.199438
0.198117
0.207965
0.203741
0.195845
0.197509
0.199245
0.195185
0.193573
0.19623
0.200399
0.193899
0.192291
0.199412
0.201949
0.198761
0.20373
0.205841
0.210154
0.213177
0.210425
0.210231
0.209508
0.204827
0.214686
0.21018
0.209896
0.207745
0.209862
0.204245
0.211633
0.20231
0.2014
0.210128
0.204554
0.204411
0.207476
0.205453
0.204335
0.203216
0.204959
0.200315
0.208372
0.210403
0.21345
0.205339
0.211667
0.209127
0.204002
0.204535
0.206024
0.202949
0.208395
0.208494
0.218693
0.215147
0.213043
0.213186
0.210487
0.218176
0.215885
0.217064
0.22109
0.215375
0.214574
0.215488
0.199277
0.201262
0.200603
0.202335
0.205117
0.211302
0.207809
0.20775
0.207788
0.205203
0.212364
0.214545
0.21112
0.216465
0.211006
0.216689
0.214183
0.218661
0.215934
0.21267
0.219522
0.218349
0.223163
0.227425
0.221632
0.220153
0.219817
0.218849
0.223039
0.226575
0.219088
0.21802
0.219889
0.223158
0.221813
0.223504
0.224862
0.219807
0.220708
0.217401
0.217227
0.22538
0.225283
0.209916
0.214255
0.213615
0.218864
0.21316
0.216094
0.217985
0.210024
0.21196
0.220094
0.220732
0.224782
0.224257
0.225688
0.22343
0.223798
0.226617
0.220634
0.220164
0.216434
0.22696
0.227626
0.2233
0.220935
0.221874
0.22329
0.223805
0.220602
0.222511
0.209735
0.21413
0.215788
0.211287
0.217936
0.216501
0.21238
0.212603
0.218509
0.225348
0.217112
0.22093
0.222647
0.224506
0.219267
0.217153
0.217874
0.216731
0.21526
0.212626
0.21763
0.221853
0.222784
0.216766
0.21932
0.22085
0.220028
0.217548
0.221794
0.220252
0.225431
0.224999
0.223334
0.214752
0.215931
0.209622
0.216626
0.211858
0.21766
0.216018
0.211091
0.212684
0.219418
0.216028
0.222009
0.222717
0.219722
0.222302
0.220681
0.226462
0.225757
0.223643
0.222006
0.225458
0.221809
0.219067
0.221856
0.226342
0.222905
0.226021
0.227817
0.227262
0.236138
0.239317
0.232419
0.237291
0.23602
0.236102