/*--------------------------------*- C++ -*----------------------------------*\
| =========                 |                                                 |
| \\      /  F ield         | OpenFOAM: The Open Source CFD Toolbox           |
|  \\    /   O peration     | Version:  v1612+                                |
|   \\  /    A nd           | Web:      www.OpenFOAM.com                      |
|    \\/     M anipulation  |                                                 |
\*---------------------------------------------------------------------------*/
FoamFile
{
    version     2.0;
    format      ascii;
    class       volVectorField;
    location    "150";
    object      wallShearStress;
}
// * * * * * * * * * * * * * * * * * * * * * * * * * * * * * * * * * * * * * //

dimensions      [0 2 -2 0 0 0 0];

internalField   uniform (0 0 0);

boundaryField
{
    WALL
    {
        type            calculated;
        value           nonuniform List<vector> 
1500
(
(-0.0117198 -0.0104324 -0.00223123)
(-0.0110131 -0.0102262 -0.00251124)
(-0.00692247 -0.0080327 -0.0035111)
(-0.00874845 -0.0098963 -0.00428008)
(-0.0120385 -0.0150383 -0.00488751)
(-0.0124103 -0.0155726 -0.00504108)
(-0.0123273 -0.0137017 -0.00610419)
(-0.0113043 -0.0136764 -0.004925)
(-0.0150735 -0.0176469 -0.00658629)
(-0.0135115 -0.0185554 -0.00496197)
(-0.00750166 -0.00810547 -0.00325547)
(-0.00780087 -0.00823548 -0.00346973)
(-0.00798779 -0.0136194 -0.00522631)
(-0.00875852 -0.0138792 -0.00547942)
(-0.00665939 -0.00807743 -0.00271236)
(-0.0066473 -0.00829919 -0.00266836)
(-0.00708078 -0.00914042 -0.00214888)
(-0.00755704 -0.00959449 -0.00287266)
(-0.0101753 -0.0133582 -0.00544238)
(-0.00962262 -0.0143234 -0.00652779)
(-0.0102361 -0.0136988 -0.00611003)
(-0.0108149 -0.0144709 -0.00554122)
(-0.0111997 -0.0171313 -0.00349146)
(-0.0123151 -0.0175988 -0.00395014)
(-0.0125842 -0.0161117 -0.00485532)
(-0.0119854 -0.0165533 -0.00460734)
(-0.0119686 -0.0164041 -0.00630779)
(-0.0113715 -0.0149624 -0.00538448)
(-0.0133285 -0.0163138 -0.00517955)
(-0.0138575 -0.0152523 -0.00431346)
(-0.0129649 -0.0121636 -0.00328808)
(-0.0138603 -0.0131984 -0.00341618)
(-0.00914958 -0.0111541 -0.00414468)
(-0.00942313 -0.0118393 -0.00318197)
(-0.0118067 -0.0138285 -0.00227859)
(-0.0115561 -0.0126776 -0.00215296)
(-0.0107496 -0.0139761 -0.00591847)
(-0.0100397 -0.0138098 -0.00608514)
(-0.00819598 -0.0114908 -0.00491439)
(-0.00936004 -0.0132021 -0.00589988)
(-0.00916736 -0.0131953 -0.00590579)
(-0.00860642 -0.0120166 -0.00511632)
(-0.00995437 -0.0146889 -0.00678477)
(-0.00851031 -0.0139473 -0.00629459)
(-0.0119919 -0.0152424 -0.00717705)
(-0.0105156 -0.0147309 -0.00725448)
(-0.00806515 -0.0108608 -0.0036326)
(-0.00733458 -0.00948814 -0.00333829)
(-0.0118229 -0.0123582 -0.00163135)
(-0.0129501 -0.0138416 -0.00301974)
(-0.0075673 -0.011328 -0.00321975)
(-0.00652656 -0.0105979 -0.00314446)
(-0.00808936 -0.0131 -0.00467999)
(-0.00823675 -0.0132028 -0.00492195)
(-0.00727521 -0.0119799 -0.00374995)
(-0.0073778 -0.0118631 -0.00360099)
(-0.010645 -0.0128379 -0.00369644)
(-0.0113232 -0.0140964 -0.00499844)
(-0.0101943 -0.0144273 -0.0069941)
(-0.0108256 -0.0147589 -0.00637657)
(-0.0137274 -0.0171874 -0.00564164)
(-0.0137184 -0.0164931 -0.00590465)
(-0.011898 -0.0158154 -0.00568299)
(-0.0105771 -0.0151311 -0.00645186)
(-0.0109253 -0.0148011 -0.00594559)
(-0.0111769 -0.0158428 -0.00730465)
(-0.00773458 -0.00769304 -0.00315191)
(-0.00740913 -0.00742213 -0.00313586)
(-0.00755909 -0.00716188 -0.00311744)
(-0.0070388 -0.00655057 -0.00287146)
(-0.00773986 -0.00730063 -0.00335848)
(-0.0124838 -0.0154131 -0.00516004)
(-0.0124233 -0.0157689 -0.00514236)
(-0.0125457 -0.0165039 -0.00521604)
(-0.0121509 -0.0159655 -0.00530243)
(-0.0126542 -0.0160641 -0.00543395)
(-0.0119176 -0.0160148 -0.0052562)
(-0.0118135 -0.0142632 -0.00591815)
(-0.0127463 -0.0152895 -0.00607348)
(-0.0123755 -0.0151912 -0.00609965)
(-0.0133339 -0.0159411 -0.0063801)
(-0.0121964 -0.0150597 -0.00548875)
(-0.0127118 -0.0152101 -0.0053412)
(-0.0102566 -0.014465 -0.00613145)
(-0.0102592 -0.0148618 -0.00747802)
(-0.0105858 -0.0144412 -0.00663533)
(-0.0100695 -0.0135134 -0.00575403)
(-0.01076 -0.0152243 -0.00664424)
(-0.0103191 -0.0144298 -0.0058396)
(-0.011364 -0.0150928 -0.00563709)
(-0.0116821 -0.0154916 -0.0057342)
(-0.0107712 -0.0152261 -0.00602467)
(-0.0112173 -0.0152405 -0.00606292)
(-0.0130945 -0.0164839 -0.0052751)
(-0.0124401 -0.0165837 -0.00485827)
(-0.0129438 -0.0168161 -0.00506442)
(-0.0125891 -0.0161739 -0.00497896)
(-0.0128231 -0.0163391 -0.00516855)
(-0.0127489 -0.0166547 -0.00504587)
(-0.0135759 -0.0160979 -0.00563208)
(-0.0132694 -0.0162845 -0.00569162)
(-0.0142098 -0.0164089 -0.00679445)
(-0.0140134 -0.0167282 -0.00633848)
(-0.0135572 -0.0159589 -0.00654893)
(-0.0113309 -0.0109526 -0.00342342)
(-0.0129935 -0.0121824 -0.00368025)
(-0.0130106 -0.0118792 -0.00331468)
(-0.0120982 -0.0118459 -0.0039848)
(-0.0103507 -0.0101092 -0.00351109)
(-0.00953747 -0.0122185 -0.00345086)
(-0.0103081 -0.0127914 -0.00419381)
(-0.00962048 -0.0118046 -0.00387084)
(-0.0104675 -0.0130531 -0.00429937)
(-0.00968236 -0.0118329 -0.00407978)
(-0.00961614 -0.0114821 -0.00452284)
(-0.0128054 -0.0142696 -0.00330707)
(-0.0116289 -0.0139939 -0.00422401)
(-0.012246 -0.0139395 -0.00361971)
(-0.0127495 -0.014287 -0.00368811)
(-0.0130523 -0.0152027 -0.00431862)
(-0.0126611 -0.0142622 -0.00372623)
(-0.0120682 -0.0120566 -0.000718637)
(-0.0132996 -0.0138005 -0.00132758)
(-0.0121668 -0.013407 -0.0011101)
(-0.01185 -0.0133942 -0.00207853)
(-0.00623101 -0.00800871 -0.00252653)
(-0.00574147 -0.00716207 -0.00239282)
(-0.00614114 -0.00829373 -0.00238761)
(-0.00698151 -0.00849557 -0.00279479)
(-0.00545025 -0.00991001 -0.00261689)
(-0.00562612 -0.00910475 -0.00232283)
(-0.00489141 -0.00729154 -0.00197649)
(-0.00580634 -0.00937154 -0.00275452)
(-0.00531587 -0.00854913 -0.00222006)
(-0.00511904 -0.00752774 -0.00191567)
(-0.00510739 -0.00743563 -0.00200067)
(-0.0123928 -0.0162436 -0.00584645)
(-0.0116974 -0.0155387 -0.00586669)
(-0.0115455 -0.0163185 -0.0063281)
(-0.0124203 -0.0163632 -0.00646835)
(-0.0119909 -0.0160311 -0.00579656)
(-0.0123728 -0.0164924 -0.0061987)
(-0.0129525 -0.0168005 -0.00557728)
(-0.0126797 -0.016293 -0.00546055)
(-0.0125043 -0.0157454 -0.00519649)
(-0.0111369 -0.0154929 -0.00620975)
(-0.0117264 -0.0155714 -0.00570443)
(-0.0129107 -0.0165839 -0.00603882)
(-0.0113948 -0.0157837 -0.00634966)
(-0.0110836 -0.0142945 -0.00474756)
(-0.0114883 -0.0146156 -0.00534493)
(-0.0121365 -0.015913 -0.0060537)
(-0.0122927 -0.0148928 -0.00496831)
(-0.0100016 -0.013751 -0.00604566)
(-0.0119093 -0.0152137 -0.00542392)
(-0.00938205 -0.00970568 -0.00312624)
(-0.0088138 -0.0100384 -0.00347934)
(-0.0125385 -0.0109051 -0.00170647)
(-0.0125653 -0.011324 -0.00158035)
(-0.0132892 -0.0120432 -0.000946443)
(-0.0109345 -0.00984328 -0.00233918)
(-0.0120639 -0.0109136 -0.00199147)
(-0.0113408 -0.0103233 -0.00210777)
(-0.01332 -0.012549 -0.00166827)
(-0.012592 -0.0110996 -0.00127558)
(-0.00599529 -0.0070855 -0.00248964)
(-0.00602486 -0.00708094 -0.00268432)
(-0.00509425 -0.00612435 -0.00203406)
(-0.0053742 -0.00690763 -0.0022059)
(-0.00640391 -0.00727853 -0.00297057)
(-0.00533062 -0.00660615 -0.00208451)
(-0.00503952 -0.00708819 -0.00186777)
(-0.0056105 -0.00835904 -0.0021837)
(-0.00512933 -0.00691669 -0.0019916)
(-0.00559787 -0.00814244 -0.0020647)
(-0.00530563 -0.00842791 -0.00204449)
(-0.00497386 -0.00736213 -0.00190211)
(-0.00773721 -0.0123989 -0.00408564)
(-0.00766308 -0.012132 -0.00389186)
(-0.0074573 -0.0115978 -0.00355784)
(-0.00770506 -0.0119057 -0.00379064)
(-0.00705223 -0.011864 -0.00361881)
(-0.00733014 -0.0111805 -0.00332867)
(-0.00905692 -0.0105529 -0.00407436)
(-0.00903831 -0.0110108 -0.004515)
(-0.00837805 -0.0100138 -0.00412904)
(-0.00841303 -0.00984297 -0.00430804)
(-0.00865195 -0.0100908 -0.00535964)
(-0.00794789 -0.00898765 -0.00403952)
(-0.00742013 -0.00837665 -0.00395358)
(-0.00768523 -0.00925115 -0.00400886)
(-0.00744269 -0.0080865 -0.00409705)
(-0.00791448 -0.00910504 -0.00428293)
(-0.00809599 -0.00927386 -0.0049955)
(-0.0101753 -0.0120667 -0.00612831)
(-0.00879085 -0.0109368 -0.00530843)
(-0.00883813 -0.010777 -0.00582476)
(-0.0087758 -0.0104476 -0.0043432)
(-0.00901053 -0.0105324 -0.00550049)
(-0.0090527 -0.0111578 -0.00478053)
(-0.00812606 -0.00963624 -0.00437095)
(-0.00851049 -0.00992891 -0.00529455)
(-0.00860964 -0.0100706 -0.00534807)
(-0.00773559 -0.00905401 -0.00349091)
(-0.00718429 -0.00848704 -0.00345259)
(-0.00795782 -0.00938416 -0.00416767)
(-0.0100926 -0.0134318 -0.00667135)
(-0.00949033 -0.0120798 -0.00561831)
(-0.00972368 -0.0128703 -0.00678444)
(-0.0108376 -0.0136698 -0.00573633)
(-0.0108752 -0.014388 -0.00682489)
(-0.010635 -0.0138954 -0.00577221)
(-0.00947244 -0.0121105 -0.00667375)
(-0.00938116 -0.0116277 -0.00553019)
(-0.00939716 -0.0118358 -0.00570155)
(-0.0106213 -0.0126988 -0.00577781)
(-0.0086376 -0.0104225 -0.00528551)
(-0.00888302 -0.0104267 -0.00593355)
(-0.00896008 -0.0110173 -0.00508136)
(-0.0091813 -0.0114219 -0.00593796)
(-0.0105133 -0.0131726 -0.00637674)
(-0.0102889 -0.0134176 -0.00589054)
(-0.00930175 -0.0118493 -0.00565633)
(-0.00899982 -0.0111566 -0.00602218)
(-0.0105939 -0.0140395 -0.00622993)
(-0.00977426 -0.0129033 -0.00605982)
(-0.0103282 -0.0141091 -0.00671355)
(-0.010557 -0.0138547 -0.00611682)
(-0.0105792 -0.0144569 -0.00658765)
(-0.0106924 -0.013672 -0.0064211)
(-0.0124458 -0.0109057 -0.00150401)
(-0.0129457 -0.0119735 -0.00213364)
(-0.0137335 -0.0125182 -0.00178581)
(-0.0134911 -0.0125136 -0.00163835)
(-0.0128061 -0.0113119 -0.002137)
(-0.0126532 -0.0113099 -0.00225915)
(-0.0060751 -0.00701041 -0.00226043)
(-0.00621686 -0.00793071 -0.00258267)
(-0.00590865 -0.00713162 -0.00237761)
(-0.00625089 -0.00769104 -0.00247063)
(-0.0106716 -0.0143214 -0.00640717)
(-0.0112992 -0.0149858 -0.00722737)
(-0.011983 -0.0149349 -0.00612457)
(-0.0117006 -0.0149239 -0.0069775)
(-0.0112695 -0.0144065 -0.00656668)
(-0.011826 -0.0153512 -0.00678165)
(-0.00898952 -0.0140251 -0.00638936)
(-0.00989105 -0.0151228 -0.00717279)
(-0.00765919 -0.0127975 -0.00562033)
(-0.00893386 -0.0136287 -0.00589099)
(-0.00942263 -0.014561 -0.00742757)
(-0.00913708 -0.0142016 -0.00712708)
(-0.00867435 -0.011527 -0.00437772)
(-0.0082911 -0.0114375 -0.00444975)
(-0.00746371 -0.0110535 -0.0043701)
(-0.0117002 -0.0131745 -0.00147839)
(-0.0109621 -0.0128399 -0.00225731)
(-0.0124106 -0.0133522 -0.0011134)
(-0.0116549 -0.0131901 -0.00214089)
(-0.0116527 -0.0140931 -0.00178506)
(-0.0123686 -0.0141746 -0.00199313)
(-0.0120712 -0.0131131 -0.00224267)
(-0.0125587 -0.0130045 -0.00124597)
(-0.0124055 -0.0121498 -0.00143758)
(-0.0133231 -0.0136977 -0.00212574)
(-0.0124145 -0.0128897 -0.00126028)
(-0.0127175 -0.0129844 -0.00191881)
(-0.0109754 -0.0132355 -0.00374708)
(-0.0117032 -0.013402 -0.00339981)
(-0.0114661 -0.0135154 -0.00273908)
(-0.0123268 -0.0133656 -0.00222746)
(-0.0119621 -0.0136492 -0.00319341)
(-0.0101531 -0.0127575 -0.00379658)
(-0.0102655 -0.0128498 -0.00241708)
(-0.0107455 -0.0130608 -0.00267887)
(-0.00941538 -0.0118851 -0.00326555)
(-0.00993171 -0.0122875 -0.00309413)
(-0.0109214 -0.013295 -0.00311489)
(-0.0103928 -0.0127785 -0.00285222)
(-0.010715 -0.0135465 -0.00306092)
(-0.0119596 -0.0142078 -0.00234112)
(-0.0115375 -0.014271 -0.00247596)
(-0.0111363 -0.0135998 -0.00362185)
(-0.0105444 -0.0129419 -0.00257791)
(-0.0070442 -0.00914381 -0.00225863)
(-0.00765426 -0.00970322 -0.00241599)
(-0.00763865 -0.00955985 -0.00324396)
(-0.00708717 -0.0091318 -0.00244999)
(-0.00752995 -0.00876063 -0.00310404)
(-0.00762846 -0.00998644 -0.00282888)
(-0.00850564 -0.0089869 -0.00394729)
(-0.0079857 -0.00815637 -0.00359846)
(-0.00793663 -0.00893833 -0.00348062)
(-0.0079756 -0.00834029 -0.00370048)
(-0.00798101 -0.00914304 -0.0035753)
(-0.00825518 -0.010343 -0.00257735)
(-0.0088037 -0.0109126 -0.00324798)
(-0.00804429 -0.00975617 -0.00344213)
(-0.00871289 -0.0107165 -0.00354119)
(-0.0084136 -0.0107569 -0.00285707)
(-0.00774413 -0.00945542 -0.00292796)
(-0.00885974 -0.0110215 -0.00351884)
(-0.00938494 -0.0113481 -0.00378335)
(-0.00867459 -0.0107968 -0.00388755)
(-0.00948264 -0.0118544 -0.00351887)
(-0.00901775 -0.0104229 -0.00428924)
(-0.00866812 -0.0104591 -0.00365104)
(-0.00897823 -0.0111466 -0.00367398)
(-0.00937468 -0.0115909 -0.00307437)
(-0.0087724 -0.0108833 -0.00328122)
(-0.00907247 -0.01127 -0.00351125)
(-0.00922615 -0.0114476 -0.00349146)
(-0.00840482 -0.0107076 -0.00299784)
(-0.00742716 -0.0112127 -0.00432924)
(-0.00744032 -0.011871 -0.0046077)
(-0.0074069 -0.0113997 -0.00424296)
(-0.00756497 -0.0126223 -0.00553277)
(-0.00780441 -0.012726 -0.00528234)
(-0.00809846 -0.0131394 -0.00541476)
(-0.00649084 -0.00683098 -0.00217468)
(-0.00627148 -0.00618394 -0.00208739)
(-0.00660703 -0.00643181 -0.00212067)
(-0.00656888 -0.00687437 -0.00219217)
(-0.00707753 -0.00676736 -0.00214537)
(-0.00651219 -0.00679676 -0.00223904)
(-0.0065175 -0.00721749 -0.00253171)
(-0.00639828 -0.00686628 -0.00248062)
(-0.00651954 -0.00657173 -0.00238283)
(-0.00672466 -0.00660463 -0.0025219)
(-0.0065931 -0.00718544 -0.00240867)
(-0.00621975 -0.00687073 -0.00235286)
(-0.00734088 -0.00909868 -0.00294593)
(-0.00736266 -0.00921411 -0.00314305)
(-0.00676848 -0.00785406 -0.00246515)
(-0.00695199 -0.00753342 -0.00235921)
(-0.00712704 -0.00872123 -0.00275406)
(-0.00687557 -0.00787992 -0.00252573)
(-0.0137736 -0.0146465 -0.00378907)
(-0.0137076 -0.013372 -0.00354874)
(-0.0134679 -0.0127929 -0.00293366)
(-0.0141459 -0.0146607 -0.00403576)
(-0.0139947 -0.0142007 -0.0036399)
(-0.00715489 -0.0110771 -0.00317894)
(-0.00733789 -0.0115904 -0.00308628)
(-0.00708288 -0.0101807 -0.00320276)
(-0.00755696 -0.0123243 -0.00318907)
(-0.00800786 -0.0103647 -0.00360477)
(-0.00804735 -0.0129683 -0.00335027)
(-0.0130552 -0.0169093 -0.00594732)
(-0.0132759 -0.0167392 -0.00568447)
(-0.0128396 -0.0165249 -0.00554816)
(-0.012643 -0.0162628 -0.0054279)
(-0.01269 -0.0161956 -0.00547002)
(-0.0125017 -0.0165371 -0.00568186)
(-0.0121062 -0.0166393 -0.00469693)
(-0.0112849 -0.015533 -0.00456852)
(-0.0134822 -0.017231 -0.00541835)
(-0.012038 -0.0164799 -0.00464592)
(-0.0121595 -0.0154193 -0.00502838)
(-0.00874025 -0.00991224 -0.00340444)
(-0.00782709 -0.0103926 -0.00348473)
(-0.00826787 -0.0103533 -0.00354887)
(-0.00931975 -0.00992907 -0.0034169)
(-0.00829375 -0.00997326 -0.00338916)
(-0.00737188 -0.00885176 -0.00297862)
(-0.0133132 -0.0161196 -0.0052172)
(-0.0125501 -0.0149982 -0.00480306)
(-0.0122496 -0.0145768 -0.00468854)
(-0.0130291 -0.0158328 -0.0052247)
(-0.0121937 -0.015487 -0.00507646)
(-0.0122377 -0.0148295 -0.00474392)
(-0.0111724 -0.0170458 -0.00338656)
(-0.00965307 -0.0159898 -0.00293811)
(-0.0108531 -0.0181374 -0.00316086)
(-0.0105767 -0.0166071 -0.00357047)
(-0.008955 -0.0148863 -0.00312594)
(-0.00941941 -0.0152828 -0.00344446)
(-0.0140872 -0.0187143 -0.0042648)
(-0.0128439 -0.017946 -0.00377298)
(-0.0138867 -0.0195028 -0.00433443)
(-0.0127554 -0.0191224 -0.00371193)
(-0.0124671 -0.0183766 -0.00342949)
(-0.0115748 -0.0166772 -0.00293172)
(-0.0130704 -0.0162259 -0.00693476)
(-0.0129009 -0.0158631 -0.00587865)
(-0.0139984 -0.0166963 -0.00589241)
(-0.0127249 -0.0155543 -0.00578376)
(-0.0117574 -0.0145638 -0.00610012)
(-0.0138864 -0.0173307 -0.00539921)
(-0.0123783 -0.0152383 -0.00589628)
(-0.0128933 -0.0154981 -0.00685312)
(-0.011711 -0.0146667 -0.00657085)
(-0.0137395 -0.0171901 -0.00614849)
(-0.0129579 -0.0155242 -0.00626165)
(-0.0122466 -0.0155378 -0.00738163)
(-0.0121962 -0.0152464 -0.00452445)
(-0.0138933 -0.0174402 -0.00553846)
(-0.0135655 -0.0166373 -0.00550942)
(-0.0134918 -0.0173211 -0.00400128)
(-0.0138857 -0.0166958 -0.00540322)
(-0.0134103 -0.0160992 -0.00609859)
(-0.0138975 -0.0174923 -0.00548857)
(-0.0127143 -0.0162148 -0.0065932)
(-0.0136554 -0.0163978 -0.0051185)
(-0.0124324 -0.0153292 -0.00529312)
(-0.0123338 -0.0150512 -0.00490552)
(-0.0120313 -0.0150035 -0.00589424)
(-0.0108239 -0.016833 -0.00312686)
(-0.0115712 -0.0171432 -0.00363739)
(-0.0123141 -0.018436 -0.00328247)
(-0.0100485 -0.0157222 -0.00331066)
(-0.0116289 -0.0169907 -0.00318231)
(-0.0122546 -0.0174351 -0.00349841)
(-0.0129113 -0.0168041 -0.00371837)
(-0.0126286 -0.0164275 -0.00437205)
(-0.0137037 -0.0166926 -0.00517343)
(-0.0135919 -0.0172888 -0.0040172)
(-0.0144751 -0.0179406 -0.00557614)
(-0.0131837 -0.0165107 -0.00386198)
(-0.00938609 -0.0137645 -0.00356235)
(-0.00976135 -0.0151439 -0.00361893)
(-0.00864359 -0.0138828 -0.00338502)
(-0.00922155 -0.0145725 -0.00330093)
(-0.00892425 -0.0131817 -0.00357249)
(-0.00815731 -0.0124842 -0.00334976)
(-0.00866097 -0.0112565 -0.0037425)
(-0.00831287 -0.0103226 -0.00350607)
(-0.00797269 -0.0103625 -0.00345855)
(-0.00878763 -0.0105357 -0.00367052)
(-0.0113576 -0.014892 -0.00522879)
(-0.0112503 -0.0153864 -0.00551654)
(-0.0117253 -0.0157738 -0.00558078)
(-0.0113951 -0.0155099 -0.00552125)
(-0.012135 -0.0155626 -0.00570582)
(-0.0110023 -0.0147858 -0.00558764)
(-0.0126791 -0.0162007 -0.00513127)
(-0.0122977 -0.0151367 -0.00494156)
(-0.0128692 -0.015595 -0.00544423)
(-0.0131375 -0.0156647 -0.00567443)
(-0.0125858 -0.0154046 -0.00521847)
(-0.0126027 -0.0152036 -0.00520739)
(-0.0128386 -0.0157 -0.00533366)
(-0.0126317 -0.0156116 -0.00515855)
(-0.012241 -0.0154964 -0.00505066)
(-0.0122821 -0.0149256 -0.00498539)
(-0.0123467 -0.0147768 -0.00500111)
(-0.0121435 -0.0154412 -0.00488088)
(-0.0117631 -0.0145015 -0.00483467)
(-0.0125595 -0.015659 -0.0050614)
(-0.0116612 -0.0142708 -0.00464593)
(-0.011992 -0.0144391 -0.00501063)
(-0.0121183 -0.0145543 -0.00506081)
(-0.0124196 -0.0146227 -0.00526565)
(-0.0122395 -0.0150672 -0.00510408)
(-0.0123843 -0.0150606 -0.00515878)
(-0.0107646 -0.0141311 -0.00644161)
(-0.0120358 -0.0155046 -0.00593154)
(-0.0116352 -0.0144276 -0.00621025)
(-0.0114732 -0.0142035 -0.00606806)
(-0.0106389 -0.0137295 -0.00627848)
(-0.0120484 -0.0149749 -0.00671467)
(-0.00916318 -0.0138802 -0.0060182)
(-0.00944569 -0.0136878 -0.00566574)
(-0.00854427 -0.0131995 -0.00516647)
(-0.00863841 -0.0134205 -0.00547514)
(-0.00869878 -0.0131434 -0.00551207)
(-0.00944477 -0.0138786 -0.00566884)
(-0.0127277 -0.015047 -0.0051807)
(-0.0110519 -0.0135772 -0.00557761)
(-0.0119702 -0.0144838 -0.00577528)
(-0.0121475 -0.014518 -0.00641031)
(-0.0118154 -0.0144516 -0.00535286)
(-0.0115763 -0.0140883 -0.00583111)
(-0.0115618 -0.013825 -0.00531569)
(-0.0112472 -0.0144055 -0.00587369)
(-0.0110054 -0.0137565 -0.00589234)
(-0.0107392 -0.0154641 -0.00772926)
(-0.0112261 -0.015347 -0.00666345)
(-0.010294 -0.0144665 -0.00723587)
(-0.00993892 -0.0140391 -0.00689205)
(-0.0104766 -0.0143954 -0.00709147)
(-0.0113915 -0.0147076 -0.00634176)
(-0.0112348 -0.0151618 -0.00654515)
(-0.0101767 -0.0148009 -0.00731034)
(-0.011017 -0.0144077 -0.00692229)
(-0.0106143 -0.0144473 -0.00610293)
(-0.0105755 -0.0138808 -0.00620393)
(-0.00945334 -0.0146832 -0.00690383)
(-0.00907467 -0.0143108 -0.00695768)
(-0.00940466 -0.0138333 -0.0062605)
(-0.0106402 -0.0151137 -0.00664634)
(-0.0109096 -0.0154762 -0.00705052)
(-0.0100253 -0.0149066 -0.00705434)
(-0.00672924 -0.00868158 -0.00233809)
(-0.00677999 -0.00831017 -0.00271389)
(-0.00659254 -0.0085875 -0.00234939)
(-0.00657298 -0.00832635 -0.00257416)
(-0.00663997 -0.00814004 -0.00243379)
(-0.00553283 -0.00691616 -0.00214469)
(-0.00560568 -0.00717591 -0.00208962)
(-0.00600701 -0.00737363 -0.00232694)
(-0.00593952 -0.00780148 -0.00195411)
(-0.00596175 -0.00736793 -0.00226689)
(-0.00587871 -0.00724947 -0.00220857)
(-0.0083256 -0.0101735 -0.00425971)
(-0.00782305 -0.0094515 -0.00277508)
(-0.0080631 -0.00950289 -0.00426499)
(-0.00865971 -0.0104346 -0.00448116)
(-0.0077535 -0.00966617 -0.00325574)
(-0.00836286 -0.010281 -0.00408885)
(-0.00674147 -0.012946 -0.00431222)
(-0.00747286 -0.0134266 -0.00492054)
(-0.00671223 -0.0124872 -0.00402958)
(-0.00679578 -0.0125473 -0.00417495)
(-0.00742855 -0.0132883 -0.0047061)
(-0.00748857 -0.0134245 -0.00477486)
(-0.00755683 -0.0127897 -0.00506024)
(-0.00699115 -0.0128684 -0.00479687)
(-0.0070349 -0.0125102 -0.00454905)
(-0.00773501 -0.0135718 -0.00566682)
(-0.00736997 -0.013733 -0.00547308)
(-0.00716655 -0.0125694 -0.00483318)
(-0.00716417 -0.00976418 -0.00324953)
(-0.0064561 -0.0102475 -0.0033843)
(-0.00654479 -0.00851087 -0.00282797)
(-0.00659589 -0.0108564 -0.00368044)
(-0.00664894 -0.00847659 -0.0025841)
(-0.00638783 -0.0088045 -0.002846)
(-0.00602605 -0.0111059 -0.0035869)
(-0.00609273 -0.0115283 -0.0036707)
(-0.00637013 -0.0112511 -0.00319895)
(-0.00518597 -0.00929584 -0.00272096)
(-0.00536149 -0.00964331 -0.0027503)
(-0.00622888 -0.00788127 -0.0024459)
(-0.00625393 -0.00746545 -0.00248651)
(-0.00643228 -0.00760122 -0.00266291)
(-0.00647419 -0.00773098 -0.00268117)
(-0.00605446 -0.00759065 -0.002356)
(-0.00591557 -0.00697948 -0.00234647)
(-0.00544136 -0.0067706 -0.0020894)
(-0.0051827 -0.00655518 -0.00196355)
(-0.00534935 -0.00681597 -0.00202558)
(-0.00566392 -0.00659767 -0.00229413)
(-0.00578338 -0.00696136 -0.00235268)
(-0.00622792 -0.00718995 -0.00245407)
(-0.00614463 -0.0072316 -0.00242225)
(-0.00575697 -0.00712261 -0.00226879)
(-0.00641046 -0.0070562 -0.00250388)
(-0.00602573 -0.00712953 -0.0023976)
(-0.00639109 -0.00721129 -0.00256233)
(-0.00842302 -0.0143366 -0.00593073)
(-0.00855032 -0.0143917 -0.00608446)
(-0.00835848 -0.0144081 -0.0058569)
(-0.00888812 -0.0143235 -0.00599748)
(-0.00880498 -0.0144722 -0.00634018)
(-0.0137206 -0.0164726 -0.00550254)
(-0.0124955 -0.0151535 -0.00524405)
(-0.0121809 -0.014781 -0.00510976)
(-0.0132819 -0.0156457 -0.00657235)
(-0.0140308 -0.0173061 -0.00612776)
(-0.0133587 -0.0154899 -0.00675881)
(-0.0133643 -0.0168164 -0.0057672)
(-0.012549 -0.0156762 -0.00508321)
(-0.012251 -0.0156376 -0.00498049)
(-0.0118499 -0.0155226 -0.00537749)
(-0.0118444 -0.0152669 -0.00523067)
(-0.0123741 -0.016063 -0.00529544)
(-0.0123105 -0.0158028 -0.00536501)
(-0.011897 -0.0154674 -0.0051958)
(-0.0117332 -0.0155876 -0.00544985)
(-0.0124281 -0.0165119 -0.00571317)
(-0.0116382 -0.0151955 -0.00525511)
(-0.0115971 -0.0152372 -0.00522197)
(-0.0122682 -0.0157287 -0.00525756)
(-0.0122086 -0.015259 -0.00518043)
(-0.0143276 -0.0178258 -0.00563949)
(-0.0125926 -0.0171432 -0.00474453)
(-0.0136016 -0.0172844 -0.00538093)
(-0.0138819 -0.018621 -0.00543484)
(-0.0124615 -0.016507 -0.00489329)
(-0.0121946 -0.0168425 -0.00429266)
(-0.0145038 -0.0175615 -0.00620292)
(-0.0136488 -0.0171185 -0.00515067)
(-0.0134119 -0.016773 -0.00557192)
(-0.0146188 -0.0179661 -0.00612551)
(-0.0139353 -0.0183169 -0.00515978)
(-0.0132839 -0.0170494 -0.00437482)
(-0.0146748 -0.0175131 -0.00603149)
(-0.0130394 -0.0163689 -0.00459975)
(-0.0143275 -0.0180369 -0.00542035)
(-0.0140408 -0.0183656 -0.00527158)
(-0.012641 -0.0164018 -0.00443423)
(-0.0139897 -0.0177248 -0.00453298)
(-0.0146655 -0.0182076 -0.00575755)
(-0.0134889 -0.0187103 -0.00445358)
(-0.00751287 -0.00729053 -0.00330874)
(-0.00770083 -0.00707867 -0.00322255)
(-0.00775647 -0.00774368 -0.00336872)
(-0.00746612 -0.00736322 -0.00304319)
(-0.00775183 -0.00779281 -0.00356557)
(-0.00804961 -0.0077406 -0.00369813)
(-0.00669233 -0.00624339 -0.0024667)
(-0.00638151 -0.00625442 -0.00219922)
(-0.0061383 -0.00573961 -0.00214184)
(-0.00664854 -0.00611233 -0.00258868)
(-0.00617748 -0.00606523 -0.00215103)
(-0.00650078 -0.0061022 -0.00231369)
(-0.0124673 -0.0152695 -0.00609218)
(-0.0111682 -0.0143449 -0.00609214)
(-0.0122905 -0.0153694 -0.0052751)
(-0.0121344 -0.0147289 -0.00504396)
(-0.0108862 -0.0143161 -0.00621254)
(-0.0128618 -0.0159503 -0.00687156)
(-0.00788611 -0.00981644 -0.0034517)
(-0.00820612 -0.0114427 -0.0042977)
(-0.00808034 -0.0106314 -0.00382183)
(-0.00904655 -0.0122011 -0.00458355)
(-0.00952366 -0.0127771 -0.00494136)
(-0.0117032 -0.0105165 -0.00273618)
(-0.010222 -0.00951474 -0.00274156)
(-0.0110892 -0.0102622 -0.00280234)
(-0.0100534 -0.0108381 -0.00359555)
(-0.0115131 -0.010609 -0.00279932)
(-0.00993176 -0.00973324 -0.00311803)
(-0.0089229 -0.0112596 -0.00510312)
(-0.0103914 -0.0134882 -0.00569589)
(-0.0096889 -0.0128337 -0.00618095)
(-0.00707124 -0.00659791 -0.0024362)
(-0.00635988 -0.00615462 -0.00232444)
(-0.0070255 -0.00676547 -0.00241105)
(-0.00670873 -0.00615289 -0.00253717)
(-0.0074308 -0.00724615 -0.00281382)
(-0.00722323 -0.00720168 -0.00284318)
(-0.00753148 -0.00788288 -0.0030633)
(-0.0073774 -0.00783722 -0.00312347)
(-0.00754708 -0.00839219 -0.00317459)
(-0.00779278 -0.00876135 -0.0035164)
(-0.00739648 -0.00828796 -0.00316764)
(-0.0121871 -0.0136872 -0.00451187)
(-0.0115968 -0.0169495 -0.00386917)
(-0.012401 -0.0177417 -0.00416819)
(-0.0110337 -0.0177439 -0.0034667)
(-0.0109982 -0.0168055 -0.00321701)
(-0.0123665 -0.0171969 -0.00349793)
(-0.0125354 -0.0182197 -0.00358473)
(-0.0135897 -0.0192023 -0.00441187)
(-0.0129997 -0.0187172 -0.00404785)
(-0.0130631 -0.0160932 -0.00561852)
(-0.0121135 -0.0144317 -0.00495841)
(-0.00608045 -0.00769343 -0.00219151)
(-0.00533605 -0.00649296 -0.00198783)
(-0.00585182 -0.0070567 -0.00233485)
(-0.00569047 -0.00725226 -0.00206007)
(-0.00637685 -0.00732133 -0.00266015)
(-0.0060902 -0.00728733 -0.00240361)
(-0.00511275 -0.00902077 -0.00228208)
(-0.00543595 -0.00858481 -0.00254381)
(-0.00492555 -0.00725821 -0.0020994)
(-0.00598038 -0.00801401 -0.00245373)
(-0.0058512 -0.00749389 -0.00228089)
(-0.00618686 -0.00761862 -0.00237992)
(-0.00595613 -0.00787432 -0.00247824)
(-0.00632878 -0.00710957 -0.00244943)
(-0.00651193 -0.00816139 -0.00268094)
(-0.00713137 -0.0120683 -0.00446989)
(-0.00737652 -0.0137658 -0.00518593)
(-0.00680148 -0.0125778 -0.00456371)
(-0.00750145 -0.013327 -0.00514934)
(-0.0083466 -0.0136294 -0.00553579)
(-0.00679473 -0.0125007 -0.00413759)
(-0.00592659 -0.00719254 -0.00234338)
(-0.00604174 -0.00750833 -0.00219459)
(-0.00598028 -0.00753189 -0.00210296)
(-0.00584973 -0.00747023 -0.00226535)
(-0.00627965 -0.00787713 -0.00253139)
(-0.0065986 -0.00789898 -0.00264909)
(-0.00607447 -0.00818516 -0.00206838)
(-0.00604136 -0.00766319 -0.00237507)
(-0.00513448 -0.00700356 -0.00199559)
(-0.00520387 -0.00711723 -0.00208349)
(-0.00566458 -0.00677563 -0.00217025)
(-0.00519424 -0.00654765 -0.00197647)
(-0.00525352 -0.0064511 -0.00202877)
(-0.00518219 -0.00643369 -0.00192311)
(-0.00533648 -0.00683051 -0.00201092)
(-0.00524438 -0.00650581 -0.00193013)
(-0.00523291 -0.00636147 -0.00208295)
(-0.00572431 -0.00643306 -0.00255941)
(-0.00597582 -0.00658013 -0.00256416)
(-0.00557917 -0.00677879 -0.00209025)
(-0.00536232 -0.00648345 -0.00204457)
(-0.00539583 -0.00669524 -0.00197478)
(-0.00979867 -0.0145275 -0.00614506)
(-0.00983 -0.0143167 -0.00647545)
(-0.0115282 -0.015782 -0.00715117)
(-0.0124908 -0.0153149 -0.0056596)
(-0.0134932 -0.0161224 -0.00591496)
(-0.0137702 -0.0169716 -0.00656946)
(-0.00960243 -0.0140925 -0.00604096)
(-0.0108393 -0.0147116 -0.00641132)
(-0.0119045 -0.0151963 -0.00703943)
(-0.0116423 -0.0148448 -0.00589061)
(-0.0118172 -0.014703 -0.00607559)
(-0.0120643 -0.0153821 -0.00737117)
(-0.0116396 -0.0151738 -0.00643246)
(-0.0116624 -0.0147268 -0.00629879)
(-0.0128029 -0.016289 -0.00636616)
(-0.0119029 -0.0159288 -0.00788121)
(-0.0115515 -0.0155162 -0.00737354)
(-0.0112811 -0.0150841 -0.00737048)
(-0.0128872 -0.0158208 -0.00749477)
(-0.0113881 -0.0145679 -0.00713678)
(-0.0118491 -0.0149109 -0.00694096)
(-0.0131349 -0.0160098 -0.00702018)
(-0.0123563 -0.0149153 -0.00685305)
(-0.0128667 -0.0161946 -0.00653824)
(-0.0125686 -0.0152815 -0.00580552)
(-0.0123776 -0.0151901 -0.00602299)
(-0.0117807 -0.0150544 -0.00679579)
(-0.0119695 -0.0151126 -0.00656173)
(-0.012839 -0.0157003 -0.0066174)
(-0.0127042 -0.0155398 -0.00714492)
(-0.0120965 -0.0149837 -0.00595366)
(-0.0127193 -0.0160859 -0.00612602)
(-0.0126909 -0.0154707 -0.00640011)
(-0.0114215 -0.0140489 -0.00610295)
(-0.0120733 -0.0147893 -0.00582594)
(-0.00978329 -0.0145529 -0.00639933)
(-0.00946904 -0.0145524 -0.00618027)
(-0.0105954 -0.0151908 -0.0068272)
(-0.0106053 -0.0140863 -0.00602223)
(-0.00896269 -0.0137921 -0.00603329)
(-0.00880405 -0.0134065 -0.00562087)
(-0.0120043 -0.0148892 -0.00494777)
(-0.0128351 -0.0152061 -0.00521454)
(-0.012354 -0.0150433 -0.00555078)
(-0.0122747 -0.0140397 -0.00607112)
(-0.0124076 -0.0152667 -0.00517019)
(-0.0131603 -0.0158488 -0.00545572)
(-0.0128718 -0.0165665 -0.00528729)
(-0.0125036 -0.0161352 -0.0049691)
(-0.0136504 -0.0154957 -0.00564421)
(-0.0123227 -0.0154023 -0.00475335)
(-0.0124184 -0.0156965 -0.00506939)
(-0.0122439 -0.015193 -0.00489375)
(-0.0132337 -0.0161297 -0.00539936)
(-0.0130141 -0.0165214 -0.00534975)
(-0.0128305 -0.0159254 -0.00522)
(-0.0117752 -0.0150304 -0.0048142)
(-0.0120771 -0.0151583 -0.00482686)
(-0.0120175 -0.0154682 -0.00492012)
(-0.0117211 -0.0162039 -0.00578596)
(-0.0115945 -0.0157259 -0.00556189)
(-0.0120039 -0.0158941 -0.00545927)
(-0.0119094 -0.0154389 -0.00520412)
(-0.0118001 -0.0143232 -0.00481121)
(-0.0119948 -0.0156918 -0.00528619)
(-0.0119506 -0.015156 -0.00499794)
(-0.0113484 -0.0156082 -0.00544935)
(-0.0118071 -0.0155425 -0.0053816)
(-0.0125683 -0.0161368 -0.00516021)
(-0.0135513 -0.0170883 -0.00569525)
(-0.0127328 -0.0162625 -0.0052194)
(-0.013264 -0.0159147 -0.00586524)
(-0.0142583 -0.0172542 -0.00581649)
(-0.013453 -0.0165497 -0.00552278)
(-0.0129007 -0.016087 -0.00525098)
(-0.0132753 -0.0153019 -0.00588836)
(-0.0132837 -0.0153047 -0.00592203)
(-0.0130034 -0.0162415 -0.00526615)
(-0.0132477 -0.0160615 -0.0054458)
(-0.0132789 -0.0163477 -0.00531286)
(-0.0125836 -0.015869 -0.00519623)
(-0.0135936 -0.0167363 -0.00572052)
(-0.0127445 -0.0156186 -0.00517455)
(-0.0133155 -0.0161242 -0.00546137)
(-0.0133549 -0.0163211 -0.00566502)
(-0.012684 -0.015387 -0.00529243)
(-0.0130157 -0.0161528 -0.00522056)
(-0.0133188 -0.0162831 -0.00550703)
(-0.0103899 -0.0155105 -0.00384533)
(-0.00861599 -0.011704 -0.00363173)
(-0.00866691 -0.0100624 -0.00346279)
(-0.00975218 -0.0145882 -0.00377984)
(-0.0103656 -0.0150024 -0.00386131)
(-0.01052 -0.0154132 -0.00372981)
(-0.0125609 -0.0174001 -0.00248636)
(-0.0133888 -0.0188927 -0.00301043)
(-0.0140711 -0.0181409 -0.00473841)
(-0.0126006 -0.0174142 -0.00317043)
(-0.0103799 -0.0163223 -0.00345553)
(-0.0133293 -0.0181583 -0.00328535)
(-0.0139083 -0.0188452 -0.00429687)
(-0.0124329 -0.0170683 -0.00339876)
(-0.011471 -0.0164413 -0.00296652)
(-0.0123588 -0.0170347 -0.0031873)
(-0.0134602 -0.0169735 -0.00458654)
(-0.0123726 -0.0162226 -0.00361185)