/*--------------------------------*- C++ -*----------------------------------*\
| =========                 |                                                 |
| \\      /  F ield         | OpenFOAM: The Open Source CFD Toolbox           |
|  \\    /   O peration     | Version:  v1612+                                |
|   \\  /    A nd           | Web:      www.OpenFOAM.com                      |
|    \\/     M anipulation  |                                                 |
\*---------------------------------------------------------------------------*/
FoamFile
{
    version     2.0;
    format      ascii;
    class       surfaceScalarField;
    location    "50";
    object      phi;
}
// * * * * * * * * * * * * * * * * * * * * * * * * * * * * * * * * * * * * * //

dimensions      [0 3 -1 0 0 0 0];

internalField   nonuniform List<scalar> 
45646
(
-8.03828e-09
5.76006e-09
1.86643e-10
2.09181e-09
-2.72012e-09
-1.4951e-09
3.76939e-09
4.46154e-10
5.12811e-09
-1.77295e-09
-4.40448e-10
-2.91472e-09
5.50383e-09
6.45533e-10
-5.10022e-09
-1.04923e-09
2.92357e-09
-4.29522e-09
-3.65988e-09
5.03146e-09
4.52827e-09
-2.27988e-09
-3.37669e-09
1.12806e-09
1.29098e-09
1.84729e-09
-2.14464e-10
1.60155e-09
-4.12013e-09
2.49195e-09
2.67435e-11
-5.48818e-09
-2.0921e-09
2.94081e-09
4.63957e-09
4.208e-09
1.60495e-09
-1.65387e-09
-4.15896e-09
1.56285e-08
-1.01907e-08
-1.61545e-08
1.07165e-08
-4.35638e-09
-2.77143e-09
1.05947e-09
6.0684e-09
-3.59494e-10
-4.05605e-10
-5.5212e-09
6.28568e-09
4.77228e-09
-6.19972e-09
1.41715e-09
1.03435e-11
6.65735e-09
-2.59978e-09
-4.42117e-09
3.636e-10
-5.5377e-09
-5.69222e-09
6.86999e-09
4.36003e-09
4.71134e-09
1.04035e-09
-6.1435e-09
3.91962e-10
2.7594e-09
7.26157e-10
-3.81306e-09
3.27876e-10
1.39938e-08
4.97567e-09
-1.03419e-08
-8.62767e-09
-9.44195e-10
-3.21237e-09
1.05047e-09
3.10602e-09
5.10822e-10
-4.10025e-09
1.55063e-09
2.03854e-09
-6.04366e-09
7.60336e-11
8.07141e-09
-2.10338e-09
-4.18784e-11
-3.40028e-09
-4.92936e-09
8.37159e-09
-4.29856e-09
5.18074e-10
3.27952e-09
5.01136e-10
-6.78119e-09
7.01305e-09
6.44192e-09
-6.67383e-09
1.3636e-09
-8.43919e-09
7.54783e-10
6.32073e-09
3.84637e-09
-1.01502e-09
-1.28522e-09
-1.54705e-09
3.40728e-09
3.5836e-09
-3.14447e-09
-9.29322e-09
7.7506e-09
-3.85892e-09
5.40125e-09
-3.89271e-10
5.80749e-10
-8.58731e-09
8.39578e-09
1.64058e-10
-4.84821e-09
4.2949e-09
5.30045e-10
2.87441e-09
-3.24036e-09
5.4653e-09
-5.53989e-09
6.04591e-10
-5.02242e-09
-3.63556e-10
-3.90728e-09
-5.41604e-09
-3.86727e-09
5.92555e-09
3.35773e-09
-4.65005e-09
9.16625e-09
-2.90418e-09
-1.61187e-09
-3.64489e-09
7.63466e-09
-5.5677e-09
1.57764e-09
-5.43837e-09
-1.24889e-09
-7.2291e-10
7.41011e-09
-1.33095e-08
-8.3925e-10
2.46769e-09
1.16811e-08
7.20413e-09
8.32311e-09
-4.49952e-09
-1.10277e-08
3.11555e-09
-5.16205e-09
1.79096e-09
2.55849e-10
8.8682e-10
-2.22291e-09
2.05875e-10
1.12901e-09
1.82273e-09
4.99231e-10
-3.32655e-10
-1.99023e-09
-6.61617e-09
1.23562e-09
1.96325e-09
3.41714e-09
-3.16801e-09
5.16522e-09
-4.93054e-09
2.93328e-09
-1.72234e-09
1.69044e-09
5.82377e-09
-5.79187e-09
1.29251e-09
3.96976e-09
-6.98477e-09
-4.91274e-10
4.51095e-09
-2.35573e-12
-4.01756e-09
-6.29776e-09
5.36704e-09
5.40443e-09
-4.47358e-09
-2.09406e-09
3.36982e-09
-3.40447e-09
2.12865e-09
5.46378e-10
-4.41144e-10
-3.71999e-09
3.61474e-09
2.585e-09
-2.90299e-09
-3.31732e-09
3.63534e-09
1.51168e-09
-4.49225e-09
2.77134e-09
2.09166e-10
-1.07264e-08
6.80516e-09
-3.68002e-10
4.28923e-09
-2.51544e-09
3.56395e-09
3.71698e-09
-4.76539e-09
-1.16946e-09
-1.74039e-09
-2.72352e-09
5.63331e-09
-2.18474e-09
1.48775e-09
-2.17825e-10
9.13087e-10
8.27891e-09
-2.54501e-09
-1.84672e-09
-3.88677e-09
-3.52264e-09
-4.40754e-09
8.61883e-09
-6.88512e-10
3.87142e-09
9.15212e-09
-8.46364e-09
-6.44564e-09
9.23357e-10
2.93828e-09
2.58402e-09
5.59743e-09
8.42602e-09
-7.2544e-09
-6.76889e-09
9.19134e-09
-1.16246e-08
-5.86758e-09
8.30108e-09
-6.67484e-09
8.83859e-09
-3.18927e-09
1.02605e-09
-3.9222e-10
-3.3056e-09
-1.72731e-09
5.42498e-09
1.69253e-09
-3.18545e-09
6.98999e-10
7.97807e-10
4.11366e-10
-2.77789e-09
-3.40016e-10
2.70658e-09
-2.83856e-09
3.24692e-09
1.9468e-09
-2.35521e-09
7.727e-09
5.81656e-09
-4.72598e-09
-8.81769e-09
1.71111e-09
-7.04592e-09
5.47506e-09
-1.40411e-10
-2.87901e-09
1.74205e-09
9.46403e-10
1.90675e-10
2.89973e-09
-7.62668e-09
1.82072e-10
-4.08988e-09
6.4245e-10
-9.68835e-10
6.83729e-09
-7.35351e-09
4.73089e-09
-4.21472e-09
3.82456e-09
7.03252e-09
-1.83167e-09
-9.02529e-09
1.26628e-09
1.13758e-08
-1.21402e-08
-5.01752e-10
-2.84772e-09
-1.50261e-09
3.76305e-09
5.87148e-10
-1.52698e-09
-7.63122e-09
1.9991e-09
7.15893e-09
-6.8849e-10
-4.71398e-09
5.12865e-09
6.93609e-09
-7.88301e-09
-4.18176e-09
2.38633e-09
-1.6382e-09
-7.5523e-09
6.80423e-09
7.92388e-09
7.42916e-11
-8.44296e-09
4.45289e-10
-1.69899e-09
-3.91791e-09
6.38869e-09
-7.71901e-10
-1.60726e-09
-3.93395e-09
5.19016e-10
3.93678e-09
5.54968e-09
-9.77171e-09
2.85264e-10
1.57006e-09
2.39773e-09
-6.13457e-09
2.16683e-09
-5.98809e-09
5.56273e-09
5.27652e-09
-7.89549e-09
1.00756e-08
4.78908e-09
-6.96899e-09
6.79005e-09
-9.90022e-10
-3.07386e-09
-2.72622e-09
6.24391e-09
-1.43151e-09
1.97797e-09
-1.65694e-09
4.20086e-09
-3.24691e-09
7.03018e-10
-6.52657e-09
1.9826e-09
4.15963e-09
3.84276e-10
-2.64407e-09
-1.00825e-09
1.99525e-09
6.38874e-10
7.98042e-09
-8.62727e-09
7.8281e-12
-5.67398e-10
8.20209e-09
-6.80519e-09
-8.29266e-10
4.07657e-09
-3.12352e-09
8.89841e-09
-9.8512e-09
-2.0891e-11
-3.97285e-09
8.33019e-09
-4.33643e-09
-7.67259e-09
-2.50381e-09
9.8091e-09
3.67306e-10
8.4603e-09
-2.19187e-09
-5.70678e-09
-5.61583e-10
1.96896e-09
5.71486e-09
-7.06009e-09
-6.22975e-10
-1.35532e-09
7.05088e-10
5.24311e-09
-4.59251e-09
-3.24454e-09
-6.14772e-09
2.6862e-09
6.70621e-09
-6.43437e-10
8.45138e-09
-1.10522e-08
5.60437e-09
-1.85238e-09
-2.85345e-09
-8.98597e-10
-5.82998e-10
7.90913e-09
4.24287e-10
-5.74672e-11
1.66172e-09
-2.33282e-09
7.24011e-10
-2.2904e-09
-4.50114e-09
6.47101e-09
3.20562e-10
2.08036e-09
7.65133e-09
-2.47594e-09
-7.25568e-09
-8.52173e-09
-6.9892e-09
6.38212e-09
9.129e-09
5.35194e-09
4.92417e-09
-3.98199e-09
-6.29403e-09
1.74621e-09
6.87541e-09
-2.52208e-09
-6.09955e-09
4.59555e-09
-6.45968e-09
-3.48507e-09
5.34922e-09
7.9609e-09
6.73437e-10
-5.1796e-09
-3.45462e-09
2.21108e-09
2.14309e-09
-3.37264e-09
-9.81258e-10
-3.04779e-09
-8.37776e-10
6.56884e-09
-2.68331e-09
-3.08715e-10
6.47941e-10
6.31758e-10
-9.71472e-10
-7.48488e-09
-8.66208e-09
1.09027e-08
5.24448e-09
-1.43416e-09
-2.00515e-09
4.04064e-09
-6.0159e-10
1.67508e-11
-4.23152e-10
1.44435e-09
-1.03855e-09
-6.35528e-10
-4.1345e-09
7.16912e-09
-2.39911e-09
-2.49119e-09
6.47558e-09
-4.12862e-09
1.44227e-10
-2.24195e-09
-2.78911e-09
2.87734e-09
2.15358e-09
3.84262e-09
1.13662e-10
6.21474e-10
-4.57782e-09
-1.08541e-09
-6.44519e-09
6.11225e-09
1.41827e-09
5.30949e-09
2.05579e-09
9.41329e-10
-8.30652e-09
2.44047e-09
-2.06904e-09
1.84086e-09
-2.21239e-09
-9.73697e-09
7.76427e-09
2.29848e-09
-3.25732e-10
-1.47727e-09
7.05916e-09
-6.08169e-09
4.9974e-10
6.87206e-10
-5.1444e-09
1.47819e-09
2.97942e-09
2.94894e-09
1.50818e-09
-4.16214e-09
-2.94828e-10
-4.51387e-09
-8.80197e-10
4.22085e-09
1.17317e-09
-2.44876e-09
-5.17692e-09
8.26059e-09
-6.35217e-10
-9.74567e-09
5.04356e-09
4.39163e-09
3.10615e-10
2.71954e-09
-4.83406e-09
-2.66754e-09
4.7821e-09
-5.55485e-09
5.83662e-10
6.51329e-09
-1.54242e-09
6.88109e-09
-3.35505e-09
-1.48105e-09
-2.04497e-09
-1.78921e-09
-3.07476e-09
3.76253e-09
1.10135e-09
-3.62312e-09
6.04613e-10
4.9687e-09
9.74421e-09
-1.00976e-08
-4.61538e-09
8.77879e-10
3.07727e-09
-4.23342e-09
2.78395e-10
4.67986e-09
-9.80607e-09
5.16672e-09
-4.04317e-11
4.66256e-09
2.35357e-11
6.24434e-10
-5.31043e-09
4.32277e-09
1.99817e-09
1.32094e-10
-4.60641e-09
-5.18737e-10
6.63305e-09
-1.50818e-09
-8.83793e-09
-5.32141e-09
9.06331e-09
5.09616e-09
-2.00949e-09
4.95625e-09
-3.60959e-09
6.62734e-10
-6.55379e-09
2.80615e-09
-2.46422e-09
6.2118e-09
-6.72775e-09
1.68695e-09
4.7849e-09
2.56134e-10
2.86605e-09
-2.36313e-09
-3.65573e-09
3.15237e-09
3.15683e-09
5.50665e-09
-1.48986e-09
-7.17339e-09
4.00685e-10
-4.69682e-09
-2.55018e-09
6.84641e-09
-4.53194e-10
-6.7472e-09
-2.67394e-09
2.83856e-09
-3.15423e-09
3.78341e-09
-3.46768e-09
1.71688e-09
3.78479e-09
2.26963e-09
-7.77127e-09
-6.82045e-11
3.13355e-09
-3.70895e-09
6.43557e-10
-4.67953e-09
2.97199e-09
1.433e-09
2.74532e-10
-1.29993e-09
-3.25085e-09
4.65927e-09
-1.08442e-10
-3.24433e-09
-3.51392e-10
5.52893e-09
-1.93357e-09
-5.5796e-09
-1.22737e-09
5.3736e-09
1.43364e-09
1.13828e-09
5.04867e-09
-9.43293e-10
-5.2436e-09
2.1814e-09
-6.53914e-09
7.34679e-10
3.55648e-09
-2.56451e-09
-5.88101e-10
-4.05071e-10
1.35772e-09
-2.0916e-09
4.79644e-10
2.54353e-10
-3.9132e-09
9.4996e-09
1.03077e-09
-6.61708e-09
4.19501e-09
-1.60065e-09
2.86078e-09
-5.45547e-09
-5.75551e-09
1.61614e-09
-2.47695e-09
3.99911e-09
3.17166e-09
-5.93553e-09
3.82741e-09
1.51641e-09
-4.82772e-09
-5.16831e-10
4.99694e-10
-1.90432e-09
-1.05915e-09
2.46174e-09
-6.01116e-09
-2.31537e-09
5.18782e-09
3.13884e-09
-6.47346e-09
4.25388e-09
-8.37763e-10
3.05758e-09
-1.00142e-08
-4.93967e-09
9.39022e-09
5.5637e-09
-7.01919e-09
1.86233e-09
2.14032e-09
3.01658e-09
-2.6389e-09
-6.65104e-09
5.04866e-09
4.2414e-09
7.54638e-09
8.23926e-10
-1.18608e-08
3.49007e-09
-3.2074e-10
5.55773e-09
-4.3354e-09
-9.02031e-10
1.12009e-09
5.20162e-10
1.81735e-09
-3.45744e-09
1.78075e-09
-1.32927e-09
-5.29826e-11
-3.99348e-10
-1.99675e-09
-1.95984e-09
3.39526e-09
5.61475e-10
4.52308e-09
-5.73699e-09
-1.78222e-09
2.99609e-09
1.97502e-09
2.03147e-09
3.19775e-09
5.72802e-10
-4.38996e-09
-9.59788e-11
4.317e-09
-5.59126e-09
1.07394e-09
2.00334e-10
-4.61709e-09
4.17337e-09
-3.21254e-10
7.65037e-10
1.73713e-09
5.9468e-10
-2.75487e-09
4.2311e-10
3.98147e-09
-5.07589e-09
-5.66987e-10
1.66133e-09
3.2457e-09
-5.1809e-09
1.68385e-09
2.51631e-10
-1.51714e-09
4.65544e-09
1.07717e-10
-7.76387e-09
1.09254e-08
2.81688e-09
-5.9784e-09
3.0194e-09
2.82598e-09
-1.94046e-10
-1.50213e-09
3.20097e-09
-5.48761e-10
-1.15017e-09
5.52994e-09
2.83019e-09
-6.74383e-09
-1.61613e-09
7.2737e-09
-1.59915e-09
-6.20492e-09
5.30425e-10
7.32403e-11
-4.15513e-09
4.69118e-09
-6.09201e-10
-1.48402e-09
2.59971e-09
-1.27893e-10
-9.87586e-10
2.67247e-09
3.86802e-09
-8.01928e-09
1.47883e-09
-1.27101e-09
4.50624e-09
-8.67358e-09
-2.06996e-09
-3.74995e-09
6.7178e-09
-8.97765e-10
4.96909e-09
-6.53147e-09
-5.63741e-10
2.12617e-09
4.17366e-09
-5.87016e-09
-1.72973e-09
3.42635e-09
3.7795e-09
-3.47927e-09
-4.62926e-10
1.62736e-10
6.63598e-10
-5.97581e-09
1.36675e-09
3.94542e-09
-4.87523e-09
5.36534e-09
5.33621e-09
-5.82643e-09
-5.20204e-09
4.68975e-09
-8.03829e-09
8.55055e-09
-3.76171e-09
1.29395e-09
-1.83067e-09
-9.01984e-10
5.04145e-09
-3.59314e-09
-5.05306e-09
1.42657e-09
-1.35076e-10
-9.65474e-09
6.07649e-09
7.13337e-10
2.86531e-09
3.64572e-09
-4.75213e-09
-8.54815e-09
-1.55757e-09
-8.26951e-09
1.19075e-08
5.53923e-10
4.01988e-09
-3.86371e-09
-7.10351e-10
-3.08757e-09
3.53046e-09
-8.86191e-09
-6.61708e-09
6.34912e-09
9.12991e-09
5.57656e-10
2.64484e-09
-3.67427e-09
4.71714e-10
-3.03954e-10
7.52355e-10
-6.61206e-09
6.16385e-09
-9.08465e-10
5.99005e-09
-8.92552e-09
3.84401e-09
1.41245e-09
-5.48208e-09
-9.83045e-10
5.05277e-09
1.08702e-09
-8.47507e-09
1.21326e-09
6.17436e-09
-3.35378e-09
-4.46955e-10
4.85837e-09
-1.05773e-09
-8.68831e-10
4.31066e-10
5.66866e-09
-5.23107e-09
1.83286e-09
1.08746e-09
1.09634e-10
-3.66414e-09
4.97533e-09
-1.17926e-09
-1.31964e-10
-5.17138e-09
3.77722e-10
1.12957e-09
-5.78445e-09
-3.2299e-09
1.1853e-08
7.32084e-09
-3.32389e-09
1.478e-09
-5.47523e-09
1.66614e-09
5.85413e-09
-7.96246e-09
4.42176e-10
2.78513e-09
-6.37685e-09
5.5636e-10
3.03616e-09
6.9567e-09
5.95348e-09
-3.71885e-09
6.99907e-09
-7.56099e-10
2.66877e-09
-3.99461e-09
2.74249e-09
1.9183e-09
-6.65498e-10
-7.50952e-09
9.98809e-09
-5.67239e-09
3.19429e-09
-5.19899e-09
2.80761e-09
2.24539e-09
1.46178e-10
1.95027e-09
-2.48374e-09
-4.41282e-09
4.94627e-09
-9.40998e-10
-7.19234e-09
4.94238e-09
3.19093e-09
-5.73763e-10
-2.61081e-09
2.70537e-09
4.79196e-10
-2.45676e-10
-6.8819e-09
1.09679e-09
6.03064e-09
3.61528e-09
2.79484e-09
-5.30291e-09
-1.1072e-09
3.88685e-09
3.51473e-09
7.39782e-11
-7.47566e-09
3.81858e-09
-1.31956e-10
-3.62321e-09
-6.3543e-11
-1.39036e-09
2.19779e-10
1.81189e-09
-6.41445e-10
-3.90472e-09
1.03637e-09
3.51116e-09
-6.42898e-10
1.70444e-09
1.42092e-09
-5.2297e-10
-2.60321e-09
-3.57572e-09
1.18731e-10
2.6469e-09
8.09511e-10
-3.01887e-10
3.07099e-09
-9.46848e-10
-5.43312e-09
-2.8837e-09
7.90782e-09
4.08955e-10
6.69949e-09
-4.69936e-10
-7.54048e-09
1.3109e-09
-1.39324e-09
-2.50188e-09
8.38071e-09
-4.48568e-09
-3.85786e-09
4.06573e-09
4.31002e-10
1.13998e-09
5.03179e-09
-6.32059e-09
1.48764e-10
6.01803e-09
-7.70217e-09
-3.50683e-10
2.03502e-09
5.79795e-09
-3.48755e-09
-5.63086e-09
3.32119e-09
5.54637e-09
-9.26909e-10
-5.17954e-09
5.60043e-10
-1.06849e-08
6.30058e-09
7.94325e-09
-3.55867e-09
3.79107e-09
2.93442e-09
-3.49426e-09
-3.23107e-09
-6.31197e-10
1.13189e-09
-7.04384e-09
6.54295e-09
2.21558e-09
-5.15575e-09
3.12659e-09
-1.86242e-10
-5.16986e-09
4.39703e-09
-5.89922e-10
1.36203e-09
3.89646e-09
1.01771e-09
-3.8457e-09
-1.06848e-09
-2.36677e-09
4.2852e-09
-3.3117e-09
-3.9814e-10
2.9909e-09
-4.95947e-09
4.52993e-09
1.79698e-09
-3.8742e-09
-2.45305e-09
-1.95205e-09
-2.94526e-09
-1.24995e-10
5.0221e-09
-4.84051e-10
-4.98144e-09
5.94398e-09
-4.78663e-10
3.55474e-09
-8.57412e-10
3.26543e-09
-5.96241e-09
-5.29945e-09
3.6168e-09
2.36985e-09
1.91262e-09
-1.13051e-10
-1.34681e-09
-4.53011e-10
4.06794e-09
-2.59839e-09
2.34245e-10
-6.0128e-10
1.86681e-09
1.34677e-10
-1.40204e-09
3.87789e-10
-5.74543e-09
5.22645e-09
1.31129e-10
6.84804e-09
-1.85052e-09
-5.4967e-09
4.99315e-10
3.21614e-10
5.36601e-09
3.68747e-10
8.26355e-09
8.55139e-09
-6.87503e-09
-9.93999e-09
4.45243e-09
4.20038e-10
-6.54495e-10
4.90668e-09
8.84139e-10
2.3056e-09
4.01311e-10
-3.17994e-09
4.72545e-10
5.63137e-09
-6.20273e-10
-6.35847e-09
1.34777e-09
-8.92301e-09
-1.89051e-10
7.1949e-09
1.91736e-09
-4.24783e-09
5.88513e-09
-1.05599e-08
-9.982e-09
5.18353e-09
-1.87619e-09
5.60172e-09
-4.6731e-09
-8.38812e-09
7.45998e-09
-3.02165e-09
1.51277e-09
1.06289e-09
4.46531e-10
-2.71526e-09
4.30097e-09
8.45559e-11
-1.67033e-09
-6.8974e-09
5.1747e-09
1.18294e-09
5.40131e-10
-2.02418e-09
4.43224e-09
-9.03205e-09
6.62413e-09
-2.19903e-09
-1.9442e-09
5.23895e-09
-1.09577e-09
-3.23482e-09
-2.95251e-09
5.59148e-09
5.95679e-10
5.89402e-09
-6.76102e-09
1.01777e-09
-1.50677e-10
3.57889e-10
3.14289e-09
4.37267e-10
-3.93834e-09
-6.32638e-09
-1.58791e-09
4.50963e-09
3.40485e-09
2.13288e-09
-9.42682e-09
1.52765e-09
5.76656e-09
-4.97243e-10
-1.16299e-09
3.36266e-09
-1.70255e-09
2.28477e-09
1.62312e-09
2.27945e-09
-6.18743e-09
4.09564e-09
-6.8473e-09
2.37365e-09
3.77999e-10
-9.58101e-10
6.79604e-09
2.89564e-09
-8.73352e-09
8.51571e-09
-2.97781e-09
6.77132e-10
-6.21499e-09
-1.80328e-09
6.44014e-09
-6.88472e-09
2.24779e-09
-1.78662e-09
4.36199e-09
-3.09699e-09
5.21636e-10
-2.38678e-10
-6.39238e-09
4.82777e-09
-6.79632e-09
-2.16311e-09
7.40191e-09
-4.42078e-09
9.63107e-09
2.81089e-10
-5.49138e-09
-3.11947e-09
7.11954e-09
-6.98019e-09
2.98023e-09
-3.64472e-09
6.36647e-09
8.11113e-10
-3.53266e-09
6.67907e-11
6.29806e-09
-5.57606e-09
-7.8888e-10
3.05019e-09
-8.93928e-09
5.5636e-09
3.25415e-10
1.14333e-09
5.62988e-09
2.82278e-09
-9.5959e-09
5.71837e-09
5.68288e-09
-8.38317e-09
-3.01812e-09
7.33216e-09
-4.95008e-09
-3.72818e-09
1.34622e-09
3.22679e-09
5.06271e-09
-8.65853e-09
3.69131e-10
2.50342e-09
-1.67689e-10
4.71673e-10
7.18917e-10
1.88303e-09
-2.30615e-09
-2.95893e-10
-5.22176e-09
3.44496e-09
-1.46766e-09
-1.02321e-09
-3.64979e-09
-4.11322e-09
8.78479e-09
-7.533e-10
4.11863e-09
-2.66404e-09
-7.01753e-10
1.41351e-09
-3.28326e-10
-4.49275e-10
-6.36564e-10
3.93658e-09
-1.97155e-09
-5.51605e-10
-5.45187e-10
4.3117e-09
-5.77573e-09
-1.01687e-08
6.53348e-10
9.65435e-09
-1.38872e-10
-1.70916e-09
-5.54957e-09
8.64045e-09
-1.38165e-09
2.62245e-10
-2.27912e-09
5.10068e-09
-3.08434e-09
-4.43429e-09
-3.5433e-09
7.61397e-09
3.40336e-09
1.87658e-09
-5.63656e-09
3.56534e-10
-4.24923e-09
6.04001e-09
-2.20495e-09
4.14223e-10
6.45598e-09
-6.10911e-09
4.20508e-09
-4.55199e-09
2.38244e-09
2.7949e-09
-1.63508e-09
-3.54232e-09
3.55271e-09
1.8848e-09
2.53375e-09
-7.97129e-09
1.47313e-09
1.77027e-10
-1.52021e-09
-1.29643e-10
-1.76249e-09
7.19741e-10
7.34372e-10
5.63358e-09
3.47821e-09
-5.05706e-09
-4.05469e-09
-2.98151e-09
2.50965e-09
-6.50085e-09
6.97267e-09
8.51522e-09
-6.55024e-09
-2.44445e-09
4.79517e-10
8.76578e-09
-8.72833e-09
2.63663e-09
-2.67402e-09
2.3843e-09
-6.39341e-09
3.87215e-09
1.37026e-10
-3.0716e-09
2.51069e-09
4.93812e-09
-4.37727e-09
-3.40281e-09
-5.4037e-10
1.33986e-09
2.60262e-09
-4.92269e-09
2.87269e-09
-4.08729e-09
6.13674e-09
7.32854e-10
-4.01573e-09
-1.64031e-09
-6.63631e-09
2.80363e-09
3.39264e-09
4.40218e-10
7.34832e-11
3.424e-10
4.17798e-09
-4.59483e-09
-6.92699e-10
-1.29283e-09
3.00058e-09
-1.01552e-09
-3.00748e-09
4.55781e-09
-1.28844e-09
1.16311e-08
-1.17094e-08
1.00197e-09
-9.24157e-10
-1.76445e-09
2.07923e-09
-1.00809e-09
2.40052e-09
-2.96746e-09
-5.64016e-09
6.20664e-09
3.71534e-09
-4.85808e-09
-6.46392e-10
-3.00989e-09
-5.18823e-10
-2.1181e-10
3.74034e-09
-4.83227e-09
-1.05598e-09
6.22065e-09
-3.32697e-10
3.75873e-09
-5.14398e-09
1.10596e-09
2.79381e-10
-9.20135e-10
-6.11939e-09
5.65706e-09
1.3826e-09
1.31452e-09
-4.92385e-09
3.08903e-09
5.20361e-10
-1.73596e-09
4.12348e-09
-2.66479e-09
2.77026e-10
3.14451e-09
4.85203e-09
-5.78823e-09
-2.20825e-09
-2.84485e-09
-7.69102e-09
4.28579e-09
6.25033e-09
4.11379e-10
-2.21905e-09
-5.10434e-10
2.31806e-09
-1.85044e-09
2.33464e-09
6.13527e-09
-3.57132e-10
-2.24248e-09
-3.5356e-09
7.44718e-09
4.51402e-09
-5.24627e-09
-6.71509e-09
1.29104e-09
-1.92804e-09
3.14124e-10
3.23171e-10
2.03117e-09
-3.03166e-09
4.55358e-10
-2.4607e-09
2.25813e-09
1.1846e-09
-9.82611e-10
6.38706e-10
-4.53559e-09
3.39181e-09
5.05047e-10
-2.34093e-09
2.25946e-09
1.79873e-09
-1.71725e-09
5.78253e-10
-2.95355e-09
1.96753e-09
4.07656e-10
-7.08999e-09
9.34279e-09
-3.96192e-09
-2.88402e-09
8.04413e-09
-5.74199e-09
5.81759e-10
-4.80174e-09
5.40796e-09
2.07727e-09
-2.68356e-09
-3.74158e-09
1.29469e-09
2.21706e-09
2.29977e-10
-5.93204e-09
2.03157e-10
5.47137e-09
2.57467e-10
2.8725e-09
-5.9786e-09
3.05955e-09
4.68129e-11
-9.63601e-09
4.58127e-09
9.23904e-09
-4.18421e-09
-1.17095e-09
9.14868e-09
-4.01119e-09
-3.96653e-09
-1.90372e-10
-9.9619e-09
5.01483e-09
5.13791e-09
-3.6428e-09
-5.30626e-09
-7.96683e-10
-1.05048e-08
8.81219e-09
-7.56339e-10
4.95104e-09
1.15206e-09
-6.48604e-09
3.82958e-10
-7.55632e-11
2.12818e-09
-2.40462e-09
3.52071e-10
-5.80197e-09
-2.53926e-09
4.75187e-09
3.58943e-09
9.4909e-10
4.46799e-10
4.48579e-09
-5.88193e-09
6.56205e-10
2.68671e-09
-3.75141e-09
4.08515e-10
1.31211e-09
-4.57185e-10
-8.38679e-10
9.39074e-09
1.43922e-10
-4.92578e-09
-4.60904e-09
6.20382e-10
-9.12898e-11
1.89405e-09
-4.56148e-09
2.78688e-09
-1.19466e-10
-3.9552e-10
-1.24798e-09
2.85706e-09
3.10119e-09
-5.08324e-09
-8.74806e-10
3.54121e-09
-9.84051e-09
3.43494e-09
2.86436e-09
-4.49513e-09
7.04271e-09
-5.12137e-09
2.57387e-09
2.77437e-09
-5.00798e-09
4.44923e-09
4.40437e-09
-3.1471e-11
-4.11326e-09
-2.59528e-10
3.43805e-09
1.9099e-09
-6.31664e-09
9.68323e-10
-2.40744e-09
5.13506e-10
5.33171e-09
-3.09355e-09
-2.77914e-10
9.10326e-10
-3.23937e-10
-1.83387e-09
3.08852e-09
-9.30761e-10
-1.32434e-09
-5.50897e-09
4.58178e-09
2.25157e-09
1.66926e-09
-3.63409e-09
-8.89925e-09
1.0864e-08
-2.35916e-09
-5.06709e-10
2.41143e-09
4.5447e-10
6.9199e-09
4.46008e-09
-7.37438e-09
-4.00559e-09
3.26726e-09
-4.89639e-09
1.32538e-09
3.03887e-10
2.00866e-09
-3.45471e-09
3.79572e-09
-2.34961e-09
7.15871e-09
-1.01158e-09
-4.13837e-09
4.70049e-09
-1.07355e-08
5.9219e-09
1.13099e-10
-1.64204e-09
-2.01462e-09
3.09716e-09
5.59608e-10
5.31728e-10
7.60979e-10
1.18107e-09
-2.47456e-09
-2.26513e-10
1.96748e-10
-4.8783e-09
4.90794e-09
-6.07713e-09
3.75375e-09
3.15029e-09
-8.27597e-10
-4.14252e-09
1.25936e-09
2.65843e-09
2.2463e-10
-1.93582e-09
4.95638e-09
8.0662e-10
7.02678e-09
4.46721e-10
-5.51684e-10
-6.92159e-09
-2.19527e-09
2.05183e-09
-3.92951e-09
4.07302e-09
2.97414e-10
6.61459e-10
-4.48645e-10
-8.11167e-10
-2.82211e-09
4.38686e-09
-7.53748e-10
-6.6243e-11
2.03849e-09
2.70778e-09
4.96414e-09
-8.79242e-09
6.31149e-09
-2.48308e-09
4.18796e-09
-4.50272e-09
2.2898e-09
-4.4645e-09
1.24993e-09
3.75914e-10
7.85102e-09
-2.04307e-09
-5.9078e-09
9.99475e-11
-3.09792e-09
3.61931e-09
3.16239e-09
-3.68393e-09
6.1305e-09
-3.327e-09
-5.49929e-09
2.69587e-09
3.43963e-09
-2.44343e-09
1.26238e-09
-2.2586e-09
-2.22805e-09
7.65309e-09
-2.97754e-09
-2.44715e-09
1.22294e-09
-5.6385e-10
9.46015e-09
-4.17763e-09
4.73437e-09
-1.00168e-08
-4.53812e-10
2.30743e-09
-1.99268e-09
1.39008e-10
-3.22268e-09
3.35647e-09
5.25554e-09
-3.68086e-09
4.14028e-10
-1.42362e-09
-2.77176e-09
4.53854e-10
-1.19553e-09
-2.72345e-09
5.58841e-09
-1.66937e-09
2.78453e-09
-3.39995e-09
-5.80044e-10
7.76499e-09
-4.1914e-09
-4.74452e-09
2.29894e-09
-9.37396e-10
5.88814e-10
-4.49342e-09
5.03712e-09
-8.78017e-10
3.34303e-10
1.16833e-09
3.59672e-09
-5.06886e-09
3.03911e-10
2.2068e-09
3.97564e-09
-2.6079e-09
-3.57451e-09
-8.62828e-10
2.76352e-09
4.36545e-09
-6.26644e-09
1.85259e-09
5.45399e-09
-9.14636e-10
-6.39202e-09
3.91709e-09
-4.86962e-09
5.52802e-10
3.99482e-10
6.36717e-10
-3.79273e-09
5.45501e-09
4.05198e-09
3.3821e-09
3.30881e-10
-4.1893e-09
-1.03301e-09
4.50934e-09
7.12974e-10
4.73765e-09
-3.73422e-09
-1.42201e-09
4.18823e-10
3.62024e-09
-5.15874e-09
1.18163e-09
3.56947e-10
-1.59643e-09
-3.36877e-09
4.87209e-10
-4.31286e-09
1.68856e-09
-2.62805e-09
5.25228e-09
-4.94952e-09
3.69053e-09
-4.7237e-10
1.73159e-09
1.99162e-09
-1.55366e-09
-5.85535e-09
5.41768e-09
-4.51818e-09
2.54335e-09
1.45456e-09
5.20481e-10
1.43403e-09
-9.26885e-10
-7.28713e-10
2.21298e-10
-1.44745e-09
-1.6864e-09
4.25502e-11
-9.61419e-09
5.49551e-09
1.77805e-09
-7.53553e-10
5.74242e-10
2.37339e-09
-2.19298e-09
4.38e-09
3.35654e-09
-2.71233e-09
-5.02412e-09
4.15051e-09
-1.72579e-09
1.19075e-09
-5.82911e-10
-2.53134e-09
1.02006e-09
-5.94317e-09
1.49941e-09
1.54004e-09
2.90402e-09
1.65482e-09
3.0817e-09
-3.52321e-09
-1.21328e-09
-3.70228e-09
4.4605e-09
-1.11442e-09
3.56438e-10
-3.78836e-09
7.97186e-09
-4.52618e-09
3.42594e-10
4.50661e-09
-3.71457e-09
-4.58041e-09
-4.58908e-09
-4.01178e-09
3.02147e-09
-2.01589e-09
2.94054e-09
-1.24356e-09
3.19193e-10
-1.39105e-10
-1.83552e-09
3.8687e-09
2.5842e-09
-3.13396e-09
3.02436e-10
2.47496e-10
1.411e-09
-1.68807e-09
5.727e-10
-2.96896e-10
-5.54896e-09
-4.71131e-09
3.62221e-09
6.63809e-09
-2.02404e-10
-5.2266e-09
5.10345e-09
3.25697e-10
5.05115e-10
3.72313e-09
-2.14323e-10
-4.01389e-09
3.16051e-09
-9.30224e-10
-2.79819e-09
5.67927e-10
1.77437e-09
3.83792e-09
-6.0255e-09
4.13272e-10
4.83991e-09
-8.45469e-09
6.11265e-09
-2.49786e-09
-4.4988e-09
4.38638e-09
1.40633e-09
-1.29387e-09
-5.05751e-09
-2.74825e-10
8.33492e-10
-1.83299e-09
-4.47113e-09
5.19603e-09
1.10835e-09
-2.55646e-09
3.19323e-09
-9.50283e-10
3.13836e-10
2.90437e-09
-5.75005e-10
-2.00958e-09
-3.19342e-10
-1.99581e-09
-1.95295e-09
-6.04462e-09
9.99326e-09
-3.33127e-09
7.73406e-09
-6.39867e-09
-1.99872e-09
5.32137e-09
-3.54207e-09
2.1929e-10
-5.90604e-09
3.65084e-09
2.56612e-10
1.07072e-08
-1.29566e-09
8.8117e-11
-1.45192e-09
2.8897e-09
-8.58014e-10
-5.79643e-10
6.70336e-09
4.59775e-09
-2.78539e-09
1.26811e-09
4.39236e-09
-5.61496e-11
-1.47959e-09
-2.25099e-10
-2.77082e-09
4.47546e-09
-2.0542e-09
-2.45402e-09
4.00352e-09
-2.10483e-09
5.55588e-10
3.93191e-09
1.05583e-09
-5.32733e-09
3.39595e-10
-1.6389e-09
4.90347e-09
-4.74417e-09
-6.41238e-10
-1.99327e-09
3.76889e-09
-1.13459e-09
2.11433e-09
1.92933e-09
-2.94173e-09
-1.10217e-09
2.94472e-09
4.02645e-09
-3.95886e-09
-5.72554e-09
-1.16136e-09
9.35185e-09
-2.46488e-09
-1.80462e-09
6.94899e-09
-7.04346e-10
-4.44001e-09
-9.73766e-10
-1.69582e-09
9.32691e-09
6.29099e-09
-2.52974e-09
5.55761e-10
-1.11026e-09
-3.58356e-09
4.51178e-09
1.8206e-10
-1.13398e-08
7.08833e-09
9.9146e-09
-5.66302e-09
7.87142e-09
-1.06253e-08
-3.61854e-09
6.37243e-09
-5.60107e-09
-3.00785e-09
-1.55979e-09
8.11166e-09
-6.8596e-09
7.9276e-09
-9.17963e-09
-4.10721e-09
3.32443e-09
7.14557e-10
-8.81763e-09
5.56445e-09
4.78724e-09
-1.5339e-09
1.89585e-09
-2.24579e-09
1.56937e-10
-1.86897e-09
5.42644e-10
-6.45471e-09
-2.22043e-09
6.93483e-09
-2.02957e-09
-1.20607e-09
2.74122e-09
4.94325e-10
1.39892e-09
7.12459e-09
-2.50548e-09
-1.16843e-08
-1.39242e-09
2.83469e-09
1.02422e-08
-1.61666e-09
3.49631e-09
-1.39723e-09
-4.82556e-10
5.86889e-09
-2.57873e-09
-4.32541e-10
3.48548e-09
2.34164e-09
-2.1731e-09
-3.65353e-09
-4.85389e-09
5.12779e-09
-3.41505e-10
6.8016e-11
-3.67454e-10
-7.76258e-09
7.87232e-09
2.57784e-10
3.78589e-09
-6.42481e-09
6.46533e-09
-4.72011e-09
8.89718e-09
-9.07716e-09
4.54831e-09
-4.36848e-09
5.35173e-09
-7.11382e-09
-1.28046e-09
-5.44044e-09
6.51813e-09
2.028e-10
-3.35856e-10
5.3628e-09
-5.81687e-11
1.74293e-10
-4.23561e-09
3.64627e-09
4.15234e-10
1.1198e-08
-7.33619e-09
-2.4171e-09
-1.44433e-09
-1.85954e-09
2.77823e-09
2.10087e-09
-1.36427e-10
2.0581e-10
3.98339e-09
1.44533e-09
1.09742e-10
-2.30216e-09
-1.1339e-09
-2.36581e-09
1.03696e-09
-2.88083e-09
1.55499e-09
2.89043e-10
-6.28302e-09
2.9766e-09
1.87012e-10
5.96271e-09
-6.98829e-09
2.59212e-09
-1.56644e-09
-3.68345e-09
2.13989e-09
3.90127e-09
-2.35775e-09
-3.94869e-09
-2.2749e-09
3.24583e-09
-4.62497e-09
7.12848e-09
1.75046e-09
-9.04092e-10
-2.13738e-09
1.67823e-09
1.36296e-09
1.15595e-09
-5.57327e-09
3.51322e-09
2.95621e-09
3.82682e-09
-4.48678e-09
-2.29645e-09
6.25129e-09
9.12416e-10
2.83441e-10
-4.96562e-10
5.09402e-09
-4.55463e-10
-4.14211e-09
-3.23692e-09
2.52253e-09
4.53814e-10
2.60627e-10
-5.88327e-09
1.70079e-09
4.06666e-09
1.15855e-10
-4.63682e-09
-7.05902e-09
2.45612e-09
9.2398e-09
-4.13154e-09
1.4577e-09
2.38133e-09
2.91921e-10
2.29456e-09
-3.98508e-09
1.39816e-09
2.92336e-10
-5.11823e-10
2.48668e-09
8.90602e-10
-2.09482e-10
-1.18145e-09
-9.72453e-10
1.30656e-09
-1.81532e-09
3.2145e-10
1.87575e-10
-7.32901e-09
5.26885e-10
7.03174e-09
-2.29525e-10
2.60629e-10
-4.08149e-09
3.64379e-09
1.77217e-10
3.01711e-09
6.88128e-10
-7.60115e-10
4.8348e-09
6.77139e-09
-6.65511e-09
1.34596e-09
5.1409e-09
4.01288e-09
-4.8256e-09
3.20181e-10
4.92342e-10
6.41888e-09
6.2403e-09
-3.89425e-09
-8.76492e-09
-5.26727e-09
7.65571e-09
-6.59954e-10
-1.72845e-09
-2.36158e-09
2.42119e-09
3.37115e-09
-3.43045e-09
-1.79737e-09
-1.96278e-09
-1.64372e-09
5.40413e-09
-2.47087e-09
-2.61562e-09
-8.19287e-10
1.18579e-09
-3.70129e-09
-3.68194e-09
-1.3743e-09
4.98021e-09
7.62766e-11
4.00985e-10
-9.11876e-10
3.27385e-09
-2.76348e-09
7.79472e-10
-1.65147e-09
5.40823e-09
-4.53617e-09
-2.55614e-10
-5.6511e-09
-6.47213e-10
1.04413e-09
-8.22823e-10
1.35255e-11
-2.34946e-10
-1.97322e-09
-1.92185e-09
2.45453e-09
1.44036e-09
1.80447e-09
3.75149e-10
-1.05128e-09
-1.12972e-09
-3.50856e-09
6.64286e-10
-1.49215e-09
4.33633e-09
3.1008e-09
-1.62176e-09
-5.32003e-10
-9.46887e-10
-4.76986e-09
6.21915e-10
-3.86958e-09
-3.61461e-09
7.46338e-09
-3.00442e-09
-6.47583e-09
-5.33883e-10
-2.51557e-09
3.94755e-09
-1.86287e-09
4.31007e-10
6.31988e-09
4.63309e-09
-2.37058e-09
-8.58228e-09
1.8684e-09
1.41035e-09
-3.47917e-09
2.0051e-10
-1.4918e-10
3.5875e-09
-4.01211e-09
6.96618e-09
-2.25594e-09
-4.84787e-09
1.37603e-10
5.33741e-09
-4.69622e-09
4.6825e-09
-5.3239e-09
-2.85657e-10
-5.55536e-09
5.40728e-09
4.3339e-10
5.48693e-09
-6.22419e-09
4.51408e-10
-1.58627e-09
-1.18352e-09
3.05357e-09
-2.84587e-10
-4.30203e-09
3.74489e-09
-2.72449e-09
3.28138e-09
-5.88293e-10
1.53873e-09
-1.30197e-09
-7.313e-09
1.12764e-09
-1.42722e-09
7.61296e-09
3.01966e-09
-7.7355e-09
4.02791e-09
6.87991e-10
2.18781e-09
4.85496e-10
-3.08477e-09
4.11441e-10
2.37505e-09
5.64795e-09
-7.62837e-09
-3.94956e-10
-2.73027e-09
7.88087e-10
1.71908e-09
2.23331e-10
-2.04404e-09
-1.04741e-09
3.61326e-10
5.99925e-09
-3.91984e-09
6.15002e-09
3.10273e-09
-6.28072e-09
-5.72283e-09
2.66592e-09
5.89096e-09
-2.83401e-09
-2.97362e-09
2.71538e-09
-2.28423e-11
2.81235e-10
-1.54761e-09
4.08772e-09
-4.92856e-09
2.38843e-09
4.22723e-10
2.3609e-09
-3.05272e-09
2.69109e-10
2.38907e-09
1.18009e-08
-9.09162e-09
-5.09823e-09
-1.31644e-09
4.20752e-09
5.48499e-10
1.15977e-09
-6.41403e-09
2.81069e-09
-4.89573e-09
-2.65828e-09
2.25149e-10
1.3917e-09
-1.70569e-09
3.20446e-09
-2.89031e-09
-8.68478e-10
-2.00616e-09
-5.00739e-09
-4.38137e-09
1.93464e-11
3.93189e-09
4.30324e-10
-5.30491e-09
2.92244e-10
8.00215e-09
1.24339e-09
-1.16702e-08
2.42462e-09
-9.60597e-10
2.94372e-09
-2.3041e-09
3.2112e-10
7.28709e-09
-1.50537e-09
-7.47937e-09
1.69758e-09
-2.16493e-10
-7.28888e-09
-2.52067e-10
7.75728e-09
1.01543e-09
-2.0664e-09
7.59236e-10
2.91864e-10
-2.43504e-09
-1.09414e-09
3.04153e-09
4.87771e-10
4.2269e-09
2.53376e-09
-5.97243e-09
-9.14973e-09
-1.03629e-09
7.70503e-09
2.48035e-09
5.28385e-09
-1.12812e-08
2.15951e-09
3.83843e-09
-2.67929e-09
-5.47676e-09
1.0461e-08
-2.30507e-09
-8.46861e-09
8.61457e-09
3.07757e-09
-3.22329e-09
2.37804e-11
9.31028e-10
-6.10461e-09
5.14975e-09
-1.85434e-09
9.12487e-09
-3.23523e-09
-4.0354e-09
-1.62729e-09
-7.71351e-09
6.18508e-10
8.72256e-09
3.05318e-09
-1.77021e-09
-3.35241e-09
2.3279e-09
-5.43927e-09
-5.18055e-09
8.29183e-09
5.39736e-09
-1.22739e-08
1.07048e-08
-1.19195e-09
-2.82027e-09
-6.69263e-09
2.79526e-09
-1.46804e-08
9.15463e-09
2.73058e-09
-1.25958e-09
1.04578e-08
-2.66084e-09
-6.53689e-09
-5.0152e-09
2.29072e-09
2.42007e-09
3.04604e-10
5.35551e-09
-5.97979e-09
1.25328e-09
-6.28571e-10
8.45924e-09
-2.00366e-09
-6.53525e-09
8.00115e-11
-5.0611e-09
-1.63762e-09
-8.2666e-09
1.0161e-08
-8.09358e-09
6.19964e-09
9.19186e-10
1.8701e-09
-2.90109e-09
1.11686e-10
-2.56595e-09
4.06723e-09
-1.98101e-09
4.79414e-10
-1.33499e-10
1.04074e-09
-2.59383e-10
8.89313e-09
5.75096e-09
-1.0438e-08
-4.20619e-09
-5.71343e-09
-1.84436e-09
-3.53696e-09
1.10948e-08
7.98501e-09
-5.40063e-09
4.65715e-10
4.95107e-09
4.18592e-09
-7.97717e-09
-4.06316e-09
-9.94012e-09
1.09989e-08
8.58902e-09
-5.26179e-09
1.28198e-09
-4.6091e-09
-7.53085e-09
1.04262e-08
-7.50949e-09
4.61431e-09
2.93006e-09
-3.24115e-09
8.26521e-09
-7.95387e-09