/*--------------------------------*- C++ -*----------------------------------*\
| =========                 |                                                 |
| \\      /  F ield         | OpenFOAM: The Open Source CFD Toolbox           |
|  \\    /   O peration     | Version:  v1612+                                |
|   \\  /    A nd           | Web:      www.OpenFOAM.com                      |
|    \\/     M anipulation  |                                                 |
\*---------------------------------------------------------------------------*/
FoamFile
{
    version     2.0;
    format      ascii;
    class       surfaceScalarField;
    location    "150";
    object      phi;
}
// * * * * * * * * * * * * * * * * * * * * * * * * * * * * * * * * * * * * * //

dimensions      [0 3 -1 0 0 0 0];

internalField   nonuniform List<scalar> 
36764
(
-5.9298e-10
-3.54457e-09
3.57963e-09
5.57992e-10
-3.53043e-10
-1.03569e-08
1.02799e-08
4.30126e-10
-1.66328e-08
4.10687e-10
1.58691e-08
5.25472e-09
-8.99958e-09
-6.61198e-09
-8.86774e-09
-2.51031e-09
1.75414e-09
7.913e-09
-2.62922e-09
-7.03791e-09
-1.27888e-09
9.17046e-09
-6.13743e-09
-2.9527e-09
-7.32574e-09
7.00197e-09
6.95233e-10
-1.06499e-08
-5.15442e-09
5.48616e-09
8.83872e-09
3.05118e-09
-2.92604e-10
3.70024e-12
-2.09909e-10
-6.73198e-09
6.93819e-09
-7.96194e-09
8.20106e-09
-2.35411e-10
-7.64347e-09
7.84425e-09
7.79674e-09
-9.6625e-09
6.55578e-09
-8.48978e-09
-4.83015e-09
-8.06201e-11
4.59048e-10
-3.05778e-10
6.14405e-09
-4.41842e-09
-1.28885e-10
-1.74849e-08
-6.08054e-09
9.17403e-09
1.43914e-08
-9.09309e-09
9.54879e-09
-9.09607e-09
8.64035e-09
5.14444e-09
-9.42596e-09
-6.27527e-09
1.05568e-08
-1.56766e-09
3.74945e-10
6.33716e-09
-1.16376e-08
7.75242e-09
2.31748e-09
9.33947e-09
-7.19369e-09
-1.37834e-08
-1.43588e-08
1.28601e-08
9.25113e-09
4.02161e-09
-9.04098e-09
8.34223e-09
-7.44752e-09
-1.31317e-08
1.2237e-08
1.87959e-09
-2.63046e-09
-1.74979e-09
-1.48699e-08
9.5102e-09
-3.609e-09
1.36684e-08
8.70191e-09
-1.95261e-08
1.03288e-08
8.37431e-09
-1.4943e-08
4.71994e-09
1.84879e-09
-4.42675e-09
8.84371e-09
-2.59885e-09
-1.81803e-09
-9.62546e-09
1.35731e-08
1.17395e-08
3.04468e-09
-1.14714e-08
-3.31274e-09
-4.73462e-09
1.53112e-09
-1.15461e-08
-1.27604e-09
3.19667e-09
1.52829e-10
-6.41288e-09
9.30475e-09
-4.5529e-09
-1.17277e-08
-7.07866e-09
4.00121e-09
1.19542e-09
1.88219e-09
-8.0962e-09
1.23479e-09
5.58543e-09
-1.14254e-09
-6.96226e-09
1.02618e-09
-7.46283e-09
1.07837e-10
6.21248e-09
-1.76647e-09
-5.04292e-09
-2.31112e-09
-6.91815e-09
-4.64628e-09
-1.49111e-10
-3.30075e-09
-5.51789e-09
-1.43949e-09
1.84041e-09
5.27217e-10
2.08779e-09
1.56206e-09
4.72039e-09
-3.83327e-10
4.58194e-09
1.69597e-09
1.46983e-09
3.64248e-09
1.24123e-09
-7.89355e-09
1.39742e-09
-4.02516e-09
1.65656e-09
2.42159e-09
-6.71809e-09
-3.59705e-09
-1.47442e-09
-1.2916e-10
-2.15611e-10
-2.9766e-09
4.84876e-09
3.20347e-09
-9.98381e-09
-5.48749e-09
-1.64694e-09
5.62656e-09
2.03924e-09
-6.01886e-09
2.97389e-09
-4.3569e-09
-2.63931e-10
-1.01253e-08
-5.26823e-09
9.90608e-09
-1.1677e-08
-1.29756e-09
2.84919e-09
-1.25528e-09
-7.32848e-09
-1.40003e-09
-9.3902e-09
-1.06442e-09
5.18639e-09
-1.51067e-08
-5.96046e-09
-2.34681e-09
-2.69715e-09
-3.44089e-09
3.16144e-09
-3.93286e-09
-2.3871e-10
-9.97204e-10
3.82308e-11
4.34112e-09
-5.32232e-09
-3.13103e-09
4.11223e-09
3.54348e-09
-1.9957e-10
-1.01677e-08
1.54169e-09
-7.31026e-09
-8.21658e-09
4.20128e-10
-1.38856e-08
-3.59242e-09
3.54543e-09
-8.05075e-09
-4.39451e-09
-3.4115e-10
9.20702e-09
-4.47133e-09
7.57837e-09
-3.12601e-09
-8.84689e-09
5.0664e-09
-3.02494e-09
1.25484e-08
-1.45898e-08
1.0103e-08
-5.37778e-09
-4.32164e-09
7.47678e-09
6.05187e-09
3.34251e-09
-8.57695e-11
-1.56407e-08
9.48978e-09
-5.05548e-09
1.40065e-08
3.59733e-09
8.50443e-09
-3.45686e-09
7.53647e-09
-4.4312e-09
2.37221e-10
3.62626e-09
1.92348e-09
8.45676e-09
2.8986e-09
9.23208e-09
-1.14228e-09
1.15177e-08
-3.33535e-09
9.72952e-09
9.08898e-09
-1.05009e-08
-4.42703e-09
-6.37072e-09
3.36235e-09
7.43538e-09
4.50439e-10
2.05582e-09
5.82427e-09
4.21983e-09
-5.24865e-09
4.80417e-09
1.4705e-09
-5.28338e-09
3.25319e-09
6.83435e-09
-1.14307e-09
7.94973e-11
2.99945e-09
2.82393e-09
5.33661e-09
-3.09136e-09
-5.58795e-11
-1.84594e-09
8.46148e-09
-6.10028e-09
9.59093e-09
5.61858e-09
-1.30685e-10
3.88748e-09
5.81204e-09
-5.1656e-09
-4.53389e-09
-4.45059e-09
1.00181e-08
-1.67999e-09
7.75008e-09
-2.38328e-09
-1.36496e-08
8.2829e-09
5.69027e-09
-2.39079e-09
1.24475e-08
4.15108e-09
-1.09084e-08
8.56299e-09
-2.05981e-09
-6.91159e-10
-1.19337e-08
4.38488e-09
1.56572e-08
-3.37452e-09
-6.65239e-09
-5.63019e-09
-6.03477e-09
2.9284e-09
1.87636e-08
3.26722e-09
2.79129e-09
3.9595e-09
5.53638e-09
6.29381e-09
5.90722e-09
9.33152e-09
-1.83274e-08
-2.39842e-09
1.4691e-08
-1.2019e-08
-9.68289e-09
-1.44844e-09
1.0284e-08
1.06882e-09
6.56169e-09
-1.0029e-08
5.15678e-09
9.47734e-10
-5.41649e-10
9.18482e-09
-8.07358e-10
6.9152e-09
1.32754e-09
5.06941e-10
8.90226e-09
-1.39679e-08
7.65441e-10
1.26608e-08
-7.73858e-10
-1.43518e-08
1.18802e-08
1.66425e-09
7.57703e-09
-4.84677e-10
7.90682e-09
1.88626e-08
2.0061e-09
1.76219e-08
1.34017e-08
4.83641e-09
-5.84701e-09
4.19791e-09
-3.1873e-09
-2.703e-10
5.94252e-09
-8.35808e-10
-1.73368e-09
-3.20251e-09
-9.10825e-10
3.84587e-09
-3.39257e-09
-2.18696e-09
7.71244e-09
-3.94441e-10
-4.72836e-09
-2.5896e-09
1.45006e-09
-1.50211e-09
7.7645e-09
5.87072e-09
-2.41928e-09
7.05049e-09
6.73761e-09
-2.60245e-09
6.27403e-11
5.24178e-09
7.43834e-09
-3.78021e-09
5.28369e-09
-4.70598e-09
-1.18486e-10
1.42432e-09
-5.08604e-09
1.07586e-09
-4.58692e-09
5.86471e-09
-5.382e-09
-5.21107e-09
-5.19896e-10
4.88251e-09
-4.69902e-10
-4.8542e-09
4.4883e-09
-6.24604e-09
5.25625e-09
2.16137e-09
-6.49741e-11
9.0763e-11
-4.39689e-09
5.98829e-09
-4.47321e-09
2.74147e-09
-2.99921e-09
4.86233e-11
2.9242e-09
-4.79233e-09
-3.2179e-09
-1.88571e-09
1.03933e-10
2.32334e-09
4.40487e-10
-7.55615e-09
2.5264e-09
-2.9576e-09
6.67737e-09
-6.24618e-09
9.74361e-09
-5.74594e-09
-1.47128e-09
-5.22117e-09
4.3598e-09
-6.31768e-09
2.39838e-09
2.48621e-09
-1.21191e-11
-8.6328e-10
5.35369e-09
2.21138e-09
6.66895e-09
-6.76521e-09
3.08063e-09
5.89596e-09
2.19393e-09
-2.65504e-09
-6.3041e-09
-4.52318e-09
6.69299e-09
1.56962e-10
1.17546e-08
4.44993e-09
-1.62021e-08
-2.57098e-12
8.48468e-09
-5.98465e-09
9.2546e-09
-1.00458e-08
2.27029e-09
1.62601e-08
4.68814e-09
5.88793e-09
-1.27585e-08
-1.3314e-08
3.26033e-09
4.06907e-09
-3.06096e-09
-4.36516e-09
-3.76783e-09
9.75683e-09
-3.71864e-09
-5.84552e-09
3.75241e-10
1.70247e-09
-9.23636e-09
3.69593e-09
1.06973e-08
4.73636e-09
-7.67891e-09
5.91153e-09
-5.01299e-09
-7.0666e-09
4.48142e-09
-1.0235e-09
-2.53384e-09
8.29372e-09
-2.17856e-09
4.7669e-09
1.80436e-08
-1.36752e-08
-9.13536e-09
1.61707e-08
-8.8785e-09
-2.52535e-09
-4.51e-09
6.97273e-09
1.3708e-08
9.31349e-09
4.22007e-09
1.56128e-08
3.63856e-09
-9.59099e-09
-9.66037e-09
-1.47701e-09
2.80716e-09
1.42826e-08
-1.05306e-08
-1.4199e-08
8.8216e-09
1.59079e-08
-1.37992e-08
1.79154e-09
-7.72873e-09
-1.19885e-08
5.51826e-09
-1.68853e-08
-4.64269e-09
-2.61197e-09
-1.60165e-08
1.74314e-09
-8.47684e-09
-7.09211e-09
1.92075e-08
1.8822e-08
-3.02766e-09
2.62546e-10
9.03206e-09
-1.18391e-08
2.54442e-09
-1.19404e-08
-4.85537e-09
-1.60117e-08
-1.312e-08
-1.0474e-08
-1.34937e-09
1.23586e-08
-5.3529e-10
-6.4105e-10
1.97358e-09
-1.18065e-08
-5.49285e-09
5.59835e-09
-1.4549e-09
6.44543e-10
-5.00676e-10
-4.82022e-09
8.41213e-09
-3.0912e-09
9.4515e-09
-4.35382e-09
1.12126e-08
-1.31264e-08
-1.09124e-08
1.28262e-08
1.60695e-08
-7.3822e-09
-2.40012e-10
-1.09128e-08
8.78418e-10
-5.05413e-09
2.38654e-09
3.8286e-09
3.23639e-09
-6.65344e-09
5.30806e-09
3.73193e-09
5.2729e-09
-3.51417e-09
4.12448e-09
1.00434e-08
1.90151e-09
7.82145e-09
-7.03172e-09
-2.5939e-09
1.80429e-09
3.85128e-09
1.01014e-08
-6.13121e-09
8.93546e-09
-3.95907e-09
7.49636e-09
-6.85792e-09
7.55716e-09
5.20691e-09
2.1406e-09
9.54107e-09
-4.89877e-09
1.08907e-08
7.22491e-09
-1.5574e-09
-3.94563e-10
7.6342e-09
-1.09268e-09
-1.12127e-08
1.01366e-08
6.19519e-09
-5.11909e-09
-1.99311e-09
-6.48461e-09
-2.73504e-09
-1.87503e-09
2.41937e-09
9.59226e-09
-1.30485e-08
1.57371e-09
9.59979e-09
-1.11294e-08
1.5175e-08
-1.69055e-08
1.286e-08
4.20873e-09
-1.65553e-08
1.21713e-09
2.6592e-09
-1.1499e-08
2.534e-09
1.42147e-08
9.15703e-09
-1.24652e-08
-1.32472e-08
-3.26467e-09
-4.48381e-09
-1.65199e-08
5.76614e-09
-1.71147e-09
1.92906e-08
7.95112e-09
-2.23192e-08
-4.92261e-09
-1.12866e-08
1.23727e-08
1.82046e-08
-5.32865e-09
5.96784e-10
-1.11703e-08
1.29929e-08
-1.40362e-08
1.7167e-08
1.48785e-09
-2.85508e-10
1.94522e-09
-1.44936e-08
4.2509e-09
1.20023e-08
-4.54789e-09
-1.17053e-08
-2.98276e-09
1.97218e-08
-1.24882e-08
5.38611e-09
-2.56715e-09
7.35939e-09
-1.01784e-08
1.27867e-08
-1.03834e-08
-1.14436e-09
1.20555e-08
8.81066e-09
4.6442e-09
6.21373e-09
-1.00044e-08
1.06972e-08
-7.23002e-09
6.53718e-09
6.52185e-09
-1.31265e-08
-3.39977e-09
6.08034e-09
-1.31954e-08
2.92656e-09
5.49676e-09
-1.06393e-09
1.9356e-09
1.37777e-08
-8.33644e-09
1.50638e-08
3.96991e-09
2.8296e-09
1.04423e-08
-1.74884e-08
4.11492e-09
-9.02674e-10
5.27711e-10
9.08397e-09
-5.73931e-09
-8.29993e-09
8.36716e-09
5.67206e-09
-8.80202e-09
3.22356e-09
-1.60857e-10
6.25478e-10
-8.09998e-09
-8.43939e-10
-6.83052e-09
1.93454e-09
9.19583e-09
1.74051e-08
3.29109e-09
-1.9032e-08
2.33139e-09
3.01885e-09
1.20548e-08
-3.83811e-09
1.08615e-08
1.34378e-09
1.35651e-08
-1.1118e-08
1.20584e-08
1.28168e-08
3.60365e-09
4.9183e-09
-6.37216e-09
7.11073e-11
1.38274e-09
-1.49606e-09
3.38605e-10
6.07575e-09
-5.62673e-09
-1.17817e-09
5.30884e-09
-3.0106e-09
-2.57466e-09
-4.14645e-11
-2.21465e-09
-5.80366e-09
1.64615e-09
-5.03135e-09
-1.93895e-10
-4.42185e-09
-1.24101e-09
6.00144e-09
-5.82759e-09
1.47683e-09
7.15442e-09
-7.3769e-09
-2.35223e-09
3.12555e-10
5.66369e-09
-1.67152e-09
1.83253e-11
-4.15047e-09
-1.97038e-09
-4.73249e-09
-7.63665e-09
-5.74066e-09
7.5497e-09
-1.99012e-09
-5.62821e-09
-7.15699e-09
6.22853e-09
-1.48047e-08
1.50572e-09
7.55835e-09
-3.78389e-09
-1.3011e-08
-2.31698e-09
-5.42714e-09
5.87125e-10
-6.32328e-09
-3.37061e-09
-1.10836e-08
7.16214e-09
-4.62413e-10
-1.4405e-08
-8.75608e-09
-6.93144e-10
9.93204e-09
7.99304e-10
-1.00382e-08
8.84536e-09
1.60216e-09
-9.94787e-09
-4.99678e-10
7.53798e-09
6.1423e-10
9.89918e-09
4.16501e-09
-2.84818e-09
-1.1216e-08
7.03001e-09
1.28012e-08
-5.96546e-09
8.20155e-09
5.30188e-09
1.25547e-09
-5.61878e-09
-1.08706e-11
-7.29724e-09
4.7173e-09
2.59077e-09
6.82785e-09
3.74374e-09
-1.05825e-08
-6.09896e-09
9.69562e-09
5.68326e-10
-5.9059e-09
1.28117e-09
-1.47425e-09
1.34661e-09
7.3545e-09
-4.99606e-10
-7.18056e-09
1.13877e-09
9.40444e-10
5.12343e-09
-1.07416e-09
8.84243e-09
1.06144e-08
-1.99298e-09
1.58391e-09
9.48237e-10
8.67364e-09
-1.12058e-08
-8.7997e-09
2.1759e-09
8.2077e-09
-4.44459e-09
-4.71958e-09
3.64451e-10
2.00198e-09
9.5013e-09
-1.02356e-08
3.37377e-10
1.20741e-08
-4.45828e-09
-1.0098e-08
4.32073e-09
1.50979e-10
1.80502e-09
4.12307e-09
-1.01464e-08
1.24857e-08
5.83328e-09
1.34091e-08
-1.47033e-09
-5.42257e-09
-6.51609e-09
4.70321e-09
-8.34217e-10
9.54017e-09
5.04095e-09
-7.42875e-09
-3.12285e-09
5.51075e-09
1.55156e-10
9.58903e-09
9.12781e-09
-4.89811e-09
2.20229e-09
-6.43199e-09
-1.33743e-09
4.56365e-09
5.90161e-09
-1.12976e-08
3.75849e-09
6.7049e-09
-5.06244e-09
-7.70545e-09
-5.13582e-09
-7.71547e-09
-3.23926e-09
7.15288e-09
-8.7396e-09
4.27931e-09
-2.74703e-09
8.67827e-09
-2.52282e-09
-3.95316e-09
1.00027e-08
-2.21855e-09
-5.36667e-09
-3.14037e-09
-4.09106e-09
-7.22897e-09
1.44604e-08
-8.71945e-09
1.21063e-08
-6.52727e-09
4.73847e-09
1.26848e-08
-4.48124e-09
-1.2942e-08
-1.01691e-09
-9.77679e-09
1.55321e-08
1.8373e-09
-2.45174e-09
1.32992e-08
-1.12245e-08
1.30365e-08
-5.90308e-09
-7.26756e-09
3.85385e-10
-4.51045e-09
-5.10035e-09
2.38183e-09
-7.58855e-09
-4.18948e-09
-2.16763e-09
9.65822e-09
4.73468e-09
-1.22253e-08
-1.42374e-08
-1.3083e-09
-9.36635e-09
6.89612e-09
3.77854e-09
-8.68648e-09
2.27783e-09
-8.39461e-09
1.11508e-08
-7.43306e-09
6.82247e-09
6.22894e-09
3.67515e-09
-4.25616e-09
-5.64794e-09
5.53425e-09
6.97793e-11
6.24919e-10
-3.13572e-09
4.79189e-09
3.87805e-09
9.08113e-10
-3.68686e-10
5.16786e-09
3.22567e-09
-1.26497e-08
-7.64235e-09
6.75311e-10
7.03682e-09
7.37188e-09
-9.84637e-09
4.74247e-09
-3.74564e-09
-8.87509e-11
5.07094e-09
1.5908e-09
-1.86985e-09
3.38003e-10
-7.3222e-09
-6.83955e-10
7.66812e-09
5.21731e-09
-1.36857e-10
5.76807e-09
-6.28804e-09
2.1319e-10
-1.51552e-09
8.67419e-09
-1.34094e-09
2.36972e-08
-8.61826e-09
-1.90884e-08
4.00948e-09
-2.46251e-10
1.50583e-08
8.88522e-09
-1.18635e-08
7.6076e-09
4.00966e-09
-1.67977e-08
-3.68416e-09
1.06746e-08
1.56805e-08
-1.12967e-08
-3.45223e-10
-4.71285e-09
1.57326e-08
-7.49478e-09
-2.87367e-09
1.00232e-08
5.82727e-09
-1.88909e-08
-1.12602e-09
1.41896e-08
1.12616e-08
-1.01472e-08
-4.41272e-09
4.52551e-09
1.12131e-08
1.18495e-09
-2.86815e-09
-9.53003e-09
-9.06888e-09
-1.70931e-08
7.27111e-09
-1.09361e-08
6.93627e-09
5.04784e-09
1.7525e-09
1.13683e-08
-1.69083e-08
-3.52905e-09
1.53947e-08
-2.84146e-09
9.50643e-09
-5.5401e-10
-1.09562e-09
-9.33012e-09
1.09797e-08
-1.57543e-08
-2.39491e-09
5.95796e-09
-8.15852e-09
3.70233e-09
-1.5018e-09
-6.96677e-09
-1.37508e-09
-8.72599e-09
9.00546e-09
1.07638e-08
-7.66665e-09
8.83377e-09
-1.19309e-08
9.92196e-09
2.15e-09
-1.30818e-09
-1.61343e-09
-1.14602e-08
-6.45958e-09
-1.46323e-08
1.29333e-08
-1.7526e-08
-6.39633e-09
7.59231e-09
3.96168e-09
-1.52424e-09
-9.61345e-10
-2.76143e-09
6.23022e-09
-6.57454e-09
3.10583e-09
1.68251e-09
-4.39102e-09
-5.29174e-11
6.36599e-09
-6.45207e-09
-2.39206e-09
2.47808e-09
-3.9027e-10
6.30752e-09
4.48764e-10
-4.18184e-09
-2.08337e-10
3.9999e-09
-2.57526e-09
7.59334e-11
2.47406e-10
5.77448e-09
5.60909e-09
-5.12731e-09
-4.87279e-09
-2.95171e-10
-6.70282e-10
-8.10903e-09
8.12629e-09
2.30155e-10
-1.38123e-09
-6.93805e-09
1.86721e-09
-3.85042e-09
-1.06096e-10
-7.50663e-09
-8.97608e-10
-1.57712e-09
4.82718e-10
-5.84368e-09
-8.77226e-10
-4.55031e-09
-1.16224e-09
1.22467e-09
-7.56908e-09
-7.16678e-09
-5.46915e-09
7.17653e-09
-2.95489e-09
-1.02937e-08
1.0659e-08
1.62298e-09
-1.21421e-08
7.56425e-09
4.5574e-09
4.08385e-09
-1.10066e-08
-5.21933e-09
-2.47177e-09
-3.73812e-09
-6.46886e-09
-1.21399e-09
-4.11228e-09
-6.75347e-09
-1.04903e-08
1.15689e-09
1.28324e-08
1.03113e-09
-5.45698e-09
-8.40654e-09
1.90302e-08
-3.10992e-09
-2.34259e-09
-1.35776e-08
-2.35262e-09
1.42128e-08
9.72254e-10
1.78896e-08
-1.21199e-09
3.39737e-09
9.97338e-09
3.74202e-09
-1.71127e-08
-7.46906e-09
1.70891e-08
4.59279e-09
1.38179e-08
9.6881e-09
2.24951e-09
-1.23076e-08
3.69883e-10
5.75891e-09
5.88901e-09
-1.95984e-09
3.96835e-10
-1.34828e-08
1.54779e-08
-2.39196e-09
9.85041e-09
-3.84957e-10
-3.70656e-09
6.45638e-09
-1.01755e-09
-1.34128e-08
7.9739e-09
-9.26527e-09
3.24053e-09
-3.82681e-09
9.8515e-09
-5.69099e-09
3.70027e-09
8.44708e-09
1.13212e-08
3.12365e-09
-1.21954e-08
1.38231e-08
3.38709e-09
2.22804e-09
1.85335e-08
-1.7638e-08
1.56769e-08
-1.3052e-08
1.33783e-09
2.82156e-09
-7.21174e-09
-1.42642e-08
1.64261e-08
5.04985e-09
-8.74862e-09
2.87469e-09
-1.26946e-09
1.18327e-08
7.97026e-09
5.14214e-09
-1.01456e-08
7.71406e-09
-5.0711e-09
8.56951e-09
1.97667e-09
-1.07684e-08
2.22192e-10
1.04057e-09
8.09884e-09
-5.69922e-10
1.02182e-08
2.61802e-09
-1.08596e-08
1.10937e-08
1.6503e-10
1.7567e-09
-7.4825e-09
-2.3742e-09
-7.87411e-09
5.84135e-09
-5.27096e-09
7.30371e-09
-1.24227e-09
-6.70576e-09
7.38994e-11
-2.64987e-09
-2.52118e-11
8.51641e-09
-6.58286e-09
-2.54551e-09
6.4785e-09
-7.81098e-09
-1.4157e-11
1.18633e-09
1.09369e-08
-1.02952e-09
-6.67913e-09
5.44655e-11
9.40997e-09
1.70099e-09
-3.01212e-09
1.39686e-09
-5.45798e-09
9.6325e-09
-6.47894e-09
-8.91476e-09
3.48294e-09
-5.98803e-09
2.42666e-10
8.14875e-09
2.08435e-09
7.56826e-09
7.73119e-09
9.66886e-09
1.66277e-08
-1.93063e-08
-6.99029e-09
1.49299e-08
-6.37118e-09
1.11012e-09
-9.70528e-09
2.08737e-08
-6.55888e-09
-4.6095e-09
1.57953e-08
-1.34168e-08
-1.20837e-08
-7.51116e-09
1.748e-08
1.09049e-08
2.46625e-10
8.03755e-09
7.92039e-09
-5.39714e-09
1.41045e-08
1.85171e-08
4.33327e-09
-1.52545e-08
-1.10524e-09
9.98858e-09
-1.52436e-08
1.72129e-08
-8.52813e-09
-4.77256e-09
2.00794e-08
2.17312e-09
1.84447e-09
-1.14904e-08
-5.59774e-09
-6.88743e-09
6.65207e-09
-1.90709e-08
-2.13266e-08
-8.15307e-10
-1.09122e-09
1.35316e-08
2.25459e-08
-1.40494e-08
1.60576e-08
1.89528e-09
1.08464e-08
-2.14454e-09
-1.05971e-08
1.34399e-08
2.68975e-10
-1.18137e-08
-1.4115e-09
1.29998e-08
-9.77628e-09
-1.81209e-09
1.19049e-08
-1.30006e-08
-3.15805e-10
-5.90891e-09
-1.00831e-08
1.30993e-08
2.89261e-09
9.93731e-09
-2.40628e-09
1.02051e-08
-3.11857e-09
2.85082e-09
5.71281e-09
-6.81671e-09
1.13089e-08
1.27482e-08
-9.83138e-09
-1.02077e-08
-7.55563e-09
2.34762e-08
-1.02971e-08
1.28573e-08
-1.27679e-08
-1.44131e-08
-9.3953e-09
1.62528e-08
-4.28706e-09
-9.01593e-09
-1.40699e-08
6.54268e-10
-1.11705e-09
-2.10654e-09
1.89774e-09
4.38489e-09
-1.34589e-08
5.96132e-09
-4.99779e-09
-3.54062e-09
1.43285e-08
3.21017e-09
-5.13721e-09
1.41508e-08
-1.22237e-08
1.07457e-08
-3.01002e-09
-3.83068e-09
-3.41812e-09
-4.33787e-09
1.15867e-08
-3.23921e-09
-4.28943e-09
3.69799e-09
-1.11411e-09
5.68345e-09
1.99359e-09
-6.56284e-09
-7.11091e-09
4.90548e-09
1.09134e-09
5.88446e-09
-9.52889e-09
-1.49277e-09
3.17647e-09
-5.00685e-09
-5.2805e-09
-1.00174e-09
1.66758e-08
-1.52329e-09
-3.07608e-09
-6.47594e-09
6.13393e-09
-5.90835e-09
-4.06931e-10
-1.8656e-09
-5.66908e-09
3.19682e-09
-4.71543e-10
-4.893e-09
3.89013e-09
6.42621e-09
-1.54344e-09
-3.67256e-10
-1.34924e-09
-4.07217e-09
9.14884e-09
6.57088e-09
6.03278e-09
8.17615e-09
-2.11717e-09
8.27111e-09
-1.20579e-08
1.12285e-08
-7.41922e-09
8.24866e-09
2.88243e-09
-2.52323e-09
-1.24171e-08
3.14997e-09
-3.02425e-09
2.7567e-09
9.79789e-09
-7.88092e-09
1.23299e-09
1.17023e-08
2.74407e-09
-4.64854e-09
-4.36903e-09
7.68503e-09
7.52551e-09
-1.08416e-08
3.22821e-09
5.63562e-09
-1.32329e-08
9.27708e-09
1.20632e-09
-1.30066e-08
5.27905e-09
1.85439e-09
4.56889e-09
2.5407e-09
-6.01761e-09
-8.31713e-09
1.1794e-08
-4.06015e-09
-3.43006e-09
1.00309e-08
8.90393e-09
4.88069e-09
-1.6128e-08
5.22972e-09
-7.81341e-09
9.26404e-09
1.2267e-08
3.94385e-10
-3.38436e-09
7.36748e-09
6.89303e-09
-1.28521e-08
7.14489e-09
-8.83689e-09
2.89831e-09
9.76055e-09
-3.72425e-09
1.10857e-09
-1.30944e-08
8.00542e-09
-2.93946e-09
-6.25233e-09
-5.87209e-10
7.26078e-09
-4.21239e-10
-6.9172e-09
1.34606e-09
-6.8116e-10
6.76117e-09
3.72571e-10
-5.99991e-09
-1.13377e-09
-9.03612e-10
7.07758e-09
9.15918e-09
-6.70979e-09
-2.07681e-09
8.49284e-09
-2.37257e-10
-8.09565e-09
-8.92008e-09
1.03059e-08
1.00745e-08
1.09895e-09
-8.91812e-10
-1.02816e-08
-2.40042e-10
-5.54447e-09
-2.15401e-10
-6.90314e-09
-2.5408e-10
-5.38712e-10
9.31437e-09
8.38629e-10
4.4216e-10
-6.85606e-09
-4.89215e-10
-7.48105e-09
-2.02427e-11
7.94344e-09
1.20815e-10
-8.75516e-09
2.95666e-11
-5.45323e-09
-3.76661e-10
-7.2047e-09
4.1766e-09
-4.45299e-09
-8.70893e-10
-1.91279e-09
7.06912e-09
-2.07634e-09
-3.07998e-09
-2.72368e-09
-4.9647e-09
5.77561e-09
9.44314e-10
3.77001e-09
2.22354e-09
-6.93785e-09
6.27586e-09
-2.00773e-09
2.80101e-09
-1.75301e-09
3.93505e-09
-4.25838e-09
2.45778e-09
-6.93452e-09
3.09556e-09
4.12462e-09
6.4506e-09
-4.30155e-09
-1.47208e-09
-6.76948e-10
3.85371e-09
5.87012e-09
-3.27322e-09
-5.64773e-09
-8.32378e-10
-8.20294e-09
9.03438e-09
-9.46451e-09
4.51831e-09
8.58515e-09
1.17888e-09
6.43502e-09
9.51401e-09
8.90642e-09
5.74909e-09
-7.43456e-09
-7.22096e-09
9.62554e-10
7.94666e-09
-2.78818e-12
7.55419e-09
7.08615e-09
-6.82569e-09
-7.81466e-09
8.40105e-09
1.15692e-10
-1.16919e-08
1.3161e-08
6.47754e-09
-7.86894e-10
-5.15592e-09
1.59212e-08
-9.49979e-09
-7.20836e-09
8.63238e-11
1.17134e-08
4.12156e-09
-1.43355e-08
-8.42544e-09
1.32612e-08
-8.30792e-09
2.33504e-10
1.22749e-08
-4.20044e-09
-8.49013e-09
-1.19925e-10
3.02121e-10
8.71939e-09
-1.59933e-09
-6.10146e-09
-1.01861e-09
7.47532e-10
-5.18286e-10
7.26662e-09
5.67056e-10
7.06702e-09
8.60065e-09
3.80899e-09
9.43835e-09
1.11095e-08
1.87883e-08
1.78477e-09
-1.77509e-08
-2.82231e-09
-2.05156e-08
2.01143e-08
3.83075e-09
-3.42947e-09
-1.26712e-08
8.6217e-09
-1.64661e-08
3.85389e-09
-1.60277e-08
-4.97441e-10
-1.56301e-08
2.38367e-08
1.19076e-08
-1.15307e-09
-5.85539e-09
6.07555e-09
2.06734e-08
-7.96057e-09
1.44899e-08
-7.96141e-10
-7.61815e-09
-1.39366e-08
1.87088e-08
-9.41414e-10
2.91779e-09
-1.30006e-08
1.33573e-08
1.15421e-08
-4.22589e-09
1.95293e-08
8.31785e-09
1.49227e-08
-6.14551e-09
-9.93027e-09
2.11948e-08
-1.3045e-08
3.3922e-09
2.01469e-08
-1.54444e-08
2.77377e-09
8.78061e-09
7.97489e-09
9.57945e-09
1.43892e-08
-2.65296e-10
2.49331e-09
1.26946e-08
-1.20954e-08
1.35803e-09
1.0472e-08
-3.01827e-09
1.47596e-08
7.93179e-09
7.75868e-09
-5.47435e-09
1.25763e-08
1.90682e-08
1.98163e-09
-1.14704e-08
-2.97512e-10
1.55979e-09
4.31622e-09
8.46749e-10
-2.8924e-09
4.11747e-09
-1.64233e-09
-5.79132e-09
3.07987e-09
-3.41284e-11
-1.05382e-09
-3.79398e-09
-5.76027e-09
4.96006e-09
4.59419e-09
-1.56439e-09
5.61466e-09
3.38157e-10
8.26148e-09
-8.90541e-09
7.05683e-09
-6.84756e-09
1.24865e-09
-1.29408e-09
6.98361e-09
-5.28294e-09
6.54658e-09
-1.50002e-11
8.71336e-10
1.62987e-09
6.49175e-09
-4.71786e-09
2.3368e-09
5.02628e-09
1.08042e-09
3.40721e-09
-4.03956e-09
-4.48014e-10
1.45863e-09
-3.07257e-09
2.69446e-09
-5.65682e-09
1.2211e-09
5.89437e-09
-3.73989e-09
-5.02225e-10
-1.41467e-09
-4.96037e-09
-1.85206e-09
-1.01861e-09
3.74984e-09
-3.67516e-11
2.65309e-09
-2.64477e-10
4.37336e-09
-1.41105e-09
1.17575e-09
-4.13802e-09
4.03804e-10
-6.99887e-11
-3.90956e-09
3.96694e-09
4.82386e-09
-4.8812e-09
-6.39366e-09
1.07306e-09
-1.14831e-09
7.12598e-09
-4.3706e-09
-1.60696e-09
5.4567e-09
-2.63802e-09
7.6052e-09
-2.18517e-09
-5.92222e-09
-3.6345e-10
9.18977e-09
-1.26785e-10
-3.65783e-09
5.11951e-09
1.08179e-10
-5.403e-09
7.29164e-09
-2.01538e-09
-2.00021e-09
8.76276e-09
-1.01918e-09
4.4757e-09
1.38413e-09
-6.4978e-09
7.43166e-10
3.65233e-09
5.51227e-09
-7.02705e-09
-6.7034e-10
2.8812e-09
-6.80305e-09
9.43415e-09
-3.57357e-09
-7.99462e-10
7.2543e-09
-5.77719e-09
-2.15188e-10
2.41885e-09
-4.57908e-09
6.9389e-09
-8.13701e-09
5.09066e-09
-1.37057e-08
4.03604e-09
2.5674e-09
-6.84085e-09
-2.75355e-09
8.54983e-10
1.02985e-09
1.17157e-09
-1.03761e-08
8.17468e-09
-6.05136e-09
-2.89932e-10
-7.36444e-09
-3.94489e-09
4.14209e-09
-3.54648e-09
3.34938e-09
-5.93758e-09
1.77755e-09
-3.08846e-09
6.4311e-09
2.2643e-09
-4.65409e-09
1.71948e-09
-3.84674e-09
3.0226e-09
8.83364e-10
-5.78302e-09
-1.03791e-09
4.58378e-09
-3.60731e-09
-9.30866e-11
-6.63535e-09
3.70575e-11
8.15276e-10
1.77245e-09
-7.37793e-09
1.34464e-09
-6.22442e-09
1.11975e-09
-8.24314e-11
2.67193e-09
-5.00523e-09
-2.32079e-09
-5.50537e-11
1.11832e-09
-2.9532e-09
3.67027e-10
-5.86324e-09
-3.51987e-09
-7.5203e-09
-9.36888e-09
1.87003e-09
1.50191e-08
-1.2328e-08
-1.08101e-09
5.88866e-09
1.96482e-09
1.65881e-08
-1.48701e-08
-3.68282e-09
-9.044e-09
-1.31914e-09
6.29838e-09
-1.22236e-08
4.8442e-09
-7.10087e-09
1.43201e-08
-5.94777e-09
5.9788e-09
-1.49012e-08
6.95246e-09
-9.05684e-09
8.40276e-09
-6.74908e-09
1.55716e-08
-9.09354e-09
2.38478e-09
-5.51484e-09
8.25602e-09
3.3671e-09
-1.75709e-08
-9.88152e-09
-2.43437e-08
6.57851e-09
1.06643e-08
-5.50762e-09
-1.62623e-08
1.60917e-08
-1.1508e-08
-7.42135e-09
2.66707e-09
-4.35463e-09
-2.31745e-09
-7.03019e-09
-9.98546e-09
-9.0173e-09
-2.75869e-09
-1.26804e-08
-8.80512e-09
6.39582e-09
9.09513e-09
-6.68584e-09
2.62161e-09
-3.98406e-09
-7.44267e-09
-3.81969e-09
1.33425e-09
8.88125e-09
-1.38431e-09
1.86226e-10
-3.18201e-09
1.78409e-09
1.3591e-11
1.14756e-09
-5.51536e-09
1.18578e-09
-3.67606e-09
2.46417e-09
-4.58492e-09
5.79681e-09
-2.00544e-09
1.13461e-10
-4.07955e-09
7.87797e-09
4.80856e-09
-6.34734e-09
2.68633e-09
6.07618e-09
-3.27306e-09
-3.11539e-10
1.8028e-09
1.19304e-09
-5.58413e-09
3.0432e-09
-7.40014e-10
-6.90905e-09
4.60584e-09
-3.91119e-09
-9.5927e-10
7.91364e-09
6.31372e-09
-1.04366e-08
1.62811e-09
2.49474e-09
-6.28294e-09
8.68546e-09
-5.43646e-09
-8.63234e-09
3.63218e-09
-1.14105e-08
6.0052e-09
-3.12068e-11
-9.87626e-10
-2.68057e-09
-4.96417e-09
-4.95342e-09
-7.44469e-09
-4.31939e-09
-6.38436e-09
9.74446e-09
-9.95069e-09
4.89128e-09
-8.85848e-09
3.57752e-09
-4.5996e-09
4.32183e-09
-4.50504e-09
8.97504e-09
-9.42344e-09
-2.11636e-09
-5.28091e-09
-2.55347e-09
2.84271e-09
4.18673e-09
-1.15345e-08
6.9775e-09
-6.81539e-09
-3.99735e-09
3.03558e-09
1.33983e-09
-1.14978e-08
1.28955e-08
-7.78207e-09
-9.94618e-09
-6.83254e-09
-1.64608e-08
1.07014e-08
5.45936e-09
-1.60447e-08
1.00735e-08
5.11841e-10
-1.09394e-08
2.35185e-09
1.40468e-08
-3.45051e-09
-5.35961e-09
-2.12926e-09
-9.75524e-09
-9.73998e-09
-5.88618e-09
1.29621e-08
-4.72408e-09
1.33355e-08
-8.81116e-09
2.92523e-09
-7.44955e-09
-1.81483e-09
8.10163e-09
7.04864e-09
-1.03651e-08
3.19063e-09
-2.60503e-09
-1.65713e-08
-9.74798e-09
1.19634e-08
-3.99928e-09
-2.82348e-09
-1.39558e-08
-7.58657e-09
9.27145e-09
1.22709e-08
-7.23063e-09
-1.64804e-08
9.01237e-09
-1.8848e-08
-2.57349e-09
3.77286e-09
-7.57706e-09
-3.95966e-09
7.76384e-09
6.34361e-09
-2.79669e-09
2.25921e-10
1.43685e-09
7.15489e-09
-2.24815e-09
-8.81505e-09
1.6027e-09
6.55678e-09
6.5551e-10
-5.57463e-09
4.24491e-09
-7.48537e-09
-2.19865e-09
-1.09531e-08
-1.01519e-08
1.80708e-09
9.94747e-09
-3.90012e-09
-2.00687e-09
-5.51005e-11
-7.21981e-09
9.08197e-09
-6.02488e-09
7.40662e-09
5.70903e-09
2.6066e-09
-1.05143e-08
2.9525e-09
-4.018e-11
3.38234e-09
-6.41308e-09
-4.18909e-09
3.09948e-10
-7.70661e-09
1.00956e-08
-1.55159e-08
-1.13645e-08
1.67848e-08
-2.72521e-08
9.48814e-09
1.23818e-08
5.38218e-09
-9.48883e-09
-7.66775e-09
-6.63093e-09
-5.3647e-09
2.3152e-08
-1.11565e-08
-9.28399e-09
-1.62396e-08
1.88927e-08
9.27776e-09
-2.6274e-10
1.06752e-08
-1.96903e-08
-1.16029e-08
-2.0319e-08
1.07722e-08
6.51769e-09
8.76657e-09
7.86774e-09
1.39355e-08
-1.27492e-08
-1.67693e-08
9.16428e-09
-6.26172e-09
1.14509e-08
6.90066e-09
-1.20899e-08
9.01897e-10
-1.31345e-08
5.97085e-09
-1.51963e-09
-1.31428e-09
-7.23162e-09
-7.30629e-09
7.2231e-09
7.31482e-09
-7.4099e-09
-6.51314e-12
1.84779e-10
-1.1927e-08
1.493e-09
3.12774e-09
-1.06069e-08
-8.73008e-09
-8.17267e-09
1.73581e-09
8.51904e-09
-2.08217e-09
5.68016e-11
-9.10865e-09
8.79171e-10
-3.35021e-09
-2.42271e-09
1.2996e-08
7.53206e-09
-9.34848e-09
3.30943e-09
1.31402e-08
7.26292e-09
-1.17537e-08
-8.64941e-09
-4.34583e-09
5.37022e-09
1.21158e-08
5.71774e-11
2.85992e-09
6.04486e-09
7.49919e-10
-6.73798e-09
7.51824e-09
2.62424e-10
5.14145e-09
3.43478e-09
-7.39501e-09
9.18625e-09
1.16716e-10
1.04796e-08
-6.60402e-10
-8.35227e-09
-3.35811e-10
-1.05173e-08
-7.26433e-09
-3.57959e-09
-1.55495e-08
-2.21054e-08
-1.15562e-08
1.2582e-08
-1.33303e-08
-3.48421e-09
4.23248e-09
-1.0897e-08
9.08351e-09
-1.60137e-08
-8.61931e-09
-1.43957e-08
1.37381e-09
-1.24168e-08
1.38491e-08
1.27396e-08
-1.41718e-08
-2.65426e-08
1.66079e-08
-1.62148e-09
6.75349e-10
-1.04493e-08
-6.23973e-09
1.15369e-08
-1.53671e-08
1.34828e-08
-9.65255e-09
-3.65244e-09
-1.13532e-08
-4.47177e-09
-8.18322e-09
-8.90993e-09
-9.13818e-09
-1.66921e-08
-2.66717e-09
-8.484e-09
-5.03102e-09
-4.73665e-10
1.39887e-08
-9.8271e-09
-3.26483e-09
4.60794e-09
5.62134e-09
-9.40064e-09
-6.04779e-09
4.36886e-09
-7.62336e-09
-4.65406e-09
1.18037e-08
-1.05371e-08
-3.51024e-10
-9.69989e-09
7.32367e-09
6.05969e-09
-1.22159e-08
-3.24441e-09
-4.41435e-09
-6.31066e-11
-7.53168e-09
-6.58256e-09
-2.28999e-08
3.27362e-09
1.09289e-08
8.69728e-09
7.10929e-09
-1.6563e-08
-1.34462e-08
2.46244e-08
-9.7323e-09
-7.7828e-09
1.61919e-08
1.17061e-08
1.34609e-08
-1.56903e-08
-1.43337e-08
9.73622e-09
1.78499e-08
-1.13942e-08
5.97616e-09
-5.29987e-09
1.02526e-08
-1.86646e-08
1.62422e-08
1.48043e-08
-1.68718e-08
1.04583e-08
1.7675e-08
-6.78261e-09
4.10035e-09
9.56163e-10
1.47562e-08
2.38879e-08
-5.79928e-10
-9.84715e-09
4.42388e-09
1.41641e-08
-7.16789e-09
1.85823e-08
-1.44053e-08
1.16612e-08
5.62049e-10
-2.17499e-08
-8.84304e-09
7.17613e-09
5.86648e-09
-4.19961e-09
6.4226e-09
4.02504e-09
-1.92907e-08
-1.74076e-09
1.06691e-08
-1.75224e-09
-4.27209e-09
-1.60348e-08
1.69458e-08
3.3611e-09
1.02471e-08
-3.53462e-09
-9.05146e-09
2.33894e-09
1.42807e-08
9.56106e-10
-4.98976e-09
-1.01435e-08
9.66144e-09
6.90466e-09
-1.17189e-08
-4.79727e-11
5.90638e-09
5.86044e-09
-1.07785e-08
-1.19663e-08
1.10259e-08
2.01041e-09
2.12681e-09
-7.63162e-09
8.01711e-09
1.62491e-09
7.94081e-09
-1.07504e-08
-4.82208e-09
3.51446e-09
4.37837e-09
4.13836e-09
7.39321e-09
1.2059e-08
1.34705e-09
-1.63976e-08
-1.29379e-08
7.05755e-09
-5.93856e-09
5.9802e-09
-7.0992e-09
2.36631e-09
4.75838e-09
-6.71627e-11
-6.44198e-09
3.66471e-09
6.66944e-09
-3.8922e-09
-4.21693e-09
1.41246e-10
-4.85244e-09
-3.49076e-09
4.12625e-09
1.12778e-08
-6.03524e-09
-6.71989e-09
1.47731e-09
4.43246e-09
6.94166e-09
-9.62855e-11
1.16326e-08
-6.87082e-09
-1.07971e-08
9.19399e-09
-1.98323e-09
4.42182e-09
-3.78973e-09
4.23776e-09
4.31033e-09
-1.80649e-10
-1.06104e-08
4.2297e-09
9.39673e-09
9.08168e-09
-1.61332e-08
5.91161e-09
1.18683e-09
1.19096e-08
-1.85166e-09
-4.07775e-09
2.25623e-09
5.86364e-09
-1.40728e-10
8.04319e-09
-9.08134e-09
4.36534e-09
6.97222e-09
-5.02139e-09
8.4543e-09
-2.64908e-09
-6.40713e-09
1.50386e-08
-5.98242e-09
-7.54999e-09
-6.2991e-09
1.12e-08
-1.09786e-08
1.16374e-08
4.86367e-10
-1.14526e-09
3.12857e-09
-1.40981e-09
-1.26973e-08
-1.02342e-08
2.08071e-09
6.03498e-10
4.16855e-09
-8.82477e-09
-4.35034e-09
9.00657e-09
-3.11511e-09
7.30149e-09
-1.78347e-11
2.10111e-09
-1.19191e-08
3.51881e-09
-1.08588e-08
6.55274e-09
-7.24787e-10
-9.7991e-09
-1.39518e-09
1.13914e-08
-9.88922e-09
-2.227e-09
-1.12013e-08
1.26045e-08
1.28486e-09
-9.35756e-09
7.89109e-09
-1.01633e-08
8.62348e-10
-4.47326e-10
-4.49487e-09
5.02752e-09
-1.04944e-09
-7.46482e-09
-8.81998e-09
-2.11869e-09
-7.46509e-09
-1.44886e-10
-1.12685e-08
3.77074e-09
6.96577e-09
5.31982e-10
9.40401e-10
5.03524e-11
-1.22593e-08
-8.33551e-09
7.78687e-09
4.31933e-09
4.31764e-10
-7.82692e-09
-8.67256e-09
9.38858e-09
6.24974e-09
8.29147e-10
-9.45136e-09
3.94856e-09
1.24501e-09
2.59326e-09
-4.18237e-10
-2.10754e-09
6.47434e-09
4.04413e-09
-5.93137e-09
3.13219e-09
-3.3522e-09
6.97809e-09
-8.55166e-09
-1.5168e-09
7.96092e-09
-7.32644e-09
-2.11001e-09