/*--------------------------------*- C++ -*----------------------------------*\
| =========                 |                                                 |
| \\      /  F ield         | OpenFOAM: The Open Source CFD Toolbox           |
|  \\    /   O peration     | Version:  v1612+                                |
|   \\  /    A nd           | Web:      www.OpenFOAM.com                      |
|    \\/     M anipulation  |                                                 |
\*---------------------------------------------------------------------------*/
FoamFile
{
    version     2.0;
    format      ascii;
    class       volVectorField;
    location    "150";
    object      wallShearStress;
}
// * * * * * * * * * * * * * * * * * * * * * * * * * * * * * * * * * * * * * //

dimensions      [0 2 -2 0 0 0 0];

internalField   uniform (0 0 0);

boundaryField
{
    WALL
    {
        type            calculated;
        value           nonuniform List<vector> 
1516
(
(-0.0205533 -0.00319547 0.00740745)
(-0.0241764 -0.00193715 0.0100999)
(-0.0202128 -0.0222647 0.0135041)
(-0.0183573 -0.0205047 0.0146291)
(-0.00252313 -0.0140561 0.0194653)
(-0.00550913 -0.014439 0.0202801)
(-0.0178666 -0.0122157 0.0135822)
(-0.0177605 -0.011468 0.0148814)
(-0.0152379 -0.00617171 0.00412957)
(-0.0175553 -0.0174103 0.0108548)
(-0.0170326 -0.0168732 0.0101211)
(-0.00443887 -0.0155638 0.017118)
(-0.00122369 -0.0152127 0.0164562)
(-0.0220835 -0.00954833 0.00536074)
(-0.0210266 -0.00886782 0.00619219)
(-0.0208786 -0.00220339 0.0108166)
(-0.0196568 -0.00292718 0.0110826)
(-0.021205 -0.00108265 0.00659366)
(-0.0215549 -0.0117981 0.00890418)
(-0.0217972 -0.0126489 0.0100196)
(-0.003317 -0.0104192 0.000926039)
(-0.00322767 -0.0113086 0.00167445)
(-0.00162953 -0.0136985 0.0187525)
(-0.00177521 -0.0152187 0.0172513)
(-0.00289034 -0.0126859 0.0165387)
(-0.00350061 -0.0122732 0.0134719)
(-0.00378867 -0.0121899 0.00129177)
(-0.00382446 -0.013483 0.00313169)
(-0.0218172 -0.0117585 0.00367275)
(-0.0202222 -0.00939479 0.00383974)
(0.00196137 -0.0179755 0.0109544)
(0.00275306 -0.0168337 0.0121661)
(-0.00409646 -0.0066156 0.000483747)
(-0.0046627 -0.00628827 0.000468842)
(-0.0179781 -0.0147877 0.0120359)
(-0.0186733 -0.0147819 0.0138713)
(-0.0109302 -0.0132023 0.00730497)
(-0.0091952 -0.0104556 0.00423287)
(-0.012214 -0.0172467 0.0114935)
(-0.0114313 -0.0142284 0.00887467)
(-0.0118178 -0.014818 0.00805285)
(-0.0128899 -0.0186518 0.0112303)
(-0.0142984 -0.0177776 0.0156049)
(-0.0151185 -0.0210579 0.0170306)
(-0.0132106 -0.0222152 0.014208)
(-0.0137183 -0.0205611 0.0148813)
(-0.0135118 -0.0146384 0.0130555)
(-0.0121381 -0.0116888 0.00968092)
(-0.00722635 -0.00635495 0.00207502)
(-0.00641859 -0.00620406 0.001167)
(-0.00446407 -0.00645514 -0.000273485)
(-0.00509385 -0.00597427 0.000426891)
(-0.0102399 -0.00644594 0.00214878)
(-0.00964247 -0.00653309 0.000847544)
(0.00266655 -0.0192549 0.0110037)
(0.00273925 -0.0165413 0.0112092)
(0.000492582 -0.0174003 0.0166411)
(-0.000956303 -0.0155955 0.0163256)
(-0.00608353 -0.0107346 0.0216116)
(-0.00879765 -0.0105678 0.0218743)
(-0.0208249 -0.00782309 0.0128027)
(-0.0202998 -0.00596623 0.0147138)
(-0.0184591 -0.0099809 0.0147828)
(-0.0181397 -0.00945188 0.0163946)
(-0.0175336 -0.0079065 0.0155021)
(-0.0165217 -0.0073562 0.0172173)
(-0.015855 -0.0213974 0.015267)
(-0.0164268 -0.0225407 0.0147637)
(-0.0123194 -0.00179922 0.0166824)
(-0.0153197 2.02908e-05 0.0165433)
(-0.00431656 -0.00684734 0.000326081)
(-0.00476165 -0.00655583 0.000474879)
(-0.00435234 -0.0142316 0.0099754)
(-0.00536365 -0.013672 0.0103776)
(-0.0195333 -0.00330512 0.0144229)
(-0.0183267 -0.00383043 0.0155112)
(-0.0179838 -0.00224692 0.01428)
(-0.021083 -0.00437298 0.0130062)
(-0.0191822 -0.0032948 0.012644)
(-0.018619 -0.0040961 0.0148679)
(-0.0204564 -0.00949869 0.00411673)
(-0.0226432 -0.00851855 0.004426)
(-0.022367 -0.00629447 0.00628042)
(-0.0223771 -0.00746859 0.00628004)
(-0.0222462 -0.00665513 0.00687248)
(-0.0220041 -0.00702482 0.00514857)
(-0.0141234 -0.006719 0.0042723)
(-0.013192 -0.00626236 0.00467422)
(-0.0119943 -0.00658592 0.00353638)
(-0.00805993 -0.00603867 0.00125891)
(-0.0111554 -0.00688461 0.00169512)
(-0.0127913 -0.00678127 0.00273824)
(-0.0036524 -0.0100747 0.000254661)
(-0.00392045 -0.00954788 -0.00011903)
(-0.0043729 -0.00865896 -0.000206842)
(-0.00405746 -0.00785844 -0.000200452)
(-0.0039132 -0.0105296 0.000309286)
(-0.00377889 -0.00905932 -3.39935e-05)
(-0.00501637 -0.00650989 0.000692338)
(-0.00424935 -0.00659296 0.000215682)
(-0.00428869 -0.00652312 5.57889e-05)
(-0.00507548 -0.00654176 0.000709951)
(-0.00504236 -0.00696075 0.00040431)
(0.00243628 -0.0171065 0.0140063)
(0.00125391 -0.0166938 0.0144368)
(-0.000537925 -0.0169673 0.0170793)
(0.000734242 -0.0170207 0.0146585)
(-0.000149353 -0.0158055 0.0153894)
(0.00169041 -0.0167025 0.0134382)
(-0.0204129 -0.0189829 0.0089545)
(-0.0186003 -0.0184808 0.00820191)
(-0.0172255 -0.020643 0.00894567)
(-0.0168357 -0.0192222 0.00846905)
(-0.0180902 -0.0167484 0.008229)
(-0.0190787 -0.0180282 0.00942735)
(-0.019184 -0.0145919 0.0117404)
(-0.0189007 -0.0135511 0.0117281)
(-0.0189891 -0.0139997 0.0127277)
(-0.0190505 -0.0138664 0.0112311)
(-0.0194053 -0.0145759 0.0124407)
(-0.0205595 -0.0152442 0.0127297)
(-0.0127944 -0.0152987 0.0121029)
(-0.0128443 -0.0143208 0.00996723)
(-0.0129666 -0.0142118 0.0105117)
(-0.0121386 -0.014632 0.0112627)
(-0.0112148 -0.0120393 0.00883835)
(-0.0107972 -0.0117727 0.00849572)
(-0.019049 -0.0219277 0.0160829)
(-0.0192138 -0.0195032 0.0148402)
(-0.0180179 -0.0201694 0.0161393)
(-0.0164082 -0.019805 0.0138187)
(-0.0175392 -0.0193373 0.0134524)
(-0.0191748 -0.0212203 0.0122178)
(-0.0172216 -0.0193555 0.0126437)
(-0.0195671 -0.0206638 0.0135795)
(0.00258485 -0.0174409 0.00744319)
(0.00097479 -0.0139164 0.00342299)
(0.0019818 -0.0159815 0.00621742)
(0.00173309 -0.0160794 0.00603288)
(0.000777292 -0.0148054 0.00462996)
(0.00117229 -0.0156314 0.00469935)
(-0.00837749 -0.00715274 0.00398541)
(-0.00638064 -0.00631888 0.00165353)
(-0.00841303 -0.00728815 0.0039132)
(-0.00741091 -0.00669214 0.00262078)
(-0.00640929 -0.00623206 0.00195073)
(-0.00786765 -0.00727216 0.00291753)
(-0.0146758 -0.0192887 0.0166013)
(-0.0149388 -0.0171963 0.0157197)
(-0.015683 -0.019431 0.0166277)
(-0.0162633 -0.0194513 0.0165712)
(-0.016426 -0.0185957 0.0160683)
(-0.0158241 -0.0172572 0.0160003)
(-0.00953404 -0.0046473 0.0180954)
(-0.0111922 -0.00383527 0.0182413)
(-0.0123628 -0.00364771 0.0193419)
(-0.0130906 -0.00272541 0.0183082)
(-0.012442 -0.00250314 0.0183198)
(-0.0105417 -0.00465436 0.0193706)
(-0.00707692 -0.00564225 0.0132668)
(-0.00869421 -0.00592565 0.0159653)
(-0.00821889 -0.00424437 0.0162134)
(-0.00746557 -0.00659285 0.015563)
(-0.008334 -0.00483871 0.0141277)
(-0.0148042 -0.00330968 0.0182195)
(-0.0154253 -0.00206033 0.0168202)
(-0.0151804 -0.00228786 0.0171463)
(-0.0171279 -0.00220186 0.0156032)
(-0.0151223 -0.0032144 0.0175934)
(-0.0164711 -0.00202195 0.0158964)
(-0.0111977 -0.00299566 0.0165286)
(-0.0136176 -0.00180145 0.0175142)
(-0.0131589 -0.000499039 0.0161032)
(-0.00490588 -0.0116726 0.0157763)
(-0.00505343 -0.0106545 0.016756)
(-0.0062384 -0.0103416 0.0189492)
(-0.00454853 -0.010775 0.0181351)
(-0.0043703 -0.0115258 0.0164105)
(-0.00629554 -0.0103841 0.0186491)
(-0.00703814 -0.00778879 0.0160123)
(-0.00664577 -0.00849732 0.0178384)
(-0.00791577 -0.00691373 0.0171443)
(-0.00640396 -0.0087198 0.0150526)
(-0.00582159 -0.00897005 0.0160223)
(-0.00756855 -0.00708027 0.0176871)
(-0.0149678 -0.0166987 0.0146185)
(-0.0152619 -0.0174712 0.0144204)
(-0.0137752 -0.0144748 0.0117775)
(-0.0127554 -0.0143976 0.0129987)
(-0.0137524 -0.0173924 0.0150379)
(0.00221517 -0.0164491 0.0129164)
(0.00111565 -0.0186467 0.0131067)
(0.00280785 -0.0179972 0.00959789)
(0.0024379 -0.0175231 0.0120784)
(0.0023145 -0.0185085 0.0125003)
(0.00295916 -0.0177404 0.0105705)
(-0.017658 -0.0201999 0.00874205)
(-0.0180485 -0.0189414 0.00841305)
(-0.018484 -0.0189502 0.00796116)
(-0.0197677 -0.0207517 0.00910855)
(-0.0211907 -0.0201764 0.00859058)
(-0.0203665 -0.0158911 0.00704768)
(-0.0193901 -0.0152004 0.0070469)
(-0.0229749 -0.0146198 0.0079169)
(-0.0226979 -0.0156878 0.00749074)
(-0.0197701 -0.0141257 0.00731033)
(-0.0220327 -0.0136074 0.00749726)
(-0.0147645 -0.00941332 0.0187222)
(-0.0167653 -0.00940556 0.0163734)
(-0.0143018 -0.00897604 0.0190168)
(-0.0162014 -0.00957781 0.0181242)
(-0.0163761 -0.00996249 0.0176874)
(-0.00692915 -0.0107508 0.0218013)
(-0.00897158 -0.0105892 0.021884)
(-0.00976231 -0.00930548 0.0214766)
(-0.00935048 -0.00938813 0.0219551)
(-0.00655578 -0.0109172 0.0220306)
(-0.0125073 -0.00831412 0.0206056)
(-0.012006 -0.00808687 0.0210362)
(-0.0143069 -0.00696991 0.0191931)
(-0.0126957 -0.00709516 0.0204211)
(-0.0141684 -0.00811416 0.0199657)
(-0.014835 -0.00726811 0.0187911)
(-0.0136276 -0.0101439 0.0210257)
(-0.0111553 -0.00978648 0.0213738)
(-0.0120736 -0.00893346 0.0203668)
(-0.0125996 -0.00776507 0.0200025)
(-0.010291 -0.00932204 0.0208197)
(-0.0133288 -0.00840093 0.0198632)
(-0.0108203 -0.00793188 0.0210535)
(-0.0102925 -0.00697131 0.0211377)
(-0.0087521 -0.00907267 0.0213662)
(-0.00985495 -0.00824909 0.0209068)
(-0.00817631 -0.00819634 0.0208583)
(-0.0106783 -0.011742 0.0201597)
(-0.0111593 -0.0115334 0.0191606)
(-0.00819095 -0.010951 0.0197125)
(-0.00796427 -0.0128103 0.0201123)
(-0.00888877 -0.0129073 0.0200065)
(-0.00967069 -0.0116633 0.0195066)
(-0.0122701 -0.0101972 0.0203546)
(-0.00942987 -0.011253 0.0208243)
(-0.0107427 -0.0105817 0.0206312)
(-0.0125804 -0.0100112 0.0199566)
(-0.0108944 -0.0102328 0.0202022)
(-0.00992089 -0.0110297 0.0203617)
(-0.00784781 -0.0111401 0.0217001)
(-0.00730994 -0.0119834 0.0217069)
(-0.0055701 -0.0123604 0.0208831)
(-0.00529348 -0.0127985 0.0214753)
(-0.00679909 -0.0121176 0.0217015)
(-0.00866945 -0.0113091 0.0215654)
(-0.000484487 -0.0170362 0.0181437)
(0.00158714 -0.0169466 0.0154449)
(0.000134677 -0.0159018 0.0158257)
(-0.000657907 -0.0152766 0.0167981)
(0.00146762 -0.016628 0.0146568)
(0.000165895 -0.0167467 0.0159512)
(-0.00393047 -0.0142724 0.0203896)
(-0.006736 -0.012715 0.0209752)
(-0.00481676 -0.0130303 0.0203227)
(-0.00723561 -0.012208 0.0201296)
(-0.00459584 -0.0138227 0.0199665)
(-0.00302816 -0.0140907 0.0196055)
(-0.00546914 -0.0125807 0.0201906)
(-0.00506159 -0.0122585 0.0198712)
(-0.0199982 -0.0158718 0.00876391)
(-0.0196369 -0.0155287 0.0092511)
(-0.0192417 -0.0163016 0.00856815)
(-0.0204413 -0.0149081 0.00976313)
(-0.0204096 -0.0152891 0.00927364)
(-0.0206898 -0.0167401 0.00955579)
(-0.0195263 -0.0113046 0.0117491)
(-0.0203285 -0.0139437 0.0109477)
(-0.0198778 -0.0132624 0.0120286)
(-0.0204116 -0.0142579 0.0115882)
(-0.0205106 -0.0121331 0.0129389)
(-0.0203893 -0.0146964 0.0108956)
(-0.0208629 -0.0099127 0.0118848)
(-0.0196483 -0.00871765 0.0128499)
(-0.0197705 -0.00795611 0.013373)
(-0.0196842 -0.00893923 0.0137496)
(-0.0199082 -0.00914383 0.0117205)
(-0.0201072 -0.0082589 0.0149865)
(-0.0201024 -0.0232071 0.0106111)
(-0.0200611 -0.0193785 0.00876312)
(-0.0186798 -0.0211962 0.0101529)
(-0.0188609 -0.0205734 0.00942697)
(-0.0217473 -0.0217855 0.0100021)
(-0.0192551 -0.0230281 0.0114788)
(-0.022016 -0.012938 0.00516143)
(-0.0209728 -0.0155621 0.00513075)
(-0.0197792 -0.013944 0.00503779)
(-0.0205501 -0.0137372 0.00489586)
(-0.0212136 -0.0144965 0.00482672)
(-0.021854 -0.0184371 0.00811924)
(-0.0202302 -0.0176248 0.00643835)
(-0.0208617 -0.0181829 0.00928921)
(-0.0220066 -0.0140444 0.00292674)
(-0.0219954 -0.015065 0.00340035)
(-0.0208256 -0.016347 0.00486338)
(-0.0213685 -0.0166343 0.00439765)
(-0.0200737 -0.0154132 0.00360068)
(-0.020232 -0.0168499 0.00531128)
(-0.00279767 -0.00905466 0.000365645)
(-0.00331952 -0.00836438 0.000640349)
(-0.00269012 -0.0105849 0.000589939)
(-0.00330193 -0.0096865 0.00106229)
(-0.00315362 -0.00844295 0.000215477)
(-0.00352224 -0.00792054 0.000402079)
(-0.00142741 -0.0131311 0.00283955)
(-0.00179345 -0.0118888 0.00210175)
(-0.00261919 -0.011945 0.00150247)
(-0.000927149 -0.0112403 0.00146501)
(-0.00207698 -0.0114385 0.00141063)
(-0.000389449 -0.0124184 0.00204691)
(-0.00159958 -0.0117663 0.002591)
(-0.00159276 -0.0110456 0.00200856)
(-0.00266931 -0.010969 0.00217249)
(-0.0180555 -0.0221873 0.0126611)
(-0.0199367 -0.0200224 0.00988474)
(-0.0194344 -0.0225117 0.0117509)
(-0.0175745 -0.0198417 0.0102692)
(-0.0181215 -0.0217355 0.0114397)
(-0.0192127 -0.02117 0.0117589)
(-0.0172225 -0.0223547 0.0151793)
(-0.0181678 -0.0226357 0.0139979)
(-0.0181437 -0.0221877 0.0141533)
(-0.0185939 -0.021565 0.0124717)
(-0.0182051 -0.0222237 0.0129594)
(-0.0164768 -0.0208107 0.013512)
(-0.018102 -0.0210798 0.0173825)
(-0.0169371 -0.0201302 0.0156107)
(-0.0164812 -0.0189502 0.017278)
(-0.0170573 -0.0194356 0.0161878)
(-0.0159252 -0.0201344 0.0159005)
(-0.0172278 -0.0186758 0.016761)
(-0.0217107 -0.0130652 0.0157885)
(-0.0208072 -0.0129902 0.0161776)
(-0.0200017 -0.0105302 0.0147157)
(-0.0208857 -0.0118628 0.01604)
(-0.0209733 -0.0104227 0.0143316)
(-0.0223621 -0.0121984 0.0146963)
(-0.0182095 -0.00831468 0.0114214)
(-0.0195486 -0.00854159 0.0112259)
(-0.0171061 -0.00726698 0.00743184)
(-0.01607 -0.00675001 0.00797746)
(-0.0190638 -0.00876538 0.00973941)
(-0.0192836 -0.00811999 0.00910917)
(-0.00472588 -0.00666587 0.000212873)
(-0.00388684 -0.007037 -3.61543e-05)
(-0.00411121 -0.00655792 8.3346e-05)
(-0.00383506 -0.00694532 0.000166553)
(-0.00437533 -0.0066514 0.000232299)
(-0.00377105 -0.00725057 -3.87838e-05)
(-0.00607246 -0.00617918 0.00125511)
(-0.00554414 -0.0063158 0.00056636)
(-0.00553748 -0.00611793 0.000936206)
(-0.00599267 -0.00598161 0.00111851)
(-0.00686313 -0.00627108 0.00185476)
(-0.00801516 -0.00621818 0.00291772)
(-0.00480659 -0.00662713 -7.11409e-05)
(-0.0041314 -0.00769294 0.000132993)
(-0.00432782 -0.00735151 -0.000295636)
(-0.00443541 -0.00717071 -7.59098e-05)
(-0.00415478 -0.00838832 -0.000242446)
(-0.00915961 -0.00661888 0.00168588)
(-0.00677875 -0.0059657 0.00123395)
(-0.00848049 -0.00637635 0.00205311)
(-0.00620152 -0.00635353 0.000468732)
(-0.0073586 -0.00572446 0.0010585)
(-0.0069623 -0.00647311 0.000642383)
(-0.0086807 -0.00611518 0.00277506)
(-0.01031 -0.00704464 0.00384782)
(-0.00972639 -0.0068132 0.00413806)
(-0.00806398 -0.00633957 0.001919)
(-0.0083695 -0.00637794 0.00294773)
(-0.00387282 -0.00788453 0.000306447)
(-0.00390457 -0.00692513 0.000391523)
(-0.0031513 -0.00806865 7.41166e-05)
(-0.00376747 -0.00712225 0.000189023)
(-0.00358145 -0.00773795 9.2601e-05)
(-0.00245793 -0.00894649 0.000773562)
(-0.0016874 -0.0096274 0.000505042)
(-0.00307829 -0.00860213 0.000456849)
(-0.0027034 -0.00973032 0.000390329)
(-0.00282703 -0.0087532 0.000265721)
(-0.0146022 -0.0239475 0.013566)
(-0.0155315 -0.0238893 0.0141569)
(-0.0145638 -0.0225856 0.0138279)
(-0.0155011 -0.0245918 0.0159753)
(-0.0163272 -0.023364 0.015293)
(-0.0153586 -0.0245894 0.0150046)
(-0.0151777 -0.024907 0.0152666)
(-0.013567 -0.0239233 0.0142605)
(-0.0142222 -0.0231674 0.0153448)
(-0.0148393 -0.0219506 0.0146445)
(-0.0143705 -0.0233351 0.0156515)
(-0.0144762 -0.024435 0.0150564)
(-0.0106098 -0.0126373 0.00645904)
(-0.0126574 -0.0165701 0.0103224)
(-0.0119521 -0.0140994 0.00853108)
(-0.0121447 -0.0161995 0.00979529)
(-0.0176248 -0.0232653 0.0103951)
(-0.0169902 -0.0256951 0.0115595)
(-0.0157905 -0.0237175 0.0105208)
(-0.0152205 -0.0250556 0.0118155)
(-0.0159311 -0.0242303 0.0110947)
(-0.0161737 -0.0213232 0.00969386)
(-0.0157018 -0.025736 0.014175)
(-0.0148391 -0.0254449 0.0127478)
(-0.0155935 -0.0251312 0.0122232)
(-0.0153333 -0.0253867 0.0132231)
(-0.0156153 -0.0245448 0.0128997)
(-0.0161036 -0.0235223 0.0117761)
(-0.0175471 -0.0218544 0.00958597)
(-0.016469 -0.0216275 0.00913702)
(-0.0167266 -0.0194195 0.00898115)
(-0.0168274 -0.0188984 0.00927859)
(-0.0166851 -0.0191616 0.00930008)
(-0.0184543 -0.0208008 0.00991977)
(-0.0163898 -0.0153921 0.0106171)
(-0.0168181 -0.0182591 0.00947037)
(-0.0171841 -0.0177554 0.0101099)
(-0.0162111 -0.0183054 0.00915121)
(-0.0179544 -0.0160929 0.00911733)
(-0.019641 -0.0167313 0.00938188)
(-0.0199579 -0.017377 0.00963578)
(-0.0201126 -0.015503 0.0105258)
(-0.0173885 -0.0156648 0.00873727)
(-0.0196312 -0.0157669 0.0100674)
(-0.0154447 -0.0148119 0.013505)
(-0.015716 -0.0147603 0.0143009)
(-0.0140761 -0.0145789 0.0156009)
(-0.0143644 -0.0148572 0.0148418)
(-0.0147239 -0.0145254 0.0140318)
(-0.0140487 -0.0133422 0.0145342)
(-0.00717257 -0.0141862 0.0198615)
(-0.0106223 -0.0134412 0.0186954)
(-0.00761924 -0.013434 0.0184328)
(-0.00726313 -0.0128518 0.0198228)
(-0.00860737 -0.0128696 0.0186333)
(-0.0101086 -0.0135941 0.0198015)
(-0.0120578 -0.012968 0.0164499)
(-0.013145 -0.0131217 0.0169371)
(-0.0132493 -0.0131004 0.0158917)
(-0.0111855 -0.0132882 0.0170038)
(-0.0108941 -0.0133633 0.0180006)
(-0.0113115 -0.0122678 0.0173979)
(-0.0182258 -0.0135376 0.0136675)
(-0.0184762 -0.0132116 0.01486)
(-0.0181643 -0.0113896 0.0142605)
(-0.0169103 -0.0126926 0.0164863)
(-0.0165933 -0.0127261 0.0150267)
(-0.0169359 -0.0123659 0.014216)
(-0.0165468 -0.0110281 0.0159117)
(-0.0166982 -0.0114989 0.0153889)
(-0.0142221 -0.0102173 0.0186685)
(-0.0140259 -0.0112899 0.0182212)
(-0.013755 -0.0111418 0.01941)
(-0.0148812 -0.0110085 0.0176636)
(-0.016207 -0.0110439 0.0182617)
(-0.0162577 -0.011357 0.0170082)
(-0.0148319 -0.0123815 0.0177382)
(-0.0148476 -0.0123823 0.0164633)
(-0.0125823 -0.0128691 0.0188475)
(-0.0130256 -0.0114883 0.0179854)
(-0.0136218 -0.0120333 0.0170937)
(-0.0129747 -0.0127579 0.0177328)
(-0.0167749 -0.0135737 0.0145578)
(-0.0150861 -0.0133131 0.0147627)
(-0.0151377 -0.0130957 0.0160161)
(-0.0165727 -0.0139924 0.0135897)
(-0.0156168 -0.0133311 0.0141487)
(-0.0153067 -0.0122795 0.0149881)
(-0.0057135 -0.00644556 0.001175)
(-0.00625466 -0.00667567 0.00168249)
(-0.00588601 -0.00682816 0.00132755)
(-0.0051016 -0.00632287 0.000835259)
(-0.00512268 -0.00646619 0.000679964)
(-0.00621868 -0.00661739 0.00179379)
(-0.0045319 -0.007626 -0.000152337)
(-0.00420748 -0.00750335 -0.000166159)
(-0.00420339 -0.00692205 1.30645e-05)
(-0.0039201 -0.00740384 -0.000285367)
(-0.0036957 -0.00779038 -0.000651083)
(-0.00433246 -0.00685474 -7.92685e-05)
(0.00148845 -0.01862 0.0134466)
(0.00236666 -0.0172075 0.0116587)
(0.00288447 -0.0179389 0.0100589)
(0.0013488 -0.0178656 0.0130693)
(0.00242946 -0.0180418 0.010492)
(0.00309876 -0.0162479 0.00625071)
(0.00326978 -0.0186408 0.00592693)
(0.00380221 -0.0185407 0.00716975)
(0.0021955 -0.0162805 0.00448302)
(0.00233282 -0.0170887 0.00535089)
(0.00331505 -0.018303 0.00812986)
(0.00321138 -0.0174945 0.00329881)
(0.00250939 -0.0166435 0.00177379)
(-0.00258656 -0.00888351 -0.00118112)
(-0.00335869 -0.00883616 -0.00084872)
(-0.00226927 -0.0104664 -0.00143555)
(-0.00262335 -0.0102382 -0.000972603)
(-0.0034343 -0.00864147 -0.000609521)
(-0.00235554 -0.0083506 -0.0010221)
(0.00239142 -0.0166704 0.00348459)
(0.00116636 -0.0135419 0.000856984)
(0.0026455 -0.0159242 0.00254432)
(0.00176675 -0.0159812 0.00171025)
(0.00165399 -0.0158956 0.00272827)
(0.000885288 -0.0143872 0.00162911)
(-0.0218679 -0.0143005 0.00373935)
(-0.0225035 -0.0135763 0.00399901)
(-0.0199204 -0.0157977 0.00480993)
(-0.0230589 -0.0158432 0.00490295)
(-0.0225415 -0.0129888 0.00358688)
(-0.00319008 -0.014077 0.00466024)
(-0.00396801 -0.0132906 0.00224547)
(-0.00347906 -0.0129733 0.00244198)
(-0.00370279 -0.0141573 0.0043847)
(-0.00295712 -0.0136125 0.00355271)
(-0.00445401 -0.0137161 0.0029389)
(-0.00530089 -0.00901286 -0.000595934)
(-0.00632974 -0.00875293 -0.00045129)
(-0.00801457 -0.00826082 -0.000340835)
(-0.00706409 -0.00787886 -0.000342132)
(-0.00761275 -0.00874148 -0.000453145)
(-0.0226411 -0.0172603 0.0163812)
(-0.0213645 -0.0157733 0.0159279)
(-0.0205352 -0.0173779 0.0148911)
(-0.0195272 -0.0166578 0.0148225)
(-0.0204351 -0.0150621 0.0162296)
(-0.0221165 -0.0169998 0.0150954)
(-0.0100457 -0.00753158 -2.82608e-05)
(-0.010728 -0.00686946 0.000996351)
(-0.00920738 -0.00704263 0.000242039)
(-0.0121211 -0.00637169 0.00174658)
(-0.0144412 -0.00685538 0.00299848)
(-0.0044488 -0.0129724 0.0186104)
(-0.00326344 -0.0135687 0.0185701)
(-0.00468 -0.0132008 0.0195722)
(-0.00353993 -0.0143672 0.015696)
(-0.00350176 -0.0144678 0.0165579)
(-0.00101161 -0.0137434 0.0154209)
(-0.00219672 -0.0142143 0.0181856)
(-0.00143296 -0.0158975 0.015517)
(-0.00140039 -0.0152235 0.0143574)
(-0.00230934 -0.01403 0.0173683)
(0.000276479 -0.0157844 0.0129017)
(0.000173335 -0.0147555 0.0140301)
(0.000207523 -0.0169765 0.0145127)
(0.000128433 -0.0152649 0.0170111)
(-0.000231558 -0.0148682 0.0158647)
(-0.000426974 -0.0165066 0.015952)
(5.32217e-05 -0.014408 0.0116166)
(-8.02862e-05 -0.0150671 0.0102846)
(-0.000351738 -0.0161064 0.00942792)
(-0.0015679 -0.0140882 0.00937248)
(-0.000815907 -0.0139547 0.00784641)
(-0.000687839 -0.0159657 0.0121106)
(0.000188723 -0.0154622 0.00898667)
(0.00048148 -0.0146757 0.00786048)
(0.000210003 -0.0170646 0.0110823)
(0.000753454 -0.0158881 0.00925723)
(0.00130423 -0.0163097 0.0114383)
(-0.00196047 -0.0141247 0.00599843)
(-0.00249697 -0.0144665 0.00727057)
(-0.00184948 -0.0140662 0.00510452)
(-0.00275154 -0.0138935 0.00591848)
(-0.00256268 -0.0143345 0.00515072)
(-0.00232853 -0.0141141 0.00746166)
(-0.000407793 -0.0139414 0.00549799)
(-0.00183755 -0.0147357 0.00437123)
(-0.000734266 -0.013899 0.00642827)
(-0.00122234 -0.0139427 0.00570736)
(-0.00175279 -0.0124573 0.00323768)
(-0.00145427 -0.0122748 0.00436363)
(-0.0190596 0.000112423 0.0112733)
(-0.018823 0.000663339 0.0124442)
(-0.0209143 -0.000308613 0.0105902)
(-0.0203204 0.00138765 0.00993369)
(-0.0220353 6.8274e-05 0.00954356)
(-0.0208692 -0.00340339 0.0108512)
(-0.0225002 -0.00520919 0.00813409)
(-0.0214573 -0.00666495 0.00865801)
(-0.0206474 -0.00627453 0.00701611)
(-0.0221163 -0.00443637 0.00929509)
(-0.0215936 -0.00823912 0.0112176)
(-0.0218257 -0.00849382 0.0122159)
(-0.0206506 -0.0062322 0.0126331)
(-0.0219907 -0.00907308 0.0112551)
(-0.019834 -0.00698019 0.013798)
(-0.0215443 -0.00648086 0.014281)
(-0.0232637 -0.0108063 0.00902897)
(-0.0228225 -0.0118796 0.00839804)
(-0.0224463 -0.00923209 0.0089538)
(-0.0221247 -0.00900305 0.00965932)
(-0.022219 -0.0101704 0.00810371)
(-0.0212341 -0.00988305 0.00883086)
(-0.0207517 -0.0038525 0.00377598)
(-0.0216014 0.000778529 0.00876196)
(-0.0225189 -0.00114752 0.00775123)
(-0.0235705 -0.00271922 0.00449384)
(-0.0215159 -0.00228297 0.00480588)
(-0.0229844 -0.00456334 0.00591781)
(-0.00594859 -0.0150549 0.0186403)
(-0.00845067 -0.0140189 0.0181615)
(-0.00888969 -0.0139628 0.0176863)
(-0.00678901 -0.0139386 0.0183183)
(-0.00670785 -0.0148479 0.0178971)
(-0.00769615 -0.0141911 0.0176141)
(-0.0124217 -0.014244 0.0151591)
(-0.0123971 -0.0146859 0.0167689)
(-0.00993361 -0.014579 0.0172204)
(-0.0105328 -0.0139302 0.0169668)
(-0.00735679 -0.0145354 0.016834)
(-0.00519695 -0.0152664 0.0165131)
(-0.00591726 -0.0143789 0.0163991)
(-0.017338 -0.0169491 0.00975239)
(-0.017253 -0.0166852 0.0102949)
(-0.017585 -0.0180378 0.00994891)
(-0.0197805 -0.0171576 0.0106016)
(-0.0185 -0.0150964 0.0104028)
(-0.0173497 -0.01519 0.00990275)
(-0.0185523 -0.0164274 0.0107374)
(-0.0197454 -0.0170351 0.0104099)
(-0.0209186 -0.0207062 0.0108331)
(-0.0186685 -0.0166965 0.00979672)
(-0.0182959 -0.0204331 0.0089963)
(-0.0178389 -0.0176342 0.00962973)
(-0.0177273 -0.0176234 0.00931141)
(-0.0176964 -0.0183059 0.00912093)
(-0.0173701 -0.0181857 0.00868562)
(-0.0167904 -0.0174302 0.00921437)
(-0.0187091 -0.0186696 0.00986368)
(-0.0177484 -0.0171996 0.00980706)
(-0.0177822 -0.017771 0.00945344)
(-0.00998928 -0.0134996 0.0172977)
(-0.00831852 -0.0142326 0.0171679)
(-0.00342882 -0.015271 0.0161043)
(-0.00548329 -0.0150524 0.0176283)
(-0.00294048 -0.0156649 0.016689)
(-0.00370347 -0.0144972 0.0178257)
(-0.0033636 -0.0156297 0.0174655)
(-0.000798756 -0.0163556 0.0153058)
(-0.000906653 -0.0168056 0.0162685)
(-0.00223878 -0.0170894 0.0162472)
(-0.0226772 -0.00504022 0.0121964)
(-0.0229989 -0.00693551 0.00246379)
(-0.0231981 -0.00551735 0.00364356)
(-0.0229963 -0.00646921 0.00377689)
(-0.0218122 -0.00684315 0.00366481)
(-0.0222609 -0.00730153 0.00338277)
(-0.0217879 -0.00784464 0.00400893)
(-0.0219843 -0.00553582 0.00687634)
(-0.0220864 -0.00437065 0.00720671)
(-0.0208908 -0.00312066 0.00622339)
(-0.021512 -0.00584518 0.00532531)
(-0.0216492 -0.00652628 0.00429954)
(-0.0229738 -0.00543206 0.00492936)
(-0.0253129 -0.00567008 0.00616701)
(-0.0228727 -0.00242852 0.00687468)
(-0.0189242 0.000606198 0.0107026)
(-0.0210948 -0.00905809 0.0107449)
(-0.0209184 -0.00950554 0.0096559)
(-0.020205 -0.00884247 0.0107681)
(-0.0222537 -0.00778842 0.00797197)
(-0.0229639 -0.00761975 0.00896859)
(-0.0215933 -0.00883719 0.00762011)
(-0.0222762 -0.00887779 0.00898048)
(-0.0217754 -0.00633254 0.0101322)
(-0.0205343 -0.00580428 0.0102071)
(-0.0216438 -0.00553579 0.0100734)
(-0.0221292 -0.00651284 0.010898)
(-0.0207515 -0.00795795 0.00952425)
(-0.0125448 -0.00728751 0.0209072)
(-0.0114353 -0.00702571 0.0211326)
(-0.0134995 -0.00653803 0.0200115)
(-0.0162599 -0.00614653 0.0187957)
(-0.0153675 -0.00637094 0.0196763)
(-0.0126362 -0.00647019 0.0204541)
(-0.0145019 -0.00557191 0.0188479)
(-0.0140554 -0.00492235 0.0192265)
(-0.0137559 -0.00588515 0.0194439)
(-0.0133154 -0.00569601 0.0196965)
(-0.0158178 -0.00487534 0.0181168)
(-0.0155902 -0.00452362 0.0187635)
(-0.00173346 -0.0153546 0.00692655)
(-0.000840182 -0.0154948 0.00837165)
(-0.00244982 -0.0144906 0.00444412)
(-0.00298994 -0.0128675 0.0040371)
(0.000182377 -0.017135 0.0119692)
(-0.000341832 -0.0157654 0.0142727)
(-0.0169092 -0.00473561 0.0170596)
(-0.0165085 -0.00437096 0.0178892)
(-0.0142989 -0.00550099 0.0199027)
(-0.0116401 -0.00518777 0.0202037)
(-0.0139476 -0.00377943 0.0189172)
(-0.0038648 -0.0126217 0.0199528)
(-0.00527253 -0.0116628 0.0204139)
(-0.00273595 -0.0130765 0.0185751)
(-0.00539639 -0.0120023 0.0205071)
(-0.00425764 -0.0110921 0.0191365)
(-0.00934451 -0.00788991 -0.000357524)
(-0.00780835 -0.00737604 -0.000144274)
(-0.00557265 -0.0101697 -0.000171071)
(-0.00455399 -0.010571 0.000124484)
(-0.00556022 -0.0114574 0.000500242)
(-0.00405856 -0.012058 0.000927043)
(-0.00442081 -0.0124943 0.0010069)
(-0.00242174 -0.0131426 0.00346338)
(-0.00294258 -0.0140304 0.00394737)
(-0.00222072 -0.0142486 0.00832829)
(-0.00198558 -0.0138452 0.00930148)
(-0.00128661 -0.0152499 0.0104937)
(-0.00198468 -0.0153804 0.00950763)
(-0.00159094 -0.0141007 0.0109527)
(-0.00171192 -0.0140046 0.0149985)
(-0.00130578 -0.0163635 0.0133433)
(-0.00177214 -0.0133071 0.0124933)
(-0.0031196 -0.0139371 0.0107404)
(-0.00254559 -0.0149535 0.0133007)
(-0.00290344 -0.0144267 0.00591367)
(-0.00296837 -0.0147179 0.00824529)
(-0.00309894 -0.0143179 0.00703347)
(-0.00367106 -0.0144271 0.00561379)
(-0.00349468 -0.0156346 0.00729494)
(-0.00400744 -0.0154989 0.00801484)
(-0.0226973 -0.0106818 0.00364877)
(-0.0221519 -0.011533 0.00362865)
(-0.0210844 -0.0181957 0.0138859)
(-0.0229961 -0.00900496 0.00230254)
(-0.0218225 -0.00848751 0.00264543)
(-0.0233292 -0.00961968 0.00248875)
(-0.0211636 -0.00960457 0.00292058)
(-0.021691 -0.0110329 0.00229204)
(-0.0214497 -0.0109341 0.00269843)
(-0.0212166 -0.0117445 0.00201593)
(-0.0214537 -0.0130094 0.00299559)
(-0.019092 -0.00196179 0.00752137)
(-0.0191012 -0.00142189 0.00733438)
(-0.0208293 -0.003183 0.00913723)
(-0.0189814 -0.00159839 0.0099881)
(-0.0188808 -0.00162616 0.0132259)
(-0.0210034 -0.00207158 0.012902)
(-0.0200706 -0.00280952 0.0104537)
(-0.0196815 -0.00116745 0.0126077)
(-0.0197802 -0.000936417 0.0131676)
(-0.0191215 -0.00153852 0.0138519)
(-0.00451757 -0.0129979 0.00187264)
(-0.0166365 -0.0219631 0.011534)
(-8.82337e-05 -0.0129036 0.00112851)
(0.0017254 -0.0154353 0.00100221)
(0.000690947 -0.0146393 0.000237992)
(0.00130959 -0.0164948 0.00327021)
(0.00333627 -0.0170793 0.00920281)
(0.000345653 -0.0180858 0.0157491)
(-0.00352718 -0.00869214 -0.000237431)
(-0.00336244 -0.00838881 -0.000170626)
(-0.00251086 -0.00836751 -0.000593795)
(-0.00170511 -0.0101471 -0.000905526)
(-0.00101033 -0.0115089 -0.000935679)
(-0.00368104 -0.00768601 -4.24436e-05)
(-0.00336689 -0.00789978 -0.000717072)
(-0.0036186 -0.00761973 -0.000144852)
(-0.00611932 -0.00693789 0.00152901)
(-0.00308442 -0.00762389 -0.000172371)
(-0.00327914 -0.007256 0.000103096)
(-0.00356962 -0.00748289 -0.000132128)
(-0.0035205 -0.00696423 3.7346e-05)
(-0.0036044 -0.00673357 1.10869e-05)
(-0.00404556 -0.00712371 0.000151827)
(-0.00434016 -0.00637258 0.00037694)
(-0.00472733 -0.00625514 0.000609828)
(-0.00511317 -0.00759989 -0.000102482)
(-0.00526418 -0.00732694 4.5948e-05)
(-0.00523424 -0.00749501 0.00013042)
(-0.00519907 -0.00687364 0.000317121)
(-0.00618706 -0.00765725 0.000627607)
(-0.00600232 -0.00766925 0.000443812)
(-0.00612986 -0.00693857 0.00156275)
(-0.00724284 -0.00784341 0.00240378)
(-0.00773801 -0.00834719 0.00250173)
(-0.00638755 -0.00740532 0.00110143)
(-0.00636046 -0.00742391 0.00143551)
(-0.00712164 -0.00784541 0.00199872)
(-0.00741075 -0.0083211 0.00174626)
(-0.0076504 -0.00836375 0.00256418)
(-0.0071005 -0.00752967 0.00229861)
(-0.00754264 -0.00760499 0.00268342)
(-0.00784891 -0.00748685 0.00360739)
(-0.00742687 -0.00732428 0.00252133)
(-0.0079244 -0.00765032 0.00347815)
(-0.00748349 -0.00781507 0.00319747)
(-0.00750617 -0.0078441 0.00303737)
(-0.00965848 -0.00912704 0.0047875)
(-0.00902642 -0.008935 0.0043374)
(-0.0092898 -0.00946653 0.00555555)
(-0.0091775 -0.00933802 0.00565072)
(-0.00923149 -0.00954016 0.00449939)
(-0.00885936 -0.00930673 0.00363349)
(-0.00934012 -0.0100927 0.00495598)
(-0.00860089 -0.00950506 0.00316244)
(-0.00888646 -0.00962993 0.0034997)
(-0.00900274 -0.00968899 0.00462063)
(-0.0162873 -0.0151557 0.0135261)
(-0.015401 -0.0137464 0.0135162)
(-0.0135153 -0.0121475 0.0162461)
(-0.0125711 -0.0111482 0.0188807)
(-0.0166735 -0.0127825 0.013509)
(-0.0151566 -0.0114955 0.0169781)
(-0.0151919 -0.0119708 0.0154417)
(0.0020795 -0.0189269 0.0127072)
(0.0022796 -0.0179836 0.010038)
(0.00234855 -0.0184217 0.0114569)
(0.00281977 -0.017314 0.0102524)
(0.00131106 -0.0187854 0.0153746)
(0.00113059 -0.0155249 0.0137045)
(0.00142925 -0.0165303 0.0131048)
(0.000670946 -0.0166389 0.0134427)
(0.00204447 -0.0184289 0.0133205)
(-0.00342196 -0.0150617 0.0184678)
(-0.0087741 -0.0126878 0.0181012)
(-0.0110434 -0.0121959 0.0181026)