/*--------------------------------*- C++ -*----------------------------------*\
| =========                 |                                                 |
| \\      /  F ield         | OpenFOAM: The Open Source CFD Toolbox           |
|  \\    /   O peration     | Version:  v1612+                                |
|   \\  /    A nd           | Web:      www.OpenFOAM.com                      |
|    \\/     M anipulation  |                                                 |
\*---------------------------------------------------------------------------*/
FoamFile
{
    version     2.0;
    format      ascii;
    class       volVectorField;
    location    "50";
    object      U;
}
// * * * * * * * * * * * * * * * * * * * * * * * * * * * * * * * * * * * * * //

dimensions      [0 1 -1 0 0 0 0];

internalField   nonuniform List<vector> 
18732
(
(-0.170488 0.594626 0.39367)
(-0.0323665 0.454059 0.396531)
(-0.135559 0.523262 0.4716)
(-0.577674 0.524859 0.804006)
(-0.58032 0.522694 0.792457)
(-0.225373 0.477784 0.484141)
(-0.426359 0.385963 0.861282)
(-0.290984 0.468775 0.548491)
(-0.280414 0.47243 0.519972)
(-0.279796 0.468868 0.523043)
(-0.365166 0.588489 0.637045)
(-0.28342 0.473366 0.550571)
(-0.266977 0.460204 0.523961)
(-0.317156 0.55518 0.595374)
(-0.334734 0.570181 0.603354)
(-0.291087 0.503248 0.539516)
(-0.274565 0.468854 0.50698)
(-0.29101 0.506058 0.591771)
(-0.329477 0.573148 0.620964)
(-0.267168 0.496308 0.556716)
(-0.354786 0.571683 0.648107)
(-0.370886 0.608401 0.66642)
(-0.342944 0.588783 0.609778)
(-0.183645 0.341386 0.556252)
(-0.171126 0.306408 0.518112)
(-0.188285 0.317356 0.5626)
(-0.165472 0.283172 0.490968)
(-0.143852 0.294716 0.452118)
(-0.147248 0.277057 0.439008)
(-0.154731 0.311507 0.494222)
(-0.146841 0.301098 0.458803)
(-0.148709 0.31695 0.47487)
(-0.176033 0.373104 0.540753)
(-0.18749 0.373594 0.555644)
(-0.223499 0.415552 0.640089)
(-0.226412 0.400109 0.638489)
(-0.157983 0.319265 0.484135)
(-0.22422 0.378924 0.625837)
(-0.238926 0.394967 0.645049)
(-0.18328 0.318649 0.534635)
(-0.162439 0.293907 0.476586)
(-0.186185 0.324783 0.570737)
(-0.175687 0.290194 0.468685)
(-0.1661 0.275282 0.438653)
(-0.285136 0.26619 0.321211)
(-0.314823 0.274213 0.341834)
(-0.373404 0.320327 0.365831)
(-0.294901 0.291573 0.343027)
(-0.282964 0.259095 0.317857)
(-0.22677 0.246811 0.279501)
(-0.313694 0.302672 0.344321)
(-0.21857 0.264006 0.301342)
(-0.20178 0.236831 0.271479)
(-0.302614 0.264109 0.326837)
(-0.298928 0.294252 0.332868)
(-0.352132 0.308643 0.346318)
(-0.263735 0.277206 0.315051)
(-0.229779 0.254585 0.293088)
(-0.324143 0.586465 0.622967)
(-0.352972 0.615206 0.660348)
(-0.256813 0.488786 0.56176)
(-0.238497 0.459569 0.538409)
(-0.333367 0.589599 0.631193)
(-0.325997 0.578578 0.636959)
(-0.270956 0.545481 0.582533)
(-0.280725 0.545531 0.59613)
(-0.244561 0.491601 0.534869)
(-0.255872 0.497789 0.538635)
(-0.312123 0.573132 0.612755)
(-0.296145 0.542647 0.603246)
(-0.277022 0.531095 0.605087)
(-0.259306 0.513079 0.569101)
(-0.424883 0.405182 0.614565)
(-0.377707 0.382714 0.597282)
(-0.363223 0.368744 0.586593)
(-0.477695 0.459756 0.695818)
(-0.465483 0.465514 0.695982)
(-0.400788 0.391196 0.586571)
(-0.418624 0.386538 0.616504)
(-0.384395 0.371579 0.56833)
(-0.432469 0.421967 0.678587)
(-0.379202 0.368944 0.579112)
(-0.35588 0.340991 0.550541)
(-0.387215 0.368585 0.625375)
(-0.431948 0.41531 0.696786)
(-0.440305 0.396411 0.649174)
(-0.459756 0.436646 0.708734)
(-0.383826 0.36026 0.614171)
(-0.446078 0.423217 0.705168)
(-0.396835 0.358003 0.607432)
(-0.383753 0.357396 0.589021)
(-0.552051 0.503482 0.799675)
(-0.545375 0.474457 0.794293)
(-0.56624 0.502576 0.790312)
(-0.514006 0.458065 0.731583)
(-0.522794 0.450007 0.773686)
(-0.541841 0.475393 0.741872)
(-0.220057 0.49836 0.286481)
(-0.242774 0.391973 0.243239)
(-0.244617 0.389618 0.235134)
(-0.211677 0.515595 0.383974)
(-0.225749 0.497221 0.30377)
(-0.167393 0.333551 0.351581)
(-0.177608 0.283253 0.329696)
(-0.249231 0.363462 0.244683)
(-0.153246 0.388789 0.415271)
(-0.169204 0.425824 0.396052)
(-0.207242 0.333303 0.305071)
(-0.234268 0.279083 0.29473)
(-0.191163 0.278404 0.31029)
(-0.26276 0.291633 0.273115)
(-0.268751 0.309412 0.263437)
(-0.177598 0.3058 0.318222)
(-0.175639 0.43223 0.399283)
(-0.559409 0.537661 0.763595)
(-0.569661 0.570408 0.754738)
(-0.569053 0.542615 0.758247)
(-0.584003 0.587362 0.760097)
(-0.554453 0.581064 0.73916)
(-0.55948 0.589651 0.755445)
(-0.570862 0.585169 0.767521)
(-0.559081 0.593751 0.776192)
(-0.570752 0.592168 0.758529)
(-0.581486 0.598878 0.762664)
(-0.564466 0.553093 0.744043)
(-0.568329 0.572381 0.768787)
(-0.565934 0.530381 0.761878)
(-0.545832 0.539624 0.729514)
(-0.544049 0.55018 0.73142)
(-0.555138 0.547879 0.750581)
(-0.5521 0.523348 0.745837)
(-0.556054 0.537424 0.736445)
(-0.337471 0.391966 0.457807)
(-0.358534 0.391251 0.483208)
(-0.353193 0.410207 0.466746)
(-0.334096 0.380977 0.476591)
(-0.32775 0.383445 0.462504)
(-0.406205 0.460388 0.542278)
(-0.422921 0.458862 0.553956)
(-0.31501 0.412922 0.447852)
(-0.287192 0.391933 0.4297)
(-0.374364 0.408446 0.541332)
(-0.346081 0.410797 0.488102)
(-0.326092 0.431122 0.470202)
(-0.366217 0.419883 0.51625)
(-0.346697 0.414855 0.481299)
(-0.355444 0.420422 0.513662)
(-0.356675 0.435194 0.51595)
(-0.421353 0.453651 0.584197)
(-0.393787 0.460873 0.567424)
(-0.419597 0.472536 0.599038)
(-0.380256 0.461342 0.530491)
(-0.233465 0.624116 0.349041)
(-0.222592 0.609343 0.326773)
(-0.256337 0.669639 0.37261)
(-0.264064 0.73281 0.449189)
(-0.278453 0.758791 0.472077)
(-0.171355 0.589563 0.269292)
(-0.187059 0.604047 0.269274)
(-0.185736 0.621417 0.278145)
(-0.200383 0.711954 0.349284)
(-0.238919 0.745303 0.425577)
(-0.239983 0.742446 0.434222)
(-0.282224 0.774406 0.492195)
(-0.135979 0.575559 0.246147)
(-0.142697 0.595058 0.225068)
(-0.186035 0.688686 0.346884)
(-0.226979 0.752614 0.420356)
(-0.223561 0.500997 0.506863)
(-0.267892 0.562288 0.564555)
(-0.302547 0.590677 0.607193)
(-0.185392 0.458427 0.462069)
(-0.216058 0.480542 0.493662)
(-0.179143 0.441604 0.437791)
(-0.291524 0.571228 0.598969)
(-0.302847 0.574422 0.595616)
(-0.314524 0.613524 0.625633)
(-0.314074 0.586655 0.605047)
(-0.257505 0.568071 0.55722)
(-0.189798 0.485165 0.487055)
(-0.198977 0.491264 0.48109)
(-0.167538 0.445813 0.431966)
(-0.258775 0.524654 0.53416)
(-0.219536 0.491953 0.495295)
(-0.240145 0.530496 0.527431)
(-0.288633 0.59153 0.589032)
(-0.254554 0.533485 0.543186)
(-0.312533 0.606959 0.494339)
(-0.321244 0.605999 0.506318)
(-0.251008 0.506327 0.405325)
(-0.22296 0.482376 0.35352)
(-0.265845 0.508436 0.416145)
(-0.278334 0.53327 0.44211)
(-0.328653 0.598889 0.518488)
(-0.32261 0.603189 0.52089)
(-0.257072 0.551185 0.418839)
(-0.262131 0.55426 0.414669)
(-0.224336 0.49039 0.36494)
(-0.293042 0.522598 0.456586)
(-0.32478 0.568158 0.50151)
(-0.250388 0.525368 0.396169)
(-0.273217 0.513526 0.42479)
(-0.277439 0.543976 0.430848)
(-0.109186 0.387401 0.321706)
(-0.0758975 0.306036 0.25213)
(-0.151382 0.401929 0.307899)
(-0.144881 0.415006 0.33546)
(-0.0869691 0.347001 0.291155)
(-0.0854589 0.324107 0.268764)
(-0.117193 0.3505 0.265578)
(-0.110749 0.342545 0.270209)
(-0.0940079 0.32279 0.261163)
(-0.101138 0.366526 0.308973)
(-0.16238 0.393521 0.302056)
(-0.137807 0.341176 0.277302)
(-0.106544 0.325547 0.273304)
(-0.102205 0.362128 0.30028)
(-0.106933 0.34055 0.284637)
(-0.159093 0.421933 0.348466)
(-0.100392 0.35102 0.310702)
(-0.0966701 0.325025 0.282416)
(-0.16404 0.421234 0.336495)
(-0.365558 0.467089 0.555337)
(-0.339888 0.453967 0.51533)
(-0.336293 0.435975 0.51027)
(-0.308396 0.432281 0.488998)
(-0.327474 0.422092 0.502476)
(-0.305165 0.407267 0.455279)
(-0.329537 0.433325 0.51966)
(-0.345381 0.467542 0.549006)
(-0.338173 0.478093 0.536945)
(-0.283206 0.403353 0.427449)
(-0.376018 0.502483 0.592398)
(-0.389169 0.504974 0.607232)
(-0.352961 0.459541 0.531658)
(-0.366213 0.465759 0.569652)
(-0.300572 0.423858 0.458278)
(-0.302614 0.437065 0.478376)
(-0.36676 0.513846 0.581308)
(-0.367688 0.514879 0.576369)
(-0.317895 0.455217 0.495217)
(-0.235277 0.322096 0.313734)
(-0.199149 0.275701 0.298245)
(-0.194589 0.28067 0.299356)
(-0.240116 0.331286 0.317699)
(-0.252686 0.339725 0.326091)
(-0.26958 0.322747 0.317728)
(-0.208902 0.284416 0.296986)
(-0.235545 0.295198 0.310851)
(-0.177127 0.268069 0.290614)
(-0.180418 0.256254 0.284093)
(-0.253169 0.318882 0.325875)
(-0.223007 0.300551 0.314016)
(-0.217383 0.278952 0.308139)
(-0.176579 0.266143 0.277282)
(-0.20496 0.299443 0.307496)
(-0.184794 0.279908 0.295441)
(-0.157849 0.250143 0.276169)
(-0.483459 0.182681 0.37974)
(-0.501788 0.195759 0.449433)
(-0.541273 0.209096 0.425298)
(-0.525904 0.176184 0.456848)
(-0.530156 0.746045 0.741598)
(-0.494407 0.724754 0.627664)
(-0.507548 0.747018 0.686226)
(-0.532134 0.705835 0.651574)
(-0.524959 0.727574 0.667122)
(-0.543473 0.778152 0.808304)
(-0.539069 0.766083 0.796244)
(-0.531141 0.783272 0.692641)
(-0.521582 0.743755 0.697765)
(-0.523918 0.707935 0.711493)
(-0.519105 0.69802 0.760137)
(-0.543813 0.764967 0.797021)
(-0.529694 0.72953 0.776992)
(-0.530135 0.756434 0.798316)
(-0.541856 0.774835 0.769729)
(-0.509157 0.545597 0.741143)
(-0.479987 0.539897 0.778506)
(-0.44166 0.410303 0.748285)
(-0.461455 0.438928 0.785394)
(-0.489146 0.406008 0.768295)
(-0.467296 0.403495 0.748373)
(-0.516954 0.419154 0.712957)
(-0.497632 0.396234 0.726223)
(-0.506527 0.53609 0.769919)
(-0.491247 0.535631 0.696925)
(-0.493292 0.497987 0.739239)
(-0.486545 0.443202 0.764581)
(-0.45823 0.467797 0.776436)
(-0.502965 0.49995 0.70208)
(-0.509444 0.488311 0.689851)
(-0.505318 0.462563 0.703973)
(-0.484575 0.510721 0.741092)
(-0.485597 0.527503 0.763307)
(-0.444816 0.479597 0.762394)
(-0.453645 0.482953 0.738432)
(-0.468737 0.406657 0.740742)
(-0.496581 0.486795 0.724052)
(-0.462045 0.45444 0.741805)
(-0.500306 0.512231 0.743947)
(-0.453117 0.465205 0.76693)
(-0.461053 0.434271 0.747173)
(-0.266826 0.817083 0.487424)
(-0.313212 0.811804 0.521378)
(-0.307427 0.813287 0.530219)
(-0.26391 0.726193 0.414571)
(-0.270607 0.784586 0.457221)
(-0.206867 0.67304 0.30766)
(-0.217875 0.705129 0.352086)
(-0.397529 0.703788 0.683005)
(-0.345879 0.650184 0.636768)
(-0.328372 0.634902 0.598629)
(-0.379663 0.673565 0.662158)
(-0.275346 0.555197 0.568429)
(-0.277783 0.577719 0.574835)
(-0.344926 0.666639 0.629317)
(-0.364123 0.658803 0.663757)
(-0.251252 0.545806 0.53594)
(-0.280847 0.597963 0.575612)
(-0.227638 0.523295 0.535867)
(-0.246489 0.535256 0.554336)
(-0.359627 0.69018 0.667613)
(-0.3105 0.639088 0.632625)
(-0.329053 0.624483 0.634501)
(-0.299213 0.586171 0.598949)
(-0.376827 0.662081 0.676109)
(-0.286941 0.575188 0.33139)
(-0.256071 0.565621 0.440661)
(-0.37933 0.59348 0.648533)
(-0.397705 0.598464 0.651523)
(-0.367465 0.593328 0.625673)
(-0.275906 0.580597 0.345511)
(-0.264799 0.625112 0.290652)
(-0.27912 0.567343 0.452732)
(-0.356266 0.625423 0.46822)
(-0.388393 0.633091 0.601997)
(-0.296832 0.557822 0.534626)
(-0.348241 0.612179 0.49187)
(-0.297308 0.604669 0.284225)
(-0.309125 0.60766 0.534528)
(-0.455486 0.701793 0.686628)
(-0.490603 0.73233 0.677387)
(-0.497741 0.736207 0.704142)
(-0.46672 0.702046 0.690182)
(-0.522483 0.761916 0.748667)
(-0.508066 0.756992 0.762941)
(-0.519361 0.751627 0.789133)
(-0.538088 0.829055 0.78196)
(-0.531759 0.798973 0.787349)
(-0.538358 0.783404 0.785756)
(-0.546015 0.780644 0.801318)
(-0.524563 0.774673 0.809358)
(-0.551477 0.792226 0.82874)
(-0.55353 0.79787 0.8232)
(-0.54648 0.793849 0.83074)
(-0.345163 0.446118 0.282669)
(-0.307294 0.478811 0.259086)
(-0.278405 0.584658 0.201839)
(-0.36911 0.528038 0.290254)
(-0.28321 0.446953 0.246002)
(-0.27363 0.472686 0.213046)
(-0.324143 0.564752 0.224658)
(-0.379478 0.510914 0.295945)
(-0.374811 0.499587 0.282816)
(-0.392791 0.450598 0.308097)
(-0.252558 0.559195 0.183717)
(-0.259872 0.53175 0.230047)
(-0.328654 0.479187 0.215539)
(-0.359571 0.482702 0.262905)
(-0.26186 0.557482 0.212165)
(-0.360212 0.457706 0.286466)
(-0.35941 0.466057 0.268457)
(-0.247456 0.512176 0.279672)
(-0.292916 0.460258 0.241257)
(-0.277602 0.521376 0.194473)
(-0.527128 0.473483 0.682814)
(-0.48126 0.516358 0.630054)
(-0.511404 0.49657 0.634246)
(-0.486067 0.504789 0.556473)
(-0.487037 0.564071 0.701683)
(-0.456054 0.596061 0.679522)
(-0.387512 0.553028 0.386165)
(-0.4461 0.573722 0.465121)
(-0.421009 0.584206 0.410667)
(-0.425828 0.599915 0.456444)
(-0.395796 0.612889 0.450109)
(-0.427614 0.628806 0.468144)
(-0.494401 0.546741 0.730556)
(-0.45591 0.593089 0.458611)
(-0.465862 0.545842 0.528732)
(-0.475014 0.570106 0.552007)
(-0.400589 0.649107 0.498702)
(-0.409229 0.649401 0.620291)
(-0.433263 0.619134 0.63563)
(-0.434776 0.626052 0.695818)
(-0.418314 0.629454 0.515006)
(-0.52647 0.675724 0.775138)
(-0.492571 0.629453 0.766882)
(-0.428527 0.639535 0.70437)
(-0.536965 0.702707 0.767451)
(-0.433173 0.660881 0.67873)
(-0.511334 0.691244 0.707497)
(-0.471362 0.614219 0.744877)
(-0.432569 0.597571 0.731399)
(-0.517056 0.673336 0.769207)
(-0.555732 0.728124 0.797377)
(-0.413595 0.620959 0.703173)
(-0.451023 0.622366 0.746115)
(-0.27668 0.590832 0.269684)
(-0.242936 0.546986 0.23106)
(-0.231755 0.52312 0.344877)
(-0.21191 0.564917 0.509496)
(-0.240072 0.548829 0.501382)
(-0.207654 0.513181 0.381389)
(-0.209619 0.51679 0.273595)
(-0.239188 0.569081 0.251846)
(-0.280337 0.511876 0.205288)
(-0.258894 0.543388 0.23062)
(-0.253373 0.543939 0.172465)
(-0.280263 0.584745 0.199543)
(-0.265749 0.57684 0.265729)
(-0.242838 0.570259 0.437092)
(-0.269565 0.5843 0.524426)
(-0.49768 0.420491 0.823155)
(-0.504523 0.416742 0.807407)
(-0.527485 0.436033 0.807703)
(-0.50846 0.413902 0.802442)
(-0.493907 0.423791 0.82141)
(-0.483104 0.469917 0.781813)
(-0.488658 0.440271 0.802867)
(-0.505482 0.458028 0.805322)
(-0.53566 0.495411 0.803744)
(-0.535403 0.467264 0.793398)
(-0.50807 0.440421 0.805614)
(-0.513615 0.400741 0.78033)
(-0.491369 0.40481 0.794473)
(-0.537808 0.511874 0.804062)
(-0.557984 0.459667 0.812094)
(-0.546408 0.440395 0.796379)
(-0.513377 0.422923 0.795042)
(-0.528425 0.416467 0.785918)
(-0.564285 0.476964 0.806748)
(-0.553282 0.463756 0.803064)
(-0.54643 0.453674 0.794853)
(-0.526891 0.425385 0.780011)
(-0.30036 0.560649 0.412153)
(-0.354144 0.59396 0.459468)
(-0.346495 0.618585 0.565375)
(-0.336601 0.608239 0.54967)
(-0.344534 0.615416 0.519087)
(-0.328309 0.605962 0.539316)
(-0.377911 0.620262 0.454485)
(-0.378462 0.611189 0.529748)
(-0.353632 0.612952 0.538889)
(-0.434632 0.660884 0.550887)
(-0.360617 0.636907 0.572331)
(-0.407371 0.674161 0.651009)
(-0.474353 0.696692 0.729288)
(-0.408744 0.651305 0.6675)
(-0.466639 0.685361 0.735319)
(-0.433733 0.669075 0.717818)
(-0.491421 0.728911 0.625726)
(-0.443153 0.685116 0.675497)
(-0.368066 0.62142 0.619753)
(-0.160436 0.592017 0.521776)
(-0.163607 0.592225 0.522323)
(-0.110771 0.561684 0.497216)
(-0.259499 0.710873 0.613648)
(-0.225684 0.677245 0.569141)
(-0.21698 0.687039 0.597983)
(-0.0988951 0.585267 0.512156)
(-0.322941 0.84803 0.710054)
(-0.271478 0.779142 0.648823)
(-0.158822 0.637649 0.569229)
(-0.098329 0.605326 0.534541)
(-0.189971 0.652491 0.569085)
(-0.194934 0.747029 0.6341)
(-0.249847 0.786632 0.657627)
(-0.206706 0.712681 0.612514)
(-0.263569 0.557 0.32631)
(-0.306126 0.597529 0.370513)
(-0.254484 0.538213 0.388632)
(-0.255226 0.564982 0.338083)
(-0.308054 0.567631 0.255387)
(-0.308788 0.58253 0.306566)
(-0.343672 0.540186 0.317329)
(-0.364897 0.550546 0.268045)
(-0.297479 0.495587 0.332911)
(-0.371764 0.538283 0.318984)
(-0.255325 0.492904 0.328767)
(-0.291695 0.578899 0.596554)
(-0.26212 0.575859 0.57021)
(-0.227051 0.503435 0.459373)
(-0.193292 0.47746 0.457666)
(-0.215726 0.501126 0.443895)
(-0.197288 0.486025 0.4557)
(-0.261683 0.517694 0.38215)
(-0.23626 0.540535 0.361625)
(-0.226689 0.52631 0.409241)
(-0.291999 0.577403 0.5755)
(-0.250837 0.53991 0.366366)
(-0.377709 0.533591 0.693702)
(-0.419032 0.591524 0.72173)
(-0.377275 0.539213 0.659843)
(-0.435778 0.603925 0.776979)
(-0.361166 0.523254 0.668347)
(-0.363024 0.516649 0.656304)
(-0.421093 0.59419 0.753771)
(-0.374258 0.532102 0.681049)
(-0.361169 0.520248 0.647363)
(-0.364169 0.539411 0.657052)
(-0.44148 0.611838 0.762217)
(-0.39203 0.561079 0.700302)
(-0.382745 0.544534 0.671923)
(-0.38241 0.550832 0.664702)
(-0.353046 0.533799 0.645281)
(-0.349435 0.524691 0.635373)
(-0.412897 0.592609 0.731112)
(-0.333217 0.50165 0.611781)
(-0.447477 0.623463 0.77992)
(-0.453431 0.638303 0.781318)
(-0.440775 0.628018 0.75545)
(-0.352796 0.604117 0.551076)
(-0.362636 0.63077 0.602922)
(-0.414926 0.694629 0.634188)
(-0.412814 0.675777 0.636708)
(-0.324935 0.590561 0.516083)
(-0.397005 0.692096 0.622955)
(-0.384468 0.689973 0.606632)
(-0.320842 0.609893 0.50454)
(-0.315907 0.619657 0.504111)
(-0.316159 0.619288 0.498942)
(-0.32574 0.618526 0.520277)
(-0.325234 0.608259 0.534723)
(-0.290672 0.58252 0.468242)
(-0.248575 0.486387 0.496143)
(-0.264839 0.49918 0.509501)
(-0.235356 0.477362 0.469011)
(-0.243991 0.48662 0.481176)
(-0.230262 0.475966 0.45705)
(-0.187428 0.420212 0.40035)
(-0.229617 0.465189 0.466404)
(-0.190909 0.420691 0.41741)
(-0.206124 0.454707 0.449987)
(-0.236755 0.490007 0.485203)
(-0.271522 0.522435 0.530981)
(-0.273995 0.514777 0.528694)
(-0.578239 0.622332 0.731097)
(-0.594153 0.626886 0.756151)
(-0.594981 0.62314 0.77176)
(-0.517296 0.622203 0.647941)
(-0.572573 0.646479 0.743897)
(-0.573939 0.647687 0.781494)
(-0.534189 0.619741 0.665073)
(-0.458222 0.601311 0.55233)
(-0.534627 0.643636 0.721826)
(-0.575149 0.646497 0.760925)
(-0.282775 0.697615 0.560905)
(-0.197103 0.612117 0.485824)
(-0.0760774 0.550907 0.318149)
(-0.201259 0.640055 0.477048)
(-0.260818 0.670698 0.517036)
(-0.258383 0.669311 0.532205)
(-0.221012 0.633636 0.489975)
(-0.371456 0.60246 0.528837)
(-0.391071 0.594156 0.537646)
(-0.343173 0.597424 0.514839)
(-0.282568 0.565308 0.442412)
(-0.280443 0.556821 0.446538)
(-0.287867 0.560712 0.458285)
(-0.324602 0.589926 0.498095)
(-0.339496 0.534639 0.47249)
(-0.282718 0.512443 0.414574)
(-0.314959 0.539859 0.453745)
(-0.396984 0.629154 0.573378)
(-0.289177 0.552369 0.447565)
(-0.249875 0.515383 0.397738)
(-0.287054 0.53888 0.437366)
(-0.321657 0.533151 0.463491)
(-0.298004 0.518739 0.442788)
(-0.354974 0.566189 0.509705)
(-0.271682 0.524595 0.430421)
(-0.31157 0.571099 0.60076)
(-0.297836 0.524348 0.576428)
(-0.251572 0.469122 0.506711)
(-0.364319 0.605613 0.664126)
(-0.339755 0.57464 0.619417)
(-0.289411 0.529353 0.566003)
(-0.265376 0.489531 0.528342)
(-0.308457 0.52766 0.580788)
(-0.312781 0.541082 0.590469)
(-0.275552 0.490548 0.54316)
(-0.297902 0.489517 0.558261)
(-0.294914 0.500321 0.562018)
(-0.377698 0.624018 0.679621)
(-0.261859 0.495777 0.533639)
(-0.315447 0.531899 0.587322)
(-0.339514 0.535054 0.623112)
(-0.314354 0.519424 0.595727)
(-0.351346 0.577649 0.663579)
(-0.245944 0.582232 0.541313)
(-0.377966 0.688103 0.685612)
(-0.289502 0.619423 0.584729)
(-0.271587 0.611851 0.590893)
(-0.268348 0.600931 0.563056)
(-0.218 0.60324 0.529564)
(-0.228268 0.608807 0.535574)
(-0.324628 0.701624 0.649796)
(-0.377957 0.725531 0.687332)
(-0.33676 0.666248 0.646632)
(-0.278607 0.633668 0.583439)
(-0.316528 0.657364 0.636104)
(-0.234925 0.610491 0.55695)
(-0.219535 0.607211 0.544962)
(-0.262973 0.619098 0.567894)
(-0.267314 0.660067 0.590527)
(-0.259765 0.646405 0.569886)
(-0.361129 0.693795 0.662581)
(-0.307706 0.664107 0.62617)
(-0.19521 0.331945 0.468201)
(-0.176125 0.317086 0.441393)
(-0.146845 0.322822 0.445294)
(-0.144069 0.310489 0.437548)
(-0.17348 0.344088 0.469378)
(-0.167379 0.303411 0.41376)
(-0.209818 0.36331 0.511115)
(-0.162942 0.320954 0.436074)
(-0.192992 0.331559 0.474918)
(-0.215406 0.352917 0.504092)
(-0.170352 0.320336 0.449701)
(-0.242354 0.424391 0.584922)
(-0.180458 0.322446 0.460964)
(-0.231508 0.432085 0.592994)
(-0.246529 0.461914 0.602702)
(-0.251292 0.431625 0.596305)
(-0.19664 0.37219 0.528407)
(-0.223915 0.420857 0.584098)
(-0.227386 0.438222 0.589257)
(-0.227063 0.446254 0.587373)
(-0.194793 0.403325 0.527013)
(-0.352869 0.416373 0.543592)
(-0.332834 0.395778 0.519399)
(-0.391076 0.411263 0.588959)
(-0.448551 0.488047 0.674383)
(-0.321082 0.369685 0.517975)
(-0.304141 0.364254 0.487269)
(-0.394286 0.4623 0.608221)
(-0.364656 0.418058 0.547853)
(-0.365525 0.421861 0.572214)
(-0.434357 0.488336 0.65376)
(-0.415841 0.456654 0.650495)
(-0.35647 0.401429 0.574402)
(-0.431575 0.499575 0.664727)
(-0.429999 0.478486 0.662965)
(-0.404961 0.456581 0.599545)
(-0.383326 0.405156 0.568958)
(-0.346576 0.383283 0.552316)
(-0.332098 0.38171 0.518346)
(-0.364971 0.41275 0.543531)
(-0.316328 0.364083 0.476654)
(-0.262352 0.739253 0.57859)
(-0.238141 0.736954 0.565356)
(-0.0571179 0.620595 0.357399)
(-0.0799141 0.610658 0.358967)
(-0.1589 0.643315 0.398487)
(-0.172154 0.69053 0.504619)
(-0.268192 0.733196 0.587379)
(-0.27094 0.71056 0.53914)
(-0.0694602 0.611905 0.377429)
(-0.100226 0.591708 0.358742)
(-0.110788 0.635364 0.440033)
(-0.138221 0.645703 0.445225)
(-0.211874 0.668385 0.436746)
(-0.122955 0.625018 0.428214)
(-0.178454 0.665607 0.484906)
(-0.205438 0.628729 0.422957)
(-0.155828 0.641676 0.435714)
(-0.368084 0.433388 0.577029)
(-0.378574 0.448883 0.590471)
(-0.351572 0.445854 0.55827)
(-0.326972 0.421659 0.520564)
(-0.345856 0.448 0.567237)
(-0.323296 0.417933 0.529384)
(-0.360732 0.428753 0.580339)
(-0.354216 0.43356 0.577322)
(-0.380024 0.435613 0.599934)
(-0.365029 0.463223 0.579763)
(-0.36689 0.445529 0.623411)
(-0.425744 0.499586 0.676427)
(-0.365982 0.46692 0.610134)
(-0.403018 0.496735 0.68493)
(-0.407136 0.516832 0.684919)
(-0.370959 0.529596 0.73126)
(-0.351628 0.483601 0.73832)
(-0.363412 0.536491 0.731202)
(-0.380746 0.523245 0.724056)
(-0.348951 0.437229 0.721062)
(-0.354041 0.440809 0.728857)
(-0.456093 0.544291 0.753683)
(-0.442704 0.565514 0.735251)
(-0.46122 0.518888 0.786528)
(-0.451058 0.5296 0.778006)
(-0.367571 0.45814 0.742384)
(-0.370733 0.466579 0.737847)
(-0.438115 0.564965 0.705177)
(-0.457099 0.517265 0.746332)
(-0.477677 0.523589 0.76902)
(-0.395663 0.512717 0.747545)
(-0.438332 0.53456 0.739289)
(-0.405611 0.310585 0.41476)
(-0.475321 0.321141 0.471086)
(-0.408458 0.304151 0.469573)
(-0.41808 0.286598 0.482238)
(-0.457453 0.325188 0.443209)
(-0.407431 0.272273 0.436316)
(-0.382014 0.270946 0.401553)
(-0.375982 0.276872 0.428197)
(-0.366325 0.258758 0.413717)
(-0.350087 0.265932 0.395787)
(-0.312047 0.264622 0.37722)
(-0.510455 0.367554 0.535035)
(-0.480737 0.343523 0.530846)
(-0.446755 0.334378 0.444647)
(-0.359337 0.266327 0.387752)
(-0.346849 0.28486 0.388468)
(-0.366542 0.291606 0.407581)
(-0.381129 0.29186 0.395013)
(-0.469766 0.630104 0.608298)
(-0.50496 0.642618 0.683879)
(-0.496268 0.642987 0.639107)
(-0.42594 0.671375 0.537525)
(-0.444972 0.6052 0.496178)
(-0.464265 0.618286 0.517467)
(-0.387796 0.602636 0.340582)
(-0.36405 0.65034 0.347965)
(-0.514984 0.721131 0.729079)
(-0.515877 0.7211 0.749303)
(-0.499485 0.711916 0.726214)
(-0.359217 0.633269 0.386706)
(-0.338265 0.620051 0.328852)
(-0.399155 0.611892 0.401346)
(-0.483425 0.680786 0.661314)
(-0.456025 0.668583 0.5726)
(-0.476508 0.689124 0.607691)
(-0.438522 0.66312 0.515676)
(-0.42126 0.560933 0.648521)
(-0.436095 0.56827 0.669047)
(-0.437771 0.560803 0.659284)
(-0.416327 0.547818 0.633588)
(-0.459451 0.606633 0.698219)
(-0.426266 0.566325 0.648943)
(-0.464196 0.604446 0.704016)
(-0.402447 0.526716 0.607816)
(-0.418905 0.527104 0.626878)
(-0.438235 0.540815 0.650276)
(-0.402272 0.533887 0.611264)
(-0.428312 0.528777 0.640803)
(-0.48271 0.606753 0.706675)
(-0.427594 0.557193 0.653002)
(-0.501297 0.60372 0.728658)
(-0.466985 0.225787 0.404238)
(-0.467828 0.225654 0.41155)
(-0.385356 0.234632 0.334473)
(-0.392555 0.241465 0.332812)
(-0.37862 0.200551 0.305049)
(-0.341186 0.185842 0.290826)
(-0.34088 0.199824 0.293982)
(-0.314185 0.191847 0.283628)
(-0.293282 0.170927 0.264734)
(-0.33455 0.176412 0.28314)
(-0.46707 0.218283 0.397314)
(-0.438808 0.195918 0.397422)
(-0.413516 0.202988 0.371935)
(-0.438968 0.248836 0.383658)
(-0.466342 0.264926 0.405042)
(-0.33957 0.208342 0.300017)
(-0.43072 0.255517 0.347205)
(-0.292626 0.171906 0.270951)
(-0.412771 0.229371 0.330362)
(-0.423404 0.198175 0.348603)
(-0.360958 0.187346 0.333562)
(-0.414691 0.22165 0.371476)
(-0.334058 0.174497 0.306075)
(-0.336657 0.192343 0.312309)
(-0.284861 0.1627 0.275576)
(-0.50887 0.658254 0.786809)
(-0.513863 0.670378 0.766117)
(-0.537582 0.610331 0.746129)
(-0.519906 0.586914 0.731103)
(-0.482215 0.593776 0.728829)
(-0.504337 0.675132 0.79967)
(-0.493253 0.634403 0.762597)
(-0.48377 0.618568 0.760869)
(-0.48286 0.606022 0.752745)
(-0.551793 0.661196 0.775524)
(-0.535881 0.659177 0.781528)
(-0.547116 0.631678 0.761141)
(-0.530371 0.64793 0.768578)
(-0.498279 0.598414 0.735102)
(-0.480905 0.573399 0.711243)
(-0.526933 0.611521 0.742489)
(-0.507686 0.594482 0.740118)
(-0.511834 0.596666 0.742109)
(-0.529244 0.633202 0.771769)
(-0.5428 0.53122 0.780158)
(-0.577011 0.561815 0.785613)
(-0.594704 0.602431 0.790583)
(-0.55392 0.493254 0.758354)
(-0.542297 0.498877 0.737753)
(-0.52715 0.502607 0.728567)
(-0.51998 0.475501 0.721795)
(-0.545568 0.49372 0.755255)
(-0.525469 0.501943 0.73616)
(-0.521506 0.472712 0.74476)
(-0.555929 0.565149 0.753553)
(-0.575505 0.571476 0.787856)
(-0.448434 0.54644 0.815033)
(-0.452617 0.557436 0.816212)
(-0.414262 0.511531 0.790415)
(-0.416392 0.521603 0.805546)
(-0.446878 0.576838 0.807956)
(-0.451618 0.565893 0.812514)
(-0.398695 0.518825 0.768739)
(-0.417894 0.562091 0.793111)
(-0.379717 0.48608 0.74115)
(-0.356337 0.454658 0.7065)
(-0.396489 0.538022 0.76906)
(-0.374093 0.491874 0.734351)
(-0.412638 0.540196 0.779245)
(-0.4703 0.366819 0.540026)
(-0.393014 0.336323 0.49374)
(-0.372486 0.297283 0.448107)
(-0.340228 0.28831 0.431616)
(-0.485533 0.376129 0.584316)
(-0.469269 0.392042 0.595402)
(-0.403949 0.291229 0.487453)
(-0.44445 0.379331 0.595216)
(-0.475058 0.373326 0.614502)
(-0.435276 0.337751 0.553567)
(-0.396177 0.326187 0.52688)
(-0.368601 0.295515 0.474208)
(-0.392941 0.296622 0.494626)
(-0.409879 0.317119 0.563539)
(-0.350884 0.30504 0.48836)
(-0.425876 0.306977 0.566134)
(-0.201367 0.202992 0.268496)
(-0.209323 0.177629 0.252329)
(-0.250886 0.191814 0.268548)
(-0.224828 0.175466 0.260649)
(-0.204982 0.200151 0.265662)
(-0.229277 0.208669 0.274489)
(-0.25461 0.184618 0.270756)
(-0.237267 0.173377 0.263257)
(-0.225028 0.164603 0.250339)
(-0.27818 0.255705 0.305431)
(-0.245477 0.257983 0.304598)
(-0.262991 0.247173 0.311171)
(-0.305631 0.245396 0.302719)
(-0.283136 0.184428 0.27752)
(-0.221833 0.245437 0.294543)
(-0.278529 0.191308 0.272478)
(-0.290564 0.233692 0.297457)
(-0.250597 0.236867 0.286147)
(-0.545826 0.581571 0.757013)
(-0.540665 0.557968 0.736968)
(-0.559756 0.589763 0.742121)
(-0.536105 0.587342 0.729133)
(-0.539422 0.587508 0.738624)
(-0.492951 0.508981 0.667509)
(-0.48599 0.486917 0.65156)
(-0.5133 0.504825 0.684024)
(-0.521903 0.548687 0.697844)
(-0.505004 0.558745 0.699462)
(-0.47547 0.507358 0.655127)
(-0.457201 0.473095 0.616218)
(-0.506765 0.505318 0.668329)
(-0.496952 0.533984 0.66895)
(-0.483952 0.531539 0.661469)
(-0.49879 0.542663 0.680925)
(-0.486701 0.499538 0.656036)
(-0.46263 0.49965 0.623553)
(-0.493422 0.548282 0.681959)
(-0.452871 0.524106 0.636459)
(-0.446579 0.518479 0.634078)
(-0.4774 0.543499 0.661822)
(-0.460736 0.548263 0.660615)
(-0.504336 0.607576 0.727044)
(-0.515165 0.604181 0.728137)
(-0.523206 0.62416 0.750585)
(-0.53286 0.612437 0.747299)
(-0.452165 0.514862 0.63013)
(-0.45926 0.549488 0.665217)
(-0.520364 0.637999 0.755282)
(-0.522437 0.596478 0.731951)
(-0.443992 0.520369 0.631646)
(-0.468937 0.577045 0.690353)
(-0.490853 0.571961 0.700753)
(-0.471264 0.556105 0.675398)
(-0.571223 0.587296 0.753261)
(-0.554084 0.550867 0.779028)
(-0.550404 0.536445 0.80024)
(-0.567121 0.532343 0.79811)
(-0.451413 0.565299 0.636637)
(-0.559208 0.557944 0.776114)
(-0.374723 0.552682 0.440024)
(-0.454102 0.549432 0.629778)
(-0.542543 0.525915 0.80002)
(-0.55148 0.528378 0.756837)
(-0.529204 0.547718 0.824012)
(-0.519603 0.554833 0.698814)
(-0.43166 0.554715 0.520627)
(-0.466123 0.52753 0.552662)
(-0.553442 0.565372 0.743275)
(-0.554859 0.559206 0.797055)
(-0.332336 0.432875 0.776318)
(-0.296909 0.420432 0.778458)
(-0.27128 0.453177 0.7742)
(-0.317271 0.421039 0.775688)
(-0.277992 0.399015 0.775453)
(-0.299908 0.507155 0.671691)
(-0.270668 0.478268 0.6966)
(-0.241775 0.444685 0.71188)
(-0.254015 0.389779 0.747923)
(-0.329681 0.441993 0.754081)
(-0.284808 0.430522 0.744585)
(-0.237119 0.43018 0.724644)
(-0.300617 0.403388 0.769677)
(-0.267011 0.380024 0.745937)
(-0.242285 0.384133 0.740262)
(-0.356089 0.116497 0.264547)
(-0.321022 0.284336 0.782803)
(-0.282812 0.268661 0.741611)
(-0.222339 0.125934 0.25003)
(-0.180472 0.122293 0.217935)
(-0.47065 0.192031 0.611949)
(-0.460718 0.168797 0.572699)
(-0.498044 0.329653 0.750649)
(-0.539177 0.361936 0.768746)
(-0.498844 0.339844 0.798448)
(-0.43798 0.303544 0.76474)
(-0.449874 0.299855 0.794609)
(-0.445657 0.270351 0.749294)
(-0.144729 0.269251 0.514961)
(-0.126429 0.248069 0.483036)
(-0.139041 0.287625 0.54559)
(-0.110527 0.25672 0.473161)
(-0.412235 0.170033 0.400452)
(-0.436187 0.182919 0.426727)
(-0.39957 0.467338 0.826669)
(-0.402343 0.506564 0.84061)
(-0.41247 0.469083 0.853077)
(-0.553769 0.589783 0.740341)
(-0.558327 0.571985 0.734861)
(-0.32955 0.258778 0.663685)
(-0.369171 0.292031 0.703723)
(-0.315761 0.274311 0.689811)
(-0.170813 0.187419 0.241941)
(-0.17829 0.187986 0.250179)
(-0.397487 0.417708 0.794985)
(-0.398135 0.396101 0.782506)
(-0.432774 0.268489 0.642954)
(-0.448978 0.275231 0.674285)
(-0.446302 0.289122 0.677212)
(-0.422204 0.304773 0.672742)
(-0.563442 0.450507 0.736231)
(-0.557644 0.455463 0.7184)
(-0.261552 0.186071 0.263921)
(-0.265481 0.191278 0.262815)
(-0.242717 0.192278 0.262584)
(-0.437834 0.570352 0.709716)
(-0.436179 0.574308 0.717869)
(-0.472555 0.611673 0.791648)
(-0.462453 0.345354 0.686965)
(-0.487988 0.383083 0.698593)
(-0.486628 0.372863 0.710018)
(-0.331541 0.225449 0.352396)
(-0.352888 0.231903 0.377377)
(-0.365838 0.228056 0.368413)
(-0.415097 0.252885 0.523127)
(-0.419923 0.26456 0.548061)
(-0.222923 0.269962 0.557442)