/*--------------------------------*- C++ -*----------------------------------*\
| =========                 |                                                 |
| \\      /  F ield         | OpenFOAM: The Open Source CFD Toolbox           |
|  \\    /   O peration     | Version:  v1612+                                |
|   \\  /    A nd           | Web:      www.OpenFOAM.com                      |
|    \\/     M anipulation  |                                                 |
\*---------------------------------------------------------------------------*/
FoamFile
{
    version     2.0;
    format      ascii;
    class       volScalarField;
    location    "150";
    object      p;
}
// * * * * * * * * * * * * * * * * * * * * * * * * * * * * * * * * * * * * * //

dimensions      [0 2 -2 0 0 0 0];

internalField   nonuniform List<scalar> 
17056
(
4.26424
4.16961
4.16165
4.20067
4.39969
4.40999
4.41727
4.37364
4.37743
4.37663
4.37072
4.39826
4.3819
4.38467
4.37306
4.40871
4.37742
4.33478
4.33396
4.34086
4.34373
4.33024
4.32897
4.32669
4.33145
4.34792
4.34967
4.33923
4.32869
4.34717
4.33887
4.21666
4.21861
4.2176
4.21417
4.22027
4.21613
4.22349
4.21829
4.22672
4.22623
4.22106
4.21718
4.21677
4.22032
4.21497
4.2151
4.21941
4.20115
4.20218
4.20769
4.20428
4.19833
4.21047
4.20599
4.20641
4.20618
4.20526
4.2066
4.33388
4.33809
4.32973
4.33355
4.33944
4.33359
4.34132
4.32994
4.33302
4.35234
4.34651
4.34914
4.34288
4.34596
4.33505
4.33349
4.34934
4.35051
4.34737
4.3424
4.29975
4.30222
4.30921
4.30925
4.28793
4.29572
4.31126
4.29533
4.29454
4.29625
4.28829
4.28664
4.29843
4.29464
4.32243
4.31908
4.32144
4.3234
4.32315
4.31917
4.32729
4.33075
4.31971
4.32107
4.3193
4.32489
4.32884
4.32904
4.33101
4.32131
4.3221
4.32755
4.32764
4.32862
4.32164
4.32639
4.30713
4.3133
4.3007
4.3091
4.30202
4.3097
4.31101
4.30462
4.29497
4.29559
4.31283
4.31022
4.31718
4.30583
4.29551
4.29567
4.29724
4.2976
4.28443
4.28801
4.27501
4.27743
4.29283
4.28996
4.29751
4.2865
4.27716
4.27961
4.28402
4.2805
4.28394
4.29023
4.26117
4.26092
4.26557
4.26548
4.25113
4.25206
4.25137
4.25186
4.25889
4.2487
4.25113
4.25818
4.25041
4.25632
4.2502
4.25405
4.19901
4.20315
4.20354
4.2024
4.19583
4.19209
4.1939
4.19731
4.20152
4.20013
4.20052
4.20349
4.19209
4.19348
4.20283
4.19475
4.19555
4.19495
4.19537
4.19247
4.18125
4.17991
4.18302
4.1815
4.17942
4.17797
4.18286
4.17902
4.17955
4.17789
4.17357
4.17884
4.17698
4.17799
4.32171
4.31558
4.34518
4.34469
4.32681
4.32546
4.31145
4.32884
4.31877
4.34049
4.33897
4.34632
4.32674
4.31798
4.32377
4.32524
4.23693
4.23554
4.23611
4.23602
4.23725
4.24144
4.23725
4.24954
4.24938
4.23668
4.23631
4.24169
4.24624
4.24995
4.23878
4.23953
4.24382
4.24538
4.24645
4.25254
4.25248
4.25484
4.25109
4.25413
4.25521
4.25351
4.25715
4.2575
4.25343
4.25402
4.27249
4.26943
4.2631
4.26263
4.26458
4.26299
4.2707
4.26597
4.26587
4.14821
4.15114
4.14564
4.14747
4.1468
4.14854
4.15152
4.14792
4.1549
4.25887
4.24927
4.25835
4.25706
4.25151
4.25391
4.25426
4.25039
4.24654
4.21174
4.21092
4.2036
4.20608
4.21291
4.21276
4.21082
4.20268
4.20207
4.20848
4.20487
4.2086
4.20494
4.20133
4.19903
4.15007
4.15262
4.15321
4.15202
4.15707
4.14446
4.33201
4.33921
4.3321
4.32714
4.34105
4.33016
4.32831
4.33543
4.34318
4.34565
4.34587
4.16922
4.17036
4.17681
4.17772
4.16937
4.17464
4.17971
4.17738
4.17932
4.17881
4.17024
4.17122
4.17503
4.17734
4.17607
4.17156
4.18063
4.17846
4.175
4.17714
4.17037
4.16991
4.21571
4.21318
4.21724
4.21335
4.21529
4.21791
4.21619
4.226
4.22293
4.22904
4.22691
4.22361
4.22341
4.21622
4.22573
4.22206
4.16496
4.15964
4.16659
4.16754
4.16677
4.15687
4.16142
4.16309
4.15834
4.16695
4.16372
4.1541
4.1537
4.16268
4.15329
4.15302
4.15721
4.15588
4.16464
4.16054
4.16329
4.16146
4.15867
4.20943
4.20604
4.20558
4.20593
4.20832
4.20951
4.20567
4.20481
4.21323
4.21077
4.21411
4.20675
4.20678
4.21153
4.21407
4.21541
4.22877
4.23052
4.22676
4.2288
4.23388
4.2334
4.23546
4.23939
4.22704
4.23882
4.23396
4.23511
4.23997
4.23927
4.23352
4.23391
4.24687
4.24632
4.26178
4.25813
4.25821
4.25847
4.2489
4.24754
4.26559
4.26455
4.24882
4.24891
4.2545
4.25485
4.25494
4.17596
4.17749
4.18079
4.1781
4.18096
4.18472
4.18483
4.18376
4.18405
4.17341
4.17318
4.17971
4.18487
4.17764
4.18019
4.22825
4.22713
4.23327
4.23336
4.22511
4.24225
4.22665
4.22253
4.24161
4.23265
4.226
4.22351
4.23572
4.22554
4.23192
4.2206
4.21937
4.21202
4.21522
4.22216
4.22149
4.21408
4.20859
4.21004
4.21157
4.20764
4.21306
4.21981
4.21857
4.2124
4.21913
4.27621
4.27898
4.26963
4.27392
4.26054
4.26014
4.26751
4.27912
4.27517
4.26447
4.26332
4.2738
4.25946
4.26056
4.26092
4.26909
4.26918
4.27656
4.26375
4.26964
4.3394
4.35489
4.35202
4.35217
4.34016
4.3399
4.3445
4.35246
4.32892
4.33022
4.33353
4.35339
4.33035
4.33131
4.33928
4.33918
4.34421
4.33813
4.24077
4.24206
4.24249
4.23785
4.23614
4.23072
4.23178
4.23155
4.23684
4.24507
4.24514
4.236
4.2307
4.2301
4.23755
4.24059
4.2356
4.2347
4.1891
4.18571
4.18615
4.18725
4.18788
4.17629
4.1782
4.17937
4.17927
4.18224
4.17972
4.18329
4.1831
4.17999
4.17751
4.18575
4.1854
4.17669
4.18266
4.18128
4.17936
4.18115
4.26996
4.26778
4.26521
4.27118
4.27118
4.26744
4.25836
4.26499
4.27234
4.27269
4.26243
4.26445
4.26772
4.26866
4.26748
4.2586
4.26015
4.25939
4.26017
4.26073
4.26177
4.25683
4.26487
4.27501
4.27389
4.27041
4.25893
4.26886
4.35312
4.35105
4.34922
4.35363
4.3577
4.35876
4.35912
4.3702
4.35811
4.36012
4.37141
4.36334
4.37635
4.28752
4.28438
4.28506
4.28654
4.29331
4.29817
4.30118
4.29736
4.30317
4.30191
4.30546
4.30085
4.29554
4.28691
4.18407
4.1827
4.18783
4.1866
4.18425
4.18734
4.18688
4.18741
4.18678
4.18559
4.18587
4.17586
4.17807
4.17736
4.18032
4.17942
4.17648
4.17866
4.18027
4.18138
4.18131
4.18329
4.18586
4.18343
4.1844
4.18404
4.18584
4.18315
4.32007
4.32618
4.31573
4.3218
4.32573
4.31726
4.31868
4.3152
4.32278
4.32233
4.31761
4.32571
4.31785
4.32692
4.32578
4.16001
4.15813
4.15992
4.15933
4.16048
4.1578
4.1571
4.15963
4.15941
4.15953
4.15653
4.15601
4.15812
4.1512
4.15075
4.15166
4.22221
4.22201
4.2223
4.21811
4.21954
4.22295
4.22813
4.22069
4.22097
4.22751
4.2275
4.21809
4.21912
4.22781
4.31713
4.31596
4.31329
4.31512
4.31871
4.31959
4.31891
4.31813
4.31879
4.31557
4.31349
4.31892
4.31641
4.31643
4.31708
4.31917
4.31625
4.3181
4.31801
4.31805
4.33399
4.33864
4.35133
4.34881
4.33846
4.33207
4.35185
4.34698
4.35628
4.33136
4.33404
4.35707
4.35475
4.33488
4.31856
4.31408
4.32856
4.32981
4.3275
4.32895
4.31473
4.31048
4.31314
4.31806
4.3128
4.32167
4.30671
4.31448
4.32144
4.30848
4.31311
4.31282
4.31709
4.31492
4.31646
4.31867
4.31803
4.315
4.31378
4.32114
4.31935
4.31635
4.3162
4.31699
4.32145
4.31871
4.31798
4.31752
4.3212
4.3194
4.30004
4.29615
4.3089
4.31284
4.29611
4.29998
4.31454
4.30719
4.30346
4.30164
4.29479
4.31032
4.30392
4.31843
4.29818
4.30329
4.32137
4.32291
4.31211
4.31006
4.19638
4.202
4.20287
4.19844
4.19541
4.1999
4.19174
4.19312
4.20108
4.19484
4.19392
4.18068
4.18658
4.18677
4.18123
4.1823
4.17778
4.18743
4.18886
4.18485
4.19061
4.18722
4.18232
4.18082
4.18416
4.1857
4.18915
4.18368
4.18861
4.18207
4.18412
4.16017
4.16121
4.16993
4.16454
4.16238
4.16494
4.16775
4.16731
4.17159
4.16836
4.16277
4.15996
4.16185
4.16513
4.15965
4.16099
4.15783
4.15921
4.16781
4.16481
4.16157
4.15073
4.14956
4.14855
4.1526
4.15126
4.14837
4.14602
4.1462
4.15145
4.14858
4.15004
4.15069
4.14913
4.22064
4.22107
4.2177
4.21922
4.21743
4.21847
4.21989
4.21909
4.20974
4.20797
4.21118
4.20982
4.21979
4.21694
4.21362
4.21242
4.20995
4.20821
4.20985
4.2094
4.21115
4.27651
4.26978
4.26986
4.27739
4.28098
4.28446
4.28789
4.28955
4.27787
4.21093
4.21065
4.21621
4.21562
4.20951
4.21327
4.21359
4.2113
4.21576
4.21572
4.22028
4.21982
4.40685
4.35816
4.36104
4.36228
4.36502
4.35572
4.36543
4.36602
4.37111
4.36119
4.36755
4.37013
4.36686
4.35713
4.36332
4.37573
4.37471
4.37356
4.39661
4.38458
4.39143
4.38559
4.37141
4.37248
4.38981
4.37165
4.38908
4.40311
4.39878
4.40821
4.39536
4.40928
4.39882
4.39758
4.4039
4.40532
4.40227
4.40042
4.40139
4.14947
4.14529
4.14377
4.14721
4.14178
4.1455
4.14646
4.14149
4.15622
4.15625
4.14842
4.1489
4.15347
4.15462
4.15381
4.15865
4.15666
4.15502
4.14896
4.14712
4.15237
4.15111
4.15329
4.15656
4.15319
4.16155
4.15743
4.16
4.16159
4.1616
4.16189
4.16086
4.17163
4.17004
4.16604
4.1702
4.16435
4.16243
4.1762
4.17873
4.16265
4.16294
4.17462
4.1661
4.16923
4.17464
4.18018
4.17995
4.18325
4.18561
4.17735
4.1853
4.17754
4.18152
4.17586
4.17456
4.17098
4.18222
4.17714
4.1761
4.17089
4.17456
4.18666
4.18099
4.17837
4.17611
4.1814
4.18738
4.1892
4.19079
4.18823
4.19244
4.1855
4.19856
4.19761
4.19335
4.20189
4.19755
4.19619
4.19469
4.196
4.19784
4.19871
4.19794
4.19409
4.19441
4.20679
4.20053
4.20467
4.20027
4.20524
4.20626
4.20563
4.20794
4.21192
4.21073
4.20973
4.21187
4.21503
4.21674
4.20906
4.21739
4.21434
4.20979
4.22664
4.22327
4.22301
4.2194
4.21634
4.21459
4.23004
4.22812
4.23162
4.23276
4.23101
4.23064
4.22624
4.22683
4.2321
4.23243
4.23906
4.23129
4.23109
4.23721
4.23552
4.22915
4.23256
4.24966
4.24493
4.24645
4.24897
4.24632
4.24737
4.24335
4.23846
4.23944
4.2529
4.25287
4.24736
4.24962
4.25278
4.25225
4.25264
4.25343
4.25923
4.24648
4.26669
4.26545
4.26824
4.26332
4.26812
4.26841
4.2903
4.29052
4.28718
4.29172
4.27497
4.27446
4.28281
4.282
4.27708
4.28097
4.29208
4.29315
4.29053
4.31086
4.31337
4.31468
4.2987
4.3064
4.30147
4.30817
4.27958
4.2834
4.28377
4.32997
4.33693
4.29157
4.29207
4.28515
4.3325
4.30446
4.3042
4.33787
4.35089
4.34783
4.32243
4.35028
4.33261
4.33936
4.33884
4.3426
4.35444
4.35195
4.34098
4.33584
4.35395
4.35185
4.34381
4.35726
4.35154
4.35775
4.33855
4.34756
4.3384
4.35624
4.36059
4.3424
4.32087
4.31648
4.312
4.31132
4.32332
4.3343
4.33138
4.32049
4.35701
4.35714
4.35809
4.35853
4.3191
4.31804
4.3125
4.32393
4.32309
4.31559
4.35659
4.3374
4.36336
4.35553
4.33683
4.34641
4.35557
4.33499
4.34579
4.35934
4.35458
4.36034
4.33173
4.35575
4.35289
4.33582
4.35551
4.34855
4.3616
4.35133
4.32431
4.33867
4.33507
4.33303
4.31877
4.35316
4.34735
4.35052
4.35556
4.35877
4.34746
4.34817
4.31928
4.31104
4.31159
4.34684
4.35239
4.3537
4.34502
4.34873
4.35392
4.34157
4.34159
4.34819
4.3354
4.33439
4.3598
4.36045
4.35707
4.34243
4.33591
4.35401
4.33647
4.36273
4.3495
4.3756
4.37917
4.37359
4.37703
4.34203
4.35956
4.36019
4.362
4.35111
4.35247
4.3512
4.36143
4.36501
4.34456
4.36316
4.36597
4.35005
4.3468
4.36482
4.35969
4.35766
4.33511
4.32282
4.34104
4.3383
4.33754
4.34812
4.35524
4.34418
4.3327
4.35182
4.3581
4.34038
4.37728
4.35535
4.37652
4.35945
4.3766
4.38101
4.36646
4.3643
4.34731
4.34368
4.35721
4.35644
4.37353
4.37194
4.35865
4.35396
4.36949
4.36081
4.3592
4.37699
4.37314
4.3766
4.35117
4.35144
4.36232
4.37111
4.36106
4.37486
4.38025
4.36194
4.35968
4.36011
4.36607
4.36682
4.38495
4.37244
4.37788
4.37322
4.37302
4.37674
4.36064
4.3493
4.36272
4.35531
4.35753
4.36732
4.37751
4.36886
4.37063
4.39463
4.39329
4.38259
4.36864
4.35577
4.39019
4.38933
4.38713
4.36907
4.37425
4.38289
4.35705
4.37736
4.39216
4.38988
4.35912
4.35644
4.34666
4.38898
4.39179
4.37151
4.37246
4.40038
4.39291
4.38075
4.38223
4.38114
4.39469
4.36208
4.36636
4.37042
4.36292
4.38268
4.38341
4.37687
4.37685
4.33935
4.34859
4.35703
4.35334
4.35785
4.36125
4.35643
4.35577
4.35064
4.35278
4.35809
4.36196
4.35711
4.3586
4.36811
4.36879
4.32442
4.3275
4.33983
4.32574
4.32716
4.31935
4.35823
4.35862
4.36152
4.36961
4.36598
4.37098
4.37091
4.33765
4.338
4.35022
4.34234
4.34253
4.35081
4.32898
4.3315
4.32881
4.34754
4.34254
4.34669
4.34024
4.34272
4.31456
4.3156
4.32302
4.32324
4.32265
4.33242
4.33188
4.34805
4.32785
4.33377
4.32886
4.33233
4.33404
4.35206
4.35908
4.35957
4.35577
4.3441
4.36546
4.36339
4.35529
4.3431
4.36103
4.355
4.36466
4.36518
4.33843
4.33784
4.3351
4.33125
4.33952
4.32218
4.32231
4.32433
4.34539
4.34773
4.3464
4.35382
4.35688
4.35721
4.34014
4.34077
4.34042
4.36197
4.34941
4.34301
4.34851
4.35056
4.34382
4.32988
4.33198
4.35041
4.34868
4.3453
4.34373
4.31312
4.3253
4.30014
4.31034
4.299
4.30037
4.28452
4.28402
4.29301
4.29589
4.30178
4.32492
4.33282
4.3282
4.32881
4.33171
4.33608
4.33194
4.33329
4.31892
4.31927
4.32569
4.32911
4.32719
4.32548
4.32608
4.3344
4.32508
4.323
4.32937
4.32001
4.32827
4.32938
4.33056
4.33037
4.33407
4.32842
4.32514
4.32402
4.3324
4.33474
4.30921
4.31338
4.31279
4.31879
4.31901
4.32089
4.31409
4.30598
4.29964
4.30531
4.32156
4.31996
4.30326
4.32109
4.30795
4.30834
4.29756
4.29439
4.29632
4.30473
4.30658
4.30704
4.30009
4.2997
4.32919
4.33481
4.33353
4.33571
4.30306
4.3027
4.3114
4.31511
4.31463
4.31704
4.32165
4.31999
4.29336
4.30863
4.3095
4.29429
4.30162
4.31422
4.31235
4.31369
4.32392
4.32948
4.3292
4.34661
4.34305
4.34985
4.34136
4.3387
4.33587
4.33647
4.32261
4.32144
4.32405
4.32364
4.32118
4.32135
4.27261
4.27529
4.27449
4.28899
4.28954
4.29483
4.29837
4.29766
4.26622
4.26787
4.27028
4.27969
4.2809
4.26092
4.27138
4.27258
4.28221
4.26872
4.27068
4.31911
4.32066
4.32151
4.32382
4.32347
4.3248
4.32064
4.32062
4.27679
4.28528
4.26723
4.27465
4.261
4.26116
4.29882
4.29439
4.295
4.3042
4.29965
4.29996
4.296
4.3041
4.26772
4.26618
4.26985
4.27874
4.29807
4.27532
4.28849
4.2887
4.2873
4.29697
4.28241
4.28471
4.26892
4.26969
4.27571
4.27638
4.28364
4.27112
4.27732
4.27979
4.27976
4.28216
4.27567
4.28162
4.27936
4.2788
4.28279
4.28852
4.27324
4.27609
4.27165
4.27867
4.2787
4.25672
4.25913
4.2629
4.26149
4.26678
4.26701
4.27467
4.30489
4.30528
4.31156
4.31168
4.30619
4.26232
4.26978
4.25696
4.25635
4.25704
4.26541
4.27072
4.26453
4.26971
4.27801
4.27615
4.27927
4.28676
4.28653
4.27996
4.27958
4.26686
4.282
4.27616
4.27072
4.27841
4.2698
4.27678
4.26637
4.2688
4.2914
4.27048
4.27195
4.28181
4.28039
4.27018
4.27222
4.24131
4.24433
4.24151
4.24444
4.25067
4.2561
4.26327
4.26978
4.25429
4.23422
4.2408
4.24642
4.24161
4.24569
4.24872
4.26432
4.27197
4.27089
4.26314
4.26461
4.27153
4.24808
4.24871
4.25616
4.25256
4.25102
4.25719
4.24656
4.25233
4.24878
4.23461
4.23525
4.24238
4.24679
4.25084
4.24098
4.23496
4.23339
4.23529
4.23821
4.23853
4.24337
4.24538
4.23394
4.23701
4.2326
4.24825
4.25209
4.24788
4.24542
4.25107
4.24823
4.2498
4.23808
4.23888
4.24466
4.25161
4.24331
4.2486
4.24497
4.25372
4.24502
4.24897
4.26315
4.27047
4.27067
4.27499
4.25861
4.25905
4.25697
4.26272
4.25979
4.22197
4.2278
4.24702
4.25624
4.26017
4.24479
4.24265
4.23376
4.23493
4.24076
4.23743
4.24331
4.24153
4.23292
4.23704
4.24543
4.25093
4.23826
4.24396
4.2416
4.24107
4.23778
4.23714
4.24247
4.24462
4.25878
4.25498
4.25939
4.26602
4.2632
4.23208
4.23451
4.24381
4.23929
4.23694
4.24176
4.23818
4.2416
4.24346
4.24217
4.24529
4.24591
4.24625
4.25958
4.25536
4.26471
4.26698
4.26164
4.26784
4.23218
4.22247
4.23445
4.21984
4.21837
4.22439
4.22956
4.22768
4.22485
4.22699
4.23102
4.24688
4.24228
4.23761
4.24763
4.25204
4.24819
4.25057
4.24932
4.23984
4.24117
4.2436
4.22208
4.22209
4.22767
4.22751
4.22901
4.22547
4.22937
4.222
4.22414
4.22672
4.22935
4.23685
4.23372
4.23512
4.23628
4.21393
4.22143
4.21804
4.23328
4.22945
4.22884
4.2241
4.22319
4.23633
4.23566
4.23979
4.23795
4.23907
4.2373
4.23683
4.23548
4.23304
4.22135
4.22267
4.22939
4.23064
4.22646
4.22276
4.23218
4.22716
4.23045
4.2381
4.24336
4.24313
4.23572
4.24081
4.24633
4.2451
4.24826
4.23872
4.2366
4.23335
4.23588
4.2492
4.25198
4.21619
4.21696
4.22014
4.22052
4.22012
4.22447
4.21958
4.2223
4.22496
4.24163
4.23943
4.24485
4.24413
4.20554
4.21093
4.21068
4.20188
4.20451
4.20901
4.21014
4.20765
4.21604
4.21276
4.21502
4.21543
4.20642
4.21109
4.23206
4.22079
4.22734
4.22194
4.21831
4.22422
4.22148
4.22477
4.22829
4.2231
4.2364
4.22891
4.22618
4.23251
4.23176
4.21297
4.21918
4.21617
4.21377
4.21679
4.21886
4.21826
4.21963
4.21536
4.21678
4.23212
4.23323
4.23616
4.2349
4.23943
4.23925
4.2394
4.23616
4.21797
4.21956
4.21946
4.21403
4.21857
4.20216
4.21079
4.21442
4.20252
4.20287
4.20769
4.21052
4.20934
4.20122
4.20781
4.20834
4.20582
4.20728
4.20291
4.20959
4.21346
4.20906
4.21149
4.2143
4.20999
4.20245
4.20697
4.20691
4.20096
4.20659
4.20379
4.20702
4.22338
4.21751
4.22632
4.22749
4.22701
4.22137
4.21777
4.21847
4.21506
4.21918
4.22149
4.22338
4.20154
4.20876
4.20057
4.19272
4.20327
4.20428
4.21057
4.20428
4.20738
4.21576
4.22226
4.21052
4.21387
4.21342
4.20928
4.20807
4.20085
4.20374
4.19969
4.20347
4.20189
4.20241
4.20372
4.20691
4.2037
4.20673
4.20785
4.2181
4.20928
4.2155
4.21265
4.21413
4.21046
4.20756
4.19926
4.20142
4.19288
4.20607
4.1922
4.1904
4.20139
4.19806
4.20237
4.20026
4.20658
4.20519
4.21019
4.21208
4.20827
4.21118
4.21457
4.21439
4.1982
4.19002
4.19462
4.197
4.19045
4.21759
4.20956
4.20611
4.20289
4.21373
4.21365
4.21275
4.21529
4.18149
4.18553
4.19248
4.19912
4.18921
4.19284
4.19471
4.19852
4.19562
4.18782
4.1944
4.19493
4.19289
4.191
4.18012
4.18953
4.19394
4.18532
4.20171
4.20328
4.19763
4.19357
4.18823
4.18804
4.20239
4.20067
4.19145
4.19522
4.19651
4.18765
4.19576
4.20098
4.18733
4.1937
4.19533
4.19848
4.19919
4.19817
4.19005
4.19051
4.20405
4.19974
4.2029
4.20828
4.20159
4.20477
4.19322
4.18836
4.1935
4.19152
4.18507
4.18478
4.19344
4.1939
4.19654
4.19612
4.19964
4.19975
4.20201
4.20111
4.19484
4.19255
4.20318
4.20549
4.19721
4.2016
4.19736
4.2
4.20556
4.21375
4.21193
4.2128
4.20436
4.21071
4.20974
4.20755
4.21016
4.20144
4.184
4.18897
4.18599
4.18418
4.19207
4.19382
4.1932
4.18348
4.18835
4.18761
4.18865
4.18961
4.18962
4.20237
4.18934
4.18952
4.189
4.19605
4.20283
4.19179
4.19451
4.20412
4.20623
4.21128
4.21096
4.21179
4.21121
4.20829
4.1928
4.19914
4.19714
4.19782
4.19837
4.18883
4.19053
4.18432
4.18216
4.18114
4.18662
4.17895
4.17372
4.18399
4.18363
4.17884
4.17263
4.1822
4.18103
4.18446
4.18408
4.20278
4.20291
4.20143
4.20053
4.19639
4.19209
4.19688
4.19017
4.20078
4.18768
4.18451
4.17562
4.17596
4.17917
4.18116
4.18127
4.18595
4.18605
4.18565
4.18125
4.18591
4.17005
4.16878
4.17463
4.17763
4.17677
4.1768
4.17141
4.17615
4.19133
4.18703
4.19399
4.18565
4.18584
4.1839
4.19001
4.18909
4.18354
4.18557
4.18761
4.18991
4.18738
4.18802
4.16241
4.16453
4.17184
4.17107
4.16141
4.17102
4.17151
4.16501
4.17007
4.16981
4.18556
4.18098
4.17423
4.17214
4.17173
4.18157
4.18275
4.17888
4.17599
4.17775
4.17976
4.16912
4.17545
4.17207
4.17108
4.18872
4.18346
4.18497
4.18917
4.1902
4.18369
4.17365
4.17512
4.17507
4.17056
4.17814
4.1776
4.18202
4.17852
4.1774
4.17552
4.17545
4.17713
4.16951
4.17224
4.18924
4.18721
4.18854
4.18522
4.18559
4.18178
4.1728
4.1683
4.17635
4.17816
4.17735
4.17549
4.18727
4.17762
4.17919
4.17153
4.17852
4.17808
4.17567
4.18233
4.1812
4.18418
4.17618
4.17656
4.1762
4.17763
4.17346
4.17468
4.182
4.18091
4.1775
4.15785
4.16554
4.16173
4.1711
4.16464
4.16521
4.15397
4.1538
4.15474
4.16356
4.16022
4.15582
4.15544
4.16892
4.16585
4.17034
4.17928
4.17035
4.17
4.17378
4.16906
4.17879
4.17601
4.17697
4.1716
4.17233
4.17125
4.17025
4.17255
4.16722
4.16824
4.18246
4.17938
4.17677
4.18563
4.18478
4.18095
4.16152
4.16357
4.15484
4.16853
4.15364
4.16023
4.15948
4.16361
4.16455
4.16193
4.15993
4.15928
4.16157
4.1621
4.16948
4.17293
4.16996
4.17194
4.16499
4.16823
4.16246
4.17337
4.16436
4.15503
4.16565
4.16589
4.16266
4.1625
4.15802
4.1599
4.16362
4.16177
4.16029
4.16872
4.16659
4.16794
4.1735
4.17246
4.17123
4.18217
4.18172
4.18089
4.17314
4.17052
4.17312
4.17395
4.17824
4.17623
4.17923
4.17822
4.15827
4.16523
4.16722
4.16319
4.16445
4.15023
4.15099
4.1506
4.16032
4.16384
4.15634
4.15444
4.15706
4.15855
4.16272
4.16128
4.15179
4.14942
4.16199
4.15988
4.15675
4.16097
4.15995
4.17625
4.17257
4.16488
4.16959
4.17047
4.16844
4.1619
4.16255
4.16463
4.16575
4.15024
4.15958
4.15569
4.15558
4.15458
4.16183
4.15815
4.15781
4.155
4.15953
4.16027
4.14897
4.15471
4.1529
4.14965
4.15092
4.14904
4.15484
4.15293
4.14814
4.15143
4.14642
4.15486
4.15
4.15
4.16418
4.15736
4.15862
4.15777
4.15467
4.15314
4.15098
4.15456
4.14936
4.15736
4.1622
4.15365
4.15516
4.1574
4.16129
4.16414
4.15963
4.15615
4.16536
4.14362
4.14549
4.14469
4.16099
4.15419
4.1641
4.16066
4.15546
4.15357
4.14758
4.14867
4.15715
4.14601
4.14525
4.15451
4.15182
4.15786
4.16293
4.16154
4.15761
4.15657
4.15192
4.15493
4.14708
4.1441
4.15198
4.14622
4.15948
4.16569
4.16378
4.16602
4.16441
4.16105
4.15863
4.14596
4.15311
4.15124
4.14583
4.14979
4.15162
4.15118
4.1501
4.14686
4.14822
4.15138
4.14677
4.15088
4.15062
4.15075
4.14656
4.14674
4.15596
4.15236
4.15026
4.1512
4.15377
4.15378
4.15141
4.15453
4.14719
4.14528
4.14631
4.14436
4.14844
4.15495
4.14722
4.14493
4.14036
4.14568
4.14543
4.14722
4.14729
4.15562
4.15503
4.14679
4.15054
4.1419
4.14768
4.14529
4.15573
4.15432
4.15213
4.14369
4.14631
4.15055
4.15269
4.1517
4.14675
4.14513
4.14531
4.14904
4.15353
4.14136
4.14505
4.15153
4.14993
4.14901
4.15181
4.14601
4.14547
4.14875
4.14762
4.14971
4.14992
4.14637
4.15245
4.15258
4.15346
4.15473
4.15394
4.14847
4.14309
4.149
4.14769
4.14766
4.1495
4.14848
4.14592
4.14724
4.14552
4.1433
4.15086
4.15097
4.15013
4.14959
4.14839
4.14527
4.14532
4.14479
4.14728
4.15492
4.15173
4.14373
4.14176
4.14985
4.14955
4.15089
4.15163
4.16112
4.15944
4.15348
4.15212
4.15556
4.15014
4.14917
4.15844
4.15678
4.1582
4.15778
4.16994
4.16916
4.16413
4.1598
4.16761
4.16913
4.16758
4.1654
4.17144
4.16662
4.16394
4.17229
4.16683
4.16922
4.17073
4.16843
4.1658
4.16929
4.16498
4.1592
4.16121
4.16301
4.16223
4.1516
4.15483
4.16026
4.16079
4.17541
4.17411
4.18062
4.17657
4.17448
4.18604
4.18366
4.17128
4.17374
4.16953
4.16842
4.17516
4.17479
4.15677
4.15649
4.15489
4.14751
4.14816
4.15266
4.15752
4.15046
4.15613
4.16163
4.15809
4.15644
4.15816
4.16637
4.15575
4.16285
4.16103
4.16488
4.15778
4.15485
4.16279
4.16415
4.16317
4.15787
4.15869
4.15894
4.15762
4.15936
4.16254
4.16252
4.16603
4.15547
4.15376
4.16262
4.16115
4.16116
4.16255
4.16565
4.17221
4.1879
4.18531
4.18225
4.17653
4.18737
4.18721
4.16926
4.16838
4.17548
4.1742
4.18037
4.17377
4.17624
4.19486
4.19452
4.1932
4.19512
4.19047
4.1943
4.18874
4.18939
4.1885
4.1934
4.19404
4.18954
4.19547
4.19536
4.18939
4.19059
4.18846
4.18783
4.19148
4.19415
4.20338
4.20122
4.1817
4.17473
4.17085
4.18306
4.1785
4.17881
4.17412
4.17266
4.18015
4.17571
4.17088
4.18232
4.18054
4.18049
4.17964
4.1773
4.17246
4.18027
4.17989
4.17823
4.1746
4.20317
4.18744
4.20028
4.19913
4.19358
4.1891
4.1968
4.19716
4.19241
4.19605
4.19551
4.18005
4.17905
4.18602
4.18636
4.18509
4.17982
4.17792
4.17728
4.17653
4.17842
4.16129
4.16524
4.16824
4.16173
4.16787
4.16826
4.18254
4.18581
4.18229
4.1812
4.18318
4.16791
4.16783
4.17281
4.17438
4.17691
4.17871
4.1784
4.17726
4.17139
4.17184
4.16932
4.17727
4.17503
4.17938
4.18024
4.17673
4.17498
4.17144
4.18031
4.17693
4.17481
4.18322
4.18384
4.18578
4.18799
4.18168
4.18486
4.18772
4.19378
4.19617
4.19237
4.19319
4.18942
4.18385
4.19417
4.195
4.19527
4.19444
4.18759
4.18619
4.18981
4.19223
4.17901
4.18762
4.17986
4.18018
4.1878
4.18903
4.18695
4.18436
4.18761
4.18852
4.1817
4.17989
4.18346
4.18564
4.22599
4.2279
4.22365
4.22311
4.22126
4.21943
4.2296
4.22564
4.21339
4.21632
4.20311
4.20446
4.20172
4.19893
4.20184
4.20055
4.20466
4.23225
4.228
4.23246
4.22939
4.22529
4.22212
4.20616
4.21195
4.21495
4.21126
4.21331
4.20782
4.20447
4.20762
4.20827
4.21188
4.20948
4.2047
4.22253
4.22357
4.22259
4.23537
4.23048
4.23478
4.22628
4.22322
4.22812
4.23173
4.23375
4.23182
4.22405
4.23127
4.22885
4.22121
4.222
4.22105
4.22484
4.22561
4.21101
4.20994
4.21129
4.20636
4.20602
4.20255
4.22646
4.22952
4.22118
4.2172
4.22476
4.22491
4.21877
4.2206
4.21403
4.22002
4.22068
4.21971
4.21957
4.21878
4.21537
4.2267
4.22701
4.21828
4.22402
4.26316
4.26326
4.25965
4.25631
4.25137
4.24882
4.24788
4.25478
4.25212
4.26033
4.24948
4.25204
4.2587
4.25109
4.24693
4.25067
4.24735
4.24587
4.25038
4.22206
4.22349
4.22345
4.22089
4.21648
4.21846
4.21241
4.21309
4.2236
4.21795
4.21581
4.21388
4.22127
4.221
4.25404
4.25844
4.25255
4.25432
4.26839
4.25873
4.2576
4.26055
4.26627
4.26756
4.22787
4.22752
4.2294
4.23187
4.23132
4.23202
4.23628
4.2328
4.23439
4.23517
4.23869
4.23456
4.24018
4.24092
4.24116
4.23554
4.23204
4.23008
4.22756
4.23653
4.22972
4.22854
4.23358
4.23369
4.22998
4.23237
4.24596
4.24614
4.26342
4.2591
4.24805
4.24669
4.25896
4.26194
4.25317
4.25749
4.26088
4.25212
4.2481
4.23705
4.23979
4.24254
4.24845
4.24888
4.24199
4.24472
4.23578
4.2363
4.2287
4.25623
4.24274
4.24444
4.24734
4.23759
4.23902
4.25125
4.23657
4.23718
4.24262
4.24192
4.24531
4.24436
4.24798
4.23974
4.23624
4.25798
4.26167
4.25706
4.25682
4.25484
4.25856
4.2626
4.26436
4.26565
4.2663
4.26192
4.25138
4.24979
4.26239
4.25416
4.25175
4.25409
4.25158
4.25041
4.32826
4.33372
4.32669
4.3134
4.33169
4.33905
4.33038
4.2671
4.27826
4.2848
4.27205
4.26659
4.27442
4.27374
4.27868
4.28636
4.26949
4.2863
4.2831
4.2712
4.2662
4.26795
4.27659
4.28088
4.27043
4.27359
4.27243
4.26834
4.27277
4.27453
4.27629
4.27353
4.2774
4.27409
4.27258
4.27403
4.26609
4.26602
4.28222
4.25914
4.28294
4.27591
4.25969
4.25788
4.25663
4.26108
4.25829
4.25734
4.31701
4.31726
4.31743
4.2959
4.27972
4.28128
4.28737
4.27781
4.28515
4.28202
4.27882
4.33594
4.3362
4.33
4.32869
4.32369
4.32611
4.3249
4.3263
4.32435
4.32247
4.31987
4.31914
4.31963
4.31965
4.33141
4.32237
4.32802
4.32947
4.32966
4.33235
4.32707
4.32422
4.32626
4.32541
4.32439
4.3276
4.33346
4.33278
4.32604
4.32507
4.33293
4.33158
4.3293
4.29345
4.29453
4.28257
4.28108
4.27487
4.29408
4.29395
4.28304
4.28069
4.28618
4.28833
4.31484
4.31658
4.30738
4.29627
4.30963
4.31003
4.29498
4.29718
4.32251
4.31635
4.3225
4.32036
4.32279
4.32091
4.32072
4.32293
4.31919
4.29962
4.29946
4.30416
4.28727
4.28597
4.28941
4.27666
4.27695
4.27649
4.2791
4.27989
4.27915
4.28492
4.27391
4.29841
4.29473
4.30469
4.30291
4.30369
4.32838
4.33471
4.33327
4.33636
4.32953
4.33126
4.33743
4.33324
4.33547
4.33793
4.33739
4.33082
4.34028
4.33943
4.33187
4.35438
4.35177
4.33845
4.35983
4.36805
4.36607
4.34675
4.3396
4.34801
4.34389
4.32737
4.33303
4.33025
4.3274
4.33362
4.33003
4.33905
4.32546
4.32451
4.32566
4.3235
4.32224
4.32052
4.32361
4.32496
4.32287
4.32049
4.36075
4.35945
4.36405
4.3546
4.37283
4.37273
4.35366
4.35719
4.35659
4.35097
4.36816
4.36743
4.35622
4.3483
4.35366
4.34119
4.33602
4.34758
4.34984
4.34236
4.23631
4.23473
4.227
4.22585
4.2314
4.23061
4.22723
4.22726
4.15819
4.16227
4.16102
4.15823
4.15832
4.15663
4.15629
4.16452
4.1625
4.16037
4.16254
4.1557
4.15972
4.1486
4.14476
4.14532
4.14133
4.16088
4.15825
4.16351
4.17053
4.17033
4.16288
4.15728
4.16035
4.15532
4.15811
4.15561
4.14869
4.14552
4.14472
4.14647
4.14337
4.14519
4.32349
4.32025
4.32612
4.32207
4.31336
4.30575
4.31293
4.31062
4.31561
4.32315
4.30297
4.30425
4.28406
4.28258
4.28343
4.28618
4.28656
4.2833
4.29299
4.3019
4.30558
4.29379
4.31255
4.33508
4.30951
4.32574
4.32871
4.32545
4.32977
4.32575
4.32438
4.32312
4.31415
4.3117
4.32333
4.31991
4.3298
4.31939
4.31752
4.31078
4.32391
4.33684
4.34217
4.33165
4.32749
4.32126
4.32887
4.33488
4.33589
4.30669
4.31708
4.31669
4.34255
4.33841
4.33314
4.3513
4.34864
4.33008
4.33824
4.32502
4.31912
4.31987
4.31772
4.3272
4.33941
4.34447
4.35171
4.34818
4.32577
4.32709
4.35255
4.35075
4.33787
4.33865
4.33137
4.34095
4.34218
4.39326
4.37224
4.39203
4.38745
4.40159
4.39627
4.37157
4.37811
4.35952
4.36682
4.35949
4.35912
4.38483
4.35311
4.35742
4.35298
4.35436
4.35509
4.36927
4.35106
4.34475
4.34659
4.34192
4.33246
4.343
4.34567
4.33434
4.33356
4.33814
4.33883
4.34135
4.33947
4.35253
4.34525
4.33682
4.33952
4.34252
4.35191
4.34965
4.35366
4.35223
4.31748
4.3255
4.33865
4.32644
4.33679
4.3358
4.3373
4.36394
4.33416
4.34491
4.35067
4.35194
4.33941
4.33877
4.33257
4.344
4.3384
4.33364
4.30322
4.32117
4.30884
4.30729
4.30543
4.32489
4.30865
4.3018
4.31893
4.31908
4.32281
4.32512
4.32044
4.32923
4.32696
4.32896
4.32478
4.32062
4.31954
4.31398
4.32193
4.32203
4.32437
4.32259
4.32452
4.34112
4.32623
4.33277
4.32688
4.33003
4.33257
4.33105
4.32472
4.33375
4.33171
4.33278
4.33113
4.3286
4.32652
4.32146
4.32598
4.32394
4.33061
4.33274
4.32625
4.32175
4.33028
4.32748
4.32435
4.32217
4.28288
4.27733
4.26221
4.26193
4.27836
4.27603
4.27549
4.26579
4.26503
4.2759
4.27902
4.28963
4.28901
4.29315
4.28987
4.27768
4.27591
4.28012
4.27748
4.28098
4.28112
4.27638
4.27518
4.2977
4.30338
4.28959
4.29052
4.28787
4.29794
4.28986
4.30599
4.29583
4.30462
4.29667
4.30141
4.29878
4.30429
4.29377
4.29956
4.28839
4.2881
4.28564
4.28668
4.29153
4.29554
4.29636
4.27994
4.28016
4.28538
4.28013
4.29687
4.29394
4.28216
4.28504
4.28648
4.28762
4.29554
4.26331
4.27483
4.26255
4.2657
4.27388
4.26238
4.26923
4.27589
4.27026
4.27148
4.26153
4.28286
4.27956
4.26323
4.25888
4.25917
4.27844
4.27977
4.27511
4.2741
4.26261
4.25689
4.26066
4.25572
4.26577
4.25639
4.25732
4.26359
4.25578
4.26427
4.25983
4.25892
4.22017
4.22125
4.22657
4.2295
4.23387
4.22859
4.2213
4.22391
4.2269
4.22342
4.23197
4.23176
4.24415
4.24479
4.25563
4.26446
4.2571
4.24836
4.25513
4.25167
4.25476
4.25805
4.26391
4.26551
4.24983
4.25176
4.24986
4.24762
4.20896
4.20822
4.21087
4.21835
4.21481
4.21848
4.21062
4.2083
4.22759
4.2383
4.23753
4.23732
4.22529
4.22696
4.22474
4.25627
4.25494
4.24599
4.2623
4.26187
4.24752
4.24764
4.24703
4.24613
4.24996
4.24642
4.24682
4.25125
4.23915
4.24489
4.23955
4.23855
4.23763
4.24709
4.24187
4.24579
4.24654
4.2393
4.24104
4.24396
4.2477
4.25101
4.24771
4.23647
4.23454
4.24265
4.22829
4.22636
4.23064
4.23228
4.23544
4.23403
4.22828
4.22663
4.22731
4.22748
4.22994
4.23727
4.22906
4.23862
4.23053
4.23998
4.23738
4.23668
4.23798
4.21216
4.22604
4.21724
4.22067
4.21819
4.21914
4.22234
4.22409
4.19909
4.20032
4.20558
4.19374
4.19813
4.20363
4.20267
4.20041
4.19526
4.2024
4.20304
4.20552
4.2057
4.20499
4.20581
4.20764
4.20901
4.20585
4.20923
4.20885
4.20009
4.20165
4.20182
4.20423
4.19691
4.19893
4.20336
4.2002
4.22636
4.23201
4.22585
4.22676
4.22717
4.22338
4.22697
4.23004
4.23075
4.22188
4.22299
4.22054
4.21888
4.22386
4.21433
4.21726
4.22251
4.21109
4.22052
4.22523
4.21757
4.21965
4.21518
4.2138
4.2053
4.1876
4.19098
4.19255
4.19811
4.19757
4.1906
4.18844
4.18655
4.19912
4.19738
4.19346
4.19473
4.18809
4.19061
4.20427
4.19223
4.19975
4.20001
4.20671
4.20336
4.20528
4.20112
4.19822
4.19564
4.19327
4.20286
4.20254
4.19863
4.19414
4.19617
4.19343
4.21053
4.21908
4.22208
4.22085
4.21744
4.22153
4.21335
4.21464
4.20994
4.21168
4.2189
4.21883
4.21098
4.21093
4.21072
4.20918
4.21777
4.21488
4.20858
4.20803