/*--------------------------------*- C++ -*----------------------------------*\
| =========                 |                                                 |
| \\      /  F ield         | OpenFOAM: The Open Source CFD Toolbox           |
|  \\    /   O peration     | Version:  v1612+                                |
|   \\  /    A nd           | Web:      www.OpenFOAM.com                      |
|    \\/     M anipulation  |                                                 |
\*---------------------------------------------------------------------------*/
FoamFile
{
    version     2.0;
    format      ascii;
    class       volVectorField;
    location    "50";
    object      wallShearStress;
}
// * * * * * * * * * * * * * * * * * * * * * * * * * * * * * * * * * * * * * //

dimensions      [0 2 -2 0 0 0 0];

internalField   uniform (0 0 0);

boundaryField
{
    WALL
    {
        type            calculated;
        value           nonuniform List<vector> 
1552
(
(-0.0133934 -0.0156272 -0.000787168)
(-0.0194895 -0.0146475 -0.000342873)
(-0.0200806 -0.014103 -0.00130949)
(-0.0198197 -0.0124546 -0.000958271)
(-0.0207584 -0.0138088 -0.000457737)
(-0.0142874 -0.0125314 0.0040542)
(-0.0138954 -0.0124276 0.00409685)
(-0.019223 -0.0154794 0.00453596)
(-0.0142646 -0.00927302 0.0055778)
(-0.01336 -0.0106395 0.00648516)
(-0.00605341 -0.0130292 -0.00226584)
(-0.00710044 -0.0122274 -0.00337913)
(-0.00852171 -0.00967362 -0.0113387)
(-0.00883784 -0.016061 -0.00360054)
(-0.00917993 -0.0167354 -0.00224899)
(-0.0173943 -0.013145 -0.00194926)
(-0.0185496 -0.0128471 -0.00344474)
(-0.0122426 -0.0164622 -0.00161248)
(-0.0119774 -0.0181174 -0.00257387)
(-0.0138353 -0.0168865 -0.00142648)
(-0.0147223 -0.0154484 -0.000749699)
(-0.0170554 -0.0140285 -0.00309806)
(-0.0153157 -0.0149628 -0.0024331)
(-0.0171998 -0.0136875 -0.00398412)
(-0.0157827 -0.0152545 -0.0037152)
(-0.0190764 -0.015658 0.00232052)
(-0.0188089 -0.0147601 0.00131982)
(-0.01835 -0.0146534 -0.000196529)
(-0.0159528 -0.0153252 -0.000447771)
(-0.0188966 -0.0123996 -0.000508198)
(-0.020285 -0.0130179 0.000729774)
(-0.015386 -0.0147144 -0.000722737)
(-0.0148866 -0.0138653 0.000517212)
(-0.0154321 -0.0115956 0.0012093)
(-0.0168018 -0.011066 -0.000138454)
(-0.00377381 -0.0144974 0.00276805)
(-0.00443446 -0.01506 0.0045624)
(-0.00458808 -0.0145688 0.00548722)
(-0.00581607 -0.014057 0.00723775)
(-0.0165728 -0.011819 -0.00220433)
(-0.0162218 -0.0127788 -0.000730983)
(-0.0129794 -0.00759212 0.000245392)
(-0.0141128 -0.00793831 0.00188798)
(-0.0163797 -0.00965117 0.00121705)
(-0.015059 -0.00838843 -0.000133621)
(-0.00432666 -0.0130677 0.00305067)
(-0.0038688 -0.0121341 0.00174946)
(-0.00515918 -0.0129481 0.0033789)
(-0.00466405 -0.0128922 0.00406698)
(-0.00463687 -0.0126244 0.00209487)
(-0.00455601 -0.0124676 0.000923999)
(-0.00419915 -0.00905231 -0.00582284)
(-0.00362313 -0.00947477 -0.00407621)
(-0.00395243 -0.00912585 -0.00486741)
(-0.00360103 -0.00911777 -0.004985)
(-0.00355095 -0.00979662 -0.00430229)
(-0.004337 -0.00860864 -0.00562463)
(-0.0163583 -0.00986406 -5.21407e-05)
(-0.0159055 -0.0114398 0.000572217)
(-0.0156121 -0.00963052 0.000893545)
(-0.0158785 -0.0106492 0.00172416)
(-0.015321 -0.0108929 0.00198587)
(-0.01728 -0.0110844 -0.000516618)
(-0.0128494 -0.0102946 0.00690363)
(-0.012283 -0.0110154 0.00621842)
(-0.0122001 -0.010305 0.00719558)
(-0.0121351 -0.0117376 0.00731687)
(-0.0109268 -0.0115178 0.0078103)
(-0.0115509 -0.0114672 0.00694314)
(-0.0116536 -0.00859079 0.00828889)
(-0.0128927 -0.00824823 0.00714568)
(-0.0134485 -0.00807499 0.00657804)
(-0.0121028 -0.00870977 0.00825587)
(-0.0126178 -0.00868662 0.00802374)
(-0.0130599 -0.00786076 0.00686243)
(-0.0139378 -0.0133701 -0.00433626)
(-0.0111278 -0.0127461 -0.00429679)
(-0.0142075 -0.0118864 -0.00481898)
(-0.0122092 -0.0119901 -0.00502491)
(-0.0113385 -0.0129277 -0.00490444)
(-0.0150897 -0.0124909 -0.00416894)
(-0.0153588 -0.0158144 -0.000168847)
(-0.017446 -0.0165516 -0.000139619)
(-0.0170997 -0.014767 -0.00057129)
(-0.0164036 -0.0162372 -0.000431633)
(-0.0175861 -0.0150132 -0.0012345)
(-0.0168169 -0.0154849 -0.000751716)
(-0.00774114 -0.00832557 -0.00693968)
(-0.00754203 -0.00828159 -0.00682254)
(-0.00913071 -0.0094338 -0.00773741)
(-0.00953666 -0.00841603 -0.00780589)
(-0.0085642 -0.00815008 -0.00760288)
(-0.010008 -0.00851399 -0.00776656)
(-0.00758221 -0.0103017 -0.00475434)
(-0.00778329 -0.010034 -0.00538774)
(-0.00538513 -0.0103856 -0.0035491)
(-0.00546911 -0.0103423 -0.0032678)
(-0.00699926 -0.0104809 -0.00418791)
(-0.00584702 -0.00955543 -0.00422782)
(-0.0177811 -0.0128243 -0.00532188)
(-0.0179444 -0.0113145 -0.00671158)
(-0.0181974 -0.0109186 -0.00714976)
(-0.0178992 -0.0116694 -0.00665053)
(-0.0178596 -0.01257 -0.00594414)
(-0.0179531 -0.0117224 -0.00548296)
(-0.0127581 -0.00773729 -0.00917138)
(-0.00979074 -0.00751669 -0.00883541)
(-0.0095765 -0.00795566 -0.00946546)
(-0.0105059 -0.00710565 -0.00930124)
(-0.0124006 -0.00793316 -0.00992993)
(-0.0118151 -0.0075008 -0.00899058)
(-0.0145159 -0.00917932 -0.0057252)
(-0.014353 -0.00921289 -0.00469489)
(-0.0137722 -0.00939369 -0.00620043)
(-0.0145861 -0.00946118 -0.00511169)
(-0.0133426 -0.00914483 -0.00597136)
(-0.0142933 -0.00934542 -0.00553769)
(-0.00445292 -0.0110199 -0.00155214)
(-0.00464261 -0.0109243 -0.00267853)
(-0.00405358 -0.0105118 -0.00210737)
(-0.0040909 -0.00973122 -0.00281462)
(-0.00437831 -0.0115958 -0.00143442)
(-0.00392471 -0.00971682 -0.0028462)
(-0.00629433 -0.0125644 0.0077069)
(-0.00625625 -0.0136644 0.00879314)
(-0.00689831 -0.0126102 0.00899789)
(-0.0072952 -0.0128848 0.00831876)
(-0.00551809 -0.0139757 0.00781195)
(-0.00852682 -0.0164888 -0.00338908)
(-0.00957228 -0.0177652 -0.00346619)
(-0.0108626 -0.0175376 -0.00199736)
(-0.0105891 -0.0169636 -0.00230766)
(-0.00904891 -0.0159844 -0.00245955)
(-0.00965215 -0.0168289 -0.00295025)
(-0.00843442 -0.0148782 -0.00394547)
(-0.0082584 -0.0150696 -0.00306011)
(-0.00859017 -0.0150984 -0.00423657)
(-0.00838332 -0.0157991 -0.0027618)
(-0.00903056 -0.0165675 -0.00333378)
(-0.00860558 -0.0157079 -0.00414727)
(-0.0122727 -0.0179604 0.00287308)
(-0.0121179 -0.0181273 0.00163171)
(-0.0107307 -0.017953 0.000792237)
(-0.0120446 -0.0184259 0.00226563)
(-0.0109967 -0.0178198 0.00118488)
(-0.0105517 -0.0175809 0.00157548)
(-0.0135641 -0.0182834 0.00510144)
(-0.0135936 -0.0185669 0.00361314)
(-0.0157746 -0.0183727 0.0045163)
(-0.0154488 -0.0178102 0.00490061)
(-0.0145905 -0.0181298 0.00594264)
(-0.0138132 -0.0176795 0.00409323)
(-0.00941193 -0.0172795 0.00129008)
(-0.00931579 -0.0168861 0.00204977)
(-0.0112863 -0.0178488 0.0037453)
(-0.0113566 -0.0185489 0.00300351)
(-0.01125 -0.017842 0.00220406)
(-0.0103674 -0.0180021 0.00151832)
(-0.00859535 -0.0142779 -0.00373138)
(-0.00923208 -0.0141366 -0.00445676)
(-0.00885177 -0.016511 -0.00263918)
(-0.00820936 -0.0146337 -0.00320465)
(-0.00783986 -0.014906 -0.00247382)
(-0.00972308 -0.0163583 -0.0034488)
(-0.0103965 -0.0183699 0.00320658)
(-0.0088967 -0.0172911 0.00174758)
(-0.00956838 -0.0178516 0.00221366)
(-0.00965356 -0.0177067 -0.00393981)
(-0.0111808 -0.0190163 -0.00409312)
(-0.00910979 -0.0167785 -0.00359698)
(-0.00917738 -0.0175807 -0.00408007)
(-0.0103402 -0.0171756 -0.00317238)
(-0.0160921 -0.0112285 -0.00480211)
(-0.0170473 -0.0115865 -0.00542915)
(-0.0157812 -0.0107046 -0.00595234)
(-0.0159348 -0.0104264 -0.00685118)
(-0.0160713 -0.010479 -0.00601976)
(-0.0152827 -0.00998829 -0.00704493)
(-0.0068836 -0.00770988 -0.00965958)
(-0.00631405 -0.00816236 -0.00942693)
(-0.00856038 -0.00819119 -0.0106323)
(-0.00742507 -0.00762183 -0.0089783)
(-0.00625965 -0.00794667 -0.00875951)
(-0.00853242 -0.00799853 -0.00962028)
(-0.00563879 -0.0138935 0.00523428)
(-0.00510225 -0.0141697 0.00443951)
(-0.00623699 -0.0137427 0.00648516)
(-0.00528919 -0.013439 0.00556364)
(-0.00484431 -0.0134912 0.00454614)
(-0.00664712 -0.0145175 0.0061899)
(-0.00755723 -0.0121208 0.0099773)
(-0.00647706 -0.012561 0.00993585)
(-0.00795931 -0.0110565 0.0102966)
(-0.0116067 -0.0136325 0.00390442)
(-0.00999133 -0.0134492 0.00383193)
(-0.0111588 -0.012976 0.0043948)
(-0.0122224 -0.0131712 0.003845)
(-0.0107811 -0.0144126 0.00414375)
(-0.00934922 -0.0134465 0.00423112)
(-0.00617444 -0.00900829 -0.00584374)
(-0.00460131 -0.00950266 -0.00377932)
(-0.00544805 -0.00903225 -0.00545128)
(-0.00494625 -0.00942076 -0.00450789)
(-0.00485822 -0.00868038 -0.00497566)
(-0.00579688 -0.00938924 -0.00506248)
(-0.00416149 -0.0100807 -0.00203686)
(-0.00522976 -0.0100464 -0.00419395)
(-0.00469096 -0.0102562 -0.00282944)
(-0.00488836 -0.0100554 -0.00311241)
(-0.00497968 -0.00998392 -0.00388145)
(-0.0053573 -0.00986642 -0.00399563)
(-0.00439559 -0.0117149 0.000866123)
(-0.00446938 -0.012329 -0.00020213)
(-0.00452078 -0.0114292 -0.000285005)
(-0.00424776 -0.010873 -0.00119983)
(-0.00478439 -0.0117596 0.000598424)
(-0.00387332 -0.0109921 -0.000802826)
(-0.00383852 -0.0100438 -0.00272441)
(-0.00382913 -0.00977398 -0.00383917)
(-0.00423176 -0.00971359 -0.00356441)
(-0.00416015 -0.00971113 -0.00447562)
(-0.00418573 -0.0102698 -0.00351498)
(-0.00435944 -0.00945656 -0.00429518)
(-0.00566199 -0.0127362 -0.000230714)
(-0.00609383 -0.0135351 0.000115559)
(-0.008071 -0.0143854 0.00146262)
(-0.00647863 -0.0135415 0.000663642)
(-0.00746173 -0.013843 0.00125495)
(-0.0070705 -0.0138526 0.00080096)
(-0.0101981 -0.0145538 0.00264811)
(-0.00925528 -0.0141642 0.00274931)
(-0.0113528 -0.0138937 0.00332354)
(-0.0104021 -0.0144046 0.00335759)
(-0.012162 -0.0140212 0.00340577)
(-0.0113635 -0.0144437 0.00269676)
(-0.00829345 -0.0135482 0.00294148)
(-0.00670178 -0.0136859 0.00198914)
(-0.00724065 -0.0134295 0.00271967)
(-0.00687652 -0.0136141 0.00109292)
(-0.00773248 -0.0136251 0.00175361)
(-0.0120146 -0.0164714 -0.000466563)
(-0.0126611 -0.0161447 -0.000382354)
(-0.0103441 -0.0160751 -0.000423214)
(-0.0096739 -0.0162898 -0.000863765)
(-0.0139906 -0.015099 -0.00124221)
(-0.0162943 -0.0127333 -0.00470968)
(-0.0162151 -0.0129964 -0.00311559)
(-0.016595 -0.0135016 -0.00361989)
(-0.0165379 -0.0124119 -0.00386671)
(-0.0162277 -0.0124282 -0.00517768)
(-0.0163712 -0.0140187 -0.00305436)
(-0.0152551 -0.0119002 -0.00652195)
(-0.0162673 -0.0134891 -0.00462457)
(-0.0156369 -0.0120669 -0.00521117)
(-0.016232 -0.0104578 -0.00611773)
(-0.017035 -0.0107692 -0.00432717)
(-0.0165982 -0.010427 -0.00401315)
(-0.0164822 -0.0109963 -0.00380592)
(-0.0171335 -0.010987 -0.0057228)
(-0.0167848 -0.00987956 -0.00469494)
(-0.0173073 -0.0105289 -0.00334626)
(-0.0168937 -0.0101717 -0.00301492)
(-0.0172109 -0.0100018 -0.0043311)
(-0.0169446 -0.0102725 -0.00439628)
(-0.0168789 -0.0107908 -0.0028106)
(-0.0167942 -0.010574 -0.00529679)
(-0.0154865 -0.0138931 -6.81543e-05)
(-0.0142426 -0.0152263 0.000651255)
(-0.0147933 -0.0127867 0.00184657)
(-0.0136243 -0.0134711 0.0020314)
(-0.0139533 -0.0140492 0.00173991)
(-0.0153093 -0.0129668 0.000554732)
(-0.0153549 -0.0140404 0.000458278)
(-0.0131979 -0.0140858 0.00178019)
(-0.0120077 -0.00769578 -0.0109743)
(-0.0128559 -0.00822194 -0.0105009)
(-0.0151289 -0.008267 -0.00875829)
(-0.01647 -0.00899096 -0.00798077)
(-0.0167756 -0.00923456 -0.00824257)
(-0.0154231 -0.00887371 -0.0091467)
(-0.0173911 -0.00943049 -0.00776607)
(-0.0144015 -0.00838015 -0.00937739)
(-0.0101738 -0.00761168 -0.00787702)
(-0.0109165 -0.00823772 -0.00906267)
(-0.00955155 -0.00717068 -0.00870945)
(-0.00823231 -0.00801169 -0.00739235)
(-0.00884096 -0.00816905 -0.00838509)
(-0.0116735 -0.00844195 -0.00883842)
(-0.00767915 -0.00891631 -0.00556711)
(-0.00645702 -0.00894762 -0.00506014)
(-0.00862163 -0.00899297 -0.00648751)
(-0.00718183 -0.00975655 -0.00612135)
(-0.00866472 -0.00872336 -0.00598258)
(-0.00626344 -0.00948838 -0.00517914)
(-0.0196076 -0.0123383 -0.00312665)
(-0.0191181 -0.0115062 -0.00387644)
(-0.0185312 -0.0108799 -0.00514822)
(-0.0194645 -0.0115855 -0.00435206)
(-0.0192606 -0.0114129 -0.00305299)
(-0.0191403 -0.0106917 -0.00460239)
(-0.0200661 -0.0123112 -0.00348924)
(-0.0189508 -0.0109706 -0.00387656)
(-0.019342 -0.0111912 -0.00365164)
(-0.0194259 -0.0128611 -0.00224394)
(-0.0192062 -0.0115214 -0.00191482)
(-0.0196374 -0.0121247 -0.0029321)
(-0.0151929 -0.0171814 0.00372239)
(-0.0140332 -0.0180083 0.00240741)
(-0.0141078 -0.0175674 0.00380815)
(-0.0160381 -0.0168986 0.00324272)
(-0.0161333 -0.0177956 0.00249503)
(-0.0136265 -0.0164159 0.00283272)
(-0.0137993 -0.017598 0.00170308)
(-0.0148102 -0.0167751 0.00152962)
(-0.0155014 -0.0163764 0.00182292)
(-0.0134875 -0.0165503 0.00156173)
(-0.0150875 -0.0170095 0.00145195)
(-0.0140164 -0.0169913 0.0020365)
(-0.0187729 -0.01414 -0.000662968)
(-0.0187333 -0.0135635 -0.00124077)
(-0.0196108 -0.0130961 -0.00137532)
(-0.0193569 -0.0143228 -0.000539713)
(-0.0187894 -0.0134754 -0.0008438)
(-0.0191661 -0.0123523 -0.0019097)
(-0.0191689 -0.0132547 -0.00216364)
(-0.0193175 -0.012779 -0.00182969)
(-0.0197224 -0.0144808 0.00148322)
(-0.0205128 -0.0130703 -0.00143982)
(-0.0201689 -0.0141669 2.34552e-05)
(-0.0190199 -0.0135041 0.000833216)
(-0.0192692 -0.0129373 0.000219603)
(-0.00790062 -0.0185421 -0.00630741)
(-0.00570062 -0.0147745 -0.00515447)
(-0.00680521 -0.0174001 -0.00681837)
(-0.00761358 -0.018246 -0.00523876)
(-0.00650387 -0.0176629 -0.00575731)
(-0.00615505 -0.0156476 -0.00455539)
(-0.00632204 -0.0144012 -0.00833146)
(-0.00740761 -0.0128617 -0.0098262)
(-0.00683118 -0.0136783 -0.00908759)
(-0.00765082 -0.0136864 -0.00973363)
(-0.0077881 -0.0145077 -0.00987774)
(-0.00680875 -0.0163396 -0.0069837)
(-0.00556059 -0.0139361 -0.00776592)
(-0.0064178 -0.0171198 -0.00881097)
(-0.00604544 -0.0150374 -0.00786091)
(-0.0061678 -0.0139998 -0.00747983)
(-0.00595393 -0.0148757 -0.00601974)
(-0.00581645 -0.0162863 -0.0064856)
(-0.00540301 -0.0141245 -0.0089429)
(-0.00598249 -0.016473 -0.00658573)
(-0.00595809 -0.015733 -0.00825212)
(-0.00523971 -0.0143205 -0.00808897)
(-0.0056154 -0.0147625 -0.0072412)
(-0.0184154 -0.0128428 -0.00385616)
(-0.0166053 -0.0143874 -0.00231995)
(-0.0175714 -0.0147766 -0.00328573)
(-0.017719 -0.0136305 -0.00409597)
(-0.0184231 -0.015436 -0.0029089)
(-0.0188951 -0.0134348 -0.00292831)
(-0.0181649 -0.0140123 -0.00458055)
(-0.0162379 -0.0146978 -0.00308628)
(-0.0176958 -0.0129079 -0.00418796)
(-0.0165836 -0.0138883 -0.00302357)
(-0.0174431 -0.015183 -0.00286596)
(-0.0179289 -0.0135206 -0.00392144)
(-0.0130182 -0.0171081 -0.00234276)
(-0.0143573 -0.0170215 -0.00222864)
(-0.0148457 -0.0175222 -0.00281266)
(-0.0122457 -0.016554 -0.00154029)
(-0.0118512 -0.0178294 -0.00308241)
(-0.0129017 -0.0176318 -0.00159049)
(-0.0118076 -0.0170408 -0.00118137)
(-0.0138461 -0.0163623 -0.000901705)
(-0.014225 -0.0174487 -0.000861603)
(-0.0128797 -0.0171805 -0.000851709)
(-0.0132978 -0.0166694 -0.000799414)
(-0.0100341 -0.011536 -0.00692782)
(-0.0100106 -0.0114427 -0.00756164)
(-0.0109018 -0.0112379 -0.00765112)
(-0.00986144 -0.0127788 -0.00757923)
(-0.00976504 -0.0123881 -0.00697197)
(-0.00947548 -0.0130415 -0.00724841)
(-0.00728002 -0.0148334 -0.00755576)
(-0.00802423 -0.0163318 -0.00788407)
(-0.00740716 -0.0160758 -0.00818212)
(-0.00719427 -0.0148926 -0.00814622)
(-0.00751436 -0.0159509 -0.00682152)
(-0.00687442 -0.0154435 -0.0068839)
(-0.00872396 -0.0168623 -0.00466636)
(-0.00895159 -0.0171848 -0.00401674)
(-0.00791915 -0.0162912 -0.00437206)
(-0.00863966 -0.0174719 -0.00366487)
(-0.00897592 -0.0175705 -0.005492)
(-0.00886225 -0.0178129 -0.00549114)
(-0.00786363 -0.0178297 -0.00549793)
(-0.00760468 -0.0156537 -0.00523581)
(-0.00879431 -0.0172436 -0.00440177)
(-0.00763453 -0.0162656 -0.00434005)
(-0.00711997 -0.0160504 -0.00506065)
(-0.00798062 -0.0161279 -0.00319088)
(-0.0087109 -0.0167834 -0.00411014)
(-0.0077055 -0.0155937 -0.00443859)
(-0.00951663 -0.0177772 -0.00392077)
(-0.0083965 -0.0160039 -0.00507049)
(-0.00875597 -0.0170102 -0.00313298)
(-0.00884477 -0.0163095 -0.00480717)
(-0.0117137 -0.018568 0.000315227)
(-0.011765 -0.0184613 0.00102879)
(-0.0129236 -0.017937 0.00219819)
(-0.0121764 -0.0179065 0.0018536)
(-0.0110941 -0.0171682 0.00131722)
(-0.0128305 -0.0182232 0.00141628)
(-0.00887492 -0.0164324 -0.00341444)
(-0.00775308 -0.0145703 -0.00464641)
(-0.00901628 -0.0167626 -0.00528085)
(-0.00835484 -0.0159327 -0.00287654)
(-0.00779305 -0.0141924 -0.00399269)
(-0.00885935 -0.0161394 -0.00445774)
(-0.0112866 -0.0111887 -0.00748657)
(-0.0104057 -0.0106121 -0.00767185)
(-0.0122635 -0.00953986 -0.00705804)
(-0.0121145 -0.0108266 -0.00826458)
(-0.0119084 -0.0107128 -0.00856565)
(-0.0124294 -0.00919655 -0.0071089)
(-0.00710219 -0.0141504 -0.0108039)
(-0.00661382 -0.0135817 -0.00968918)
(-0.00612782 -0.0139936 -0.00999679)
(-0.00557258 -0.0136305 -0.00911505)
(-0.00669593 -0.0140377 -0.0105581)
(-0.00671976 -0.0136843 -0.01031)
(-0.00543488 -0.0146429 -0.00922569)
(-0.004815 -0.0131151 -0.0100342)
(-0.00448494 -0.0126692 -0.00806483)
(-0.0047629 -0.0116527 -0.00926378)
(-0.0055489 -0.0120488 -0.00942885)
(-0.0113963 -0.0108346 -0.00960544)
(-0.011108 -0.0101412 -0.0097065)
(-0.00993397 -0.0121125 -0.0101767)
(-0.0103732 -0.0102221 -0.00918323)
(-0.0101166 -0.0117815 -0.00989477)
(-0.0122509 -0.0106376 -0.0098405)
(-0.0160298 -0.00930208 -0.00573465)
(-0.0157214 -0.00955128 -0.00674871)
(-0.0146188 -0.00968689 -0.00747305)
(-0.016056 -0.0101521 -0.0079682)
(-0.0153819 -0.0100785 -0.00685476)
(-0.0127062 -0.00967515 -0.00860729)
(-0.0117585 -0.00980872 -0.00814604)
(-0.0105699 -0.0115352 -0.00899294)
(-0.012158 -0.0102556 -0.00911729)
(-0.0120198 -0.0112576 -0.0096723)
(-0.0111608 -0.0109275 -0.00864523)
(-0.00973466 -0.0115096 -0.0108173)
(-0.0107939 -0.0113352 -0.0106341)
(-0.00963783 -0.0109848 -0.0103704)
(-0.0103185 -0.0112657 -0.0105178)
(-0.0103219 -0.0120926 -0.0112946)
(-0.0153723 -0.0103266 -0.00772922)
(-0.0135489 -0.0103353 -0.00940691)
(-0.0145732 -0.0104736 -0.00925092)
(-0.0150185 -0.00965255 -0.00785168)
(-0.0157862 -0.0106238 -0.00763712)
(-0.0145289 -0.00943988 -0.00803077)
(-0.00942052 -0.0108216 -0.0112346)
(-0.00843402 -0.0109204 -0.0110649)
(-0.00846528 -0.012574 -0.0106539)
(-0.00913417 -0.011206 -0.0105929)
(-0.00718008 -0.0126172 -0.0104485)
(-0.00831234 -0.0124171 -0.0114656)
(-0.0141468 -0.00975605 -0.00882059)
(-0.0134966 -0.00998431 -0.00965527)
(-0.0126038 -0.00942509 -0.00981631)
(-0.0142245 -0.0101494 -0.00883091)
(-0.0136117 -0.00923772 -0.0091724)
(-0.0125959 -0.00945348 -0.00998773)
(-0.00726064 -0.0112359 -0.0110488)
(-0.00656662 -0.0109748 -0.0108195)
(-0.00756873 -0.0116054 -0.0114464)
(-0.00583254 -0.0118667 -0.0102953)
(-0.00682273 -0.011796 -0.0111563)
(-0.0124305 -0.00936685 -0.0100418)
(-0.0109351 -0.0092931 -0.0111223)
(-0.0117139 -0.00976824 -0.0107071)
(-0.0105857 -0.00912564 -0.0106832)
(-0.0124101 -0.00967296 -0.0102606)
(-0.0114737 -0.00993774 -0.0111969)
(-0.0135638 -0.00743226 0.00435195)
(-0.00948646 -0.0112256 -0.00328057)
(-0.0104987 -0.00885153 -0.00294196)
(-0.00950644 -0.00989929 -0.00301028)
(-0.00986412 -0.0114992 -0.00331999)
(-0.00974801 -0.0101687 -0.0029827)
(-0.0112207 -0.0102151 -0.00298654)
(-0.00883618 -0.0126344 -0.0030432)
(-0.00771422 -0.0125299 -0.00257821)
(-0.00850395 -0.0127199 -0.00279601)
(-0.00821884 -0.0143198 -0.00218402)
(-0.0214581 -0.0136666 0.00123053)
(-0.0203947 -0.0134401 0.000644369)
(-0.0205206 -0.0154253 0.00253331)
(-0.0207956 -0.014679 0.00155042)
(-0.0201606 -0.0142476 0.00182689)
(-0.0215755 -0.0159409 0.0027205)
(-0.0203153 -0.0127682 6.2453e-05)
(-0.018817 -0.0121308 -0.0012248)
(-0.00378379 -0.0140272 0.00205687)
(-0.00325303 -0.013817 0.00447887)
(-0.00422285 -0.013924 0.0002954)
(-0.00541343 -0.0133765 -0.00141164)
(-0.00431388 -0.0128692 -0.000563906)
(-0.00872755 -0.010961 -0.0047318)
(-0.00827 -0.0113025 -0.00436562)
(-0.0103872 -0.0103525 -0.0047044)
(-0.00995474 -0.0106967 -0.00489186)
(-0.00974533 -0.0120333 -0.00486435)
(-0.00755917 -0.0110445 -0.00429054)
(-0.0181093 -0.0118319 -0.0028086)
(-0.0185934 -0.0116836 -0.00226947)
(-0.0161158 -0.010981 -0.00370769)
(-0.0175578 -0.0114028 -0.00294989)
(-0.0184311 -0.0125741 -0.00390347)
(-0.0164327 -0.0165162 0.00573929)
(-0.0168299 -0.0180196 0.00567514)
(-0.0193099 -0.0178954 0.00566828)
(-0.0110802 -0.00960273 0.00973795)
(-0.00984416 -0.00989202 0.0105284)
(-0.00998869 -0.00985949 0.00948818)
(-0.00856578 -0.011422 0.0096548)
(-0.0103002 -0.0112368 0.00886532)
(-0.00977449 -0.0114986 0.00990513)
(-0.0106433 -0.0102181 0.00901166)
(-0.00907445 -0.0117098 0.00904542)
(-0.0135176 -0.00782655 -0.00104642)
(-0.0132717 -0.00791161 -0.000901495)
(-0.0122476 -0.00696311 -0.00107455)
(-0.0123801 -0.00713891 -0.00172096)
(-0.0126203 -0.00785977 -0.00226641)
(-0.0127495 -0.00802434 -0.00201037)
(-0.0138502 -0.00927125 -0.00518229)
(-0.0140225 -0.00902184 -0.00427531)
(-0.0135537 -0.00873176 -0.00480938)
(-0.0142485 -0.00818117 -0.00411001)
(-0.0144526 -0.00844132 -0.00365052)
(-0.00819682 -0.0132728 0.00759434)
(-0.00953295 -0.0120371 0.00791189)
(-0.00884972 -0.0126566 0.0087273)
(-0.0105027 -0.0121106 0.00759688)
(-0.00940459 -0.011449 0.00860566)
(-0.00874684 -0.0124908 0.00719813)
(-0.00830882 -0.0137878 0.00698773)
(-0.0115956 -0.0104229 0.00759914)
(-0.0122154 -0.0102107 0.00774877)
(-0.0127286 -0.00892244 0.00635545)
(-0.0122454 -0.0085064 0.00699087)
(-0.011024 -0.0100647 0.00823415)
(-0.0156652 -0.0102695 0.00171191)
(-0.0163489 -0.0103449 0.00206906)
(-0.0163313 -0.00962748 0.000979175)
(-0.0166047 -0.00986398 0.00107918)
(-0.0152002 -0.00994932 0.00263389)
(-0.0166872 -0.00939575 0.000631667)
(-0.0143728 -0.0106331 0.00492338)
(-0.0137859 -0.00946764 0.00519608)
(-0.015559 -0.00979031 0.00348624)
(-0.0148698 -0.00935972 0.00392333)
(-0.0150423 -0.00977173 0.00430371)
(-0.0136277 -0.0102338 0.00537835)
(-0.0165226 -0.00939603 -0.000953334)
(-0.0158684 -0.00987527 -0.00323084)
(-0.0147842 -0.00846577 -0.00244586)
(-0.0164359 -0.00968061 -0.00164527)
(-0.015859 -0.00907198 -0.0015358)
(-0.0147394 -0.00901977 -0.00344227)
(-0.0128951 -0.00899514 -0.00359345)
(-0.0116648 -0.00860457 -0.00375604)
(-0.0110589 -0.00958651 -0.00459592)
(-0.0111858 -0.00836218 -0.00389281)
(-0.0117138 -0.0100654 -0.00467678)
(-0.0125193 -0.0086556 -0.00378784)
(-0.00879535 -0.0130611 -0.00588963)
(-0.00871151 -0.0141486 -0.00548719)
(-0.00886327 -0.013141 -0.00613982)
(-0.00931169 -0.0128799 -0.00643154)
(-0.00816898 -0.0141068 -0.00522603)
(-0.00901316 -0.0135468 -0.00571437)
(-0.0100452 -0.0116737 -0.0067344)
(-0.0089925 -0.0112888 -0.0058774)
(-0.0100557 -0.0117056 -0.00594282)
(-0.0108748 -0.0104371 -0.00594329)
(-0.0102014 -0.0104036 -0.00598813)
(-0.00989878 -0.0110499 -0.00673813)
(-0.00876804 -0.0141626 -0.0047207)
(-0.00891101 -0.0137116 -0.00485074)
(-0.00953917 -0.0123712 -0.0056357)
(-0.00918702 -0.012854 -0.00517168)
(-0.00925283 -0.0126251 -0.00556769)
(-0.0091475 -0.0139132 -0.00520041)
(-0.0144427 -0.00781799 0.00130261)
(-0.0141412 -0.00777433 0.00239459)
(-0.0148993 -0.00809847 0.00070062)
(-0.0143929 -0.00761776 0.00090855)
(-0.0152259 -0.00812822 0.00255966)
(-0.0140982 -0.00788079 0.00163704)
(-0.0178543 -0.0177868 0.00415304)
(-0.0177985 -0.0173103 0.00361491)
(-0.0200464 -0.0162121 0.0032519)
(-0.0200324 -0.0161919 0.00337595)
(-0.0193927 -0.0166284 0.00403652)
(-0.0175824 -0.015464 0.00510013)
(-0.0173598 -0.0155228 0.00366966)
(-0.0159736 -0.0104646 -0.00599844)
(-0.0186118 -0.0115488 -0.00565795)
(-0.0178341 -0.0107237 -0.00620597)
(-0.0175342 -0.0101155 -0.00502499)
(-0.0158906 -0.0102542 -0.0066742)
(-0.0170926 -0.00981631 -0.00664074)
(-0.011048 -0.0103075 -0.0066627)
(-0.00947895 -0.0100281 -0.00628906)
(-0.0125428 -0.00965925 -0.00607276)
(-0.012914 -0.0121607 -0.00708477)
(-0.0104156 -0.00934355 -0.00612721)
(-0.0127199 -0.00988302 -0.00642625)
(-0.00631745 -0.0085309 -0.00645223)
(-0.00506264 -0.00860199 -0.00546437)
(-0.00666686 -0.00799585 -0.00712281)
(-0.00613724 -0.00807658 -0.00685926)
(-0.00482889 -0.00886315 -0.00570803)
(-0.00512376 -0.00804823 -0.00611369)
(-0.00531245 -0.00809484 -0.00709648)
(-0.00744026 -0.00734878 -0.0085424)
(-0.00742019 -0.00709902 -0.0081013)
(-0.0055453 -0.00782792 -0.00694862)
(-0.00609338 -0.00803237 -0.00800928)
(-0.00664219 -0.00792731 -0.00777804)
(-0.00367109 -0.0105361 -0.0029092)
(-0.00400571 -0.0108591 -0.00353038)
(-0.00414676 -0.0114861 -0.00164877)
(-0.00416098 -0.0122465 -0.00232271)
(-0.00433479 -0.0117911 -0.00288179)
(-0.00456714 -0.0119787 -0.00158216)
(-0.0034796 -0.011055 -0.00547817)
(-0.00412775 -0.0121292 -0.00366142)
(-0.00367983 -0.0117554 -0.00432)
(-0.00347975 -0.0101588 -0.00466233)
(-0.00360706 -0.0107232 -0.00380702)
(-0.00367333 -0.0111971 -0.00295941)
(-0.0044468 -0.0117422 -0.00068909)
(-0.00462948 -0.0110925 -0.00171947)
(-0.00450789 -0.0102179 -0.00218969)
(-0.003958 -0.0113402 -0.000122471)
(-0.00426807 -0.010715 -0.00157564)
(-0.00350255 -0.010201 -0.00366372)
(-0.00429225 -0.0130337 -0.00248929)
(-0.00560146 -0.00843987 -0.00835577)
(-0.00464225 -0.00830952 -0.00781287)
(-0.00697561 -0.00783743 -0.00741217)
(-0.00518448 -0.00826466 -0.00641979)
(-0.0153076 -0.0146976 -0.00114627)
(-0.014489 -0.0157321 -0.000962617)
(-0.0136203 -0.0151481 0.000335521)
(-0.0161272 -0.0146315 -0.00108578)
(-0.0146058 -0.01158 0.00232042)
(-0.0140411 -0.0136006 0.00278366)
(-0.0150301 -0.0125749 0.00174208)
(-0.0134093 -0.013796 0.00345089)
(-0.014673 -0.0124128 0.00241225)
(-0.0143104 -0.0136378 0.00297779)
(-0.0146175 -0.0127712 0.00209926)
(-0.0176135 -0.00893258 -0.00648084)
(-0.0195828 -0.0123646 -0.00472613)
(-0.0159316 -0.0114762 -0.00542264)
(-0.0117661 -0.00905743 -0.00698319)
(-0.0105911 -0.00945278 -0.00662429)
(-0.013221 -0.00957151 -0.00711277)
(-0.0137857 -0.00986971 -0.00675039)
(-0.0142296 -0.0100253 -0.00594112)
(-0.0170697 -0.0116487 -0.00618696)
(-0.0180821 -0.0112996 -0.0049717)
(-0.0188444 -0.0103294 -0.00438447)
(-0.0101074 -0.0167544 -0.00318184)
(-0.00889656 -0.0164634 -0.00321485)
(-0.0144382 -0.00762028 -0.000256753)
(-0.0148775 -0.00744689 0.00113295)
(-0.0134715 -0.00851591 0.00600133)
(-0.0142732 -0.00824819 0.00561028)
(-0.0150079 -0.00856351 0.00414915)
(-0.0142046 -0.00808234 0.00481654)
(-0.0146331 -0.00876892 0.00366227)
(-0.0149969 -0.00883643 0.00316277)
(-0.00987167 -0.0123748 -0.00699856)
(-0.00901165 -0.0125316 -0.00576089)
(-0.010236 -0.012442 -0.00602767)
(-0.00877206 -0.0142953 -0.00361638)
(-0.0100158 -0.0105441 -0.00541574)
(-0.0100761 -0.0108122 -0.00558268)
(-0.00916816 -0.0125328 -0.00458289)
(-0.00896453 -0.0132151 -0.0045407)
(-0.0104666 -0.0116158 -0.00515831)
(-0.00935105 -0.0110671 -0.00495516)
(-0.00910581 -0.0121292 -0.00487058)
(-0.010997 -0.00775915 -0.00273951)
(-0.0113198 -0.00968348 -0.00481946)
(-0.0104259 -0.010224 -0.00495158)
(-0.0108065 -0.0105272 -0.00503484)
(-0.0113271 -0.00933364 -0.00465002)
(-0.0117705 -0.00757816 -0.00278827)
(-0.00851309 -0.0134357 -0.00348506)
(-0.00869324 -0.0141974 -0.00366349)
(-0.00850297 -0.0146478 -0.00282631)
(-0.00824186 -0.0131855 -0.00320877)
(-0.00808688 -0.0149769 -0.00216082)
(-0.00828151 -0.0139124 -0.00256076)
(-0.0156287 -0.00880248 0.00111084)
(-0.0144473 -0.00871452 0.00306244)
(-0.0165752 -0.00928846 -0.00065209)
(-0.0147157 -0.0108023 0.0040217)
(-0.0144132 -0.011313 0.00490049)
(-0.0128344 -0.0112687 0.00600987)
(-0.0138682 -0.011077 0.00541062)
(-0.0151437 -0.00877735 -0.00132742)
(-0.0156033 -0.00900478 -0.00166082)
(-0.0150788 -0.00888593 -0.00247205)
(-0.0151366 -0.00883907 -0.00307411)
(-0.0121511 -0.0101674 -0.00636824)
(-0.0123926 -0.00929493 -0.00591926)
(-0.0117378 -0.00891357 -0.00489259)
(-0.0113282 -0.010436 -0.00584072)
(-0.0119108 -0.00980269 -0.00565656)
(-0.0114422 -0.0104751 -0.0062718)
(-0.0115479 -0.00998635 -0.00570369)
(-0.0132522 -0.00913113 -0.00529637)
(-0.0127956 -0.00954964 -0.00535109)
(-0.0146177 -0.00796559 -0.000537973)
(-0.0144463 -0.00893711 -0.00161563)
(-0.0146982 -0.0078169 -0.00124635)
(-0.0137306 -0.00711887 0.00363894)
(-0.0136484 -0.00715896 0.00216396)
(-0.0143147 -0.00810317 -0.00064216)
(-0.0142225 -0.00795694 -0.000972677)
(-0.0131806 -0.008404 -0.00246103)
(-0.0130147 -0.00827971 -0.00253827)
(-0.0135507 -0.00704088 0.000273444)
(-0.010826 -0.0117433 0.00874573)
(-0.0163758 -0.00945223 -0.00159854)
(-0.0163676 -0.00866149 -0.00213249)
(-0.0156621 -0.0113183 -0.00448328)
(-0.0159566 -0.0108101 -0.0045593)
(-0.0175559 -0.0120505 -0.00439127)
(-0.018028 -0.0117749 -0.00326361)
(-0.0151685 -0.0119377 -0.00509521)
(-0.0170498 -0.0126248 -0.00371421)
(-0.0102676 -0.0110528 -0.00596121)
(-0.0126371 -0.0117912 -0.00526384)
(-0.0136317 -0.0107186 -0.00505623)
(-0.0135386 -0.0106222 -0.00516426)
(-0.0122997 -0.0115578 -0.00579868)
(-0.00976917 -0.0122139 -0.00458844)
(-0.00832608 -0.0129354 -0.00349831)
(-0.00742123 -0.0133198 -0.00275804)
(-0.0038741 -0.0112443 0.00054379)
(-0.0067652 -0.0128477 -0.00272781)
(-0.00902533 -0.0129558 -0.00403955)
(-0.00545679 -0.0122801 -0.00223398)
(-0.00556651 -0.0123901 -0.00204059)
(-0.00587401 -0.0115199 -0.00289483)
(-0.00651833 -0.0104142 -0.0038949)
(-0.00762244 -0.0119913 -0.00377095)
(-0.00610068 -0.0112389 -0.00307506)
(-0.019255 -0.0130599 -0.00239658)
(-0.0190386 -0.0123181 -0.00200894)
(-0.0192689 -0.0146368 0.00365967)
(-0.007975 -0.0125132 -0.00309183)
(-0.00910543 -0.0122916 -0.00293932)
(-0.0087567 -0.0161199 -0.00157482)
(-0.00763254 -0.0161466 -0.000564295)
(-0.00764372 -0.0156774 0.000190581)
(-0.00695362 -0.0151711 -0.000446315)
(-0.00749194 -0.0146274 -0.00151872)
(-0.0140739 -0.00736135 0.00391727)
(-0.0125101 -0.00649062 -0.000465617)
(-0.0133054 -0.00716959 0.000463704)
(-0.0136166 -0.00690556 0.00181203)
(-0.0137801 -0.00716347 0.00275909)
(-0.0120808 -0.00627213 0.000371412)
(-0.0111025 -0.00816876 -0.00212009)
(-0.0110594 -0.00758301 -0.00206328)
(-0.0112161 -0.00881696 -0.00263769)
(-0.0127143 -0.0066456 -0.000850043)
(-0.0116546 -0.00784579 -0.00215606)
(-0.0119878 -0.0065412 -0.0013852)
(-0.0107787 -0.00921476 -0.0105622)
(-0.0113927 -0.00962299 -0.0106276)
(-0.0106456 -0.00922068 -0.0103975)
(-0.0118534 -0.00949103 -0.0103332)
(-0.00872451 -0.0101885 -0.0109822)
(-0.00825373 -0.0108184 -0.0110982)
(-0.00984032 -0.0101096 -0.0108234)
(-0.00983982 -0.0104216 -0.0111024)
(-0.0132895 -0.00939981 -0.00918598)
(-0.0107606 -0.0115302 -0.0114452)
(-0.0141412 -0.00903962 -0.00600829)
(-0.014488 -0.00923184 -0.00605089)