/*--------------------------------*- C++ -*----------------------------------*\
| =========                 |                                                 |
| \\      /  F ield         | OpenFOAM: The Open Source CFD Toolbox           |
|  \\    /   O peration     | Version:  v1612+                                |
|   \\  /    A nd           | Web:      www.OpenFOAM.com                      |
|    \\/     M anipulation  |                                                 |
\*---------------------------------------------------------------------------*/
FoamFile
{
    version     2.0;
    format      ascii;
    class       volScalarField;
    location    "50";
    object      p;
}
// * * * * * * * * * * * * * * * * * * * * * * * * * * * * * * * * * * * * * //

dimensions      [0 2 -2 0 0 0 0];

internalField   nonuniform List<scalar> 
18977
(
0.222796
0.196277
0.191477
0.192235
0.195879
0.191499
0.190653
0.196791
0.196818
0.190182
0.192047
0.192938
0.19672
0.186101
0.191094
0.190019
0.192168
0.188099
0.190063
0.190966
0.190588
0.185177
0.187696
0.18774
0.185197
0.188223
0.184396
0.187105
0.182277
0.185201
0.187324
0.182942
0.191656
0.192507
0.18899
0.18965
0.191225
0.186174
0.186615
0.191483
0.191375
0.19113
0.193164
0.188862
0.187121
0.193206
0.192349
0.189795
0.191131
0.186989
0.185448
0.190835
0.187358
0.186995
0.188771
0.195151
0.1877
0.189604
0.184674
0.188457
0.184886
0.187921
0.182769
0.182608
0.185782
0.185331
0.181773
0.18521
0.160861
0.16074
0.157307
0.157616
0.146231
0.15134
0.158053
0.153267
0.154887
0.152458
0.149372
0.155463
0.156252
0.147663
0.153116
0.150021
0.158195
0.152333
0.151401
0.151928
0.148902
0.193996
0.189838
0.189283
0.189735
0.18912
0.191039
0.19016
0.194061
0.19004
0.188221
0.189473
0.192685
0.188834
0.198188
0.193345
0.183131
0.188914
0.192462
0.18743
0.188132
0.186831
0.200996
0.209092
0.198054
0.200025
0.198933
0.206204
0.204289
0.200976
0.20043
0.201146
0.208545
0.203486
0.205132
0.207188
0.203179
0.204398
0.20334
0.205228
0.141858
0.147699
0.152427
0.151802
0.144258
0.150386
0.157832
0.156363
0.156767
0.152792
0.143605
0.143874
0.142212
0.138438
0.141314
0.148564
0.157751
0.168897
0.151598
0.190005
0.191099
0.183362
0.183801
0.186663
0.185966
0.194324
0.194177
0.177611
0.182838
0.181391
0.183446
0.18486
0.18461
0.18228
0.189568
0.194649
0.155595
0.151419
0.149512
0.147309
0.144707
0.153912
0.155027
0.152167
0.149489
0.148163
0.149112
0.151314
0.160514
0.164456
0.165227
0.163695
0.16156
0.166909
0.17035
0.167698
0.16773
0.167574
0.16709
0.168399
0.164998
0.171528
0.166702
0.181647
0.182162
0.184993
0.185765
0.184391
0.187029
0.184593
0.185322
0.182321
0.184014
0.185223
0.186649
0.179589
0.184874
0.181604
0.179166
0.153071
0.157789
0.152869
0.150661
0.153798
0.156114
0.155249
0.158566
0.157619
0.15259
0.149101
0.193495
0.189311
0.198128
0.191089
0.193553
0.192399
0.198341
0.190214
0.192352
0.196898
0.188535
0.196627
0.19519
0.200271
0.199118
0.196596
0.194714
0.162862
0.165859
0.172985
0.168472
0.166619
0.168461
0.16468
0.165132
0.167433
0.168039
0.162683
0.166812
0.163888
0.16198
0.1651
0.165065
0.16864
0.168488
0.16806
0.166141
0.169933
0.168771
0.17364
0.175069
0.171638
0.169204
0.177329
0.173594
0.170793
0.16939
0.173145
0.173472
0.174488
0.177688
0.177624
0.171166
0.172805
0.175352
0.152436
0.15099
0.153241
0.146409
0.151047
0.158312
0.152281
0.155331
0.152723
0.149589
0.152214
0.154307
0.156031
0.155897
0.156068
0.152843
0.157084
0.148534
0.15493
0.154359
0.153185
0.161267
0.169895
0.171594
0.168812
0.171441
0.171464
0.175177
0.171032
0.167449
0.168693
0.1738
0.166045
0.167224
0.16879
0.172588
0.170163
0.168008
0.1781
0.171312
0.185212
0.17342
0.178718
0.178036
0.18201
0.182069
0.178166
0.175789
0.184995
0.179021
0.175994
0.1753
0.176518
0.176922
0.175842
0.180005
0.176396
0.171368
0.178255
0.175862
0.17574
0.174149
0.178781
0.170936
0.168664
0.170611
0.175644
0.177234
0.175031
0.169242
0.173596
0.17693
0.16509
0.170339
0.171292
0.196309
0.194092
0.194703
0.19149
0.187977
0.194637
0.192833
0.195545
0.189539
0.190518
0.1931
0.194374
0.191601
0.193887
0.192105
0.191348
0.166528
0.166004
0.16221
0.160397
0.158971
0.163515
0.161277
0.160764
0.164265
0.162707
0.163563
0.159032
0.157964
0.154792
0.160162
0.164107
0.161397
0.159969
0.15874
0.157414
0.160313
0.164648
0.16442
0.156884
0.16762
0.160501
0.165063
0.164555
0.1601
0.165234
0.166986
0.17077
0.166093
0.162349
0.163127
0.160788
0.168726
0.190238
0.187648
0.192617
0.190437
0.194843
0.195049
0.185794
0.193057
0.192613
0.193435
0.191457
0.177797
0.188542
0.194282
0.193842
0.192209
0.195427
0.191552
0.192816
0.193295
0.190798
0.191803
0.192009
0.191142
0.20253
0.203308
0.207468
0.208305
0.202299
0.199896
0.205867
0.209595
0.205287
0.206837
0.209338
0.206403
0.207952
0.205109
0.20827
0.203106
0.207713
0.203756
0.201901
0.2121
0.211884
0.206672
0.206941
0.21077
0.20213
0.203995
0.204689
0.205826
0.209469
0.208625
0.205247
0.206928
0.209246
0.205481
0.208213
0.204851
0.207718
0.206192
0.206302
0.207099
0.202044
0.210454
0.187626
0.191704
0.187929
0.183418
0.19358
0.194527
0.186808
0.186976
0.188023
0.189361
0.190734
0.191533
0.186882
0.203088
0.199714
0.195553
0.203322
0.193945
0.204093
0.213298
0.200948
0.198251
0.202994
0.198433
0.198831
0.203384
0.195412
0.191144
0.195698
0.190637
0.189617
0.18996
0.189803
0.190138
0.194029
0.195886
0.190682
0.192413
0.191936
0.196121
0.188013
0.189376
0.189653
0.188706
0.192229
0.187759
0.190077
0.193904
0.194658
0.203158
0.190926
0.192068
0.195819
0.1985
0.196477
0.199375
0.192489
0.192367
0.195378
0.189842
0.189924
0.194099
0.19952
0.198938
0.194079
0.199361
0.195332
0.198993
0.198717
0.188948
0.189038
0.185778
0.190672
0.194924
0.199034
0.192086
0.199813
0.197424
0.198099
0.199771
0.19459
0.196639
0.189756
0.199499
0.193366
0.204061
0.203461
0.149589
0.153756
0.143097
0.149386
0.153782
0.154099
0.155756
0.147261
0.155211
0.154131
0.152333
0.157348
0.152478
0.151216
0.153705
0.143906
0.149725
0.207471
0.208455
0.196842
0.201995
0.208107
0.206421
0.207017
0.20514
0.208737
0.207799
0.16193
0.16716
0.166025
0.166433
0.170224
0.168216
0.166568
0.169123
0.171517
0.175792
0.167201
0.17162
0.175574
0.178796
0.171638
0.201886
0.198768
0.209924
0.202085
0.202395
0.206063
0.206837
0.208476
0.20527
0.16778
0.173332
0.163058
0.166063
0.174177
0.17095
0.168205
0.165531
0.166974
0.170373
0.166862
0.168565
0.200704
0.209938
0.215313
0.212816
0.208599
0.207919
0.209393
0.147881
0.142192
0.150913
0.149867
0.146571
0.149838
0.1549
0.148102
0.150379
0.148552
0.142235
0.155124
0.153946
0.149447
0.149239
0.145832
0.14032
0.172643
0.179072
0.181059
0.178081
0.179789
0.176701
0.175604
0.177688
0.176064
0.177143
0.174322
0.17463
0.175332
0.177769
0.177979
0.176791
0.176818
0.202267
0.203778
0.204624
0.203184
0.205321
0.208504
0.208762
0.199561
0.20295
0.205688
0.207955
0.206938
0.199971
0.153726
0.156398
0.162935
0.155571
0.157783
0.150642
0.152608
0.157972
0.152765
0.157416
0.15715
0.159747
0.154571
0.148074
0.159846
0.156401
0.149831
0.15486
0.154243
0.15803
0.164733
0.157883
0.163243
0.162286
0.16284
0.162327
0.159679
0.162747
0.161437
0.161193
0.162663
0.1635
0.162491
0.160375
0.165587
0.165413
0.148528
0.147247
0.14019
0.148373
0.144633
0.147478
0.147204
0.151075
0.146894
0.142776
0.127
0.157747
0.182871
0.185357
0.179233
0.18511
0.180638
0.183809
0.189375
0.186972
0.179863
0.174782
0.174363
0.184509
0.1839
0.188962
0.185348
0.170052
0.178148
0.18333
0.182223
0.157373
0.160957
0.165063
0.166332
0.162416
0.159422
0.161475
0.159633
0.15997
0.16191
0.162873
0.163188
0.163172
0.16585
0.162517
0.161744
0.159679
0.160313
0.146107
0.149016
0.14279
0.146567
0.147279
0.146129
0.148245
0.146072
0.141218
0.147477
0.147466
0.154493
0.155228
0.152719
0.157114
0.150862
0.148439
0.156359
0.152459
0.162984
0.152136
0.153447
0.154659
0.178516
0.176013
0.183505
0.177554
0.175785
0.17464
0.180435
0.179161
0.178862
0.180303
0.181332
0.18282
0.177749
0.179936
0.182377
0.181455
0.178237
0.180284
0.174752
0.179959
0.15832
0.1597
0.160955
0.158785
0.160687
0.15667
0.16082
0.15942
0.156171
0.154408
0.159251
0.154064
0.162194
0.158445
0.157163
0.155406
0.15593
0.178339
0.177651
0.174888
0.17584
0.179562
0.175941
0.180657
0.186717
0.175379
0.176894
0.17733
0.176593
0.185545
0.184907
0.180464
0.174958
0.182664
0.171445
0.18184
0.176805
0.176235
0.177762
0.146766
0.144803
0.147423
0.149363
0.148533
0.148799
0.151113
0.150678
0.151362
0.149123
0.177088
0.175801
0.180051
0.17837
0.182564
0.180682
0.173532
0.177886
0.177114
0.178255
0.175486
0.177375
0.176349
0.184999
0.181575
0.17865
0.174724
0.176269
0.176748
0.174836
0.173161
0.171892
0.176742
0.176529
0.175561
0.177759
0.174483
0.175263
0.175178
0.177157
0.177876
0.174711
0.176752
0.180003
0.176218
0.178877
0.176389
0.175677
0.17607
0.175178
0.174303
0.177507
0.169553
0.170923
0.176198
0.173295
0.179702
0.171439
0.17045
0.169552
0.172729
0.203781
0.200428
0.20081
0.202652
0.20252
0.199623
0.199335
0.207878
0.199499
0.196618
0.199193
0.201749
0.203327
0.200853
0.201157
0.200233
0.200973
0.204773
0.20103
0.200941
0.202787
0.206573
0.206954
0.206914
0.203102
0.200072
0.20265
0.20422
0.205417
0.202353
0.200443
0.205585
0.201791
0.200294
0.199382
0.200407
0.202002
0.196255
0.19693
0.200755
0.201073
0.204102
0.202437
0.20166
0.206631
0.199688
0.205055
0.200079
0.195444
0.199011
0.20128
0.1971
0.201752
0.200365
0.204509
0.205354
0.200882
0.194469
0.196578
0.196608
0.203569
0.196815
0.198518
0.203998
0.197741
0.175734
0.175334
0.17997
0.175152
0.174462
0.180245
0.17072
0.174658
0.17662
0.171886
0.172184
0.177216
0.178622
0.175237
0.177915
0.179458
0.18065
0.177146
0.173327
0.186376
0.181783
0.175097
0.179683
0.180981
0.1815
0.180521
0.185277
0.185534
0.185267
0.178396
0.183444
0.182212
0.182517
0.181125
0.180788
0.190259
0.18541
0.190895
0.185763
0.187126
0.186938
0.19208
0.183456
0.185977
0.185085
0.187774
0.184705
0.189462
0.187201
0.184569
0.185715
0.1861
0.153586
0.150696
0.150529
0.150766
0.159071
0.152669
0.154728
0.152492
0.153818
0.206137
0.210467
0.20452
0.205196
0.208904
0.199441
0.208236
0.204815
0.210624
0.207615
0.207432
0.196677
0.204593
0.207776
0.203936
0.203517
0.202784
0.19745
0.201283
0.194271
0.215826
0.218637
0.218991
0.218005
0.142942
0.149234
0.150192
0.14657
0.14674
0.146046
0.150002
0.148541
0.14987
0.152861
0.141441
0.150797
0.145685
0.145776
0.149154
0.148627
0.14779
0.149494
0.150864
0.145502
0.145698
0.147462
0.151885
0.1463
0.145074
0.152503
0.142334
0.147984
0.14719
0.142936
0.145871
0.146338
0.150801
0.150156
0.152392
0.155049
0.159987
0.155655
0.158883
0.164487
0.157293
0.15744
0.159436
0.161476
0.16268
0.161095
0.165105
0.158011
0.159781
0.188475
0.189271
0.193445
0.19461
0.18901
0.1896
0.191985
0.193474
0.19268
0.192826
0.197873
0.19371
0.197429
0.194382
0.194656
0.192971
0.200995
0.189595
0.195938
0.197385
0.181776
0.179808
0.182446
0.178154
0.181487
0.184366
0.178065
0.180095
0.175308
0.183491
0.179205
0.181607
0.177189
0.179739
0.180336
0.183411
0.17843
0.173162
0.170012
0.174955
0.174832
0.168679
0.173461
0.168895
0.178548
0.17179
0.170815
0.176372
0.171544
0.17113
0.172239
0.176737
0.172618
0.21459
0.214469
0.204139
0.204393
0.212745
0.212086
0.209294
0.2167
0.205373
0.20376
0.199454
0.199321
0.209651
0.20302
0.199066
0.20546
0.214039
0.212956
0.210588
0.208218
0.209938
0.215833
0.199349
0.205088
0.203472
0.210464
0.208607
0.204927
0.197274
0.19859
0.194929
0.192435
0.205476
0.204163
0.204991
0.2072
0.205881
0.201316
0.200885
0.197381
0.203326
0.201099
0.193674
0.193966
0.193541
0.198289
0.19182
0.192966
0.201589
0.19829
0.200655
0.195258
0.196077
0.194273
0.193274
0.19231
0.190891
0.190627
0.196629
0.192792
0.191737
0.192044
0.1965
0.195228
0.193069
0.191217
0.193739
0.186874
0.186815
0.191938
0.191352
0.188121
0.187072
0.190133
0.185736
0.184823
0.187939
0.185421
0.183783
0.186467
0.185279
0.182641
0.192069
0.187538
0.18317
0.183924
0.180765
0.178001
0.181508
0.185953
0.183173
0.180965
0.181428
0.179764
0.178793
0.181016
0.181601
0.178686
0.181894
0.180341
0.17713
0.185238
0.176362
0.179047
0.17842
0.173628
0.179006
0.173297
0.175484
0.174507
0.170397
0.17358
0.168106
0.167834
0.172859
0.175824
0.16612
0.17615
0.17294
0.169673
0.164495
0.171728
0.171355
0.166919
0.171851
0.174147
0.17036
0.168861
0.161138
0.167946
0.165726
0.166381
0.165608
0.166838
0.163424
0.167862
0.168074
0.158345
0.162918
0.164733
0.163551
0.162162
0.163033
0.167529
0.163721
0.159633
0.163242
0.157356
0.164845
0.160067
0.160106
0.164451
0.159688
0.156496
0.155028
0.158724
0.157028
0.155311
0.157582
0.162144
0.158656
0.156032
0.160973
0.15909
0.15684
0.154201
0.157144
0.159429
0.155581
0.159221
0.155004
0.153238
0.149423
0.149377
0.154062
0.153841
0.149085
0.154221
0.156003
0.147912
0.148046
0.154538
0.154044
0.15159
0.148538
0.147545
0.150944
0.146085
0.148962
0.146149
0.14915
0.146044
0.143426
0.147437
0.152161
0.148694
0.144306
0.152682
0.146563
0.144955
0.151613
0.152456
0.150871
0.146029
0.144794
0.149528
0.145447
0.143012
0.14413
0.151241
0.145847
0.155872
0.150806
0.151946
0.146942
0.146541
0.150585
0.149574
0.151717
0.148693
0.151141
0.146501
0.152351
0.148171
0.15045
0.150188
0.149435
0.155861
0.146339
0.147751
0.154289
0.146681
0.149256
0.148277
0.146104
0.1481
0.150361
0.145516
0.148649
0.150311
0.149185
0.149718
0.150111
0.152916
0.149122
0.150455
0.15309
0.149916
0.150347
0.153682
0.15131
0.148754
0.150396
0.152233
0.159036
0.149813
0.148049
0.152121
0.147561
0.149086
0.150836
0.150185
0.148561
0.147932
0.145632
0.147723
0.145037
0.153538
0.152744
0.156259
0.151036
0.150622
0.154396
0.151144
0.15696
0.150812
0.148851
0.154034
0.151315
0.154932
0.15012
0.147586
0.145645
0.149375
0.156385
0.149902
0.153653
0.152347
0.15421
0.1445
0.150299
0.14895
0.147975
0.150323
0.147723
0.159832
0.156904
0.16008
0.153093
0.145543
0.142688
0.148437
0.148505
0.15923
0.148628
0.149884
0.153764
0.15919
0.155342
0.153984
0.153737
0.155752
0.157562
0.15375
0.149375
0.162317
0.153363
0.160057
0.155848
0.156352
0.150844
0.159855
0.156619
0.148813
0.14734
0.146721
0.147594
0.156996
0.165318
0.160625
0.153527
0.148658
0.157354
0.154534
0.154834
0.155258
0.157617
0.154087
0.160677
0.161331
0.152961
0.157721
0.162803
0.155462
0.157411
0.153747
0.160242
0.158003
0.162507
0.159522
0.162348
0.155077
0.148785
0.150519
0.156341
0.15101
0.155217
0.15346
0.158448
0.163005
0.154802
0.153912
0.155364
0.161269
0.163302
0.159075
0.159606
0.157465
0.155847
0.159747
0.161674
0.156998
0.158002
0.151093
0.153761
0.164846
0.158268
0.157524
0.162114
0.164075
0.161831
0.165414
0.159667
0.162829
0.166291
0.161505
0.158909
0.162457
0.160974
0.163679
0.161912
0.160917
0.157732
0.159948
0.162985
0.164265
0.160989
0.159971
0.159196
0.160582
0.150233
0.151812
0.155752
0.158814
0.158901
0.154106
0.160163
0.156495
0.158069
0.156881
0.155769
0.167621
0.163208
0.164969
0.162058
0.156454
0.156751
0.155547
0.161435
0.157835
0.156241
0.161384
0.154522
0.15734
0.158197
0.15993
0.161109
0.166839
0.161621
0.168218
0.162034
0.163109
0.164456
0.157896
0.155353
0.153117
0.16079
0.157718
0.158191
0.154655
0.164374
0.161407
0.158851
0.167858
0.16495
0.167358
0.162343
0.169358
0.16888
0.166687
0.167229
0.157656
0.161676
0.165166
0.164444
0.168002
0.169124
0.171503
0.171454
0.164437
0.164925
0.162113
0.160717
0.159358
0.163549
0.16142
0.15487
0.158764
0.157147
0.153599
0.161286
0.171396
0.167097
0.158997
0.166344
0.168733
0.165899
0.167902
0.165971
0.163989
0.159329
0.171478
0.169404
0.166054
0.163027
0.16206
0.164456
0.176184
0.170844
0.172392
0.168029
0.163812
0.159957
0.168872
0.16542
0.169699
0.165336
0.167481
0.169922
0.166908
0.170941
0.170788
0.17312
0.169141
0.165144
0.165007
0.162991
0.166355
0.162883
0.15756
0.160431
0.160762
0.162891
0.161516
0.169077
0.168306
0.171529
0.167317
0.165731
0.174559
0.163387
0.166711
0.160901
0.164017
0.170767
0.163499
0.164333
0.165287
0.172611
0.17336
0.167083
0.16746
0.171707
0.166971
0.164945
0.171854
0.165813
0.168366
0.169087
0.164542
0.16258
0.162617
0.174776
0.171473
0.170059
0.165006
0.170897
0.171555
0.173528
0.158488
0.162354
0.165663
0.164947
0.163054
0.164296
0.166065
0.157096
0.159855
0.16512
0.163705
0.173235
0.170349
0.16925
0.171513
0.167241
0.16553
0.173221
0.172368
0.164127
0.165028
0.164117
0.165806
0.166513
0.167227
0.160358
0.163232
0.165265
0.175296
0.172284
0.17515
0.169795
0.163481
0.163082
0.176308
0.172101
0.167437
0.16959
0.168406
0.181494
0.174105
0.174685
0.174814
0.176819
0.170996
0.171219
0.172866
0.1752
0.173875
0.163739
0.167044
0.175342
0.176187
0.173245
0.172191
0.171166
0.172099
0.173162
0.171809
0.171037
0.174885
0.179176
0.174036
0.174225
0.174796
0.169073
0.164659
0.163862
0.167092
0.169735
0.165875
0.173487
0.170123
0.175805
0.168225
0.175655
0.176494
0.184326
0.179037
0.174878
0.171852
0.171141
0.1776
0.173337
0.173682
0.175292
0.171939
0.178981
0.174051
0.173466
0.16998
0.16851
0.169556
0.168373
0.177405
0.172331
0.17425
0.170771
0.166073
0.171876
0.170606
0.171102
0.169532
0.16014
0.163697
0.167669
0.166837
0.168421
0.165457
0.176658
0.1708
0.175542
0.179997
0.176289
0.17371
0.172051
0.174454
0.174603
0.175877
0.176381
0.169069
0.17708
0.176194
0.180887
0.183419
0.178397
0.174684
0.174856
0.177045
0.174628
0.179597
0.180565
0.179846
0.181176
0.173926
0.174389
0.168344
0.169197
0.171091
0.178131
0.172286
0.174819
0.170078
0.166725
0.172069
0.165887
0.173419
0.168611
0.182133
0.182062
0.18227
0.184138
0.178791
0.18103
0.181732
0.181272
0.174997
0.182793
0.185128
0.181398
0.184148
0.180791
0.178216
0.183698
0.179435
0.177235
0.185516
0.1809
0.174945
0.17784
0.18146
0.177838
0.174002
0.181927
0.184154
0.180919
0.176274
0.174254
0.181659
0.179729
0.184617
0.180801
0.182149
0.180792
0.182865
0.182922
0.180256
0.179883
0.183685
0.169712
0.185242
0.180985
0.182219
0.188841
0.181379
0.180707
0.169951
0.1797
0.174157
0.172554
0.171552
0.175415
0.175656
0.178007
0.178067
0.174323
0.174385
0.182068
0.180795
0.181768
0.179778
0.177858
0.186413
0.181884
0.177227
0.175502
0.182903
0.182585
0.181524
0.183018
0.180084
0.180857
0.178713
0.182045
0.182109
0.181628
0.193208
0.191406
0.185503
0.186753
0.18152
0.182772
0.183687
0.18928
0.186517
0.192269
0.188535
0.182782
0.185085
0.188883
0.187739
0.184836
0.185608
0.183444
0.186519
0.18498
0.189181
0.187751
0.1708
0.183356
0.179887
0.184228
0.182951
0.18327
0.180235
0.186183
0.180458
0.181531
0.188283
0.188596
0.184484
0.18119
0.181027
0.181201
0.175723
0.186104
0.18686
0.183828
0.1764
0.179974
0.176714
0.180964
0.176867
0.174354
0.173416
0.176671
0.178279
0.17721
0.185026
0.181345
0.182779
0.180485
0.181942
0.193845
0.188566
0.194457
0.190976
0.189099
0.188241
0.185003
0.190733
0.190048
0.19035
0.185583
0.191534
0.186609
0.188571
0.184554
0.186149
0.19023
0.188274
0.186533
0.183809
0.181315
0.178188
0.18575
0.187272
0.176649
0.180839
0.190765
0.1895
0.18179
0.192486
0.190329
0.189079
0.182588
0.195159
0.190883
0.185795
0.185512
0.182983
0.182809
0.185259
0.183163
0.18176
0.176631
0.179338
0.185897
0.182009
0.184798
0.18103
0.183081
0.182288
0.18137
0.188357
0.18978
0.182177
0.182297
0.189671
0.184004
0.181757
0.185825
0.184426
0.194606
0.18642
0.181177
0.19498
0.186769
0.185415
0.184769
0.183798
0.183901
0.185507
0.188851
0.181347
0.1773
0.191268
0.184592
0.195472
0.186617
0.196433
0.191056
0.192218
0.182928
0.188012
0.185407
0.183231
0.181635
0.183088
0.187074
0.178992
0.181276
0.181783
0.188359
0.186353
0.188779
0.190173
0.187693
0.191125
0.192889
0.190382
0.188334
0.191182
0.196674
0.18993
0.18973
0.193632
0.191022
0.186931
0.188045
0.189227
0.181072
0.183184
0.184796
0.187935
0.183891
0.184946
0.194196
0.190984
0.189242
0.188212
0.189478
0.197301
0.19169
0.196505
0.192171
0.194603
0.186689
0.186974
0.183307
0.192984
0.191167
0.188541
0.190458
0.184948
0.183005
0.190132
0.189597
0.189674
0.193883
0.199093
0.197059
0.189782
0.190382
0.195897
0.195049
0.194386
0.199684
0.200641
0.194815
0.195962
0.19762
0.198017
0.190834
0.194429
0.19408
0.195769
0.194929
0.186809
0.188652
0.204333
0.200271
0.199998
0.195645
0.200743
0.194466
0.195934
0.193996
0.196098
0.196415
0.19794
0.187977
0.198138
0.193187
0.199102
0.195152
0.194181
0.190637
0.189153
0.190308
0.190317
0.190987
0.183928
0.185219
0.187995
0.184091
0.189759
0.189384
0.196694
0.188917
0.192899
0.190684
0.190561
0.189078
0.189507
0.187778
0.188414
0.195337
0.19613
0.192332
0.197387
0.19269
0.193101
0.196739
0.192923
0.1878
0.196598
0.187481
0.188521
0.202443
0.196
0.196636
0.200106
0.206338
0.192607
0.195607
0.195579
0.198479
0.200113
0.199624
0.201281
0.194537
0.195906
0.194331
0.191247
0.19444
0.194991
0.195049
0.196254
0.192624
0.192579
0.191831
0.192689
0.194987
0.19541
0.192482
0.203671
0.20075
0.200157
0.205724
0.201207
0.199354
0.20087
0.197626
0.19773
0.201725
0.202732
0.208598
0.203314
0.20186
0.19838
0.191596
0.190382
0.195075
0.192797
0.193656
0.195852
0.200916
0.19867
0.200075
0.201025
0.203635
0.19547
0.198368
0.193333
0.196043
0.193159
0.196319
0.200213
0.193624
0.190886
0.198056
0.192138
0.189015
0.1915
0.199311
0.197322
0.195979
0.196718
0.206276
0.204185
0.201603
0.204968
0.19979
0.19864
0.195368
0.203565
0.201806
0.195449
0.197678
0.199572
0.202815
0.206776
0.203588
0.201362
0.20397
0.207673
0.202502
0.203211
0.197709
0.19928
0.196943
0.194065
0.200682
0.196756
0.200186
0.20492
0.204257
0.211137
0.20679
0.209855
0.204124
0.205503
0.20711
0.20591
0.203453
0.204176
0.207261
0.205521
0.206073
0.206022
0.205506
0.20473
0.206273
0.212132
0.207273
0.207482
0.200624
0.20747
0.19751
0.197381
0.203093
0.202406
0.209514
0.209837
0.202229
0.200271
0.194631
0.196447
0.195056
0.199143
0.198043
0.20076
0.195977
0.197634
0.188751
0.196293
0.194438
0.193874
0.194462
0.205741
0.198693
0.199364
0.198021
0.195614
0.19201
0.199828
0.196661
0.196126
0.194136
0.203102
0.19814
0.200999
0.200313
0.196787
0.215573
0.213038
0.208944
0.215135
0.220033
0.209819
0.206834
0.215084
0.21296
0.210112
0.206472
0.201813
0.204628
0.213386
0.210789
0.208086
0.206483
0.211031
0.208598
0.206981
0.205942
0.210182
0.206474
0.201978
0.203685
0.204257
0.209511
0.203031
0.202932
0.200242
0.209119
0.204086
0.206969
0.208133
0.200969
0.20704
0.201306
0.203229
0.200909
0.203
0.195654
0.200955
0.202043
0.202291
0.192912
0.195119
0.201348
0.19789
0.20166
0.21328
0.214114
0.215202
0.21461
0.218918
0.213783
0.212255
0.213309
0.21623
0.213033
0.206746
0.209429
0.199357
0.207786
0.199028
0.201328
0.208728
0.207459
0.202918
0.205946
0.209859
0.21631
0.215025
0.214868
0.217654
0.221959
0.213546
0.215311
0.216391
0.21771
0.217844
0.21564
0.214628
0.214423
0.210094
0.20841
0.212141
0.213266
0.207567
0.201783
0.204011
0.209201
0.207833
0.204182
0.201661
0.209825
0.204889
0.20913
0.20369
0.204993
0.198908
0.200316
0.206394
0.20513
0.202886
0.202762
0.208198
0.203751
0.203155
0.202059
0.204738
0.202557
0.19974
0.204805
0.203067
0.19867
0.197759
0.197222
0.202775
0.201235
0.202001
0.201716
0.212323
0.218248
0.21341
0.212246
0.212402
0.207347
0.210979
0.211187
0.213338
0.212361
0.211894
0.212764
0.208884
0.217823
0.216943
0.214802
0.206559
0.207748
0.207819
0.209929
0.212474
0.207623
0.211582
0.21131
0.202896
0.211359
0.208975
0.203627
0.208034
0.204161
0.207655
0.20666
0.199515
0.200132
0.206624
0.204433
0.200051
0.200302
0.206468
0.206095
0.20642
0.202176
0.204359
0.204508
0.21832
0.21996
0.216093
0.223421
0.219103
0.217072
0.213827
0.206138
0.207165
0.215795
0.21435
0.213012
0.21743
0.214434
0.21331
0.214304
0.211284
0.212341
0.208809
0.214067
0.209953
0.210624
0.214106
0.210743
0.213598
0.199069
0.205333
0.205788
0.209432
0.207361
0.207299
0.205321
0.208911
0.208445
0.212162
0.217061
0.20641
0.213966
0.205583
0.208101
0.214963
0.212538
0.217946
0.217552
0.213202
0.212125
0.213428
0.209183
0.209149
0.213327
0.202469
0.208896
0.207242
0.211789
0.209969
0.212035
0.218309
0.218283
0.22224
0.22243
0.2219
0.216921
0.21514
0.209227
0.213838
0.215449
0.215776
0.215347
0.220101
0.218476
0.217572
0.219416
0.216134
0.204224
0.201877
0.205397
0.206225
0.20706
0.20898
0.203967
0.210508
0.205641
0.205227
0.207859
0.205027
0.201352
0.209335
0.208503
0.201267
0.206412
0.208002
0.204751
0.208884
0.20851
0.205585
0.206432
0.20287
0.21169
0.204998
0.203799
0.203166
0.20606
0.209196
0.210689
0.195935
0.191943
0.190212
0.198024
0.196748
0.201472
0.200635
0.202902
0.197557
0.206889
0.204709
0.198209
0.203664
0.201477
0.203589
0.20035
0.199856
0.216256
0.219035
0.211039
0.21316
0.220307
0.218086
0.216055
0.212107
0.216884
0.218006
0.215989
0.213693
0.20861
0.208036
0.212698
0.211315
0.211326
0.21334
0.203516
0.206463
0.201762
0.197003
0.197582
0.198711
0.202822
0.195687
0.196343
0.197864
0.19908
0.196228
0.20163
0.200468
0.202106
0.201701
0.196889
0.19892
0.206699
0.1997
0.203286
0.207105
0.204275
0.204152
0.206173
0.203265
0.211121
0.219802
0.213679
0.2134
0.217065
0.218075
0.219129
0.215182
0.216584
0.218786
0.197067
0.196212
0.19574
0.19599
0.201904
0.198597
0.195739
0.19698
0.19654
0.197879
0.195173
0.198189
0.192393
0.193672
0.19248
0.197088
0.20282
0.201915
0.202801
0.206794
0.197045
0.197382
0.199272
0.197857
0.207509
0.203382
0.205542
0.203157
0.20523
0.204477
0.209838
0.210097
0.209469
0.206689
0.203079
0.212768
0.210131
0.211089
0.210205
0.206787
0.208499
0.206932
0.207368
0.199297
0.196158
0.200812
0.20083
0.199197
0.205055
0.201441
0.195284
0.213104
0.207634
0.208386
0.20966
0.203658
0.210408
0.206898
0.209066
0.206271
0.20665
0.206211
0.206343
0.207074
0.208161
0.19069
0.194284
0.195125
0.199537
0.196558
0.197976
0.196098
0.196515
0.198852
0.195025
0.19469
0.200148
0.196477
0.191897
0.196352
0.193376
0.19392
0.192589
0.19782
0.192895
0.201356
0.199569
0.189632
0.191569
0.191508
0.190037
0.188568
0.197041
0.197333
0.203138
0.2
0.198395
0.19962
0.195333
0.196333
0.20205
0.202657
0.207844
0.202691
0.20127
0.200591
0.206741
0.205835
0.202352
0.207373
0.203102
0.202827
0.204852
0.203391
0.193406
0.189849
0.183194
0.184339
0.191627
0.191118
0.188072
0.192551
0.190584
0.191515
0.19184
0.191335
0.197716
0.196823
0.193593
0.192065
0.189664
0.195856
0.195147
0.202585
0.196408
0.183512
0.188368
0.186887
0.186081
0.192956
0.188617
0.186797
0.188089
0.189587
0.184714
0.192556
0.189089
0.183855
0.184023
0.190071
0.191421
0.191235
0.190965
0.189715
0.188974
0.192812
0.190131
0.195837
0.190691
0.202585
0.195704
0.194364
0.200399
0.205725
0.200962
0.196757
0.197358
0.187063
0.189358
0.189569
0.195742
0.197566
0.191947
0.188464
0.19419
0.191105
0.196571
0.194342
0.195185
0.187123
0.189949
0.186492
0.187322
0.1949
0.192864
0.188085
0.187882
0.185825
0.186907
0.183687
0.183422
0.190078
0.187297
0.183346
0.185733
0.188073
0.189919
0.194597
0.187146
0.186879
0.187189
0.190927
0.189585
0.190628
0.191481
0.184331
0.193661
0.193705
0.188772
0.190103
0.191306
0.187435
0.186356
0.190404
0.193875
0.192909
0.187595
0.189272
0.177578
0.185629
0.184275
0.182569
0.186883
0.181504
0.180313
0.181898
0.18552
0.186776
0.179288
0.184145
0.180999
0.182498
0.18123
0.185908
0.188082
0.179767
0.181034
0.17808
0.181285
0.178425
0.185803
0.191411
0.189963
0.182805
0.184552
0.182757
0.176884
0.184464
0.184933
0.178416
0.179696
0.187194
0.17779
0.178001
0.174739
0.180556
0.178249
0.176912
0.17478
0.177337
0.178356
0.174539
0.169771
0.164626
0.170092
0.174233
0.192431
0.192469
0.187436
0.190965
0.191218
0.184962
0.188151
0.186144
0.174227
0.181801
0.1774
0.175276
0.174658
0.177416
0.172564
0.175854
0.177968
0.176459
0.175241
0.175663
0.173435
0.180842
0.177098
0.187434
0.187475
0.185623
0.193487
0.191155
0.191377
0.19114
0.187207
0.193787
0.190328
0.187238
0.187861
0.1909
0.188674
0.191864
0.187984
0.188108
0.186697
0.187762
0.172711
0.183027
0.180505
0.177785
0.18179
0.180601
0.187455
0.190601
0.187033
0.181381
0.180619
0.180129
0.181312
0.178168
0.172671
0.177213
0.175356
0.181728
0.176789
0.17591
0.182065
0.179587
0.180288
0.179536
0.180561
0.178108
0.174718
0.178396
0.175856
0.17619
0.179677
0.178091
0.17324
0.170136
0.163055
0.177019
0.172681
0.172036
0.170745
0.173455
0.171758
0.168263
0.170601
0.171925
0.170015
0.169061
0.169444
0.17497
0.175213
0.174398
0.169495
0.167498
0.163879
0.167347
0.167608
0.165468
0.171914
0.170619
0.170805
0.170946
0.172927
0.169274
0.171604
0.171113
0.177973
0.181402
0.178882
0.177756
0.176345
0.175196
0.17652
0.173868
0.177516
0.175229
0.179293
0.177904
0.182858
0.187011
0.174614
0.179511
0.175982
0.175105
0.177049
0.178342
0.17698
0.174697
0.176049
0.174989
0.177849
0.181959
0.179774
0.174963
0.179258
0.172449
0.17523
0.171959
0.171935
0.177073
0.177525
0.174557
0.156475
0.166344
0.164896
0.159523
0.164428
0.165229
0.163007
0.162366
0.1745
0.171568
0.176591
0.17555
0.165778
0.166948
0.16534
0.170717
0.169867
0.171691
0.179054
0.173363
0.168691
0.176685
0.173603
0.173711
0.176763
0.17676
0.173839
0.167836
0.162902
0.163288
0.167294
0.163391
0.169994
0.167253
0.164979
0.167631
0.166354
0.165463
0.17285
0.173279
0.169854
0.172444
0.170942
0.169848
0.16797
0.174514
0.172676
0.174766
0.172861
0.157152
0.160699
0.156231
0.152917
0.155747
0.155666
0.151429
0.152853
0.157487
0.156346
0.150511
0.15617
0.164964
0.163567
0.166865
0.164783
0.167532
0.175679
0.169514
0.173649
0.167517
0.155988
0.157971
0.156709
0.159059
0.15073
0.151409
0.15601
0.147491
0.152129
0.154884
0.155986
0.154009
0.16166
0.159737
0.164355
0.161447
0.163255
0.16309
0.160877
0.162606
0.163047
0.155701
0.155168
0.160623
0.158311
0.157454
0.158315
0.159087
0.156116
0.161921
0.160378
0.156358
0.156533
0.155109
0.158279
0.152909
0.168677
0.164503
0.161288
0.164814
0.156895
0.158495
0.167894
0.164523
0.161216
0.160232
0.160427
0.151792
0.143703
0.141017
0.143035
0.144585
0.151448
0.152165
0.148466
0.151428
0.149925
0.161792
0.158609
0.156454
0.16657
0.160979
0.155528
0.157911
0.153557
0.160804
0.158982
0.156287
0.163541
0.162359
0.166742
0.151388
0.153334
0.151727
0.15618
0.153625
0.153851
0.155702
0.152428
0.153966
0.152097
0.147707
0.148809
0.155842
0.157523
0.150173
0.152599
0.160331
0.161801
0.156176
0.156336
0.15728
0.158084
0.15609
0.167564
0.162994
0.166409
0.160008
0.155965
0.156151
0.151933
0.155467
0.152965
0.149214
0.156293
0.155063
0.158496
0.150712
0.152512
0.154309
0.151206
0.158182
0.15979
0.140279
0.144678
0.147756
0.143544
0.142488
0.148029
0.142148
0.143212