/*--------------------------------*- C++ -*----------------------------------*\
| =========                 |                                                 |
| \\      /  F ield         | OpenFOAM: The Open Source CFD Toolbox           |
|  \\    /   O peration     | Version:  v1612+                                |
|   \\  /    A nd           | Web:      www.OpenFOAM.com                      |
|    \\/     M anipulation  |                                                 |
\*---------------------------------------------------------------------------*/
FoamFile
{
    version     2.0;
    format      ascii;
    class       surfaceScalarField;
    location    "206";
    object      phi;
}
// * * * * * * * * * * * * * * * * * * * * * * * * * * * * * * * * * * * * * //

dimensions      [0 3 -1 0 0 0 0];

internalField   nonuniform List<scalar> 
41768
(
1.6215e-08
-1.74326e-09
6.70763e-10
-1.51425e-08
-4.55002e-09
3.75987e-09
5.49069e-10
2.4107e-10
4.60023e-09
-3.95878e-09
-9.60966e-09
8.9682e-09
2.36093e-11
-1.88499e-09
6.46161e-09
-3.42087e-09
8.46369e-09
-9.95042e-09
4.90759e-09
5.88346e-10
-8.32258e-09
4.31337e-09
8.72161e-10
4.25951e-09
-9.09044e-09
5.52129e-09
5.39806e-09
-1.00472e-08
7.88657e-09
-2.34168e-09
1.12905e-09
9.97135e-09
-2.63672e-09
2.51302e-09
-2.45318e-09
-1.00103e-08
-1.36065e-08
-1.57149e-08
9.75105e-09
1.95703e-08
-7.5856e-09
-3.50788e-09
9.88124e-09
-1.07661e-08
-1.34084e-09
2.22568e-09
2.40445e-09
-7.27986e-09
4.75848e-09
1.16923e-10
2.9196e-09
9.36608e-09
-3.14596e-09
-4.30523e-09
1.71343e-10
-1.05131e-08
-3.39891e-09
-2.57897e-09
9.75839e-09
-2.9199e-09
-7.69404e-09
-1.13369e-09
4.71504e-09
-2.0048e-08
2.99226e-09
-1.78752e-08
1.37997e-08
5.54817e-09
-9.54355e-09
8.49764e-09
-4.50225e-09
-7.14704e-09
8.95038e-09
3.74485e-09
5.00398e-09
-2.94827e-09
-1.15993e-08
3.90853e-11
-2.18214e-09
-8.56251e-09
-3.16325e-09
3.14568e-09
8.58009e-09
-1.41847e-10
7.69643e-11
-4.89339e-09
3.56737e-09
-2.91087e-09
4.23689e-09
-5.0299e-09
-5.33873e-12
4.04898e-09
1.73814e-09
3.64916e-09
-8.49605e-09
1.89863e-09
-6.0824e-10
7.32129e-09
2.59063e-09
-3.97136e-09
-2.87915e-10
-3.23285e-11
-1.15231e-09
-2.75874e-09
3.95013e-09
-2.58e-09
4.44544e-09
-2.47369e-09
-2.40707e-09
-1.12271e-11
-1.61716e-10
-2.67177e-09
-2.32106e-11
-1.29774e-08
5.15979e-09
-4.75206e-09
1.25697e-08
5.0454e-09
-1.67718e-08
-1.25102e-09
1.43359e-08
-1.42866e-08
4.9961e-09
-9.33128e-10
2.04288e-08
4.37054e-10
-2.38232e-08
2.34847e-08
-9.85782e-11
-2.13929e-08
2.15137e-08
3.16303e-10
-1.16096e-09
-3.15139e-09
-3.71473e-09
-1.44588e-08
-3.86222e-09
1.54918e-09
-1.79382e-08
7.1488e-10
2.93678e-09
4.20828e-09
-1.5476e-08
-6.67054e-09
-8.86368e-09
-1.38682e-09
-5.57342e-09
6.78093e-09
2.22772e-08
1.74288e-09
1.41974e-08
-1.68507e-08
2.26985e-08
-2.04713e-08
4.33547e-09
-3.905e-09
-7.84403e-10
2.90356e-09
-1.12151e-08
8.20595e-09
-1.37459e-08
-1.33143e-09
-1.44393e-08
1.41429e-08
-3.90904e-09
4.20544e-09
1.1665e-08
-1.60765e-08
-1.00279e-08
7.59356e-09
5.39148e-09
-1.32004e-09
1.48522e-08
6.88432e-09
-1.24833e-08
-3.15432e-10
8.924e-10
1.19063e-08
-4.38175e-09
-1.01828e-08
2.08123e-09
-1.11653e-08
6.78581e-09
4.70437e-10
-7.62644e-09
-1.96154e-08
-1.08557e-08
4.8807e-10
1.00522e-08
-1.74074e-09
-2.32916e-09
1.11585e-09
1.42244e-08
-8.41449e-09
-1.74144e-08
1.34233e-08
1.24056e-08
-1.37192e-08
9.22985e-10
-1.8201e-08
7.51132e-09
-6.72472e-09
-1.0889e-09
-1.33196e-08
-3.79246e-09
9.09988e-11
1.42247e-08
-8.45572e-09
-3.46781e-09
1.71155e-08
7.11526e-10
-1.24356e-08
1.83224e-08
-3.90438e-09
-1.09038e-08
-3.2997e-09
-9.06039e-09
-1.51441e-08
4.2179e-09
4.60013e-09
-5.7125e-10
-4.44627e-09
4.17377e-10
-2.18122e-09
3.78588e-09
2.99547e-09
6.88041e-09
4.27608e-10
-7.87927e-09
-5.98214e-09
3.41087e-09
9.45168e-09
2.96679e-09
-8.51993e-09
-4.28992e-10
2.72736e-09
-3.66682e-09
-3.5068e-09
5.72874e-10
-2.67384e-11
-5.21373e-09
2.2106e-09
-6.63667e-10
-9.69958e-10
8.1667e-09
2.79921e-09
-4.91272e-09
-5.06411e-09
7.17765e-09
-7.25317e-10
3.38069e-09
1.4386e-10
-2.47193e-09
4.30491e-09
-2.80294e-09
1.95092e-09
-2.71345e-09
3.72371e-11
5.18624e-11
-1.53996e-09
8.81927e-09
8.74334e-10
-8.15366e-09
-2.80382e-09
2.3127e-09
4.40396e-09
-3.91285e-09
-4.72267e-10
2.96346e-09
-5.29502e-09
3.223e-09
-6.85956e-09
3.1643e-09
8.34551e-09
-4.56075e-09
-1.47208e-09
-1.72539e-09
4.02786e-09
2.10148e-09
1.37055e-09
-1.32487e-10
5.09258e-09
1.99125e-09
-3.86083e-09
4.5192e-09
-9.66582e-10
-2.54231e-09
2.76452e-09
8.59704e-09
1.41699e-09
4.38619e-09
1.17756e-11
-4.34905e-09
7.10177e-09
-1.82706e-09
-2.90047e-09
4.73929e-09
3.3052e-09
5.65968e-11
3.61778e-09
-4.67751e-10
6.37891e-10
-6.30336e-11
-7.87062e-09
-2.64294e-09
7.36979e-09
3.14375e-09
8.97452e-10
-4.10536e-09
-4.66272e-09
1.02369e-08
-5.3913e-09
-3.9482e-09
1.43828e-09
9.93364e-10
7.8053e-09
3.86476e-09
-3.20825e-09
-4.76188e-09
1.24352e-09
-2.1708e-11
3.51727e-09
1.10885e-08
-1.31675e-08
-6.88591e-09
1.6654e-09
8.73777e-09
3.24767e-09
-1.1136e-08
1.00238e-09
1.77364e-09
6.58951e-09
3.51323e-09
-2.31371e-09
4.39887e-11
-8.18604e-10
6.96348e-09
-4.47949e-09
4.46826e-09
-3.84126e-09
-2.16884e-09
6.26486e-09
-2.54769e-10
1.56768e-09
-3.69377e-09
-1.87629e-10
6.1508e-09
-5.64346e-09
-3.91789e-09
3.41055e-09
-7.59796e-09
1.34681e-09
3.0429e-09
2.23585e-09
-2.93588e-09
6.85082e-09
3.90749e-09
-1.03971e-10
6.82893e-11
-3.29228e-09
8.74321e-09
-5.51921e-09
-3.37314e-09
9.11292e-09
-5.67148e-09
3.27459e-09
2.56091e-09
5.29446e-09
8.07152e-09
-8.17007e-09
-3.49161e-09
9.0808e-09
3.52373e-09
7.56653e-09
-8.2979e-09
4.71162e-09
-1.31712e-10
3.60952e-09
3.57561e-09
1.55809e-09
6.8726e-09
5.81772e-09
-2.79766e-09
3.76773e-09
5.90254e-09
-7.52296e-09
3.22807e-09
1.49722e-09
-3.50496e-09
6.93622e-10
-5.2486e-09
-6.83859e-09
1.58549e-08
-8.74909e-09
6.72856e-09
1.20347e-08
-1.01954e-08
1.73627e-09
-1.43248e-08
1.95209e-08
1.0088e-08
9.53183e-09
-1.43253e-08
6.95716e-09
-3.74185e-10
8.33143e-09
-1.09603e-08
-2.43225e-09
-3.56108e-09
-9.73591e-09
7.94398e-09
-2.63632e-09
6.96577e-09
2.74621e-08
-1.98178e-08
-1.46101e-08
2.54489e-08
-9.88777e-09
-8.59542e-09
1.71143e-08
4.61443e-09
5.73343e-09
2.49605e-08
1.76026e-08
-8.02164e-09
1.89628e-08
1.40193e-08
-2.44175e-08
1.30961e-08
3.29975e-09
-1.9823e-08
-1.44823e-08
1.31097e-08
9.79611e-09
1.12586e-08
-3.41644e-08
1.18636e-08
-1.85769e-08
1.3588e-08
-1.96785e-08
-2.33183e-09
8.4223e-09
-4.76086e-09
-7.23672e-09
2.55856e-08
-1.27846e-08
2.69866e-08
-8.30528e-09
8.6167e-09
1.80895e-08
-2.81112e-08
-2.14039e-08
6.33984e-09
1.11137e-08
-1.91234e-08
5.67784e-09
-1.30358e-08
1.69128e-08
-2.08834e-08
-7.85169e-09
1.56993e-08
-1.87252e-08
6.7571e-09
-8.91534e-09
6.63434e-09
-1.4101e-08
2.47652e-08
-6.26726e-09
8.5766e-09
-1.18911e-08
-3.7897e-09
8.60822e-09
-2.72657e-08
2.58764e-08
7.12265e-09
-2.92087e-08
-4.62598e-09
6.56902e-09
-3.20492e-08
1.36491e-08
6.50912e-09
1.19907e-08
-1.44968e-08
-2.95432e-08
-1.71108e-08
-1.72729e-08
5.17497e-09
-2.32852e-08
-8.43573e-09
-1.6327e-08
2.14109e-08
1.25593e-09
-1.75094e-08
1.48315e-08
6.6946e-10
-6.18817e-09
1.07561e-09
-4.36835e-08
1.22199e-08
-3.44294e-08
1.20641e-08
-1.71171e-08
-6.93726e-09
1.96708e-08
4.62819e-09
-8.19186e-09
5.12177e-09
-9.6676e-09
1.60321e-08
-9.83767e-09
-1.37548e-08
1.39249e-08
-1.51981e-08
-5.59989e-09
-4.74498e-09
-6.5413e-09
-3.9118e-09
-5.53386e-09
1.16174e-08
-1.08285e-08
3.07082e-09
6.37017e-09
-8.06612e-09
1.74104e-09
-1.86678e-09
-7.21517e-09
-3.96395e-10
-8.47474e-09
-9.99242e-09
3.30294e-09
1.51642e-08
-1.49657e-08
-2.10448e-09
1.68923e-08
-2.48261e-08
-7.03199e-09
-6.66021e-09
1.35601e-08
-7.99677e-09
-3.60325e-09
1.49029e-08
-1.77188e-08
7.61752e-09
-3.9649e-09
-1.60584e-09
-1.08947e-09
-1.75195e-08
-1.12715e-08
-4.00417e-09
-4.88438e-09
-8.83022e-09
-6.63461e-09
1.52028e-08
-1.21714e-08
7.83087e-09
-7.53115e-10
4.30344e-09
-1.13812e-08
-4.36864e-09
5.56491e-09
4.28679e-09
-1.18938e-08
1.96881e-09
5.6382e-09
7.75151e-09
-9.75175e-09
6.28705e-09
-7.0754e-09
1.08227e-08
1.21011e-09
-7.18459e-09
6.35871e-09
4.44971e-09
2.3203e-09
-1.31287e-08
6.7666e-09
4.02587e-09
-4.43376e-09
-1.16872e-08
1.4909e-08
3.54483e-09
9.1786e-09
-1.64161e-08
4.43325e-09
4.61955e-09
-6.73251e-09
7.61002e-09
8.49096e-10
1.02637e-09
1.95632e-08
-1.14109e-08
1.04516e-08
-4.80566e-09
2.8861e-09
8.4951e-09
-9.29635e-10
5.48745e-09
-4.96659e-09
2.36523e-09
-4.13261e-09
9.14845e-09
1.45473e-08
6.53986e-09
4.23652e-09
-1.79626e-09
-4.78818e-09
1.20719e-08
1.58473e-08
4.5952e-09
-1.95177e-09
6.34687e-09
-6.32941e-09
1.8015e-09
2.55247e-09
1.97541e-09
-5.68788e-09
-1.69087e-10
5.08671e-09
7.70257e-10
3.76682e-09
-6.17624e-09
-3.27845e-09
-6.95957e-09
-7.35932e-09
7.98947e-09
-6.32756e-09
-2.33432e-09
-2.04217e-09
1.0704e-08
9.13784e-10
-7.41043e-09
-4.32458e-09
4.78531e-09
1.34077e-09
2.7445e-10
-3.86178e-09
3.62533e-09
-3.79891e-11
-1.60715e-09
-3.47416e-09
6.87517e-09
-1.79387e-09
-3.67245e-09
3.97112e-09
-2.42232e-11
2.62687e-09
2.95078e-09
-4.90939e-10
4.24965e-10
-3.51649e-09
-4.76924e-10
4.66859e-09
-3.76671e-09
-6.52271e-09
4.64505e-09
-1.14151e-08
-7.32654e-09
4.89744e-09
1.38442e-08
2.60064e-11
1.17584e-09
-1.26169e-08
-6.83252e-09
-7.97415e-09
5.8677e-09
8.93896e-09
-7.38029e-09
5.73769e-10
1.49734e-08
-1.33376e-08
-9.01613e-09
-1.92735e-09
8.9266e-09
-1.74405e-09
3.25755e-09
-8.84002e-09
-1.37001e-09
1.21352e-08
-2.72062e-09
-5.86386e-09
4.27022e-09
4.31427e-09
-7.0403e-09
2.57562e-09
8.36792e-10
-3.26432e-09
-1.091e-08
-4.31723e-09
6.08282e-09
-1.18376e-09
-5.81814e-10
-1.85332e-09
-6.50131e-09
9.19143e-09
5.42892e-09
-2.63634e-09
-4.64589e-09
1.7394e-09
-6.27702e-10
3.91534e-09
-7.09593e-09
-3.85971e-09
-2.09125e-10
7.45926e-09
-4.55905e-09
1.21177e-10
-1.26242e-08
9.23874e-09
-9.6111e-09
-1.11742e-08
9.65136e-09
2.00125e-09
-4.78408e-10
4.7817e-09
-7.50052e-09
-8.45537e-09
-6.9509e-09
5.83676e-09
1.07655e-08
-1.6505e-09
-5.18696e-10
1.02077e-09
-1.45359e-08
6.01465e-09
-5.84185e-09
5.56618e-09
-1.37482e-09
3.27272e-09
-6.12534e-10
3.17659e-09
-4.96703e-09
-8.75588e-10
9.11535e-09
4.59744e-09
-9.41851e-09
1.25003e-08
2.01342e-09
-6.61555e-09
-7.89821e-09
1.14261e-08
1.22346e-08
-1.11603e-08
1.01534e-10
4.97624e-10
6.42891e-09
4.38464e-09
-9.17508e-09
1.47284e-08
1.04432e-08
-3.83237e-09
1.3697e-09
-1.13997e-08
-4.76185e-09
2.96995e-09
1.31915e-08
-6.33665e-09
5.12609e-11
-5.1143e-09
-1.44311e-08
1.72944e-09
7.93978e-09
-1.53004e-09
-7.93553e-09
1.24355e-08
-3.48044e-09
4.56136e-09
-1.5512e-08
-9.0362e-09
-7.80896e-10
6.07396e-09
1.04802e-08
-1.48248e-08
-1.14851e-08
1.6029e-08
9.68499e-10
1.06625e-09
-9.97027e-09
-3.22127e-09
-9.19748e-09
3.38256e-09
-1.34558e-08
2.93927e-09
2.71473e-09
1.33348e-09
-1.38618e-08
9.81359e-09
-7.33106e-09
6.82453e-09
-1.75519e-08
5.42955e-09
-4.12944e-09
3.20943e-09
-3.39622e-09
4.31621e-09
1.9584e-10
-5.48443e-09
1.15915e-09
3.57558e-09
1.37872e-09
-7.22007e-10
7.50702e-09
2.22541e-09
-4.65013e-09
-3.0597e-09
-1.18752e-09
1.67085e-11
-3.66726e-09
-4.40892e-09
7.35416e-09
-1.51553e-09
-2.1721e-09
2.03683e-11
-7.26954e-09
7.60778e-09
-4.74715e-09
-6.54187e-09
-2.24321e-09
-2.80932e-09
-1.66946e-09
-3.28326e-09
-7.63621e-11
-3.09475e-09
-1.68567e-09
-1.76145e-09
2.78767e-09
-6.73069e-09
-3.59034e-09
1.64175e-10
1.22193e-08
2.15181e-10
-1.25987e-08
-9.39923e-09
9.17521e-09
3.88197e-10
6.93733e-09
-1.13281e-08
5.50461e-09
-1.11384e-09
-1.1488e-09
-1.3131e-09
2.75626e-09
7.16072e-09
-3.05952e-09
-6.85745e-09
-7.91354e-09
-1.96022e-09
1.263e-08
1.17792e-08
6.43393e-09
-1.469e-08
-3.52313e-09
5.12457e-09
-1.25892e-09
-3.99442e-09
4.83375e-09
1.138e-08
9.10821e-10
4.26997e-09
-1.83545e-08
1.91721e-08
4.30701e-09
-1.49059e-08
2.98534e-09
3.63285e-09
4.43869e-09
1.66125e-09
1.14639e-08
5.99303e-09
-1.91182e-08
1.25904e-08
8.24292e-09
6.04005e-10
1.56937e-08
1.78769e-08
-4.68251e-09
3.23103e-09
-2.47675e-09
2.99953e-09
-3.75382e-09
4.42483e-09
-9.42984e-11
-1.09951e-09
1.76504e-09
1.15994e-09
-5.40174e-09
-3.11407e-09
3.29775e-09
4.24115e-09
-8.99559e-11
-2.45812e-11
-5.12445e-09
-1.86978e-09
6.89993e-09
2.40038e-09
-5.75979e-09
2.59108e-09
2.39587e-09
-3.82701e-09
2.54298e-09
-4.18637e-11
1.36701e-09
4.68557e-09
-3.65672e-09
7.65208e-09
-3.88469e-09
-1.33732e-09
6.22685e-09
-1.59179e-09
-1.80555e-09
3.0112e-09
-2.84538e-10
3.16456e-09
4.72019e-09
2.64735e-09
-1.81644e-09
8.44521e-09
-6.04938e-09
-5.794e-10
3.6146e-10
5.06517e-09
3.15346e-09
-1.75221e-10
3.93086e-10
7.1034e-09
-7.93494e-09
-1.04779e-09
6.78982e-09
2.19291e-09
-4.18356e-09
-7.68236e-09
3.93098e-09
-1.03725e-08
1.67111e-10
6.02185e-09
-4.18301e-09
-1.24915e-09
3.61572e-09
8.72099e-11
4.87061e-09
-7.16755e-09
-4.81007e-09
-3.84883e-09
9.76537e-10
-1.11336e-08
1.80669e-08
-5.73407e-10
-5.82469e-09
-1.16688e-08
1.17024e-08
-7.31187e-09
1.36764e-08
2.84868e-08
-1.03661e-08
-1.86941e-08
-2.04212e-08
1.01885e-08
2.19351e-08
8.57345e-09
-5.07836e-10
1.12688e-08
1.21838e-08
-5.36708e-09
-1.80855e-08
1.19127e-08
-2.40948e-08
2.34508e-08
2.64062e-08
-2.22411e-08
-9.98984e-09
1.32229e-08
5.87143e-09
1.46828e-08
-3.63804e-09
-2.075e-08
-1.4906e-09
3.2429e-08
-2.01141e-08
7.93758e-09
-2.99095e-09
2.09007e-08
-5.72602e-09
3.09628e-08
-1.15526e-08
-9.59136e-09
1.00331e-08
5.21336e-09
-5.65509e-09
-3.37309e-09
1.70692e-08
-2.32874e-08
1.78519e-08
-6.024e-09
-7.35973e-10
-1.1092e-08
-1.97804e-09
-2.05809e-09
1.48343e-08
-1.07982e-08
-6.95364e-09
2.28275e-08
4.14463e-09
8.84369e-09
-1.63614e-08
5.56479e-09
9.92745e-09
-1.13476e-08
3.01839e-09
2.86645e-09
-1.70709e-08
1.1186e-08
-1.6855e-08
5.54497e-09
1.43284e-08
-1.867e-08
1.74169e-08
1.12861e-08
5.77395e-09
-7.37474e-09
-5.01602e-09
1.57942e-08
-1.67483e-08
1.26611e-08
-1.45294e-08
-2.94932e-10
1.2603e-08
-4.05425e-09
-7.43193e-09
-3.64912e-09
-1.18998e-08
2.09038e-08
2.47102e-09
7.42552e-09
-6.10411e-09
-3.79243e-09
3.93159e-09
-1.32236e-09
-1.38209e-10
-7.97323e-09
3.98581e-09
7.91901e-09
-3.8412e-09
3.29349e-09
1.23996e-08
-6.52018e-10
-8.17253e-09
-3.57509e-09
8.85956e-10
2.5031e-09
9.01058e-09
-3.72075e-09
-2.27169e-09
1.28043e-09
4.71201e-09
-2.27988e-09
-1.30915e-09
-1.31728e-10
-2.96877e-09
-6.41494e-09
8.73169e-09
7.34498e-09
-8.73071e-09
-3.49934e-09
-1.02904e-10
-2.38264e-09
7.64887e-09
-7.48811e-09
7.60857e-09
-1.11004e-09
1.23332e-09
-6.22738e-09
-1.30722e-10
-4.47866e-09
-1.62279e-09
1.08347e-08
-7.97859e-09
-1.67661e-09
-8.11871e-09
-4.94617e-10
5.24654e-09
-7.05388e-09
1.87821e-08
-4.19205e-09
-3.49041e-08
2.03141e-08
1.29924e-08
7.39613e-09
-1.60642e-09
-1.76577e-08
1.44298e-08
2.14074e-08
-1.81795e-08
-6.2619e-09
-2.83378e-09
-8.56201e-09
-2.44604e-08
6.44095e-09
-3.04646e-09
2.10659e-08
-1.28736e-09
-1.01807e-08
-1.238e-08
1.78329e-08
1.55609e-08
-2.10139e-08
1.31094e-08
-2.96814e-08
-3.05538e-09
2.39261e-08
-2.89414e-08
6.53781e-09
1.93571e-08
-1.58585e-08
-1.43702e-08
1.46053e-08
-3.03426e-09
-3.00527e-09
2.19214e-08
-3.35521e-09
-5.75444e-09
-1.92293e-08
2.27117e-08
1.72973e-08
2.04077e-08
-1.00763e-09
2.56694e-09
-2.1967e-08
1.45043e-08
5.37396e-09
5.2939e-10
2.24352e-08
1.76622e-09
-2.52091e-08
2.22817e-08
1.46578e-08
2.79739e-08
2.20199e-09
-2.7609e-08
2.74176e-08
5.93022e-09
1.55762e-08
1.5862e-08
-2.10345e-08
-1.04038e-08
5.87916e-10
-3.1636e-09
1.81518e-08
3.03395e-08
-9.06083e-09
-5.41667e-09
-5.08203e-09
3.60095e-08
2.43401e-09
-2.17023e-08
2.10018e-08
-2.5175e-10
-1.8548e-08
-3.91964e-09
1.73958e-08
7.52558e-09
1.96864e-08
3.81157e-09
-3.43149e-09
2.25496e-08
2.27158e-08
-1.99789e-08
-1.17977e-08
-4.78326e-09
2.2417e-08
-1.77967e-08
-2.13132e-09
1.47439e-08
1.41236e-08
3.64068e-09
-1.65847e-08
-2.60946e-08
3.90386e-08
-2.07586e-08
-9.46345e-09
1.21219e-08
1.81002e-08
-2.34697e-08
8.39134e-09
-5.68025e-09
-1.11524e-08
-1.91609e-08
3.3954e-08
-8.00652e-09
-1.71243e-08
1.39784e-08
7.88857e-09
-8.40275e-10
1.4907e-08
-2.19553e-08
2.414e-08
4.55166e-09
-2.08031e-08
1.68227e-08
3.61836e-08
-2.88662e-08
-1.41465e-08
4.72907e-08
-1.63215e-08
2.43771e-08
-2.6805e-08
-2.10418e-08
-3.74252e-10
1.52879e-08
7.00414e-09
1.202e-08
-1.98644e-08
-1.52492e-08
2.12106e-08
-1.10426e-08
-1.77665e-09
8.93068e-09
2.44018e-08
-7.11051e-09
-2.19084e-08
9.85809e-09
3.76762e-09
-1.88846e-08
2.16949e-08
-2.67992e-08
1.25193e-08
-1.86713e-09
-1.58243e-08
1.32441e-08
2.25652e-08
1.42545e-08
4.62803e-08
2.11748e-08
5.32287e-09
8.44174e-09
1.55713e-08
-9.75856e-09
-8.72329e-10
3.0016e-08
-2.0702e-08
2.92332e-08
-1.48612e-08
1.84757e-08
6.2503e-09
-9.86476e-09
1.71868e-08
-2.55389e-08
2.76749e-08
-1.42778e-08
2.90456e-08
1.7105e-08
-9.15783e-09
3.02396e-08
-1.8871e-08
1.88228e-08
4.80752e-09
-1.75194e-08
3.49995e-08
-3.74995e-10
7.5867e-10
9.65604e-09
-2.79341e-08
1.43089e-08
7.11009e-09
-2.70741e-08
-1.59179e-08
2.52108e-08
1.76879e-08
-3.61167e-08
-1.38421e-08
9.2897e-10
-1.06265e-08
2.35397e-08
-2.68271e-08
3.06728e-08
-1.88201e-08
7.08606e-09
1.24928e-08
-1.99512e-08
2.24508e-08
1.23347e-08
-1.5834e-09
2.536e-09
-2.17572e-08
1.35364e-09
-9.54205e-09
1.15953e-08
1.03148e-08
-7.04211e-11
-2.18397e-08
1.07778e-08
1.1163e-08
-1.03454e-08
-1.65407e-08
-9.4712e-10
2.82656e-08
1.16124e-08
-1.78383e-08
3.25752e-08
-1.04099e-08
-1.10023e-08
-1.60034e-08
-1.97624e-08
1.82034e-08
1.75625e-08
-2.49943e-08
3.9307e-09
5.06015e-09
1.62038e-08
7.22041e-09
9.15094e-09
1.54297e-08
1.36339e-08
-2.9134e-08
2.66081e-08
-2.15884e-08
1.93295e-08
9.53792e-10
-8.67096e-09
1.47257e-08
1.02221e-08
-5.61835e-09
-1.03302e-08
-8.47843e-09
-2.16906e-08
5.8321e-09
2.7097e-08
1.04564e-08
2.15426e-08
-1.57952e-08
1.41109e-08
-1.77408e-08
7.56059e-09
3.03994e-08
1.60877e-08
-1.3688e-09
-1.05555e-08
1.10342e-08
8.90141e-10
-6.66514e-09
6.47381e-09
-1.17747e-09
-4.74833e-09
-1.51622e-09
-4.00608e-10
9.0356e-09
-6.65036e-09
-7.13358e-09
-5.21303e-09
3.69308e-09
1.47151e-09
-1.36662e-09
1.09293e-08
-2.91526e-10
8.23685e-09
3.9986e-09
-4.85315e-09
-6.61693e-10
7.52994e-09
3.18857e-09
-1.73689e-08
8.45479e-09
-6.13788e-09
-1.40394e-08
2.24468e-09
-1.90563e-09
1.37004e-08
-1.71664e-09
-6.2739e-09
-6.04892e-09
-7.877e-09
9.83014e-09
-5.62296e-09
1.74457e-09
6.64515e-09
-8.30973e-09
1.64298e-08
-9.69165e-09
1.31575e-08
-5.25171e-09
-1.49104e-08
2.15023e-08
-4.62592e-09
-1.96602e-09
-1.69324e-08
2.8496e-09
-8.27538e-10
1.49506e-08
3.53089e-11
-1.29218e-10
-1.48567e-08
-2.61237e-08
1.51873e-10
8.85473e-09
1.53557e-08
-9.78602e-09
-7.34632e-09
-8.06096e-09
3.74903e-11
5.83878e-09
1.12763e-08
-1.69632e-08
-7.5787e-09
-6.62741e-09
-7.62526e-10
1.49686e-08
-9.15544e-09
-1.30628e-08
1.27807e-08
6.12081e-09
-4.73957e-09
-1.10074e-08
-3.31151e-10
1.12012e-08
1.37375e-10
-1.75811e-09
3.19167e-09
-1.2441e-08
-8.08034e-09
7.83852e-09
-8.93486e-11
1.03343e-10
-9.94179e-09
6.02122e-09
-7.26556e-09
1.34768e-09
6.25659e-09
5.66841e-10
-8.02215e-10
7.93484e-09
-1.49792e-08
6.4162e-09
6.28172e-10
9.69754e-09
9.43849e-09
1.44374e-10
-1.19319e-08
-8.45073e-10
7.56818e-09
1.11541e-09
5.36967e-09
4.18358e-11
-7.1964e-09
-1.71321e-09
9.05397e-09
-2.62567e-09
-2.46381e-09
1.4787e-08
-4.04252e-09
7.83305e-09
-3.26684e-09
9.84233e-09
-1.0618e-08
9.69028e-10
3.71656e-09
-7.95244e-09
-3.33541e-09
8.43978e-09
3.00329e-09
5.76606e-09
3.49102e-09
-3.10276e-09
-6.15432e-09
7.05344e-09
-1.60127e-09
3.13907e-10
-3.62953e-09
6.412e-09
4.27095e-09
-5.12913e-11
-8.72306e-11
6.09249e-09
-1.19988e-09
-6.49386e-09
-2.13257e-09
-7.19202e-10
9.26378e-09
-1.02817e-08
-3.28304e-09
1.14322e-08
7.45513e-10
-4.93475e-09
-3.17784e-09
-1.57385e-09
4.03249e-09
-3.18037e-09
-4.87693e-11
-1.33057e-08
-1.49421e-09
1.15168e-08
-6.86609e-09
-5.69405e-09
-1.06862e-08
1.16765e-09
8.02431e-09
-2.89607e-10
-5.68189e-09
-4.71466e-09
3.32695e-09
-2.86844e-09
3.54234e-10
-8.12736e-10
-6.43223e-09
6.20611e-09
-3.42328e-09
3.64941e-09
-3.82962e-09
-2.89222e-09
-8.32919e-09
-4.21878e-09
5.79991e-09
4.46972e-12
1.42119e-10
3.45751e-09
-3.70286e-09
-3.58427e-09
3.87069e-11
-2.01743e-09
-3.09678e-09
3.20106e-09
1.91315e-09
2.03613e-09
-5.53511e-09
1.48155e-09
-1.04413e-08
1.47861e-09
3.23705e-09
5.72567e-09
-1.91622e-09
7.85364e-10
-9.31049e-09
2.15538e-10
-5.40662e-09
5.36557e-09
-1.74489e-10
4.55814e-09
-4.42707e-09
8.44643e-11
1.2908e-09
-2.41835e-09
6.82657e-09
-5.69903e-09
-1.16609e-09
-5.86324e-09
5.11311e-09
1.48241e-09
-2.10552e-11
1.51357e-09
-2.49873e-09
3.02128e-09
4.77058e-10
4.23756e-09
-3.75511e-09
5.52297e-09
-2.36418e-09
9.14739e-11
1.26015e-08
-1.44638e-09
-1.03697e-08
8.65973e-09
5.42033e-09
3.5996e-10
1.07889e-09
-6.84548e-09
-5.2332e-09
-5.25365e-11
-1.17006e-10
-1.41444e-09
7.65582e-09
1.41792e-08
-2.93365e-09
-1.26919e-08
2.3898e-09
1.03749e-08
-8.34549e-09
8.4833e-09
-1.90357e-10
-1.02002e-08
8.37437e-09
-1.77402e-08
-2.71788e-09
5.51738e-09
1.49407e-08
1.69176e-09
-1.65213e-08
-2.91059e-09
2.32656e-08
-1.94495e-08
-2.12438e-09
3.39367e-09
1.71541e-08
1.76511e-09
-1.76094e-08
-3.60521e-09
1.53082e-08
-1.16854e-08
-1.85771e-09
1.27444e-08
3.04295e-10
3.24738e-09
-2.0073e-08
5.63899e-09
1.30629e-08
3.79752e-09
-2.11026e-08
3.37676e-09
-2.11712e-08
1.35939e-08
4.80731e-09
-1.46036e-08
2.10412e-09
-1.95678e-10
-3.24262e-09
-1.11414e-08
1.77608e-08
1.04682e-08
-8.90346e-09
8.42186e-10
1.17301e-08
-1.16832e-08
1.19086e-08
-1.90123e-10
-7.84195e-12
-1.79125e-08
9.24938e-09
-1.73629e-08
-8.13059e-09
1.43397e-08
1.11538e-08
9.78719e-09
-9.25148e-09
-1.78986e-08
3.72144e-09
-2.06484e-09
1.47477e-08
-8.354e-09
-2.67226e-09
1.58478e-08
1.32713e-08
-2.02207e-09
-1.34109e-08
1.61554e-08
1.31033e-08
1.21202e-08
6.41246e-09
-3.78501e-09
-2.49621e-09
3.73168e-09
1.08847e-08
-1.16728e-09
5.08352e-09
1.7036e-08
2.20328e-09
-9.01715e-09
-1.77378e-08
1.42235e-08
-2.98718e-09
3.10341e-09
-1.10391e-09
1.90591e-08
1.16434e-09
-4.85523e-09
1.99068e-08
-3.9296e-09
1.23457e-08
1.19391e-08
-2.37392e-09
1.06585e-08
-1.0381e-08
2.09645e-09
6.97228e-09
-7.27161e-09
-2.0746e-09
-6.13739e-09
2.83073e-09
-2.56866e-09
5.87531e-09
-2.27555e-09
-4.57785e-09
7.15995e-10
1.65041e-09
8.15259e-09
-3.81896e-09
1.61278e-08
5.29712e-09
-1.60369e-09
2.52931e-09
-6.22276e-09
8.65143e-09
-2.54935e-09
-8.0497e-10
-8.95729e-10
-6.68294e-09
2.21927e-10
3.89234e-09
-7.61596e-09
-3.64483e-09
4.79441e-09
-1.05249e-08
5.95244e-09
-1.49511e-08
1.59266e-08
-1.59661e-08
-9.50998e-09
5.20831e-09
-8.84812e-09
2.03611e-09
-4.95701e-09
-6.05865e-09
-1.79307e-09
5.34467e-09
-7.94823e-09
2.75609e-10
2.32795e-09
-5.60091e-09
4.99741e-09
5.94817e-09
-2.1001e-09
-5.32575e-10
6.00807e-09
-3.3754e-09
4.16066e-09
-2.64483e-09
-3.61594e-09
-3.70074e-09
-4.78007e-09
4.39039e-09
1.89328e-09
-8.16173e-09
7.31536e-09
8.48391e-09
-7.63756e-09
1.94318e-09
-1.99001e-09
-8.11491e-09
-7.05027e-09
1.03896e-09
1.00656e-09
5.00473e-09
-4.01367e-09
-1.09342e-09
-8.13261e-09
5.07898e-10
2.0238e-09
-2.96949e-09
-8.86386e-09
-4.4403e-09
4.51979e-09
4.3109e-09
-2.62599e-10
-1.70428e-11
-4.90573e-10
-1.70428e-09
7.19225e-09
-1.53926e-09
5.56847e-09
6.65003e-09
-4.21699e-09
3.68428e-09
8.31616e-10
-9.82017e-09
6.01906e-09
4.46409e-09
-4.99446e-09
-3.4833e-09
-1.54995e-11
-6.80768e-09
1.75589e-08
1.76947e-09
-1.1835e-08
-7.49339e-09
1.20754e-09
8.24433e-09
8.10708e-09
-1.66333e-08
8.98825e-09
8.85257e-09
-9.81493e-09
-5.0489e-09
5.44857e-09
8.65837e-09
-4.34981e-10
-1.3672e-08
3.75045e-09
-1.01369e-08
5.58966e-09
-6.74623e-09
8.32024e-09
-1.19991e-09
-3.36989e-09
7.02736e-09
9.5372e-09
-8.75427e-09
5.47805e-09
1.22645e-08
-3.30687e-09
1.42248e-10
1.67554e-08
-3.40933e-09
-7.16515e-09
-6.18089e-09
1.22467e-08
-3.14447e-09
7.65315e-09
-4.46875e-09
1.69742e-08
-1.02007e-08
1.79786e-08
-6.11929e-09
-7.49075e-09
4.09849e-09
6.34266e-09
-1.08761e-08
-3.22071e-09
7.46322e-09
-8.28571e-09
1.01188e-09
-2.1077e-09
6.43464e-09
6.30678e-10
-4.95762e-09
4.02485e-10
3.73184e-09
-6.24205e-09
7.93199e-11
-4.83855e-09
5.27895e-09
-5.19731e-10
-7.29416e-09
8.09092e-09
-7.17449e-10
-4.95129e-09
4.04846e-10
3.18098e-09
1.36546e-09
-5.51124e-09
4.29814e-09
-3.7382e-09
2.00093e-09
-1.59314e-09
-3.28742e-09
3.11992e-09
-4.31058e-09
5.0172e-09
-8.57954e-09
5.08675e-09
-6.25405e-09
9.25821e-09
-3.83274e-10
1.0749e-08
-4.76142e-09
3.84233e-09
4.10006e-09
-5.22554e-10
5.92762e-11
4.62144e-09
2.88189e-09
-4.38341e-09
4.10491e-09
-6.02756e-12
-3.60215e-09
3.87434e-09
3.83272e-09
4.00605e-12
-7.24283e-10
-1.23285e-09
7.33339e-09
6.26435e-10
-5.42721e-09
2.1561e-10
4.58515e-09
-2.38999e-09
2.29456e-09
7.21858e-10
2.16847e-09
2.53354e-09
-3.22046e-09
-2.07813e-10
-1.37017e-11
-2.50757e-09
-2.17519e-09
4.28483e-09
3.97918e-10
-1.72338e-09
-7.08511e-10
-7.56835e-11
-1.4739e-09
-1.41977e-09
-1.80422e-11
5.203e-09
-1.67396e-09
-9.23662e-10
3.95145e-09
-5.54098e-09
2.8122e-09
1.8051e-09
-3.99361e-09
1.70895e-09
-5.78223e-09
8.12892e-09
-4.05565e-09
-4.0504e-09
-1.61878e-09
7.37813e-09
-1.76012e-11
-7.0307e-09
1.26609e-09
-4.90845e-09
8.40445e-10
4.05519e-09
7.0333e-09
-9.1869e-10
-1.01698e-08
6.37913e-09
2.08945e-09
8.00277e-10
-9.26884e-09
1.41238e-09
5.83145e-11
-5.72717e-09
8.16358e-09
2.04624e-09
-6.98749e-09
-6.86609e-09
1.10945e-08
-2.1822e-09
5.80988e-09
-7.64011e-09
2.63053e-09
1.4951e-09
-4.3185e-09
2.81975e-09
-4.14215e-09
5.64085e-09
-5.27749e-11
-4.19904e-09
-6.67167e-11
-2.69379e-09
-2.78529e-10
5.79205e-09
-2.61932e-09
-1.27256e-10
-7.68304e-10
-2.06983e-09
-1.30403e-09
-2.53476e-09
-2.43258e-09
7.42116e-09
-3.84826e-09
-1.70489e-10
-3.4024e-09
3.96264e-09
-7.64198e-10
4.22272e-09
-2.70597e-09
-1.4054e-11
1.00724e-10
-3.56503e-09
7.24914e-09
-4.55587e-09
-2.23639e-09
3.22724e-09
-1.65784e-09
-3.58289e-09
4.22439e-09
-1.28282e-09
1.39036e-09
-2.47447e-09
-2.2519e-09
-2.2954e-09
4.49562e-11
1.91593e-09
-4.85659e-09
-2.85393e-09
1.12937e-10
-1.34255e-08
7.20438e-09
6.10817e-09
-1.26638e-08
5.91207e-09
6.86466e-09
-1.13229e-08
-1.65645e-09
3.15553e-10
-2.97367e-09
3.0396e-09
-1.13888e-08
6.51868e-09
-3.79135e-10
-9.11322e-09
5.99781e-09
-1.13558e-09
-6.08914e-09
-4.1519e-09
1.53507e-08
-5.10966e-09
6.99703e-09
1.64585e-09
-2.50471e-09
-6.13818e-09
-7.63683e-09
8.54472e-09
-8.96279e-09
-1.4231e-09
3.48729e-10
-1.1538e-09
6.80287e-09
-9.37993e-09
1.24324e-08
2.50479e-10
6.38296e-10
-8.52562e-09
4.77937e-09
1.7683e-09
-6.92681e-09
-8.23851e-10
5.95194e-09
1.0473e-09
-1.01768e-08
-9.27623e-09
7.80753e-09
3.237e-09
2.24742e-09
6.03458e-09
-1.39282e-09
-6.88915e-09
2.00967e-09
3.88839e-09
-4.23541e-09
-1.66264e-09
2.5224e-09
-3.71043e-09
-4.93327e-09
6.12131e-09
-7.66555e-10
-4.19813e-09
-3.94162e-09
6.40955e-10
-6.38276e-09
1.68693e-11
-1.46517e-08
7.35658e-09
1.52349e-08
-1.23256e-08
2.23525e-09
-1.18917e-09
8.58753e-10
-1.19952e-08
6.64249e-09
-1.88174e-08
9.18684e-09
2.98809e-09
1.28752e-08
1.21617e-08
-1.83944e-08
1.0373e-08
1.31302e-09
-2.82785e-08
1.67034e-08
2.19481e-08
1.83275e-09
-1.79495e-08
2.22931e-08
-1.18741e-08
-8.58623e-09
-4.83227e-09
-8.44152e-09
2.06303e-08
-1.08027e-08
1.64506e-08
4.94618e-09
6.54421e-09
1.32081e-08
1.02493e-08
3.19714e-10
-1.17877e-08
1.21871e-09
-1.55168e-10
1.38554e-08
-3.45097e-09
-6.71933e-09
-2.52463e-09
9.08878e-09
-7.47139e-09
1.07177e-09
-4.73025e-09
-1.60278e-08
1.54954e-08
5.26268e-09
-1.67157e-08
-2.90094e-10
1.22756e-08
6.49949e-09
-2.2239e-09
-5.95873e-09
1.68314e-09
-1.879e-09
5.85386e-09
-1.12775e-08
6.33542e-09
3.06306e-09
-1.20857e-08
-5.96626e-09
6.26423e-09
-9.29791e-09
-3.97379e-10
-5.69719e-09
5.43609e-09
1.08671e-08
-1.0606e-08
-5.08789e-10
8.03358e-09
-1.3222e-08
1.71238e-10
-5.68266e-09
-1.12043e-08
-1.04205e-08
4.2453e-09
6.6937e-09
-1.14478e-08
1.12986e-08
-1.2736e-08
-4.47761e-09
8.69549e-09
3.88781e-09
4.38957e-09
-1.58368e-09
3.10074e-09
-4.03239e-09
1.13244e-08
5.123e-09
-1.12181e-09
8.88048e-10
2.14658e-10
-1.98936e-08
-7.74747e-09
7.39037e-09
2.02507e-08
-1.63905e-08
-2.46217e-09
-1.04092e-09
-1.06984e-08
2.05901e-08
-2.05183e-08
1.06266e-08
-2.48505e-08
-2.23844e-09
2.13473e-08
-2.08921e-08
-2.91745e-09
-2.36623e-09
-1.91481e-09
2.98953e-08
8.23121e-09
-5.8442e-09
-2.72375e-08
6.47099e-10
-1.29342e-08
1.22778e-08
-1.6062e-08
-1.71079e-08
2.02046e-08
2.11055e-10
-1.73012e-08
-3.11453e-09
-9.31914e-09
-2.40443e-08
-5.7545e-09
2.04796e-08
-3.38933e-09
-2.04439e-08
-2.23135e-08
1.41928e-08
-3.15096e-09
-6.88478e-09
4.07454e-09
-2.59808e-08
-5.96103e-09
-1.06931e-08
-1.98468e-08
1.79603e-08
6.66827e-09
5.7394e-09
3.57652e-09
-1.59842e-08
-9.63989e-09
1.01134e-08
6.19472e-09
-4.72922e-10
8.20879e-09
-1.11058e-08
7.15627e-09
-1.08499e-08
6.2582e-09
-4.75504e-09
4.23623e-09
8.12753e-09
-1.5937e-08
1.1386e-08
2.63666e-10
-5.80811e-09
-4.35427e-09
5.40406e-11
-3.29634e-09
-1.33103e-10
-2.76423e-09
2.85239e-09
-3.41255e-11
-2.93138e-09
-2.95873e-09
3.12588e-09
5.69384e-10
-6.79712e-09
4.8149e-09
-9.02559e-09
-4.22841e-09
1.13503e-09
4.98665e-09
-1.46542e-09
8.93956e-11
-7.02398e-09
1.50496e-09
7.84696e-09
-3.57602e-09
1.36694e-09
-5.34226e-09
7.98225e-09
-1.96042e-09
-4.84726e-09
-1.5287e-09
1.17505e-08
-1.01971e-08
-2.473e-11
-9.70955e-09
9.69054e-09
-1.50969e-09
-8.66165e-09
-3.39072e-10
2.74144e-10
8.72657e-09
-6.62174e-09
-1.75384e-09
-2.86069e-10
-3.6501e-09
-7.40834e-09
7.56057e-09
3.49785e-09
-5.14073e-09
1.59655e-09
-1.05952e-10
-1.72519e-09
1.58036e-09
-9.56473e-09
1.54131e-10
2.70355e-10
1.1326e-08
9.50559e-09
5.83481e-09
-6.06206e-09
-4.91349e-09
-3.70749e-10
-1.20278e-09
8.71541e-09
9.39483e-11
-1.05346e-08
-1.85245e-09
5.97418e-10
-5.6388e-09
-6.44226e-09
-4.33011e-09
7.12425e-09
3.64811e-09
-4.22719e-11
7.28031e-09
-6.9639e-09
2.56903e-10
7.57401e-09
1.19349e-09
-7.1616e-09
-9.13523e-10
-4.93132e-09
-4.6364e-09
4.85103e-09
-3.14128e-09
1.01424e-10
3.77037e-09
-3.4904e-09
6.53657e-10
-2.45688e-11
-4.69089e-09
1.28888e-08
6.92705e-09
-1.5125e-08
-1.45655e-08
9.22458e-09
6.50057e-10
2.14544e-10
-1.61816e-08
1.40149e-09
-1.38406e-08
1.32907e-08
1.31793e-08
-1.26293e-08
-4.52171e-10
-1.26894e-08
-6.9908e-10
1.65579e-10
-1.35023e-09
1.40735e-08
-4.12944e-09
1.05284e-08
2.82559e-09
9.13708e-09
1.02713e-09
-9.94968e-09
6.3301e-09
-1.32246e-09
1.43246e-09
8.26953e-09
-9.83317e-09
1.31171e-10
6.60255e-09
1.16001e-09
5.77222e-10
3.86532e-10
1.27097e-09
7.57579e-09
1.47272e-08
-5.10047e-10
-9.4699e-09
4.04766e-09
5.93228e-09
4.04032e-09
-1.00209e-08
5.47053e-09
-5.08354e-09
3.26251e-09
2.97368e-09
-1.38214e-10
8.82513e-10
9.23441e-09
-6.06926e-09
-4.73e-09
9.65284e-09
-9.11388e-09
2.06666e-09
-5.62143e-09
6.91219e-09
1.27866e-08
-1.40774e-08
6.74168e-09
3.55302e-09