/*--------------------------------*- C++ -*----------------------------------*\
| =========                 |                                                 |
| \\      /  F ield         | OpenFOAM: The Open Source CFD Toolbox           |
|  \\    /   O peration     | Version:  v1612+                                |
|   \\  /    A nd           | Web:      www.OpenFOAM.com                      |
|    \\/     M anipulation  |                                                 |
\*---------------------------------------------------------------------------*/
FoamFile
{
    version     2.0;
    format      ascii;
    class       surfaceScalarField;
    location    "100";
    object      phi;
}
// * * * * * * * * * * * * * * * * * * * * * * * * * * * * * * * * * * * * * //

dimensions      [0 3 -1 0 0 0 0];

internalField   nonuniform List<scalar> 
36911
(
-4.95681e-10
4.61176e-09
-2.65755e-10
-3.85028e-09
4.08048e-09
-4.14393e-09
4.91005e-09
-4.8466e-09
1.20672e-09
3.01897e-09
-1.45222e-10
1.10956e-09
3.40312e-10
-5.59382e-09
5.00044e-09
-2.24111e-10
-3.66677e-09
2.91005e-09
5.48857e-09
-3.39817e-09
4.11594e-09
8.27342e-13
-5.19659e-09
5.34732e-09
2.86824e-09
7.20544e-10
-1.00709e-09
1.84407e-09
7.95768e-09
-9.46145e-09
8.2708e-09
-6.65085e-09
-1.3065e-10
-6.78696e-10
4.92529e-09
-1.7561e-09
7.78763e-09
2.23926e-09
7.02453e-09
-8.22966e-10
-6.70419e-09
7.85615e-09
-1.28261e-09
6.68895e-11
-1.28251e-09
-9.09347e-10
5.57796e-09
8.33568e-09
-5.90617e-10
-1.71412e-09
9.56863e-09
6.58779e-09
8.38535e-10
2.1346e-09
1.59492e-08
-3.18259e-09
-1.49012e-08
1.98768e-08
-3.21702e-09
-1.45252e-08
1.81145e-08
6.13542e-10
1.14879e-09
-7.69644e-09
1.10707e-08
1.47402e-08
7.05259e-09
1.20017e-09
-1.08548e-09
8.83668e-09
-1.09683e-08
6.76527e-09
-1.10333e-08
-1.23476e-08
9.37739e-09
-6.79226e-10
3.64939e-09
6.12397e-09
-1.17063e-08
1.32383e-08
-1.42611e-08
1.63628e-09
8.68405e-09
7.74596e-09
-7.80891e-09
2.75637e-08
-1.00361e-08
1.54655e-08
1.384e-08
-3.13168e-09
-4.58442e-09
3.12469e-09
-8.55606e-09
-5.41128e-09
1.16889e-09
4.12586e-09
1.16536e-10
2.72828e-09
-5.3298e-09
-2.80974e-09
5.58706e-09
-8.89481e-09
8.34954e-09
-5.04178e-09
6.48816e-09
2.67803e-10
-2.208e-09
3.61768e-09
2.71619e-09
8.33726e-10
-3.1343e-10
-1.54268e-09
3.09633e-09
4.93451e-09
3.40134e-09
-1.24335e-08
7.48944e-09
-3.02431e-09
3.31298e-09
1.38703e-09
-1.67568e-09
1.36101e-09
-4.50488e-09
1.19599e-10
-9.54766e-10
-1.85107e-09
2.54304e-09
2.62822e-10
-2.33964e-09
9.0299e-10
4.82011e-10
4.86294e-09
9.70551e-09
-1.07244e-08
4.42022e-09
-2.16245e-09
1.12998e-09
4.34552e-09
-1.18884e-10
-3.07883e-09
6.01397e-09
3.30637e-09
-6.24152e-09
9.81783e-10
-4.00837e-09
-5.22524e-11
-1.31207e-09
1.05578e-09
-3.43987e-09
3.69615e-09
1.91345e-10
4.51056e-09
2.41211e-09
-1.0057e-08
7.83625e-09
7.54058e-10
-8.92481e-09
1.05829e-08
-4.11564e-09
4.74144e-09
4.95215e-09
-1.26967e-09
2.22629e-11
6.55128e-09
-2.49384e-09
3.57435e-11
-1.93083e-09
-1.12233e-08
1.25635e-08
5.51967e-09
-7.8567e-09
-3.72765e-09
-3.58751e-11
-8.40302e-09
-1.27405e-09
1.35534e-09
8.32173e-09
-9.38163e-10
-9.39569e-09
-4.04268e-10
-4.33049e-09
-6.14423e-09
4.8018e-09
3.09406e-09
2.95158e-09
3.52421e-09
-9.56986e-09
4.74141e-10
5.45363e-09
-2.83371e-09
6.07752e-09
5.38528e-09
-8.51123e-09
1.05462e-08
-3.9945e-09
-6.01398e-09
1.03056e-08
1.09369e-09
-7.43544e-09
4.94568e-09
4.02894e-09
1.09095e-08
-9.48482e-09
1.06742e-08
-3.92799e-09
-2.71721e-09
-1.04569e-08
1.01697e-09
5.74463e-09
3.69527e-09
4.01412e-09
-4.16545e-09
1.39857e-09
-5.86689e-09
1.53778e-08
-4.77163e-09
5.69625e-09
-8.43316e-09
9.22318e-10
-5.34136e-09
-2.60614e-09
-5.11085e-10
7.59299e-09
-4.47577e-09
3.17383e-09
-4.92652e-09
5.07318e-09
-3.3205e-09
-5.23816e-10
6.82636e-09
-3.12871e-09
6.44465e-09
-1.46887e-09
-1.32259e-08
8.25011e-09
-6.12947e-09
1.20503e-08
9.92139e-09
-3.90659e-09
-1.19851e-09
-4.81629e-09
-2.73686e-09
6.52878e-09
-6.63997e-09
6.12913e-09
-2.0953e-09
-1.08644e-08
4.46903e-09
-2.39175e-09
5.58167e-09
-3.76222e-09
5.72304e-10
-1.01533e-09
-8.0164e-09
2.07966e-09
-6.53975e-09
1.72324e-09
-6.00478e-09
1.26947e-09
-1.34375e-08
-9.10225e-09
9.31386e-09
-1.35498e-08
-3.79431e-09
5.8509e-09
-9.3446e-09
2.47836e-09
-1.30873e-08
-2.01969e-09
-2.07862e-08
-2.11908e-08
-1.84549e-08
1.12169e-08
2.84288e-08
-2.52256e-08
-3.64474e-09
1.10764e-09
-1.3292e-08
-7.82685e-10
-1.11509e-08
-1.99596e-08
9.77319e-09
1.37782e-09
8.80867e-09
-8.55036e-09
-6.90253e-09
-4.50675e-09
-1.11036e-08
-1.86376e-08
-1.50286e-08
-2.50002e-09
2.0058e-09
-1.07348e-08
-1.91205e-08
1.65633e-08
-1.00713e-08
-8.91701e-09
1.82056e-08
-1.0751e-08
5.49565e-09
-3.19084e-09
-1.34766e-09
-6.19624e-09
7.50802e-10
-1.50452e-08
7.1174e-09
-7.71425e-09
1.25444e-08
-1.23295e-08
-8.27793e-09
6.46267e-09
-1.40233e-08
6.18986e-09
2.89793e-10
-1.65886e-09
1.64284e-08
2.97792e-09
-4.71138e-09
-1.46949e-08
1.02646e-08
8.50613e-09
-2.34225e-09
-1.28977e-08
-1.27629e-08
1.86298e-08
7.03081e-09
2.7691e-09
1.36392e-09
-1.70307e-08
5.11889e-09
-1.51126e-08
-1.35549e-08
2.66384e-08
-2.81899e-09
-1.67423e-08
1.79298e-08
-1.47424e-08
1.35543e-08
-7.18852e-10
-9.85752e-09
1.72686e-08
4.79181e-09
-2.00898e-08
1.91048e-08
-1.47047e-08
-1.76681e-08
-6.94541e-09
1.78029e-08
6.81064e-09
-1.35601e-08
1.45218e-08
5.9534e-09
2.14965e-08
-8.11552e-10
5.29054e-09
1.85928e-08
2.15849e-09
1.00009e-08
-7.61461e-09
2.26684e-08
6.44274e-09
1.18125e-08
5.51133e-09
-8.4881e-09
1.17811e-08
-8.80425e-09
1.14059e-08
-1.1755e-09
-4.71908e-09
1.55003e-08
-3.10793e-08
7.09089e-09
1.56089e-08
-8.48691e-09
4.65907e-09
8.47389e-09
-1.65363e-09
8.78871e-09
-1.07684e-08
1.38967e-08
5.34557e-09
-7.00069e-10
-7.88005e-09
2.28394e-09
6.29623e-09
1.65192e-09
9.05397e-09
2.04075e-08
-1.33941e-08
8.9427e-09
1.4946e-09
8.88203e-09
-1.93193e-08
1.34115e-08
-1.23489e-08
1.11337e-08
1.39149e-08
-7.64703e-09
-4.37904e-09
-1.88883e-09
-1.05368e-08
9.02561e-09
1.54261e-08
-1.04835e-08
-1.03666e-09
9.834e-10
-7.18821e-09
-1.09424e-08
-1.32206e-09
1.66714e-08
-6.32375e-09
-9.47829e-09
6.58501e-10
4.79832e-09
4.02146e-09
-3.54477e-09
2.0032e-09
-7.93674e-09
-1.49298e-09
-1.00953e-08
8.04352e-09
-7.66612e-09
4.36674e-09
3.95782e-09
-4.28172e-10
-5.23474e-09
-9.7151e-09
1.66004e-09
1.15343e-09
6.90156e-09
-3.32789e-09
-6.81539e-09
8.20738e-09
-2.19604e-09
-9.33922e-09
7.16984e-09
2.69756e-09
-5.9198e-09
8.97702e-09
-4.3793e-09
2.13378e-10
-1.08772e-08
-1.01761e-09
-4.71451e-09
1.13336e-09
4.59876e-09
3.20512e-10
3.41666e-09
-4.75477e-09
1.44806e-09
-6.75202e-09
5.62449e-09
-6.65115e-12
-7.94555e-09
9.40027e-09
-1.35528e-09
-3.41981e-09
6.05753e-11
-5.3789e-09
6.5056e-09
-7.07482e-09
8.68643e-10
-1.73937e-09
-1.43664e-09
-5.29754e-09
6.40984e-09
-9.51394e-09
-3.97071e-09
-6.66532e-09
6.32314e-09
-1.19047e-10
-3.39471e-10
-6.2068e-09
-5.57207e-10
-9.07578e-09
5.00563e-10
-1.33072e-10
-5.41124e-09
5.04374e-09
-4.66031e-09
4.82139e-09
-6.25572e-09
5.56543e-09
3.16401e-09
4.75872e-09
-4.35427e-09
-3.56845e-09
3.32848e-09
-2.13351e-10
4.88798e-11
-3.31455e-10
4.66915e-09
4.21024e-10
2.94857e-09
4.84553e-11
1.98518e-09
1.57072e-09
-7.91019e-09
3.27534e-09
2.64359e-09
-3.93377e-09
3.08845e-09
-2.64572e-11
-5.98217e-09
1.10275e-09
1.12422e-11
4.86814e-09
7.54361e-09
-6.73886e-09
-6.78691e-09
1.31114e-09
7.33522e-09
6.46338e-10
5.33395e-09
-1.41008e-10
3.73591e-09
2.89416e-09
-8.0623e-09
-4.55122e-09
4.11048e-09
3.52919e-09
4.99088e-10
-2.40673e-09
6.03551e-09
-2.64226e-09
1.12477e-09
4.92197e-09
5.09424e-09
-5.29597e-10
5.35281e-09
-3.77045e-10
-4.44617e-09
-2.66426e-09
2.7126e-09
-5.77937e-10
3.08733e-09
-2.0283e-10
-5.54877e-09
-8.43626e-09
3.58134e-09
7.94226e-09
-2.04302e-09
3.25932e-09
4.13652e-09
2.64487e-10
4.05092e-10
2.2812e-09
-4.83946e-09
2.35543e-09
2.53181e-09
-2.03428e-10
-4.71783e-11
2.32619e-09
4.70113e-10
7.94285e-10
3.99811e-10
3.43152e-09
-4.62562e-09
2.19271e-09
9.27772e-10
-1.05428e-09
4.70108e-09
-1.45409e-09
4.2847e-09
-1.37027e-08
6.60784e-09
5.47694e-09
1.61786e-09
-5.01059e-09
-8.53275e-09
2.01676e-08
-6.62426e-09
1.27073e-08
-9.55842e-09
-8.15947e-09
-6.65116e-09
5.65578e-09
-1.19938e-09
-5.1998e-09
1.44519e-08
-8.05269e-09
-4.79851e-09
1.0207e-08
7.98279e-09
-8.5061e-09
-9.03512e-09
5.89885e-10
7.41738e-10
-1.6958e-09
-9.48509e-09
5.9811e-09
-7.58616e-09
1.09182e-09
6.1538e-09
1.79475e-09
-1.64547e-08
9.41761e-09
5.14991e-09
-8.41374e-09
9.03517e-09
9.72329e-10
-8.71567e-09
1.35855e-09
-2.12799e-09
6.08044e-09
-1.26688e-08
8.38311e-09
9.59137e-09
-1.50144e-09
-2.94005e-09
1.10404e-08
-4.13667e-09
3.77956e-09
3.99182e-09
1.32596e-08
-2.10309e-08
7.88015e-09
-3.29865e-08
2.88859e-08
2.10637e-09
-1.47204e-08
1.66059e-08
-2.52663e-08
3.52529e-08
-8.09938e-09
-7.0512e-09
-3.95629e-09
1.91069e-08
-1.4972e-08
-1.82244e-08
2.5097e-08
-2.67605e-08
9.42097e-09
-1.56469e-08
-1.71407e-08
-2.23417e-08
1.42161e-08
-5.60196e-10
1.52589e-08
-1.97094e-08
5.01079e-09
-2.31641e-08
5.46323e-09
-1.63274e-08
7.06952e-09
2.2067e-09
1.89735e-08
-1.05113e-08
-2.47897e-08
-8.79103e-09
-8.8108e-09
-4.73987e-09
-1.28847e-08
-2.26669e-08
-1.65873e-08
1.71259e-08
-9.2245e-09
-5.10455e-09
-5.38039e-09
-1.83458e-08
-1.40427e-08
2.16798e-08
-7.81084e-09
1.2162e-08
1.40799e-08
-3.26958e-08
8.10467e-09
-1.30768e-08
1.80572e-09
-3.68284e-09
8.27311e-09
-6.39597e-09
-3.19792e-09
7.48923e-09
-2.48559e-09
5.25676e-09
-9.25582e-09
1.55194e-09
2.44713e-09
-2.35214e-09
1.36906e-09
6.23984e-09
6.46821e-09
-5.33786e-10
-5.32074e-09
-6.13682e-10
-8.35681e-10
4.95176e-09
5.47492e-09
-1.40413e-09
-1.43029e-09
-2.64049e-09
8.95486e-10
3.74376e-09
-3.37569e-10
3.18763e-09
-6.53289e-09
2.85754e-09
-6.39302e-09
1.13029e-08
1.48781e-09
-5.30145e-09
-1.51649e-09
6.88039e-09
5.9744e-09
1.06892e-08
-2.43978e-09
4.01269e-09
4.36326e-09
-5.51841e-09
-2.17723e-09
7.67773e-09
7.89063e-09
-4.93149e-09
5.99286e-09
2.79326e-09
-3.56339e-09
1.35838e-09
-7.88066e-09
-9.27905e-09
1.58014e-08
-1.17501e-08
-1.2034e-08
2.51425e-08
1.06348e-08
9.37408e-10
-2.02154e-08
8.64323e-09
-1.33389e-08
1.22235e-08
6.20897e-09
-2.20555e-08
7.9659e-09
-2.21649e-08
1.63399e-08
-7.55693e-09
-2.66954e-08
2.49733e-08
-1.17538e-08
5.13432e-09
6.81932e-09
-2.11171e-08
9.58931e-10
-2.28695e-08
7.52394e-09
-1.84312e-08
5.94711e-09
-8.63296e-09
-7.13841e-09
1.36855e-08
-2.49783e-08
-2.08648e-08
-2.1998e-08
1.61673e-08
-2.38406e-08
-8.77797e-09
1.93859e-08
1.39834e-08
-4.05077e-08
1.11265e-08
-1.55813e-08
3.09311e-08
1.53592e-08
-3.23068e-08
7.56493e-10
8.17664e-09
1.88811e-09
-1.10721e-08
-3.14178e-09
3.03084e-08
-1.30611e-08
9.00933e-09
-6.09114e-09
2.21798e-08
-1.50119e-08
-1.07673e-09
-2.96723e-09
1.71548e-08
-2.02787e-08
-1.67755e-08
9.82864e-10
2.44606e-08
-8.66793e-09
-1.18159e-08
-8.91589e-09
1.29099e-08
-2.07414e-08
4.86435e-09
1.42193e-09
1.85867e-08
2.17116e-09
3.60469e-09
5.5196e-09
-1.2881e-08
6.21961e-09
1.14181e-09
-1.19803e-08
1.84827e-08
6.5501e-09
-5.45615e-09
-1.88596e-08
-6.75255e-09
1.36319e-08
8.63845e-10
-1.31734e-08
1.19299e-08
7.21042e-09
-2.58929e-08
1.76356e-08
-1.01279e-08
-9.46301e-09
1.35449e-08
6.04594e-09
1.55087e-09
-4.07704e-09
-7.60172e-09
4.19166e-09
1.48529e-08
-1.19491e-08
-7.0955e-09
9.82762e-09
-4.08507e-09
-7.94629e-09
1.14072e-08
6.36668e-09
8.24551e-09
-1.33886e-09
9.3569e-09
-8.16689e-09
-1.0653e-08
3.07091e-09
1.66474e-09
6.67152e-09
-1.07436e-08
-2.231e-08
1.31343e-08
1.99192e-08
-1.85975e-08
1.91038e-09
5.94356e-09
4.6293e-10
-1.3416e-08
-7.26345e-09
-1.08711e-08
1.15544e-08
-1.59464e-08
6.30234e-09
-4.67483e-09
1.01278e-09
1.52164e-08
-1.14492e-08
9.84529e-09
-2.52264e-09
-6.81079e-10
5.04532e-09
1.01643e-08
1.91924e-08
1.47785e-08
-1.43527e-08
-7.6893e-09
-3.69056e-09
1.1771e-08
9.86962e-09
-8.11525e-09
-1.35253e-08
1.58867e-08
-6.11474e-09
1.99903e-09
-1.28435e-08
1.90294e-09
1.0129e-08
-5.7929e-09
4.19941e-09
1.35902e-08
9.08865e-09
-1.15128e-10
-1.50883e-08
1.31124e-08
1.55244e-08
-1.71075e-08
-1.15293e-08
-1.70788e-08
3.77132e-09
1.75069e-08
-1.03732e-08
2.38308e-09
1.65367e-09
1.90329e-08
-1.5396e-08
-1.64149e-08
2.184e-08
5.46283e-09
-9.66609e-09
-1.05391e-08
-7.28431e-10
1.93037e-08
1.75413e-08
2.89567e-09
-4.91249e-09
-1.30528e-08
4.18597e-09
-7.54795e-09
-5.88477e-09
6.54305e-09
3.91928e-09
-2.39383e-09
-1.51585e-09
5.3165e-09
-5.70915e-09
1.90869e-09
7.09079e-09
-2.06355e-09
1.50976e-08
-2.69027e-09
8.18039e-09
-2.21507e-09
1.81799e-09
6.90771e-09
2.18599e-09
4.58441e-09
1.73521e-08
3.6655e-09
6.7009e-09
-1.15985e-08
1.97043e-09
9.90824e-09
-2.80143e-10
-8.6672e-09
1.19161e-08
-1.48475e-08
2.35753e-09
-1.3757e-08
-1.26931e-09
-1.1941e-08
-2.64775e-09
1.59473e-08
-1.21797e-08
1.50954e-08
-1.48567e-08
-1.21123e-08
1.57422e-08
-1.27245e-09
-1.23342e-08
1.16569e-08
-6.14824e-09
-1.83657e-08
-1.52201e-08
1.52632e-08
-4.63748e-09
4.59441e-09
-2.74093e-09
-4.55239e-10
-1.20239e-08
5.5449e-10
-5.83915e-09
1.07829e-09
4.20633e-09
-9.28136e-09
7.10944e-09
2.72643e-09
6.49532e-09
-5.13513e-10
8.88273e-09
-2.05407e-09
-9.56961e-09
-1.59391e-09
1.36001e-09
-2.34036e-09
-6.79996e-09
7.78032e-09
-8.20179e-09
1.06359e-08
-1.07412e-09
-1.65262e-08
1.03791e-08
1.26424e-08
-3.58529e-09
-1.33962e-08
-5.71502e-09
4.45295e-09
4.3726e-09
-1.25434e-08
-3.09611e-11
-5.02898e-09
2.60161e-09
1.08042e-08
3.33941e-09
-2.64156e-10
-1.38794e-08
9.06042e-09
2.39457e-09
-6.50862e-10
-8.46478e-09
-2.27922e-09
-9.8589e-09
6.37588e-09
-1.01048e-08
-7.97228e-09
1.90206e-09
-1.02905e-08
4.71391e-09
-9.26321e-09
3.65182e-09
8.97452e-10
4.92071e-09
-6.54147e-09
6.33468e-09
-9.61536e-10
-5.21033e-10
6.40328e-09
-6.30386e-10
-6.35251e-09
6.02135e-09
-3.95423e-09
3.37588e-09
-2.8558e-09
3.43415e-09
-3.01006e-10
-3.62085e-09
-3.23673e-11
8.37407e-10
-4.55509e-09
3.0873e-09
3.69226e-09
6.75697e-09
-5.90818e-09
-1.0112e-08
-8.35192e-10
1.05071e-09
-6.134e-09
3.4333e-09
-9.21719e-09
-1.50281e-09
4.58602e-09
1.69394e-09
-1.25001e-09
-9.66111e-09
8.30261e-09
-2.04927e-10
-6.40374e-09
4.40283e-09
2.39696e-09
-3.34245e-09
3.19019e-09
-3.54902e-09
-9.44263e-11
-4.50858e-09
8.17597e-10
-4.21589e-09
-3.91353e-09
6.4715e-10
-7.80535e-09
-8.49653e-10
-2.90429e-09
-4.41839e-09
1.04781e-08
-6.45607e-09
2.81917e-09
-6.84116e-09
-3.20458e-09
1.39194e-09
7.27639e-09
-1.23546e-08
6.83922e-09
-2.76741e-09
-6.89861e-09
-5.96172e-10
-6.17187e-09
-8.7868e-09
-1.58136e-08
-1.26514e-08
-1.17409e-08
8.511e-09
-5.92238e-09
1.06108e-08
-1.31994e-08
1.007e-08
-6.4585e-11
-1.49445e-09
1.11255e-09
6.4763e-10
-7.68256e-09
7.81338e-10
6.02064e-09
-5.68943e-09
-9.61249e-10
-4.5365e-09
6.27909e-09
5.88293e-09
-6.19655e-09
-1.04981e-08
1.21445e-08
8.42371e-09
5.44584e-09
-5.33318e-09
-4.45652e-09
-2.72688e-10
4.33651e-10
4.29556e-09
-1.7478e-09
-2.67614e-09
-3.25808e-11
6.07961e-09
-7.35669e-10
6.76684e-10
5.76679e-09
5.07548e-09
-4.95934e-09
6.69836e-09
-9.96154e-10
-1.18317e-08
-3.063e-10
-3.33899e-10
1.24719e-08
-3.06241e-10
-3.67698e-09
-6.16139e-11
3.4659e-09
-5.13419e-09
-2.9058e-10
-5.65971e-09
5.78706e-09
-2.10877e-09
-6.22709e-09
-1.37211e-09
-4.04867e-09
2.86583e-10
-3.65275e-09
6.76455e-09
3.58656e-09
5.06246e-11
-3.36475e-10
1.2147e-08
6.36645e-09
-1.376e-08
3.90479e-09
1.48646e-08
-5.00938e-09
-9.29589e-09
-1.18704e-08
7.40628e-09
1.60052e-08
-9.4817e-09
-1.04973e-08
3.97378e-09
2.81371e-09
1.22372e-08
9.54227e-10
1.45362e-08
3.72754e-09
-4.71375e-09
-1.355e-08
-9.90856e-09
9.83967e-09
1.46051e-08
-7.5724e-10
-5.42378e-09
4.47498e-09
-8.65241e-10
-1.06379e-08
7.02814e-09
-1.45054e-09
-1.25591e-08
-9.40481e-09
3.44047e-09
8.77805e-09
2.9017e-09
-1.20258e-08
-2.8071e-10
-7.74763e-09
1.90104e-09
-3.63512e-09
-7.02392e-10
1.44469e-08
8.6072e-09
-8.11387e-09
2.40838e-09
1.13453e-08
-4.39614e-09
-1.51156e-08
8.82654e-09
3.31171e-09
-1.25099e-08
-8.4797e-09
-1.64507e-09
-9.56412e-09
-5.29669e-09
4.0412e-10
2.73018e-09
5.09098e-09
-5.66249e-09
-4.72517e-09
8.44082e-09
-7.54789e-09
-8.82237e-09
7.92944e-09
5.90982e-09
2.93513e-09
-4.16867e-09
3.3054e-09
3.59347e-09
1.2301e-09
-3.07785e-10
4.2137e-09
9.5208e-09
-7.82466e-09
6.3698e-09
6.55771e-09
-2.27001e-09
-1.06575e-08
-4.57456e-09
3.26092e-09
4.61905e-09
-3.27236e-09
-7.21046e-11
1.02494e-09
-9.54989e-09
2.86245e-09
4.1563e-09
-1.06792e-08
-1.94437e-09
-3.47735e-09
5.24677e-09
1.74973e-10
1.42506e-10
1.0441e-08
1.76579e-09
-4.90452e-09
-1.33629e-10
3.3075e-09
-5.96746e-09
6.28186e-09
-3.62189e-09
5.09198e-09
-1.86952e-11
1.39888e-10
-3.59717e-09
7.61359e-09
-2.62286e-09
-3.2047e-09
-5.25083e-09
8.65427e-09
-4.67787e-09
4.51903e-09
5.06342e-10
1.09767e-09
-3.00894e-09
-8.87331e-09
7.996e-09
3.8863e-09
-1.08769e-08
7.5351e-09
3.32884e-10
-6.68582e-09
1.80331e-09
5.21852e-09
-3.35996e-10
-7.72499e-09
-2.80561e-09
3.8448e-09
-3.76252e-09
-6.712e-09
7.20303e-09
3.27154e-09
-5.95595e-09
2.27353e-09
-8.00368e-11
4.75304e-09
-6.7986e-09
-3.91039e-09
-1.67396e-09
-2.85e-10
-1.32713e-08
1.20763e-09
3.19038e-09
-1.99268e-09
4.29905e-09
-1.55777e-08
9.42608e-09
2.05001e-09
-1.34688e-08
9.28966e-09
-1.53754e-09
1.12141e-09
-7.69925e-09
-2.44471e-09
3.19353e-11
1.04088e-08
6.89369e-09
-2.30574e-09
-4.29784e-09
1.91489e-09
6.51483e-09
-1.2267e-09
-7.05432e-09
6.94065e-09
3.55664e-09
8.88747e-09
-3.02101e-09
-1.29638e-08
2.86827e-09
1.31165e-08
-5.28869e-10
-1.08999e-08
8.4078e-09
-3.05271e-09
-1.57846e-08
-2.32622e-10
1.90699e-08
-2.61128e-09
-8.31437e-09
7.87294e-09
-1.05256e-08
7.38548e-09
-9.07118e-09
-2.00798e-09
1.79208e-10
-4.39678e-09
-1.0735e-08
2.16803e-09
-1.17557e-08
-1.71231e-09
6.95895e-09
-9.51762e-09
-5.75571e-09
-6.71375e-09
-2.11186e-09
-1.50848e-08
1.77205e-08
-1.0347e-08
-2.18658e-09
1.41117e-09
-7.03964e-10
-1.14423e-08
7.47601e-10
-1.10921e-08
-1.11981e-08
-1.06005e-08
-7.3101e-10
-8.86845e-09
7.61231e-10
-1.26633e-08
-9.48741e-09
-1.64923e-08
6.48487e-11
-2.95671e-09
1.93841e-08
2.52038e-08
-4.26326e-09
1.70921e-08
-3.80328e-08
-1.92824e-08
2.79939e-08
7.00029e-09
1.33431e-08
-3.32281e-08
-1.22991e-08
1.45595e-08
2.71588e-08
-1.18521e-08
-2.80357e-08
1.2729e-08
2.8835e-08
-9.95714e-09
8.28101e-09
2.33443e-08
-3.94596e-08
2.76682e-08
-4.25912e-09
-9.52271e-09
-1.50458e-08
-8.12737e-09
-2.49856e-08
3.2555e-08
-9.84893e-10
2.56548e-08
2.99832e-09
2.5865e-08
1.98513e-09
8.43381e-09
3.29976e-09
1.41314e-08
2.17896e-08
1.86091e-08
-2.83862e-08
-5.3722e-09
9.39638e-09
3.45027e-09
-7.47447e-09
-8.01999e-09
2.59063e-09
5.70938e-11
2.52768e-09
-4.66371e-09
-5.88398e-09
4.54161e-09
9.49338e-09
-4.63863e-09
-2.17006e-09
3.23007e-10
4.37469e-09
6.21322e-09
-1.27751e-08
1.96887e-09
4.59298e-09
-5.80632e-09
-1.05471e-08
6.49198e-09
9.86143e-09
1.70436e-09
1.59326e-08
-7.2294e-09
-1.04076e-08
-8.103e-09
1.4349e-08
3.07902e-10
-5.47261e-09
-9.60242e-09
1.47672e-08
-4.77467e-09
9.05035e-09
-1.28191e-08
8.54348e-09
2.44388e-09
-1.16347e-08
4.41618e-09
-6.38938e-09
8.96738e-09
-1.0681e-08
2.39055e-08
-1.45472e-08
9.51755e-09
7.99853e-09
-8.83505e-09
7.83153e-09
-3.30579e-10
3.45808e-10
-7.84675e-09
-9.09305e-10
7.7376e-09
1.00325e-09
-7.86905e-09
6.32636e-09
6.33409e-10
-2.38769e-10
-7.96086e-09
5.98476e-09
4.49872e-11
-5.68394e-09
4.99308e-09
6.6681e-10
3.24874e-10
5.87618e-09
6.85451e-09
6.39074e-09
9.44433e-11
-6.72394e-09
6.87206e-09
5.84504e-09
-4.26338e-09
4.16596e-09
7.64228e-10
-2.24155e-10
-3.99424e-09
3.12937e-10
4.88357e-09
-5.10209e-09
4.68363e-09
-4.59485e-09
-1.72139e-09
4.91485e-09
1.6901e-09
2.94188e-09
2.03779e-11
2.37305e-09
3.90486e-09
-2.11194e-09
5.18912e-09
1.25818e-10
-2.82631e-10
1.1795e-10
5.35381e-09
-1.38937e-10
3.76118e-09
3.48966e-10
5.38831e-09
1.87458e-10
7.03359e-09
5.22026e-09
1.2594e-09
4.01218e-10
-9.05996e-09
7.39937e-09
3.80977e-10
-5.65446e-09
3.73771e-09
-6.52603e-09
-9.94737e-09
1.27357e-08
-2.0304e-09
-1.22839e-09
6.9965e-09
4.14346e-09
-4.68176e-09
3.65549e-09
-3.1172e-09
3.1223e-10
3.72404e-09
1.07196e-10
8.62935e-10
5.12243e-09
-5.58415e-09
-3.43784e-09
4.23896e-09
5.39848e-09
-4.515e-09
4.40842e-09
1.42772e-10
2.4672e-10
-1.54623e-10
3.90605e-09
6.47065e-11
3.74096e-09
-3.72875e-10
5.05891e-09
3.09046e-09
-7.62213e-10
4.05459e-09
4.55348e-09
-2.56781e-10
4.03883e-09
9.08948e-11
-1.04516e-08
6.32187e-09
2.58697e-09
-5.11498e-09
6.56679e-09
3.05285e-10
6.75306e-09
-4.47137e-09
5.51668e-09
-1.39819e-08
3.42552e-09
-1.00912e-08
1.21823e-08
-6.3517e-09
1.00825e-08
1.72254e-08
-5.3123e-09
-4.93521e-10
-1.14196e-08
4.32846e-09
2.80578e-09
1.96428e-10
-8.55198e-09
-2.09605e-09
-4.07829e-09
-8.40265e-10
-1.06192e-08
2.08763e-09
4.45326e-09
4.49723e-09
-5.32683e-09
-6.27557e-09
7.10514e-09
-3.32556e-09
-2.79641e-09
3.95952e-09
5.63591e-10
-9.84997e-09
7.80215e-09
-9.15493e-09
-4.82106e-09
-9.65436e-09
-7.60193e-09
1.72016e-09
-4.69945e-10
4.52869e-09
3.30888e-09
-6.07085e-09
-1.00642e-08
2.81761e-09
7.03165e-09
-3.29799e-09
-1.12477e-09
3.89897e-09
4.33995e-11
-1.24314e-09
-3.84399e-09
1.33647e-09
3.75065e-09
6.77095e-10
4.10638e-09
-6.02662e-09
-2.58678e-09
-1.2623e-09
5.07964e-12
-1.54003e-11
-2.99801e-09
1.71182e-10
-9.60715e-09
1.2434e-08
-9.81264e-09
7.49173e-09
-4.91434e-09
4.54845e-09
4.26486e-09
3.61064e-10
1.75625e-09
6.0561e-09
-4.98221e-09
-1.22238e-09
6.29757e-09
-9.29801e-11
-4.5204e-09
4.04875e-09
-6.09813e-09
-7.93157e-09
4.42253e-09
-6.09887e-09
-9.81192e-09
3.01235e-09
3.58922e-09
1.36089e-08
-8.26686e-09
-8.93119e-09
1.09062e-08
-1.40155e-09
-5.91546e-09
1.41174e-08
1.21314e-08
-1.53425e-08
-2.89854e-09
7.207e-09
9.80894e-09
4.11915e-09
5.11368e-09
1.32299e-08
-1.07934e-08
-5.57828e-09
9.16669e-09
5.40111e-09
-1.73086e-08
5.5583e-09
-9.29331e-09
2.10437e-08
-1.52286e-08
6.5632e-09
5.45768e-09
1.0916e-08
2.32395e-08
6.50996e-09
-8.50865e-09
1.3358e-09
-2.20792e-08
8.39734e-09
-1.49505e-09
-4.09054e-10
-1.09912e-08
-1.06789e-08
2.34405e-08
-1.16487e-08
-1.22009e-08
7.05357e-09
3.14587e-08
3.16849e-09
-2.17863e-08
-1.28409e-08
-2.0151e-08
5.67017e-09
1.29858e-08
-1.74795e-08
-1.36628e-08
-1.57132e-08
-4.90643e-09
-1.39622e-08
-4.01004e-08
2.04253e-08
1.40314e-08
5.64366e-09
-7.1194e-09
-1.40249e-08
-1.0264e-08
8.81476e-09
-7.96152e-09
3.44104e-09
-9.50442e-09
-1.05583e-09
-1.71696e-08
3.07194e-09
2.79402e-09
-7.5582e-09
1.69219e-09
5.55632e-09
-1.32444e-09
-1.15996e-09
-3.59137e-09
4.45922e-09
6.08623e-09
-6.95412e-09
4.61551e-10
-5.49526e-09
1.44231e-09
6.3642e-09
-8.63761e-09
5.06741e-09
6.8032e-09
-5.71761e-09
4.47072e-09
2.31473e-09
8.94769e-09
-8.78931e-10
3.65039e-09
3.59272e-09
2.90229e-09
1.57542e-09
-5.35666e-09
9.40757e-09
-4.19057e-09
-1.99096e-10
-2.43482e-09
-9.77163e-09
-2.19034e-09
1.07185e-08
-8.72718e-09
-2.17869e-09
8.65786e-09
-8.91397e-09
-1.58297e-10
6.08402e-09
-8.1044e-09
1.61428e-09
4.99648e-09
-6.76905e-09
5.95415e-09
-6.5302e-09
5.91525e-10
2.03731e-09
-8.88702e-10
7.73749e-11
5.83632e-09
-6.4098e-10
1.6775e-09
-1.39934e-09
-3.38852e-09
2.36102e-10
1.60711e-09
8.61014e-13
3.09748e-09
5.70181e-09
-2.84512e-09
4.67034e-09
3.42503e-11
5.01908e-09
1.27426e-09
3.26423e-10
7.5298e-09
-2.96509e-09
-4.89114e-09
7.06468e-09
-2.52119e-09
-4.21707e-09
-7.51113e-11
-7.3671e-09
5.63216e-09
1.81007e-09
-5.00769e-09
3.95445e-09
9.78165e-10
4.07452e-09
2.18337e-09
1.27191e-09
6.13151e-09
-2.10046e-09
5.496e-09
-6.36063e-09
7.07119e-09
3.91646e-09
-1.30881e-08
6.35201e-09
1.11512e-08
-1.0432e-08
8.11531e-09
-6.72003e-09
8.98775e-10
-1.50565e-10
-8.07336e-11
-4.27269e-09
8.3079e-09
-5.98257e-09
1.1534e-08
1.68538e-09
9.18717e-09
-5.37654e-09
1.36258e-08
-5.58836e-09
-4.99894e-09
2.90963e-09
-1.51955e-09
5.70778e-09
5.93323e-09
6.17298e-09
1.09851e-08
1.06486e-09
1.09358e-08
-6.10125e-09
1.33658e-08
-6.17086e-09
-5.9466e-09
-1.30056e-09
1.1459e-09
-5.66777e-09
-9.203e-09
7.83386e-09
7.03691e-09
-4.65515e-11
-5.3726e-09
-2.4862e-10
-1.31084e-09
7.16053e-09
-1.17963e-08
1.79701e-08
-6.52927e-09
-9.05852e-09
-2.38236e-09
8.14808e-09
-6.5024e-09
-4.93372e-10
-4.39671e-10
9.30985e-09
-1.41763e-08
-1.66278e-09
-6.76241e-09
-9.70667e-10
-6.88534e-09
8.85925e-09
-7.73522e-09
7.39796e-09
8.36369e-09
1.12215e-08
-1.13331e-08
-8.25221e-09
1.11362e-08
-3.07193e-09
2.99415e-10
6.16069e-09
2.39368e-09
2.66718e-09
9.33601e-09
-1.01159e-08
4.77432e-09
1.33294e-08
-1.62349e-08
1.18216e-08
-7.59277e-09
-3.36499e-09
1.85682e-08
-3.91928e-09
9.35585e-09
2.45208e-09
-7.88871e-09
-5.82082e-11
-1.51941e-08
6.91609e-09
-6.32185e-10
2.9057e-09
-1.17209e-08
8.75695e-09
1.17337e-08
-4.10992e-09
3.17925e-09
1.72437e-08
-1.05105e-08
5.32268e-09
-1.20558e-08
4.95083e-09
1.08339e-08
1.45895e-09
-6.07717e-09
1.37877e-08
-1.92599e-08
1.15494e-08
1.30385e-08
7.32749e-09
-2.64431e-08
1.47987e-08
-6.98065e-09
-1.83285e-08
1.48003e-08
4.94923e-09
1.14748e-08
-1.03273e-09
-5.11935e-09
1.44673e-08
7.84134e-09
-7.78946e-09
-1.10226e-08
-2.12603e-10
1.90247e-08
-2.67182e-09
8.67008e-09
6.54358e-09
5.25192e-09
-1.84879e-08
7.35052e-09
1.7681e-08
-1.11097e-08
1.31256e-08
-8.24639e-09
-1.20462e-08
-9.3474e-09
2.92134e-09
1.71165e-08
-1.06904e-08
1.04737e-09
-1.73754e-08
-4.11347e-09
4.25849e-10
-1.01864e-08
1.73244e-08
1.00937e-08
-1.90608e-08
1.00145e-08
2.46718e-08
-1.16568e-08
1.54631e-08
-2.46012e-09
3.57839e-09
9.98374e-09
8.8551e-09
1.617e-09
1.2275e-09
1.4292e-08
-1.71365e-08
3.12133e-09
1.74587e-08
-1.89631e-08
3.37176e-09
1.91194e-08
-2.12638e-08
1.97433e-08
1.04905e-09
-1.74206e-08
-1.51227e-08
3.14993e-08
-1.38437e-08
-2.53298e-09
2.01435e-08
-1.5523e-08
2.04581e-08
-1.62878e-08
-7.86318e-09
2.9186e-08
2.72266e-08
-1.7631e-08
2.0748e-08
1.7077e-08
-1.05984e-08
-3.92181e-09
1.22313e-08
1.24385e-08
-1.69374e-08
-8.15449e-10
3.35741e-09
1.43954e-08
-1.77006e-08
1.98825e-08
1.48664e-08
4.46165e-09
1.75002e-08
2.88655e-08
1.64472e-08
-9.83269e-09
1.17041e-08
3.33425e-08
1.81627e-10
1.31125e-08
3.24613e-08
-7.42008e-09
-4.69348e-09
-3.2798e-09
3.7562e-09
1.05708e-10
-4.64658e-09
-1.526e-10
-4.61283e-09
-4.47518e-09
4.19686e-09
-4.33909e-09
-1.68027e-10
-4.81665e-09
4.45037e-10
1.09181e-09
-5.38325e-09
-4.07999e-09
-8.94171e-09
5.31316e-10
3.93522e-09
-2.04262e-09
-7.1495e-10
-6.18413e-09
-2.38768e-09
-3.99402e-09
1.13751e-08
-3.31203e-09
5.54581e-09
-3.51278e-10
-7.41965e-09
2.19501e-09
5.88562e-09
-8.43195e-09
1.11202e-08
-8.19236e-09
1.91736e-09
-2.0833e-09
-2.23439e-10
-4.05121e-09
-1.6072e-09
-3.26408e-09
2.99558e-11
-4.76088e-09
3.34199e-09
-1.88287e-10
4.39049e-09
-4.25221e-09
-1.64097e-10
2.58132e-11
4.06513e-10
4.06441e-09
-8.043e-11
-3.62497e-09
4.08991e-09
-5.84195e-11
4.60135e-09
-4.86455e-09
4.95877e-11
2.13625e-10
-1.06508e-09
4.18423e-09
-2.999e-09
-1.20137e-10
3.70474e-09
-1.68451e-10
-6.66933e-11
3.78745e-09
-1.59983e-11
-4.81809e-09
-2.90673e-11
1.61263e-11
-9.83307e-10
-3.9801e-09
1.45341e-10
-4.71955e-09
1.96932e-11
-2.96724e-09
4.6132e-09
-1.59322e-09
-5.27201e-11
1.6023e-09
-4.45694e-09
-1.12584e-10
-2.6519e-09
4.21827e-09
3.59385e-11
-4.28969e-09
1.71716e-09
-7.93532e-11
9.05376e-10
4.26094e-09
-4.99079e-09
-1.75523e-10
-3.40457e-09
4.43815e-09
-1.28196e-10
1.82976e-09
-4.99121e-09
-2.43096e-10
3.33339e-09
-1.96686e-10
-3.15375e-09
1.7051e-11
2.95534e-11
3.32661e-09
-2.27805e-11
2.61353e-09
-2.56001e-09
-2.39535e-11
4.13424e-09
-1.58183e-09
6.1127e-11
2.283e-09
-6.33037e-09
4.24833e-09
-2.00951e-10
-2.41704e-09
4.72591e-09
-2.58644e-11
3.47981e-09
-5.66145e-09
-2.35402e-10
-1.59534e-09
5.07108e-09
4.07281e-12
-2.20481e-10
-3.97209e-09
4.1668e-09
2.57655e-11
-4.84921e-09
4.6309e-09
-2.16613e-12
-3.86575e-09
-1.12841e-09
1.44918e-10
-1.60763e-09
4.94351e-09
-3.27861e-09
-5.72347e-11
-4.96999e-09
-2.5951e-10
3.82871e-09
2.21165e-09
-5.89334e-09
-1.47022e-10
-2.332e-09
6.05064e-09
1.10061e-10
4.01555e-09
-6.2636e-09
-8.3954e-11
2.31449e-10
3.21712e-09
-3.4322e-09
-1.63592e-11
-3.24718e-09
3.43204e-09
4.65839e-11
-3.56679e-09
3.02988e-10
1.66196e-11
-1.93926e-10
3.97982e-09
-2.9262e-09
-8.59712e-10
3.71957e-09
-3.10994e-09
-8.03563e-10
6.13861e-10
3.98797e-09
-4.52579e-09
-7.60221e-11
-4.7492e-09
3.32732e-11
-3.17648e-10
4.32918e-09
-2.35528e-11
-3.6658e-10
4.94958e-09
-4.53216e-09
-5.0845e-11
-5.1366e-09
4.8792e-09
-1.09174e-10
-3.34888e-09
5.04778e-09
-1.84088e-09
1.41974e-10
1.65934e-09
-4.9323e-09
-7.59154e-11
4.96207e-09
-3.3795e-09
7.67603e-11
2.52218e-09
-4.41842e-09
1.99204e-09
-9.577e-11
-1.91864e-09
4.30571e-09
1.35119e-10
2.53845e-09
-4.48124e-09
2.4124e-11
-2.34723e-09
4.77921e-09
1.06454e-10
2.51124e-10
-4.13804e-09
-2.66004e-11
4.23529e-09
-3.97664e-09
-7.50857e-12
-2.5767e-10
-3.71565e-09
3.96069e-09
1.26254e-11
3.69678e-09
-3.94572e-09
-8.73086e-12
4.69041e-10
-4.16852e-09
-1.61801e-11
1.8352e-09
3.04395e-09
-4.72602e-09
-1.5314e-10
-2.89906e-09
4.71101e-09
2.32506e-11
1.81472e-09
-4.72007e-09
6.25855e-12
1.50749e-09
2.62734e-09
-4.06449e-09
-7.03405e-11
4.59585e-09
-3.12947e-09
4.10932e-11
-1.99243e-09
4.55188e-09
6.78728e-11
1.32057e-09
3.63781e-09
-4.94182e-09
-1.65663e-11
4.84706e-09
6.00714e-11
-1.60865e-09
5.1552e-09
9.12463e-11
3.33374e-10
2.87235e-09
-1.15261e-10
-1.94494e-09
2.33006e-09
-5.17444e-11
-3.21939e-09
1.40937e-09
-1.34915e-10
-1.32661e-09
5.01817e-09
-3.69092e-09
-6.49819e-13
-5.67693e-09
4.53394e-09
-1.83639e-10
4.24478e-09
-5.10358e-09
2.04084e-10
6.54712e-10
3.90632e-09
-3.96312e-09
8.22799e-11
-2.54986e-11
3.87692e-10
3.5313e-09
-1.26685e-11
3.96225e-09
-3.61815e-09
4.35955e-11
2.77947e-10
3.71235e-09
-2.80402e-11
1.12794e-09
3.39132e-09
-4.36536e-09
-1.53916e-10
-8.6096e-11
4.93907e-09
-1.53513e-09
-1.26225e-11
1.04951e-09
2.70173e-09
-3.36011e-09
-3.9113e-10
4.15156e-09
-2.62612e-09
-4.75919e-10
5.05922e-09
-2.49859e-09
1.41096e-10
-1.79472e-09
-3.07162e-09
4.81202e-09
5.4287e-11
3.21259e-09
-4.99099e-09
-1.63495e-11
-1.43859e-09
4.48425e-09
1.66927e-10
3.29698e-09
-4.75226e-09
1.66487e-11
4.17095e-09
-6.15872e-09
2.10353e-09
-1.15768e-10
-1.23342e-09
5.43133e-09
-2.6979e-11
3.76375e-09
-4.83312e-09
-1.64079e-10
5.54594e-09
-1.80014e-09
1.79243e-11
-1.30236e-09
-3.48426e-09
4.83839e-09
-5.17528e-11
3.84461e-09
-4.87852e-09
-2.68449e-10
1.59683e-09
2.96781e-09
-4.44437e-09
-1.20249e-10
4.66639e-09
-3.09539e-09
2.58309e-11
7.83215e-11
-4.92826e-09
4.83518e-09
1.47422e-11
-4.58529e-09
4.65949e-09
4.11805e-12
-1.56722e-09
4.73631e-09
-3.38723e-09
2.18142e-10
-5.05937e-09
9.39698e-11
-1.59171e-10
-3.26777e-09
3.41523e-09
1.17234e-11
-3.50811e-09
3.37588e-09
-2.69426e-11
4.07906e-10
-3.73433e-09
5.86551e-11
-1.43966e-10
-3.92529e-09
4.08923e-09
-2.0001e-11
3.92821e-09
-4.05106e-09
-2.11269e-11
3.26634e-09
1.75589e-09