/*--------------------------------*- C++ -*----------------------------------*\
| =========                 |                                                 |
| \\      /  F ield         | OpenFOAM: The Open Source CFD Toolbox           |
|  \\    /   O peration     | Version:  v1612+                                |
|   \\  /    A nd           | Web:      www.OpenFOAM.com                      |
|    \\/     M anipulation  |                                                 |
\*---------------------------------------------------------------------------*/
FoamFile
{
    version     2.0;
    format      ascii;
    class       volVectorField;
    location    "150";
    object      U;
}
// * * * * * * * * * * * * * * * * * * * * * * * * * * * * * * * * * * * * * //

dimensions      [0 1 -1 0 0 0 0];

internalField   nonuniform List<vector> 
17019
(
(0.237502 0.768722 0.139202)
(0.22834 0.450112 0.00810191)
(0.214478 0.412025 -0.00113053)
(0.261001 0.770401 -0.00978286)
(0.256995 0.728459 -0.0150429)
(0.229039 0.638032 -0.015874)
(0.259126 0.737697 0.000790944)
(0.232336 0.673971 -0.00493562)
(0.333317 0.589853 -0.0117068)
(0.323083 0.590287 -0.00996281)
(0.310562 0.567589 -0.0264347)
(0.313842 0.64199 -0.0760494)
(0.324886 0.622103 -0.0688463)
(0.329761 0.635965 -0.0633786)
(0.327185 0.608684 -0.0404277)
(0.307584 0.624775 -0.0613155)
(0.319065 0.653774 -0.0700827)
(0.294161 0.530274 -0.0228421)
(0.310316 0.599226 -0.0565959)
(0.312096 0.608292 -0.0527508)
(0.297048 0.618313 -0.0606669)
(0.286454 0.571663 -0.0464888)
(0.179319 0.430825 -0.0068396)
(0.193494 0.451947 -0.00814062)
(0.167828 0.43125 -0.00578156)
(0.204499 0.488978 -0.00949054)
(0.210353 0.488796 -0.00904444)
(0.190597 0.449207 -0.0076919)
(0.280262 0.978672 0.00796214)
(0.280276 1.00049 0.0124542)
(0.2787 0.96619 0.0064369)
(0.284129 0.94483 -0.0116886)
(0.26256 0.888501 -0.00450099)
(0.261175 0.915623 -0.00175997)
(0.30274 0.986208 -0.0232076)
(0.284855 0.948382 -0.0122)
(0.306998 0.996046 -0.0141684)
(0.301147 0.979254 -0.0147006)
(0.336328 1.04044 -0.0353197)
(0.30851 0.996783 -0.0237412)
(0.30195 0.9811 -0.0151301)
(0.419888 1.10404 -0.0377265)
(0.391618 1.0707 -0.0408478)
(0.361592 1.02648 -0.0284953)
(0.413669 1.06478 -0.0339777)
(0.34294 0.936922 -0.0200833)
(0.367664 1.01057 -0.0321254)
(0.36666 0.992289 -0.0211924)
(0.347252 0.957801 -0.0211045)
(0.359564 0.934816 -0.0124029)
(0.374722 0.9781 -0.0182804)
(0.366374 0.978091 -0.0176137)
(0.348289 0.97327 -0.0252405)
(0.340525 0.950565 -0.0142161)
(0.35819 0.935197 -0.015283)
(0.327794 0.874484 -0.0127196)
(0.327555 0.889586 -0.0148036)
(0.36973 0.921743 -0.0106387)
(0.356427 0.891956 -0.00363879)
(0.390433 0.969631 -0.0140444)
(0.399923 0.968267 -0.000272827)
(0.426398 1.0545 -0.0222416)
(0.375221 0.946422 -0.00869025)
(0.360658 0.911274 -0.0112498)
(0.396376 0.959468 0.00248253)
(0.398038 0.965265 0.00141605)
(0.362931 0.885947 0.00138331)
(0.34835 0.840159 0.00353769)
(0.418966 1.03569 -0.0108586)
(0.431778 1.06037 -0.0173603)
(0.429432 1.07229 -0.0125277)
(0.444461 1.09356 -0.0140782)
(0.360516 0.867588 0.0059782)
(0.380074 0.972373 -0.0111219)
(0.378679 0.956142 -0.0362129)
(0.3714 0.911135 -0.0541826)
(0.351723 0.896711 -0.0316669)
(0.345093 0.759546 -0.0711989)
(0.340022 0.746721 -0.0741483)
(0.317091 0.767737 -0.0791622)
(0.374804 0.946376 -0.040837)
(0.346079 0.910431 -0.0230721)
(0.327888 0.81411 -0.0416461)
(0.319948 0.728388 -0.0615655)
(0.374478 0.880552 -0.0584873)
(0.382488 0.914847 -0.0689003)
(0.32844 0.828725 -0.0558696)
(0.372611 0.836674 -0.0638132)
(0.357646 0.852772 -0.0521227)
(0.363186 0.936562 -0.0249248)
(0.344854 0.882939 -0.0310911)
(0.326417 0.815406 -0.0484629)
(0.341995 0.768601 -0.0755097)
(0.330184 0.684505 0.0394248)
(0.335959 0.702629 0.0479594)
(0.344942 0.743921 0.04335)
(0.335712 0.711612 0.0487664)
(0.306742 0.615145 0.0548845)
(0.308315 0.627066 0.0427211)
(0.334503 0.703808 0.0401637)
(0.307499 0.677981 0.0679353)
(0.300438 0.642346 0.0677266)
(0.326014 0.695713 0.0504538)
(0.313508 0.692332 0.072459)
(0.329157 0.722426 0.0589842)
(0.305313 0.616975 0.0615488)
(0.320185 0.7065 0.0652846)
(0.299768 0.666586 0.072216)
(0.285804 0.632895 0.069453)
(0.295344 0.615695 0.0681241)
(0.318451 0.662777 -0.0821946)
(0.297514 0.605145 -0.0482275)
(0.301626 0.594319 -0.0328822)
(0.316494 0.606636 -0.0379881)
(0.307713 0.608945 -0.0499316)
(0.296038 0.585456 -0.0348259)
(0.332692 0.613655 -0.0317316)
(0.312086 0.623601 -0.0544685)
(0.291763 0.598341 -0.0465789)
(0.297002 0.628485 -0.052307)
(0.31418 0.610171 -0.0378073)
(0.304472 0.609988 -0.0455432)
(0.324991 0.68474 -0.0784862)
(0.320217 0.647115 -0.0581061)
(0.317212 0.601267 -0.0245443)
(0.314865 0.603668 -0.0273028)
(0.318573 0.651993 -0.0751985)
(0.326439 0.633509 -0.0471994)
(0.325733 0.645076 -0.0636859)
(0.449495 1.065 0.0234417)
(0.454725 1.07377 0.0253544)
(0.444375 1.03652 0.027748)
(0.442359 1.05641 0.0135689)
(0.433046 1.02944 0.0154853)
(0.455942 1.1145 0.0063933)
(0.449955 1.10636 -0.00315094)
(0.452279 1.07384 0.00717249)
(0.448439 1.06118 0.0146601)
(0.452042 1.08151 -0.00206647)
(0.457019 1.1088 0.00490648)
(0.450059 1.07987 -0.00559133)
(0.392162 0.890701 -0.109066)
(0.412565 0.927063 -0.106559)
(0.400783 0.905287 -0.106988)
(0.416251 0.958687 -0.105268)
(0.414563 0.97656 -0.096219)
(0.433115 0.993773 -0.0780051)
(0.413701 0.96169 -0.0991441)
(0.458206 1.05126 -0.0682776)
(0.449696 1.01269 -0.0730312)
(0.452219 1.03592 -0.0751824)
(0.435451 1.00185 -0.0863969)
(0.440561 1.01878 -0.0872408)
(0.453235 1.02279 -0.0736325)
(0.444665 1.03 -0.058705)
(0.432383 0.940084 -0.0992547)
(0.445966 1.04106 -0.0769541)
(0.295147 0.473288 0.0184675)
(0.293496 0.450071 0.0331954)
(0.321241 0.514577 0.0645979)
(0.337357 0.529585 0.0357046)
(0.29805 0.477716 0.0541514)
(0.343516 0.539185 0.0233232)
(0.298926 0.455489 0.0396818)
(0.298873 0.47587 0.0530667)
(0.255924 0.404481 0.0543067)
(0.236855 0.37523 0.0595687)
(0.257942 0.415462 0.0665507)
(0.246504 0.393848 0.0606488)
(0.280045 0.438754 0.0598069)
(0.253799 0.410375 0.0520183)
(0.271898 0.432802 0.0506095)
(0.284519 0.459442 0.0791985)
(0.271332 0.452471 0.0808069)
(0.243551 0.403405 0.0681405)
(0.303524 0.490938 0.0628075)
(0.306562 0.491637 0.0553858)
(0.270659 0.433836 0.0538855)
(0.308919 0.511338 0.0732405)
(0.282221 0.461733 0.0711166)
(0.260504 0.431302 0.0676367)
(0.309296 0.510505 0.0706241)
(0.234728 0.52932 -0.0341515)
(0.237523 0.520848 -0.0306776)
(0.256819 0.552044 -0.0408778)
(0.261259 0.547088 -0.038301)
(0.207118 0.437983 -0.029633)
(0.211923 0.460018 -0.031079)
(0.201874 0.41847 -0.0208005)
(0.215781 0.427889 -0.0222866)
(0.251325 0.496621 -0.0237635)
(0.24883 0.479418 -0.0201868)
(0.215619 0.401715 -0.0238418)
(0.205132 0.396135 -0.0232765)
(0.20898 0.39191 -0.0112224)
(0.191208 0.365783 -0.0111267)
(0.210212 0.391347 -0.0131841)
(0.22031 0.413994 -0.0139712)
(0.204277 0.395263 -0.0186864)
(0.215908 0.416982 -0.0244818)
(0.245693 0.475984 -0.034362)
(0.324665 0.555964 0.0832374)
(0.273336 0.476964 0.100974)
(0.321787 0.628727 0.130648)
(0.314475 0.619473 0.126828)
(0.272193 0.528501 0.115612)
(0.282211 0.538662 0.111753)
(0.279962 0.481687 0.09755)
(0.260837 0.45712 0.0936977)
(0.282334 0.542744 0.119441)
(0.261095 0.499997 0.103424)
(0.249222 0.473645 0.096142)
(0.292444 0.516649 0.113379)
(0.263527 0.477804 0.100762)
(0.335248 0.78241 0.0980714)
(0.28207 0.842795 0.136788)
(0.271307 0.768436 0.146635)
(0.341461 0.801994 0.0579208)
(0.340763 0.784494 0.0757276)
(0.307248 0.822807 0.129983)
(0.28798 0.825685 0.1361)
(0.304605 0.885456 0.136652)
(0.338253 0.755206 0.106103)
(0.331497 0.794539 0.0683255)
(0.317149 0.765306 0.15854)
(0.322107 0.817101 0.0798731)
(0.299507 0.768976 0.15361)
(0.313368 0.773234 0.155466)
(0.324777 0.831858 0.0957671)
(0.299641 0.774885 0.147927)
(0.313264 0.783446 0.154284)
(0.286421 0.827731 0.146544)
(0.294021 0.586157 0.0377329)
(0.294298 0.587939 0.0486664)
(0.30958 0.604344 0.0236307)
(0.300871 0.582537 0.031063)
(0.293485 0.580498 0.0526342)
(0.28921 0.586262 0.0564889)
(0.285676 0.559487 0.0424883)
(0.305932 0.596838 0.027104)
(0.287382 0.563389 0.0513842)
(0.269554 0.708324 -0.0363786)
(0.309453 0.762246 -0.0745539)
(0.329877 0.800701 -0.0718173)
(0.241415 0.595437 -0.0376086)
(0.292816 0.76836 -0.0548764)
(0.276231 0.720783 -0.0464372)
(0.262221 0.649272 -0.0400099)
(0.484004 1.10032 -0.0290526)
(0.471829 1.1008 -0.0345106)
(0.477505 1.10353 -0.0453051)
(0.470744 1.07503 -0.0570565)
(0.479062 1.10131 -0.0286049)
(0.470792 1.1012 -0.0277789)
(0.486 1.09335 -0.0308953)
(0.473483 1.09821 -0.0464886)
(0.457587 1.08291 -0.00309711)
(0.457257 1.07988 -0.000408732)
(0.458115 1.08809 0.00798173)
(0.47331 1.07907 -0.0451259)
(0.476496 1.09222 -0.0468253)
(0.461595 1.09179 0.00570989)
(0.452487 1.09111 0.0160479)
(0.470112 1.09244 -0.00410686)
(0.484255 1.10214 -0.0342977)
(0.465161 1.0883 0.00116028)
(0.464125 1.09387 0.00267105)
(0.331497 0.942848 0.00193673)
(0.333002 0.924825 0.00193832)
(0.360257 1.00181 -0.0114087)
(0.36255 0.997109 -0.00991726)
(0.349758 0.951761 -0.00470205)
(0.351838 0.999639 -0.00835959)
(0.356184 0.996918 -0.0123461)
(0.312476 0.915794 0.0020404)
(0.29535 0.8584 0.00514872)
(0.339109 0.987098 -0.00688603)
(0.310743 0.935222 0.00395895)
(0.336589 0.944194 0.000456772)
(0.315473 0.920154 0.00865864)
(0.34761 0.704765 -0.0116804)
(0.342147 0.704075 0.00137167)
(0.344888 0.72707 -0.00631865)
(0.345694 0.755169 -0.00922985)
(0.334802 0.721398 0.0621868)
(0.323798 0.693583 0.0528536)
(0.351468 0.750807 0.0317256)
(0.351036 0.808747 0.031393)
(0.328452 0.698149 0.0451313)
(0.325542 0.710164 0.0538782)
(0.335416 0.706009 0.0316526)
(0.349298 0.741513 0.0493713)
(0.35328 0.801051 0.0307068)
(0.355673 0.838853 0.0260656)
(0.357551 0.805496 0.0118683)
(0.341778 0.778516 0.0544598)
(0.352163 0.792089 0.0290177)
(0.348574 0.816166 0.0518198)
(0.338534 0.771266 0.0615426)
(0.358013 0.781854 -0.107181)
(0.358248 0.771116 -0.0978425)
(0.352184 0.806973 -0.106691)
(0.354639 0.82459 -0.101688)
(0.356518 0.791153 -0.0461008)
(0.35128 0.779978 -0.0371994)
(0.358465 0.785375 -0.105734)
(0.354492 0.759578 -0.0914748)
(0.353142 0.784867 -0.0698963)
(0.353606 0.797071 -0.0281958)
(0.344367 0.787736 -0.034688)
(0.360087 0.847529 -0.0990278)
(0.354862 0.831657 -0.0986746)
(0.350037 0.835426 -0.0866383)
(0.341514 0.81481 -0.0600288)
(0.335999 0.81616 -0.0423876)
(0.343796 0.802499 -0.093841)
(0.374237 0.860222 -0.10911)
(0.370839 0.892597 -0.0961175)
(0.369508 0.861384 -0.103744)
(0.389506 0.941183 -0.0947104)
(0.338076 0.908963 -0.0729134)
(0.37233 0.940252 -0.0959953)
(0.360669 0.932087 -0.0916437)
(0.334214 0.862865 -0.0849982)
(0.345184 0.929657 -0.0743459)
(0.344914 0.905019 -0.0830843)
(0.326239 0.894076 -0.0660819)
(0.327549 0.879656 -0.0543755)
(0.349365 0.825621 -0.0671977)
(0.34615 0.816568 -0.072906)
(0.336405 0.877073 -0.067688)
(0.326509 0.595688 -0.0663142)
(0.339922 0.604234 -0.054632)
(0.312119 0.596125 -0.0641361)
(0.309416 0.582862 -0.053571)
(0.336576 0.64082 -0.0861831)
(0.315947 0.62122 -0.0643012)
(0.338489 0.754256 -0.105259)
(0.334093 0.697812 -0.0882104)
(0.352357 0.716839 -0.112334)
(0.345184 0.693197 -0.111569)
(0.333188 0.733282 -0.114577)
(0.350785 0.712746 -0.116616)
(0.346675 0.722839 -0.108466)
(0.355259 0.763189 -0.122208)
(0.365355 0.816633 -0.105873)
(0.33116 0.738543 -0.10013)
(0.369094 0.794716 -0.127967)
(0.333651 0.740505 0.0946476)
(0.330468 0.776043 0.104342)
(0.352618 0.758507 0.0640604)
(0.354032 0.791733 0.0322952)
(0.319322 0.792514 0.10847)
(0.30991 0.72824 0.10362)
(0.348366 0.786853 0.0510674)
(0.326795 0.725907 0.106327)
(0.352815 0.718599 0.0602008)
(0.358946 0.762679 0.0463249)
(0.320325 0.756341 0.107546)
(0.332953 0.789944 0.104409)
(0.350074 0.716768 0.0623918)
(0.356922 0.75612 0.054994)
(0.347211 0.816494 0.0466522)
(0.334769 0.715141 0.0822407)
(0.356249 0.768799 0.0434766)
(0.330355 0.809875 0.0828511)
(0.349359 0.783428 0.0620417)
(0.334556 0.740564 0.0971087)
(0.378496 0.913182 -0.0711653)
(0.356307 0.740818 -0.0875514)
(0.34559 0.713702 -0.0853421)
(0.395552 0.941365 -0.0702942)
(0.339618 0.750665 -0.0757111)
(0.34328 0.696752 -0.0741466)
(0.390241 0.835331 -0.0974132)
(0.418552 0.954421 -0.0694417)
(0.398555 0.912024 -0.0784878)
(0.329121 0.693908 -0.0772486)
(0.363805 0.754391 -0.096211)
(0.34109 0.726412 -0.0799917)
(0.343503 0.716299 -0.0889495)
(0.380124 0.795547 -0.0950624)
(0.322166 0.893307 0.078127)
(0.302123 0.811236 0.0830823)
(0.315635 0.870281 0.0835782)
(0.335592 0.888179 0.0781298)
(0.330099 0.858119 0.0789536)
(0.348957 0.853672 0.05926)
(0.320926 0.80221 0.0874457)
(0.302696 0.791601 0.0990695)
(0.346684 0.861246 0.0360572)
(0.311801 0.821898 0.085925)
(0.316621 0.776956 0.0897172)
(0.336961 0.813707 0.0732764)
(0.346559 0.824932 0.0553589)
(0.342221 0.834603 0.0603521)
(0.333525 0.810523 0.0814805)
(0.40258 0.898604 -0.0992907)
(0.42807 0.969266 -0.0787027)
(0.423424 0.947324 -0.103057)
(0.457656 1.05013 -0.0634201)
(0.443032 1.06517 -0.0374051)
(0.453947 1.04474 -0.0544197)
(0.383376 0.913863 -0.0658417)
(0.408884 0.98771 -0.0458185)
(0.435777 1.03458 -0.0489932)
(0.454859 1.04357 -0.0604074)
(0.391798 0.864094 -0.0919889)
(0.374912 0.875774 -0.0765828)
(0.435348 0.976273 -0.0884203)
(0.389772 0.866056 -0.0967766)
(0.36801 0.920978 -0.110004)
(0.368077 0.990931 -0.0898501)
(0.389018 1.02314 -0.0909427)
(0.418655 1.06135 -0.0833037)
(0.464722 1.08352 -0.0866824)
(0.400435 1.04847 -0.086759)
(0.398051 0.982094 -0.0965107)
(0.411476 1.03972 -0.0897168)
(0.409017 0.975836 -0.126722)
(0.445036 1.03624 -0.0863688)
(0.425847 1.06444 -0.0702516)
(0.445463 1.01489 -0.0966521)
(0.447234 1.05733 -0.0904289)
(0.454858 1.07809 -0.0765166)
(0.416 0.952933 -0.114634)
(0.413169 1.02537 -0.104325)
(0.425031 0.980404 -0.106182)
(0.439327 0.985308 -0.0944042)
(0.417588 0.946921 -0.109236)
(0.362138 0.670888 0.034934)
(0.367913 0.661243 0.0235471)
(0.344853 0.612081 -0.0401664)
(0.360476 0.639976 0.00101586)
(0.326911 0.562099 -0.00973155)
(0.317281 0.588758 -0.0756171)
(0.363253 0.637754 0.0332626)
(0.352261 0.598155 0.0575191)
(0.335571 0.540517 0.019289)
(0.334564 0.574916 -0.0354811)
(0.351633 0.603438 0.0156083)
(0.340829 0.580259 -0.0344703)
(0.333934 0.538559 0.0272065)
(0.321126 0.561513 -0.0334172)
(0.314858 0.562139 -0.0321796)
(0.319791 0.555567 -0.0364598)
(0.329192 0.543809 0.0102322)
(0.43487 1.03676 -0.0499468)
(0.432821 1.06604 -0.00322834)
(0.428761 1.05998 0.00244409)
(0.454795 1.04115 -0.0577879)
(0.431252 1.06887 0.0130647)
(0.43216 1.0597 0.0128402)
(0.449971 1.08604 -0.00368549)
(0.476844 1.08115 -0.0467132)
(0.468768 1.08272 -0.0147731)
(0.451506 1.04691 -0.0217134)
(0.454301 1.06656 -0.0334855)
(0.48087 1.08651 -0.0692801)
(0.470164 1.06782 -0.0538175)
(0.489098 1.07138 -0.0826257)
(0.485916 1.06332 -0.0992947)
(0.455852 1.04851 -0.0506989)
(0.487409 1.08561 -0.0825041)
(0.489891 1.1013 -0.0545519)
(0.480989 1.07992 -0.0690223)
(0.448228 1.02735 -0.0260349)
(0.462906 1.08882 -0.0823972)
(0.461024 1.05592 -0.0966751)
(0.452674 1.07472 -0.0941944)
(0.423917 1.04467 -0.0792824)
(0.420839 1.02304 -0.0641)
(0.443841 1.0748 -0.0747488)
(0.452816 1.05649 -0.0985368)
(0.447849 1.03067 -0.112221)
(0.421571 1.02937 -0.0646774)
(0.385566 0.964534 -0.0555603)
(0.418333 1.04306 -0.0970843)
(0.443731 1.05288 -0.0924915)
(0.39695 1.01919 -0.0848306)
(0.37145 1.01312 -0.0865334)
(0.352631 0.979066 -0.0787221)
(0.415202 1.0269 -0.10314)
(0.417616 1.0358 -0.0734562)
(0.394195 1.01523 -0.0748576)
(0.417756 1.03603 -0.09425)
(0.416658 1.04411 -0.0926894)
(0.372096 0.9842 -0.0723262)
(0.374888 1.02343 -0.0901091)
(0.370268 1.01915 -0.0881262)
(0.4057 1.05298 -0.0900203)
(0.383368 1.00457 -0.0742909)
(0.406645 1.03713 -0.097314)
(0.325981 0.806687 0.0484899)
(0.373486 0.909091 0.0454963)
(0.39964 0.95366 0.045803)
(0.439986 1.07402 0.0367839)
(0.425775 1.04296 0.0408059)
(0.424629 1.04098 0.0437354)
(0.417115 1.0381 0.0374682)
(0.35103 0.871604 0.0626219)
(0.329072 0.807682 0.0576766)
(0.381744 0.947916 0.0590902)
(0.355154 0.85402 0.054432)
(0.42182 1.04131 0.0446681)
(0.417545 1.05367 0.0397409)
(0.367094 0.931044 0.0637664)
(0.356193 0.895416 0.061471)
(0.371424 0.916967 0.0555312)
(0.30004 0.898948 0.0633368)
(0.297374 0.891171 0.0682271)
(0.342284 0.837029 0.0349114)
(0.338464 0.848342 0.0339894)
(0.326093 0.833066 0.0651179)
(0.320562 0.81034 0.0827958)
(0.335279 0.853821 0.0287396)
(0.313394 0.919685 0.0511091)
(0.309851 0.879464 0.0618845)
(0.301792 0.876775 0.0730409)
(0.33654 0.871202 0.0346527)
(0.300551 0.852618 0.0839744)
(0.316704 0.883506 0.052292)
(0.302086 0.848299 0.0889347)
(0.294722 0.84612 0.0942021)
(0.253307 0.649412 0.162527)
(0.230784 0.607569 0.149491)
(0.242036 0.674619 0.155202)
(0.228639 0.611904 0.141847)
(0.243008 0.676935 0.153792)
(0.25264 0.709421 0.154821)
(0.252051 0.616404 0.152989)
(0.26671 0.639468 0.162988)
(0.268417 0.698771 0.171282)
(0.258963 0.692264 0.157889)
(0.288894 0.763215 0.154603)
(0.297413 0.781617 0.150018)
(0.268836 0.650167 0.154455)
(0.307394 0.763006 0.156705)
(0.301151 0.686415 0.151183)
(0.296219 0.703476 0.15239)
(0.247106 0.49721 -0.00686893)
(0.243079 0.485484 -0.00504526)
(0.201023 0.398679 -0.000907039)
(0.216898 0.416481 -0.000176983)
(0.219222 0.468585 -0.0154375)
(0.211039 0.418931 -0.00394431)
(0.204953 0.416755 -0.000791474)
(0.182822 0.37154 -0.0022087)
(0.208758 0.411197 0.00371755)
(0.189705 0.376213 -0.00175659)
(0.21666 0.454301 -0.00720216)
(0.187819 0.379742 0.00393077)
(0.242396 0.717229 0.0239767)
(0.230318 0.688786 0.0231041)
(0.270853 0.815535 0.0169962)
(0.280712 0.823931 0.0237071)
(0.213854 0.661624 0.0194024)
(0.22275 0.669293 0.0201269)
(0.201207 0.600653 0.0201541)
(0.224547 0.671406 0.0210349)
(0.215939 0.642715 0.0197556)
(0.231792 0.714731 0.0214887)
(0.224968 0.684044 0.0212623)
(0.23542 0.716106 0.0165134)
(0.260389 0.762397 0.0154703)
(0.238056 0.70692 0.0175578)
(0.210644 0.645517 0.0262941)
(0.212363 0.642336 0.0244312)
(0.25731 0.787235 0.00955862)
(0.269267 0.807635 0.0239076)
(0.233059 0.70293 0.0199797)
(0.257213 0.774349 0.0162302)
(0.390147 0.969312 0.0438966)
(0.37311 0.93563 0.0488436)
(0.437348 1.04954 0.0177238)
(0.431942 1.062 0.0228692)
(0.392583 0.97723 0.0391445)
(0.376829 0.936224 0.0472952)
(0.332075 0.843303 0.0479014)
(0.347632 0.899848 0.0529966)
(0.328473 0.846459 0.0521843)
(0.373778 0.954345 0.0413985)
(0.354025 0.90445 0.0466189)
(0.423713 1.04318 0.0156551)
(0.417815 1.02903 0.0184099)
(0.426468 1.03537 0.0236103)
(0.339408 0.871901 0.0505577)
(0.371378 0.932217 0.0444547)
(0.385309 0.944666 0.0400686)
(0.364546 0.910172 0.0530141)
(0.344995 0.680636 -0.0417563)
(0.344694 0.72324 -0.0298873)
(0.340138 0.697415 -0.0539757)
(0.350357 0.737458 -0.0429135)
(0.353284 0.76162 -0.0131056)
(0.370091 0.810893 -0.0863794)
(0.342426 0.778803 -0.0602855)
(0.342547 0.750719 -0.048343)
(0.346566 0.792404 -0.0661616)
(0.348039 0.695244 -0.0602452)
(0.356704 0.738626 -0.0719292)
(0.350439 0.712133 -0.0361413)
(0.343392 0.707786 -0.057091)
(0.348085 0.734328 -0.0762945)
(0.332759 0.808743 -0.0599274)
(0.347955 0.789424 -0.077717)
(0.346336 0.739018 -0.0421735)
(0.339019 0.788253 -0.0373237)
(0.350103 0.793436 -0.0881015)
(0.346628 0.769863 -0.0560263)
(0.236346 0.94532 -0.00135742)
(0.222658 0.940826 -0.0158358)
(0.253153 0.965422 -0.0300777)
(0.218233 0.935484 0.0145003)
(0.261467 0.954418 -0.0107474)
(0.246742 0.962509 -0.0146474)
(0.213957 0.909939 0.00375451)
(0.221142 0.946703 0.0084671)
(0.203918 0.910331 0.0164716)
(0.202787 0.905583 0.019279)
(0.252437 0.938764 -0.00407949)
(0.277666 0.972871 -0.0262395)
(0.26236 0.946472 -0.0158419)
(0.323797 0.888928 -0.013248)
(0.331941 0.884415 -0.0246965)
(0.345829 0.949526 -0.0485386)
(0.343233 0.945141 -0.0405879)
(0.341077 1.00416 -0.0328305)
(0.337023 1.0039 -0.0228304)
(0.315944 0.965196 0.0147491)
(0.322489 0.951955 0.00293644)
(0.318695 0.899933 -0.0202669)
(0.3392 0.9506 -0.0433538)
(0.331284 1.00823 -0.0229557)
(0.312255 0.97828 0.00428179)
(0.336989 0.999186 -0.030116)
(0.322979 0.996033 0.00137074)
(0.316737 0.998115 0.00610182)
(0.317465 0.98779 0.00547919)
(0.321918 0.824428 0.0851896)
(0.295992 0.750621 0.0979708)
(0.265934 0.705371 0.0953189)
(0.270842 0.692128 0.0969575)
(0.309162 0.75826 0.0844411)
(0.342892 0.81901 0.0702933)
(0.32705 0.803178 0.0805073)
(0.26315 0.651515 0.09151)
(0.254734 0.645319 0.0887632)
(0.331166 0.758701 0.0605102)
(0.328751 0.786095 0.0720249)
(0.28893 0.688266 0.0879914)
(0.257946 0.595446 0.0832675)
(0.260724 0.600941 0.0697059)
(0.29976 0.705722 0.0796392)
(0.206442 0.454933 -0.0132995)
(0.203965 0.445026 -0.012579)
(0.21325 0.450736 -0.0113873)
(0.187721 0.409674 -0.00848096)
(0.245848 0.543557 -0.0270303)
(0.215131 0.480421 -0.0151237)
(0.201051 0.448759 -0.0117872)
(0.184885 0.438892 -0.0120514)
(0.20877 0.525384 -0.0180989)
(0.186317 0.415868 -0.011817)
(0.233541 0.512272 -0.019473)
(0.196678 0.41476 -0.0136996)
(0.248058 0.59276 -0.0280176)
(0.236809 0.617928 -0.0147168)
(0.207301 0.520757 -0.0153701)
(0.264222 0.633966 -0.0365159)
(0.248448 0.620774 -0.0246009)
(0.247571 0.600067 -0.0261123)
(0.24499 0.605448 -0.03122)
(0.195524 0.487194 -0.0144431)
(0.200273 0.493241 -0.0183739)
(0.20173 0.426185 -0.0208893)
(0.186813 0.427505 -0.0193122)
(0.248534 0.571342 -0.0292524)
(0.220003 0.542071 -0.0125953)
(0.391685 0.939396 -0.0485568)
(0.380087 1.00394 -0.00189927)
(0.401291 1.05081 0.000848702)
(0.41088 1.04819 -0.000924212)
(0.382899 0.908512 -0.0584321)
(0.419321 1.05081 -0.00564625)
(0.407881 1.06511 0.0114359)
(0.40526 1.03828 0.0293041)
(0.36376 0.978369 0.0273976)
(0.37613 0.95795 -0.0236335)
(0.40897 0.957492 -0.043495)
(0.418562 1.00481 -0.0304308)
(0.406215 1.05524 0.0298021)
(0.388296 1.02999 0.0279904)
(0.398468 1.04338 0.0452333)
(0.413493 1.04724 0.0192622)
(0.438615 1.06295 -0.00782147)
(0.345578 0.8918 0.0356884)
(0.327317 0.829685 0.0847252)
(0.341993 0.860737 0.0754545)
(0.353172 0.871104 0.052089)
(0.351139 0.894526 0.03446)
(0.314731 0.908969 0.0720643)
(0.320106 0.947937 0.0630591)
(0.310126 0.822322 0.0903809)
(0.303947 0.844118 0.0851174)
(0.318328 0.88019 0.0790352)
(0.343682 0.832985 0.0172074)
(0.342533 0.847946 0.0213926)
(0.340258 0.854369 0.0287917)
(0.31909 0.882692 0.0698634)
(0.32486 0.871547 0.0848089)
(0.342518 0.80762 0.0595614)
(0.345694 0.796194 0.0581937)
(0.334171 0.811357 0.0663483)
(0.329405 0.796288 0.0717949)
(0.326953 0.846092 0.0737245)
(0.30556 0.838606 0.0920469)
(0.331757 0.869564 0.0607031)
(0.336564 0.842745 0.0603008)
(0.317685 0.882395 0.0586797)
(0.315016 0.857884 0.0825493)
(0.335562 0.81602 0.067298)
(0.308962 0.796106 0.0818739)
(0.325277 0.830686 0.0759312)
(0.330888 0.85966 -0.0517822)
(0.332138 0.861316 -0.0746323)
(0.308382 0.882366 -0.0482849)
(0.294724 0.93552 -0.0523938)
(0.318563 0.86851 -0.0378529)
(0.334563 0.883938 -0.0702967)
(0.279082 0.910942 -0.0174415)
(0.324861 0.865627 -0.0615805)
(0.321529 0.871646 -0.0442088)
(0.353678 0.849164 -0.0996273)
(0.315573 0.877596 -0.0336405)
(0.308352 0.877332 -0.0114548)
(0.281118 0.911742 -0.014508)
(0.278694 0.903474 0.00018513)
(0.307577 0.90779 -0.0347455)
(0.340973 0.896532 -0.0850114)
(0.41948 1.04884 -0.0699565)
(0.415587 1.04205 -0.0778226)
(0.386412 0.940224 -0.0901018)
(0.395066 1.00099 -0.0826977)
(0.421253 1.00684 -0.0823902)
(0.426004 1.05458 -0.0651036)
(0.457103 1.0637 -0.0425701)
(0.457814 1.03938 -0.0463899)
(0.42662 0.964445 -0.0895157)
(0.450736 1.05346 -0.0528133)
(0.452234 1.03996 -0.0518098)
(0.44897 1.03004 -0.0775942)
(0.387581 0.933 -0.0903955)
(0.373869 0.881656 -0.0961362)
(0.452653 1.06569 -0.0716511)
(0.445747 1.04586 -0.0532304)
(0.45148 1.08972 -0.0465401)
(0.415101 0.969145 -0.0814828)
(0.413016 0.932822 -0.0957798)
(0.390568 0.960067 -0.0772164)
(0.391347 0.920545 0.0325611)
(0.386159 0.893331 0.0262797)
(0.401616 0.949774 0.0166773)
(0.382899 0.902444 0.0180359)
(0.396216 0.946451 0.012757)
(0.402965 0.966274 0.00588339)
(0.402584 0.954328 0.0307414)
(0.404053 0.966503 0.0425961)
(0.400868 0.961386 0.017979)
(0.395262 0.940553 0.0255798)
(0.42455 1.01567 0.0203656)
(0.426184 1.01356 0.0134373)
(0.444029 1.05468 0.00976535)
(0.453747 1.07914 -0.00619754)
(0.428694 1.03111 0.0283857)
(0.460044 1.09446 0.0153802)
(0.443478 1.06327 0.0119576)
(0.43753 1.05401 0.0149669)
(0.442757 1.0698 -0.0100316)
(0.461424 1.10486 -0.0143285)
(0.463934 1.11028 0.0159432)
(0.480042 1.14331 -0.00204974)
(0.461268 1.10264 -0.00925687)
(0.466738 1.11102 -0.0147956)
(0.356917 0.760303 -0.0846061)
(0.369878 0.791665 -0.0916517)
(0.368684 0.793661 -0.0886756)
(0.373705 0.807001 -0.0908961)
(0.360783 0.813615 -0.0712798)
(0.344739 0.727775 -0.0790517)
(0.359799 0.762848 -0.0852359)
(0.384582 0.878088 -0.0526721)
(0.372353 0.803586 -0.0924762)
(0.41237 0.934738 -0.0675524)
(0.42233 0.981101 -0.0612435)
(0.377574 0.884858 -0.0733736)
(0.366407 0.837706 -0.0663832)
(0.347968 0.725377 -0.0790038)
(0.403479 0.93725 -0.0676055)
(0.382616 0.858698 -0.0659735)
(0.35716 0.772521 -0.0967506)
(0.400588 0.908478 -0.0706905)
(0.392425 0.901083 -0.069067)
(0.353478 0.960578 -0.1126)
(0.327103 0.955273 -0.102054)
(0.313852 0.949878 -0.0875537)
(0.325645 0.96555 -0.103224)
(0.264753 0.966531 -0.074013)
(0.249027 0.928187 -0.0599945)
(0.291178 0.959789 -0.0734815)
(0.260646 0.923187 -0.0670524)
(0.299857 0.951041 -0.078102)
(0.334837 0.981896 -0.101696)
(0.368713 0.996514 -0.114304)
(0.26139 0.963225 -0.0715974)
(0.297058 0.976442 -0.0867129)
(0.26571 0.913082 0.0195508)
(0.263243 0.911653 0.0152163)
(0.292327 0.903773 -0.0345026)
(0.256843 0.931299 0.0223249)
(0.275585 0.938485 -0.0435854)
(0.252353 0.946085 -0.00254068)
(0.257477 0.917846 0.0318168)
(0.232117 0.920942 0.042595)
(0.225141 0.94148 0.00818456)
(0.215016 0.918702 0.0259803)
(0.273805 0.971781 -0.0403802)
(0.224241 0.932064 -0.0078835)
(0.244842 0.93237 0.0279183)
(0.307097 0.628378 0.100644)
(0.311969 0.632746 0.0987647)
(0.253427 0.575421 0.106177)
(0.287181 0.619831 0.107329)
(0.308368 0.634038 0.105366)
(0.310156 0.655518 0.105555)
(0.273144 0.587863 0.102002)
(0.278517 0.572032 0.0994487)
(0.254193 0.531488 0.0943629)
(0.300236 0.641269 0.115929)
(0.287942 0.609962 0.114697)
(0.268566 0.556669 0.106003)
(0.255087 0.521268 0.099614)
(0.227406 0.480909 0.0958428)
(0.286603 0.640744 0.116878)
(0.27924 0.623309 0.117365)
(0.251998 0.551765 0.10472)
(0.23713 0.514988 0.100621)
(0.272553 0.480641 0.0304002)
(0.29017 0.497605 0.0418294)
(0.286844 0.496791 0.0290817)
(0.251227 0.447178 0.0356088)
(0.260167 0.449339 0.0461259)
(0.253092 0.442474 0.0282321)
(0.232486 0.415065 0.0304256)
(0.296509 0.517551 0.0399653)
(0.239214 0.419841 0.0452121)
(0.224372 0.39482 0.0427739)
(0.241419 0.420429 0.0295825)
(0.220791 0.384301 0.037975)
(0.266142 0.457854 0.0514684)
(0.255175 0.442642 0.0491918)
(0.292483 0.5061 0.0541215)
(0.29122 0.498723 0.0342726)
(0.251707 0.437383 0.0320691)
(0.324716 0.697586 0.0537392)
(0.308819 0.656399 0.0514989)
(0.286719 0.615395 0.0676802)
(0.322375 0.789201 0.0830098)
(0.291591 0.706583 0.0840293)
(0.308146 0.687587 0.0733168)
(0.317875 0.767318 0.0810218)
(0.230733 0.467299 0.0251057)
(0.286273 0.580294 -0.00386712)
(0.258637 0.520536 0.00841857)
(0.286805 0.573835 -0.00406349)
(0.292945 0.577415 0.00989338)
(0.259565 0.527559 0.0248111)
(0.268515 0.543579 0.0312039)
(0.272146 0.551776 0.0332278)
(0.282732 0.571663 0.0329139)
(0.207405 0.436382 0.0284486)
(0.201753 0.418263 0.0172321)
(0.273462 0.553427 -0.00581265)
(0.297181 0.590986 0.00198122)
(0.275368 0.557518 0.0122186)
(0.211929 0.434762 0.0190874)
(0.242296 0.47889 0.0103891)
(0.241806 0.50265 0.010138)
(0.202973 0.41408 0.0128435)
(0.29996 0.806561 0.047767)
(0.300754 0.778303 0.0504405)
(0.344721 0.861366 0.0452436)
(0.346633 0.872326 0.0519863)
(0.303185 0.799022 0.0524591)
(0.295623 0.75075 0.057937)
(0.331991 0.834428 0.0548413)
(0.303295 0.773419 0.061422)
(0.38659 0.999775 0.0479868)
(0.377176 0.961711 0.0503885)
(0.389612 1.00214 0.0454443)
(0.382075 1.00358 0.0476573)
(0.352544 0.886318 0.0440121)
(0.320194 0.809298 0.0560239)
(0.403596 0.995108 0.0501651)
(0.385613 0.98435 0.0473768)
(0.361083 0.943371 0.0440069)
(0.378206 0.984685 0.0447889)
(0.311984 0.808219 0.0507097)
(0.245759 0.53366 -0.0135346)
(0.252308 0.560965 -0.0249966)
(0.277573 0.576753 -0.0206582)
(0.260004 0.55595 -0.0214691)
(0.24604 0.515135 -0.0044391)
(0.251251 0.535811 -0.0155916)
(0.23675 0.497524 -0.0092584)
(0.22318 0.475789 -0.00679645)
(0.259873 0.551034 -0.0155562)
(0.238275 0.541482 -0.0189621)
(0.2537 0.527314 -0.00490336)
(0.238972 0.523078 -0.0157143)
(0.224061 0.467285 -0.00416858)
(0.230919 0.481521 -0.00495642)
(0.251265 0.51539 -0.000664311)
(0.236842 0.487838 0.00717491)
(0.221596 0.463713 0.000680198)
(0.219223 0.460291 -0.00293531)
(0.169 0.374803 -0.00162707)
(0.1689 0.389591 -0.00522334)
(0.218013 0.65519 0.0332241)
(0.227209 0.661464 0.0336002)
(0.184742 0.451791 -0.0110165)
(0.189677 0.474376 -0.00488618)
(0.273313 0.937618 0.0127462)
(0.25088 0.891453 0.0249103)
(0.247518 0.89986 0.0328616)
(0.243502 0.716745 0.0366842)
(0.283964 0.770333 0.0431107)
(0.269962 0.778216 0.037749)
(0.328624 0.783038 0.0428422)
(0.336268 0.804688 0.0344255)
(0.262384 0.717517 0.0182471)
(0.278837 0.768752 0.0198097)
(0.269344 0.742577 0.0210535)
(0.208505 0.438958 0.0386555)
(0.199348 0.423672 0.0327449)
(0.20901 0.380789 0.000370161)
(0.194421 0.362317 0.00313262)
(0.203991 0.372485 -0.00145709)
(0.198659 0.368227 -0.00544252)
(0.316415 0.804777 0.0668249)
(0.294445 0.775211 0.0683553)
(0.220291 0.623504 0.117044)
(0.205318 0.64428 0.102161)
(0.228202 0.659024 0.118149)
(0.208207 0.715885 0.0952315)
(0.228174 0.724417 0.09666)
(0.228174 0.799693 0.0927644)
(0.396684 0.932153 0.0186049)
(0.411301 0.977311 0.0122051)
(0.197784 0.725277 0.140755)
(0.19279 0.678856 0.142877)
(0.223055 0.470913 0.0550959)
(0.206334 0.442572 0.0543287)
(0.215876 0.442152 0.0580892)
(0.224499 0.462963 0.0558633)
(0.356924 0.941328 -0.00924942)
(0.343948 0.868969 -0.00772218)
(0.3443 0.871748 -0.00815094)
(0.185655 0.746672 0.0983433)
(0.189131 0.761067 0.0960928)