/*--------------------------------*- C++ -*----------------------------------*\
| =========                 |                                                 |
| \\      /  F ield         | OpenFOAM: The Open Source CFD Toolbox           |
|  \\    /   O peration     | Version:  v1612+                                |
|   \\  /    A nd           | Web:      www.OpenFOAM.com                      |
|    \\/     M anipulation  |                                                 |
\*---------------------------------------------------------------------------*/
FoamFile
{
    version     2.0;
    format      ascii;
    class       volVectorField;
    location    "100";
    object      wallShearStress;
}
// * * * * * * * * * * * * * * * * * * * * * * * * * * * * * * * * * * * * * //

dimensions      [0 2 -2 0 0 0 0];

internalField   uniform (0 0 0);

boundaryField
{
    WALL
    {
        type            calculated;
        value           nonuniform List<vector> 
1510
(
(0.00264161 -0.011615 0.00250908)
(0.0026374 -0.0100375 0.00324609)
(0.00160809 -0.0182112 0.00821254)
(0.00180463 -0.0173371 0.00785207)
(-0.000894341 -0.0121699 0.00513715)
(-0.000463969 -0.0120667 0.00505266)
(0.000111275 -0.0112225 0.00523094)
(-0.000172113 -0.0113532 0.00527388)
(0.00263296 -0.00895748 0.00331161)
(0.00236411 -0.00844691 0.00357985)
(0.00273957 -0.0175818 0.00776011)
(0.00259703 -0.0177906 0.00776202)
(-0.00323052 -0.0111897 0.00982531)
(-0.00341679 -0.0110356 0.00949483)
(-0.00302181 -0.0111255 0.0102044)
(-0.00262473 -0.0103017 0.00905897)
(0.00255827 -0.00872386 0.00402511)
(0.0014618 -0.00943231 0.00492855)
(0.000121306 -0.0112973 0.0052676)
(0.000240837 -0.0113656 0.005391)
(0.00196833 -0.0174171 0.00769443)
(0.000699274 -0.0099015 0.00500633)
(0.000696148 -0.00967008 0.00492741)
(0.00154628 -0.00872748 0.00419848)
(0.00168028 -0.00876141 0.00395673)
(0.00233215 -0.00838667 0.00392396)
(0.00262229 -0.00801228 0.00321623)
(0.00225075 -0.00980285 0.00313466)
(0.00373627 -0.0175665 0.00544725)
(0.0010728 -0.0108139 0.00550777)
(0.000700391 -0.0105706 0.00534005)
(-0.00281909 -0.0109309 0.0101532)
(-0.00284983 -0.01106 0.0098364)
(-0.00283277 -0.0109807 0.00975139)
(-0.00305684 -0.0106899 0.00896164)
(0.000581805 -0.0148639 0.0016479)
(0.00060077 -0.0161568 0.00265719)
(0.000919028 -0.0143528 0.00199955)
(0.000193194 -0.0159847 0.00237836)
(0.000679624 -0.015617 0.00224594)
(0.000157491 -0.0149623 0.00192269)
(0.000384773 -0.0181829 0.0068655)
(0.000346341 -0.0179516 0.00680276)
(-0.000554586 -0.0187904 0.00650288)
(-0.000300786 -0.0187022 0.00667922)
(0.000416785 -0.0194035 0.00647005)
(0.000561371 -0.018024 0.00704898)
(0.00334583 -0.0177589 0.00809539)
(0.00264239 -0.0177488 0.00795704)
(0.00348377 -0.0177102 0.00811153)
(0.00335867 -0.0181709 0.0080444)
(0.00365666 -0.0178315 0.00803144)
(0.00291656 -0.0180511 0.0083028)
(0.00314671 -0.0194014 0.00149846)
(0.00315513 -0.0193603 0.00162052)
(0.00247144 -0.0192637 0.00126234)
(0.0018444 -0.019509 0.0014856)
(0.00190947 -0.0188637 0.00136948)
(0.00240294 -0.0193837 0.00143378)
(0.0068383 -0.0185183 0.00497016)
(0.00705484 -0.0188929 0.00575932)
(0.00681788 -0.0176771 0.00594873)
(0.00670325 -0.0179595 0.00621613)
(0.00673332 -0.0179335 0.00567873)
(0.00679785 -0.0176441 0.00518263)
(0.00511518 -0.0177031 0.00634004)
(0.00493186 -0.0181326 0.00606272)
(0.00535616 -0.0182587 0.0053463)
(0.00468419 -0.017056 0.00614789)
(0.005224 -0.0184051 0.00678556)
(0.00167177 -0.0121547 0.00225181)
(0.00227539 -0.0128352 0.00245849)
(0.00194835 -0.0127397 0.00252576)
(0.00155571 -0.0131751 0.00252709)
(0.00179503 -0.0122036 0.00200795)
(0.00190077 -0.0128547 0.00272336)
(0.00168622 -0.0131665 0.00240662)
(0.00099027 -0.0193618 0.0080025)
(0.000622077 -0.0184647 0.00715704)
(0.000677452 -0.0190726 0.0073403)
(0.00108988 -0.0189072 0.00803231)
(0.000824076 -0.0189014 0.00776418)
(-0.00268772 -0.00939625 0.00907045)
(-0.00280591 -0.00955066 0.00896374)
(-0.00303658 -0.00996804 0.00946233)
(-0.000159454 -0.0189189 0.00517129)
(-0.000363713 -0.0189287 0.00561401)
(-0.000228922 -0.0190222 0.00633934)
(0.000331221 -0.0195478 0.00634794)
(0.000439767 -0.0171876 0.00696702)
(-1.15164e-05 -0.0165299 0.00638606)
(1.9633e-05 -0.0167724 0.00615243)
(0.000433978 -0.016896 0.00669498)
(0.00069488 -0.0149255 0.00303605)
(0.00135745 -0.0139529 0.00270323)
(0.000314667 -0.0147286 0.0028587)
(0.000987946 -0.0138515 0.00255055)
(0.000864049 -0.0142437 0.00276008)
(0.000913583 -0.0145043 0.00285313)
(-3.10828e-05 -0.0163022 0.00417065)
(-0.000538619 -0.0170213 0.00479073)
(-0.000448826 -0.0166936 0.00484157)
(-0.000241773 -0.0167308 0.00404784)
(-0.000409662 -0.0162083 0.00431776)
(-0.000308542 -0.0169671 0.00460664)
(-0.000100541 -0.0173777 0.00570316)
(-9.42309e-05 -0.0166986 0.00521181)
(-0.000397442 -0.0167825 0.00555867)
(-0.000336286 -0.0169517 0.00577833)
(-0.000331361 -0.017151 0.00502243)
(0.0009346 -0.017401 0.00737609)
(0.00120363 -0.0177998 0.00777337)
(0.000724937 -0.0170801 0.00715537)
(0.000955901 -0.0169988 0.00756493)
(0.00110289 -0.0177227 0.00788969)
(0.000862682 -0.0173556 0.00742299)
(0.00233505 -0.0184829 0.0084549)
(0.00284867 -0.0182424 0.00860853)
(0.00280079 -0.00854752 0.00308555)
(0.00270617 -0.00812011 0.00274185)
(0.00275889 -0.00838804 0.00302693)
(0.00280616 -0.00885588 0.00272588)
(0.00307161 -0.00922559 0.00295205)
(0.00261122 -0.00844479 0.00310775)
(0.00239246 -0.00899587 0.00214885)
(0.00252499 -0.00991732 0.00185119)
(0.00236552 -0.00989653 0.00211395)
(0.00281564 -0.0104945 0.00210481)
(0.00252509 -0.00983093 0.00263353)
(-0.000567906 -0.0169102 0.00379711)
(-0.000671803 -0.0174032 0.00368469)
(-0.000622827 -0.017505 0.00427833)
(-0.000752968 -0.0180499 0.00485893)
(-0.000946593 -0.0170023 0.00401034)
(-0.000479846 -0.0181095 0.00483453)
(-0.000833352 -0.0178883 0.00559568)
(-0.000386581 -0.017862 0.00486899)
(-0.000784721 -0.0179692 0.00549366)
(-0.000425249 -0.0175031 0.00501253)
(-0.000348244 -0.0181063 0.00550744)
(-0.00138287 -0.0157353 0.00405456)
(-0.00172489 -0.0145863 0.00462054)
(-0.00112117 -0.0163847 0.00492174)
(-0.00158007 -0.0151573 0.00389812)
(-0.0015466 -0.015018 0.00441085)
(-0.00120582 -0.0130754 0.00543283)
(-0.00130912 -0.0133542 0.00500526)
(-0.000424094 -0.0117643 0.00524571)
(-0.00114941 -0.0139422 0.00486174)
(-0.00109989 -0.0136036 0.00493125)
(-0.000892017 -0.0126575 0.00509949)
(0.00220556 -0.00850187 0.00317285)
(0.00274438 -0.00914318 0.00307337)
(0.00202801 -0.00878022 0.00388296)
(0.00236459 -0.0089392 0.00330699)
(0.00257921 -0.00920575 0.00322317)
(0.00251552 -0.00925314 0.00295493)
(0.00217068 -0.00857484 0.00387158)
(0.00230701 -0.00840827 0.00368672)
(0.00198395 -0.00866516 0.00398695)
(0.00208599 -0.0088736 0.00412953)
(0.00240422 -0.00851476 0.00363148)
(0.00225009 -0.00844135 0.00353344)
(0.000482756 -0.0109032 0.00539925)
(0.000580366 -0.0106481 0.00516747)
(0.000648828 -0.0105746 0.00512911)
(0.000829032 -0.0102261 0.00501506)
(-0.000106075 -0.0114145 0.0051864)
(0.000252351 -0.0101836 0.005227)
(1.92749e-05 -0.0101606 0.00521977)
(0.000209264 -0.0106171 0.00528076)
(0.000388533 -0.00976693 0.00503055)
(0.000649086 -0.00949676 0.00485125)
(-7.36528e-05 -0.0105179 0.00536611)
(0.00154583 -0.00900248 0.00420035)
(0.00154326 -0.00896997 0.00433691)
(0.00157636 -0.00891964 0.00419778)
(0.0013236 -0.00905005 0.00445635)
(0.00120031 -0.00951536 0.00478386)
(0.00124812 -0.00924712 0.0046318)
(0.00211786 -0.00871684 0.00321617)
(0.00213911 -0.00898494 0.0035573)
(0.00214533 -0.00889893 0.0035059)
(0.0024681 -0.00967703 0.00367116)
(0.00242922 -0.00925484 0.0033012)
(0.00200031 -0.00887275 0.00361048)
(0.00188549 -0.00852322 0.00334124)
(0.00198573 -0.00893636 0.00295918)
(0.0019267 -0.00893068 0.00321641)
(0.00211528 -0.00878552 0.00314449)
(0.00209175 -0.0089222 0.00345458)
(0.00231144 -0.0104273 0.00261751)
(0.00220933 -0.00951763 0.00336988)
(0.00246536 -0.00990987 0.00338961)
(0.0023548 -0.0103964 0.0026394)
(0.00224522 -0.00970626 0.00283906)
(0.00257102 -0.010097 0.00289459)
(0.00264561 -0.0107059 0.00279041)
(0.00249133 -0.00992728 0.00291605)
(0.00340607 -0.018313 0.00388844)
(0.00359872 -0.0184051 0.00434151)
(0.00367856 -0.0182806 0.00519611)
(0.00367345 -0.0179905 0.00598432)
(0.00361356 -0.0171596 0.00585731)
(0.00344768 -0.0173361 0.005057)
(0.00382683 -0.0169418 0.00535213)
(0.00349126 -0.0173181 0.004871)
(0.00361288 -0.0170571 0.00626121)
(-0.00115317 -0.0153846 0.0036949)
(-0.00119059 -0.015281 0.00410635)
(-0.00140913 -0.0143476 0.00422014)
(-0.00120997 -0.0143327 0.00431223)
(-0.00139893 -0.0141407 0.0037164)
(-0.00111921 -0.0151467 0.0035049)
(-0.000779187 -0.0113905 0.00525895)
(-0.000530513 -0.0112742 0.0053292)
(-0.000954875 -0.0122107 0.00544066)
(-0.000604535 -0.0111017 0.00547259)
(-0.000228304 -0.011081 0.00531578)
(-0.000849204 -0.0121688 0.00536099)
(-0.00157542 -0.0127336 0.00481821)
(-0.00163738 -0.0136319 0.00483399)
(-0.00132131 -0.0127729 0.0051088)
(-0.00133817 -0.012943 0.00501956)
(-0.0013284 -0.0141025 0.00506808)
(-0.00115575 -0.0122893 0.00507857)
(-0.00161769 -0.012868 0.00471287)
(-0.0012556 -0.013015 0.00490248)
(-0.00133161 -0.0124088 0.00489547)
(-0.00120292 -0.0137263 0.00465273)
(-0.00124899 -0.0135318 0.00450709)
(-0.00163513 -0.0127069 0.00502491)
(0.00336171 -0.0161768 0.00511333)
(0.00356526 -0.0173219 0.00519703)
(0.00334853 -0.0172691 0.00512945)
(-0.00103597 -0.0156153 0.00381117)
(-0.000568128 -0.015809 0.00327401)
(-0.000296381 -0.0154814 0.00306706)
(-0.000485292 -0.0159108 0.00355869)
(-0.000669168 -0.0163995 0.0031033)
(-0.000965399 -0.0154407 0.00359329)
(-0.0010477 -0.0142025 0.00390092)
(-0.000907777 -0.0146119 0.00414857)
(-0.000998713 -0.0148643 0.00348915)
(-0.000900317 -0.014838 0.00384056)
(-0.00100648 -0.0150712 0.0039226)
(-0.000828254 -0.0152352 0.00366285)
(0.00455047 -0.0174404 0.00705311)
(0.00451192 -0.0179766 0.00731754)
(0.00422656 -0.0180159 0.00747948)
(0.00489744 -0.0177833 0.00676558)
(0.00490769 -0.0176879 0.00680203)
(0.00452016 -0.0182323 0.00751081)
(0.00520635 -0.0200115 0.00393397)
(0.00527324 -0.0181643 0.00450211)
(0.00557244 -0.0189597 0.00475826)
(0.00545735 -0.0190854 0.00413072)
(0.00528491 -0.0182351 0.00426709)
(0.00560527 -0.0198122 0.00518086)
(0.00388499 -0.0171126 0.006825)
(0.00369998 -0.0175113 0.00722072)
(0.00414725 -0.0171485 0.00668927)
(0.00349326 -0.0173628 0.00732208)
(0.0039576 -0.0176483 0.00705747)
(0.00409854 -0.0170656 0.00670582)
(0.00431134 -0.018125 0.00348991)
(0.00468338 -0.0180621 0.00384317)
(0.004309 -0.0179756 0.00322096)
(0.00425303 -0.0188171 0.00292562)
(0.00476515 -0.0184069 0.00426238)
(0.00445397 -0.0180072 0.0031235)
(0.00410668 -0.017786 0.00452111)
(0.00422751 -0.0182338 0.00476156)
(0.00402221 -0.0173703 0.00430819)
(0.0038257 -0.0180498 0.00356002)
(0.00430864 -0.0189422 0.00429807)
(0.00426357 -0.0177621 0.0046012)
(0.00440226 -0.0179742 0.00272415)
(0.00486342 -0.0186732 0.00347386)
(0.00468913 -0.018087 0.0025836)
(0.00525122 -0.0178722 0.00313328)
(0.00531978 -0.0179541 0.00328517)
(0.00523127 -0.017429 0.00336641)
(0.005998 -0.0180703 0.00589825)
(0.00622345 -0.0191237 0.00585356)
(0.00597129 -0.0181602 0.0050774)
(0.00602712 -0.0178175 0.00539138)
(0.00595903 -0.0175614 0.00573407)
(0.00586607 -0.0181405 0.00593616)
(0.00645909 -0.0180266 0.00680821)
(0.00670177 -0.0178294 0.00665163)
(0.00599492 -0.0185672 0.0079325)
(0.00613191 -0.0182323 0.00271619)
(0.00675013 -0.0181905 0.00402779)
(0.0064393 -0.0189658 0.0033516)
(-7.26993e-05 -0.0187948 0.00181097)
(0.00172625 -0.0194233 0.00201326)
(0.0010939 -0.0183774 0.00198589)
(0.000271087 -0.0196027 0.00253661)
(0.00078104 -0.0178195 0.00239794)
(0.00103428 -0.0182659 0.0021905)
(0.00167973 -0.0194812 0.0022906)
(-0.00112002 -0.0131477 0.0049664)
(-0.000995369 -0.0128643 0.00538446)
(-0.000272443 -0.0128178 0.00530928)
(-0.000460209 -0.0121459 0.00519153)
(-0.00105457 -0.0139141 0.00484687)
(-0.000801263 -0.0138237 0.00525426)
(0.000578816 -0.0111984 0.00542708)
(0.000221312 -0.0115263 0.00557303)
(0.00212104 -0.00823747 0.003886)
(0.00276141 -0.0085214 0.00334474)
(0.0017816 -0.00925867 0.00468323)
(0.00157703 -0.00966061 0.00472091)
(0.00156317 -0.00927007 0.0046305)
(0.00201208 -0.00867937 0.00431193)
(0.00201526 -0.00885501 0.0043899)
(0.00188282 -0.00878757 0.00435679)
(-0.000412293 -0.0198257 0.00513125)
(-0.000737767 -0.0188587 0.00425872)
(-0.00046744 -0.0176779 0.00337471)
(-0.000644331 -0.0186013 0.00350855)
(-0.000193496 -0.0184807 0.0050718)
(0.000110649 -0.0180893 0.00415457)
(-0.00163731 -0.0152826 0.004009)
(-0.00135218 -0.013943 0.00448032)
(-0.00148974 -0.016457 0.00418432)
(-0.0014897 -0.014773 0.0042549)
(-0.00127437 -0.0152798 0.00464674)
(0.00549501 -0.0179475 0.00729956)
(0.00541356 -0.0188519 0.00766603)
(0.00612544 -0.0180866 0.00647393)
(0.00518984 -0.0184248 0.00744352)
(0.0055583 -0.0177384 0.00675395)
(0.00608106 -0.0189237 0.00727618)
(0.00236137 -0.0176785 0.00782021)
(0.00277021 -0.0176543 0.00770587)
(0.00320961 -0.0175788 0.00756941)
(0.00228287 -0.01732 0.00760659)
(0.00181467 -0.0176803 0.00770703)
(0.00228623 -0.0184341 0.00793357)
(-0.00124816 -0.0176613 0.00522739)
(-0.000813795 -0.017255 0.00487839)
(-8.29183e-05 -0.0180733 0.00511913)
(-0.000442757 -0.0196539 0.00516209)
(0.000873476 -0.0178148 0.00743723)
(0.00198102 -0.0181193 0.00795541)
(0.00225995 -0.0177217 0.00794915)
(0.00110657 -0.0178743 0.00760163)
(0.00148008 -0.0182025 0.00769054)
(0.00174247 -0.0176128 0.00763825)
(-0.000368295 -0.0179015 0.00413143)
(-0.000461931 -0.0187024 0.00467333)
(-0.000525314 -0.0171956 0.00341767)
(-0.000135463 -0.0181114 0.00501775)
(-0.000552835 -0.0181194 0.0034813)
(-0.000914302 -0.0178284 0.00394994)
(-0.000505664 -0.0182821 0.0047844)
(-0.000702604 -0.0187759 0.00538966)
(-0.000402849 -0.0179367 0.00570623)
(-0.000232762 -0.0181856 0.00581689)
(-0.00019607 -0.0175442 0.00538655)
(-0.00016009 -0.0185155 0.00472253)
(-0.00183237 -0.0138451 0.00419019)
(-0.00131457 -0.0154832 0.0036571)
(-0.00114126 -0.0148824 0.00427636)
(-0.00129249 -0.0150315 0.00355024)
(-0.00130614 -0.0159946 0.00469333)
(-0.0029414 -0.0112848 0.0101139)
(-0.00276905 -0.0106152 0.0094691)
(-0.0025649 -0.010451 0.00953167)
(-0.0028295 -0.0109626 0.00993995)
(-0.00265979 -0.0102615 0.00948949)
(-0.00278367 -0.0108555 0.00947728)
(-0.00254415 -0.0102063 0.0096281)
(-0.00276395 -0.0109662 0.00962253)
(-0.00260767 -0.0102397 0.00931985)
(-0.00299846 -0.0109894 0.00965368)
(-0.00278236 -0.0106013 0.0103186)
(-0.00305613 -0.0105682 0.0097787)
(-0.002729 -0.0100073 0.0096472)
(-0.00261992 -0.0103091 0.00911382)
(-0.00273105 -0.0101769 0.00921422)
(-0.00283166 -0.00999486 0.00887296)
(-0.00281665 -0.0100117 0.00917876)
(-0.00277717 -0.0102597 0.00922305)
(-0.0029215 -0.010983 0.00964727)
(-0.00272773 -0.01055 0.00926928)
(-0.00257509 -0.0101377 0.00919065)
(-0.00248191 -0.0102677 0.0090932)
(-0.00257308 -0.0105054 0.009582)
(-0.00245243 -0.010532 0.00931103)
(-0.00273032 -0.0110546 0.00999221)
(-0.00317213 -0.0112542 0.00996669)
(-0.00281814 -0.0107397 0.00936326)
(-0.0027344 -0.0109663 0.00968378)
(-0.00271593 -0.0117298 0.0104031)
(-0.00280473 -0.0108939 0.00962517)
(-0.00309499 -0.0109194 0.00930399)
(-0.00318922 -0.0111467 0.00952387)
(-0.0028758 -0.0109673 0.00958084)
(-0.00290265 -0.0109792 0.00969604)
(-0.00270484 -0.0104851 0.00917163)
(0.00293702 -0.0179042 0.00778355)
(0.00221674 -0.017649 0.00773236)
(0.00235696 -0.0180425 0.00800425)
(0.00290156 -0.0176929 0.0079855)
(0.00258227 -0.0176453 0.00784752)
(0.00315519 -0.0176345 0.00768983)
(0.00254044 -0.0183997 0.00814101)
(0.00127869 -0.0181305 0.00788002)
(0.00207717 -0.0181416 0.00807384)
(0.00255149 -0.0178112 0.00824151)
(0.00163191 -0.0186934 0.00821895)
(0.00226151 -0.0182241 0.00857077)
(0.000523665 -0.0192625 0.00682513)
(-0.000259147 -0.0175626 0.00600728)
(7.46216e-05 -0.0180406 0.00678606)
(0.000761188 -0.0183386 0.0071816)
(0.00061934 -0.0184238 0.00758747)
(0.000415499 -0.0185211 0.00747173)
(0.00410257 -0.0177406 0.00830478)
(0.00476254 -0.0181183 0.0081116)
(0.00367616 -0.0181396 0.00850945)
(0.00445759 -0.0182039 0.00836977)
(0.00415369 -0.0184846 0.00842939)
(0.00346212 -0.0183108 0.00848295)
(0.00454608 -0.0183386 0.00577027)
(0.00394337 -0.0165226 0.00571352)
(0.00398026 -0.0173149 0.00655357)
(0.00391631 -0.0171567 0.00643237)
(0.00406498 -0.017379 0.00630532)
(0.00409472 -0.0171014 0.00556152)
(0.00330777 -0.0172404 0.00708336)
(0.00278582 -0.0171148 0.00741799)
(0.00324043 -0.0172893 0.00700238)
(0.0028473 -0.0170998 0.00739311)
(0.00281751 -0.0161941 0.00708619)
(0.00299702 -0.0169026 0.00706206)
(0.00341188 -0.0172824 0.00629835)
(0.00328447 -0.01638 0.00644666)
(0.00372073 -0.0174611 0.00691382)
(-0.000188179 -0.0186322 0.0063525)
(0.000129809 -0.0175898 0.00631371)
(-0.000451788 -0.0183201 0.00640836)
(3.62409e-05 -0.0188253 0.00723824)
(0.000471155 -0.0181455 0.00693174)
(0.000298014 -0.0175887 0.00646253)
(0.00170143 -0.0180979 0.00780527)
(0.00141578 -0.0179011 0.00775589)
(0.00147263 -0.0182591 0.0079399)
(0.00077925 -0.0176675 0.00718834)
(0.000748722 -0.017624 0.00747941)
(0.00101441 -0.0177839 0.007386)
(0.00148161 -0.0173479 0.00738811)
(0.00107593 -0.017271 0.00706807)
(0.00107789 -0.0169637 0.00713843)
(0.000458792 -0.0173699 0.00744162)
(0.00100126 -0.0169862 0.00748642)
(0.0011889 -0.0171633 0.00744226)
(0.00121122 -0.0180222 0.00803211)
(0.00160948 -0.0175269 0.00813561)
(0.00258394 -0.0173272 0.00766069)
(0.00203593 -0.0174542 0.00772838)
(0.00182604 -0.0176344 0.00782746)
(0.00223217 -0.0175565 0.00789009)
(0.00226427 -0.0172635 0.00772937)
(0.00219382 -0.0178758 0.0077853)
(0.00529792 -0.0197749 0.00237298)
(0.00547608 -0.0186273 0.00294988)
(0.00616324 -0.0203419 0.0033889)
(0.00525147 -0.0187548 0.00269363)
(0.00537791 -0.0188814 0.00231161)
(0.00634628 -0.0196645 0.00339446)
(0.00601003 -0.0179044 0.00414243)
(0.00570638 -0.0181382 0.00379193)
(0.00563093 -0.0183555 0.00346899)
(0.00627049 -0.0184119 0.00409044)
(0.00573223 -0.0188814 0.00333342)
(0.00138617 -0.0092998 0.00463685)
(0.00126213 -0.0098787 0.00487543)
(0.000967436 -0.0100807 0.00492027)
(0.00107291 -0.00973732 0.00484954)
(0.001512 -0.00935227 0.00463266)
(0.00161129 -0.00912624 0.00447572)
(0.00194908 -0.00827678 0.00357066)
(0.00144628 -0.00887047 0.004561)
(0.00177617 -0.00872643 0.00397269)
(0.00162812 -0.00899449 0.00417565)
(0.00186212 -0.00854847 0.00376537)
(0.00157057 -0.00873945 0.00436247)
(0.000304348 -0.010481 0.00501611)
(-0.000352933 -0.0116814 0.00507875)
(-0.000246413 -0.0112835 0.00514837)
(6.56753e-05 -0.0109063 0.00514408)
(-0.000294449 -0.011285 0.00516875)
(0.00022366 -0.0108277 0.00516571)
(0.000985387 -0.0096582 0.00483478)
(0.000414476 -0.0101603 0.00519713)
(0.000679255 -0.00999362 0.00501587)
(0.00116583 -0.00937579 0.00454967)
(0.00121696 -0.00986432 0.00469096)
(0.000706282 -0.0100595 0.00496897)
(0.00157771 -0.0135766 0.00176933)
(0.00148889 -0.0132587 0.00187578)
(0.00208496 -0.0121072 0.00198064)
(0.00203043 -0.0133992 0.00216047)
(0.00200489 -0.0125189 0.001777)
(0.00174866 -0.0128063 0.00179104)
(0.00143757 -0.0132792 0.00216511)
(0.0015442 -0.0138636 0.00206259)
(0.000839506 -0.0142423 0.00234122)
(0.00131397 -0.0139958 0.00211615)
(0.00103421 -0.013773 0.0020931)
(0.00103066 -0.01463 0.00230391)
(0.0012032 -0.0151092 0.0017211)
(0.000780763 -0.0146866 0.00177002)
(0.00184709 -0.0141606 0.00165671)
(0.000918089 -0.0154046 0.00166419)
(0.00150165 -0.0138918 0.00162983)
(0.00127776 -0.0144659 0.00154238)
(0.00301235 -0.00898829 0.00246173)
(0.00328019 -0.0102497 0.00227134)
(0.0029203 -0.00951395 0.00220686)
(0.00280785 -0.00892514 0.00221476)
(0.00288995 -0.00971274 0.00208242)
(0.0029441 -0.00980718 0.00188851)
(0.00313612 -0.0106442 0.00190465)
(0.0030169 -0.0114949 0.00166328)
(0.00310726 -0.0100198 0.00197149)
(0.00334054 -0.0105709 0.00158529)
(0.00328443 -0.0122382 0.00122383)
(0.00331327 -0.0111843 0.00149479)
(0.000289331 -0.0167149 0.00582901)
(-0.000218316 -0.0166971 0.00564436)
(5.81167e-05 -0.0169214 0.00596675)
(-0.00011009 -0.0177672 0.00586068)
(-0.000414524 -0.0171066 0.00533897)
(-5.56419e-05 -0.0164992 0.00525554)
(-6.13226e-05 -0.0161818 0.00445938)
(-6.82961e-05 -0.0164053 0.00498979)
(0.00274951 -0.011699 0.00157835)
(0.00241761 -0.0124576 0.00134685)
(0.00257554 -0.0129092 0.00123451)
(0.00216745 -0.0136563 0.000775928)
(0.00213604 -0.0131 0.00105643)
(0.0025733 -0.0132004 0.00107203)
(0.00300636 -0.00895356 0.00229828)
(0.00270823 -0.0107756 0.00155407)
(0.00319909 -0.00972663 0.00236946)
(0.00328127 -0.0109044 0.00220719)
(0.00306121 -0.0123512 0.000971658)
(0.00305158 -0.0133953 0.00129315)
(0.000521255 -0.0157627 0.00239578)
(0.000640269 -0.0150427 0.00248064)
(0.000730188 -0.0149073 0.00249494)
(0.000136804 -0.0164718 0.00281152)
(0.0004148 -0.0156793 0.00265508)
(0.000327638 -0.0152014 0.00257206)
(0.000161389 -0.0162144 0.00295861)
(-0.000426681 -0.0163752 0.00346535)
(-0.000224064 -0.0162917 0.00311163)
(0.00110223 -0.014107 0.00175476)
(0.00143083 -0.0142426 0.00209502)
(1.08467e-05 -0.0161589 0.002763)
(0.000106958 -0.0154423 0.0027884)
(-0.000298463 -0.0160691 0.00306692)
(-8.65935e-05 -0.0157409 0.00294739)
(0.000139928 -0.0164777 0.00360074)
(0.000179448 -0.0106097 0.00521431)
(0.000773874 -0.0104481 0.00511817)
(0.00144344 -0.00960471 0.0046967)
(0.00151975 -0.00918514 0.00427649)
(0.000469997 -0.0106848 0.00508585)
(-0.000137574 -0.0114723 0.00520682)
(0.000182091 -0.0108254 0.00521612)
(0.00025116 -0.0108443 0.00524896)
(0.000536738 -0.0105352 0.00511551)
(0.00126148 -0.00960311 0.00487564)
(0.000904132 -0.010211 0.00497075)
(0.00105096 -0.00996028 0.00493367)
(0.00136703 -0.00944824 0.00473716)
(0.00220558 -0.00851454 0.00369277)
(0.0016495 -0.00928876 0.0045398)
(0.00216506 -0.00889071 0.00413991)
(0.00189873 -0.00882803 0.0041572)
(0.00180535 -0.00881701 0.00419081)
(0.00199626 -0.00854643 0.00391491)
(0.000870448 -0.0100436 0.00505401)
(0.00146729 -0.00905573 0.0044965)
(0.00110185 -0.00992652 0.00485598)
(0.00127469 -0.00959098 0.00476204)
(0.00184912 -0.00870802 0.00406593)
(0.000143872 -0.0158211 0.00296983)
(0.000154752 -0.0153731 0.00296346)
(0.00077142 -0.0162021 0.0033242)
(0.00116485 -0.0174231 0.00779627)
(0.00344075 -0.0177577 0.00723032)
(0.00378583 -0.0177116 0.00700963)
(0.00404209 -0.0175661 0.00665697)
(0.00357278 -0.0169143 0.0068063)
(0.00117954 -0.0188533 0.00759324)
(0.00128332 -0.0179899 0.00770539)
(0.00122718 -0.0175043 0.00748149)
(0.00257108 -0.0177538 0.00772051)
(0.00229211 -0.0172221 0.00756489)
(0.00257857 -0.0170467 0.00747753)
(0.00308521 -0.017316 0.00736256)
(0.000630987 -0.0174064 0.00721009)
(0.000516241 -0.0176116 0.00705185)
(0.000190351 -0.0167798 0.00695246)
(0.000126776 -0.0168155 0.00656898)
(0.00285139 -0.0174204 0.00760541)
(0.00301514 -0.0176379 0.00736808)
(0.0028941 -0.0169984 0.00726671)
(0.00330219 -0.0171525 0.00710221)
(0.00352977 -0.0161766 0.00596635)
(0.00362488 -0.0172871 0.00696666)
(0.00353157 -0.0172278 0.00707603)
(0.000545846 -0.018251 0.00727309)
(0.000962513 -0.0184381 0.0073738)
(0.00135683 -0.0180531 0.00772157)
(0.00102444 -0.0192911 0.00795145)
(0.00157568 -0.0183278 0.00800213)
(0.00132619 -0.0187607 0.00807287)
(0.000514883 -0.0188635 0.00758061)
(0.00289481 -0.017938 0.00797934)
(0.00247522 -0.0178137 0.00790059)
(0.00180243 -0.0177335 0.00787335)
(0.00311785 -0.0175924 0.00794453)
(-0.00292237 -0.0109314 0.00945321)
(-0.00294219 -0.0106425 0.00917424)
(-0.00302897 -0.0109349 0.00947786)
(-0.00320253 -0.0112684 0.0095927)
(-0.00281201 -0.0107203 0.0094744)
(-0.00259606 -0.0109079 0.00983606)
(-0.00267607 -0.0105371 0.0093982)
(-0.00251155 -0.0102585 0.00927276)
(-0.00269594 -0.0102077 0.00954395)
(-0.00284342 -0.0106358 0.00976788)
(-0.00313858 -0.0113497 0.0100097)
(-0.0025698 -0.0104122 0.00928125)
(-0.00283718 -0.0108383 0.00946933)
(-0.00272595 -0.0107297 0.00988868)
(-0.00276255 -0.0102127 0.0094778)
(-0.00290575 -0.0111103 0.0101424)
(-0.00281777 -0.0109302 0.0100659)
(0.000286143 -0.0188452 0.00712443)
(0.000652058 -0.0190002 0.00710412)
(0.000340325 -0.0184832 0.00680016)
(-0.000338095 -0.0197331 0.00702527)
(0.000351887 -0.0192155 0.00691975)
(0.00139099 -0.017788 0.00773223)
(0.000487853 -0.0175547 0.00714198)
(0.00124986 -0.0177936 0.00736703)
(0.00160945 -0.0178073 0.00773416)
(0.00148249 -0.0177893 0.0077113)
(0.00110347 -0.0180602 0.00760409)
(0.00163851 -0.0178892 0.00785559)
(0.000425346 -0.0174153 0.00667275)
(0.000588378 -0.0175664 0.00697148)
(0.000636241 -0.017564 0.00728042)
(0.000549941 -0.0171589 0.00670117)
(-0.000548819 -0.0187275 0.00601112)
(-0.00065761 -0.0174877 0.00498446)
(0.00355539 -0.0194848 0.00277704)
(0.00249987 -0.0179889 0.00822748)
(0.00205206 -0.0182424 0.00799562)
(0.00252981 -0.0182644 0.00818449)
(0.00162976 -0.0172254 0.00767588)
(0.0031094 -0.0176296 0.00755684)
(0.00238707 -0.0174358 0.00781014)
(0.00198887 -0.0176844 0.00775689)
(0.00204276 -0.0180815 0.00799036)
(0.00150078 -0.0173267 0.0075206)
(0.00297792 -0.0185409 0.00824902)
(0.00192166 -0.0178958 0.00807335)
(0.00303456 -0.0183899 0.00864563)
(0.00321809 -0.0184589 0.00858712)
(0.00303298 -0.0178907 0.00832776)
(0.00322837 -0.0176624 0.00803979)
(0.00381133 -0.0178657 0.00799807)
(0.00452501 -0.017726 0.00773022)
(0.00401399 -0.0179467 0.00806107)
(0.00426091 -0.0189542 0.00833495)
(0.00471715 -0.0185113 0.00790425)
(0.00426084 -0.0182189 0.00822678)
(0.00525665 -0.0181129 0.00741431)
(0.00574848 -0.0185045 0.00702085)
(0.00484229 -0.0182484 0.00798785)
(0.00499865 -0.0178912 0.00757309)
(0.00612947 -0.0187129 0.00696789)
(0.00589818 -0.0173201 0.00699165)
(0.00591813 -0.0179991 0.00695429)
(0.00525704 -0.018468 0.00809345)
(0.00552283 -0.0182524 0.00772356)
(0.00591811 -0.0175926 0.00747848)
(0.00317662 -0.0175932 0.00883314)
(0.00353576 -0.0177232 0.00864249)
(0.0042399 -0.0181658 0.00869834)
(0.00483504 -0.0182761 0.00865189)
(0.0051865 -0.017656 0.0078741)
(0.00580636 -0.0186261 0.00825101)
(0.0059518 -0.0176509 0.0073118)
(0.0046964 -0.0177712 0.00797477)
(0.00535042 -0.0173216 0.00740192)
(0.00499243 -0.0184149 0.00826127)
(0.00111323 -0.0180858 0.00736454)
(0.000985003 -0.018278 0.00764032)
(0.00193916 -0.018291 0.00799873)
(0.00150291 -0.0182763 0.00770696)
(0.00115661 -0.018171 0.00838233)
(0.00141499 -0.0177871 0.00826811)
(0.00362031 -0.0184343 0.00864441)
(0.00257489 -0.0183216 0.0087252)
(0.00271544 -0.0185555 0.00864884)
(0.00226513 -0.018553 0.00869663)
(0.00192482 -0.0189188 0.0085859)
(0.00234658 -0.0177081 0.00837097)
(0.00307588 -0.0178616 0.00850912)
(0.000782901 -0.0190628 0.00155134)
(0.00025303 -0.0181075 0.00199479)
(7.82863e-05 -0.0184284 0.0025665)
(-0.000259742 -0.0190627 0.00176029)
(-0.00155657 -0.0152137 0.00388999)
(-0.00107131 -0.0168594 0.00413021)
(-0.00134659 -0.0156469 0.0048215)
(-0.000307388 -0.0177885 0.0031625)
(-0.00150803 -0.0171863 0.00321901)
(-0.000268058 -0.019106 0.00273131)
(-0.000949145 -0.0176002 0.00267842)
(-0.00116987 -0.0166142 0.00313779)
(-0.000416695 -0.0172466 0.0031655)
(0.000166551 -0.0179537 0.00267689)
(-0.00148679 -0.0160612 0.00401892)
(-0.00117232 -0.0165219 0.00365202)
(-0.00140217 -0.0169686 0.00386303)
(-0.00104812 -0.0172163 0.00312418)
(-0.00125352 -0.0171842 0.00409091)
(-0.00169423 -0.0177071 0.00325104)
(-0.000915818 -0.0138322 0.00505397)
(-0.000795083 -0.0131989 0.00527401)
(-0.00150373 -0.0141294 0.00470248)
(-0.00133216 -0.014721 0.00430705)
(-0.000683863 -0.0152186 0.0048018)
(-0.000634963 -0.0139907 0.00518069)
(-0.000880778 -0.0137331 0.00527009)
(-0.00135596 -0.0144137 0.00532818)
(-0.000100301 -0.0188296 0.00312722)
(-0.00040442 -0.0183716 0.00344681)
(0.000362303 -0.0186662 0.00662062)
(-0.000436645 -0.018313 0.00343473)
(-0.000759666 -0.0179753 0.00396133)
(0.000107944 -0.0201158 0.00637704)
(-0.000565606 -0.01855 0.0055265)
(-0.000224775 -0.0193528 0.00646116)
(-0.000166064 -0.0181728 0.00309064)
(-2.78438e-05 -0.0192131 0.00436622)
(-0.000618485 -0.0183187 0.00526886)
(0.000314902 -0.0169113 0.00198536)
(8.13533e-06 -0.0174849 0.00247306)
(-7.27176e-06 -0.0179616 0.00305946)
(-0.000175649 -0.0175581 0.00295191)
(0.00136856 -0.0155978 0.00126903)
(0.000339538 -0.0173584 0.00185136)
(0.000505727 -0.0162535 0.0012322)
(-0.000125561 -0.0168941 0.00234273)
(-5.72691e-05 -0.0173788 0.00243887)
(0.000433922 -0.0169512 0.00207595)
(0.00112225 -0.0164155 0.00162536)
(0.00113614 -0.0100451 0.00503972)
(-4.48674e-05 -0.0117626 0.00544502)
(0.000740858 -0.010805 0.00532724)
(0.00095913 -0.0104056 0.00503918)
(0.00109178 -0.0103086 0.00509316)
(0.00197656 -0.0192822 0.000928233)
(0.00476851 -0.0189959 0.00241703)
(0.00424534 -0.019248 0.00188871)
(0.00235131 -0.0187304 0.00181684)
(0.00273734 -0.019394 0.00177519)
(0.00394377 -0.0197708 0.00220159)
(0.00478056 -0.0188138 0.0024424)
(0.00515383 -0.018442 0.00305946)
(0.00523797 -0.019459 0.00287758)
(0.00520346 -0.0180792 0.00261697)
(0.00474869 -0.0191763 0.00289675)
(0.0040325 -0.0193823 0.00225697)
(0.00366807 -0.0201935 0.00218052)
(0.00375538 -0.0187905 0.002205)
(-3.72141e-05 -0.0179319 0.00198321)
(-0.000187096 -0.0174957 0.00191039)
(0.000884265 -0.0192503 0.00212809)
(0.00057715 -0.0186572 0.00159127)
(0.000986578 -0.0188844 0.00151821)
(0.00270702 -0.019424 0.00071562)
(0.00470948 -0.0195119 0.00157686)
(0.00402993 -0.018605 0.000907708)
(0.00330721 -0.0191912 0.00113053)
(0.00322375 -0.0194868 0.000962063)
(0.00488636 -0.0192531 0.00195021)
(0.00412688 -0.019641 0.00190321)
(0.0050153 -0.0181744 0.00189295)
(0.00559203 -0.0190923 0.00270823)
(0.00631655 -0.0175533 0.00606211)
(0.00635896 -0.0193969 0.00319945)
(0.00650753 -0.0190982 0.00391565)
(0.00637489 -0.0183127 0.00482549)
(0.00677339 -0.0197593 0.00478809)
(0.00625088 -0.018274 0.00608803)
(0.00667437 -0.019595 0.00640524)
(0.00678659 -0.0182782 0.00473731)
(0.00632729 -0.0187917 0.00471584)
(0.00621801 -0.0186619 0.00410269)
(0.00681299 -0.0187469 0.0069708)
(0.00679534 -0.0193387 0.00606499)
(0.00650212 -0.018406 0.00499118)
(0.00680345 -0.019176 0.00572665)
(0.00625609 -0.018112 0.00628821)
(0.00544005 -0.019592 0.00289851)
(0.00400696 -0.0189989 0.00227375)