/*--------------------------------*- C++ -*----------------------------------*\
| =========                 |                                                 |
| \\      /  F ield         | OpenFOAM: The Open Source CFD Toolbox           |
|  \\    /   O peration     | Version:  v1612+                                |
|   \\  /    A nd           | Web:      www.OpenFOAM.com                      |
|    \\/     M anipulation  |                                                 |
\*---------------------------------------------------------------------------*/
FoamFile
{
    version     2.0;
    format      ascii;
    class       volVectorField;
    location    "150";
    object      U;
}
// * * * * * * * * * * * * * * * * * * * * * * * * * * * * * * * * * * * * * //

dimensions      [0 1 -1 0 0 0 0];

internalField   nonuniform List<vector> 
16994
(
(-0.114893 0.665719 -0.241462)
(-0.114008 0.700765 -0.254918)
(-0.104103 0.651166 -0.238476)
(-0.13161 0.796153 -0.291849)
(-0.103464 0.645408 -0.230928)
(-0.105107 0.652593 -0.240716)
(-0.0947018 0.609638 -0.221204)
(-0.110785 0.654703 -0.238428)
(-0.0888877 0.573374 -0.211843)
(-0.101373 0.618495 -0.22884)
(-0.12216 0.717927 -0.263178)
(-0.0984976 0.613872 -0.216641)
(-0.0987299 0.59557 -0.208024)
(-0.083819 0.552712 -0.205288)
(-0.0878354 0.580431 -0.219535)
(-0.149414 0.890494 -0.327931)
(-0.148603 0.889965 -0.324305)
(-0.14957 0.91043 -0.330926)
(-0.150903 0.922571 -0.336289)
(-0.149764 0.918689 -0.336644)
(-0.143532 0.867686 -0.315291)
(-0.139207 0.860034 -0.318353)
(-0.137316 0.846396 -0.311745)
(-0.160241 0.949119 -0.349273)
(-0.158782 0.947819 -0.347938)
(-0.151773 0.912043 -0.336403)
(-0.144905 0.887903 -0.324516)
(-0.156794 0.948608 -0.345707)
(-0.156887 0.950223 -0.347041)
(-0.142691 0.845986 -0.307393)
(-0.148265 0.919245 -0.335926)
(-0.151 0.911786 -0.335053)
(-0.149459 0.91176 -0.330906)
(-0.15129 0.938831 -0.341895)
(-0.150412 0.917543 -0.336546)
(-0.15201 0.93811 -0.339643)
(-0.148012 0.916019 -0.335829)
(-0.11011 0.667285 -0.246106)
(-0.101787 0.60205 -0.217707)
(-0.10326 0.62572 -0.233166)
(-0.0933901 0.592908 -0.227593)
(-0.117765 0.679622 -0.253317)
(-0.101198 0.627575 -0.232349)
(-0.1057 0.655395 -0.247164)
(-0.130041 0.786631 -0.294397)
(-0.125976 0.785997 -0.293783)
(-0.130308 0.802078 -0.30327)
(-0.12909 0.778635 -0.29086)
(-0.110517 0.672882 -0.251637)
(-0.103301 0.627906 -0.233032)
(-0.100935 0.588832 -0.218909)
(-0.112473 0.671318 -0.248312)
(-0.114614 0.688509 -0.26041)
(-0.115197 0.666812 -0.25013)
(-0.104439 0.602347 -0.229331)
(-0.12722 0.776731 -0.295238)
(-0.133748 0.786567 -0.298528)
(-0.103806 0.630363 -0.226645)
(-0.0934127 0.560087 -0.199279)
(-0.0950004 0.598074 -0.21353)
(-0.110113 0.652533 -0.235069)
(-0.13288 0.770319 -0.286606)
(-0.125209 0.779747 -0.283103)
(-0.0952861 0.538147 -0.187832)
(-0.0981513 0.598302 -0.217038)
(-0.130513 0.778776 -0.284902)
(-0.112588 0.661894 -0.240169)
(-0.119521 0.704247 -0.256873)
(-0.11707 0.647735 -0.235279)
(-0.135343 0.774873 -0.279583)
(-0.0985326 0.635344 -0.230851)
(-0.123417 0.752479 -0.277501)
(-0.123802 0.750532 -0.276922)
(-0.121701 0.745784 -0.27068)
(-0.121806 0.749917 -0.273344)
(-0.107029 0.669385 -0.245463)
(-0.100845 0.625398 -0.2301)
(-0.105675 0.659897 -0.241303)
(-0.101316 0.613555 -0.225474)
(-0.0924431 0.555481 -0.204451)
(-0.102557 0.636914 -0.232849)
(-0.112099 0.673484 -0.24603)
(-0.102079 0.611563 -0.22852)
(-0.0922159 0.563505 -0.209735)
(-0.112382 0.685055 -0.259916)
(-0.124494 0.73815 -0.276635)
(-0.138167 0.799875 -0.302847)
(-0.12813 0.755993 -0.282828)
(-0.103946 0.614648 -0.227035)
(-0.104876 0.597283 -0.222108)
(-0.0930083 0.516123 -0.192519)
(-0.110029 0.672162 -0.254554)
(-0.112239 0.645939 -0.23821)
(-0.105353 0.588682 -0.218441)
(-0.109164 0.629838 -0.236115)
(-0.106877 0.587338 -0.221671)
(-0.111244 0.649414 -0.240216)
(-0.119088 0.69444 -0.253527)
(-0.121412 0.687483 -0.257037)
(-0.118777 0.690586 -0.259313)
(-0.123999 0.70181 -0.261126)
(-0.140641 0.802898 -0.293506)
(-0.141924 0.788525 -0.298712)
(-0.138839 0.803784 -0.299969)
(-0.109109 0.643108 -0.236838)
(-0.0966685 0.57874 -0.207742)
(-0.108462 0.669633 -0.24578)
(-0.114899 0.681409 -0.25158)
(-0.104832 0.62031 -0.222921)
(-0.128456 0.785358 -0.282882)
(-0.133118 0.781581 -0.287729)
(-0.104981 0.634532 -0.230318)
(-0.103905 0.580775 -0.210315)
(-0.126096 0.770982 -0.281081)
(-0.130459 0.80143 -0.292643)
(-0.123652 0.774262 -0.287581)
(-0.102587 0.615622 -0.227156)
(-0.117894 0.704692 -0.257409)
(-0.12331 0.694578 -0.255831)
(-0.108702 0.633404 -0.229099)
(-0.108633 0.627442 -0.224579)
(-0.131785 0.769407 -0.288651)
(-0.13026 0.757424 -0.283823)
(-0.111428 0.629371 -0.238884)
(-0.115061 0.656433 -0.246486)
(-0.136887 0.772512 -0.288444)
(-0.117339 0.682976 -0.252866)
(-0.127496 0.676512 -0.254886)
(-0.108545 0.619056 -0.23402)
(-0.101692 0.576895 -0.219601)
(-0.0998486 0.6272 -0.245115)
(-0.0893291 0.588504 -0.23394)
(-0.116358 0.67126 -0.251851)
(-0.105282 0.641882 -0.240857)
(-0.109419 0.632269 -0.233395)
(-0.115231 0.681774 -0.259997)
(-0.107025 0.657633 -0.238695)
(-0.10058 0.631916 -0.236514)
(-0.0946458 0.57768 -0.212232)
(-0.166857 0.982033 -0.360382)
(-0.165609 0.981126 -0.363414)
(-0.164913 0.983361 -0.362667)
(-0.164791 0.975528 -0.360468)
(-0.168667 0.986389 -0.361037)
(-0.167723 0.984732 -0.364751)
(-0.167115 0.983753 -0.364002)
(-0.16964 0.983001 -0.362853)
(-0.165568 0.987248 -0.363052)
(-0.16648 0.979991 -0.356907)
(-0.166414 0.989922 -0.362181)
(-0.0971153 0.640773 -0.234396)
(-0.120655 0.691154 -0.257769)
(-0.114982 0.672479 -0.253035)
(-0.139753 0.815616 -0.307361)
(-0.148124 0.84755 -0.311563)
(-0.134438 0.774038 -0.294038)
(-0.141762 0.83428 -0.310949)
(-0.10066 0.621773 -0.235443)
(-0.124769 0.707471 -0.255354)
(-0.121519 0.684713 -0.256055)
(-0.141345 0.828666 -0.313958)
(-0.139126 0.805724 -0.303916)
(-0.147493 0.803669 -0.304877)
(-0.143185 0.867062 -0.325115)
(-0.140417 0.841236 -0.308278)
(-0.141294 0.833802 -0.304617)
(-0.127306 0.740246 -0.274513)
(-0.130336 0.769894 -0.284773)
(-0.15121 0.911383 -0.338655)
(-0.152505 0.906187 -0.341014)
(-0.133636 0.816763 -0.305773)
(-0.135943 0.838432 -0.317677)
(-0.151919 0.900462 -0.338012)
(-0.152156 0.904478 -0.336424)
(-0.153896 0.895281 -0.337542)
(-0.166186 0.970342 -0.364144)
(-0.165061 0.968363 -0.361)
(-0.16405 0.958249 -0.359122)
(-0.164217 0.971099 -0.362709)
(-0.16615 0.975365 -0.36011)
(-0.163374 0.966137 -0.358841)
(-0.161396 0.945238 -0.352344)
(-0.165174 0.96183 -0.358969)
(-0.165997 0.969759 -0.360946)
(-0.163398 0.948248 -0.355097)
(-0.160987 0.938987 -0.35449)
(-0.162588 0.960251 -0.357232)
(-0.160386 0.9381 -0.351381)
(-0.164779 0.950029 -0.356083)
(-0.165506 0.965404 -0.359206)
(-0.134393 0.800226 -0.293922)
(-0.127126 0.764651 -0.283121)
(-0.137947 0.837003 -0.309203)
(-0.142128 0.856729 -0.320556)
(-0.139813 0.865065 -0.323198)
(-0.133103 0.801239 -0.29895)
(-0.12182 0.750603 -0.278345)
(-0.140198 0.846194 -0.31282)
(-0.138395 0.834104 -0.307718)
(-0.140255 0.831225 -0.309855)
(-0.136261 0.846349 -0.314969)
(-0.139496 0.863702 -0.319188)
(-0.12633 0.73976 -0.273299)
(-0.129196 0.794076 -0.291982)
(-0.13426 0.841408 -0.313573)
(-0.14239 0.844795 -0.317688)
(-0.13468 0.833742 -0.310328)
(-0.137722 0.847614 -0.314099)
(-0.1464 0.870133 -0.325068)
(-0.149944 0.915871 -0.338041)
(-0.152054 0.920379 -0.341608)
(-0.158753 0.939351 -0.347931)
(-0.15565 0.937074 -0.347265)
(-0.140993 0.857849 -0.31576)
(-0.149535 0.900754 -0.333912)
(-0.149886 0.918223 -0.341358)
(-0.151784 0.911193 -0.341406)
(-0.152953 0.921597 -0.344504)
(-0.129034 0.736132 -0.280923)
(-0.113263 0.662195 -0.240038)
(-0.11956 0.736506 -0.269806)
(-0.107302 0.632176 -0.232395)
(-0.123392 0.695672 -0.264052)
(-0.129433 0.735142 -0.266221)
(-0.123439 0.705972 -0.263307)
(-0.119351 0.662274 -0.240057)
(-0.132531 0.759167 -0.279862)
(-0.116819 0.648355 -0.23479)
(-0.122248 0.740297 -0.276381)
(-0.116772 0.654406 -0.238941)
(-0.106202 0.618611 -0.231074)
(-0.1102 0.584586 -0.208421)
(-0.116724 0.638168 -0.235503)
(-0.107038 0.662371 -0.237197)
(-0.100116 0.572498 -0.208682)
(-0.100579 0.568001 -0.211674)
(-0.162141 0.962599 -0.35104)
(-0.169948 0.986313 -0.361141)
(-0.16179 0.970485 -0.359368)
(-0.168087 0.979187 -0.357372)
(-0.162664 0.971282 -0.3543)
(-0.164384 0.966143 -0.35211)
(-0.16466 0.974263 -0.35773)
(-0.166401 0.985539 -0.359304)
(-0.149255 0.896947 -0.336267)
(-0.149123 0.906599 -0.337598)
(-0.152646 0.909822 -0.340126)
(-0.149913 0.898748 -0.340408)
(-0.147471 0.893122 -0.335959)
(-0.14473 0.881886 -0.33361)
(-0.152803 0.905304 -0.340655)
(-0.147567 0.884392 -0.334525)
(-0.153221 0.909601 -0.343645)
(-0.15933 0.944665 -0.354505)
(-0.158251 0.940424 -0.353339)
(-0.154749 0.936145 -0.349162)
(-0.155679 0.942026 -0.348922)
(-0.157943 0.939636 -0.348305)
(-0.15666 0.924491 -0.350222)
(-0.157221 0.939697 -0.350566)
(-0.158625 0.933499 -0.351214)
(-0.152682 0.918558 -0.346486)
(-0.103508 0.641714 -0.243442)
(-0.094668 0.572259 -0.214191)
(-0.111477 0.655621 -0.253228)
(-0.1018 0.617304 -0.231448)
(-0.109373 0.659802 -0.250106)
(-0.100719 0.613956 -0.22604)
(-0.0927884 0.582596 -0.220194)
(-0.127823 0.763228 -0.286874)
(-0.104452 0.63737 -0.243153)
(-0.0943548 0.562469 -0.211566)
(-0.127156 0.798748 -0.300808)
(-0.128824 0.787671 -0.297598)
(-0.117041 0.68136 -0.26096)
(-0.110726 0.669042 -0.249711)
(-0.102836 0.626005 -0.232973)
(-0.119477 0.686942 -0.257842)
(-0.138262 0.805265 -0.299047)
(-0.132841 0.775308 -0.292126)
(-0.130839 0.767003 -0.284803)
(-0.112704 0.638703 -0.24638)
(-0.105468 0.614925 -0.23062)
(-0.124409 0.66316 -0.251133)
(-0.133968 0.784314 -0.291991)
(-0.133749 0.786189 -0.289864)
(-0.130017 0.749234 -0.277332)
(-0.107497 0.59251 -0.2155)
(-0.115302 0.666762 -0.248652)
(-0.0895093 0.548299 -0.196731)
(-0.115853 0.686832 -0.257556)
(-0.122213 0.659948 -0.241403)
(-0.103385 0.607223 -0.228851)
(-0.097121 0.537832 -0.197443)
(-0.129381 0.784748 -0.286727)
(-0.120182 0.739943 -0.283424)
(-0.116041 0.708906 -0.252474)
(-0.102007 0.639988 -0.235173)
(-0.100284 0.609514 -0.220763)
(-0.108095 0.652788 -0.2463)
(-0.114134 0.679198 -0.249839)
(-0.10374 0.645022 -0.231547)
(-0.138534 0.809683 -0.298824)
(-0.111954 0.657104 -0.240863)
(-0.0991135 0.593806 -0.221253)
(-0.109267 0.663263 -0.250643)
(-0.0986413 0.617273 -0.232331)
(-0.125202 0.729631 -0.265795)
(-0.136796 0.800416 -0.299172)
(-0.135904 0.824649 -0.300544)
(-0.13441 0.81366 -0.304625)
(-0.0989576 0.581163 -0.221247)
(-0.121835 0.728749 -0.273601)
(-0.102298 0.635186 -0.244215)
(-0.117904 0.671153 -0.251567)
(-0.104095 0.651004 -0.246131)
(-0.110138 0.626885 -0.23608)
(-0.0907565 0.550164 -0.209935)
(-0.130364 0.773962 -0.291083)
(-0.109779 0.671239 -0.251732)
(-0.0992143 0.611883 -0.235709)
(-0.113268 0.685291 -0.257447)
(-0.130193 0.760108 -0.284721)
(-0.129783 0.771315 -0.288779)
(-0.119451 0.657757 -0.24141)
(-0.109536 0.621435 -0.234988)
(-0.122055 0.667017 -0.250361)
(-0.121081 0.693167 -0.25584)
(-0.139459 0.809335 -0.296745)
(-0.142299 0.812523 -0.293831)
(-0.134687 0.787957 -0.295686)
(-0.129501 0.77024 -0.284366)
(-0.12359 0.691245 -0.257906)
(-0.111015 0.639894 -0.24135)
(-0.132599 0.775784 -0.290156)
(-0.134007 0.779348 -0.293323)
(-0.142974 0.803975 -0.302184)
(-0.104061 0.625227 -0.234752)
(-0.101997 0.593377 -0.221453)
(-0.140074 0.795629 -0.292769)
(-0.139709 0.802129 -0.295743)
(-0.114775 0.667035 -0.246513)
(-0.112232 0.654015 -0.248624)
(-0.165129 0.969409 -0.359001)
(-0.164 0.967722 -0.356967)
(-0.165925 0.977663 -0.360643)
(-0.167014 0.980587 -0.36093)
(-0.168203 0.972126 -0.358062)
(-0.167023 0.971312 -0.35907)
(-0.164672 0.968881 -0.358398)
(-0.169112 0.965616 -0.355421)
(-0.168695 0.975794 -0.359833)
(-0.167178 0.972915 -0.358477)
(-0.167437 0.975044 -0.357095)
(-0.165991 0.951164 -0.349192)
(-0.16881 0.969779 -0.358153)
(-0.168554 0.969216 -0.358408)
(-0.160173 0.908926 -0.341627)
(-0.159661 0.920858 -0.339483)
(-0.163523 0.955387 -0.354142)
(-0.162956 0.934319 -0.349146)
(-0.160009 0.917821 -0.343963)
(-0.160179 0.90667 -0.339327)
(-0.15518 0.903203 -0.335925)
(-0.162333 0.962501 -0.356754)
(-0.161867 0.949016 -0.353315)
(-0.166712 0.957292 -0.356057)
(-0.158573 0.921634 -0.346527)
(-0.156009 0.912235 -0.341842)
(-0.163622 0.932713 -0.347935)
(-0.160778 0.945038 -0.355356)
(-0.157812 0.906289 -0.336739)
(-0.157683 0.912734 -0.34351)
(-0.154355 0.880697 -0.328881)
(-0.162469 0.899423 -0.334171)
(-0.161308 0.94884 -0.355484)
(-0.166253 0.952843 -0.359906)
(-0.158356 0.919171 -0.344582)
(-0.160601 0.917005 -0.34461)
(-0.164026 0.953854 -0.356703)
(-0.14871 0.868506 -0.318787)
(-0.140576 0.812565 -0.298264)
(-0.153727 0.861802 -0.31378)
(-0.142622 0.823163 -0.297414)
(-0.128554 0.747402 -0.27817)
(-0.157612 0.877778 -0.327227)
(-0.151319 0.860632 -0.320673)
(-0.157653 0.871863 -0.322716)
(-0.15124 0.860262 -0.318974)
(-0.141726 0.812849 -0.305546)
(-0.157454 0.87977 -0.328428)
(-0.134751 0.785319 -0.293432)
(-0.153283 0.86907 -0.325381)
(-0.152429 0.854473 -0.318626)
(-0.140891 0.799229 -0.299163)
(-0.130837 0.76959 -0.279642)
(-0.159437 0.906359 -0.337786)
(-0.16053 0.920993 -0.342434)
(-0.134572 0.799903 -0.298757)
(-0.136675 0.800134 -0.301393)
(-0.156035 0.896587 -0.335937)
(-0.159628 0.92482 -0.346587)
(-0.164871 0.936447 -0.352985)
(-0.16222 0.933527 -0.347552)
(-0.164663 0.939305 -0.355323)
(-0.134238 0.789886 -0.296886)
(-0.132738 0.77904 -0.292259)
(-0.137352 0.801115 -0.301953)
(-0.136753 0.828722 -0.307529)
(-0.143407 0.832603 -0.312202)
(-0.15604 0.88349 -0.327768)
(-0.15866 0.916908 -0.347487)
(-0.159549 0.914608 -0.34398)
(-0.153915 0.900922 -0.337724)
(-0.158514 0.921113 -0.347206)
(-0.139556 0.800416 -0.299993)
(-0.135455 0.802165 -0.30203)
(-0.136139 0.766105 -0.286683)
(-0.14342 0.845274 -0.314847)
(-0.134834 0.818002 -0.305939)
(-0.138258 0.837973 -0.308888)
(-0.136174 0.850615 -0.316626)
(-0.132979 0.828113 -0.30534)
(-0.14874 0.899483 -0.333075)
(-0.149465 0.907222 -0.335707)
(-0.129178 0.808757 -0.294237)
(-0.13724 0.85701 -0.317425)
(-0.139383 0.838621 -0.310647)
(-0.14122 0.878984 -0.322796)
(-0.148846 0.908031 -0.336207)
(-0.140786 0.858988 -0.314433)
(-0.128438 0.809655 -0.294866)
(-0.139966 0.868346 -0.317351)
(-0.15314 0.920943 -0.338111)
(-0.139901 0.864661 -0.320485)
(-0.133273 0.839064 -0.30726)
(-0.138294 0.848331 -0.313033)
(-0.142754 0.881305 -0.323585)
(-0.140562 0.824311 -0.302577)
(-0.138707 0.808482 -0.297956)
(-0.161658 0.945953 -0.344183)
(-0.157616 0.933775 -0.338841)
(-0.160557 0.927623 -0.336562)
(-0.155914 0.919374 -0.333323)
(-0.141769 0.846276 -0.307554)
(-0.142181 0.859007 -0.31224)
(-0.144779 0.838169 -0.299461)
(-0.16113 0.935754 -0.341507)
(-0.157578 0.909001 -0.336472)
(-0.139312 0.820648 -0.29724)
(-0.147676 0.84828 -0.307764)
(-0.159048 0.914904 -0.33429)
(-0.147595 0.879131 -0.315546)
(-0.14624 0.849865 -0.305872)
(-0.140961 0.841582 -0.306408)
(-0.150627 0.838755 -0.301812)
(-0.171341 0.995103 -0.370597)
(-0.170562 0.977058 -0.363567)
(-0.170492 0.983278 -0.372248)
(-0.167188 0.960015 -0.358326)
(-0.166483 0.940394 -0.352278)
(-0.157585 0.909887 -0.341467)
(-0.170328 0.962578 -0.36049)
(-0.168373 0.957558 -0.354678)
(-0.166468 0.973656 -0.362273)
(-0.171168 0.986762 -0.369012)
(-0.154576 0.894368 -0.336716)
(-0.163468 0.950676 -0.357864)
(-0.160275 0.92633 -0.342075)
(-0.151322 0.869073 -0.331708)
(-0.162465 0.920277 -0.347869)
(-0.146889 0.85655 -0.315952)
(-0.148607 0.856702 -0.319518)
(-0.162804 0.92988 -0.351774)
(-0.16298 0.928596 -0.350432)
(-0.144204 0.85183 -0.32072)
(-0.148959 0.863361 -0.323712)
(-0.163603 0.934172 -0.351918)
(-0.156697 0.914651 -0.340288)
(-0.162165 0.935819 -0.348015)
(-0.155401 0.91732 -0.343533)
(-0.152344 0.891184 -0.328009)
(-0.157099 0.918452 -0.342255)
(-0.156311 0.921855 -0.344014)
(-0.168191 0.969027 -0.359968)
(-0.167496 0.959978 -0.358556)
(-0.151642 0.878739 -0.333367)
(-0.164074 0.923307 -0.348642)
(-0.159398 0.927912 -0.348335)
(-0.167105 0.967638 -0.361427)
(-0.158144 0.925839 -0.345187)
(-0.16643 0.951477 -0.356462)
(-0.158896 0.920408 -0.344083)
(-0.157958 0.909063 -0.341395)
(-0.157586 0.901279 -0.340195)
(-0.155381 0.921958 -0.342936)
(-0.14887 0.866736 -0.32834)
(-0.149739 0.871082 -0.329396)
(-0.153398 0.897453 -0.336576)
(-0.152064 0.923106 -0.342231)
(-0.151741 0.918972 -0.343356)
(-0.153385 0.927966 -0.343765)
(-0.149425 0.907859 -0.337592)
(-0.147069 0.891914 -0.333042)
(-0.161382 0.953677 -0.354004)
(-0.155852 0.941815 -0.348587)
(-0.158041 0.945962 -0.351036)
(-0.157008 0.942484 -0.350728)
(-0.153197 0.921006 -0.337524)
(-0.151203 0.900296 -0.335926)
(-0.156473 0.947522 -0.350657)
(-0.154452 0.943665 -0.34431)
(-0.155638 0.941987 -0.348322)
(-0.154868 0.933616 -0.348739)
(-0.156851 0.951849 -0.3501)
(-0.150883 0.921139 -0.341484)
(-0.14901 0.905444 -0.338041)
(-0.145298 0.897564 -0.332159)
(-0.152434 0.930338 -0.339173)
(-0.114668 0.697654 -0.260744)
(-0.103621 0.640378 -0.24216)
(-0.11756 0.713709 -0.26174)
(-0.116441 0.660061 -0.247896)
(-0.146166 0.863481 -0.312904)
(-0.13933 0.814852 -0.293404)
(-0.16055 0.928201 -0.342207)
(-0.154574 0.914304 -0.333448)
(-0.153775 0.913985 -0.331005)
(-0.15501 0.933277 -0.33878)
(-0.142745 0.836296 -0.308975)
(-0.121385 0.729153 -0.264785)
(-0.116214 0.658561 -0.24735)
(-0.115997 0.692649 -0.252202)
(-0.15452 0.891192 -0.320966)
(-0.147244 0.865031 -0.312096)
(-0.13655 0.792495 -0.288411)
(-0.145078 0.849322 -0.311876)
(-0.156992 0.925633 -0.33909)
(-0.158571 0.934237 -0.339486)
(-0.144746 0.871931 -0.307781)
(-0.147878 0.828993 -0.306953)
(-0.144519 0.803233 -0.292215)
(-0.141086 0.819961 -0.301099)
(-0.151019 0.847935 -0.30842)
(-0.165746 0.981926 -0.36461)
(-0.167874 0.993311 -0.367626)
(-0.167049 0.97523 -0.3632)
(-0.169083 0.994721 -0.368932)
(-0.165369 0.970977 -0.357806)
(-0.163028 0.996142 -0.365014)
(-0.162869 0.969552 -0.36145)
(-0.16466 0.980607 -0.362561)
(-0.157936 0.947453 -0.349459)
(-0.156861 0.946094 -0.350206)
(-0.166991 0.998977 -0.369345)
(-0.157291 0.93968 -0.345323)
(-0.154189 0.935252 -0.346915)
(-0.158335 0.944058 -0.350725)
(-0.150671 0.926311 -0.344747)
(-0.158138 0.947235 -0.349943)
(-0.152259 0.908434 -0.334954)
(-0.157591 0.955224 -0.34799)
(-0.165572 0.997866 -0.369653)
(-0.152869 0.880538 -0.328732)
(-0.153221 0.882789 -0.330754)
(-0.151714 0.8847 -0.326531)
(-0.144878 0.820676 -0.304285)
(-0.15216 0.880611 -0.327953)
(-0.145662 0.835731 -0.31381)
(-0.137378 0.76796 -0.288235)
(-0.152176 0.85141 -0.317053)
(-0.144761 0.844239 -0.315349)
(-0.143523 0.818219 -0.307473)
(-0.135316 0.795178 -0.296814)
(-0.131161 0.782139 -0.295666)
(-0.110317 0.684961 -0.25637)
(-0.117388 0.712682 -0.268989)
(-0.153024 0.821298 -0.308314)
(-0.140754 0.834901 -0.315141)
(-0.153909 0.890771 -0.336264)
(-0.148238 0.862136 -0.319621)
(-0.148688 0.854251 -0.31783)
(-0.145622 0.85378 -0.328478)
(-0.140726 0.782744 -0.300704)
(-0.148101 0.841754 -0.318097)
(-0.15249 0.92261 -0.341884)
(-0.152907 0.931545 -0.344044)
(-0.158845 0.95939 -0.350833)
(-0.156169 0.941299 -0.35026)
(-0.158822 0.962847 -0.35425)
(-0.159564 0.955454 -0.352532)
(-0.153033 0.923132 -0.340834)
(-0.155657 0.94627 -0.345724)
(-0.1568 0.9476 -0.351473)
(-0.160767 0.968754 -0.356147)
(-0.163028 0.962649 -0.355588)
(-0.152577 0.924602 -0.338721)
(-0.15954 0.960294 -0.353884)
(-0.156185 0.943604 -0.347892)
(-0.150189 0.921954 -0.340875)
(-0.158559 0.964721 -0.354106)
(-0.157946 0.954151 -0.349429)
(-0.151737 0.926953 -0.341766)
(-0.153421 0.907074 -0.337661)
(-0.159188 0.9053 -0.339178)
(-0.156951 0.903062 -0.33608)
(-0.136704 0.792728 -0.297117)
(-0.133866 0.768772 -0.287662)
(-0.143936 0.830367 -0.304524)
(-0.139114 0.790503 -0.295216)
(-0.146131 0.874601 -0.325696)
(-0.141966 0.822694 -0.306409)
(-0.156248 0.901912 -0.338)
(-0.159138 0.921506 -0.344467)
(-0.150289 0.889945 -0.333303)
(-0.141601 0.81335 -0.303164)
(-0.1438 0.814391 -0.305446)
(-0.145531 0.845549 -0.312016)
(-0.144591 0.815909 -0.302004)
(-0.158904 0.913073 -0.343646)
(-0.143322 0.825499 -0.306762)
(-0.158344 0.939053 -0.344291)
(-0.154805 0.931217 -0.339741)
(-0.144727 0.865064 -0.312812)
(-0.155699 0.900389 -0.330778)
(-0.157634 0.934737 -0.346131)
(-0.156808 0.937272 -0.342115)
(-0.154481 0.912795 -0.330303)
(-0.133989 0.812779 -0.297386)
(-0.151637 0.908421 -0.331876)
(-0.131677 0.79866 -0.28778)
(-0.130563 0.815585 -0.294042)
(-0.135404 0.827571 -0.299242)
(-0.139457 0.819013 -0.301523)
(-0.140928 0.858974 -0.315206)
(-0.137914 0.787358 -0.291483)
(-0.133366 0.817753 -0.309912)
(-0.140439 0.826094 -0.306002)
(-0.131623 0.804282 -0.295885)
(-0.125003 0.726831 -0.264701)
(-0.130822 0.826697 -0.307832)
(-0.133877 0.82908 -0.306944)
(-0.139312 0.831415 -0.306993)
(-0.142721 0.84612 -0.303948)
(-0.141165 0.842248 -0.306059)
(-0.145058 0.846756 -0.30702)
(-0.134432 0.812167 -0.293583)
(-0.124262 0.756302 -0.280807)
(-0.13898 0.831012 -0.296203)
(-0.12801 0.803497 -0.288345)
(-0.13747 0.804241 -0.287319)
(-0.141444 0.867284 -0.311713)
(-0.125293 0.789708 -0.283285)
(-0.142738 0.868794 -0.316412)
(-0.123661 0.76899 -0.284487)
(-0.123783 0.774306 -0.285196)
(-0.103926 0.668186 -0.250665)
(-0.109142 0.670345 -0.243695)
(-0.127919 0.775188 -0.287528)
(-0.0997217 0.643597 -0.242808)
(-0.110434 0.691951 -0.257043)
(-0.126537 0.783494 -0.290628)
(-0.135966 0.79974 -0.293946)
(-0.107669 0.640036 -0.228991)
(-0.100161 0.64289 -0.243041)
(-0.0908684 0.575584 -0.215061)
(-0.114157 0.687755 -0.248106)
(-0.111958 0.640958 -0.228138)
(-0.0872217 0.587313 -0.217034)
(-0.114071 0.690553 -0.257745)
(-0.121687 0.773651 -0.284294)
(-0.122994 0.715309 -0.261322)
(-0.111948 0.693562 -0.253695)
(-0.0899047 0.590205 -0.218708)
(-0.108452 0.642655 -0.238037)
(-0.102859 0.600592 -0.226901)
(-0.1152 0.698625 -0.257357)
(-0.112365 0.685057 -0.252508)
(-0.0987763 0.635942 -0.233285)
(-0.104584 0.607635 -0.230258)
(-0.0911459 0.545048 -0.201356)
(-0.123025 0.775506 -0.288725)
(-0.0909424 0.571626 -0.214898)
(-0.13093 0.78301 -0.288274)
(-0.104047 0.607059 -0.232692)
(-0.10619 0.657859 -0.244621)
(-0.115652 0.67265 -0.253193)
(-0.111158 0.708242 -0.263416)
(-0.122888 0.70215 -0.261112)
(-0.125332 0.73416 -0.272269)
(-0.108799 0.643528 -0.229675)
(-0.12031 0.680609 -0.249275)
(-0.134497 0.792301 -0.297978)
(-0.134685 0.815334 -0.311068)
(-0.132408 0.789227 -0.29643)
(-0.148415 0.869513 -0.329494)
(-0.155323 0.888126 -0.332452)
(-0.134658 0.78143 -0.290944)
(-0.117598 0.673678 -0.251377)
(-0.13815 0.803298 -0.305517)
(-0.140191 0.821143 -0.307083)
(-0.140558 0.835735 -0.313942)
(-0.15424 0.907453 -0.338745)
(-0.146773 0.874374 -0.326987)
(-0.150974 0.909158 -0.340537)
(-0.155948 0.893297 -0.333989)
(-0.1395 0.821358 -0.307672)
(-0.129512 0.774743 -0.29051)
(-0.152894 0.89782 -0.339681)
(-0.130597 0.780499 -0.292306)
(-0.137289 0.818124 -0.305802)
(-0.134508 0.823391 -0.310622)
(-0.135898 0.824003 -0.30785)
(-0.138306 0.842011 -0.317051)
(-0.139419 0.827455 -0.310249)
(-0.129378 0.771083 -0.291269)
(-0.12857 0.784375 -0.294574)
(-0.130658 0.804301 -0.302202)
(-0.117929 0.702596 -0.263385)
(-0.114377 0.679844 -0.254937)
(-0.101862 0.655139 -0.247938)
(-0.108331 0.647423 -0.239424)
(-0.10858 0.647881 -0.242962)
(-0.121232 0.712092 -0.268403)
(-0.108871 0.66175 -0.245137)
(-0.104844 0.61977 -0.228736)
(-0.0967814 0.617911 -0.22601)
(-0.131404 0.788761 -0.297097)
(-0.122427 0.762525 -0.278186)
(-0.131046 0.79596 -0.295605)
(-0.116148 0.676045 -0.253711)
(-0.10751 0.613184 -0.232626)
(-0.111245 0.678414 -0.256425)
(-0.0996467 0.63587 -0.239194)
(-0.107991 0.642056 -0.241849)
(-0.103585 0.598533 -0.225749)
(-0.104241 0.640659 -0.236739)
(-0.0947707 0.591994 -0.221254)
(-0.0915595 0.557657 -0.202242)
(-0.127982 0.765446 -0.288857)
(-0.117737 0.686341 -0.259293)
(-0.10706 0.618351 -0.23245)
(-0.170416 0.986473 -0.36261)
(-0.169212 0.987038 -0.362934)
(-0.169215 0.969897 -0.358444)
(-0.170157 0.979464 -0.363607)
(-0.161144 0.93202 -0.339708)
(-0.16093 0.929276 -0.342479)
(-0.170303 0.986816 -0.362979)
(-0.167518 0.980981 -0.36085)
(-0.169621 0.984554 -0.360302)
(-0.154896 0.901406 -0.330086)
(-0.160307 0.916503 -0.335183)
(-0.162668 0.932021 -0.338863)
(-0.163073 0.937658 -0.343111)
(-0.162991 0.9356 -0.344751)
(-0.160711 0.923071 -0.340386)
(-0.159499 0.916495 -0.33425)
(-0.13639 0.82887 -0.306881)
(-0.135458 0.823694 -0.307084)
(-0.135705 0.828275 -0.302775)
(-0.134773 0.848068 -0.314567)
(-0.142046 0.851037 -0.311599)
(-0.131639 0.813825 -0.296987)
(-0.13164 0.826389 -0.3073)
(-0.129887 0.807633 -0.30117)
(-0.110492 0.675538 -0.245703)
(-0.0862574 0.58164 -0.215383)
(-0.125269 0.74729 -0.280459)
(-0.124971 0.736224 -0.271231)
(-0.113193 0.664475 -0.242464)
(-0.098034 0.610232 -0.224561)
(-0.11302 0.669917 -0.244629)
(-0.100878 0.59895 -0.224283)
(-0.135421 0.824935 -0.302826)
(-0.130908 0.826162 -0.30125)
(-0.0996958 0.631156 -0.228225)
(-0.119575 0.712087 -0.263205)
(-0.103664 0.621414 -0.23659)
(-0.120739 0.71105 -0.262402)
(-0.129971 0.782693 -0.291617)
(-0.12013 0.714593 -0.265771)
(-0.108154 0.64444 -0.229474)
(-0.117417 0.664536 -0.240755)
(-0.116357 0.662989 -0.245785)
(-0.103277 0.593133 -0.216737)
(-0.12302 0.708915 -0.26296)
(-0.124168 0.693457 -0.256331)
(-0.120061 0.686937 -0.251398)
(-0.138824 0.800332 -0.299583)
(-0.149371 0.829835 -0.30433)
(-0.149933 0.85546 -0.318809)
(-0.13991 0.806457 -0.301268)
(-0.140582 0.793975 -0.290074)
(-0.125221 0.700411 -0.253968)
(-0.123093 0.725221 -0.272016)
(-0.141386 0.812976 -0.303358)
(-0.137939 0.793569 -0.287914)
(-0.143476 0.814829 -0.301151)
(-0.117217 0.674123 -0.256327)
(-0.112722 0.655722 -0.255841)
(-0.135257 0.815579 -0.302569)
(-0.128388 0.750835 -0.279438)
(-0.123875 0.753984 -0.277572)
(-0.108093 0.657684 -0.255445)
(-0.108181 0.634005 -0.233588)
(-0.109229 0.668361 -0.252272)
(-0.109659 0.656661 -0.244865)
(-0.101403 0.613492 -0.220181)
(-0.111702 0.674047 -0.253814)
(-0.100068 0.61967 -0.227065)
(-0.112826 0.653466 -0.243417)
(-0.121109 0.680514 -0.262698)
(-0.12889 0.774615 -0.285584)
(-0.129211 0.766615 -0.28872)
(-0.135613 0.803841 -0.295121)
(-0.127552 0.795258 -0.294312)
(-0.104691 0.663346 -0.240914)
(-0.104959 0.651733 -0.234573)
(-0.105829 0.636093 -0.234557)
(-0.0977508 0.585027 -0.219454)
(-0.107944 0.620542 -0.228584)
(-0.0991893 0.595276 -0.217196)
(-0.10466 0.618695 -0.228877)
(-0.100728 0.59322 -0.215198)
(-0.109706 0.665432 -0.242349)
(-0.102888 0.633374 -0.232282)
(-0.124009 0.747414 -0.2696)
(-0.125582 0.768594 -0.279173)
(-0.127453 0.768398 -0.281903)
(-0.12703 0.781714 -0.286901)
(-0.111963 0.679258 -0.244409)
(-0.11104 0.659569 -0.242082)
(-0.111473 0.664408 -0.244087)
(-0.119871 0.727747 -0.262501)
(-0.116991 0.718616 -0.266827)
(-0.118279 0.723303 -0.260691)
(-0.156814 0.929826 -0.337473)
(-0.149199 0.893963 -0.32602)
(-0.159175 0.944292 -0.345945)
(-0.161274 0.944287 -0.346299)
(-0.151738 0.903095 -0.328947)
(-0.15311 0.897642 -0.326135)
(-0.153942 0.911788 -0.335307)
(-0.156072 0.929371 -0.341527)
(-0.157707 0.943104 -0.342515)
(-0.154096 0.929362 -0.338491)
(-0.157891 0.912583 -0.331715)
(-0.164085 0.980336 -0.357373)
(-0.161743 0.942843 -0.344058)
(-0.163031 0.942177 -0.344367)
(-0.15951 0.945554 -0.343938)
(-0.137458 0.833197 -0.308289)
(-0.130035 0.777477 -0.284101)
(-0.143936 0.879972 -0.321461)
(-0.122738 0.75329 -0.274456)
(-0.140254 0.827731 -0.308139)
(-0.12169 0.758129 -0.27921)
(-0.138953 0.850784 -0.311647)
(-0.130452 0.808592 -0.297382)
(-0.148857 0.894627 -0.325014)
(-0.148981 0.889192 -0.325588)
(-0.123704 0.779826 -0.285492)
(-0.113828 0.64288 -0.231486)
(-0.11718 0.706283 -0.263962)
(-0.107858 0.647096 -0.233228)
(-0.0959703 0.593722 -0.212305)
(-0.112716 0.750112 -0.282417)
(-0.122027 0.723832 -0.268869)
(-0.107 0.656515 -0.24525)
(-0.0908702 0.590127 -0.214373)
(-0.11495 0.680704 -0.249915)
(-0.100158 0.626821 -0.229691)
(-0.0966235 0.623025 -0.22683)
(-0.107024 0.660767 -0.246444)
(-0.10973 0.680103 -0.247738)
(-0.109083 0.711675 -0.259753)
(-0.104979 0.645582 -0.236332)
(-0.161433 0.910153 -0.334372)
(-0.164139 0.960968 -0.353733)
(-0.167909 0.95911 -0.354173)
(-0.162968 0.951416 -0.342892)
(-0.160715 0.915232 -0.337355)
(-0.159171 0.898646 -0.328367)
(-0.159168 0.932217 -0.339189)
(-0.16421 0.950785 -0.349387)
(-0.109367 0.638805 -0.242151)
(-0.100785 0.601711 -0.225552)
(-0.108808 0.65471 -0.252592)
(-0.105341 0.623532 -0.234032)
(-0.110646 0.647165 -0.249589)
(-0.103902 0.610351 -0.228031)
(-0.111368 0.648806 -0.254)
(-0.109614 0.624918 -0.237906)
(-0.136265 0.81126 -0.30438)
(-0.126586 0.787959 -0.294791)
(-0.113174 0.659222 -0.248159)
(-0.13747 0.800929 -0.302051)
(-0.142934 0.831865 -0.310702)
(-0.130086 0.777721 -0.287644)
(-0.129027 0.77252 -0.286846)
(-0.131091 0.789133 -0.298397)
(-0.11032 0.677985 -0.255178)
(-0.136501 0.820153 -0.301106)
(-0.153646 0.908598 -0.327874)
(-0.150931 0.905843 -0.332063)
(-0.141056 0.843566 -0.301137)
(-0.127263 0.809163 -0.295182)
(-0.147501 0.87219 -0.320149)
(-0.137777 0.867494 -0.317071)
(-0.14227 0.864528 -0.313117)
(-0.136499 0.816913 -0.301433)
(-0.147934 0.878912 -0.317657)
(-0.130701 0.793833 -0.290371)
(-0.130355 0.786914 -0.289604)
(-0.135571 0.805694 -0.289528)
(-0.140708 0.831396 -0.302955)
(-0.134359 0.7942 -0.287004)
(-0.129122 0.762364 -0.280099)
(-0.130619 0.765687 -0.281722)
(-0.132929 0.790936 -0.296549)
(-0.130441 0.747212 -0.284099)
(-0.146291 0.839848 -0.315825)
(-0.145017 0.803699 -0.301827)
(-0.131441 0.701088 -0.265593)
(-0.153657 0.869243 -0.325067)
(-0.140213 0.811371 -0.301489)
(-0.134888 0.769165 -0.287416)
(-0.143005 0.825457 -0.308441)
(-0.122044 0.735575 -0.266784)
(-0.10422 0.663666 -0.244448)
(-0.118688 0.689595 -0.257485)
(-0.0975865 0.612229 -0.223878)
(-0.129894 0.750112 -0.277737)
(-0.131284 0.776846 -0.287013)
(-0.11983 0.723997 -0.268803)
(-0.095875 0.632917 -0.230719)
(-0.113233 0.625733 -0.22943)
(-0.0885065 0.56134 -0.189248)
(-0.118999 0.680672 -0.249341)
(-0.130996 0.794331 -0.292794)
(-0.129067 0.7723 -0.286996)
(-0.104192 0.620312 -0.225027)
(-0.1135 0.63358 -0.23626)
(-0.0881625 0.567789 -0.207991)
(-0.0984332 0.590987 -0.206278)
(-0.122317 0.71106 -0.264518)
(-0.10312 0.614683 -0.229062)
(-0.100914 0.601925 -0.217427)