/*--------------------------------*- C++ -*----------------------------------*\
| =========                 |                                                 |
| \\      /  F ield         | OpenFOAM: The Open Source CFD Toolbox           |
|  \\    /   O peration     | Version:  v1612+                                |
|   \\  /    A nd           | Web:      www.OpenFOAM.com                      |
|    \\/     M anipulation  |                                                 |
\*---------------------------------------------------------------------------*/
FoamFile
{
    version     2.0;
    format      ascii;
    class       volVectorField;
    location    "150";
    object      U;
}
// * * * * * * * * * * * * * * * * * * * * * * * * * * * * * * * * * * * * * //

dimensions      [0 1 -1 0 0 0 0];

internalField   nonuniform List<vector> 
16891
(
(-0.244842 0.302401 -0.544208)
(-0.237874 0.30387 -0.552181)
(-0.237718 0.301992 -0.5324)
(-0.234681 0.285897 -0.522527)
(-0.389796 0.462506 -0.871459)
(-0.364954 0.436252 -0.801428)
(-0.337693 0.406662 -0.753249)
(-0.332496 0.404061 -0.746315)
(-0.347985 0.421349 -0.781203)
(-0.347188 0.42594 -0.78851)
(-0.408919 0.497293 -0.92248)
(-0.379686 0.453883 -0.841155)
(-0.35757 0.428378 -0.801078)
(-0.345889 0.417825 -0.775179)
(-0.385304 0.466803 -0.859245)
(-0.362308 0.437093 -0.81392)
(-0.390053 0.467012 -0.867732)
(-0.352441 0.426169 -0.791887)
(-0.369919 0.446664 -0.82917)
(-0.403893 0.491039 -0.913322)
(-0.415303 0.494761 -0.921987)
(-0.307807 0.37574 -0.693234)
(-0.283705 0.34601 -0.635971)
(-0.295917 0.361948 -0.670879)
(-0.291516 0.360787 -0.65764)
(-0.287668 0.353426 -0.653224)
(-0.23626 0.284982 -0.519515)
(-0.247462 0.295124 -0.547183)
(-0.24399 0.304392 -0.553589)
(-0.242843 0.297066 -0.538491)
(-0.234915 0.277784 -0.516881)
(-0.217975 0.26278 -0.482659)
(-0.219545 0.27091 -0.493102)
(-0.240836 0.295175 -0.542922)
(-0.214347 0.259158 -0.480297)
(-0.199662 0.244576 -0.451419)
(-0.231015 0.288743 -0.5332)
(-0.199466 0.250897 -0.46495)
(-0.222899 0.272583 -0.515597)
(-0.263327 0.320244 -0.611267)
(-0.285498 0.365789 -0.656281)
(-0.309797 0.396603 -0.710111)
(-0.236257 0.283397 -0.54404)
(-0.232796 0.29384 -0.542655)
(-0.228342 0.276407 -0.520863)
(-0.232789 0.278528 -0.546024)
(-0.300579 0.373823 -0.698846)
(-0.29484 0.363888 -0.675403)
(-0.290207 0.356957 -0.651468)
(-0.245776 0.293794 -0.561237)
(-0.282749 0.356369 -0.646572)
(-0.380332 0.464438 -0.851781)
(-0.395471 0.49466 -0.894946)
(-0.402005 0.501369 -0.914524)
(-0.409448 0.505434 -0.926686)
(-0.389371 0.474397 -0.872372)
(-0.393434 0.479166 -0.87734)
(-0.378795 0.459554 -0.839045)
(-0.369879 0.446114 -0.822731)
(-0.35945 0.442167 -0.808071)
(-0.36321 0.447101 -0.817773)
(-0.377019 0.460288 -0.846595)
(-0.337231 0.415364 -0.75905)
(-0.33647 0.419384 -0.76657)
(-0.345911 0.421856 -0.775559)
(-0.345758 0.427251 -0.78677)
(-0.380209 0.466916 -0.852205)
(-0.382235 0.458735 -0.849003)
(-0.365789 0.447318 -0.81941)
(-0.343021 0.418148 -0.768473)
(-0.370476 0.456212 -0.844332)
(-0.379764 0.467301 -0.850479)
(-0.316964 0.390144 -0.713461)
(-0.311335 0.367951 -0.703149)
(-0.299279 0.361961 -0.671863)
(-0.312248 0.36857 -0.67934)
(-0.296781 0.347977 -0.650501)
(-0.372474 0.451536 -0.840099)
(-0.333121 0.395393 -0.732732)
(-0.356499 0.434327 -0.802304)
(-0.357494 0.430364 -0.798399)
(-0.360398 0.434602 -0.808218)
(-0.300498 0.373446 -0.673989)
(-0.317639 0.39447 -0.728108)
(-0.285388 0.347115 -0.654316)
(-0.29954 0.36105 -0.678971)
(-0.35524 0.436126 -0.803059)
(-0.319262 0.395357 -0.727948)
(-0.297808 0.367259 -0.676058)
(-0.394953 0.479897 -0.875208)
(-0.377301 0.46971 -0.851028)
(-0.400341 0.491623 -0.887674)
(-0.384126 0.466328 -0.857253)
(-0.393004 0.480364 -0.870362)
(-0.373933 0.449106 -0.823875)
(-0.345045 0.406572 -0.753626)
(-0.382008 0.461242 -0.851364)
(-0.377146 0.460573 -0.837575)
(-0.351039 0.407773 -0.744825)
(-0.355074 0.433268 -0.793182)
(-0.365181 0.425005 -0.795675)
(-0.336448 0.404387 -0.74142)
(-0.31298 0.391108 -0.709265)
(-0.311122 0.369896 -0.696136)
(-0.363321 0.44615 -0.825042)
(-0.379407 0.457458 -0.841736)
(-0.373055 0.450319 -0.826458)
(-0.339609 0.403062 -0.754423)
(-0.325555 0.392912 -0.730587)
(-0.404935 0.484867 -0.900924)
(-0.396362 0.471002 -0.878777)
(-0.407759 0.488717 -0.907477)
(-0.406295 0.480976 -0.899453)
(-0.403653 0.485707 -0.899442)
(-0.393783 0.474391 -0.878933)
(-0.397703 0.474266 -0.884913)
(-0.419374 0.501385 -0.942249)
(-0.413671 0.493236 -0.922355)
(-0.373996 0.450236 -0.842341)
(-0.378709 0.448387 -0.839342)
(-0.409805 0.502114 -0.938816)
(-0.369905 0.444519 -0.833795)
(-0.418601 0.502491 -0.946381)
(-0.404763 0.497002 -0.913738)
(-0.369271 0.438642 -0.825384)
(-0.370214 0.439805 -0.820031)
(-0.397657 0.481266 -0.898076)
(-0.382604 0.458962 -0.859668)
(-0.363395 0.4278 -0.80857)
(-0.313224 0.381848 -0.68268)
(-0.334376 0.395844 -0.720855)
(-0.345905 0.415225 -0.764427)
(-0.324391 0.386963 -0.703871)
(-0.379147 0.458384 -0.838786)
(-0.386995 0.453899 -0.838116)
(-0.300437 0.369584 -0.658697)
(-0.297684 0.35155 -0.645675)
(-0.286731 0.34577 -0.63698)
(-0.267823 0.331426 -0.6099)
(-0.306817 0.364016 -0.673015)
(-0.29956 0.353437 -0.661573)
(-0.32127 0.379069 -0.702888)
(-0.314775 0.391038 -0.697651)
(-0.290717 0.354337 -0.634062)
(-0.300303 0.353958 -0.650353)
(-0.430569 0.528234 -0.970979)
(-0.426224 0.518477 -0.95344)
(-0.443915 0.540925 -0.989089)
(-0.440477 0.544237 -0.992135)
(-0.441837 0.543246 -0.996226)
(-0.44331 0.539324 -0.991731)
(-0.429056 0.519835 -0.960942)
(-0.433842 0.526753 -0.966031)
(-0.446941 0.547619 -1.0046)
(-0.441921 0.539542 -0.990808)
(-0.396948 0.486439 -0.890769)
(-0.402048 0.486517 -0.900233)
(-0.423039 0.516651 -0.947827)
(-0.439915 0.534006 -0.977378)
(-0.41886 0.509024 -0.93417)
(-0.433874 0.532785 -0.97563)
(-0.42546 0.519573 -0.952358)
(-0.430424 0.527134 -0.959825)
(-0.3652 0.425335 -0.800285)
(-0.362692 0.433357 -0.796051)
(-0.307519 0.385896 -0.706844)
(-0.364605 0.450325 -0.816892)
(-0.375156 0.449549 -0.837748)
(-0.335856 0.415943 -0.748438)
(-0.299704 0.38883 -0.698755)
(-0.366652 0.43363 -0.815491)
(-0.342661 0.40851 -0.765208)
(-0.307074 0.385662 -0.702957)
(-0.323155 0.379231 -0.70548)
(-0.317049 0.39646 -0.72915)
(-0.298211 0.350795 -0.660039)
(-0.294825 0.359406 -0.6804)
(-0.301346 0.354012 -0.664165)
(-0.340961 0.394904 -0.73586)
(-0.358356 0.437923 -0.812088)
(-0.324819 0.398196 -0.742541)
(-0.366609 0.447135 -0.830241)
(-0.318704 0.394556 -0.737655)
(-0.35367 0.429601 -0.807835)
(-0.323662 0.390539 -0.739713)
(-0.304178 0.385053 -0.722354)
(-0.34828 0.431175 -0.807738)
(-0.321468 0.398412 -0.738795)
(-0.376752 0.47509 -0.875485)
(-0.356053 0.4235 -0.794668)
(-0.307906 0.378414 -0.702723)
(-0.362284 0.451263 -0.834611)
(-0.296619 0.371649 -0.693436)
(-0.291209 0.357732 -0.672171)
(-0.312641 0.376851 -0.704615)
(-0.320329 0.387251 -0.725154)
(-0.26251 0.328406 -0.616902)
(-0.323365 0.387856 -0.727533)
(-0.293632 0.375022 -0.692873)
(-0.336027 0.395804 -0.73319)
(-0.274111 0.335332 -0.608266)
(-0.348335 0.445444 -0.794372)
(-0.313282 0.386078 -0.704199)
(-0.311792 0.373784 -0.675149)
(-0.263988 0.348532 -0.596429)
(-0.304983 0.386577 -0.689663)
(-0.358798 0.442411 -0.799321)
(-0.356804 0.441115 -0.805334)
(-0.299798 0.383021 -0.685753)
(-0.345106 0.421464 -0.76317)
(-0.308891 0.387754 -0.698417)
(-0.29713 0.366869 -0.666711)
(-0.374158 0.454773 -0.822819)
(-0.360016 0.447518 -0.810915)
(-0.301608 0.384923 -0.685677)
(-0.368331 0.451258 -0.819057)
(-0.321972 0.393036 -0.709455)
(-0.323428 0.395658 -0.705544)
(-0.31262 0.388803 -0.699628)
(-0.312374 0.380323 -0.704637)
(-0.29456 0.368083 -0.676148)
(-0.303841 0.37672 -0.699879)
(-0.319471 0.3917 -0.72983)
(-0.299306 0.366555 -0.674571)
(-0.341388 0.426413 -0.783727)
(-0.329241 0.403087 -0.741007)
(-0.365864 0.449306 -0.838391)
(-0.363173 0.441007 -0.824265)
(-0.368248 0.444927 -0.828057)
(-0.305889 0.377398 -0.69319)
(-0.318074 0.39051 -0.729483)
(-0.341506 0.418426 -0.774571)
(-0.332122 0.406759 -0.746722)
(-0.360033 0.442331 -0.808381)
(-0.365387 0.453893 -0.83015)
(-0.303526 0.374284 -0.682825)
(-0.316344 0.390909 -0.709262)
(-0.300648 0.376426 -0.690561)
(-0.316491 0.394549 -0.716722)
(-0.374915 0.453671 -0.845824)
(-0.369895 0.454258 -0.834105)
(-0.366317 0.451826 -0.833598)
(-0.343727 0.41492 -0.768137)
(-0.350399 0.439465 -0.794605)
(-0.325633 0.396419 -0.736327)
(-0.302284 0.375588 -0.695099)
(-0.35059 0.429748 -0.782427)
(-0.347035 0.431363 -0.792906)
(-0.310941 0.396183 -0.710782)
(-0.377007 0.455242 -0.837966)
(-0.292292 0.366316 -0.678879)
(-0.263451 0.339121 -0.616912)
(-0.278476 0.358724 -0.654887)
(-0.324537 0.40131 -0.732457)
(-0.322885 0.400263 -0.737566)
(-0.302815 0.339521 -0.659328)
(-0.303668 0.329394 -0.645835)
(-0.316301 0.379598 -0.708347)
(-0.32065 0.379332 -0.712809)
(-0.30559 0.358475 -0.680452)
(-0.301902 0.3592 -0.680511)
(-0.308355 0.352946 -0.676203)
(-0.327826 0.384301 -0.723516)
(-0.356672 0.42271 -0.773774)
(-0.309588 0.35776 -0.683038)
(-0.313433 0.354438 -0.673126)
(-0.292812 0.35112 -0.661577)
(-0.307223 0.349787 -0.674493)
(-0.300179 0.351953 -0.654859)
(-0.289021 0.347463 -0.645962)
(-0.297853 0.349654 -0.638794)
(-0.317096 0.368842 -0.683054)
(-0.369433 0.438995 -0.805262)
(-0.37017 0.445432 -0.814027)
(-0.365698 0.441699 -0.814914)
(-0.332124 0.394697 -0.712394)
(-0.303204 0.353811 -0.650537)
(-0.36572 0.430023 -0.795288)
(-0.329701 0.391013 -0.727077)
(-0.37392 0.444446 -0.81851)
(-0.372439 0.442722 -0.81705)
(-0.332736 0.397368 -0.717089)
(-0.302101 0.354552 -0.651095)
(-0.375262 0.440188 -0.809538)
(-0.325074 0.375349 -0.697078)
(-0.319301 0.37435 -0.684058)
(-0.432083 0.520642 -0.950564)
(-0.437215 0.529944 -0.966622)
(-0.428944 0.520421 -0.952144)
(-0.424563 0.517127 -0.939932)
(-0.428582 0.521064 -0.936607)
(-0.428722 0.515587 -0.930949)
(-0.43886 0.53422 -0.968613)
(-0.435358 0.536086 -0.974426)
(-0.428307 0.519738 -0.944967)
(-0.41693 0.509344 -0.919465)
(-0.446141 0.54468 -0.989437)
(-0.41168 0.500622 -0.915355)
(-0.433038 0.526501 -0.964085)
(-0.445396 0.543644 -0.986734)
(-0.43607 0.53894 -0.974524)
(-0.441108 0.533612 -0.972639)
(-0.414428 0.503202 -0.909928)
(-0.426533 0.512964 -0.935455)
(-0.43632 0.528528 -0.959288)
(-0.26079 0.30442 -0.546062)
(-0.247418 0.288363 -0.537388)
(-0.258093 0.303611 -0.549798)
(-0.259436 0.307946 -0.567025)
(-0.270097 0.325011 -0.594339)
(-0.327718 0.386992 -0.695894)
(-0.312426 0.377066 -0.6808)
(-0.296748 0.359003 -0.650352)
(-0.286719 0.335896 -0.613305)
(-0.270141 0.321473 -0.592796)
(-0.330095 0.387881 -0.716379)
(-0.314884 0.372235 -0.684971)
(-0.3021 0.3624 -0.66177)
(-0.329843 0.399025 -0.721805)
(-0.360266 0.428552 -0.792115)
(-0.353191 0.421824 -0.7769)
(-0.314387 0.384365 -0.700501)
(-0.34074 0.415708 -0.752119)
(-0.341538 0.421109 -0.753944)
(-0.377569 0.45421 -0.828563)
(-0.391177 0.469899 -0.866091)
(-0.368992 0.443911 -0.813882)
(-0.337211 0.401728 -0.742567)
(-0.335765 0.407087 -0.744288)
(-0.409155 0.489801 -0.90152)
(-0.402072 0.478546 -0.877964)
(-0.396903 0.475523 -0.867527)
(-0.405744 0.492565 -0.887368)
(-0.406309 0.485298 -0.886903)
(-0.372514 0.451237 -0.806502)
(-0.3887 0.46843 -0.852823)
(-0.370006 0.45662 -0.836494)
(-0.365913 0.451168 -0.827964)
(-0.359709 0.444955 -0.805595)
(-0.317887 0.389308 -0.720592)
(-0.299953 0.369616 -0.677896)
(-0.268825 0.326471 -0.606473)
(-0.277668 0.337793 -0.632425)
(-0.302945 0.377756 -0.67704)
(-0.294507 0.355821 -0.6515)
(-0.338134 0.423982 -0.758815)
(-0.326925 0.40501 -0.731202)
(-0.324028 0.395133 -0.71855)
(-0.32739 0.401273 -0.733481)
(-0.308038 0.389499 -0.706688)
(-0.255662 0.322157 -0.576687)
(-0.265643 0.336491 -0.609795)
(-0.294337 0.365979 -0.648568)
(-0.281167 0.328105 -0.600708)
(-0.293152 0.356432 -0.655072)
(-0.244833 0.294244 -0.550796)
(-0.286222 0.332898 -0.616077)
(-0.253832 0.308346 -0.559987)
(-0.224863 0.277655 -0.506802)
(-0.234317 0.287285 -0.531079)
(-0.252432 0.303596 -0.559402)
(-0.244018 0.28996 -0.519107)
(-0.228244 0.277285 -0.511569)
(-0.229609 0.285072 -0.511894)
(-0.221316 0.266222 -0.486984)
(-0.246224 0.284743 -0.519906)
(-0.210193 0.249504 -0.459819)
(-0.244567 0.299059 -0.553176)
(-0.272042 0.336458 -0.613142)
(-0.2126 0.257107 -0.473949)
(-0.340867 0.416771 -0.768778)
(-0.294377 0.356001 -0.660339)
(-0.288963 0.349044 -0.652942)
(-0.299139 0.366948 -0.683287)
(-0.288625 0.347852 -0.664859)
(-0.354739 0.433719 -0.799808)
(-0.35781 0.439781 -0.816802)
(-0.333836 0.40676 -0.755311)
(-0.306249 0.373555 -0.693867)
(-0.348378 0.428772 -0.789557)
(-0.35037 0.430724 -0.796738)
(-0.292934 0.358728 -0.660595)
(-0.280044 0.337941 -0.627513)
(-0.284414 0.347336 -0.643157)
(-0.32228 0.393302 -0.725127)
(-0.313562 0.381333 -0.70293)
(-0.282679 0.345854 -0.640611)
(-0.30076 0.36379 -0.674355)
(-0.298889 0.368168 -0.679381)
(-0.299162 0.354716 -0.659275)
(-0.389542 0.470737 -0.863827)
(-0.384319 0.465069 -0.851289)
(-0.369485 0.449137 -0.826868)
(-0.383931 0.463555 -0.861887)
(-0.355979 0.440627 -0.799655)
(-0.372737 0.455133 -0.840716)
(-0.340546 0.42087 -0.772132)
(-0.348305 0.428732 -0.790259)
(-0.32118 0.392642 -0.726519)
(-0.329673 0.39963 -0.744393)
(-0.304532 0.370275 -0.686053)
(-0.380847 0.462788 -0.841464)
(-0.372613 0.449104 -0.826343)
(-0.372653 0.457581 -0.831596)
(-0.307138 0.374223 -0.689082)
(-0.282885 0.353633 -0.643697)
(-0.294827 0.365553 -0.666582)
(-0.323265 0.391342 -0.72453)
(-0.301634 0.374623 -0.686052)
(-0.328126 0.402062 -0.742788)
(-0.250897 0.290744 -0.52341)
(-0.253269 0.291412 -0.537823)
(-0.2315 0.269111 -0.488957)
(-0.288393 0.338455 -0.626193)
(-0.270546 0.319946 -0.598142)
(-0.284973 0.350255 -0.641603)
(-0.291154 0.350098 -0.644201)
(-0.229669 0.273207 -0.489651)
(-0.237354 0.292595 -0.527883)
(-0.249451 0.289895 -0.530088)
(-0.230458 0.271355 -0.5071)
(-0.197602 0.243031 -0.437395)
(-0.234131 0.261896 -0.497152)
(-0.28415 0.348378 -0.630011)
(-0.262498 0.315332 -0.579114)
(-0.22578 0.273341 -0.491107)
(-0.215199 0.253023 -0.447745)
(-0.215212 0.266995 -0.468571)
(-0.26226 0.291953 -0.565887)
(-0.213922 0.259446 -0.489133)
(-0.262412 0.320562 -0.599683)
(-0.260252 0.30419 -0.566803)
(-0.318119 0.381394 -0.702103)
(-0.333461 0.395173 -0.718654)
(-0.349636 0.39975 -0.72597)
(-0.275862 0.325458 -0.6055)
(-0.330834 0.380728 -0.691315)
(-0.329473 0.378337 -0.698365)
(-0.2485 0.291291 -0.53312)
(-0.30115 0.35647 -0.643263)
(-0.42481 0.524449 -0.985776)
(-0.428401 0.521842 -0.975411)
(-0.423576 0.514137 -0.970634)
(-0.42837 0.524424 -0.978886)
(-0.418757 0.513506 -0.956269)
(-0.421378 0.51631 -0.959495)
(-0.420119 0.512782 -0.949161)
(-0.394016 0.479661 -0.894611)
(-0.41316 0.507991 -0.944061)
(-0.402606 0.496625 -0.915591)
(-0.404473 0.497251 -0.929455)
(-0.3824 0.470189 -0.874135)
(-0.383771 0.473913 -0.884777)
(-0.386756 0.46857 -0.874135)
(-0.41125 0.504908 -0.940017)
(-0.441342 0.526702 -0.964238)
(-0.42654 0.51132 -0.936632)
(-0.382765 0.467414 -0.847762)
(-0.391572 0.476165 -0.86087)
(-0.434965 0.525878 -0.955324)
(-0.444253 0.535578 -0.970664)
(-0.414324 0.49557 -0.901463)
(-0.390106 0.463098 -0.843577)
(-0.380448 0.464308 -0.834954)
(-0.388297 0.469977 -0.850731)
(-0.410189 0.504638 -0.909002)
(-0.429061 0.518392 -0.938905)
(-0.439531 0.526335 -0.960452)
(-0.429219 0.519932 -0.937144)
(-0.393149 0.465355 -0.84693)
(-0.384746 0.45447 -0.829385)
(-0.434732 0.521378 -0.954898)
(-0.421258 0.504237 -0.91832)
(-0.402007 0.487636 -0.884041)
(-0.430774 0.516982 -0.943975)
(-0.402774 0.490023 -0.888582)
(-0.421749 0.511034 -0.926065)
(-0.351816 0.432008 -0.795462)
(-0.344015 0.423287 -0.788874)
(-0.396708 0.492169 -0.917126)
(-0.399091 0.491641 -0.903286)
(-0.336113 0.401976 -0.75907)
(-0.35055 0.426608 -0.786233)
(-0.419147 0.510152 -0.946512)
(-0.359203 0.424225 -0.785609)
(-0.333255 0.406921 -0.757677)
(-0.386481 0.465258 -0.869718)
(-0.392366 0.477453 -0.886642)
(-0.367942 0.458751 -0.8541)
(-0.339951 0.414327 -0.777257)
(-0.412568 0.508583 -0.93439)
(-0.428654 0.526684 -0.959894)
(-0.388677 0.485259 -0.894859)
(-0.371113 0.448308 -0.832121)
(-0.369451 0.451662 -0.841533)
(-0.376955 0.44632 -0.844707)
(-0.399795 0.486999 -0.907298)
(-0.281565 0.350851 -0.634122)
(-0.33157 0.405598 -0.75151)
(-0.315823 0.38873 -0.714931)
(-0.276724 0.33694 -0.6187)
(-0.306592 0.374059 -0.68615)
(-0.269421 0.332266 -0.608679)
(-0.311489 0.375589 -0.70203)
(-0.298243 0.360876 -0.668581)
(-0.354833 0.432551 -0.802033)
(-0.349376 0.431783 -0.792637)
(-0.348333 0.424239 -0.785112)
(-0.35828 0.433041 -0.802518)
(-0.296436 0.366286 -0.667058)
(-0.292133 0.355999 -0.657692)
(-0.307492 0.37406 -0.696758)
(-0.320392 0.38132 -0.719287)
(-0.323053 0.399609 -0.718552)
(-0.301522 0.374715 -0.660848)
(-0.310695 0.388728 -0.682229)
(-0.307866 0.382885 -0.672143)
(-0.338488 0.411263 -0.726135)
(-0.295414 0.35758 -0.657663)
(-0.321964 0.385184 -0.690986)
(-0.302961 0.362902 -0.659555)
(-0.336187 0.408417 -0.731347)
(-0.32728 0.403189 -0.7215)
(-0.313146 0.382589 -0.680433)
(-0.375317 0.460427 -0.840565)
(-0.333414 0.410251 -0.743777)
(-0.341447 0.424803 -0.760314)
(-0.371673 0.458145 -0.820717)
(-0.345504 0.418858 -0.741315)
(-0.331876 0.400066 -0.7392)
(-0.334175 0.396702 -0.7435)
(-0.329394 0.39834 -0.739208)
(-0.333119 0.390501 -0.73121)
(-0.324608 0.395489 -0.719397)
(-0.240626 0.276797 -0.526207)
(-0.228221 0.270064 -0.507952)
(-0.235048 0.289807 -0.542809)
(-0.235331 0.286987 -0.530415)
(-0.328449 0.389154 -0.73597)
(-0.319642 0.376175 -0.699733)
(-0.260588 0.318126 -0.588433)
(-0.254725 0.306889 -0.56761)
(-0.242562 0.282301 -0.537684)
(-0.234124 0.296094 -0.528388)
(-0.258162 0.318668 -0.585149)
(-0.254466 0.314574 -0.561042)
(-0.289992 0.355408 -0.64909)
(-0.285439 0.345985 -0.639576)
(-0.320915 0.383498 -0.706894)
(-0.347192 0.429673 -0.790314)
(-0.358906 0.436021 -0.81113)
(-0.312539 0.381711 -0.704432)
(-0.329376 0.397229 -0.739942)
(-0.30588 0.376647 -0.702876)
(-0.311144 0.370747 -0.701044)
(-0.352173 0.432141 -0.797746)
(-0.266439 0.325894 -0.605374)
(-0.266929 0.328174 -0.601685)
(-0.343613 0.415815 -0.775929)
(-0.294229 0.358239 -0.663972)
(-0.277251 0.338175 -0.623354)
(-0.285905 0.346229 -0.652791)
(-0.322296 0.385824 -0.720795)
(-0.31679 0.376729 -0.702879)
(-0.269083 0.332044 -0.623539)
(-0.265427 0.321457 -0.593024)
(-0.252788 0.309186 -0.572052)
(-0.292268 0.358401 -0.661875)
(-0.278155 0.339406 -0.631364)
(-0.3039 0.374453 -0.685552)
(-0.259755 0.316132 -0.578999)
(-0.238687 0.289726 -0.515799)
(-0.236729 0.294217 -0.533519)
(-0.259401 0.301844 -0.560186)
(-0.252996 0.310193 -0.550833)
(-0.275085 0.333489 -0.589141)
(-0.272215 0.338961 -0.621291)
(-0.328191 0.393108 -0.729341)
(-0.326388 0.393594 -0.720471)
(-0.276367 0.3373 -0.602119)
(-0.28472 0.348302 -0.627142)
(-0.341633 0.41034 -0.739577)
(-0.330693 0.389891 -0.714378)
(-0.336871 0.404067 -0.730738)
(-0.314238 0.375322 -0.684752)
(-0.31977 0.378172 -0.699312)
(-0.345706 0.409512 -0.75525)
(-0.327653 0.37945 -0.706029)
(-0.35945 0.421567 -0.772314)
(-0.341512 0.39832 -0.739608)
(-0.383281 0.461291 -0.836463)
(-0.375747 0.452616 -0.819562)
(-0.39929 0.464626 -0.858558)
(-0.391255 0.447871 -0.837571)
(-0.396465 0.46035 -0.857189)
(-0.402203 0.463757 -0.866244)
(-0.424443 0.493343 -0.916315)
(-0.430965 0.511575 -0.943154)
(-0.398787 0.459171 -0.855783)
(-0.391032 0.44389 -0.819162)
(-0.380397 0.441959 -0.83206)
(-0.369168 0.432889 -0.799386)
(-0.3943 0.461275 -0.846874)
(-0.392843 0.457956 -0.85034)
(-0.43601 0.510624 -0.94519)
(-0.430119 0.502175 -0.928928)
(-0.39181 0.448893 -0.825552)
(-0.372091 0.417956 -0.782309)
(-0.399937 0.462112 -0.848705)
(-0.408075 0.48238 -0.875245)
(-0.369927 0.435752 -0.79663)
(-0.420452 0.509529 -0.94032)
(-0.414696 0.50249 -0.92665)
(-0.429533 0.522463 -0.963664)
(-0.415529 0.498286 -0.922143)
(-0.428619 0.519394 -0.962704)
(-0.421922 0.516237 -0.950857)
(-0.455038 0.558705 -1.02677)
(-0.441284 0.539925 -0.992395)
(-0.424589 0.515774 -0.951984)
(-0.432493 0.520833 -0.95884)
(-0.43471 0.518637 -0.961959)
(-0.441477 0.538131 -0.987901)
(-0.435667 0.523154 -0.964857)
(-0.452896 0.545203 -1.00292)
(-0.426823 0.520325 -0.960464)
(-0.443587 0.536074 -0.990058)
(-0.439941 0.534219 -0.991014)
(-0.434156 0.526172 -0.973265)
(-0.376924 0.461678 -0.854136)
(-0.400759 0.496322 -0.908603)
(-0.405959 0.496858 -0.910741)
(-0.408976 0.502026 -0.91563)
(-0.393933 0.485993 -0.882186)
(-0.389406 0.477312 -0.857025)
(-0.314373 0.378238 -0.690287)
(-0.321129 0.379503 -0.694035)
(-0.343836 0.408002 -0.759442)
(-0.357717 0.430968 -0.783963)
(-0.342472 0.402228 -0.741773)
(-0.320065 0.378557 -0.692044)
(-0.313934 0.377765 -0.699656)
(-0.302951 0.360799 -0.667265)
(-0.325979 0.394536 -0.709502)
(-0.348531 0.423487 -0.770272)
(-0.36339 0.443592 -0.795236)
(-0.253236 0.311552 -0.570325)
(-0.22894 0.286452 -0.527909)
(-0.245197 0.301349 -0.54999)
(-0.233461 0.286516 -0.534087)
(-0.253491 0.311809 -0.584664)
(-0.242486 0.296074 -0.558966)
(-0.210162 0.261906 -0.475217)
(-0.230874 0.277835 -0.508007)
(-0.222638 0.268028 -0.501829)
(-0.238337 0.295076 -0.546691)
(-0.271133 0.32385 -0.607777)
(-0.275132 0.342071 -0.638687)
(-0.270381 0.338996 -0.634377)
(-0.222615 0.280011 -0.519679)
(-0.206549 0.250622 -0.449513)
(-0.252937 0.307994 -0.579239)
(-0.269464 0.318418 -0.602908)
(-0.247821 0.302515 -0.563273)
(-0.231454 0.280182 -0.519942)
(-0.229744 0.27095 -0.52968)
(-0.224303 0.259662 -0.494395)
(-0.238856 0.271943 -0.510406)
(-0.209227 0.233721 -0.448479)
(-0.2617 0.303008 -0.580397)
(-0.243718 0.285419 -0.541414)
(-0.242487 0.298739 -0.552281)
(-0.220643 0.265128 -0.502385)
(-0.212987 0.234219 -0.458164)
(-0.240067 0.288942 -0.540847)
(-0.25546 0.309828 -0.570367)
(-0.30029 0.368774 -0.669144)
(-0.197287 0.230482 -0.439352)
(-0.297748 0.36701 -0.665665)
(-0.312702 0.384926 -0.711536)
(-0.2225 0.26766 -0.499679)
(-0.253399 0.299977 -0.577202)
(-0.300744 0.363171 -0.6721)
(-0.31908 0.389635 -0.705467)
(-0.328126 0.403602 -0.72343)
(-0.332898 0.401663 -0.74254)
(-0.365141 0.440622 -0.809173)
(-0.379446 0.459633 -0.85215)
(-0.258215 0.298651 -0.566063)
(-0.241729 0.287627 -0.558958)
(-0.355005 0.427242 -0.786023)
(-0.357637 0.435494 -0.804726)
(-0.324798 0.388326 -0.712684)
(-0.299884 0.350876 -0.652262)
(-0.309189 0.361084 -0.683573)
(-0.266454 0.324479 -0.604194)
(-0.263406 0.309387 -0.574872)
(-0.255027 0.299856 -0.56641)
(-0.26479 0.321545 -0.59841)
(-0.275674 0.332538 -0.624516)
(-0.275761 0.32715 -0.612837)
(-0.345443 0.411016 -0.762748)
(-0.363197 0.434338 -0.794035)
(-0.313438 0.370505 -0.694642)
(-0.320285 0.384433 -0.710895)
(-0.328431 0.39774 -0.730182)
(-0.287531 0.3313 -0.640011)
(-0.313721 0.364562 -0.692111)
(-0.321039 0.378915 -0.704747)
(-0.332625 0.392793 -0.72539)
(-0.336931 0.392681 -0.737647)
(-0.312467 0.378272 -0.689291)
(-0.3269 0.396887 -0.72769)
(-0.36546 0.446059 -0.819558)
(-0.33373 0.405519 -0.744161)
(-0.365475 0.447022 -0.811964)
(-0.354344 0.423215 -0.78055)
(-0.316215 0.38498 -0.704276)
(-0.304568 0.373965 -0.678011)
(-0.368057 0.447177 -0.821695)
(-0.325218 0.408387 -0.747314)
(-0.366425 0.449148 -0.821224)
(-0.316473 0.388496 -0.705397)
(-0.337718 0.405374 -0.745834)
(-0.367634 0.449706 -0.816757)
(-0.354539 0.431994 -0.784933)
(-0.364894 0.448926 -0.81458)
(-0.322172 0.391617 -0.716529)
(-0.303238 0.379311 -0.678657)
(-0.292121 0.359946 -0.651639)
(-0.288294 0.351801 -0.634522)
(-0.263538 0.317145 -0.583856)
(-0.247636 0.305151 -0.551137)
(-0.226482 0.275642 -0.511515)
(-0.263568 0.320466 -0.588694)
(-0.2242 0.268399 -0.505212)
(-0.237211 0.292831 -0.528628)
(-0.216809 0.263765 -0.474391)
(-0.234966 0.298043 -0.547052)
(-0.206976 0.261162 -0.493476)
(-0.244252 0.299964 -0.54254)
(-0.223245 0.276806 -0.509074)
(-0.264029 0.326781 -0.596642)
(-0.238878 0.28815 -0.539459)
(-0.255257 0.309509 -0.560233)
(-0.241833 0.314399 -0.553815)
(-0.231547 0.289276 -0.532094)
(-0.241863 0.303441 -0.5535)
(-0.227525 0.287289 -0.507905)
(-0.21598 0.258817 -0.478373)
(-0.226448 0.284552 -0.522336)
(-0.208434 0.261414 -0.468129)
(-0.251521 0.305463 -0.565915)
(-0.250188 0.313007 -0.577592)
(-0.304029 0.367809 -0.691163)
(-0.292812 0.355713 -0.657293)
(-0.217401 0.279201 -0.507639)
(-0.219111 0.275757 -0.495429)
(-0.219495 0.273725 -0.48996)
(-0.306934 0.383067 -0.705774)
(-0.307346 0.37957 -0.708395)
(-0.299459 0.362933 -0.681193)
(-0.305885 0.376501 -0.691323)
(-0.238578 0.287559 -0.530913)
(-0.232634 0.286197 -0.520738)
(-0.223573 0.276104 -0.507879)
(-0.243735 0.286669 -0.533634)
(-0.208665 0.240484 -0.469085)
(-0.285358 0.345544 -0.64591)
(-0.316162 0.388675 -0.714621)
(-0.273711 0.321366 -0.599915)
(-0.243882 0.290636 -0.538741)
(-0.306621 0.372965 -0.682264)
(-0.259092 0.314018 -0.577205)
(-0.287451 0.349503 -0.643889)
(-0.301701 0.364111 -0.659267)
(-0.214829 0.257342 -0.476492)
(-0.252459 0.293542 -0.545082)
(-0.290613 0.350877 -0.647637)
(-0.288619 0.347967 -0.64171)
(-0.259175 0.304017 -0.5715)
(-0.217517 0.257308 -0.482312)
(-0.293629 0.348856 -0.621785)
(-0.250055 0.297663 -0.550321)
(-0.247746 0.29306 -0.556989)
(-0.219612 0.267265 -0.490233)
(-0.224288 0.269922 -0.495599)
(-0.23844 0.283521 -0.530987)
(-0.244253 0.295047 -0.539546)
(-0.235097 0.274423 -0.516128)
(-0.205783 0.233559 -0.43229)
(-0.22248 0.272025 -0.499748)
(-0.222659 0.268633 -0.501127)
(-0.196772 0.24649 -0.432285)
(-0.210922 0.253198 -0.462001)
(-0.21436 0.259623 -0.467041)
(-0.303986 0.375268 -0.689949)
(-0.29548 0.363456 -0.666651)
(-0.320252 0.391445 -0.718663)
(-0.330721 0.405295 -0.7434)
(-0.315942 0.387296 -0.722883)
(-0.287724 0.356152 -0.65509)
(-0.309086 0.378919 -0.694888)
(-0.298729 0.366163 -0.669335)
(-0.294466 0.367266 -0.666769)
(-0.247721 0.299474 -0.551325)
(-0.245665 0.294634 -0.546473)
(-0.219884 0.278092 -0.51055)
(-0.288544 0.351899 -0.666744)
(-0.271838 0.340792 -0.629033)
(-0.232523 0.284327 -0.533254)
(-0.256018 0.321397 -0.598771)
(-0.243707 0.289576 -0.537637)
(-0.216979 0.258125 -0.492758)
(-0.246056 0.293942 -0.547447)
(-0.246378 0.309665 -0.57367)
(-0.245605 0.287679 -0.550621)
(-0.199468 0.245147 -0.468723)
(-0.284511 0.343501 -0.63959)
(-0.289352 0.33678 -0.625342)
(-0.281878 0.332714 -0.616177)
(-0.24321 0.30408 -0.547713)
(-0.215481 0.262394 -0.485405)
(-0.242716 0.289534 -0.534152)
(-0.291189 0.348056 -0.65356)
(-0.288869 0.334021 -0.625335)
(-0.254218 0.297631 -0.546237)
(-0.238177 0.277958 -0.515936)
(-0.221271 0.267304 -0.485553)
(-0.211532 0.255972 -0.465394)
(-0.2241 0.269317 -0.496552)
(-0.207599 0.24885 -0.457236)
(-0.257884 0.300496 -0.56698)
(-0.252273 0.301194 -0.559411)
(-0.22509 0.272515 -0.507527)
(-0.193015 0.22954 -0.425789)
(-0.319462 0.389102 -0.718166)
(-0.335618 0.411616 -0.749057)
(-0.369297 0.443457 -0.829465)
(-0.31496 0.385944 -0.711)
(-0.379889 0.462592 -0.85154)
(-0.36936 0.457494 -0.83631)
(-0.361948 0.45608 -0.824707)
(-0.325013 0.398699 -0.729596)
(-0.328975 0.400015 -0.738557)
(-0.314423 0.358634 -0.669636)
(-0.32216 0.372038 -0.694734)
(-0.276866 0.317108 -0.596258)
(-0.24673 0.285481 -0.534393)
(-0.244073 0.274429 -0.529626)
(-0.260457 0.303559 -0.575855)
(-0.240771 0.275786 -0.520792)
(-0.220015 0.240369 -0.463128)
(-0.314556 0.361349 -0.682128)
(-0.229321 0.265264 -0.500214)
(-0.271592 0.323867 -0.595344)
(-0.239872 0.270435 -0.509174)
(-0.202098 0.23614 -0.454504)
(-0.324842 0.373708 -0.698658)
(-0.260424 0.317423 -0.582712)
(-0.248233 0.298974 -0.555884)
(-0.252138 0.324909 -0.578329)
(-0.260353 0.329915 -0.592682)
(-0.255742 0.309358 -0.561941)
(-0.232134 0.282034 -0.520867)
(-0.302804 0.371747 -0.673739)
(-0.299506 0.367047 -0.687373)
(-0.293198 0.356218 -0.645921)
(-0.257832 0.310284 -0.575834)
(-0.225904 0.27988 -0.525895)
(-0.245716 0.300306 -0.55306)
(-0.249011 0.316969 -0.570748)
(-0.213141 0.238995 -0.47651)
(-0.258484 0.328404 -0.587816)
(-0.241845 0.295051 -0.542115)
(-0.226317 0.261757 -0.505063)
(-0.251251 0.301485 -0.558366)
(-0.254957 0.314298 -0.569202)
(-0.236298 0.284851 -0.530237)
(-0.241799 0.298634 -0.537735)
(-0.230107 0.284708 -0.50949)
(-0.308824 0.375735 -0.683377)
(-0.298024 0.367664 -0.669435)
(-0.328197 0.405041 -0.738705)
(-0.298913 0.365605 -0.678361)
(-0.247488 0.299053 -0.54345)
(-0.233902 0.286399 -0.520736)
(-0.2547 0.301401 -0.573322)
(-0.217803 0.271978 -0.491244)
(-0.25501 0.310759 -0.567607)
(-0.335578 0.412261 -0.748499)
(-0.31008 0.386605 -0.706546)
(-0.241758 0.298442 -0.535427)
(-0.293524 0.357685 -0.661588)
(-0.304359 0.379105 -0.683964)
(-0.320949 0.391776 -0.712962)
(-0.261774 0.316001 -0.574073)
(-0.307268 0.371602 -0.679521)
(-0.392894 0.456664 -0.846472)
(-0.378624 0.432594 -0.803383)
(-0.383582 0.440683 -0.806965)
(-0.390266 0.44907 -0.83916)
(-0.317926 0.361511 -0.672468)
(-0.342332 0.387491 -0.724094)
(-0.413234 0.473551 -0.877207)
(-0.328659 0.382995 -0.692021)
(-0.344597 0.393813 -0.72624)
(-0.319141 0.368884 -0.671585)
(-0.38827 0.450464 -0.841964)
(-0.376358 0.440321 -0.823943)
(-0.332956 0.382719 -0.709762)
(-0.39725 0.458139 -0.852198)
(-0.342804 0.382247 -0.708844)
(-0.345954 0.399229 -0.736997)
(-0.322858 0.376234 -0.694594)
(-0.35061 0.398608 -0.73903)
(-0.360173 0.42054 -0.769852)
(-0.351616 0.391408 -0.733003)
(-0.333723 0.383333 -0.719344)
(-0.304034 0.349685 -0.643412)
(-0.336685 0.385944 -0.711401)
(-0.350754 0.396646 -0.735528)
(-0.227649 0.279907 -0.515759)
(-0.277415 0.338088 -0.630683)
(-0.274253 0.343278 -0.63557)
(-0.227741 0.275086 -0.515813)
(-0.196625 0.247907 -0.448564)
(-0.243062 0.296748 -0.548277)
(-0.217381 0.267122 -0.489956)
(-0.20421 0.25665 -0.471489)
(-0.256198 0.305358 -0.571626)
(-0.290014 0.35927 -0.655371)
(-0.248665 0.315344 -0.577821)
(-0.310451 0.372174 -0.678192)
(-0.346082 0.409699 -0.760627)
(-0.306129 0.368511 -0.677126)
(-0.284415 0.337313 -0.60517)
(-0.386368 0.454879 -0.83509)
(-0.383219 0.452661 -0.817275)
(-0.333305 0.398826 -0.718787)
(-0.377914 0.443887 -0.811601)
(-0.384698 0.45474 -0.836349)
(-0.376624 0.437525 -0.804227)
(-0.362436 0.434713 -0.791077)
(-0.294934 0.354991 -0.645715)
(-0.33032 0.39154 -0.722065)
(-0.300235 0.364163 -0.667835)
(-0.37052 0.447074 -0.807787)
(-0.326633 0.38383 -0.705467)
(-0.232796 0.296156 -0.530127)
(-0.221934 0.276315 -0.493363)