/*--------------------------------*- C++ -*----------------------------------*\
| =========                 |                                                 |
| \\      /  F ield         | OpenFOAM: The Open Source CFD Toolbox           |
|  \\    /   O peration     | Version:  v1612+                                |
|   \\  /    A nd           | Web:      www.OpenFOAM.com                      |
|    \\/     M anipulation  |                                                 |
\*---------------------------------------------------------------------------*/
FoamFile
{
    version     2.0;
    format      ascii;
    class       volVectorField;
    location    "50";
    object      wallShearStress;
}
// * * * * * * * * * * * * * * * * * * * * * * * * * * * * * * * * * * * * * //

dimensions      [0 2 -2 0 0 0 0];

internalField   uniform (0 0 0);

boundaryField
{
    WALL
    {
        type            calculated;
        value           nonuniform List<vector> 
1526
(
(0.00403669 -0.0114534 0.00864303)
(0.0034674 -0.0108385 0.00879597)
(0.00474466 -0.0120331 0.00663408)
(0.00502761 -0.0117193 0.00615371)
(0.00777919 -0.00499784 0.00723053)
(0.0076381 -0.00615151 0.00680618)
(0.00341984 -0.00974951 0.0105289)
(0.00334604 -0.00996788 0.00935138)
(0.00481246 -0.0108965 0.00751806)
(0.00461719 -0.0110314 0.0078029)
(0.00473171 -0.0101646 0.00746092)
(0.0042962 -0.0103733 0.00790156)
(0.00156803 -0.00764815 0.0108264)
(0.00548348 -0.0116932 0.00718083)
(0.00587252 -0.0114046 0.00700899)
(0.00441778 -0.0119173 0.00907785)
(0.00474479 -0.012476 0.00837557)
(0.00588981 -0.0130306 0.00700601)
(0.00596726 -0.0136201 0.00750004)
(0.00665499 -0.0123795 0.00700964)
(0.0066477 -0.0126047 0.00706087)
(0.00558623 -0.012472 0.00726964)
(0.00542716 -0.0127209 0.00770767)
(0.00399948 -0.0134503 0.00887595)
(0.00373848 -0.0125117 0.00906748)
(0.004975 -0.0136396 0.00815506)
(0.00433583 -0.0128054 0.0079938)
(0.00497569 -0.0138386 0.00770492)
(0.00460963 -0.0129327 0.00734457)
(0.00765545 -0.00626648 0.00733082)
(0.00793732 -0.00582381 0.00830143)
(0.00579559 -0.0124806 0.00793885)
(0.00548724 -0.0125969 0.00802428)
(0.00401138 -0.0117588 0.00805991)
(0.00361264 -0.0116368 0.00860644)
(0.00624119 -0.0120896 0.00688752)
(0.0068967 -0.0124296 0.00750844)
(0.00189068 -0.00879125 0.0151164)
(0.00375987 -0.0111163 0.00990023)
(0.00348504 -0.00969068 0.00994465)
(0.00453119 -0.013158 0.00821083)
(0.00462448 -0.0133082 0.00874495)
(0.00283799 -0.0128143 0.0140062)
(0.00268193 -0.0118367 0.0136091)
(0.00369034 -0.0122169 0.0112619)
(0.00315536 -0.0112649 0.0110451)
(0.00349047 -0.00846743 0.0126465)
(0.00354481 -0.00976304 0.0122454)
(0.00426818 -0.0107724 0.00902237)
(0.0050471 -0.0109345 0.010244)
(0.00463641 -0.0103812 0.00998989)
(0.00498292 -0.00978005 0.00987161)
(0.00181044 -0.00704505 0.0139052)
(0.00183419 -0.00725972 0.0126685)
(0.00463988 -0.011846 0.010342)
(0.00430124 -0.0107454 0.0104949)
(0.00420778 -0.0114483 0.0103419)
(0.00451895 -0.0112679 0.0108633)
(0.00434491 -0.0117415 0.0105333)
(0.00698924 -0.0116976 0.00717354)
(0.00689667 -0.011859 0.00709003)
(0.00663587 -0.0120053 0.00709735)
(0.00641966 -0.0119893 0.00706634)
(0.00654925 -0.0118219 0.00709472)
(0.00720781 -0.0113794 0.00701443)
(0.00684904 -0.00918091 0.00949267)
(0.00665355 -0.010438 0.00952277)
(0.00697655 -0.00962641 0.00923945)
(0.00717818 -0.00884812 0.00938089)
(0.00720243 -0.00945842 0.00983325)
(0.00561808 -0.0069475 0.00942446)
(0.00765809 -0.00884762 0.0114451)
(0.00655135 -0.00826525 0.00924997)
(0.00550213 -0.00690473 0.00936097)
(0.00591347 -0.00760029 0.00917015)
(0.00631513 -0.00865255 0.0101503)
(0.00932492 -0.00917757 0.0147682)
(0.00796597 -0.00999212 0.0140061)
(0.0085339 -0.00889789 0.0137407)
(0.00846433 -0.0089628 0.0144509)
(0.00921035 -0.00966726 0.0140778)
(0.00754462 -0.00861873 0.0140702)
(0.0036778 -0.0113177 0.00758044)
(0.00345537 -0.0105215 0.00789704)
(0.0035944 -0.0113094 0.0076541)
(0.00355346 -0.011004 0.0077019)
(0.00367267 -0.0111346 0.00808577)
(0.00356279 -0.0113999 0.00801379)
(0.00400605 -0.0117399 0.00968831)
(0.00442772 -0.0113261 0.009838)
(0.00438206 -0.0111489 0.0097206)
(0.0043611 -0.0116787 0.00989917)
(0.00397608 -0.0113425 0.0098001)
(0.00245411 -0.00742247 0.0131746)
(0.00307904 -0.00788637 0.0136809)
(0.00309419 -0.00663083 0.0126448)
(0.00308166 -0.00790146 0.0125784)
(0.00341915 -0.00752943 0.012913)
(0.00733455 -0.010917 0.0100274)
(0.00709887 -0.0106141 0.00933145)
(0.00738046 -0.0115786 0.0106699)
(0.00671972 -0.0111689 0.0101303)
(0.00751077 -0.0108293 0.00986658)
(0.00697626 -0.0113221 0.0097516)
(0.0079357 -0.0111777 0.00855076)
(0.00811125 -0.0109846 0.00875281)
(0.00815519 -0.0106491 0.00931867)
(0.00768341 -0.0108722 0.00898287)
(0.00779111 -0.0107239 0.00862029)
(0.00855408 -0.0111154 0.00945565)
(0.00419985 -0.0124316 0.00991905)
(0.00475014 -0.0125457 0.0092983)
(0.00376849 -0.0113863 0.00953804)
(0.00451241 -0.0122405 0.00947206)
(0.00464077 -0.012487 0.00931023)
(0.00419677 -0.0117526 0.00967692)
(0.00249663 -0.00897197 0.0128829)
(0.00306848 -0.0103845 0.0117387)
(0.00274609 -0.00890388 0.0122703)
(0.00292233 -0.010904 0.0133771)
(0.00283851 -0.00942443 0.0117073)
(0.00333802 -0.00793431 0.0122954)
(0.0030101 -0.00818653 0.0120629)
(0.00364328 -0.00877718 0.0115653)
(0.0032297 -0.00926757 0.0120955)
(0.00317455 -0.00899444 0.0119126)
(0.00364489 -0.00787733 0.0120024)
(0.0054293 -0.0143351 0.0131993)
(0.0066264 -0.0153187 0.0138196)
(0.0056617 -0.0134556 0.0105744)
(0.00453169 -0.0128666 0.0108412)
(0.00514821 -0.0146016 0.0123252)
(0.00390493 -0.0129545 0.0116237)
(0.00445101 -0.013577 0.0117961)
(0.0053293 -0.0132235 0.0107276)
(0.00630661 -0.0108836 0.00597494)
(0.00601229 -0.0116737 0.00636002)
(0.00643141 -0.0114238 0.011433)
(0.00677655 -0.0118157 0.0107834)
(0.00596546 -0.0113521 0.0109821)
(0.00600103 -0.0116268 0.0106365)
(0.00626195 -0.0113447 0.0105424)
(0.00653791 -0.0114117 0.0110274)
(0.00465656 -0.011323 0.0101668)
(0.0041757 -0.0104254 0.00955019)
(0.00418309 -0.0116118 0.00975196)
(0.00396731 -0.0114401 0.00972412)
(0.00487429 -0.0125365 0.0100244)
(0.0040834 -0.0128266 0.00896466)
(0.00388973 -0.0118559 0.00934481)
(0.00409431 -0.0122674 0.00840925)
(0.00424884 -0.0123442 0.0087719)
(0.00380936 -0.0119631 0.00938243)
(0.00447292 -0.013225 0.00928654)
(0.00494067 -0.0110808 0.010322)
(0.00558358 -0.0108219 0.0106406)
(0.00541175 -0.0115256 0.010815)
(0.0048306 -0.0107504 0.0102641)
(0.00546741 -0.0103699 0.0106334)
(0.00597545 -0.0120561 0.0113062)
(0.00355315 -0.0136919 0.0142362)
(0.00428211 -0.0134254 0.0129195)
(0.00462689 -0.0139544 0.0131496)
(0.00341015 -0.0131274 0.013112)
(0.00461646 -0.014063 0.0131179)
(0.00292966 -0.0129382 0.0138975)
(0.007993 -0.0121506 0.0080336)
(0.00821578 -0.0130744 0.00840784)
(0.00788387 -0.0126105 0.00786962)
(0.00753135 -0.0125241 0.00774583)
(0.00807532 -0.0120395 0.00805923)
(0.00773481 -0.0122903 0.007869)
(0.00587994 -0.0122701 0.00762444)
(0.00685313 -0.012841 0.00809682)
(0.00644492 -0.012786 0.0077984)
(0.00576558 -0.0125063 0.00744008)
(0.00630337 -0.012717 0.00770034)
(0.00643276 -0.0126651 0.00792285)
(0.00798913 -0.0124007 0.00827164)
(0.00758067 -0.0122484 0.00796358)
(0.00716313 -0.0123604 0.00787345)
(0.007332 -0.0128879 0.00842264)
(0.00793359 -0.013223 0.00843504)
(0.00814613 -0.0121552 0.00809302)
(0.00764428 -0.0117706 0.0074322)
(0.00799337 -0.0122828 0.00808084)
(0.00774328 -0.0115818 0.00744985)
(0.00814253 -0.0119302 0.00814755)
(0.00794006 -0.0119788 0.00730599)
(0.00737275 -0.0125527 0.00769587)
(0.00460722 -0.0119012 0.00830744)
(0.00500423 -0.0128682 0.00854961)
(0.00402082 -0.0114019 0.0079153)
(0.00452448 -0.0121881 0.00797596)
(0.00432231 -0.0120367 0.00843628)
(0.0036224 -0.0104836 0.00873756)
(0.00401825 -0.0116652 0.00868149)
(0.00383181 -0.0113741 0.00860298)
(0.00330886 -0.00901107 0.0102266)
(0.00383295 -0.0107094 0.00960669)
(0.00369446 -0.0114848 0.00987927)
(0.00404189 -0.010389 0.00997545)
(0.00337657 -0.0102185 0.00967022)
(0.00389779 -0.0106955 0.0100299)
(0.00494045 -0.0120752 0.00723507)
(0.0044212 -0.0116883 0.0072683)
(0.00503334 -0.0117067 0.00664786)
(0.00523729 -0.0122833 0.00739401)
(0.00483616 -0.0118622 0.00733995)
(0.0049332 -0.0122666 0.00745185)
(0.00549621 -0.0121075 0.00704583)
(0.00689762 -0.0126113 0.00758845)
(0.00758027 -0.012479 0.00754201)
(0.00624373 -0.0119562 0.00722497)
(0.00684819 -0.011603 0.00662139)
(0.00618329 -0.0128704 0.00758891)
(0.00625858 -0.0122717 0.00687088)
(0.00725204 -0.0127994 0.00758454)
(0.00388567 -0.011577 0.00718262)
(0.00416257 -0.0115758 0.00654096)
(0.00392953 -0.0112543 0.00691966)
(0.00437027 -0.0117256 0.00668064)
(0.00447838 -0.0115364 0.00636454)
(0.00482701 -0.0113963 0.00607174)
(0.00429537 -0.0114844 0.00639148)
(0.00397928 -0.011781 0.00686762)
(0.0035876 -0.0103083 0.00883213)
(0.00394333 -0.0100458 0.00907597)
(0.0034825 -0.0103988 0.00856975)
(0.00412291 -0.0109108 0.00922701)
(0.00383324 -0.0109605 0.00945142)
(0.00970914 -0.0129699 0.010843)
(0.0114661 -0.0153103 0.0134828)
(0.0105172 -0.0129728 0.0116526)
(0.010957 -0.0129637 0.0120272)
(0.00945873 -0.0139103 0.0113436)
(0.00998793 -0.0141181 0.0117206)
(0.0107872 -0.0128962 0.0116575)
(0.0097057 -0.0133349 0.0106231)
(0.0104841 -0.0120574 0.0114576)
(0.00975605 -0.0125569 0.0105013)
(0.01045 -0.012501 0.0112982)
(0.0101565 -0.0129319 0.0108667)
(0.0125165 -0.012266 0.015063)
(0.0114355 -0.0100159 0.0140322)
(0.0117408 -0.0106399 0.0153664)
(0.0127071 -0.0116268 0.0157786)
(0.0121238 -0.00941284 0.0154682)
(0.011794 -0.00995711 0.0158741)
(0.013218 -0.011252 0.0170963)
(0.0128564 -0.0103081 0.0156486)
(0.0111114 -0.0160372 0.0150648)
(0.00853548 -0.0149242 0.01311)
(0.01152 -0.0142152 0.0134335)
(0.00993328 -0.0152781 0.0130804)
(0.00937025 -0.0147305 0.0133433)
(0.0102094 -0.0137643 0.0126497)
(0.00950603 -0.00923312 0.0154257)
(0.0102095 -0.00749456 0.0164427)
(0.0107752 -0.00882291 0.0163732)
(0.0103384 -0.00866549 0.0154816)
(0.0111096 -0.00951744 0.0161278)
(0.00940853 -0.00924512 0.0167567)
(0.0100927 -0.0093847 0.014154)
(0.0107776 -0.00999391 0.0135921)
(0.0106786 -0.0103471 0.0132179)
(0.0104491 -0.010372 0.0135795)
(0.0108152 -0.00987887 0.0143733)
(0.0101502 -0.00978219 0.0138307)
(0.00910086 -0.0111958 0.00971398)
(0.00976758 -0.012077 0.0106913)
(0.00926086 -0.0116501 0.00981831)
(0.00961486 -0.0117567 0.00984661)
(0.00937757 -0.0111533 0.0104099)
(0.00867925 -0.0112965 0.00987692)
(0.00991239 -0.0113118 0.0107193)
(0.00999398 -0.0121489 0.0102786)
(0.0102976 -0.012408 0.0110013)
(0.00960804 -0.0121746 0.0101816)
(0.00970621 -0.0122927 0.0100188)
(0.00963855 -0.0116315 0.0104545)
(0.00734371 -0.0107694 0.0106863)
(0.00654665 -0.0105464 0.0111143)
(0.00635911 -0.0110019 0.0105553)
(0.0070581 -0.0106334 0.0105838)
(0.0065246 -0.0103712 0.0103479)
(0.00752405 -0.0108636 0.0116636)
(0.00785235 -0.0109433 0.00947831)
(0.00753392 -0.0100747 0.0097802)
(0.00771385 -0.0114803 0.0101384)
(0.00812607 -0.010706 0.0100024)
(0.00815523 -0.0103478 0.00958021)
(0.00757158 -0.0106326 0.0100748)
(0.0086933 -0.0113802 0.0096004)
(0.00824658 -0.0106479 0.00938908)
(0.00875714 -0.0112685 0.00973794)
(0.00855515 -0.0108189 0.0103253)
(0.00836109 -0.0110406 0.00997119)
(0.00888314 -0.0113268 0.010361)
(0.00675929 -0.0119764 0.0119165)
(0.00571686 -0.0105338 0.0109562)
(0.0067309 -0.0104331 0.0115859)
(0.00632158 -0.0118942 0.011293)
(0.00566476 -0.0106112 0.0108912)
(0.00646263 -0.0108018 0.0108867)
(0.00435871 -0.00999394 0.00921324)
(0.00460808 -0.00935585 0.00922203)
(0.00403503 -0.00918099 0.00946074)
(0.004603 -0.0101678 0.0101721)
(0.0044898 -0.00895829 0.00950483)
(0.00415464 -0.00998846 0.00904626)
(0.00445881 -0.00987105 0.0102388)
(0.00380655 -0.00975228 0.00996275)
(0.00470165 -0.00955083 0.0106197)
(0.00427201 -0.0100156 0.00981109)
(0.00404365 -0.0104425 0.0100591)
(0.00442794 -0.0090803 0.0106146)
(0.00749264 -0.0131556 0.00764576)
(0.00706476 -0.0132855 0.00746085)
(0.00663097 -0.0136123 0.00744852)
(0.00743636 -0.0127248 0.00758512)
(0.00766452 -0.0125557 0.00814293)
(0.00773101 -0.0113715 0.0082443)
(0.00755471 -0.0117077 0.00850413)
(0.00692287 -0.0119124 0.0075062)
(0.00762267 -0.0122061 0.00814341)
(0.00726163 -0.0119625 0.00813701)
(0.00800359 -0.0110827 0.00823536)
(0.00771887 -0.0116697 0.00888194)
(0.00739845 -0.0116246 0.00834385)
(0.0072597 -0.0110394 0.00827744)
(0.00788867 -0.0108315 0.00835063)
(0.00772386 -0.0117792 0.00931486)
(0.00736331 -0.0108524 0.00733473)
(0.00747721 -0.0111286 0.00718233)
(0.00724446 -0.0113646 0.007243)
(0.00708433 -0.0111137 0.00686279)
(0.00731285 -0.0105571 0.00707407)
(0.00730636 -0.0113069 0.0070088)
(0.00719167 -0.0113593 0.00693941)
(0.00709537 -0.0120243 0.00733643)
(0.00729792 -0.0121395 0.00705272)
(0.00696405 -0.0115606 0.00673853)
(0.00734689 -0.0112192 0.00705911)
(0.00414483 -0.00687432 0.0117748)
(0.00430594 -0.00511126 0.0120094)
(0.00495513 -0.00591252 0.0120815)
(0.00447366 -0.00654674 0.0112755)
(0.00417853 -0.00629738 0.0120003)
(0.00391782 -0.00697685 0.0122313)
(0.00487968 -0.00674598 0.0116204)
(0.00428024 -0.00811885 0.0108156)
(0.00508374 -0.0068812 0.0115111)
(0.00457259 -0.00792456 0.0109389)
(0.00460919 -0.00723364 0.0103898)
(0.00447139 -0.00753474 0.0109229)
(0.00631945 -0.00459298 0.0126315)
(0.00567301 -0.0047953 0.0131995)
(0.00524193 -0.00488575 0.0113563)
(0.00476721 -0.00484384 0.0120756)
(0.00605218 -0.00420782 0.0118726)
(0.005213 -0.00389585 0.01087)
(0.00652435 -0.00251223 0.0112728)
(0.00688636 -0.00234076 0.0113656)
(0.0073453 -0.0031392 0.00980403)
(0.00753957 -0.00321417 0.0105062)
(0.00711348 -0.00357678 0.0109612)
(0.00686497 -0.00237055 0.0100352)
(0.00459608 -0.00359763 0.0132175)
(0.00555308 -0.00292243 0.0122218)
(0.00494994 -0.00269388 0.0125924)
(0.00623587 -0.00249492 0.0125894)
(0.00750163 -0.00872481 0.0101317)
(0.00770054 -0.0082979 0.00934194)
(0.00711595 -0.00900726 0.00913784)
(0.00692751 -0.0095426 0.0101971)
(0.00777012 -0.0081025 0.00962559)
(0.00680819 -0.00862503 0.00916654)
(0.00666997 -0.0075238 0.00946941)
(0.00668027 -0.0069095 0.00874448)
(0.006309 -0.00682764 0.00834288)
(0.00669491 -0.00725574 0.0102595)
(0.00591372 -0.00807268 0.00903549)
(0.00790711 -0.00998613 0.00925129)
(0.00749031 -0.0106996 0.00860127)
(0.00763143 -0.0103099 0.00840124)
(0.00718996 -0.00990786 0.00848553)
(0.00747712 -0.00986241 0.00844324)
(0.00771706 -0.0101505 0.00887298)
(0.00776914 -0.00985924 0.00938447)
(0.00768639 -0.00935665 0.00875975)
(0.00724583 -0.00842846 0.00895098)
(0.00751482 -0.00927533 0.00857755)
(0.00735724 -0.00896388 0.00915706)
(0.00757173 -0.00927308 0.00918289)
(0.00639221 -0.00883758 0.00994699)
(0.00654827 -0.00910917 0.0095231)
(0.00636973 -0.00863847 0.0104196)
(0.00645411 -0.00863956 0.00996035)
(0.00685313 -0.0088415 0.00955007)
(0.00606001 -0.00833922 0.00994498)
(0.00553966 -0.00951658 0.00918287)
(0.00511452 -0.00941331 0.0100627)
(0.00605372 -0.0102723 0.0104728)
(0.00541986 -0.00986716 0.0099717)
(0.00484922 -0.00893629 0.00971895)
(0.00528535 -0.0100578 0.00971234)
(0.00590664 -0.0136172 0.00710591)
(0.00617687 -0.0140765 0.00720733)
(0.00432293 -0.0134459 0.00843704)
(0.00433044 -0.0134393 0.00822544)
(0.00668858 -0.0118164 0.00681834)
(0.00660798 -0.0125617 0.00688264)
(0.00616771 -0.0122982 0.00695284)
(0.00649387 -0.0123516 0.00713141)
(0.00681168 -0.0119171 0.00689503)
(0.00523851 -0.0132119 0.00723016)
(0.00461648 -0.0136234 0.00846333)
(0.00493686 -0.013161 0.0077112)
(0.00507503 -0.0134195 0.00767803)
(0.00517321 -0.0138513 0.00788932)
(0.00505855 -0.0122195 0.00783706)
(0.00600483 -0.0121189 0.00710908)
(0.00518153 -0.0115324 0.00730438)
(0.00538519 -0.0121444 0.00751166)
(0.00627476 -0.0120683 0.00711233)
(0.00559541 -0.0115809 0.00704196)
(0.00403337 -0.0117474 0.0100084)
(0.00457659 -0.0124781 0.00948705)
(0.00442223 -0.0123235 0.00976214)
(0.00411025 -0.0117955 0.00902501)
(0.00398897 -0.011381 0.00943453)
(0.00422079 -0.00928742 0.0084168)
(0.00318703 -0.00897927 0.00848516)
(0.00349039 -0.00867414 0.00796244)
(0.00298216 -0.00911889 0.00924224)
(0.00234083 -0.00859105 0.00929444)
(0.00279047 -0.00893986 0.00899821)
(0.00491199 -0.00791226 0.00673083)
(0.00445685 -0.0082371 0.00702167)
(0.00418983 -0.00884802 0.00731936)
(0.00488591 -0.00894218 0.00724454)
(0.00500394 -0.00846162 0.00669287)
(0.00522307 -0.00800844 0.00670651)
(0.00612574 -0.00701722 0.00639009)
(0.00703269 -0.00640579 0.00677571)
(0.00566504 -0.00747932 0.00664352)
(0.00650187 -0.00675277 0.00655308)
(0.00595183 -0.0069715 0.00644786)
(0.00616066 -0.00627115 0.00637857)
(0.00638274 -0.00615779 0.00631225)
(0.00435088 -0.00971361 0.00742733)
(0.00530252 -0.00955438 0.00702299)
(0.0055419 -0.00908754 0.006765)
(0.00492209 -0.0099456 0.00750399)
(0.00456967 -0.00898387 0.00696126)
(0.00491358 -0.00884286 0.00666734)
(0.00741864 -0.00479893 0.00691422)
(0.00777976 -0.00571521 0.00712235)
(0.00753839 -0.00579566 0.00709701)
(0.00720711 -0.00629764 0.00665152)
(0.00744746 -0.00502204 0.00698068)
(0.00771145 -0.00487608 0.00772979)
(0.00771422 -0.00500108 0.00764603)
(0.00731371 -0.00596343 0.00682076)
(0.00265468 -0.00926574 0.00968834)
(0.00260887 -0.00930323 0.00996959)
(0.00257706 -0.00904436 0.00989195)
(0.00236475 -0.00845391 0.0106725)
(0.00259054 -0.00915419 0.0110543)
(0.00271801 -0.00909032 0.0104072)
(0.00887992 -0.0075031 0.0179467)
(0.00970265 -0.00885436 0.0178269)
(0.00775375 -0.00763549 0.0162239)
(0.00752394 -0.00747322 0.0174733)
(0.00830644 -0.00693428 0.0161605)
(0.00766801 -0.00554503 0.0174734)
(0.00757062 -0.00528731 0.00736652)
(0.00770886 -0.0050606 0.00791783)
(0.00756685 -0.00500205 0.00832252)
(0.00757133 -0.00444442 0.00811532)
(0.00766193 -0.00558592 0.00758741)
(0.00767521 -0.00622264 0.00855824)
(0.0073872 -0.00723254 0.00656214)
(0.00705771 -0.00809951 0.00641964)
(0.00719675 -0.00865667 0.00682204)
(0.0073909 -0.00809507 0.00679286)
(0.00709532 -0.00809771 0.0063067)
(0.00710964 -0.00752553 0.00668763)
(0.00722828 -0.00713215 0.00648214)
(0.00707387 -0.00707605 0.00627518)
(0.00730908 -0.00698758 0.00671428)
(0.00742894 -0.0062649 0.0068736)
(0.00746141 -0.00615602 0.00669376)
(0.00729203 -0.00658485 0.00655376)
(0.00602032 -0.00880623 0.00633187)
(0.0065362 -0.00908073 0.00647363)
(0.00675176 -0.00825924 0.00643248)
(0.0063766 -0.00891963 0.00666174)
(0.00654067 -0.0082883 0.00635698)
(0.00652591 -0.00930665 0.00678933)
(0.00695749 -0.00740091 0.0065895)
(0.00654861 -0.00754594 0.00658319)
(0.00560101 -0.00820123 0.0065117)
(0.00595038 -0.00831667 0.00655173)
(0.00643459 -0.00780726 0.00637591)
(0.00600656 -0.00780288 0.00653018)
(0.00700233 -0.00879038 0.00640741)
(0.00693003 -0.00984055 0.00696414)
(0.00598737 -0.00974814 0.00665526)
(0.00627898 -0.0098588 0.00703029)
(0.00700163 -0.00881319 0.00637785)
(0.00661286 -0.00979447 0.00659751)
(0.00467872 -0.0076292 0.0135125)
(0.00471455 -0.00751669 0.0132616)
(0.00419638 -0.00874274 0.013161)
(0.00443245 -0.00861065 0.0131473)
(0.00455295 -0.0086413 0.0138238)
(0.0035104 -0.00938666 0.00814082)
(0.00383518 -0.00952034 0.00822555)
(0.00331193 -0.00940486 0.00864358)
(0.00304299 -0.00858839 0.00807961)
(0.00286783 -0.00921006 0.00892785)
(0.00347876 -0.00925669 0.00792389)
(0.00572338 -0.0106083 0.0121884)
(0.00536378 -0.00984387 0.0120652)
(0.00591676 -0.00937004 0.0119417)
(0.00636907 -0.00940095 0.0127468)
(0.00671514 -0.011599 0.0130572)
(0.00498206 -0.0093552 0.0115726)
(0.00376818 -0.0100865 0.010797)
(0.0037597 -0.00949859 0.0114481)
(0.00385057 -0.00914893 0.0127953)
(0.00371848 -0.0101005 0.0107551)
(0.00499367 -0.011298 0.0121472)
(0.00401349 -0.00938614 0.0130268)
(0.00847223 -0.0116948 0.00834114)
(0.00862264 -0.0113418 0.00902323)
(0.00875703 -0.0122918 0.00907996)
(0.00857638 -0.011589 0.00829939)
(0.00848021 -0.0114985 0.00854677)
(0.00888472 -0.0115165 0.00904953)
(0.00816938 -0.0107546 0.008255)
(0.00823711 -0.011582 0.00862715)
(0.00829498 -0.0112001 0.00930416)
(0.00829717 -0.011145 0.00881838)
(0.00846871 -0.0117319 0.00851164)
(0.00807176 -0.011583 0.00891313)
(0.00658371 -0.0101995 0.00951316)
(0.00660676 -0.0112499 0.0105245)
(0.00682441 -0.0111823 0.00989185)
(0.0069644 -0.0110498 0.0105149)
(0.00729453 -0.0111544 0.0101386)
(0.00611574 -0.0111156 0.00955576)
(0.00785918 -0.0114738 0.00948441)
(0.00761605 -0.0103207 0.00857378)
(0.00732493 -0.010505 0.0090323)
(0.00744722 -0.0103137 0.00930459)
(0.00711083 -0.0105334 0.00912188)
(0.00786588 -0.0102354 0.00876027)
(0.00440079 -0.0109601 0.00849028)
(0.00490522 -0.0111806 0.00782361)
(0.00442677 -0.0112653 0.00779615)
(0.00457503 -0.0118011 0.00877421)
(0.0034998 -0.0100694 0.00927896)
(0.00337583 -0.0100476 0.00889707)
(0.00323087 -0.00972189 0.00961449)
(0.00352095 -0.0102228 0.0108448)
(0.00348409 -0.0100933 0.0100899)
(0.00352967 -0.0102799 0.00882128)
(0.00373699 -0.0102763 0.00859577)
(0.00343152 -0.0101227 0.00964852)
(0.00526312 -0.0104491 0.00715615)
(0.0053663 -0.00968832 0.00687871)
(0.00446081 -0.0101846 0.00771183)
(0.00421887 -0.0097551 0.00726592)
(0.00550453 -0.00969406 0.00669564)
(0.00511415 -0.0101922 0.00703078)
(0.00394636 -0.00786953 0.00723213)
(0.00464069 -0.00748378 0.00663724)
(0.00474795 -0.00811647 0.00716606)
(0.00506096 -0.00700345 0.00649675)
(0.00701349 -0.0105918 0.00686495)
(0.00710589 -0.0101902 0.00726491)
(0.00730726 -0.0102874 0.0072202)
(0.00759009 -0.0101477 0.00747642)
(0.00752753 -0.0111144 0.00741431)
(0.00770278 -0.0101013 0.00758046)
(0.00734897 -0.00392538 0.00826586)
(0.008163 -0.00359592 0.00864679)
(0.00740709 -0.00405941 0.00779272)
(0.00732493 -0.00385543 0.00905527)
(0.00796007 -0.00373932 0.00927594)
(0.00799634 -0.00397287 0.00811142)
(0.00491301 -0.0107466 0.01107)
(0.00529786 -0.01017 0.0116747)
(0.00520125 -0.0108432 0.0116209)
(0.00556784 -0.0113765 0.0116517)
(0.00470455 -0.0107211 0.01095)
(0.00500165 -0.00984221 0.0112019)
(0.00438725 -0.00889951 0.0111412)
(0.00398277 -0.00933001 0.0102675)
(0.00351291 -0.0085883 0.0102507)
(0.00673616 -0.0123861 0.00695256)
(0.0069586 -0.0128279 0.00726306)
(0.00680494 -0.00512746 0.0104328)
(0.00660043 -0.00396551 0.00908017)
(0.00371001 -0.00839611 0.00796172)
(0.00572252 -0.0104339 0.0070975)
(0.00556727 -0.0103856 0.00707541)
(0.00597768 -0.010408 0.00686442)
(0.00547098 -0.0106069 0.00687317)
(0.00368559 -0.00986314 0.00850802)
(0.00505355 -0.0107942 0.00727194)
(0.0070386 -0.0113781 0.00962094)
(0.00807722 -0.0111119 0.0078629)
(0.00861453 -0.0108562 0.00900542)
(0.0083868 -0.0118884 0.00847084)
(0.00723334 -0.0101285 0.00940139)
(0.00385964 -0.0102441 0.011878)
(0.00468499 -0.00996005 0.0114175)
(0.00486966 -0.00942801 0.012846)
(0.00447466 -0.00885383 0.0118053)
(0.00597883 -0.0114255 0.0128487)
(0.00416651 -0.011316 0.00999221)
(0.00403039 -0.0112143 0.00963413)
(0.00402679 -0.0111617 0.00897637)
(0.00409966 -0.0111089 0.00951606)
(0.00537758 -0.0120219 0.0118865)
(0.00598593 -0.0120208 0.0125938)
(0.00496646 -0.0101853 0.0117419)
(0.00464519 -0.0111568 0.0100659)
(0.00461795 -0.0118602 0.0108719)
(0.00539961 -0.0119583 0.011352)
(0.00414567 -0.0101204 0.0108322)
(0.00390134 -0.0107328 0.0102302)
(0.003866 -0.0105041 0.00974224)
(0.00414071 -0.0113059 0.00956129)
(0.0044508 -0.0113433 0.01037)
(0.00493613 -0.0101442 0.0113766)
(0.00434741 -0.00925541 0.0109552)
(0.00410922 -0.0103068 0.010786)
(0.00416519 -0.00958118 0.012395)
(0.00734322 -0.00909983 0.00738466)
(0.00475412 -0.0113598 0.00764558)
(0.00755798 -0.00932159 0.00706369)
(0.00718089 -0.00900672 0.00677902)
(0.00743647 -0.00988386 0.00700643)
(0.0057922 -0.0106786 0.00680983)
(0.00725156 -0.0101271 0.00692201)
(0.0062513 -0.00998209 0.00699839)
(0.00695372 -0.00773332 0.00638449)
(0.00708955 -0.00804982 0.00667788)
(0.00726775 -0.00926432 0.00698488)
(0.00459336 -0.00920144 0.0134557)
(0.00421645 -0.00826536 0.0142184)
(0.00353414 -0.00762136 0.0137815)
(0.00353806 -0.00687538 0.0151896)
(0.00356841 -0.00787238 0.0142916)
(0.00383835 -0.0074802 0.0142092)
(0.00291123 -0.0093807 0.00885397)
(0.00271889 -0.00777353 0.0137995)
(0.00328626 -0.00808225 0.0130068)
(0.00293565 -0.00823841 0.0132299)
(0.00261987 -0.00838054 0.0123624)
(0.00236401 -0.00861938 0.0113861)
(0.00259049 -0.00864716 0.012319)
(0.00313197 -0.0069617 0.0153903)
(0.00307068 -0.00553242 0.0162334)
(0.00431172 -0.0060469 0.0168195)
(0.00637087 -0.00551137 0.0174439)
(0.00732071 -0.00535099 0.0175618)
(0.00726679 -0.0066344 0.00655114)
(0.00753198 -0.00572994 0.00719536)
(0.007591 -0.00497328 0.00755016)
(0.00563181 -0.00875089 0.00653779)
(0.00575384 -0.00964723 0.0070286)
(0.00393012 -0.00964929 0.00780002)
(0.00358625 -0.0098719 0.00830535)
(0.00688447 -0.00681756 0.00664109)
(0.00779277 -0.00378092 0.00773188)
(0.00755783 -0.00364422 0.00795664)
(0.00742372 -0.00509834 0.00700184)
(0.00682272 -0.0054279 0.00654536)
(0.0056015 -0.00779298 0.00647669)
(0.00518107 -0.00850198 0.00669482)
(0.00435014 -0.00893018 0.00715152)
(0.00409948 -0.00835461 0.00730716)
(0.0021109 -0.0084646 0.0110475)
(0.00208924 -0.0086792 0.0100565)
(0.00289537 -0.00909973 0.00972826)
(0.00205165 -0.00866558 0.0100165)
(0.00374857 -0.00838882 0.00714717)
(0.0070534 -0.0104864 0.00675301)
(0.00696406 -0.0103552 0.00670367)
(0.00516866 -0.0110156 0.00708711)
(0.00500154 -0.0113664 0.0073661)
(0.00549247 -0.0111051 0.00701106)
(0.00688897 -0.0112709 0.00688315)
(0.00657873 -0.0108919 0.00667513)
(0.00680495 -0.0107924 0.00682984)
(0.00643566 -0.0108044 0.0067826)
(0.00582637 -0.0113007 0.00712159)
(0.00602295 -0.0107547 0.00672493)
(0.00630956 -0.010891 0.00679832)
(0.00438066 -0.0117813 0.00822918)
(0.00442672 -0.0114966 0.00828536)
(0.00417545 -0.0117158 0.00860635)
(0.00452916 -0.0120703 0.00990103)
(0.00437085 -0.011892 0.00955853)
(0.00439998 -0.012042 0.00931727)
(0.00513335 -0.0124487 0.00731836)
(0.0053467 -0.0127919 0.00727056)
(0.00510131 -0.0131064 0.00785475)
(0.00525377 -0.0131929 0.00769693)
(0.00471227 -0.0124088 0.00858498)
(0.00510389 -0.0127732 0.00793925)
(0.00440873 -0.0122283 0.00838937)
(0.00463856 -0.0123067 0.00794913)
(0.00454415 -0.0123488 0.00886574)
(0.004675 -0.0127392 0.00862848)
(0.00423828 -0.0119319 0.00881486)
(0.00442943 -0.0126364 0.00870957)
(0.00442601 -0.0124089 0.00840433)
(0.00618376 -0.011099 0.00681509)
(0.00636507 -0.0114447 0.00700556)
(0.00554202 -0.011213 0.0070423)
(0.00522431 -0.0126128 0.00857082)
(0.00496909 -0.0119261 0.0080662)
(0.00559843 -0.0118462 0.00752043)
(0.00621602 -0.0116827 0.00696375)
(0.00576079 -0.0118029 0.0069346)
(0.0049258 -0.0118298 0.00739955)
(0.00502603 -0.0122711 0.00786721)
(0.00485512 -0.0122155 0.00800613)
(0.00509524 -0.0119654 0.00733053)
(0.005622 -0.0129498 0.0071909)
(0.00540868 -0.0132874 0.00769856)
(0.00484123 -0.0132229 0.00772287)
(0.0059216 -0.0131618 0.00740996)
(0.00540897 -0.0128106 0.00729122)
(0.00544653 -0.0123444 0.00729599)
(0.00532577 -0.0129494 0.00788146)
(0.00566685 -0.0123829 0.00716822)
(0.00583734 -0.0124048 0.00722236)
(0.00612837 -0.0127366 0.00737038)
(0.00625971 -0.0124063 0.00716)
(0.00401684 -0.0114978 0.00987687)
(0.00419989 -0.0113321 0.00875176)
(0.00423523 -0.0115705 0.00937677)
(0.00403241 -0.0108272 0.00905802)
(0.00383672 -0.0106877 0.0100052)
(0.00346736 -0.0100459 0.0101836)
(0.00392234 -0.00963356 0.0108868)
(0.0040696 -0.00994734 0.0115924)
(0.00383623 -0.0104678 0.0112256)
(0.00508818 -0.0124883 0.0114239)
(0.00385999 -0.0105115 0.0111382)
(0.00400653 -0.010623 0.0107621)
(0.00420508 -0.010791 0.0110088)
(0.00401184 -0.0113794 0.0112057)
(0.00444436 -0.0116366 0.0105683)
(0.00386611 -0.010424 0.0100948)
(0.00418103 -0.0132081 0.00883314)
(0.00457245 -0.0134939 0.00778767)
(0.00439625 -0.0131558 0.00776082)
(0.00471122 -0.0135684 0.00790112)
(0.00705029 -0.0131469 0.00724279)
(0.0054042 -0.0135671 0.00745605)
(0.00672376 -0.0133315 0.0072648)
(0.0057511 -0.0135586 0.00737224)
(0.00468568 -0.0134197 0.00757786)
(0.004962 -0.0140519 0.00792022)
(0.00527683 -0.0134295 0.00716385)
(0.00487823 -0.0131711 0.00732265)
(0.00633485 -0.0133013 0.00714572)
(0.00573127 -0.0133391 0.00720963)
(0.00535041 -0.0134782 0.00718261)
(0.00619969 -0.0132604 0.00717059)
(0.00398914 -0.00798209 0.00990897)
(0.00476981 -0.00820524 0.00998013)
(0.00427509 -0.00784059 0.0099878)
(0.00712449 -0.00857216 0.00941649)
(0.00585048 -0.00954608 0.0102352)
(0.00549915 -0.00844356 0.00993904)
(0.00519622 -0.00983558 0.00973112)
(0.00463913 -0.0090364 0.00938782)
(0.00481233 -0.00880218 0.0105427)
(0.00493258 -0.00862396 0.0102038)
(0.00391436 -0.00302771 0.0142411)
(0.00765567 -0.00256785 0.00927314)
(0.00651747 -0.00162709 0.0118119)
(0.00612577 -0.00346423 0.011671)
(0.00511482 -0.00368553 0.0131094)
(0.00328676 -0.00445503 0.0136133)
(0.00343203 -0.00573797 0.0139005)
(0.0036338 -0.00355088 0.01323)
(0.00487608 -0.00520577 0.0131869)
(0.00626821 -0.00822717 0.010609)
(0.00661627 -0.00678555 0.0105575)
(0.00513371 -0.00849652 0.0112504)
(0.00454489 -0.00758599 0.0109942)
(0.00465859 -0.00814626 0.0117501)
(0.00615754 -0.00667787 0.00978228)
(0.00670953 -0.00451688 0.011518)
(0.0067671 -0.00392404 0.0110343)
(0.00615963 -0.00374104 0.0100636)
(0.00613898 -0.00500285 0.0110484)
(0.00530587 -0.0080494 0.0107255)
(0.00556487 -0.00671948 0.0104643)
(0.0052596 -0.00484579 0.0116798)
(0.00753924 -0.00912502 0.00718242)
(0.00749138 -0.0090306 0.00738333)
(0.00756579 -0.00695639 0.00720578)
(0.00771444 -0.0066412 0.00763929)
(0.00752447 -0.00715138 0.00702976)
(0.00762842 -0.00811044 0.00709436)
(0.00730662 -0.00776239 0.00681496)
(0.00723789 -0.00712072 0.00735094)
(0.0072911 -0.00791507 0.00722435)
(0.00772178 -0.0079775 0.00760967)
(0.00778494 -0.00697465 0.00825624)
(0.00721761 -0.00622055 0.0109916)
(0.00761328 -0.00585019 0.00880936)
(0.00766436 -0.00583082 0.00937651)
(0.00712333 -0.00591594 0.00993824)
(0.00692984 -0.00541303 0.0101145)
(0.00694946 -0.00579004 0.0103845)
(0.00681047 -0.00599916 0.0106753)
(0.00736066 -0.00446769 0.0100905)
(0.00770716 -0.00556878 0.0101774)
(0.00727225 -0.00633712 0.0106463)
(0.00685055 -0.00723262 0.00917367)
(0.00632027 -0.00643514 0.00947572)
(0.00770783 -0.00819215 0.0087028)
(0.00738774 -0.00773861 0.00886546)