/*--------------------------------*- C++ -*----------------------------------*\
| =========                 |                                                 |
| \\      /  F ield         | OpenFOAM: The Open Source CFD Toolbox           |
|  \\    /   O peration     | Version:  v1612+                                |
|   \\  /    A nd           | Web:      www.OpenFOAM.com                      |
|    \\/     M anipulation  |                                                 |
\*---------------------------------------------------------------------------*/
FoamFile
{
    version     2.0;
    format      ascii;
    class       volVectorField;
    location    "150";
    object      wallShearStress;
}
// * * * * * * * * * * * * * * * * * * * * * * * * * * * * * * * * * * * * * //

dimensions      [0 2 -2 0 0 0 0];

internalField   uniform (0 0 0);

boundaryField
{
    WALL
    {
        type            calculated;
        value           nonuniform List<vector> 
1688
(
(0.000218552 -0.0286986 -0.00343238)
(0.0012352 -0.0274822 -0.0045035)
(-0.000724782 -0.0148096 -0.00506208)
(-0.00176804 -0.0134114 -0.00460414)
(0.00228512 -0.0220628 0.00171471)
(0.00187386 -0.0227957 0.00416776)
(-0.00187049 -0.0099968 0.00404634)
(0.000480805 -0.0103664 0.00834953)
(0.000430148 -0.00985266 0.00869553)
(-0.00310739 -0.00922311 0.0048762)
(-0.00298914 -0.0091524 0.00455163)
(-0.00255017 -0.0229539 0.00795795)
(-0.00227715 -0.0215637 0.00623613)
(0.00173714 -0.0225153 0.00167672)
(0.00179871 -0.0212845 0.00164335)
(-0.00444112 -0.00967521 0.0021473)
(-0.00589428 -0.0122682 0.00194644)
(-0.00178659 -0.00870773 -0.00105878)
(-0.00234937 -0.00856856 -0.000636871)
(0.00409157 -0.0112763 0.00312944)
(0.00362959 -0.0117586 0.00248025)
(0.00441022 -0.010589 0.00383691)
(0.00416075 -0.0100503 0.00360778)
(0.00396281 -0.0107245 0.00300431)
(0.00355041 -0.0111166 0.0024541)
(0.00339071 -0.0243843 -0.00401873)
(0.00226793 -0.0254815 -0.0044567)
(0.00301587 -0.0235546 -0.00322202)
(0.00375847 -0.0236752 -0.00343187)
(0.00211203 -0.0241204 -0.00347022)
(0.00178539 -0.0251269 -0.00412823)
(-0.0012377 -0.0270396 -0.000138635)
(-0.000558308 -0.0276491 -0.00111398)
(-0.00101796 -0.0276846 -0.00130512)
(-0.000677318 -0.0290929 -0.000828535)
(-0.000670196 -0.0267435 -0.00175479)
(0.00345858 -0.0162605 0.00087823)
(0.00331874 -0.018492 0.000466816)
(0.00252044 -0.0173965 0.000224287)
(0.00335562 -0.0200273 -0.000437843)
(0.00242101 -0.0201253 -0.000309644)
(0.00284713 -0.0206085 -0.000728538)
(0.00486992 -0.0179359 0.00104682)
(0.00474087 -0.0182839 0.000831921)
(0.00465022 -0.0171752 0.00216412)
(0.00485259 -0.0171694 0.00255938)
(0.00481984 -0.0181102 0.00169487)
(0.00457436 -0.0170842 0.00123961)
(0.00211125 -0.0223966 0.00306093)
(0.00127083 -0.0231121 0.00460901)
(0.0019823 -0.0228419 0.00316949)
(0.00166984 -0.0230604 0.00369498)
(0.00133773 -0.0242449 0.00423089)
(-0.00304541 -0.00831557 -0.000534591)
(-0.00200522 -0.00841943 -0.000115724)
(-0.00254979 -0.00834765 9.406e-05)
(-0.00214138 -0.00829793 -0.000500618)
(-0.00101585 -0.0110729 0.00672902)
(-0.000625999 -0.0111558 0.00722176)
(-0.00135371 -0.0109471 0.00573129)
(-0.00124108 -0.0109499 0.00649667)
(-0.0012354 -0.010888 0.0058908)
(-0.000835162 -0.011273 0.00689656)
(-0.00400413 -0.00995234 0.00131493)
(-0.00420243 -0.0100171 0.00084466)
(-0.00467945 -0.0109546 0.000915887)
(-0.00362683 -0.00939866 0.00128365)
(-0.000822545 -0.00972421 0.00810593)
(-0.00138156 -0.00975389 0.00763495)
(-0.00151911 -0.00983766 0.00708321)
(-0.00143739 -0.00940063 0.00785252)
(-0.000824894 -0.0101256 0.00778806)
(-0.000595211 -0.0100494 0.00820682)
(0.0030777 -0.00779315 0.00852436)
(0.00231609 -0.00829863 0.00878887)
(0.00190482 -0.00811613 0.00921498)
(0.0029576 -0.00821607 0.00845899)
(-0.00345242 -0.0097016 0.00554396)
(-0.00326325 -0.00889367 0.00547853)
(-0.00356805 -0.00907986 0.00441839)
(-0.00396951 -0.00938648 0.00443872)
(-0.00410083 -0.00948763 0.00463481)
(-0.00364774 -0.00921832 0.00483614)
(0.000572145 -0.0235197 0.00748757)
(0.000556529 -0.024549 0.00802511)
(0.000887638 -0.0245319 0.00676689)
(-0.000286859 -0.0258591 0.00840553)
(0.000450271 -0.0247482 0.00792355)
(0.00102367 -0.0241529 0.00687086)
(0.00195886 -0.014466 -0.00585093)
(0.00224819 -0.0154293 -0.00597092)
(0.00161529 -0.0142914 -0.00589876)
(0.00155232 -0.0135469 -0.0057225)
(0.00242146 -0.0149053 -0.00588754)
(0.0026328 -0.015843 -0.00617257)
(0.00454047 -0.00877924 0.00485483)
(0.00467501 -0.00917194 0.00464326)
(0.00443556 -0.00897325 0.00551457)
(0.00447878 -0.00836452 0.00524796)
(0.00466927 -0.00937143 0.0046028)
(0.00428606 -0.00906088 0.00501816)
(0.00400267 -0.0121589 0.00464613)
(0.00391504 -0.0121813 0.00545919)
(0.00343999 -0.0122896 0.00610604)
(0.00363905 -0.0123799 0.00529005)
(0.00391958 -0.0126582 0.00467051)
(0.00329654 -0.0115876 0.00606464)
(-0.00291836 -0.0243839 0.00207267)
(-0.00277281 -0.0244272 0.00112311)
(-0.0020104 -0.0234059 0.000753699)
(-0.00320038 -0.0220678 0.00144356)
(-0.00324925 -0.0232152 0.00184867)
(-0.00193649 -0.0253584 0.000394919)
(0.00119124 -0.0243525 0.00292999)
(0.00226734 -0.0230494 0.00174012)
(0.00249063 -0.0235987 0.00124144)
(0.00171404 -0.0249711 0.00152217)
(0.0024806 -0.0248051 0.00118679)
(0.00188792 -0.0254811 0.00219761)
(0.00228211 -0.020727 0.00215067)
(0.00198283 -0.0217112 0.00321262)
(0.00310179 -0.0218857 0.00119776)
(0.00352335 -0.0225365 -0.00105981)
(0.00301456 -0.0248982 -0.000463795)
(0.00292069 -0.0252199 -0.000267621)
(0.00324049 -0.0232633 -0.000404094)
(0.00281548 -0.0246124 0.000380202)
(0.00351752 -0.0235472 -0.00194211)
(0.00423575 -0.0227664 -0.00257889)
(0.00419522 -0.0223336 -0.00213239)
(0.00437039 -0.0210323 -0.00410575)
(0.00464976 -0.0222269 -0.00351296)
(0.00413425 -0.0202047 -0.00313406)
(0.00385008 -0.0208434 -0.00238809)
(0.00446145 -0.0253955 -0.00219687)
(0.00485131 -0.0234125 -0.00291939)
(0.0041561 -0.0237695 -0.00191893)
(0.00538234 -0.0272573 -0.00431249)
(0.00542676 -0.0242687 -0.00489429)
(0.00458326 -0.0120472 0.00387315)
(0.00450223 -0.0126804 0.00451901)
(0.00448077 -0.011229 0.00448737)
(0.00462246 -0.0120588 0.00535837)
(0.00458582 -0.013061 0.00390389)
(0.00412009 -0.0113345 0.00503637)
(0.00425529 -0.0156802 0.00196375)
(0.00422019 -0.0140929 0.00351091)
(0.00405659 -0.0143467 0.00209679)
(0.00446216 -0.0132104 0.00363041)
(0.00449648 -0.0138959 0.002968)
(0.00431226 -0.0148459 0.00264944)
(0.00454251 -0.0166353 0.00337197)
(0.00403364 -0.0145971 0.00451735)
(0.00457427 -0.0162308 0.00339603)
(0.00411246 -0.0159442 0.00399606)
(0.00408598 -0.0147755 0.00395972)
(0.00474107 -0.0175667 0.00277722)
(0.00432827 -0.0100079 0.00346967)
(0.00458054 -0.00958503 0.00479432)
(0.00442785 -0.00995135 0.00396621)
(0.00419559 -0.0101318 0.00352656)
(0.00428963 -0.00929968 0.00451554)
(0.00414619 -0.00972671 0.00403889)
(0.0020128 -0.0140607 0.00222696)
(0.00244397 -0.0122441 0.00209229)
(0.00214469 -0.0126673 0.00190895)
(0.00117015 -0.0140491 0.00218012)
(0.00144124 -0.0140537 0.0051801)
(0.0020813 -0.0146883 0.00480154)
(0.00195167 -0.0139825 0.00553823)
(0.00212661 -0.0141993 0.00328055)
(0.00115428 -0.0128157 0.00386332)
(0.00223383 -0.0144732 0.00422607)
(0.00172093 -0.0138227 0.00415366)
(0.00165403 -0.0137774 0.00315424)
(-0.000609416 -0.00997003 0.00110207)
(-0.000323168 -0.010515 0.00129409)
(-0.000258245 -0.0111371 0.00186273)
(-0.000717712 -0.0103477 0.00163452)
(-0.000421109 -0.0100334 0.00104937)
(-0.000444848 -0.0108882 0.00185562)
(0.000428422 -0.0113989 0.00117332)
(0.00108401 -0.0125313 0.00175482)
(0.000239227 -0.0116179 0.00194093)
(0.000121429 -0.0112044 0.00145048)
(0.000915489 -0.0123137 0.000953242)
(0.0006315 -0.0123339 0.00195637)
(-0.000825447 -0.00851838 0.00038754)
(-0.000755254 -0.00897558 0.000586793)
(-0.000590138 -0.00844722 0.000186581)
(-0.000636992 -0.00854575 4.42797e-05)
(-0.000481088 -0.00916697 0.000447559)
(-0.000866396 -0.00840453 6.2563e-05)
(-0.000250918 -0.0089283 0.000241878)
(-0.000304258 -0.0094033 0.000515419)
(0.000181995 -0.0102873 0.00054682)
(2.22163e-05 -0.0091299 0.00013694)
(0.000241871 -0.00961159 0.000174226)
(-9.92578e-05 -0.0100628 0.000600339)
(5.8418e-06 -0.00807285 -0.000551663)
(-0.000437935 -0.0076519 -0.000469069)
(-0.000467199 -0.00853164 -1.71949e-05)
(-0.000700116 -0.00770621 -0.000133872)
(-0.000156851 -0.00805829 -0.000211904)
(0.00049159 -0.00918907 -0.00036061)
(2.8424e-05 -0.00858797 -0.000185985)
(0.000104742 -0.0084768 -0.000376408)
(-0.00206184 -0.0108145 -0.00301393)
(-0.00155684 -0.0104755 -0.00287512)
(-0.00174952 -0.0111917 -0.00368177)
(-0.00181699 -0.0118572 -0.00376759)
(-0.00200291 -0.0102375 -0.00269244)
(-0.00172712 -0.0120388 -0.00402336)
(-0.000481044 -0.0157193 -0.00504139)
(-0.000121339 -0.0161619 -0.00517333)
(-0.00163991 -0.013605 -0.00468904)
(-0.00033822 -0.0155825 -0.00522472)
(-0.0011257 -0.0139649 -0.00470356)
(-0.00111815 -0.014073 -0.0048896)
(-0.0030471 -0.0115255 -0.00318003)
(-0.00296976 -0.0115298 -0.00372881)
(-0.0025318 -0.0113338 -0.00321462)
(-0.00218976 -0.0125284 -0.00399779)
(-0.00200268 -0.0118664 -0.00352219)
(-0.00310156 -0.0112314 -0.00301325)
(-0.00170671 -0.00832734 -0.000455637)
(-0.00165779 -0.00861685 -0.000853573)
(-0.00165433 -0.00825948 -0.000556102)
(-0.00165632 -0.00866296 -0.00103777)
(-0.00175847 -0.00847508 -0.000609198)
(-0.000131 -0.00957403 -0.0031068)
(-3.37334e-06 -0.010927 -0.00411825)
(-2.87557e-05 -0.00982141 -0.00324237)
(5.46054e-05 -0.0106174 -0.00377551)
(0.00141751 -0.0130227 -0.00523962)
(0.00115799 -0.0127021 -0.00478609)
(0.000705629 -0.0120919 -0.00451548)
(-0.000601404 -0.0091622 -0.00270247)
(-0.000664985 -0.00836697 -0.00221749)
(-0.00064583 -0.00907668 -0.00243623)
(-0.00075239 -0.00878175 -0.00210483)
(-0.000607678 -0.00833596 -0.00193998)
(-0.000577647 -0.00888528 -0.00258822)
(-0.000485931 -0.00730723 -0.00113381)
(-0.000532341 -0.00783743 -0.00150357)
(-0.000646658 -0.00768632 -0.00120149)
(-0.000168963 -0.00736258 -0.000941888)
(-0.000107205 -0.0077314 -0.000712302)
(2.30688e-05 -0.00757087 -0.000581549)
(0.00273608 -0.0163534 -0.00505244)
(0.00394333 -0.0187135 -0.004415)
(0.00376774 -0.0187403 -0.004891)
(0.00314011 -0.0179251 -0.00463956)
(0.00373905 -0.0183432 -0.00376582)
(0.00203464 -0.0235526 0.00465149)
(0.00179169 -0.0229135 0.00501026)
(0.00189104 -0.0242239 0.00459929)
(0.00210132 -0.022931 0.00316911)
(0.00196217 -0.0228809 0.00297122)
(-0.00112632 -0.0243844 0.00818209)
(-0.00202399 -0.0238328 0.0079823)
(-0.00145149 -0.0233027 0.00868999)
(-0.00184863 -0.0241395 0.00855413)
(-0.00185578 -0.0237179 0.00859125)
(-0.000828214 -0.0236205 0.00836075)
(0.00160933 -0.0221461 0.00492292)
(0.0011838 -0.0239884 0.00527632)
(0.00163325 -0.0235846 0.00507655)
(-0.000979117 -0.0256663 0.0110562)
(-0.00133633 -0.0250702 0.0104271)
(-0.00134787 -0.0231585 0.0102728)
(-0.0015989 -0.0242121 0.00987467)
(-0.00180134 -0.0232392 0.00961001)
(-0.000847599 -0.0247393 0.0104287)
(-0.00336012 -0.0228708 0.00715702)
(-0.00268418 -0.0220874 0.00700338)
(-0.00294635 -0.0232476 0.00741423)
(-0.00280077 -0.0238377 0.00819859)
(-0.00279839 -0.022483 0.00783256)
(-0.00298277 -0.0223266 0.00657172)
(-0.00242359 -0.0226424 0.00728556)
(-0.0022729 -0.0228757 0.00817807)
(-0.00223093 -0.0220774 0.00733363)
(-0.00185804 -0.0229282 0.0081899)
(-0.00205229 -0.0232287 0.00878956)
(-0.00252191 -0.0216534 0.00682614)
(-0.00165009 -0.0237567 0.00898749)
(-0.000997598 -0.0251883 0.00983515)
(-0.00150038 -0.0247664 0.00919053)
(-0.00141929 -0.0250724 0.00963327)
(-0.000937386 -0.0252326 0.00940978)
(-0.00195983 -0.0236478 0.00865149)
(0.00117889 -0.0134762 0.00174781)
(0.000170307 -0.0141937 0.00159865)
(0.00112831 -0.0141942 0.00159684)
(0.000120214 -0.0152171 0.00206134)
(0.000582268 -0.0144901 0.00195302)
(-0.00018577 -0.0157091 0.00190123)
(-0.00284893 -0.0204014 0.00449166)
(-0.0034189 -0.0208878 0.00534246)
(-0.00258892 -0.0206947 0.00490114)
(-0.00294017 -0.020279 0.00441361)
(-0.0032949 -0.0215087 0.00574578)
(-0.0029463 -0.0193192 0.00391712)
(-0.00284633 -0.0231544 0.00222774)
(-0.0022703 -0.0200014 0.00113033)
(-0.00339372 -0.0227162 0.00261444)
(-0.00300432 -0.0216427 0.00150113)
(-0.00334462 -0.0221116 0.00196807)
(-0.00264391 -0.0231307 0.00170045)
(0.000179829 -0.0161331 0.00267707)
(0.00074754 -0.0146268 0.00261408)
(0.00035467 -0.0152631 0.00285112)
(0.000258187 -0.0164165 0.00322268)
(-0.000602381 -0.0172651 0.00365023)
(-0.000708154 -0.0173329 0.00342223)
(-0.00283976 -0.0212325 0.00600368)
(-0.00223573 -0.0208318 0.00544613)
(-0.00252227 -0.0202167 0.00461688)
(-0.00251585 -0.0204012 0.00510144)
(-0.00208537 -0.0192138 0.00415538)
(-0.00218199 -0.0202088 0.00481133)
(-0.00246131 -0.0223111 0.0064196)
(-0.00305597 -0.0243187 0.00549303)
(-0.00365033 -0.0231283 0.00543857)
(-0.00388746 -0.0220198 0.00603451)
(-0.00312723 -0.0244421 0.00649742)
(-0.00241225 -0.0238656 0.00672943)
(-0.00352308 -0.0238541 0.00645046)
(-0.000126596 -0.0252812 0.0103112)
(-0.0010316 -0.0245918 0.0108022)
(0.0011089 -0.0146218 0.00298271)
(0.00035007 -0.0157491 0.00349009)
(-0.00398811 -0.00966259 0.00593898)
(-0.0047977 -0.0108602 0.00583523)
(-0.00424874 -0.00971138 0.00550448)
(-0.00355991 -0.00947732 0.0058431)
(-0.00413627 -0.0099242 0.00611548)
(-0.00472214 -0.0104488 0.00608778)
(-0.0031867 -0.00916754 0.00627307)
(-0.00247805 -0.00890741 0.0067102)
(-0.0024209 -0.00873829 0.00714046)
(-0.00295342 -0.00878334 0.0064762)
(-0.00291084 -0.00891604 0.00620625)
(-0.00261356 -0.00902913 0.00700193)
(-0.00278241 -0.00915986 0.00609517)
(-0.00233314 -0.00900991 0.00698354)
(-0.00293157 -0.00931613 0.00594294)
(-0.00241116 -0.00899386 0.00648161)
(-0.00287684 -0.00880294 0.00608867)
(-0.00254804 -0.00916613 0.00661831)
(-0.000921108 -0.022214 0.00349505)
(-0.0018559 -0.0212494 0.00302783)
(-0.0066682 -0.0168894 0.00444566)
(-0.00588333 -0.0165185 0.00404436)
(-0.0061988 -0.0169145 0.00447463)
(-0.00509514 -0.0107368 0.00470321)
(-0.00619229 -0.0114536 0.00474789)
(-0.0049663 -0.0104069 0.00499658)
(-0.00576427 -0.0113599 0.00523437)
(-0.00594466 -0.0119609 0.00420413)
(-0.00531027 -0.0108868 0.00408493)
(-0.00470762 -0.0105965 0.0042372)
(-0.00568871 -0.0114448 0.00361043)
(-0.00433176 -0.00984282 0.0042451)
(-0.00494028 -0.0109321 0.00363567)
(-0.00422894 -0.0103423 0.0038426)
(-0.00513885 -0.0110683 0.00374511)
(-0.00656108 -0.0167869 0.000692607)
(-0.00664807 -0.0155688 0.00110221)
(-0.00644738 -0.0150827 0.0011871)
(-0.0059576 -0.0162708 0.00025133)
(-0.00624249 -0.0167246 0.000116169)
(-0.00504489 -0.0184047 6.54982e-06)
(-0.00475094 -0.0186211 -0.000290441)
(-0.00479085 -0.0181185 0.000525661)
(-0.00588834 -0.0178436 0.000279098)
(-0.00423624 -0.0194545 7.80072e-06)
(-0.00452002 -0.0188255 0.000157402)
(-0.00415983 -0.0198656 0.00135592)
(-0.00422022 -0.0200715 0.00196857)
(-0.00612423 -0.0187147 0.00167715)
(-0.00542202 -0.0182949 0.00115586)
(-0.00536478 -0.0190226 0.00200687)
(-0.00336624 -0.0201399 0.00170337)
(-0.00123271 -0.0220947 0.00251216)
(-0.00189365 -0.0217503 0.00278765)
(-0.000875438 -0.0222633 0.00316275)
(-0.00248369 -0.021023 0.00240807)
(-0.000370574 -0.0220833 0.00318635)
(-0.00198586 -0.0214028 0.00216636)
(0.000265213 -0.00916088 0.00905916)
(0.00125184 -0.00804494 0.00919843)
(-7.36363e-05 -0.00760284 0.00895689)
(0.00103027 -0.00838555 0.00921902)
(0.00433651 -0.00835885 0.00656194)
(0.00374974 -0.00799122 0.00777472)
(0.00394626 -0.00779264 0.00764752)
(0.00462068 -0.00803953 0.00656995)
(0.00455603 -0.00829762 0.00730676)
(0.00386277 -0.00807704 0.00708911)
(0.0039836 -0.00948519 0.00622858)
(0.00434832 -0.00995166 0.00489917)
(0.00435794 -0.0096394 0.00473624)
(0.00406913 -0.00927316 0.00587474)
(0.00410153 -0.00949514 0.00554316)
(0.00439536 -0.00962065 0.00534903)
(0.00386352 -0.00906731 0.00614204)
(0.00443722 -0.00914463 0.00571698)
(0.00375035 -0.00905009 0.0067292)
(0.00416794 -0.00902176 0.00596309)
(0.00431379 -0.00931442 0.00565189)
(0.00383021 -0.00830229 0.00641823)
(0.000561358 -0.00938062 0.00878892)
(0.00139115 -0.00974649 0.00830043)
(0.000990304 -0.0097774 0.00826976)
(0.00027375 -0.00985782 0.00883708)
(0.00158454 -0.00874017 0.00772814)
(-0.00292424 -0.00921181 0.00566804)
(-0.00236751 -0.00932119 0.00633178)
(-0.0021447 -0.00927102 0.0064767)
(-0.00283956 -0.00926606 0.00600044)
(-0.00275968 -0.00913437 0.00597324)
(-0.00251017 -0.00923652 0.00651027)
(-0.000948062 -0.00871136 0.0078134)
(-0.00211346 -0.00885088 0.00742956)
(-0.00166935 -0.00899931 0.00773183)
(-0.0010255 -0.00956011 0.00834043)
(-0.00162732 -0.00981063 0.00770359)
(-0.000220235 -0.00872525 0.00896231)
(0.000308361 -0.00951385 0.00916986)
(0.00106644 -0.00867411 0.00870443)
(0.00117393 -0.00893874 0.00931799)
(0.00034547 -0.00868386 0.00925758)
(-0.00302245 -0.00884408 0.000126882)
(-0.00382003 -0.00997599 -1.62266e-05)
(-0.00280685 -0.00928661 0.000724522)
(-0.00307891 -0.00930315 0.000775267)
(-0.00553864 -0.0101461 0.00240096)
(-0.00503248 -0.011175 0.00258777)
(-0.0051728 -0.0119124 0.00197456)
(-0.00489007 -0.00982707 0.00272349)
(-0.00530171 -0.0108187 0.00119973)
(-0.00538809 -0.0116361 -0.000464057)
(-0.00547449 -0.0133105 -0.00158377)
(-0.00544228 -0.013922 -0.00187729)
(-0.00606764 -0.0123902 -0.000369086)
(-0.00606158 -0.0140346 -0.00112745)
(-0.00668192 -0.0150466 1.61239e-05)
(-0.00631402 -0.0146748 -0.000658518)
(-0.00614044 -0.0133385 0.000405903)
(-0.00649923 -0.0137039 0.000587887)
(-0.00642651 -0.015571 -0.000641279)
(-0.00147579 -0.00998147 0.00738951)
(-0.000561367 -0.0112874 0.0077111)
(-0.00163712 -0.0102362 0.0067935)
(-0.00132765 -0.0107241 0.00702041)
(-0.00112022 -0.00974437 0.00772343)
(-0.000698558 -0.011739 0.00729636)
(0.00197998 -0.0105342 0.00758647)
(0.00230469 -0.0106497 0.00737571)
(0.00196247 -0.0114203 0.00761841)
(0.0012055 -0.010013 0.00797973)
(0.00146254 -0.0108549 0.00825394)
(-0.0014529 -0.0108854 0.00432568)
(-0.00195374 -0.0101567 0.00354696)
(-0.00165287 -0.0109726 0.00356738)
(-0.00108775 -0.0114829 0.00377907)
(-0.00118165 -0.0115018 0.00453606)
(-0.00202559 -0.0106186 0.00430816)
(-0.00178123 -0.00982558 0.00233127)
(-0.00183787 -0.00956572 0.00185872)
(-0.00163887 -0.0102202 0.00199679)
(-0.00201743 -0.0100866 0.00275927)
(-0.00190618 -0.00924869 0.00195108)
(-0.00107008 -0.00927706 0.00106135)
(-0.00142409 -0.00958377 0.00154783)
(-0.00159024 -0.00912904 0.00134713)
(-0.00123881 -0.00888698 0.000869438)
(-0.00113125 -0.00976143 0.00140811)
(-0.001495 -0.00889809 0.000984728)
(-0.000673666 -0.0111344 0.00244765)
(-0.00138659 -0.010389 0.00232588)
(-0.00106725 -0.010997 0.00324993)
(-0.000673641 -0.0111796 0.00304564)
(-0.00108423 -0.0106333 0.00233074)
(-0.00144741 -0.0104449 0.0029871)
(-0.00516176 -0.0130807 -0.00230005)
(-0.00478783 -0.011967 -0.0018796)
(-0.00536568 -0.0131342 -0.00159878)
(-0.00530113 -0.0119928 -0.000868656)
(-0.00432046 -0.0114934 -0.000926153)
(-0.00361843 -0.00912979 -0.00134051)
(-0.00373643 -0.00996402 -0.00174652)
(-0.00367251 -0.0101635 -0.00255524)
(-0.00354404 -0.0100128 -0.00240288)
(-0.00272611 -0.00930331 -0.00149395)
(0.00196019 -0.0208474 0.00366371)
(0.00196054 -0.0206973 0.00105043)
(0.00229304 -0.0213884 0.00190864)
(0.00200754 -0.0228039 0.00297235)
(0.00200529 -0.0211986 0.00298509)
(0.00216356 -0.0222596 0.00103183)
(0.00236668 -0.0214782 0.000260659)
(0.00230945 -0.0229886 0.00210783)
(0.00187762 -0.0216752 -0.00059776)
(0.00241212 -0.0218513 0.000929452)
(-0.000113745 -0.0142633 -0.00517021)
(-0.000889853 -0.0121245 -0.00469449)
(-0.00108999 -0.0133026 -0.00471349)
(-0.000366607 -0.0125114 -0.00482381)
(-0.000432317 -0.0147163 -0.00516715)
(-0.001138 -0.0121964 -0.00427393)
(0.00043748 -0.0170494 -0.00481878)
(0.00167213 -0.0185281 -0.00439758)
(0.0016187 -0.0182164 -0.00374176)
(0.000997716 -0.017199 -0.00453009)
(0.00210185 -0.0192814 -0.00333855)
(0.00124438 -0.0172983 -0.00362285)
(0.00123019 -0.0225506 0.00502276)
(0.00068358 -0.0228695 0.00433355)
(0.00173563 -0.0240479 0.00581494)
(0.000382231 -0.0230148 0.00405378)
(0.00222602 -0.0235509 0.00625765)
(0.00174981 -0.0234674 0.00562455)
(0.00210356 -0.024235 0.00634767)
(0.00263601 -0.0232576 0.00728263)
(0.00240558 -0.0241443 0.00742584)
(0.00237877 -0.023462 0.00661672)
(0.00286501 -0.024731 0.00838519)
(0.00275652 -0.0242247 0.00899601)
(0.00197643 -0.0250107 0.0070734)
(0.00172813 -0.0253203 0.00584455)
(0.00193274 -0.0232906 0.00566041)
(0.00219903 -0.0237436 0.007873)
(0.00176752 -0.0237731 0.00554252)
(0.0019757 -0.0232019 0.00467865)
(0.00182712 -0.0230216 0.00424451)
(0.00187669 -0.0227252 0.00469916)
(0.00401437 -0.0170057 0.000595062)
(0.00409675 -0.0174769 -0.000858258)
(0.00454646 -0.0185002 -0.000689965)
(0.0038202 -0.0170592 -1.85096e-05)
(0.00426396 -0.0180119 0.00024046)
(0.00449777 -0.0186605 -0.00106912)
(0.000668624 -0.0108468 0.000344226)
(0.00124588 -0.0120691 5.13824e-05)
(0.000512055 -0.0102227 0.000152403)
(0.00386516 -0.0165434 0.00160748)
(0.00333201 -0.0159521 0.00273748)
(0.00369859 -0.0158189 0.00209856)
(0.00354557 -0.0158533 0.00232916)
(0.00343137 -0.0158499 0.00277407)
(0.00389287 -0.0169286 0.00143434)
(0.00314549 -0.0143107 0.00131616)
(0.00309912 -0.0157449 0.000995233)
(0.00295648 -0.0153822 0.0013416)
(0.00403771 -0.0141756 0.0022132)
(0.00392592 -0.0132022 0.00239936)
(0.00343937 -0.0139204 0.00191045)
(0.00482638 -0.0187932 0.000620789)
(0.00494893 -0.0185618 0.00145412)
(0.0043096 -0.0192553 -0.000153521)
(0.00445682 -0.0188022 0.00082053)
(0.0043691 -0.0197386 -0.000212773)
(0.00453196 -0.0180537 0.00146942)
(-0.00168059 -0.0274004 -0.000216791)
(-0.00258445 -0.0279884 -0.000419295)
(-0.00223507 -0.0261259 -0.000371587)
(0.00108688 -0.0286504 -0.00558653)
(0.00219597 -0.0277824 -0.00565669)
(0.00231612 -0.0280633 -0.00610684)
(0.00110943 -0.0299828 -0.00627186)
(-0.000911146 -0.0282984 -0.00402654)
(-0.000102588 -0.0283815 -0.0024922)
(2.0414e-05 -0.0269138 -0.00328495)
(-9.40862e-05 -0.0268887 -0.00292733)
(0.000396712 -0.0275958 -0.00355884)
(-0.00056823 -0.0276453 -0.00248847)
(0.000721325 -0.0286316 -0.00343541)
(0.000198413 -0.0291997 -0.00323166)
(0.000439926 -0.0288482 -0.00392688)
(0.00171802 -0.0301511 -0.00447554)
(0.00187192 -0.0259027 -0.00487836)
(0.00189821 -0.0272673 -0.00460782)
(0.00122215 -0.0279632 -0.00475886)
(0.00146231 -0.0266778 -0.00439896)
(0.00156458 -0.0270988 -0.00513321)
(0.00375202 -0.0216186 -0.00157161)
(0.00235505 -0.0226774 -0.00181318)
(0.00324554 -0.0211952 -0.00137647)
(0.00281796 -0.0218729 -0.00242293)
(0.00229387 -0.023013 -0.00265347)
(0.00175515 -0.0231189 -0.00254071)
(0.00145736 -0.0176632 -0.0048096)
(0.00100378 -0.0170221 -0.00548825)
(0.000977668 -0.018541 -0.00577262)
(0.00175088 -0.0179724 -0.00463589)
(-0.00138996 -0.00812661 -0.000161381)
(0.00199712 -0.0130353 0.00249221)
(0.00445168 -0.023719 -0.00427576)
(0.00271572 -0.0273294 -0.00620925)
(0.00295184 -0.0265159 -0.00619287)
(0.0029396 -0.0256002 -0.00544568)
(0.00391741 -0.0241935 -0.00483303)
(0.00252392 -0.0270363 -0.00565418)
(2.42643e-05 -0.0257229 -0.0036549)
(0.00096153 -0.0269724 -0.0038903)
(0.000511838 -0.0287943 -0.00178031)
(0.00271717 -0.0271018 -0.00149942)
(0.00120828 -0.0274975 -0.00100161)
(0.000622602 -0.0277429 -0.00101549)
(0.000275818 -0.0279117 -0.0011255)
(0.00450546 -0.0269326 -0.00348586)
(0.000792382 -0.0278723 -0.00228299)
(0.000658203 -0.0281752 -0.00272632)
(0.00155074 -0.0309874 -0.00566253)
(0.00115188 -0.0270121 -0.00526072)
(0.00204625 -0.0280749 -0.00561145)
(0.00239204 -0.0273649 -0.00634354)
(-0.000574382 -0.0261691 -0.00341276)
(-0.000872322 -0.0249061 -0.00296588)
(0.000644664 -0.0273639 -0.000618089)
(-0.000241301 -0.0266345 -0.000446535)
(0.000167731 -0.0290931 -0.000508253)
(-9.41226e-05 -0.0263012 0.000813728)
(0.000913719 -0.0279287 -0.000290197)
(0.000556799 -0.0260346 0.000942413)
(0.000683263 -0.0275651 0.000255365)
(0.000341967 -0.0252817 -0.00336307)
(0.000645132 -0.0256931 -0.00310733)
(0.0011488 -0.0247163 -0.00276519)
(-0.000261113 -0.0266654 -0.00273112)
(-0.00102176 -0.0266679 -0.000870148)
(-0.000704583 -0.0250195 -0.00128049)
(0.00112658 -0.0244857 -0.00232523)
(-0.000443354 -0.0241427 -0.00159957)
(0.000510271 -0.0258939 -0.00224641)
(0.000382319 -0.0227214 -0.00136858)
(0.00410355 -0.0205051 -0.00115278)
(0.00392195 -0.0203993 -0.00122997)
(0.00151813 -0.0232155 -0.00176181)
(0.00115534 -0.0226807 -0.00132646)
(0.00319396 -0.0153163 0.00449115)
(0.00458734 -0.0221858 -0.00276745)
(0.00323092 -0.0146625 0.00381835)
(0.00294181 -0.0146047 0.00386147)
(0.00456781 -0.0209025 -0.00175098)
(0.00427122 -0.0208601 -0.0017147)
(0.00469357 -0.0196971 -0.00130737)
(0.00452537 -0.0204934 -0.00191412)
(0.00456719 -0.0210309 -0.00290079)
(0.00423267 -0.0231787 -0.00456863)
(0.00463528 -0.0231922 -0.00355182)
(0.00454738 -0.0213217 -0.00292714)
(0.00422754 -0.0180212 -0.000116688)
(0.00455476 -0.0193896 -0.000959622)
(0.00470436 -0.0203919 -0.00250684)
(0.00462679 -0.0200315 -0.00228607)
(0.00465366 -0.0196811 -0.00136169)
(0.00432467 -0.0176374 0.00072022)
(0.00459877 -0.019481 -0.00272805)
(0.00444232 -0.0184123 -0.00211179)
(0.00469569 -0.019209 -0.00199161)
(0.00384317 -0.0168154 -0.000564096)
(0.00394824 -0.0173757 -0.00122599)
(0.00126059 -0.0125971 0.000775446)
(0.00177005 -0.0133111 0.000625014)
(0.00200355 -0.0135298 0.000869839)
(0.00270661 -0.0149595 0.000302461)
(0.00164361 -0.0128779 0.00154234)
(0.00186363 -0.0135033 0.00147499)
(0.00201792 -0.0139787 0.00245873)
(0.00309413 -0.0154728 0.000408865)
(0.00255105 -0.0151091 0.00188661)
(0.00352044 -0.0163896 0.000222576)
(0.00296179 -0.0156241 0.00102416)
(0.00235032 -0.014819 0.00126115)
(0.00277483 -0.0150062 0.000352847)
(4.9903e-05 -0.0206826 -0.000751657)
(0.000836685 -0.0211414 8.02582e-05)
(0.000356841 -0.0246065 0.0104701)
(0.000741475 -0.0249759 0.0102381)
(0.00122694 -0.0258415 0.011821)
(0.00127531 -0.0253491 0.00992162)
(0.00162133 -0.024227 0.00981632)
(0.000978255 -0.0256935 0.00948895)
(0.00160351 -0.0242241 0.00617418)
(0.00189786 -0.0233968 0.00701727)
(0.00141051 -0.0247009 0.00895479)
(0.00163156 -0.0238948 0.0081738)
(0.00183675 -0.0235373 0.00616312)
(0.00200421 -0.0249437 0.00917139)
(0.00172498 -0.0247734 0.00833079)
(0.00151568 -0.0223992 0.00396973)
(0.00159407 -0.0230395 0.00441821)
(0.0024052 -0.0246225 0.00944081)
(0.00207293 -0.0245884 0.00752986)
(0.00193517 -0.0245765 0.0113262)
(0.00206987 -0.0254821 0.0105505)
(0.00241902 -0.0246468 0.0116046)
(0.00243528 -0.0248644 0.0101818)
(0.00287523 -0.0239875 0.0111816)
(0.00277893 -0.0257362 0.00962667)
(0.00277478 -0.0241881 0.00736036)
(0.00219376 -0.0231766 0.00610284)
(0.00167242 -0.0235844 0.00517171)
(0.00176689 -0.0248431 0.00606898)
(0.00107911 -0.0230998 0.00410363)
(0.000782405 -0.0231896 0.00329798)
(0.000676695 -0.0218419 0.00315799)
(0.00113365 -0.0224813 0.00408517)
(0.00146479 -0.0234564 0.00502921)
(0.00157992 -0.0227709 0.00509813)
(0.000609457 -0.022692 0.00395145)
(0.000120907 -0.0227987 0.00361879)
(0.000219349 -0.0219032 0.00314503)
(0.00192756 -0.0244024 0.00336891)
(0.00158466 -0.023621 0.00420711)
(0.000471415 -0.0223341 0.0011581)
(0.00147644 -0.0225178 0.00285679)
(0.000850457 -0.0226984 0.00290281)
(0.000861329 -0.023575 0.00179384)
(0.00100515 -0.0232537 0.00271801)
(0.000204043 -0.0223202 0.00163767)
(0.00253855 -0.0189514 0.00191834)
(0.00269406 -0.0195432 0.000776406)
(0.00242373 -0.0185435 -0.00141876)
(0.00186897 -0.0175964 -0.00229264)
(0.000610006 -0.0167048 -0.00507126)
(0.00205001 -0.0186983 -0.0039179)
(0.00267457 -0.020297 -0.0033075)
(0.0029017 -0.0196624 -0.000850999)
(0.00297714 -0.0206741 -0.00203524)
(0.00274442 -0.0204786 -0.00241499)
(0.00301603 -0.0200156 -0.000578587)
(-0.000105206 -0.0154909 -0.00540454)
(0.000480445 -0.0141681 -0.00539291)
(0.00101194 -0.0144502 -0.00524354)
(-0.00145485 -0.0102909 -0.00349585)
(-0.00154086 -0.011413 -0.00391954)
(-0.000421377 -0.0103557 -0.00333857)
(-0.000723303 -0.0101379 -0.00315405)
(-0.001047 -0.0096633 -0.00308931)
(-0.000915049 -0.00962277 -0.00292335)
(-0.000683889 -0.00926624 -0.00238523)
(0.00234546 -0.0194692 -0.000588238)
(0.00249056 -0.0195682 0.000960689)
(0.00209134 -0.0208395 -0.00090584)
(0.00237197 -0.0212869 0.00156985)
(0.00218739 -0.0228508 0.000139051)
(-0.0029785 -0.0168462 -0.00405959)
(-0.00229363 -0.014019 -0.00435888)
(-0.00259976 -0.0146767 -0.00384722)
(-0.0022977 -0.0166059 -0.00399917)
(-0.00110924 -0.019082 -0.00365043)
(-0.0014816 -0.0177897 -0.00404477)
(-0.00141967 -0.0188336 -0.00349359)
(-0.00213101 -0.0177132 -0.00353217)
(-0.00272631 -0.0177027 -0.00349114)
(-0.00200276 -0.0182475 -0.00296458)
(-0.00093523 -0.0189485 -0.00311469)
(-0.00139407 -0.0181763 -0.00284047)
(-0.00120862 -0.0148488 -0.00419641)
(0.000210431 -0.016038 -0.00420482)
(-0.0010748 -0.0169331 -0.0042051)
(-0.000534326 -0.0149864 -0.00436384)
(0.00157934 -0.0196955 -0.00168223)
(0.00154623 -0.0183008 -0.00221061)
(0.000455149 -0.0170886 -0.00358168)
(-8.08304e-05 -0.0180545 -0.00336053)
(0.000779593 -0.0206724 -0.000450001)
(0.000968757 -0.0199355 -0.000608365)
(0.00160539 -0.0219204 5.26714e-05)
(0.00145546 -0.0208343 -0.000310094)
(0.000743905 -0.0205121 -0.0010395)
(-0.000820643 -0.0185958 -0.00246639)
(-3.27839e-05 -0.0211345 -0.00226125)
(-0.000196082 -0.0194823 -0.00130075)
(0.00174087 -0.0156869 -0.00526148)
(0.00256776 -0.0191204 -0.00423591)
(0.00178992 -0.0164571 -0.00475238)
(0.00185686 -0.0242295 0.00306081)
(-0.0036161 -0.0157938 -0.00360444)
(-0.00171369 -0.00832633 8.54092e-05)
(-0.00410368 -0.0156928 -0.00339983)
(-0.00364401 -0.0169778 -0.00338447)
(-0.00455759 -0.0123011 -0.00222316)
(-0.00377804 -0.0098634 -0.000643204)
(-0.00555497 -0.0151691 -0.00281585)
(-0.00484626 -0.0141344 -0.00273636)
(-0.00471046 -0.0153638 -0.00305629)
(-0.00536874 -0.0144198 -0.00183452)
(-0.00126738 -0.0184287 -0.00257018)
(-0.00102213 -0.018885 -0.0019482)
(-0.00208609 -0.00967815 0.00185101)
(-0.00233668 -0.00930283 0.00148016)
(-0.00242091 -0.00918195 0.00129908)
(-0.0027318 -0.0091401 0.00152281)
(-0.0010306 -0.0103981 0.0016632)
(-0.00236104 -0.00862716 0.00122785)
(-0.00208817 -0.00880138 0.000664312)
(-0.00192565 -0.00860051 0.000909591)