/*--------------------------------*- C++ -*----------------------------------*\
| =========                 |                                                 |
| \\      /  F ield         | OpenFOAM: The Open Source CFD Toolbox           |
|  \\    /   O peration     | Version:  v1612+                                |
|   \\  /    A nd           | Web:      www.OpenFOAM.com                      |
|    \\/     M anipulation  |                                                 |
\*---------------------------------------------------------------------------*/
FoamFile
{
    version     2.0;
    format      ascii;
    class       surfaceScalarField;
    location    "206";
    object      phi;
}
// * * * * * * * * * * * * * * * * * * * * * * * * * * * * * * * * * * * * * //

dimensions      [0 3 -1 0 0 0 0];

internalField   nonuniform List<scalar> 
41739
(
5.208e-09
-8.72189e-10
5.40908e-09
-6.43944e-09
6.43559e-09
6.10397e-11
-5.71933e-11
-5.10573e-09
5.62894e-09
-6.96265e-09
-3.51128e-09
3.24929e-09
-2.86225e-09
3.12424e-09
-1.06641e-09
-6.13874e-09
3.69387e-09
-1.01215e-08
3.94937e-09
-1.55383e-08
9.87447e-09
1.45617e-08
-8.89783e-09
8.77254e-11
-9.0721e-09
-6.55396e-09
-9.03853e-09
1.45969e-09
8.26117e-10
6.75272e-09
-3.65967e-09
-5.29113e-09
-3.90758e-09
5.63569e-09
4.70748e-09
1.90243e-09
-1.81069e-10
1.52189e-09
9.81227e-09
2.80635e-09
-3.21674e-09
5.51671e-09
-3.78182e-09
1.67549e-10
6.44331e-09
-3.02352e-09
-6.13443e-10
1.79675e-09
5.47268e-09
-6.97047e-10
7.85463e-09
6.61641e-09
5.38258e-09
2.21592e-10
-5.63176e-09
2.75901e-11
-7.62331e-09
-3.74565e-09
6.80633e-09
4.56263e-09
1.43707e-09
9.83853e-10
5.78733e-09
-8.20825e-09
1.6049e-09
-5.10868e-09
3.53998e-09
-3.62042e-11
-5.70974e-09
-9.37704e-10
-2.09206e-09
8.73949e-09
-8.52531e-10
4.94781e-09
-4.07122e-09
-2.40662e-11
7.11149e-09
-8.31188e-09
-2.40797e-10
1.44119e-09
2.07186e-10
-2.22501e-09
9.12931e-09
-1.68367e-09
7.71244e-09
-5.82159e-09
-4.43263e-09
4.18603e-09
-2.91001e-09
8.22796e-11
-5.61024e-09
-5.20817e-09
-9.70173e-09
8.46056e-09
-7.18297e-09
-3.45646e-09
-7.3468e-10
1.72316e-10
-7.06095e-09
6.41653e-09
-3.63917e-10
-6.78729e-09
-2.3913e-10
-6.13248e-10
-7.52631e-09
3.75571e-10
-6.34972e-09
-7.42065e-09
2.87643e-09
9.13811e-10
-6.6525e-09
-8.60304e-10
5.20001e-10
2.26413e-09
-3.27087e-09
1.92055e-09
8.895e-11
2.16608e-09
9.10316e-12
1.73612e-08
-2.44673e-09
-1.38341e-09
-1.35311e-08
3.91176e-09
2.14558e-09
1.13038e-08
1.38135e-08
-2.4613e-09
-1.37989e-08
1.07014e-08
2.92483e-09
1.87261e-10
-8.63959e-09
7.05729e-09
1.82406e-09
-2.41773e-10
5.85338e-11
-1.11594e-08
-1.04286e-08
2.35313e-09
1.19873e-08
3.64324e-09
9.20372e-09
1.31108e-08
-2.64523e-09
-1.1849e-08
-4.81238e-09
7.49459e-09
7.49231e-09
2.4898e-09
5.33132e-09
1.39953e-09
-6.67231e-09
1.1016e-09
6.05379e-09
7.65076e-09
-8.89644e-09
7.23915e-10
2.11446e-09
-1.68534e-09
1.04429e-08
-6.40442e-09
9.45021e-09
2.76548e-09
-6.43692e-09
8.83678e-10
2.78778e-09
-4.16511e-09
4.13141e-09
2.79918e-09
2.03105e-09
-3.03866e-09
-2.95615e-09
3.96376e-09
-4.08569e-10
2.49224e-09
-5.26234e-11
-5.27258e-09
1.25899e-09
-1.51517e-10
-7.58639e-09
2.72082e-09
3.77625e-09
1.08931e-09
-2.50943e-09
-3.5305e-09
-3.96981e-10
3.06884e-09
-3.38834e-09
-8.90646e-11
-1.34647e-08
1.0041e-08
-2.09423e-09
5.518e-09
1.01957e-08
-3.9482e-09
-1.97122e-08
-1.77515e-08
1.80455e-08
9.74694e-09
-1.3292e-08
5.73623e-09
-3.4655e-09
5.99161e-09
-1.08838e-08
8.35767e-09
-1.37732e-08
3.96574e-09
6.34202e-09
7.42774e-09
-2.4417e-08
1.30411e-08
1.2045e-08
9.90466e-09
-3.90412e-09
1.76234e-08
-1.48573e-08
4.66168e-09
-1.09031e-08
-5.73271e-09
2.86256e-09
-1.26398e-08
5.92271e-09
1.06828e-08
1.31972e-08
1.1127e-08
-6.70078e-09
6.70631e-10
1.62348e-09
5.63042e-09
-2.36151e-10
-1.06177e-08
3.60831e-09
-3.08725e-09
1.18957e-08
1.1719e-08
-2.05274e-08
7.78319e-09
-2.14881e-08
2.87343e-09
-1.05355e-08
1.36537e-08
-1.10442e-08
1.98404e-08
5.67661e-09
-4.16712e-09
6.52809e-09
1.40673e-08
-1.24663e-08
-2.43629e-09
8.35306e-10
1.2944e-08
-1.51663e-08
1.62896e-08
-1.89178e-10
-2.66294e-09
1.57962e-08
-1.34408e-08
-3.89267e-09
2.16711e-09
-1.25313e-08
-1.33758e-08
-1.80353e-09
1.19474e-08
-1.0333e-08
7.8842e-09
4.6009e-11
9.94319e-10
-8.92456e-09
7.3137e-09
1.31795e-09
-7.47455e-10
5.97966e-10
-9.27236e-09
6.01143e-09
-1.04385e-08
8.29974e-09
-1.75393e-09
-6.2324e-09
5.02683e-09
-2.43302e-09
-8.49954e-09
2.53322e-09
8.39934e-09
5.00575e-09
-1.25073e-10
-6.85811e-09
7.7111e-09
4.64965e-10
1.20015e-09
-8.01227e-09
-1.75448e-09
-1.11567e-09
-9.66116e-09
-1.09928e-08
-8.62091e-09
-4.52815e-09
3.55554e-09
-3.48739e-09
2.26074e-09
-3.0444e-10
-6.99448e-09
5.2614e-09
-1.89618e-10
1.92272e-09
1.61256e-09
-7.71318e-09
-8.93851e-10
3.7874e-11
-3.65796e-09
-3.1902e-10
3.93912e-09
-3.3812e-09
-3.15338e-10
3.73442e-09
5.07674e-09
-5.15377e-09
5.33844e-09
3.55459e-09
1.27432e-09
-5.0185e-09
5.52189e-10
-6.55532e-10
-2.82667e-09
-2.33168e-12
-1.35824e-10
4.89354e-09
-7.84865e-09
5.26077e-10
7.18677e-09
-5.30755e-09
-1.50932e-09
-1.03176e-09
6.37754e-09
-6.1668e-09
-7.69657e-09
-2.76475e-09
-2.4474e-10
-5.83927e-09
9.50529e-10
3.42709e-09
-3.89209e-09
-4.8552e-10
4.60506e-09
-3.89927e-09
-7.29583e-10
7.8811e-10
4.54655e-09
-1.29157e-10
-2.23687e-08
2.22695e-08
-2.62404e-08
-4.91195e-09
-8.57538e-09
-8.88139e-09
3.19826e-09
-1.64653e-08
-1.48209e-09
1.47492e-08
-1.98861e-08
1.87673e-08
4.31712e-09
-2.67255e-09
-7.43845e-09
2.28787e-08
1.31589e-08
-2.04e-08
-1.56376e-08
8.26817e-09
-3.11279e-09
1.77233e-08
4.98232e-09
-3.05912e-09
-1.83885e-08
-2.00802e-09
-1.28958e-08
1.93009e-08
-1.4786e-08
-9.4269e-09
-7.5114e-09
2.41397e-08
2.36557e-08
-3.96871e-09
2.44125e-08
-4.01293e-09
1.53418e-08
2.21821e-08
-1.33179e-08
-2.92642e-08
1.50564e-08
3.33302e-09
1.15574e-08
-1.79496e-08
-1.19929e-08
-7.19725e-09
5.94714e-09
1.25347e-08
4.47707e-09
-2.29589e-08
1.90523e-08
8.91863e-09
-2.20238e-08
2.78554e-10
9.64485e-09
-1.75717e-08
7.64833e-09
-1.86182e-08
7.99715e-09
1.08996e-08
-6.80182e-10
1.59122e-08
3.82022e-09
1.61976e-09
1.02347e-08
-3.4234e-09
1.47288e-08
-2.38681e-09
9.511e-09
-8.45734e-09
-9.00702e-09
-6.71432e-09
-2.89686e-09
-1.21007e-08
-6.89647e-09
7.80053e-09
1.11967e-08
-8.59935e-09
9.79118e-09
6.80531e-09
7.6395e-10
1.27337e-09
1.38749e-08
-1.30597e-08
1.72296e-09
1.18078e-08
-1.31359e-08
-2.35997e-09
4.81515e-09
-3.14605e-09
3.48711e-09
-3.38792e-09
6.8355e-09
5.20796e-09
-8.65553e-09
5.68134e-09
-9.24031e-09
1.71054e-10
1.02666e-08
9.42372e-09
-1.96893e-08
-9.49033e-13
5.24221e-09
1.43438e-09
-9.95254e-10
2.57261e-09
9.5051e-09
4.98539e-09
5.53171e-09
-1.08597e-08
3.42622e-10
-4.1877e-09
-7.35149e-10
-4.31746e-09
-4.28105e-09
-1.8685e-09
1.11349e-08
-6.64015e-09
1.46795e-08
-5.46671e-09
5.3259e-09
-3.98189e-09
9.36233e-09
-5.7359e-09
-8.8874e-10
-2.5579e-09
8.77255e-09
-4.04983e-09
-6.22512e-09
9.38623e-09
8.48771e-09
7.22702e-09
1.64106e-09
-1.73558e-08
1.26372e-08
-2.09593e-08
1.68098e-08
-9.76248e-09
2.68537e-08
-4.454e-09
-8.54816e-09
6.01268e-09
7.75633e-11
-3.16966e-09
-1.78672e-08
9.73972e-09
-1.1358e-10
1.03308e-08
-1.99569e-08
9.45374e-09
5.69507e-09
-5.40909e-09
-1.07705e-08
6.54541e-09
-4.43023e-09
8.6553e-09
-2.23206e-08
1.14365e-08
5.01563e-09
1.14264e-08
-6.11126e-09
9.53582e-10
1.35158e-08
-1.84506e-09
1.3349e-08
1.0633e-08
1.60748e-09
2.76205e-10
1.80862e-09
3.18199e-09
1.8464e-08
-5.35635e-09
-2.79339e-09
1.7113e-08
-1.11376e-08
1.62013e-08
-1.25154e-08
-6.47931e-09
-1.0577e-08
1.23028e-08
1.53872e-08
5.64417e-09
2.24277e-09
6.6418e-09
1.56988e-08
-9.70376e-09
-1.26369e-08
1.17761e-08
5.09819e-10
1.07141e-08
3.23858e-09
1.74606e-09
8.96643e-09
1.35239e-08
-1.54312e-08
1.50087e-08
3.6611e-09
7.95553e-09
-8.70766e-09
-1.46791e-08
1.63675e-09
1.2004e-08
2.56055e-09
9.60597e-09
4.33356e-09
-1.67871e-08
3.30481e-09
2.8491e-08
3.1724e-09
2.18772e-08
-7.61464e-09
-6.80584e-10
7.2512e-09
1.04402e-09
-8.23245e-09
1.5128e-09
8.79542e-09
-2.07576e-09
-8.56566e-09
1.62164e-09
1.2138e-08
1.13031e-09
-9.12991e-09
-4.13837e-09
6.15344e-10
-7.03755e-09
-2.14345e-09
-6.25342e-09
-1.36369e-09
1.96995e-09
-1.12303e-08
-2.75506e-09
8.90675e-09
-1.24051e-08
-1.64934e-08
9.40986e-09
-9.8987e-09
9.3956e-09
4.97777e-09
4.19595e-09
-2.80523e-09
8.01116e-09
-4.9893e-09
-2.16641e-10
6.7908e-09
-3.4738e-09
-6.12223e-09
-3.86564e-09
5.25764e-09
5.3988e-09
3.16736e-09
9.78165e-10
4.29182e-10
4.79842e-09
3.00461e-11
7.43703e-09
-7.89822e-09
8.90375e-10
1.38997e-09
-9.56886e-09
3.18959e-09
-2.76999e-09
-1.69847e-09
9.26688e-09
-4.15802e-09
8.82507e-09
-8.08608e-09
-6.12869e-09
1.25163e-08
-6.04689e-09
1.12817e-09
3.12912e-12
-2.86374e-09
-5.03762e-09
1.37125e-08
-9.35542e-09
-1.0404e-08
-1.10145e-09
8.68529e-09
-7.25607e-09
1.15501e-08
-4.29095e-09
-1.52215e-08
6.29068e-09
-5.42423e-09
2.92414e-09
4.6662e-09
-2.16611e-09
5.53848e-10
-4.00046e-10
-5.57805e-09
6.68226e-09
3.62716e-11
-6.16469e-09
3.19293e-09
1.79119e-09
1.69813e-09
4.71009e-09
1.40698e-09
3.23206e-09
1.09983e-10
-3.74209e-09
-5.99693e-10
1.69534e-09
3.61445e-09
-3.86562e-09
1.39e-09
1.87593e-09
-2.64039e-09
3.44096e-09
4.73735e-10
1.17932e-10
2.21394e-10
-2.23801e-09
3.71196e-09
-1.73982e-09
3.35121e-09
6.52225e-09
-6.00956e-10
-5.88502e-09
4.40184e-09
3.9116e-09
2.3019e-09
-2.62578e-10
-4.11007e-09
2.07075e-09
-2.72283e-09
3.2849e-09
1.90124e-09
3.6026e-09
-4.09358e-09
2.35684e-09
-2.8643e-09
1.07747e-10
-5.55984e-09
-1.8198e-09
-2.03964e-09
9.41927e-09
-6.23646e-09
1.04058e-10
5.72551e-10
-1.78143e-09
3.33823e-09
2.52032e-09
-4.07712e-09
3.00502e-09
1.41396e-09
-6.20041e-09
-9.83216e-10
-6.39035e-09
1.1371e-09
-3.70085e-09
2.94688e-09
-2.29251e-10
-5.27145e-10
1.64517e-10
7.18068e-09
-8.1479e-09
1.07127e-09
9.04831e-09
-3.68743e-09
-2.39324e-09
3.30047e-09
3.44821e-10
-4.21486e-09
3.29205e-09
3.89811e-09
-4.18514e-09
2.69424e-09
7.06611e-11
-2.88862e-09
-4.91446e-09
-5.96765e-09
4.49299e-09
-5.58262e-09
3.35604e-09
-1.66662e-10
-6.12391e-09
3.23553e-09
-3.34137e-09
1.11557e-09
6.84767e-10
-3.89129e-09
-5.19957e-09
8.40609e-09
-7.93093e-09
-6.24373e-09
1.48594e-08
-7.48683e-10
-1.51093e-08
7.92706e-09
1.71922e-09
-6.34234e-09
7.31835e-10
-1.02234e-08
5.69885e-09
3.08282e-09
-6.78054e-09
2.94905e-09
-6.84965e-09
4.7329e-09
1.42928e-08
-1.44193e-08
-6.65406e-09
-1.11493e-08
1.03329e-08
-2.89206e-09
5.1523e-09
-1.07359e-09
-1.18664e-09
9.81398e-09
-5.82643e-09
-6.87961e-09
8.62394e-09
2.93355e-09
1.47711e-08
-3.91408e-09
-1.37906e-08
-2.26065e-09
-9.22509e-09
4.13666e-09
-5.14872e-10
1.07015e-09
1.91558e-09
5.87884e-09
-8.86457e-09
8.95167e-09
-1.17956e-08
-6.26863e-09
-1.65461e-09
-6.61369e-09
-8.95278e-09
2.86608e-09
1.31196e-10
-1.32307e-10
1.83608e-10
4.59647e-09
3.14903e-09
-2.92421e-09
-4.8213e-09
5.25056e-09
-1.75659e-11
-6.36526e-10
-2.35573e-09
4.04958e-09
3.5567e-09
8.77393e-10
-8.40915e-11
-6.21016e-09
7.11551e-09
-9.22922e-10
-1.92479e-09
3.20873e-09
-7.4941e-09
-6.40718e-09
1.55817e-09
-3.30287e-09
1.10148e-10
7.24229e-09
-1.20117e-09
5.01379e-09
7.39559e-09
-4.24393e-09
5.70555e-11
-3.06283e-09
-2.51485e-09
5.68783e-09
-2.21879e-09
3.33488e-11
-8.24384e-10
5.16863e-09
1.05782e-09
-5.40208e-09
-2.95152e-09
-9.16625e-11
2.58382e-09
3.61059e-09
5.2376e-09
4.6041e-09
2.88968e-09
-6.72712e-10
-6.82107e-09
7.02117e-09
-1.65606e-10
-2.25146e-09
4.8838e-09
3.1572e-09
-5.15131e-09
9.31724e-09
2.58772e-09
-4.06907e-09
5.90371e-09
-2.00024e-09
1.51358e-09
-6.25536e-09
4.85724e-10
-7.82434e-10
-4.2956e-09
4.84469e-09
-6.33635e-11
3.04854e-09
3.01044e-10
-6.7936e-09
4.92768e-09
9.94054e-09
-3.03296e-10
-6.48005e-09
2.08561e-09
-4.86763e-09
6.64813e-10
1.02761e-10
-5.01891e-09
-4.53091e-09
5.33497e-09
-4.52706e-09
1.72955e-10
6.49712e-09
-6.40553e-09
-4.61865e-09
-1.417e-10
2.10791e-09
3.00525e-09
-4.62322e-09
6.55955e-09
1.82984e-09
6.94168e-09
-1.53311e-08
8.84173e-09
7.08488e-09
-9.36706e-09
7.56945e-09
7.88437e-09
-1.3624e-08
7.43768e-09
3.8923e-09
-3.76054e-09
8.35033e-12
9.51215e-09
-6.78787e-10
7.39633e-09
-4.463e-10
-9.01618e-09
1.36973e-08
2.75662e-09
7.49888e-09
-8.63069e-09
1.1457e-08
-4.79873e-10
7.14746e-09
-7.34343e-10
3.09902e-09
-1.22928e-09
1.19267e-08
2.99985e-09
6.02632e-09
2.43279e-10
-5.57104e-09
4.73152e-09
7.98698e-09
2.35823e-09
-5.32936e-10
8.2597e-09
2.46298e-09
-7.43793e-09
2.28533e-09
1.70793e-08
9.46611e-10
1.52766e-08
-2.6913e-09
3.32113e-09
-1.81793e-09
1.18808e-09
-3.16551e-09
3.37032e-09
4.13999e-09
-4.3448e-09
2.61266e-09
-8.46947e-09
5.89924e-09
5.35651e-09
-3.43612e-09
-7.81964e-09
1.05072e-08
-7.17376e-09
2.56583e-09
3.02803e-09
3.51232e-09
-3.21922e-09
3.60152e-09
-4.88342e-10
-8.51382e-11
2.89067e-10
9.96528e-09
-1.692e-09
-8.56235e-09
1.09753e-09
1.73662e-10
2.24114e-09
1.25437e-09
3.44468e-09
-2.23434e-09
2.69341e-09
1.00481e-08
3.29583e-09
3.07265e-09
-1.90674e-10
5.10444e-09
-6.75381e-10
-4.17073e-09
6.02869e-09
-6.03586e-10
4.00637e-09
-2.61392e-09
1.55529e-08
3.3173e-09
-1.62563e-08
9.62919e-10
-1.43138e-08
1.0737e-08
5.74675e-09
1.09351e-09
-1.979e-09
-4.86127e-09
4.82553e-09
1.08616e-09
-1.64938e-10
3.58761e-09
4.08081e-09
7.88446e-09
1.14148e-08
-5.13152e-10
-2.91617e-09
-7.98552e-09
1.12535e-09
-5.97538e-10
1.0887e-08
-6.11462e-09
6.81196e-09
4.12819e-09
-7.19084e-10
-4.30203e-09
9.91017e-09
-7.31195e-09
6.15646e-09
-7.17254e-09
1.81548e-10
1.13417e-08
-1.03979e-08
7.70901e-09
5.78876e-09
6.98633e-09
-5.57064e-09
-1.92886e-09
-4.85259e-11
6.43731e-09
4.5697e-09
-3.98388e-09
5.69252e-09
-3.66642e-11
-6.13158e-10
8.50372e-09
3.89413e-10
5.25457e-09
6.58821e-09
-7.33101e-09
1.00842e-09
4.7705e-09
1.55209e-09
-1.01113e-08
1.17921e-09
8.8867e-09
4.53572e-11
-9.39748e-09
-8.04479e-09
3.06825e-09
-5.22341e-09
-7.00306e-09
9.15821e-09
1.20069e-08
2.1657e-09
2.26684e-09
-1.64394e-08
7.04965e-09
2.79769e-09
2.15952e-09
-4.49862e-09
1.00174e-08
1.53089e-09
9.98285e-09
-1.01304e-08
-4.35109e-09
-5.28393e-09
-2.52386e-09
1.0876e-08
2.11121e-09
-6.38671e-09
2.71288e-09
-9.73347e-09
9.18629e-09
-3.25445e-11
-6.65206e-09
-1.07515e-08
1.96256e-09
4.92611e-09
3.86278e-09
-3.08364e-09
-7.70035e-09
7.04159e-09
4.90382e-09
1.45351e-08
-1.09472e-08
1.60015e-08
8.66239e-09
-1.20677e-08
-1.25961e-08
6.5603e-10
1.4425e-08
9.20484e-10
-1.65652e-08
1.58665e-08
1.35473e-09
-2.1863e-09
-8.61337e-10
-1.35176e-08
-8.28824e-09
1.41775e-08
8.53575e-09
1.83449e-09
-1.46034e-09
-5.2797e-09
1.33543e-08
7.7919e-09
-1.4329e-08
7.4797e-09
1.56956e-09
-2.7989e-09
-1.37164e-08
7.85899e-09
-1.28302e-09
-9.37487e-09
6.88881e-09
1.38755e-09
-4.17364e-10
-1.86784e-09
-1.10612e-08
2.65731e-09
-4.19406e-09
1.57142e-08
-3.7458e-09
1.97574e-08
1.0011e-08
4.35749e-09
5.45584e-09
2.52964e-10
-6.99182e-09
6.62604e-09
2.17346e-10
6.08215e-09
-7.69702e-09
4.85397e-09
1.60202e-09
-3.73831e-10
7.07323e-09
-3.84768e-10
-6.7012e-10
3.54928e-09
-3.51931e-09
9.78453e-09
7.61515e-09
6.1291e-10
3.42572e-09
1.28825e-09
-1.33008e-09
-4.02445e-09
4.06627e-09
-2.53788e-09
2.72133e-10
3.554e-09
2.16434e-10
4.86366e-09
2.02458e-09
7.29028e-09
-1.13931e-09
1.3388e-09
-4.22394e-09
-3.58711e-09
-9.00819e-11
-4.53217e-09
6.82889e-09
2.82706e-09
1.66546e-09
-9.2151e-10
3.10721e-09
8.82845e-10
1.2475e-11
5.27215e-09
1.22791e-10
-2.02312e-09
7.28626e-09
3.86538e-09
6.89287e-10
4.98063e-09
2.43082e-09
6.87051e-10
4.16839e-09
8.25927e-10
6.01115e-09
-4.40625e-09
1.95041e-09
3.6003e-09
4.66816e-09
1.34852e-09
4.79381e-09
4.96788e-09
-5.09352e-09
-2.09345e-09
3.15778e-09
2.74467e-10
4.09699e-10
4.24131e-09
-1.03508e-09
2.1247e-09
2.31635e-11
-1.24323e-08
-5.8255e-09
6.10643e-09
1.21513e-08
-5.7473e-09
-1.93265e-09
-4.7523e-09
-5.92842e-09
1.73975e-10
-7.10503e-11
-3.59638e-09
-8.07934e-09
-2.69467e-09
-4.62347e-09
2.03378e-09
5.28437e-09
-3.47271e-10
-7.07082e-09
4.72342e-09
-3.53692e-09
4.90011e-10
9.15335e-09
-1.03497e-08
6.46553e-09
3.19609e-09
4.08366e-09
-3.4642e-09
-3.81553e-09
3.39165e-09
-2.15771e-11
-6.43052e-09
-5.85185e-09
6.97338e-10
3.58007e-09
-7.87377e-09
3.43176e-09
-6.33841e-09
-4.16416e-09
-1.17847e-09
-1.32321e-11
-3.45257e-09
5.97636e-09
-2.92333e-09
2.86241e-09
-1.81406e-11
3.6692e-09
-6.43607e-09
1.67551e-09
-4.52596e-09
-9.93695e-10
1.6879e-09
2.3261e-09
-2.76092e-09
-1.25315e-09
2.82727e-09
-2.06062e-09
9.21256e-10
-2.99956e-09
5.52092e-09
-2.86695e-09
-5.41489e-09
1.34166e-09
2.11864e-09
3.50819e-09
-4.97474e-09
2.8082e-09
-4.99772e-09
8.10893e-09
-4.03454e-09
1.86544e-09
-2.80562e-09
-7.20593e-09
-9.45656e-09
1.04703e-08
-4.03558e-09
-1.37742e-08
1.01186e-08
1.51895e-08
-1.15339e-08
-7.37844e-10
-4.53852e-09
-8.49784e-09
-1.00926e-08
-4.32331e-09
1.91987e-09
1.24961e-08
-1.94582e-10
-9.7739e-09
-1.24165e-10
-4.29312e-09
-2.24784e-10
3.8158e-09
6.99096e-09
-9.27343e-09
-1.53333e-09
7.26793e-09
-1.22397e-09
-2.22816e-09
7.60574e-09
-1.42587e-10
3.54192e-10
-7.81733e-09
-3.52079e-09
-4.26013e-09
1.62986e-08
-6.49391e-09
1.21555e-09
1.70563e-09
3.57275e-09
1.15817e-08
-1.08077e-08
8.50416e-09
5.05124e-09
1.84059e-09
-3.38641e-10
3.74483e-09
-5.24677e-09
5.36397e-09
1.35168e-09
-4.87506e-09
4.01259e-09
6.58957e-09
-4.19546e-09
-6.4067e-09
4.09967e-09
1.1527e-11
-9.86083e-11
-7.22691e-09
3.93813e-09
7.38845e-09
-1.23825e-09
6.00909e-10
1.94396e-09
-6.47807e-09
-1.3054e-09
4.87724e-09
1.79214e-09
2.44686e-09
-7.43199e-12
-7.38045e-09
4.30979e-09
-4.32393e-09
7.39459e-09
-8.07672e-09
-5.41978e-10
7.40736e-10
-6.87349e-09
7.3165e-09
-5.22409e-09
2.52367e-09
-6.52833e-11
-2.10906e-09
1.0357e-08
6.46288e-10
2.34628e-09
-3.33398e-09
3.74859e-09
2.18954e-09
-5.68268e-09
8.41289e-09
1.35349e-09
-4.0837e-09
5.14154e-09
4.28671e-12
-1.08285e-08
5.29416e-09
-4.8431e-09
-3.62944e-09
3.17838e-09
-3.09754e-09
-2.98895e-09
1.13806e-08
1.23853e-08
2.98271e-09
-6.95517e-09
-5.91719e-09
1.01684e-08
-2.89773e-09
4.99365e-09
-5.7693e-09
-4.9504e-09
5.42498e-09
9.69383e-09
9.57219e-10
6.47773e-09
-6.38455e-09
6.32261e-09
5.26118e-09
-5.19925e-09
5.6811e-09
-1.20614e-08
3.78658e-09
-7.65152e-09
6.11401e-09
-5.1902e-09
-5.65759e-09
7.85883e-09
-8.07382e-09
-7.45825e-10
1.26503e-08
-3.34493e-09
7.94988e-09
5.38053e-09
4.80823e-09
-4.50766e-09
9.83752e-09
8.04194e-10
1.84034e-09
2.87451e-09
9.33765e-11
3.60404e-09
4.5597e-10
3.41493e-09
-3.31949e-09
-5.51389e-10
3.55341e-09
-3.13098e-09
3.35578e-11
-2.65288e-09
3.41875e-09
2.64909e-09
9.62603e-10
-6.20506e-11
-2.67715e-09
-9.71566e-10
7.06747e-09
-2.34334e-10
-3.35627e-09
9.1352e-10
-2.32576e-09
4.74278e-10
-1.46803e-09
5.3615e-09
-9.68803e-10
4.26922e-09
-8.66192e-09
2.83579e-11
5.13097e-09
2.02184e-10
-3.6209e-09
3.42085e-09
2.28401e-10
1.72359e-09
-6.31331e-09
3.48358e-09
-4.08575e-09
4.61176e-10
-1.08577e-10
-3.68442e-09
-4.50105e-09
7.21391e-09
-4.7207e-09
8.01952e-10
-3.49063e-09
1.09696e-09
-2.68584e-09
-1.34094e-09
-5.11894e-09
5.52921e-09
-3.53555e-09
3.91391e-10
-1.05876e-08
6.97555e-09
1.41922e-09
2.1929e-09
-1.35347e-09
3.44077e-09
-1.26749e-08
-5.46178e-09
1.23709e-08
6.64303e-11
-9.1643e-09
1.07129e-08
-7.01039e-09
1.87837e-09
-1.23961e-08
8.81504e-09
-6.99316e-09
1.6189e-09
6.96603e-09
3.26821e-09
-2.48181e-09
-2.82854e-09
3.94209e-09
1.36826e-09
2.4094e-09
4.54364e-09
-9.43484e-09
1.03504e-08
1.23052e-09
-8.67925e-10
1.45638e-08
8.15748e-09
8.10569e-09
-8.73553e-09
2.50822e-09
-7.86034e-09
9.5069e-09
-4.16041e-10
-2.58319e-09
3.7603e-09
5.38387e-09
-6.73476e-09
9.01856e-09
4.43042e-09
7.60969e-09
3.11663e-09
-1.73708e-09
7.51298e-09
1.02128e-08
4.43677e-09
7.28727e-09
-5.80894e-09
1.90493e-09
-1.24816e-08
1.63856e-08
-1.35784e-08
1.22062e-08
-4.37297e-09
-1.38589e-08
2.01368e-08
2.0797e-08
-2.71764e-09
-2.46432e-09
1.03281e-08
-4.22232e-09
-1.01402e-09
-1.1394e-09
-2.39769e-09
-9.67597e-09
3.89079e-09
1.48829e-08
-9.09767e-09
9.68864e-09
-1.04061e-08
-8.95853e-09
-4.15971e-09
-4.97669e-09
1.30271e-08
-1.31149e-08
-4.70748e-09
1.36627e-08
-7.88777e-09
-1.96511e-08
1.37539e-08
1.3785e-08
-1.21168e-08
2.72485e-09
-3.72305e-09
-5.09941e-09
-8.22002e-09
8.34272e-09
-1.93073e-08
9.50043e-09
-1.77059e-08
-1.01871e-08
8.58557e-09
-1.36134e-08
-1.62092e-08
-1.20293e-08
6.61979e-09
-4.77761e-09
-4.24982e-10
-2.52177e-08
-7.12793e-09
1.42954e-08
-5.47664e-10
-1.54407e-08
-5.09033e-10
6.58439e-09
7.17485e-09
1.55164e-09
1.20705e-08
2.01785e-08
7.13314e-09
1.51539e-09
1.44631e-08
1.89336e-09
-1.77881e-08
1.16281e-08
7.71156e-09
1.30937e-08
2.76051e-09
1.42797e-08
-3.90693e-09
1.29755e-08
1.57672e-08
1.2689e-09
-3.70823e-09
-2.16268e-09
1.65253e-08
-1.24769e-08
-9.59754e-09
5.96915e-09
1.61053e-08
-1.97317e-10
-3.93686e-09
-1.51851e-08
2.09639e-10
5.37794e-09
-1.02796e-08
-5.10287e-09
8.41489e-09
-8.97808e-09
-9.71638e-09
1.21232e-08
-2.53747e-09
-1.17086e-09
1.11515e-08
1.67585e-08
-6.30263e-09
2.34233e-08
8.11654e-09
4.21633e-09
7.4891e-09
-1.69762e-08
-3.36502e-09
8.31665e-09
1.52057e-08
-1.33918e-08
-1.35633e-09
1.86743e-08
-1.50435e-09
1.12349e-09
-1.93752e-08
2.65947e-09
1.55922e-08
-1.8696e-08
2.70846e-09
1.7111e-08
4.26954e-10
-1.79862e-09
-1.56007e-10
1.62166e-08
1.23792e-08
3.86036e-09
7.40369e-09
-3.10863e-09
-7.64105e-09
3.34599e-09
-6.53638e-09
-2.19777e-10
-1.11895e-08
9.55216e-09
-1.06958e-08
1.23331e-08
-1.49876e-08
6.89501e-10
-6.93379e-09
-6.44243e-09
-9.52351e-09
2.25733e-09
3.32387e-10
-4.98348e-09
-1.13035e-09
-3.40968e-09
-7.1349e-09
1.75118e-09
-8.45404e-09
-3.53625e-09
-1.04945e-08
-9.5688e-10
3.33579e-09
-1.10026e-09
-8.67796e-09
5.99847e-09
4.26194e-09
-1.63161e-08
6.05566e-09
7.5573e-09
-6.54232e-09
-3.11385e-09
1.20118e-08
-1.82444e-08
6.34221e-09
-5.02612e-09
1.22397e-09
-3.22477e-09
-3.30929e-09
1.10871e-08
-4.55309e-09
-2.8472e-09
1.18112e-08
-1.21888e-08
-1.65502e-08
-4.38541e-09
1.5975e-08
4.96062e-09
-2.61382e-09
8.43758e-09
-9.13307e-09
9.23691e-09
-1.46979e-08
1.7386e-08
-1.00965e-08
-5.10664e-09
-2.18294e-09
-4.24967e-09
1.70433e-08
4.59234e-09
-1.55596e-08
1.29925e-08
7.28162e-12
-1.18861e-09
1.05532e-08
-1.94611e-09
-3.94713e-09
1.19509e-08
2.54942e-09
1.04372e-08
9.96177e-09
-1.1162e-08
1.13518e-08
-9.07354e-10
7.63707e-09
-4.30615e-09
-1.29679e-09
4.68419e-09
2.50841e-09
6.15656e-09
9.91307e-09
-1.13839e-08
1.01728e-08
8.5014e-09
2.43677e-09
-3.59503e-09
-8.94001e-09
1.46422e-08
-3.26537e-09
8.5119e-09
-9.95433e-09
8.58163e-09
-1.20913e-09
-6.06494e-09
3.99416e-09
1.06524e-08
1.4452e-09
7.13203e-09
-6.98178e-09
3.88103e-09
7.26915e-09
-8.81943e-09
6.28525e-10
3.06186e-09
-2.00999e-09
9.88518e-09
4.81546e-09
6.8025e-09
6.40578e-09
1.39581e-08
-5.24823e-09
-4.88391e-09
-3.826e-09
8.24216e-09
-1.29441e-09
-4.61846e-09
1.07985e-08
-8.03716e-09
1.85708e-09
-1.15548e-08
8.73585e-09
-1.79955e-09
-1.35688e-08
6.64615e-09
-1.99633e-09
8.91897e-09
-8.0185e-09
2.73883e-09
1.21495e-08
1.67478e-08
-1.21782e-08
-9.45353e-09
8.31418e-09
7.13921e-09
1.14877e-09
3.3281e-09
-1.2514e-08
6.55196e-09
-1.69579e-08
1.44439e-08
-1.49331e-08
5.79349e-09
-6.83032e-10
1.17361e-08
4.95879e-09
-1.33399e-08
-1.15875e-08
7.14104e-09
-7.73172e-09
-1.52755e-08
7.01612e-09
-1.64841e-08
2.15945e-08
1.989e-08
-1.36444e-08
-1.28679e-09
2.05482e-08
-1.71422e-08
-6.1586e-09
-2.57824e-09
4.93657e-09
3.80028e-09
-6.59327e-10
-1.38655e-09
-4.11272e-09
-7.02752e-09
2.35453e-09
2.09475e-09
-2.37446e-09
-5.31238e-09
2.6727e-09
-4.1917e-09
6.45557e-09
8.01422e-09
-1.84403e-09
-8.54465e-09
-5.76988e-09
3.66254e-09
4.46188e-09
-9.76143e-10
3.22049e-09
-2.86068e-09
9.19593e-09
8.73582e-09
-2.0255e-09
-9.31138e-09
2.60107e-09
-9.07355e-09
1.49487e-08
-7.68141e-09
1.46421e-09
-2.33281e-09
-6.73515e-09
-1.45824e-08
4.53273e-09
-7.76264e-09
-1.61311e-08
-1.19395e-08
-1.05806e-08
-9.47823e-09
5.01021e-09
9.77725e-09
-1.4804e-08
-5.55384e-09
-4.56172e-09
-5.00699e-09
-1.3799e-08
-5.19113e-09
-1.28654e-08
2.4701e-09
-1.28883e-08
2.39428e-09
1.01585e-09
-1.2879e-08
-1.48133e-08
1.79933e-08
-2.10493e-08
-9.80939e-09
1.30198e-09
-1.30885e-08
-1.71312e-08
-8.24596e-09
-1.02554e-08
-1.74733e-08
-3.8611e-09
-1.40447e-08
9.62977e-09
3.14656e-09
1.26837e-09
-9.84639e-09
-6.66903e-09
2.47072e-09
-9.56904e-09
-7.52472e-09
1.11574e-08
5.9364e-09
6.17176e-09
-1.12924e-08
-4.44845e-09
-1.37483e-09
2.18712e-11
5.27929e-09
-2.47058e-09
-4.00668e-09
-3.43735e-09
-3.84832e-09
-2.46102e-09
-5.90623e-09
4.36057e-09
4.63272e-09
4.75842e-09
-3.18419e-09
-6.20694e-09
-1.29945e-09
1.50069e-09
4.43147e-09
2.71951e-09
7.1384e-09
1.21121e-08
-1.56598e-10
-1.15781e-09
-1.07977e-08
1.17667e-08
1.9067e-08
-1.87217e-08
5.60782e-09
-9.69919e-09
1.63035e-09
9.10332e-09
-6.93286e-09
-2.8769e-09
-2.16783e-09
6.54542e-09
-9.73331e-09
9.57592e-09
1.48782e-08
-7.86584e-10
6.3706e-09
-3.60106e-09
-6.14149e-09
3.37195e-09
-2.86827e-09
-1.19858e-11
9.25086e-09
1.03062e-09
8.56574e-09
-7.48514e-09
8.34544e-09
-6.9407e-09
-3.74114e-10
-4.44544e-09
-3.34514e-09
4.92229e-09
5.19247e-10
4.20552e-09
-2.00156e-09
-8.11563e-09
-3.69654e-09
1.18002e-08
-4.30652e-09
3.96407e-10
-7.48549e-10
4.81095e-09
-1.15475e-08
4.08115e-09
-1.17704e-08
1.35689e-08
3.6843e-09
-1.24422e-08
4.5739e-10
9.76635e-09
-1.63623e-08
4.35185e-09
1.24678e-08
-3.1057e-09
-9.57226e-09
1.1639e-08
-1.11077e-08
-4.83786e-09
1.22943e-08
-1.01322e-08
-1.89603e-08
2.49789e-09
1.65026e-08
-4.02298e-11
1.67737e-09
-1.86414e-08
-1.99628e-09
1.99509e-08
-1.88297e-08
5.56171e-10
1.31383e-09
1.64427e-09
1.40991e-08
-1.55938e-08
-1.49632e-10
1.39465e-08
-1.34336e-08
1.13136e-09
-3.7844e-10
1.42993e-08
1.78266e-10
-6.49203e-11
4.80885e-09
-6.64855e-09
-1.21291e-08
-3.41428e-09
-1.31717e-08
-7.71664e-10
-6.88388e-09
7.92558e-10
6.86299e-09
-9.81754e-09
9.79322e-09
7.47761e-09
-7.45328e-09
-1.05972e-08
7.96355e-12
-8.94279e-09
-9.81108e-09
1.81182e-08
6.35641e-10
3.05234e-09
-9.20322e-09
-2.79192e-09
-9.89462e-09
3.1359e-09
8.30786e-10
-9.13545e-09
1.42078e-09
-3.12627e-09
-9.28961e-09
1.81871e-09
2.08754e-08
-2.01842e-08
3.68384e-09
-4.37513e-09
1.46669e-08
-3.68612e-09
3.4455e-09
-1.18179e-08
-1.20114e-08
-2.50356e-10
3.98404e-09
-6.36635e-09
-5.90931e-09
8.29163e-09
-3.89584e-09
-3.37663e-09
9.84463e-09
-2.57216e-09
7.43262e-09
-2.76501e-09
-6.83569e-10
1.12588e-08
-7.72207e-09
-9.87336e-09
-3.14841e-09
4.59916e-09
8.42261e-09
-7.16469e-09
2.10368e-09
-4.81234e-09
-5.62097e-09
-4.92035e-09
-4.13601e-11
6.73758e-09
3.54297e-09
7.67451e-09
-7.46302e-09
2.966e-09
9.09618e-09
-2.89566e-09
-2.46368e-09
-7.27813e-10
-5.67325e-09
-3.97727e-09
7.77332e-09
-4.52387e-09
-1.25625e-08
-5.70899e-09
1.53759e-08
-7.92312e-09
-4.6286e-10
1.22025e-08
-1.54782e-08
-9.28678e-09
-5.56317e-09
1.37202e-09
1.63936e-08
1.26675e-08
-8.52976e-09
-4.82129e-09
-8.81896e-09
8.38467e-09
-1.71465e-09
5.40744e-10
9.78329e-10
1.09487e-08
2.13847e-09
1.43466e-08
-1.59443e-08
-1.60361e-10
1.21971e-08
-9.89825e-09
-1.55413e-09
9.16041e-09
-7.76665e-09
1.17185e-08
-3.76283e-09
1.17777e-08
2.93388e-09
1.11208e-08
-5.37071e-10
9.69272e-09
7.76507e-09
-5.26071e-09
6.99697e-09
4.76843e-09
-2.60499e-09
9.33517e-09
1.14784e-08
2.20796e-09
1.30733e-08
-3.56276e-09
1.00058e-08
-8.00866e-10
1.09035e-08
1.62995e-09
-1.13088e-09
7.5408e-09
5.36777e-09
4.90491e-09
7.03756e-09
5.06176e-09
9.84895e-09
1.63294e-08
-3.64105e-10
5.21264e-10
-1.5676e-09
8.0669e-09
-7.02056e-09
-6.24275e-09
-1.48877e-09
8.25278e-09
-6.32549e-09
-5.4946e-09
5.57734e-09
-6.50464e-09
1.23877e-10
5.52811e-11
4.59145e-09
-4.82151e-09
-6.27458e-09
-8.50261e-10
-5.28995e-11
4.425e-09
9.7825e-10
-3.89672e-09
-1.50653e-09
5.52474e-09
-1.29857e-09
1.9883e-10
-4.84141e-09
-1.66225e-09
5.01488e-09
-1.66926e-10
1.82341e-10
-8.39338e-09
6.64344e-09
-7.90191e-09
6.42199e-09
-5.70047e-09
5.4316e-09
-1.0297e-09
-5.89199e-10
-4.13303e-09
5.71002e-09
1.85202e-09
-7.84476e-09
2.82712e-10
8.05247e-09
-1.96973e-09
-3.72726e-10
1.16215e-09
-6.84971e-09
-2.70581e-09
-1.30816e-09
8.00325e-09
-6.74042e-09
9.46197e-09
-1.25473e-08
1.11378e-08
-2.59215e-09
2.07411e-10
1.18467e-08
-1.43861e-09
-1.44542e-08
1.94617e-09
-2.98355e-08
1.29987e-08
9.13044e-09
-3.62686e-09
-1.46115e-08
-1.15971e-08
-7.10084e-09
8.91113e-09
-1.03857e-08
3.43979e-09
-2.11649e-08
1.06242e-08
-1.05764e-08
-1.13667e-08
1.83162e-08
4.95111e-09
-1.47085e-08
-1.481e-09
-8.02203e-09
8.43565e-09
-1.55723e-08
-1.16867e-08
2.3733e-09
-4.08333e-09
-1.08021e-10
1.81805e-09
-4.06313e-09
2.20827e-09
4.22817e-09
2.24143e-09
-4.11885e-09
-2.20591e-09
-1.882e-09
6.03031e-11
-1.23767e-09
3.55251e-09
1.06671e-09
-3.38155e-09
-3.08879e-09
-3.08772e-11
5.79936e-09
-4.61832e-09
-6.64738e-10
-5.16302e-10
7.44425e-11
9.70226e-09
-3.97735e-09
6.33946e-09
-5.54334e-09
-9.12406e-09
8.32794e-09
3.52563e-09
5.83522e-09
-1.04557e-09
-2.64173e-09
5.9851e-10
-7.831e-09
4.06867e-09
-8.56003e-10
-1.34994e-09
-7.37863e-09
8.97557e-10
-4.56627e-10
-4.7078e-09
-7.34991e-09
3.94896e-09
-2.31847e-10
-8.94884e-09
5.23173e-09
-6.39832e-09
-2.51854e-10
1.05991e-08
1.67111e-09
-9.85592e-09
5.84108e-09
2.34372e-09
-8.6834e-09
3.9562e-09
-3.64855e-09
9.05872e-09
-5.66202e-09
-7.8088e-09
3.9284e-09
-5.03333e-10
-6.39974e-09
-2.95286e-09
8.3587e-09
-5.75157e-09
-3.11046e-09
-9.89865e-09
6.79089e-09
1.55497e-11
-3.40252e-10
4.29237e-09
-5.21863e-09
1.07855e-09
-1.52289e-10
-7.34173e-09
3.8253e-09
3.39656e-09
8.46214e-10
-9.99435e-09
5.14845e-09
-8.15162e-09
-5.09171e-09
5.23114e-09
-5.38517e-09
-5.47206e-09
5.76552e-09
2.54301e-09
-3.62135e-09
-4.14029e-09
-1.30748e-09
-3.49123e-09
-6.05768e-09
-8.16031e-09
8.76722e-09
-2.13307e-09
1.2207e-08
-1.88411e-08
1.44446e-08
-7.95985e-10
-4.88138e-09
-9.07433e-09
7.81995e-09
4.18084e-09
-2.92646e-09
1.16635e-08
-2.28709e-08
2.39821e-09
8.65829e-09
1.15044e-09
1.06227e-08
6.22006e-09
-9.80552e-09
-7.03534e-09
1.70214e-08
-1.80547e-10
-2.56162e-09
3.37885e-09
1.21675e-08
-5.14349e-09
-1.72478e-08
1.42479e-08
7.18073e-09
3.20551e-09
-8.7898e-09
1.26664e-08
-8.02603e-10
2.39799e-09
3.23307e-09
-7.4333e-10
1.03492e-08
9.05867e-09
7.58725e-09
1.3626e-08
1.46936e-09
-8.31298e-09
-6.78233e-09
7.35678e-10
5.01787e-09
7.87247e-09
-1.01788e-08
4.47731e-09
6.43724e-09
-3.42001e-09
-8.26814e-09
-1.18551e-08
2.6999e-09
1.41731e-08
3.00215e-09
-1.41602e-08
-8.82725e-09
1.11323e-08
-5.48627e-09
-7.20451e-09
-6.6744e-09
1.23764e-08
3.91273e-09
-1.01495e-08
3.47207e-09
-6.70414e-09
3.64937e-10
-2.48805e-09
-8.27768e-09
7.86402e-09
-2.16067e-09
6.08317e-09
-2.23597e-09
-2.00682e-09
-5.72452e-09
9.96733e-09
-6.14456e-09
-2.32619e-09
6.23479e-09
6.1414e-09
1.6068e-09
-8.92237e-09
1.17417e-09
-5.07118e-09
5.06802e-09
-2.09763e-09
-7.19815e-09