/*--------------------------------*- C++ -*----------------------------------*\
| =========                 |                                                 |
| \\      /  F ield         | OpenFOAM: The Open Source CFD Toolbox           |
|  \\    /   O peration     | Version:  v1612+                                |
|   \\  /    A nd           | Web:      www.OpenFOAM.com                      |
|    \\/     M anipulation  |                                                 |
\*---------------------------------------------------------------------------*/
FoamFile
{
    version     2.0;
    format      ascii;
    class       volScalarField;
    location    "150";
    object      p;
}
// * * * * * * * * * * * * * * * * * * * * * * * * * * * * * * * * * * * * * //

dimensions      [0 2 -2 0 0 0 0];

internalField   nonuniform List<scalar> 
16986
(
0.0926575
0.190804
0.17182
0.0949395
0.0958056
0.0927305
0.0941628
0.0929565
0.0953853
0.0933768
0.0966926
0.0972751
0.0960287
0.0954831
0.0982038
0.178172
0.173566
0.174967
0.178149
0.178355
0.174947
0.180345
0.177253
0.178631
0.178429
0.183012
0.178522
0.170068
0.179488
0.172855
0.18031
0.177598
0.177618
0.147959
0.148878
0.148275
0.148862
0.147659
0.153051
0.153949
0.149191
0.14863
0.149859
0.151206
0.149967
0.14959
0.149601
0.146358
0.15237
0.119422
0.120056
0.113256
0.113402
0.11977
0.110981
0.113615
0.115656
0.120055
0.12474
0.114471
0.110031
0.108705
0.109922
0.113421
0.112877
0.112767
0.109208
0.109787
0.111598
0.15943
0.157979
0.156482
0.160928
0.159585
0.158257
0.159475
0.151383
0.156696
0.162374
0.160291
0.163963
0.165441
0.163893
0.167624
0.162057
0.174902
0.176478
0.181301
0.177471
0.173459
0.176545
0.176264
0.178641
0.177
0.172422
0.178904
0.173873
0.181155
0.184798
0.183762
0.180898
0.181617
0.115963
0.113557
0.110912
0.111995
0.1165
0.110538
0.113299
0.183439
0.189042
0.190339
0.190429
0.188603
0.182703
0.181651
0.187779
0.185597
0.190268
0.189181
0.184742
0.185928
0.183436
0.185385
0.184713
0.182259
0.173579
0.174338
0.170917
0.175833
0.173294
0.173865
0.18078
0.167292
0.176076
0.17097
0.173874
0.175802
0.170298
0.175214
0.173121
0.167631
0.183832
0.167171
0.176558
0.171914
0.168747
0.168992
0.173365
0.173019
0.168895
0.171519
0.169864
0.168855
0.17484
0.168743
0.0867603
0.0879983
0.0900386
0.0818907
0.0863681
0.0822581
0.083996
0.0846839
0.0840487
0.0761789
0.0820316
0.0920892
0.0906098
0.0803201
0.0869252
0.0828622
0.0872358
0.0900574
0.082818
0.0903962
0.171977
0.171378
0.171984
0.167289
0.171639
0.172136
0.172096
0.167739
0.17209
0.166601
0.172298
0.167864
0.172341
0.170756
0.170932
0.137386
0.136233
0.13968
0.139399
0.141319
0.140258
0.138402
0.136755
0.136718
0.13651
0.141516
0.142412
0.143516
0.133885
0.135931
0.135865
0.141577
0.137803
0.140988
0.163338
0.161056
0.158149
0.158352
0.15924
0.158265
0.160069
0.159305
0.162509
0.164556
0.162137
0.165037
0.159836
0.160239
0.164748
0.157042
0.159793
0.159978
0.158126
0.155288
0.155909
0.157723
0.16364
0.157471
0.108415
0.108675
0.108802
0.106234
0.103123
0.107394
0.111366
0.107372
0.108736
0.104282
0.106258
0.104901
0.105565
0.107186
0.110775
0.108722
0.109967
0.108218
0.107132
0.111549
0.109408
0.10355
0.112519
0.109832
0.102873
0.110507
0.109454
0.108187
0.112321
0.18084
0.180896
0.184226
0.187353
0.181241
0.184198
0.18215
0.186317
0.183392
0.181137
0.183063
0.181575
0.184366
0.187552
0.17873
0.18285
0.182763
0.175745
0.182447
0.182297
0.179784
0.176471
0.181976
0.183676
0.17495
0.182811
0.182051
0.185928
0.184464
0.18051
0.183267
0.184549
0.183267
0.0908881
0.0862222
0.0834187
0.0849021
0.0843988
0.0903899
0.0895423
0.0876153
0.0863997
0.0855921
0.0824482
0.0838814
0.0806437
0.0779121
0.0827862
0.0821968
0.084028
0.0908007
0.0849276
0.0858025
0.0883243
0.186895
0.186164
0.181427
0.180372
0.182917
0.177283
0.18325
0.190178
0.187906
0.183931
0.186923
0.177549
0.181174
0.184104
0.18636
0.184766
0.187949
0.186141
0.187275
0.183416
0.183547
0.178472
0.17836
0.177183
0.186399
0.18081
0.182854
0.184229
0.187319
0.190706
0.173001
0.18353
0.183934
0.177227
0.194947
0.190082
0.189478
0.190858
0.187868
0.186441
0.184625
0.192297
0.190693
0.180798
0.193037
0.187777
0.18813
0.187312
0.185414
0.188676
0.188536
0.166802
0.167627
0.16825
0.170525
0.169287
0.167841
0.172104
0.173326
0.170791
0.176354
0.181929
0.177767
0.1789
0.171048
0.17885
0.175819
0.182342
0.191475
0.189437
0.185816
0.196474
0.193298
0.18917
0.192244
0.188655
0.183462
0.191399
0.191573
0.192316
0.191824
0.146156
0.144761
0.143058
0.142034
0.147472
0.148832
0.146699
0.14915
0.141586
0.147814
0.139084
0.141523
0.142538
0.146605
0.146859
0.137578
0.139749
0.160863
0.165068
0.164117
0.162126
0.16324
0.158731
0.162665
0.161148
0.163893
0.161694
0.160341
0.163995
0.160143
0.162102
0.16352
0.167266
0.158962
0.15919
0.156765
0.11666
0.114474
0.110203
0.115038
0.111604
0.113641
0.115315
0.108189
0.108844
0.111534
0.10904
0.107514
0.104922
0.107106
0.144845
0.147458
0.148659
0.148702
0.149286
0.154291
0.148681
0.151513
0.14724
0.151559
0.148523
0.148157
0.151067
0.151286
0.150306
0.145033
0.143269
0.151004
0.151397
0.0845728
0.0947677
0.0945545
0.0922468
0.0947303
0.0920543
0.0919447
0.091715
0.0906347
0.0991272
0.0899882
0.0837433
0.0927811
0.0849698
0.0907996
0.0859857
0.0871597
0.0874362
0.0836807
0.0866259
0.0861544
0.0846697
0.0818108
0.0912877
0.0913833
0.0930973
0.0936625
0.0913053
0.0829038
0.0855909
0.085172
0.0844738
0.0914855
0.0895181
0.085232
0.0809637
0.0849262
0.0943513
0.091539
0.0897862
0.0870724
0.0809267
0.0821163
0.084598
0.0872211
0.164244
0.158794
0.164518
0.166887
0.16448
0.164352
0.166499
0.161228
0.158562
0.151994
0.155958
0.159512
0.155585
0.158221
0.165085
0.159071
0.154404
0.149369
0.1582
0.156738
0.152871
0.155878
0.103353
0.0959145
0.102056
0.0971907
0.103659
0.111235
0.100757
0.104726
0.106617
0.10347
0.102902
0.103715
0.111098
0.107602
0.106628
0.107067
0.102049
0.0990697
0.105705
0.102578
0.176979
0.177486
0.183251
0.169859
0.180665
0.173247
0.175065
0.172739
0.172814
0.171823
0.170433
0.175076
0.179173
0.178769
0.183584
0.1792
0.178702
0.17935
0.178613
0.146156
0.147141
0.148747
0.147581
0.137249
0.144017
0.146226
0.14554
0.149885
0.149035
0.147288
0.139329
0.138816
0.146138
0.149527
0.145718
0.147511
0.149247
0.139507
0.139945
0.140249
0.140943
0.170926
0.172023
0.17345
0.173104
0.16698
0.167116
0.171264
0.169055
0.173113
0.174178
0.16703
0.172399
0.166816
0.162962
0.166066
0.169984
0.164256
0.170612
0.162657
0.169481
0.0875309
0.087339
0.096168
0.0928363
0.0909845
0.093964
0.0901996
0.0883034
0.0891341
0.0906568
0.0903972
0.0931981
0.0919038
0.0905455
0.128704
0.127561
0.128293
0.130805
0.126351
0.123706
0.121851
0.12322
0.126249
0.124118
0.128695
0.124763
0.119183
0.125269
0.118448
0.117069
0.120098
0.123236
0.117394
0.124686
0.12271
0.118907
0.120503
0.121026
0.159623
0.160111
0.160147
0.157427
0.152557
0.152642
0.15647
0.159272
0.159655
0.160741
0.160567
0.162086
0.153795
0.153743
0.16477
0.158595
0.157073
0.155
0.100567
0.0969085
0.0962529
0.0989276
0.103542
0.109097
0.095478
0.0959834
0.0954602
0.101661
0.0937177
0.0963865
0.0977248
0.097166
0.190559
0.189305
0.197193
0.193252
0.186758
0.186067
0.190029
0.182662
0.182349
0.180601
0.18108
0.192926
0.188847
0.182601
0.18431
0.179131
0.19102
0.19193
0.184753
0.191725
0.187016
0.187568
0.192542
0.18436
0.194641
0.190513
0.196123
0.191906
0.192626
0.178042
0.177567
0.18094
0.18517
0.191201
0.185298
0.191791
0.183219
0.186589
0.174589
0.177721
0.175167
0.172319
0.177839
0.180688
0.178734
0.18356
0.168001
0.168282
0.164184
0.1642
0.160288
0.182151
0.180281
0.185099
0.163748
0.163945
0.165528
0.169754
0.160248
0.159348
0.164318
0.163719
0.161418
0.165239
0.169044
0.17041
0.166733
0.160528
0.171035
0.167534
0.165724
0.152443
0.151281
0.155292
0.151511
0.150968
0.155677
0.155023
0.143921
0.165315
0.160236
0.164503
0.160212
0.148398
0.149024
0.147332
0.144599
0.14919
0.15127
0.146516
0.14402
0.154425
0.15066
0.154131
0.139493
0.134867
0.135454
0.141804
0.14376
0.149622
0.146204
0.144743
0.14214
0.144692
0.136486
0.13575
0.141886
0.14106
0.147903
0.13958
0.13433
0.12858
0.128476
0.129415
0.130459
0.126086
0.12919
0.125629
0.132153
0.130228
0.130375
0.119818
0.126139
0.124408
0.120928
0.129257
0.122644
0.127902
0.122732
0.12418
0.122955
0.123516
0.115479
0.125109
0.123217
0.126979
0.122903
0.120042
0.117026
0.120469
0.118227
0.124391
0.121667
0.114137
0.118959
0.113555
0.115436
0.114761
0.111532
0.109714
0.108673
0.114705
0.113807
0.103061
0.107196
0.108501
0.107264
0.106425
0.107345
0.105577
0.103563
0.106604
0.0998934
0.103906
0.102227
0.100112
0.0983908
0.0957264
0.0982296
0.100427
0.0956694
0.0944713
0.0944647
0.0969667
0.0975869
0.0974325
0.0931883
0.0955503
0.0897264
0.0960974
0.095172
0.0927499
0.0900507
0.0915554
0.0905414
0.0851147
0.0887881
0.0909351
0.0844436
0.0858486
0.0905299
0.0908663
0.0873183
0.0854764
0.0819332
0.0814991
0.0814002
0.0783204
0.0853794
0.0817907
0.0880901
0.0843092
0.0844343
0.0812841
0.0926999
0.0855648
0.0857659
0.0897865
0.0876123
0.0831513
0.0922734
0.0952104
0.0894624
0.092077
0.0912647
0.0909185
0.0944139
0.0883653
0.0891793
0.0899752
0.0907061
0.0997565
0.091979
0.0891123
0.0893231
0.0880511
0.0973264
0.0940867
0.0878672
0.0871126
0.0814298
0.0850673
0.0878208
0.0963574
0.0922141
0.0857792
0.0844957
0.0956117
0.0953662
0.0932742
0.0924605
0.0876025
0.0921701
0.0916396
0.0909227
0.0906746
0.0857546
0.103008
0.101188
0.091768
0.0890009
0.0964984
0.0936509
0.0971156
0.0944893
0.09006
0.094122
0.0907158
0.092038
0.0862374
0.0861307
0.105203
0.102413
0.095784
0.0983674
0.100586
0.0984576
0.0949762
0.091363
0.0915321
0.099908
0.0961707
0.0961429
0.0994264
0.103624
0.100851
0.097049
0.101765
0.0918435
0.0980518
0.0948255
0.0925109
0.0960578
0.0949345
0.0918007
0.0976023
0.0856761
0.0923276
0.0965266
0.0970378
0.0955764
0.091129
0.0874589
0.0884475
0.0913022
0.0936365
0.0879977
0.0844486
0.0937367
0.0957646
0.0931109
0.0864318
0.105147
0.099322
0.10165
0.104537
0.0999894
0.104373
0.104436
0.091214
0.0848225
0.0889617
0.0916792
0.0847559
0.0965548
0.0931113
0.089587
0.090005
0.106244
0.103664
0.10326
0.102868
0.103746
0.0976421
0.0938009
0.100825
0.0993138
0.0901374
0.0904197
0.0865807
0.0869684
0.0991252
0.0914418
0.0957131
0.0971128
0.0935224
0.10595
0.102001
0.0951239
0.105589
0.0990646
0.0948299
0.093648
0.0885477
0.0847395
0.0863168
0.09017
0.0952481
0.0881365
0.0885942
0.0935787
0.0945918
0.0956175
0.0920665
0.085688
0.0828112
0.0895175
0.0934958
0.0975088
0.0969358
0.0938039
0.0984333
0.0967097
0.097868
0.0995913
0.0974825
0.105123
0.100548
0.0983436
0.10516
0.0989432
0.0990985
0.0957766
0.0997543
0.0989544
0.0948852
0.101411
0.10192
0.113077
0.111494
0.107061
0.101887
0.104574
0.105754
0.100409
0.100738
0.102778
0.0995872
0.0957759
0.112303
0.109106
0.109936
0.106132
0.114327
0.102712
0.105426
0.107835
0.102901
0.103073
0.104164
0.100217
0.10888
0.114377
0.110646
0.101568
0.100698
0.108727
0.113173
0.113358
0.10657
0.107549
0.111653
0.109991
0.10832
0.121102
0.120274
0.112772
0.107626
0.10698
0.111076
0.0999324
0.111814
0.108152
0.107176
0.121059
0.117993
0.116343
0.110234
0.109188
0.115524
0.111316
0.108814
0.109463
0.109668
0.104418
0.116528
0.113323
0.111525
0.112406
0.115777
0.112505
0.111705
0.11387
0.113404
0.123196
0.115839
0.120784
0.118078
0.120111
0.110078
0.116383
0.106728
0.10727
0.109758
0.113231
0.109638
0.107247
0.110238
0.106836
0.122886
0.114303
0.117284
0.120981
0.0995915
0.102272
0.11201
0.104336
0.0974745
0.107845
0.108619
0.113421
0.118698
0.111089
0.125391
0.124577
0.115987
0.115915
0.118624
0.115181
0.114851
0.115631
0.119972
0.117466
0.115313
0.110744
0.114362
0.117718
0.118681
0.117302
0.109266
0.108986
0.107217
0.103361
0.107151
0.108956
0.106996
0.106904
0.104406
0.103404
0.117646
0.116716
0.121217
0.105728
0.10505
0.111876
0.108807
0.106701
0.108945
0.101075
0.132235
0.120218
0.124059
0.122066
0.11972
0.116612
0.116293
0.1156
0.111001
0.109892
0.106032
0.113041
0.109976
0.12118
0.119713
0.124952
0.122392
0.129501
0.128382
0.119148
0.120014
0.127228
0.112791
0.11244
0.107867
0.111063
0.115561
0.112568
0.110287
0.109881
0.126353
0.122796
0.118252
0.115705
0.120112
0.121802
0.126306
0.127453
0.11933
0.117952
0.122892
0.11513
0.117039
0.110194
0.105559
0.114576
0.110112
0.110779
0.118806
0.115469
0.108414
0.111107
0.113292
0.113518
0.111108
0.131423
0.135045
0.130299
0.13367
0.128101
0.127582
0.131084
0.126929
0.121341
0.119333
0.118055
0.120772
0.117312
0.117276
0.133224
0.126662
0.127149
0.129301
0.12264
0.121478
0.124677
0.12706
0.122546
0.125837
0.120808
0.114948
0.117165
0.127471
0.124073
0.12155
0.119856
0.109237
0.114802
0.119967
0.126178
0.121996
0.122077
0.122648
0.120998
0.12082
0.121739
0.140948
0.137793
0.137046
0.126276
0.123953
0.131407
0.138432
0.135374
0.126382
0.128057
0.123218
0.116533
0.116958
0.119547
0.12067
0.118578
0.115947
0.126249
0.123642
0.118969
0.116824
0.125759
0.121418
0.120952
0.123014
0.123986
0.135702
0.137267
0.129843
0.125887
0.12992
0.129789
0.131762
0.132443
0.129256
0.127523
0.126018
0.123433
0.120171
0.128406
0.125371
0.13272
0.134638
0.140406
0.122743
0.126038
0.11624
0.123704
0.126539
0.126107
0.122186
0.13038
0.127617
0.12389
0.123905
0.130957
0.125161
0.128575
0.134769
0.121572
0.126844
0.126105
0.129095
0.124131
0.131753
0.133287
0.127453
0.127815
0.128793
0.132682
0.131842
0.128484
0.128035
0.12266
0.129378
0.130992
0.135439
0.130255
0.131829
0.133157
0.130738
0.129531
0.128851
0.133892
0.13292
0.125594
0.122401
0.128104
0.134122
0.131134
0.130166
0.135802
0.142168
0.132493
0.126716
0.125758
0.131385
0.131339
0.124581
0.120734
0.130681
0.133384
0.127294
0.131031
0.127627
0.130225
0.126671
0.124624
0.141245
0.146537
0.139914
0.131918
0.143293
0.137074
0.131665
0.128393
0.129106
0.144184
0.148506
0.142452
0.144094
0.133467
0.139211
0.126822
0.130499
0.135484
0.140315
0.138899
0.134196
0.13798
0.141064
0.136409
0.140113
0.134617
0.138878
0.135686
0.132174
0.131145
0.135595
0.132664
0.13613
0.145703
0.142362
0.139341
0.147446
0.145936
0.144533
0.147481
0.148982
0.138055
0.141048
0.141234
0.139694
0.135133
0.152279
0.14883
0.14274
0.133864
0.135001
0.130545
0.140456
0.138917
0.146532
0.145161
0.138411
0.141101
0.144424
0.137124
0.140525
0.137825
0.140917
0.137769
0.138337
0.14378
0.141084
0.137326
0.136128
0.137384
0.13874
0.151699
0.145755
0.139825
0.142931
0.144066
0.143701
0.143322
0.15325
0.144285
0.149539
0.152831
0.151002
0.147782
0.146721
0.148694
0.146533
0.152086
0.150298
0.146898
0.148369
0.148009
0.146471
0.14651
0.154547
0.159677
0.154873
0.151485
0.151196
0.152682
0.140236
0.14599
0.147806
0.147892
0.150841
0.144743
0.155478
0.152283
0.154594
0.153487
0.146692
0.143606
0.139449
0.150833
0.14759
0.141504
0.141735
0.151308
0.148004
0.141825
0.140929
0.131177
0.141907
0.138423
0.14137
0.140388
0.142707
0.145394
0.141206
0.144728
0.139314
0.151793
0.141866
0.143336
0.148178
0.141835
0.138833
0.140372
0.138961
0.140039
0.13445
0.138124
0.137128
0.139778
0.165058
0.16179
0.15742
0.159336
0.162463
0.161691
0.15857
0.156417
0.165548
0.162409
0.157691
0.154306
0.142
0.141649
0.149454
0.145516
0.145936
0.155051
0.151003
0.145535
0.144751
0.149916
0.149955
0.153866
0.152494
0.157081
0.150457
0.148309
0.149934
0.152301
0.150074
0.152015
0.145832
0.149775
0.151529
0.155145
0.145353
0.148517
0.138619
0.141869
0.141451
0.138777
0.155921
0.149282
0.144894
0.149702
0.14293
0.140672
0.136935
0.142875
0.13989
0.135478
0.132471
0.140707
0.151935
0.147268
0.147725
0.150983
0.148261
0.152116
0.157245
0.154796
0.148822
0.151378
0.154778
0.160476
0.150566
0.148335
0.152006
0.151772
0.141187
0.145592
0.143703
0.144316
0.140987
0.150616
0.153622
0.151224
0.145571
0.14961
0.159577
0.159082
0.158691
0.155053
0.151238
0.152945
0.176748
0.173616
0.175514
0.168773
0.166479
0.163251
0.170428
0.169309
0.163553
0.166358
0.160741
0.163069
0.151993
0.164566
0.160103
0.154199
0.158956
0.150705
0.148494
0.158361
0.160406
0.153246
0.158313
0.151739
0.148014
0.151555
0.163407
0.152831
0.157471
0.153397
0.156391
0.155672
0.156823
0.157321
0.164842
0.166732
0.158917
0.151847
0.155423
0.152195
0.158106
0.148737
0.14689
0.153646
0.150443
0.151417
0.144823
0.151608
0.176133
0.175914
0.169151
0.168895
0.160039
0.166781
0.166242
0.174657
0.174637
0.172342
0.163207
0.17141
0.171361
0.175223
0.170892
0.168037
0.168008
0.17741
0.170166
0.160972
0.169487
0.164232
0.16478
0.161256
0.162319
0.163539
0.156901
0.160336
0.166472
0.160432
0.16568
0.164012
0.15599
0.154471
0.158318
0.156924
0.165141
0.164072
0.172352
0.161549
0.173081
0.167114
0.170849
0.169908
0.174579
0.175028
0.170955
0.165583
0.175722
0.153792
0.162371
0.161395
0.157866
0.155844
0.171669
0.168013
0.162885
0.164388
0.167634
0.172405
0.166115
0.16363
0.166345
0.160807
0.161252
0.165543
0.165973
0.150374
0.158587
0.153991
0.148996
0.152396
0.149423
0.15506
0.154138
0.149925
0.15047
0.152542
0.158625
0.15612
0.175619
0.177655
0.177855
0.175265
0.172229
0.159769
0.163157
0.166979
0.171482
0.165118
0.163352
0.16236
0.164891
0.169933
0.170977
0.168236
0.170811
0.167428
0.166458
0.16623
0.164646
0.166415
0.152444
0.161499
0.154203
0.154752
0.167382
0.160546
0.157077
0.160982
0.193189
0.185884
0.184528
0.181202
0.192004
0.18854
0.186078
0.184844
0.183711
0.181601
0.178943
0.17593
0.181596
0.178695
0.1871
0.173946
0.175527
0.175029
0.154488
0.153878
0.150895
0.150223
0.161789
0.161079
0.156189
0.17197
0.167283
0.162287
0.172752
0.165265
0.167114
0.161728
0.170084
0.173949
0.17697
0.176575
0.16219
0.168779
0.16631
0.164807
0.164432
0.166694
0.187586
0.182634
0.18275
0.182114
0.180347
0.174223
0.182303
0.179217
0.178602
0.181182
0.174724
0.179354
0.172889
0.170954
0.170622
0.168642
0.176379
0.175598
0.171585
0.172854
0.170677
0.175439
0.181211
0.179206
0.180253
0.174258
0.176038
0.171441
0.179346
0.182071
0.17794
0.170604
0.17556
0.178075
0.17605
0.17961
0.179797
0.177734
0.177504
0.189451
0.185128
0.175747
0.182238
0.184573
0.182337
0.168903
0.172174
0.171838
0.178078
0.173513
0.174268
0.176557
0.179318
0.178951
0.184551
0.179439
0.180341
0.178126
0.174191
0.172412
0.177957
0.176886
0.19005
0.192158
0.184365
0.184633
0.176232
0.188731
0.190994
0.182215
0.188784
0.184773
0.179077
0.180315
0.185135
0.187357
0.192803
0.18682
0.192715
0.182408
0.184826
0.189622
0.189219
0.184769
0.186446
0.185266
0.186264
0.184991
0.186404
0.192966
0.183752
0.184626
0.188461
0.184079
0.185533
0.187681
0.186183
0.193392
0.187183
0.187854
0.181546
0.183157
0.180686
0.17906
0.186211
0.186031
0.189413
0.177305
0.181124
0.186637
0.189378
0.184663
0.178008
0.190152
0.189354
0.186479
0.187908
0.189398
0.184444
0.185857
0.180166
0.185574
0.183008
0.183837
0.180801
0.181071
0.170316
0.164957
0.165902
0.178645
0.164847
0.166128
0.179247
0.178998
0.17585
0.178
0.176962
0.191045
0.188107
0.185671
0.186376
0.187358
0.184932
0.194841
0.191542
0.190512
0.190978
0.19017
0.189629
0.181461
0.181913
0.194123
0.189205
0.185108
0.181853
0.195309
0.193363
0.193044
0.191774
0.193983
0.187395
0.188985
0.1897
0.188934
0.190338
0.186032
0.181833
0.176531
0.17891
0.17769
0.181637
0.178816
0.187665
0.185439
0.196017
0.192682
0.183715
0.189475
0.187804
0.190279
0.193665
0.197938
0.196224
0.201874
0.192022
0.184672
0.184832
0.184852
0.18179
0.174508
0.172071
0.185711
0.187642
0.187097
0.185494
0.180495
0.178673
0.185567
0.191246
0.187864
0.191539
0.195372
0.186465
0.187368
0.194051
0.195485
0.186945
0.18281
0.187535
0.18157
0.17771
0.175822
0.177375
0.182178
0.182597
0.180738
0.192506
0.189139
0.193193
0.187256
0.19034
0.19005
0.186048
0.19356
0.190385
0.189678
0.193538
0.200296
0.193207
0.194042
0.191301
0.195951
0.195091
0.193034
0.189979
0.190443
0.194503
0.197079
0.196416
0.201356
0.200339
0.195444
0.187783
0.185977
0.182603
0.184388
0.183074
0.191388
0.19197
0.19107
0.191986
0.194287
0.191492
0.185101
0.190255
0.184918
0.184241
0.174344
0.182125
0.179151
0.178261
0.181466
0.181582
0.181377
0.182027
0.183784
0.184334
0.179268
0.174614
0.176897
0.181329
0.175152
0.176645
0.18347
0.181616
0.177858
0.176789
0.17728
0.175818
0.194036
0.191119
0.198088
0.197298
0.198138
0.19081
0.191779
0.191525
0.191472
0.194463
0.193046
0.188378
0.182608
0.187009
0.180622
0.182903
0.178993
0.176418
0.18266
0.190112
0.186501
0.183508
0.185677
0.183198
0.1865
0.162984
0.165375
0.174837
0.175051
0.176607
0.172215
0.169775
0.17427
0.187015
0.179062
0.177594
0.174133
0.179057
0.181806
0.185151
0.18155
0.184251
0.180633
0.182832
0.182182
0.180317
0.183644
0.157274
0.155554
0.159514
0.163929
0.164165
0.161427
0.158773
0.160419
0.157286
0.151477
0.159938
0.149939
0.155747
0.182974
0.183443
0.182719
0.183857
0.180892
0.177364
0.174257
0.175281
0.178844
0.175633
0.173798
0.172812
0.168024
0.178514
0.173248
0.179041
0.170974
0.168044
0.165489
0.159764
0.171538
0.169846
0.152002
0.153512
0.148675
0.150529
0.152008
0.160294
0.161124
0.164902
0.158992
0.159336
0.180849
0.184545
0.179672
0.184963
0.179222
0.175722
0.180077
0.183874
0.175706
0.179778
0.180371
0.178908
0.174905
0.173622
0.172265
0.171562
0.174518
0.177453
0.172834
0.17466
0.17292
0.173071
0.176276
0.176006
0.166698
0.167871
0.177242
0.173999
0.17322
0.174374
0.168985
0.156049
0.164304
0.166182
0.157546
0.162413
0.162004
0.165187
0.160502
0.165033
0.163479
0.163266
0.163105
0.174261
0.168818
0.167129
0.162844
0.174939
0.17026
0.166038
0.171997
0.172381
0.174718
0.169102
0.172962
0.17206
0.172847
0.16813
0.173498
0.164324
0.162689
0.16485
0.173123
0.164494
0.170226
0.174751
0.161403
0.161555
0.177023
0.17935
0.158767
0.159542
0.161957
0.163497
0.160299
0.153811
0.155925
0.160892
0.170071
0.165435
0.159862
0.156499
0.165331
0.15765
0.16375
0.171375
0.171706
0.171691
0.165688
0.149757
0.148427
0.148183
0.154321
0.153643
0.150508
0.151015
0.153874
0.155382
0.152542
0.160762
0.16099
0.156905
0.153162
0.16497
0.1699
0.176426
0.174561
0.170792
0.169217
0.166842
0.174214
0.168557
0.165272
0.166574
0.166636
0.163138
0.165764
0.170333
0.169231
0.173215
0.175817
0.174941
0.174773
0.172515
0.173598
0.176878
0.175375
0.178341
0.164826
0.160941
0.1619
0.155135
0.160965
0.157438
0.159816
0.158284
0.156436
0.152482
0.140538
0.145536
0.150962
0.149454
0.156411
0.148633
0.153772
0.152086
0.151666
0.152273
0.149922
0.147738
0.154373
0.152188
0.1337
0.131936
0.130355
0.140554
0.137859
0.142102
0.131752
0.132358
0.139654
0.139521
0.145635
0.145923
0.140946
0.140361
0.139467
0.135966
0.139344
0.1428
0.138832
0.135245
0.134667
0.14214
0.147385
0.149565
0.155164
0.14987
0.147853
0.150096
0.150569
0.162632
0.161775
0.156179
0.150645
0.154987
0.15841
0.156938
0.148754
0.152331
0.153485
0.15329
0.152277
0.14742
0.151308
0.150009
0.148698
0.129405
0.130975
0.12824
0.124475
0.129183
0.131281
0.129992
0.12673
0.12328
0.122309
0.124335
0.126383
0.156458
0.157958
0.154394
0.151634
0.15393
0.15322
0.155321
0.156206
0.152389
0.14902
0.147593
0.146272
0.144375
0.145696
0.147505
0.144598
0.141455
0.139882
0.144087
0.144165
0.137668
0.150695
0.144642
0.149854
0.15536
0.149243
0.143798
0.152505
0.154001
0.151502
0.146668
0.150002
0.149243
0.129234
0.126684
0.129766
0.13342
0.133543
0.13034
0.12864
0.131452
0.126574
0.125777
0.137734
0.13958
0.136332
0.135148
0.135671
0.140751
0.136981
0.13636
0.136102
0.121343
0.120179
0.123969
0.127305
0.123093
0.127943
0.122226
0.124231
0.125244
0.128251
0.126695
0.12829
0.132324
0.139106
0.142299
0.134222
0.135555
0.129642
0.130987
0.111281
0.113428
0.108573
0.111728
0.116334
0.118425
0.115781
0.140484
0.142995
0.138128
0.135921
0.134864
0.139806
0.139021
0.142395
0.142095
0.126945
0.12696
0.127538
0.131794
0.133536
0.126882
0.126864
0.12823
0.127632
0.121728
0.130036
0.127365
0.116445
0.121898
0.11183
0.115935
0.118819
0.121032
0.120815
0.132853
0.130081
0.132006
0.127552
0.128206
0.127357
0.13202
0.136049
0.131795
0.130905
0.133046
0.133587
0.138986
0.141599
0.134619
0.13237
0.140339
0.138176
0.139842
0.135872
0.134313
0.137853
0.135542
0.134137
0.139029
0.138405
0.136898
0.141233
0.129968
0.126066
0.129466
0.1296
0.125512
0.127836
0.124858
0.128958
0.122173
0.127602
0.127844
0.123794
0.120121
0.133823
0.13989
0.139684
0.141444
0.13663
0.133848
0.1391
0.136386
0.134548
0.13645
0.137546
0.103275
0.104128
0.111621
0.113792
0.111117
0.119501
0.116229
0.112973
0.116357
0.119558
0.114414
0.112335
0.123176
0.126051
0.11807
0.117296
0.113704
0.113478
0.106626
0.103304
0.113301
0.110018
0.102941
0.120846
0.123801
0.124139
0.124339
0.124293
0.122503
0.130486
0.130315
0.125799
0.0970644
0.100431
0.110404
0.108257
0.107322
0.110374
0.111638
0.109
0.0918979
0.0998965
0.107698
0.10155
0.0988475
0.0999127
0.0976153
0.120043
0.123647
0.12153
0.120222
0.115709
0.124333
0.111465
0.122715
0.120084
0.119366
0.127132
0.129633
0.119517
0.126508
0.121748
0.124341
0.109535
0.109706
0.110998
0.111798
0.10936
0.119892
0.116862
0.111405
0.106648
0.106943
0.114
0.112191
0.109336
0.110244
0.116481
0.112476
0.109545
0.11462
0.120216
0.10968
0.111664
0.122525
0.11798
0.11926
0.121846
0.116551
0.116546
0.118261
0.112091
0.108313
0.119399
0.117501
0.111826
0.109994
0.105465
0.114724
0.110065
0.106632
0.0947593
0.106385
0.100058
0.0987504
0.107541
0.108169
0.110418
0.105245
0.106202
0.105174
0.104363
0.105276
0.108697
0.106456
0.102723
0.0997557
0.112344
0.103694
0.109846
0.110657
0.114745
0.112254
0.106952
0.105126
0.105216
0.109937
0.104414
0.108594
0.102764
0.0862909
0.0932199
0.0907839
0.0908378
0.0902376
0.091868
0.0868801
0.101042
0.0961939
0.102176
0.101699
0.0955798
0.0997173
0.0902404
0.0920473
0.10199
0.0970596
0.0939477
0.102242
0.105539
0.093877
0.0964906
0.0983854
0.101107
0.0933481
0.100163
0.0996005
0.0966101
0.0892479
0.0945708
0.0920365
0.0893334
0.0926994
0.0917563
0.0943668
0.0956829
0.109141
0.105688
0.106359
0.104535
0.104137
0.102343
0.108589
0.108565
0.0896295
0.091881
0.088383
0.0874389
0.085621
0.0946394
0.0933091
0.0852604
0.0891437
0.102508
0.0979317
0.0992016
0.0980579
0.0931227
0.0995021
0.100471
0.0970003
0.0927528
0.0979256
0.0974451
0.0927465
0.0997837
0.100147
0.100751
0.0972026
0.0948821
0.102617
0.0984279
0.101219
0.100673
0.0811642
0.0864126
0.0844252
0.0836652
0.0866081
0.0879197
0.0893305
0.0872812
0.0930614
0.0894022
0.0935807
0.0921304
0.0918922
0.092535
0.0875414
0.0869622
0.0940152
0.0835748
0.0885339
0.0880244
0.0835467
0.0832042
0.0851763
0.0929152
0.0928997
0.0879637
0.0842024
0.0875381
0.0853936
0.08839
0.0830182
0.0809681
0.087735
0.0871476
0.0866678
0.0902806
0.0864957
0.0872861
0.0869206
0.0807426
0.0781615
0.0813385
0.0824398
0.0847557
0.0800045
0.082173
0.0810599
0.0790624
0.0812243
0.0821619
0.0799977
0.074795
0.0776524
0.101135
0.100195
0.0980174
0.089267
0.0973255
0.0973746
0.0998484
0.0961846
0.097737
0.0956316
0.114704
0.112301
0.116397
0.117213
0.119466
0.119437
0.118303
0.118165
0.105899
0.108821
0.110172
0.103966
0.109579
0.127302
0.129856
0.127707
0.121365
0.1166
0.133884
0.12974
0.126077
0.125734
0.121545
0.12354
0.122072
0.118293
0.139133
0.133715
0.140455
0.130625
0.129648
0.137367
0.142325
0.137975
0.13588
0.107813
0.111781
0.112343
0.115368
0.114704
0.115178
0.113881
0.106944
0.110504
0.104328
0.102446
0.103721
0.110132
0.100743
0.106276
0.105687
0.109812
0.102532
0.103788
0.115226
0.111981
0.11184
0.112877
0.128962
0.129168
0.134646
0.136673
0.130024
0.124841
0.138713
0.138844
0.13644
0.130924
0.127422
0.132923
0.131644
0.13314
0.13524
0.136127
0.135289
0.134914
0.140219
0.138686
0.142781
0.148062
0.14556
0.149966
0.147626
0.144953
0.145937
0.147395
0.147296
0.165614
0.170465
0.165845
0.174221
0.168507
0.166638
0.168818
0.166371
0.176188
0.176582
0.172022
0.170184
0.167092
0.175488
0.176821
0.17166
0.169732
0.191967
0.172254
0.174189
0.175066
0.170016
0.169264
0.16909
0.169334
0.168255
0.168334
0.171937
0.170679
0.178775
0.179479
0.17791
0.0840489
0.0906924
0.0847742
0.0893665
0.0873609
0.0866766
0.0860325
0.0937102
0.091396
0.0936025
0.0873483
0.0919554
0.092745
0.0874022
0.0893844
0.0839322
0.0893515
0.0918023
0.098937
0.0844743
0.0857906
0.0843953
0.0810412
0.0860003
0.0847306
0.082519
0.0793584
0.0945147
0.085876
0.0903474
0.08196
0.078258
0.0851277
0.084947
0.0870851
0.0851764
0.105101
0.101924
0.098216
0.0965212
0.0984068
0.0949067
0.105791
0.0974184
0.0953128
0.100848
0.100169
0.102566
0.102573
0.0935118
0.0882289
0.08666
0.0880677
0.0920053
0.0869278
0.0880953
0.0821641
0.089446
0.087353
0.0905784
0.0903752
0.0879417
0.0971165
0.0963827
0.0900729
0.0973044
0.098551
0.0885188
0.0892438
0.0972666
0.0986698
0.0965435
0.0907074
0.095142
0.0863186
0.100784
0.093215
0.0942207
0.099175
0.0953772
0.102144
0.108179
0.104391
0.104833
0.104378
0.103075
0.0954821
0.0929542
0.0915002
0.0988126
0.0933281
0.091155
0.0949391
0.0958074
0.103424
0.102705
0.0969193
0.0958981
0.100549
0.102459
0.0950988
0.0909351
0.0929222
0.0928594
0.101728
0.101065
0.100358
0.100313
0.101494
0.092408
0.0878624
0.117822
0.116297
0.106547
0.118065
0.117726
0.114948
0.114503
0.113977
0.115975
0.110498
0.108574
0.104427
0.100487
0.103867
0.103617
0.100927
0.0968919
0.100601
0.0984366
0.102002
0.103843
0.0989863
0.0967771
0.103029
0.0991545
0.101621
0.113351
0.116081
0.115291
0.115424
0.121762
0.121652
0.117968
0.117725
0.116509
0.116784
0.118268
0.105785
0.117587
0.108143
0.107806
0.108392
0.107009
0.110445
0.110793
0.106491
0.111574
0.116287
0.10513
0.110472
0.11668
0.116369
0.123188
0.121044
0.109312
0.110177
0.119221
0.118415
0.116035
0.110202
0.112133
0.109894
0.11189
0.115163
0.113667
0.110782
0.10885
0.116371
0.115768
0.116833
0.115349
0.115251
0.127668
0.130094
0.126762
0.123454
0.12505
0.133214
0.131481
0.125091
0.117873
0.115865
0.122953
0.118279
0.117611
0.125274
0.122503
0.123689
0.122707
0.123834
0.119936
0.126841
0.120226
0.119761
0.126736
0.121575
0.125449
0.122246
0.111545
0.125808
0.119142
0.124941
0.122996
0.118442
0.126193
0.124622
0.11759
0.122152
0.116937
0.116037
0.126223
0.134504
0.121728
0.125533
0.135617
0.126377
0.128941
0.130175
0.131164
0.126918
0.126278
0.134254
0.132461
0.123596
0.121151
0.117198
0.117895
0.121414
0.124443
0.119962
0.122132
0.123242
0.13084
0.12083
0.12485
0.134471
0.133779
0.13124
0.128306
0.125251
0.13115
0.131408
0.127543
0.128026
0.128073
0.123528
0.122891
0.127275
0.125117
0.122364
0.126759
0.128589
0.131689
0.137175
0.13634