/*--------------------------------*- C++ -*----------------------------------*\
| =========                 |                                                 |
| \\      /  F ield         | OpenFOAM: The Open Source CFD Toolbox           |
|  \\    /   O peration     | Version:  v1612+                                |
|   \\  /    A nd           | Web:      www.OpenFOAM.com                      |
|    \\/     M anipulation  |                                                 |
\*---------------------------------------------------------------------------*/
FoamFile
{
    version     2.0;
    format      ascii;
    class       surfaceScalarField;
    location    "150";
    object      phi;
}
// * * * * * * * * * * * * * * * * * * * * * * * * * * * * * * * * * * * * * //

dimensions      [0 3 -1 0 0 0 0];

internalField   nonuniform List<scalar> 
37336
(
1.4701e-10
-2.19858e-09
-4.51851e-09
6.57005e-09
-2.54742e-09
-7.1392e-09
3.42606e-09
6.26055e-09
8.06207e-09
-1.45302e-09
-7.69224e-09
1.08318e-09
1.1106e-08
6.9365e-09
-4.09476e-09
-1.39477e-08
1.12247e-08
5.76477e-09
-5.88345e-09
-7.74358e-09
8.26221e-09
1.07061e-08
-3.78132e-10
-4.28938e-10
9.77941e-09
-4.30905e-09
2.94451e-10
7.02457e-09
1.15732e-09
-9.46921e-09
1.28733e-09
9.53293e-09
4.65821e-09
-7.16655e-09
1.74146e-08
6.27078e-10
-6.73732e-09
1.77509e-09
6.11957e-09
-8.3141e-09
-2.73227e-09
4.17568e-09
-1.65845e-08
-1.21693e-08
6.8758e-09
6.18626e-09
-4.99248e-09
-5.06151e-09
3.86772e-09
8.00788e-10
-9.33802e-10
6.31925e-09
-5.06784e-09
-2.11897e-10
6.08056e-09
-7.04956e-09
-3.01078e-09
4.18393e-10
-6.13607e-09
4.78385e-09
-4.48301e-09
8.42309e-10
4.0591e-09
3.52995e-09
4.6218e-09
-4.71787e-09
-3.43398e-09
-1.03913e-09
8.60545e-11
5.01177e-09
-2.53811e-09
4.65271e-09
-7.12631e-09
4.08824e-09
-1.15615e-10
-6.89451e-09
2.55762e-09
-7.24639e-10
4.93214e-09
-2.84856e-09
-8.97808e-09
-1.76579e-09
-3.51616e-10
1.04331e-09
-4.66934e-09
5.29975e-09
-1.01045e-08
4.71224e-09
-1.82534e-09
4.13113e-09
1.70937e-08
3.10536e-10
-1.87458e-08
1.34154e-09
-3.15947e-09
1.80529e-09
1.84479e-08
-9.37384e-09
-1.50898e-09
7.72336e-09
-9.86796e-09
8.04656e-10
-5.75199e-09
4.98721e-09
-1.7981e-08
8.26361e-09
-7.30483e-10
-1.32852e-08
1.65731e-08
-3.10999e-09
-5.19947e-09
8.14514e-10
-5.69527e-09
2.01611e-08
-1.78271e-09
5.91501e-09
2.60422e-09
-9.24973e-09
6.91621e-09
-4.1112e-09
-4.01368e-09
-1.4217e-09
1.23516e-08
-9.79853e-09
6.79464e-09
1.49492e-09
-3.64245e-09
-5.34156e-09
-8.9168e-09
-4.17074e-09
9.07387e-09
-9.95503e-09
-3.77215e-10
2.97887e-09
2.55286e-09
-5.15453e-09
4.36488e-09
3.61195e-09
-8.35406e-09
-2.5157e-09
-8.63564e-09
6.18945e-09
4.96189e-09
5.88931e-09
-1.04297e-08
2.02474e-09
7.06602e-09
-7.07508e-10
-4.69202e-10
-4.21367e-09
2.20824e-09
9.07145e-09
-9.01755e-09
-4.01581e-10
7.83469e-10
-6.12937e-09
-1.33179e-08
1.36595e-09
6.02136e-09
-3.02242e-09
4.10538e-09
2.39426e-10
8.42123e-10
4.24801e-09
-2.53729e-09
-1.67528e-09
-5.9515e-09
-3.09176e-09
4.82958e-09
-5.8304e-09
-8.28621e-10
-1.97585e-09
1.03735e-08
5.2205e-09
3.9929e-10
2.02518e-09
-3.60758e-09
-9.89015e-10
-7.75695e-11
-3.42448e-09
6.66913e-09
-3.08127e-10
-3.96806e-09
7.70396e-09
-9.29853e-09
5.5626e-09
-5.47221e-09
1.15921e-09
3.44907e-10
2.70301e-09
-5.11394e-09
1.01149e-08
-9.8096e-09
3.48299e-09
-2.97196e-09
-6.23745e-09
-9.04438e-09
-8.23062e-09
1.38265e-09
-5.7308e-09
1.25788e-08
4.4137e-09
-2.10262e-09
-1.05417e-08
-4.83124e-09
8.91689e-09
3.78546e-10
-4.05058e-09
6.11605e-09
-3.5971e-09
-8.24976e-09
1.5002e-09
-3.13113e-09
3.86424e-09
-3.26022e-09
-1.35489e-08
1.29448e-08
-1.32606e-09
-5.02099e-09
1.02113e-08
-7.6356e-09
-2.98787e-09
6.56445e-09
4.05901e-09
2.36205e-09
-1.32579e-08
-5.20145e-09
-8.20733e-09
2.25793e-09
-1.43961e-09
7.3891e-09
-4.39503e-10
5.33268e-10
-8.3012e-09
8.15574e-09
4.57062e-11
-8.64097e-09
-8.40848e-10
7.93987e-09
1.05673e-09
-1.00838e-08
1.31342e-08
-2.97787e-09
-7.25292e-11
-8.59951e-09
7.73543e-10
-7.9489e-09
7.12674e-09
-8.22755e-09
9.04976e-09
4.74557e-10
-8.37768e-09
1.23344e-10
-8.18946e-09
6.47829e-09
-4.97527e-10
-9.66726e-09
3.68651e-09
8.83459e-09
-8.23665e-09
2.88075e-09
1.30805e-08
1.86337e-09
1.81317e-09
1.14066e-08
-1.5083e-08
-1.34549e-08
2.87964e-09
1.24386e-08
1.37006e-08
6.51084e-10
1.33372e-08
1.35028e-08
8.6575e-09
1.35007e-08
-1.06987e-08
-1.14594e-08
-9.2186e-09
-2.1505e-09
1.43304e-08
-2.96131e-09
1.09398e-08
-1.76933e-08
-4.16659e-10
7.17018e-09
2.01653e-08
-2.63028e-09
-8.87744e-09
1.76092e-08
-9.18223e-09
5.07387e-09
-5.56219e-09
1.1117e-08
1.46105e-08
2.82841e-09
2.76899e-09
-4.49802e-09
1.33222e-08
-1.15932e-08
-2.44074e-09
1.62673e-08
-1.10576e-08
-3.36984e-09
1.08172e-08
2.73078e-09
8.14133e-09
1.09153e-08
-1.06252e-08
8.19432e-09
2.19491e-09
2.93286e-09
1.25418e-08
1.19199e-08
-1.90989e-08
-2.25983e-09
1.04845e-08
1.08743e-08
5.56428e-09
-1.37479e-08
-2.8019e-09
9.98115e-09
3.63797e-09
6.94048e-09
-1.60102e-09
-1.81482e-08
8.28e-09
7.60832e-09
-4.10122e-09
-8.48267e-09
7.66421e-09
4.51181e-09
1.366e-08
-1.08207e-08
7.04541e-09
1.48946e-08
1.60525e-08
-1.3429e-09
-4.25772e-09
6.85272e-09
-8.7407e-09
6.14576e-09
5.64317e-09
-1.24625e-08
2.56168e-09
-7.48972e-09
-5.62246e-10
1.49048e-08
7.36659e-09
-9.21315e-09
1.51715e-08
2.2472e-09
-1.55257e-09
-1.58661e-08
1.44747e-08
6.19156e-09
-5.49457e-09
-7.88302e-09
-2.07957e-09
-2.49983e-09
-1.25982e-08
1.73907e-08
9.68232e-09
2.54039e-10
-1.0605e-08
-4.63142e-09
1.03386e-08
4.84428e-10
-1.08987e-08
2.33629e-09
3.93107e-09
-1.36014e-10
-1.23153e-08
-1.53e-08
-2.21769e-09
8.77702e-09
-9.74163e-09
-1.34413e-08
-8.02416e-09
-6.26819e-09
1.37302e-08
1.97052e-08
-1.11719e-08
1.0248e-08
7.87995e-10
-1.5075e-08
6.5891e-09
-1.31614e-08
-1.65951e-09
-9.04713e-09
1.04164e-08
8.66666e-10
-2.23594e-09
5.09094e-09
-7.65983e-09
-2.66661e-09
5.68248e-09
1.15953e-08
-1.46113e-08
3.23534e-09
7.23221e-09
8.69106e-09
-6.81367e-10
-7.12856e-09
-8.81196e-10
-4.9321e-09
6.5444e-09
8.80406e-09
2.45394e-10
-8.65526e-11
6.94675e-09
4.9796e-09
-5.28568e-09
6.98531e-09
-6.92069e-09
5.22104e-09
-2.24059e-10
-4.81625e-09
1.18588e-08
3.68039e-10
6.91808e-09
-1.46539e-09
1.60715e-09
-7.05982e-09
7.50678e-09
-5.31634e-09
1.58049e-09
-3.77089e-09
-5.55656e-09
2.38638e-09
-1.20599e-09
4.3762e-09
-1.15414e-08
-9.43106e-10
3.51491e-09
8.96959e-09
-4.73837e-09
7.66944e-09
-1.44724e-08
8.04923e-09
-3.12995e-09
5.0981e-10
-5.42906e-09
5.30174e-09
9.66556e-09
4.5889e-09
5.58761e-10
-6.61304e-09
4.84867e-09
1.71501e-09
-3.76585e-09
-4.23816e-09
-2.53839e-09
7.66391e-09
1.30483e-09
-6.43036e-09
5.27995e-09
-7.61776e-09
-2.00568e-10
-7.11691e-10
5.52195e-09
2.85365e-09
8.12853e-09
-2.93361e-09
8.50169e-11
2.07026e-09
-3.99642e-09
9.06282e-09
-6.73742e-09
1.67099e-09
6.12511e-09
-8.73304e-09
-3.25709e-10
-9.96898e-09
8.04281e-09
2.35439e-09
-6.19827e-09
-3.10925e-09
4.08123e-09
-5.29014e-09
4.31813e-09
5.9997e-10
-3.64073e-09
-6.85106e-11
-9.64784e-10
-1.57632e-09
6.6223e-09
-3.70623e-09
-2.0249e-09
4.76634e-09
-3.12118e-09
1.49157e-11
4.22949e-09
-3.01898e-09
-4.85127e-09
-1.98184e-10
-8.62502e-10
-6.17812e-09
-1.81815e-09
6.41987e-09
5.16541e-09
-4.37376e-09
-3.91286e-09
-9.33017e-10
4.0735e-09
-1.15559e-09
-5.22076e-09
-7.20172e-09
4.45053e-09
-7.95314e-10
-2.92451e-09
-3.48192e-09
2.20379e-09
-7.01928e-09
1.79647e-09
-2.96529e-09
4.83975e-09
-1.09454e-08
3.8531e-10
5.72033e-09
-4.30358e-09
4.31847e-09
4.82485e-09
-2.40006e-09
-6.15032e-09
6.03271e-09
2.51744e-09
-3.44378e-09
1.27146e-09
-2.28063e-10
-4.84676e-09
9.80193e-10
-2.28379e-09
-3.60963e-09
-4.68093e-09
2.49353e-09
3.2048e-09
-2.62384e-09
-3.07454e-09
-1.86305e-09
5.2976e-11
-1.57848e-09
-6.16216e-09
1.50212e-09
-9.03393e-10
5.43395e-09
9.40843e-09
-2.40231e-09
-6.02596e-09
3.86936e-09
-1.41097e-09
-5.08225e-09
2.15762e-09
-1.51347e-10
-3.51868e-09
4.56258e-09
4.58204e-10
-8.96108e-11
1.45841e-09
7.04661e-09
7.95419e-09
-5.67883e-09
-3.85388e-09
7.195e-09
2.21757e-09
-7.08018e-09
2.05955e-09
9.18278e-10
-7.79354e-10
4.6894e-09
-4.82834e-09
2.44031e-10
5.78956e-09
-5.11534e-09
1.39693e-09
-1.07658e-08
8.17e-09
1.19877e-09
-9.95586e-09
8.82639e-09
2.52632e-09
7.03964e-09
-7.6833e-09
-1.01221e-08
-1.45129e-09
-1.46495e-09
-5.48669e-09
-5.06557e-09
5.69902e-09
4.85322e-09
-5.98707e-09
-9.50922e-10
5.11121e-09
4.80196e-10
-6.37079e-09
4.29056e-09
-5.16645e-09
-8.34562e-10
5.95383e-11
3.94947e-09
-9.4631e-11
-1.71444e-09
2.13549e-11
1.05194e-08
-1.71534e-09
8.17085e-09
-9.59763e-10
8.12257e-09
-6.91877e-09
-8.16286e-09
6.53579e-10
5.92869e-09
-7.92728e-10
4.62241e-09
-1.9382e-11
-7.21886e-09
4.2438e-10
9.30058e-10
5.8644e-09
-9.469e-11
-1.19548e-09
-1.09743e-09
6.81778e-09
-9.65923e-09
8.36826e-09
-1.63134e-09
4.45503e-09
1.00648e-08
-7.37099e-09
1.08238e-09
-3.77619e-09
1.0836e-08
-1.44222e-09
6.7111e-10
-1.19548e-10
-1.2309e-08
1.87131e-08
-6.28449e-09
-8.19627e-09
1.21732e-08
-4.09648e-09
-6.2849e-09
1.5725e-08
1.3959e-09
-8.06412e-09
7.72216e-09
-1.10025e-09
-3.39183e-09
-1.20433e-08
-5.14614e-09
9.87153e-09
-1.70344e-08
-1.67342e-08
-6.52993e-09
1.74017e-08
7.84138e-09
2.38761e-09
3.2557e-09
-3.77417e-09
1.47281e-08
3.82487e-09
-2.34793e-08
7.33205e-09
6.20914e-09
9.93814e-09
-3.89741e-09
-1.02388e-08
-9.3431e-09
-1.64123e-08
8.45336e-09
1.5291e-08
-1.94125e-08
1.54696e-08
-5.48031e-09
9.42317e-09
-1.16599e-08
-1.165e-08
6.47572e-09
1.5203e-08
1.40627e-08
-6.83821e-09
-1.74633e-08
-3.14977e-09
8.00102e-10
8.36721e-10
1.74342e-08
-9.81759e-09
-1.01728e-08
5.22222e-09
-5.29723e-10
-3.75449e-09
-1.80781e-08
-8.33297e-09
1.56454e-08
8.40763e-09
-7.03098e-09
-1.28732e-08
1.14966e-08
3.03791e-09
9.68505e-10
4.40123e-09
-7.28365e-11
-1.76237e-08
8.58457e-09
-1.30302e-08
1.79241e-09
2.65328e-09
-2.92255e-09
2.47621e-09
9.03089e-09
-6.07252e-10
4.97428e-09
7.10891e-10
-5.07793e-09
2.30003e-09
-2.85447e-09
-5.28273e-11
-9.40417e-09
7.95787e-10
5.68584e-09
-1.59871e-09
-6.41141e-09
-1.39405e-09
7.28276e-09
3.201e-09
-9.69114e-10
-9.51467e-09
6.48158e-09
-1.53488e-09
2.33603e-09
-1.1428e-08
4.98198e-09
3.29201e-09
-4.77419e-10
7.93561e-09
2.04474e-09
3.72532e-09
2.98651e-09
-4.5636e-09
6.07961e-10
1.52316e-09
-7.15667e-11
-3.68639e-09
5.2537e-09
1.36796e-10
-8.58413e-09
-9.84267e-09
4.14845e-09
1.42784e-08
-8.14284e-09
-1.23588e-09
7.94649e-10
1.16151e-08
-1.12361e-08
-8.52179e-09
-6.03267e-09
7.80507e-09
-3.46568e-09
-3.00014e-09
1.06143e-08
5.62122e-09
-6.90359e-09
4.64828e-11
-3.33295e-09
5.4885e-09
-6.00995e-09
-7.62271e-11
5.34845e-11
-5.52654e-09
-3.74638e-09
-1.96321e-09
-6.90717e-09
-4.62934e-09
-4.22712e-09
-2.55786e-09
3.78483e-09
3.15634e-09
-4.49211e-09
-5.56779e-09
-5.70918e-10
3.94351e-10
1.23949e-10
-4.4273e-09
-1.62518e-09
-6.61328e-09
-7.31896e-09
2.55815e-09
3.13565e-09
-3.31021e-09
1.81467e-10
-1.33029e-09
2.52011e-09
3.21703e-09
-4.40688e-09
2.92765e-09
1.94629e-09
-6.20425e-09
-1.04735e-09
5.04465e-09
-1.47721e-09
4.54069e-09
-2.6604e-09
3.02351e-09
2.45008e-09
-3.52731e-09
6.49346e-10
-8.94897e-10
3.66575e-09
7.09916e-12
9.84572e-10
6.28961e-09
-4.05719e-09
5.11341e-09
-1.67877e-09
3.36148e-09
6.70118e-09
-4.94927e-09
-1.01873e-09
-5.06058e-12
-1.12378e-10
-1.19263e-09
-1.75714e-09
9.55859e-10
-1.31881e-09
-8.78103e-09
-7.30161e-10
-3.68404e-09
2.82396e-09
2.69529e-10
-1.74507e-08
-1.64734e-10
-1.21026e-08
-1.50789e-09
2.08766e-08
1.61266e-09
-2.28563e-08
3.67095e-10
6.321e-09
-1.57037e-08
4.03668e-09
-2.42844e-09
2.66484e-09
-9.68568e-09
8.8894e-09
-7.99209e-09
-8.11895e-09
7.22167e-09
-2.25838e-09
-7.33029e-09
1.84781e-08
9.87095e-09
4.39362e-09
-1.13318e-08
-9.15986e-09
-8.10267e-09
1.50041e-08
-4.6101e-09
-4.18648e-09
1.80873e-08
1.3873e-08
-1.64624e-08
-1.59713e-09
-6.10342e-09
-1.26331e-08
1.14062e-08
3.86489e-09
-4.00719e-09
5.77547e-09
-2.76725e-09
-7.96387e-09
1.15276e-08
6.36436e-09
-9.92813e-09
1.35329e-08
-2.04887e-09
9.28034e-09
4.13264e-09
1.60728e-08
-1.05944e-08
1.38745e-09
2.07345e-08
-8.95524e-09
1.18937e-08
3.19841e-10
3.90052e-09
9.52578e-09
3.47666e-09
9.77127e-09
2.07136e-08
-6.3711e-09
-6.28616e-09
1.40445e-08
2.31945e-09
8.35053e-10
5.80442e-09
1.20474e-08
6.03709e-09
-1.03935e-08
-7.69086e-09
-3.21336e-09
3.6888e-09
1.1572e-08
-1.50821e-09
-9.89445e-09
-2.55966e-09
9.46126e-09
-8.6447e-10
-8.61591e-10
9.28324e-09
-3.73009e-09
-4.69133e-09
-3.94597e-09
-3.51469e-09
6.59917e-09
-2.2476e-09
-6.72046e-09
6.10261e-09
-5.12054e-09
9.05424e-09
5.27285e-09
-8.2244e-09
5.36706e-09
1.16043e-08
-2.25844e-09
5.69951e-09
3.21971e-09
1.43872e-08
-9.64371e-09
1.36522e-08
3.42257e-09
-7.79556e-09
1.03721e-08
1.18106e-08
1.55647e-08
5.11934e-11
-1.96372e-09
5.63222e-09
1.03456e-10
9.82909e-09
-1.55426e-08
5.20467e-09
2.54239e-09
-1.03767e-09
-8.80534e-09
-1.09515e-08
1.07635e-09
1.55074e-08
-8.97726e-09
-1.92313e-09
3.4516e-09
7.02408e-09
4.5238e-09
1.0467e-08
-6.81707e-09
1.03032e-08
-7.12763e-09
1.16556e-08
2.48136e-09
-9.91633e-10
6.21708e-09
-8.13999e-09
-1.81307e-08
-4.82461e-09
1.15385e-08
1.14168e-08
-1.20244e-10
-1.25096e-08
-5.50073e-09
-4.35819e-09
7.28977e-09
-1.17981e-08
8.86654e-09
-1.47715e-08
5.58863e-09
-1.5726e-08
3.90915e-09
2.33553e-08
-1.01516e-08
-5.69446e-09
-5.16959e-09
-7.82962e-09
-1.77229e-09
-1.00855e-08
2.12845e-08
-3.16719e-09
1.0842e-08
9.24807e-09
-1.69228e-08
5.32482e-09
-1.86435e-08
1.51967e-08
-1.24601e-08
3.06783e-09
-1.66406e-08
1.84011e-09
3.00235e-09
-7.76575e-09
-1.05527e-08
-9.78656e-09
-1.44111e-08
4.69344e-09
-1.17601e-08
1.25165e-08
5.27673e-09
3.9237e-09
4.09313e-09
6.21866e-09
1.9608e-09
-4.37475e-09
2.12235e-09
2.91733e-10
5.62054e-09
-1.17595e-09
-2.48384e-09
-6.49972e-09
4.89025e-09
5.53329e-09
2.25212e-09
-2.45124e-09
-2.83406e-09
9.2882e-09
4.3488e-09
-1.48618e-08
4.21322e-09
7.81463e-09
-2.39933e-09
-3.54785e-09
5.45576e-09
-2.48346e-09
-1.72907e-09
6.46475e-09
-6.44326e-09
6.28178e-09
6.47331e-09
-4.19886e-09
-2.4534e-09
-6.49077e-09
7.94606e-09
-2.72427e-09
1.26897e-09
7.7562e-09
-5.25514e-09
-8.99184e-09
1.1459e-08
1.64016e-09
-5.34297e-09
6.24029e-09
1.31648e-08
-4.66036e-09
1.98732e-09
-5.12788e-11
-1.49727e-09
-8.41823e-09
5.23355e-09
7.94912e-09
-5.83103e-09
-7.35164e-09
7.48054e-09
-2.59673e-10
-1.39378e-08
4.13071e-09
1.2321e-08
-2.51406e-09
-7.4216e-09
-4.87606e-09
-6.37257e-10
7.37466e-09
1.21172e-09
6.41557e-09
4.27713e-10
-1.45239e-09
1.18234e-08
5.34811e-09
-1.26764e-08
-1.25385e-08
1.04649e-08
4.17145e-09
4.95498e-09
-1.75189e-09
9.13462e-09
-9.94264e-09
-5.02396e-09
6.92021e-09
8.04639e-09
-1.54611e-08
4.52649e-09
9.91937e-10
4.85342e-09
5.58417e-09
-4.73926e-09
-5.69838e-09
-7.73997e-09
-2.86774e-09
1.13542e-09
-5.75233e-10
-6.0249e-09
1.25036e-08
4.41527e-10
5.62642e-09
-7.12481e-09
-8.36848e-09
-1.25212e-09
7.98926e-09
-4.42761e-09
3.47627e-09
-7.41713e-09
4.94322e-09
-4.84534e-10
-9.19796e-09
5.41204e-09
-8.20877e-09
7.54443e-09
1.86649e-09
-3.83914e-09
-5.57178e-09
-4.46106e-09
7.73531e-09
4.27017e-09
-1.45916e-09
4.57953e-09
-9.49168e-09
-5.11731e-10
5.0303e-09
-1.35005e-09
4.30901e-09
-6.85039e-09
1.57387e-08
9.49183e-09
3.04017e-09
8.7695e-10
-1.34088e-08
2.65154e-09
2.77777e-09
7.89487e-09
-1.33242e-08
4.05496e-09
6.58866e-09
-7.99209e-09
-9.22365e-10
9.62883e-09
-4.6515e-09
5.09304e-09
-1.43585e-08
1.06213e-08
-6.45058e-09
-6.49886e-10
1.0961e-08
-2.4162e-09
8.7258e-09
-2.78703e-09
4.55812e-09
6.32858e-09
-1.25788e-09
3.15758e-10
9.20522e-09
9.40167e-09
3.88226e-09
-1.02455e-08
-8.08282e-10
1.17249e-08
-3.06074e-09
8.36936e-10
5.80738e-09
9.43032e-09
-3.75064e-09
-7.35147e-09
7.4172e-09
3.68492e-09
1.39264e-09
-1.06794e-08
5.53616e-09
1.04013e-08
-5.75755e-09
-7.78141e-09
3.13759e-09
8.26804e-09
1.10163e-08
-8.88295e-09
-1.03486e-08
1.072e-08
1.73255e-11
-3.88749e-10
6.7213e-09
-5.22423e-09
-1.18458e-08
5.94654e-09
3.71413e-09
3.22467e-09
-7.79155e-09
-6.11255e-09
-2.91383e-09
-1.21297e-09
4.76047e-09
-4.3327e-10
2.39408e-09
7.61857e-09
7.86193e-09
-3.34482e-09
-1.02043e-08
6.45777e-09
-1.50268e-08
-1.04929e-08
1.09859e-08
-4.75647e-10
8.73664e-09
-1.27718e-08
-3.22562e-09
5.52258e-09
5.32159e-09
-7.22181e-09
-5.37912e-10
4.5341e-09
-4.8433e-09
8.60734e-09
9.79513e-10
-5.60469e-09
-3.49153e-09
-5.59684e-09
1.46931e-08
9.5692e-09
9.08923e-09
-5.77385e-09
-1.28846e-08
3.76009e-09
6.596e-09
-7.86896e-10
-1.49474e-08
1.40375e-08
4.67002e-09
-5.39862e-09
-4.59591e-10
-1.77359e-08
-8.37072e-09
1.25735e-08
1.35331e-08
-1.24583e-08
-1.08822e-08
7.01345e-09
-1.80097e-09
-8.70398e-09
1.0113e-08
7.35644e-09
-1.0456e-08
-1.61104e-08
5.23388e-09
5.10269e-09
2.49115e-09
6.72952e-09
-1.75914e-08
7.84875e-09
-5.22578e-09
7.49008e-09
1.09348e-08
-1.00628e-09
-3.33249e-09
-5.29099e-09
1.94212e-08
-6.28147e-09
8.75228e-09
7.77632e-09
4.56938e-09
1.13963e-09
8.03066e-09
5.32773e-09
2.63562e-09
-9.49085e-09
1.5274e-09
-3.66481e-09
9.62765e-09
-6.35144e-10
-6.59895e-09
5.56973e-09
7.16591e-09
-4.08096e-09
-7.14216e-09
1.76642e-09
4.45908e-09
3.40213e-09
5.24827e-09
2.4664e-09
-2.13251e-10
-1.46433e-08
1.23902e-08
4.08386e-10
-1.27815e-08
1.48395e-08
1.66746e-09
8.62405e-09
-1.05048e-08
-2.39146e-09
-1.26833e-08
1.54831e-08
1.07983e-08
-1.15223e-08
-9.50092e-09
4.13184e-10
-2.92643e-09
-2.47247e-09
-8.12164e-09
1.09319e-09
1.22914e-08
-6.50752e-09
7.00039e-09
-1.27843e-08
4.5109e-09
-1.20319e-09
6.53303e-09
3.52762e-10
3.91248e-09
-8.20223e-09
-8.79723e-09
-1.87747e-09
-2.32886e-09
-1.23003e-08
2.24671e-09
2.9704e-09
-1.03256e-09
-7.9474e-09
2.34649e-09
-1.24476e-08
1.41096e-09
-9.1216e-09
6.67806e-09
-2.19783e-09
4.49346e-10
-6.85564e-09
-1.80335e-09
-5.95178e-09
-8.61324e-09
-3.94427e-09
9.11329e-09
-3.53641e-09
1.09062e-09
-6.66752e-09
-7.30772e-09
7.95752e-09
-8.47034e-10
1.97216e-10
6.22192e-09
-4.41639e-09
1.86533e-09
-7.78152e-09
7.39195e-09
-1.47581e-09
8.22883e-09
-1.4159e-10
-8.92873e-09
4.71593e-09
6.76386e-10
-4.42295e-09
-2.26798e-09
1.04944e-10
3.73866e-09
4.38518e-09
3.59009e-09
3.9068e-09
3.64033e-09
-9.1987e-09
1.44713e-09
-7.80814e-09
5.58565e-09
5.86278e-09
6.27026e-09
-4.48269e-09
-1.09863e-08
-1.7004e-09
1.6248e-10
5.00849e-09
6.68765e-09
-1.99855e-09
7.76204e-09
3.00954e-09
-8.77307e-09
4.13429e-09
-3.50965e-10
-5.78184e-09
-4.64287e-09
2.372e-09
7.85646e-09
-1.33479e-09
4.5309e-09
6.82119e-09
-5.5237e-09
1.24266e-08
-1.12e-08
7.12342e-09
-2.59571e-09
-4.46998e-09
7.14821e-09
2.98304e-09
-7.5872e-09
-2.54409e-09
-2.37573e-09
5.39318e-10
8.98462e-09
7.35585e-09
-4.49809e-09
1.25271e-10
-1.99993e-09
6.98005e-09
-5.31842e-10
8.05513e-09
1.56701e-10
-7.68001e-09
1.3055e-10
8.92724e-09
-9.58964e-09
-7.02374e-09
-1.28519e-09
6.30901e-09
-2.30693e-09
-4.66317e-09
-5.36474e-11
-6.50531e-09
-2.99711e-10
3.71847e-09
-1.08016e-08
-4.89308e-10
7.57248e-09
-1.12219e-08
2.23886e-09
1.27015e-08
-1.39684e-08
3.93993e-10
7.2318e-09
-7.49525e-09
6.55955e-09
-6.00885e-09
1.52433e-10
9.24423e-09
-4.69429e-10
7.18914e-09
-6.46266e-09
-2.4563e-10
-6.20377e-09
4.4293e-09
-4.30739e-09
1.20224e-08
4.00415e-09
4.69778e-09
-3.91811e-09
7.64049e-09
-2.85424e-09
-7.281e-09
2.49475e-09
1.36063e-09
4.54405e-09
1.7359e-09
1.74599e-09
7.06153e-09
-2.48824e-09
6.44996e-09
-1.00288e-08
4.43404e-09
3.3766e-09
3.84122e-09
3.13953e-09
-2.43674e-09
-9.32133e-10
6.68228e-09
-8.15257e-09
1.65192e-09
5.89044e-09
6.10245e-10
-5.84267e-09
2.12417e-09
4.561e-09
1.68215e-08
-4.32864e-09
1.01015e-09
3.92245e-09
-1.1033e-09
1.40027e-08
5.07531e-09
-2.92978e-09
9.74071e-09
1.80528e-09
1.46417e-08
-1.14188e-08
1.71467e-08
-1.27044e-08
8.67137e-09
-3.76543e-09
1.84626e-08
-4.1064e-09
2.30242e-10
7.15592e-09
-3.27977e-09
1.64383e-09
4.89865e-09
-1.06489e-08
-3.64913e-09
6.21675e-09
-2.33737e-09
3.93051e-09
-5.93581e-09
-1.42838e-09
3.95723e-09
-2.75415e-09
2.25255e-10
-2.09387e-09
-5.77779e-09
6.36271e-09
1.50895e-09
-6.25937e-09
-1.57923e-09
1.00205e-09
6.83655e-09
5.64257e-09
4.5881e-09
-5.33203e-09
2.91286e-09
-3.52967e-09
-1.31827e-09
4.28948e-09
-5.83467e-11
2.92648e-09
-3.14243e-10
-1.14965e-09
-9.22953e-09
7.55518e-09
2.82406e-09
-9.55565e-09
6.31215e-09
-1.02238e-08
-5.8497e-10
6.82934e-09
7.06728e-09
-6.74068e-09
1.19369e-09
1.57402e-09
7.23666e-09
-2.59393e-09
4.41646e-09
8.40266e-11
-2.92992e-09
-6.82921e-09
3.98133e-09
5.8121e-11
2.2697e-09
-1.86224e-09
-2.18666e-10
3.59156e-09
-5.05338e-09
1.16459e-08
-1.01843e-08
-1.91104e-09
1.08307e-08
-5.32814e-09
3.74427e-09
5.16197e-09
-4.98647e-10
-8.40773e-09
3.87685e-09
-2.04365e-09
-2.50593e-10
-9.84066e-09
9.41474e-09
6.76461e-10
-6.08798e-09
5.53472e-09
3.02631e-10
-2.42305e-09
-1.14614e-08
4.04372e-09
-9.30503e-09
6.81128e-09
7.06611e-11
8.1704e-09
5.53627e-09
-8.54477e-09
2.74223e-09
2.50405e-09
4.23252e-09
4.09406e-09
5.51629e-09
-1.10684e-08
1.60638e-08
-3.01192e-09
-1.40614e-09
9.87875e-09
8.68912e-09
4.95581e-09
-9.54882e-10
-4.97031e-09
-1.1404e-08
1.01703e-08
-1.77831e-09
7.67761e-09
-1.35654e-08
-1.44452e-08
1.03893e-08
1.42261e-08
-7.72244e-09
-7.38891e-09
-7.46396e-09
-5.27174e-09
-1.15205e-08
-1.18191e-08
4.79999e-11
-1.12932e-08
1.69827e-09
9.54688e-09
1.31128e-08
2.54213e-09
-1.5607e-08
-4.82999e-09
9.97755e-09
-1.60144e-08
1.17459e-08
-9.22843e-09
1.05953e-08
4.59229e-09
1.28561e-08
-2.6532e-09
-1.47952e-08
2.01382e-08
5.92155e-09
-2.14676e-08
-5.69625e-09
-1.12134e-08
9.44565e-09
2.92139e-09
5.86454e-10
4.50527e-10
1.4928e-08
-1.45807e-08
2.19482e-09
2.81072e-09
4.10518e-09
6.52525e-09
7.63962e-09
-2.66675e-10
6.5572e-09
-1.39302e-08
6.81424e-10
7.52241e-09
-5.64224e-10
5.96711e-09
4.62e-09
-1.08538e-08
6.24671e-09
4.01807e-10
4.64347e-09
6.1762e-09
-6.19969e-09
6.91175e-09
-4.58178e-11
-2.2225e-09
-4.7148e-09
7.14445e-09
4.48208e-09
1.6813e-09
-2.19957e-10
3.83946e-09
6.30487e-09
-3.89765e-09
5.51985e-09
8.86344e-13
5.16678e-09
6.28214e-09
-4.89174e-09
8.033e-09
4.65617e-09
7.67683e-10
-2.17492e-10
4.96964e-09
9.32616e-09
-3.08984e-09
-6.16544e-09
7.85313e-10
6.14779e-09
1.4311e-09
-1.29166e-09
-3.83542e-09
-4.03224e-09
5.94695e-09
1.92069e-09
8.35147e-09
-2.86073e-09
8.0638e-10
6.12055e-09
4.41648e-09
-4.15735e-10
5.67458e-09
1.72994e-10
1.12043e-11
6.44868e-09
-1.00116e-09
6.95928e-09
8.15668e-09
-2.83058e-09
-6.31554e-09
5.98048e-09
3.16562e-09
-5.46874e-09
2.81387e-09
-1.75723e-10
-4.01708e-09
1.54482e-10
-2.45296e-09
-3.33925e-09
-6.14656e-09
-7.00455e-10
7.61473e-10
5.91945e-09
-4.8673e-09
6.08989e-11
4.10593e-09
-2.08662e-09
3.31802e-11
5.76659e-09
-1.53105e-09
-1.328e-08
3.94043e-09
-1.14582e-09
6.43926e-09
-2.34434e-09
-3.55103e-09
4.72146e-09
-4.93798e-09
3.76753e-09
-5.51911e-09
-1.1854e-10
-1.59866e-10
7.3606e-09
7.40415e-10
4.04195e-09
5.50804e-09
-1.03783e-08
5.79073e-09
-5.8018e-09
1.19766e-09
6.14317e-09
5.16163e-10
8.37552e-09
-7.6111e-10
-8.13058e-09
4.13313e-09
-3.67847e-09
6.1497e-11
1.59549e-09
-2.77693e-09
9.55691e-09
-3.48666e-10
6.07727e-09
8.0291e-10
4.55186e-09
-1.69714e-09
-3.65766e-09
5.43563e-09
4.36709e-10
-5.06944e-09
1.57509e-09
-9.74537e-09
5.39331e-09
1.95393e-09
-6.8339e-09
6.45505e-09
-3.86306e-09
5.46831e-09
3.64175e-09
-1.88459e-09
-4.27631e-09
1.41168e-09
-6.88074e-09
2.52933e-10
-6.61876e-09
-4.68096e-10
3.16068e-11
-6.34322e-09
-2.52387e-09
5.34922e-09
3.41693e-09
-6.24219e-09
1.7133e-09
-6.7334e-10
-3.56377e-09
5.89799e-09
1.05713e-09
-3.00719e-09
-3.94788e-09
-5.08125e-09
4.64268e-09
6.33662e-09
-2.3108e-09
7.63392e-09
6.72782e-09
-8.74115e-09
3.12676e-09
9.29853e-10
3.5774e-09
-1.21687e-08
4.69246e-09
1.0603e-08
-2.05499e-09
-3.3859e-09
6.06762e-09
-7.30329e-09
-1.54502e-09
2.78074e-09
-3.3521e-10
1.10953e-08
5.2477e-09
-6.13254e-09
2.89493e-09
3.3842e-09
-4.11059e-09
-3.45961e-09
6.01942e-09
-3.61927e-10
3.41629e-10
7.85336e-09
5.32243e-12
9.72959e-09
3.49394e-11
-4.55177e-09
6.08066e-09
-1.51074e-09
-1.81751e-11
1.9612e-09
-6.34269e-09
-1.70293e-10
-4.76842e-09
6.64086e-09
8.87446e-11
1.88323e-09
-1.0475e-08
9.01311e-09
-4.21323e-10
5.31413e-09
-7.72539e-09
2.54436e-09
-1.33164e-10
7.08895e-09
1.08392e-10
2.08068e-09
-4.81486e-09
2.82184e-09
-8.7545e-11
-1.29075e-09
3.35799e-09
1.34486e-11
-4.76012e-09
3.64756e-09
-1.78166e-10
-7.42707e-10
4.80396e-09
-4.07474e-09
1.35349e-11
5.28034e-09
-1.33852e-10
1.04545e-09
-7.6409e-09
6.71408e-09
-1.18649e-10
-5.56043e-09
6.58014e-09
2.57494e-11
-8.7616e-09
4.21887e-09
-1.01772e-09
-4.44451e-09
6.79917e-09
-1.86573e-11
2.1301e-09
-6.4121e-09
-1.62506e-10
-4.54131e-09
6.64777e-09
2.36836e-11
-5.87616e-09
1.38463e-09
-4.97292e-11
-1.50044e-09
-3.227e-09
4.63442e-09
9.30613e-11
3.15789e-09
-4.53644e-09
-1.21844e-10
-7.11791e-10
5.70065e-09
-4.89504e-09
-9.38309e-11
5.00205e-09
-2.25339e-10
1.56707e-09
4.37264e-09
-5.56929e-09
-3.70429e-10
-4.23813e-09
5.95404e-09
-1.48841e-10
-2.37878e-09
6.90493e-09
-4.5443e-09
1.81148e-11
2.30423e-09
-6.13915e-09
3.9588e-09
-1.23852e-10
-2.91556e-09
5.12813e-09
9.16173e-11
-5.17126e-09
-1.2311e-10
2.38289e-10
-6.9648e-09
6.80855e-09
-8.20169e-11
5.70119e-09
-5.41806e-09
-4.48269e-11
2.41856e-09
-6.66057e-09
4.27569e-09
-3.36398e-11
3.91697e-09
-6.23739e-09
2.43897e-09
-1.18528e-10
1.88966e-10
1.16869e-09
-5.03474e-09
4.31932e-10
-3.06364e-09
3.8446e-09
3.8764e-10
1.70207e-09
-4.72213e-09
-4.36533e-11
-1.95285e-09
-6.7957e-09
8.71197e-09
3.65758e-11
-8.36264e-09
6.60577e-09
-1.9601e-10
-1.09541e-09
5.24793e-09
1.65588e-10
3.91706e-09
-5.0452e-09
3.26834e-11
-3.77079e-09
-1.31703e-09
4.68954e-09
3.98256e-10
-1.33531e-09
-3.78955e-09
4.96314e-09
1.61703e-10
-5.06364e-09
-4.24715e-11
1.91266e-09
-5.54367e-09
-1.58596e-10
-4.74612e-09
-9.07276e-10
5.68497e-09
-3.16015e-11
-8.24977e-10
-4.57777e-09
5.39844e-09
4.2819e-12
-5.41733e-09
-1.53812e-10
1.14437e-09
-5.67621e-09
-4.59604e-11
-1.02837e-09
-3.59395e-09
4.52986e-09
9.24341e-11
-5.93959e-09
5.27957e-09
-3.68369e-10
1.59722e-09
2.6769e-09
-4.19953e-09
-7.4724e-11
5.38796e-09
-3.80491e-09
1.41155e-11
-2.70562e-09
5.30058e-09
8.19144e-11
1.93457e-09
-5.94418e-09
4.10351e-09
-9.39137e-11
-4.17341e-09
1.72155e-10
-6.16841e-09
2.04367e-09
-4.86713e-11
1.01863e-09
-7.07775e-09
6.1169e-09
-5.7786e-11
-5.60435e-09
6.61618e-09
6.77954e-12
-6.2671e-10
4.56409e-09
-4.23041e-09
2.9301e-10
4.42258e-09
-5.1651e-09
1.15808e-10
4.40969e-09
3.10216e-10
-1.55848e-10
3.15207e-09
1.77072e-09
-4.85422e-09
-6.86351e-11
-1.60054e-09
4.70048e-09
5.21399e-11
2.8402e-09
-4.33688e-09
-1.03899e-10
-1.49279e-09
4.45332e-09
-1.20346e-10
1.04304e-09
-4.57681e-09
3.55733e-09
-2.35945e-11
5.25978e-09
-4.41444e-09
1.97674e-10
1.12139e-09
-4.98467e-09
3.86085e-09
2.44147e-12
-4.17195e-09
5.20455e-09
8.87767e-11
1.14094e-09
-5.30425e-09
-8.63138e-12
1.19428e-09
4.18628e-09
-5.16343e-09
-2.17162e-10
-4.00187e-09
5.25479e-09
-5.86471e-11
-1.10203e-09
5.3366e-09
-4.83131e-11
2.51408e-09
-7.16881e-09
4.87802e-09
-2.23356e-10
-3.5206e-09
5.99796e-09
3.66131e-11
-7.15016e-09
3.82797e-09
-1.98576e-10
1.79383e-09
-6.05353e-09
4.60737e-09
-3.47701e-10
5.88958e-09
-1.14431e-10
-6.33335e-09
-1.08292e-09
7.39927e-09
1.7039e-11
-1.22735e-09
7.22607e-09
-6.01658e-09
1.78475e-11
-7.54542e-09
-1.52557e-11
4.03411e-09
6.0127e-10
-4.56275e-09
-7.26756e-11
6.46519e-10
-4.94717e-09
4.4216e-09
-1.20989e-10
4.64453e-09
3.60717e-11
-1.82519e-09
-2.89791e-09
4.21303e-11
3.05133e-09
-4.72951e-09
-1.47094e-10
3.36288e-10
-5.1042e-09
4.95614e-09
-1.88253e-10
-3.70137e-09
4.09499e-09
-5.73633e-11
7.93618e-10
-5.16802e-09
4.41592e-09
-4.15739e-11
-4.48056e-09
5.27866e-09
-4.5195e-12
-5.58943e-09
5.40959e-10
-1.19571e-10
9.32225e-10
-4.77868e-09
4.03725e-09
-1.90806e-10
-4.06724e-09
5.01596e-09
-1.65175e-11
-8.86402e-10
5.1589e-09
-4.26992e-09
-2.60695e-12
-5.20887e-09
4.46714e-09
-1.44676e-10
-1.20635e-09
-3.78898e-09
4.96173e-09
3.36065e-11
3.6869e-09
-4.79616e-09
-9.71001e-11
5.10067e-09
-1.52001e-09
1.06224e-10
2.04429e-10
-6.70467e-09
6.51703e-09
-1.67753e-11
-5.00221e-09
5.20241e-09
4.23484e-12
-7.93764e-09
3.18885e-09
-2.53409e-10
1.94338e-09
3.32312e-09
-5.22156e-09
-4.49693e-11
-3.45057e-09
5.16037e-09
2.33553e-10
-3.79143e-09
5.38434e-09
-1.57711e-09
-1.5785e-11
1.54393e-09
-5.27822e-09
-5.71496e-11
5.38603e-09
-4.01948e-09
1.77356e-10
-4.11307e-09
-1.08067e-09
5.16852e-09
2.52287e-11
1.40103e-09
-5.37106e-09
-1.43035e-10
-3.15972e-09
4.56439e-09
-3.63651e-12
-6.89494e-09
3.95645e-09
-2.21219e-10
-1.05133e-09
5.44307e-09
-4.44553e-09
5.37266e-11
-5.27173e-09
4.32658e-09
-1.06221e-10
-1.02266e-09
-3.3401e-09
4.15296e-09
2.09773e-10
2.99005e-09
-4.05463e-09
4.1901e-11
-1.18804e-09
4.21049e-09
-3.24361e-11
2.0312e-09
-5.76845e-09
-1.60429e-10
-2.90132e-09
4.88167e-09
5.08136e-11
-5.25825e-09
2.48751e-09
-1.30617e-10
4.2238e-09
1.30271e-09
-5.49314e-09
-3.34142e-11
1.39078e-09
-6.03083e-09
4.72553e-09
-8.54995e-11
5.51122e-09
1.03344e-10
1.26221e-09
4.20734e-09
-5.45781e-09
-1.18228e-11
-4.7911e-09
5.90919e-09
1.44058e-10
4.20722e-10
-5.13574e-09
-7.61299e-11
4.56765e-09
1.30977e-09
-5.83127e-09
-4.61441e-11
-1.12531e-09
5.5289e-09
1.64053e-10
4.22485e-09
-5.36063e-09
1.0453e-11
5.34619e-09
-1.06854e-09
-5.28224e-11
3.00399e-09
-4.73436e-09
1.72675e-09
3.58749e-12
1.43525e-09
3.48197e-09
-4.78842e-09
-1.28809e-10
4.38483e-09
5.44076e-11
-4.49224e-10
6.3863e-09
-5.87225e-09
-6.48278e-11
6.39425e-09
-1.74356e-10
-7.58343e-10
5.82077e-09
-5.13881e-09
7.63845e-11
4.71412e-09
-5.38994e-09
-8.25329e-11
-2.32877e-09
-3.41381e-09
5.66664e-09
7.59427e-11
-6.19084e-09
4.0648e-09
-2.02739e-10
-5.63281e-09
2.25854e-09
-3.95611e-11
1.69848e-09
-3.96981e-09
2.32524e-09
-5.39343e-11
-3.08645e-09
4.60177e-09
1.83154e-10
1.28853e-09
-5.65293e-09
5.69896e-11
-4.44065e-09
5.51836e-09
2.10816e-10
-1.37819e-09
-4.08921e-09
5.24272e-09
2.24658e-10
4.04329e-09
-5.44984e-09
2.83421e-11
-1.51359e-09
5.48313e-09
7.37257e-11
1.10573e-09
-5.82726e-09
4.8032e-09
-8.16699e-11
-4.44947e-09
5.48683e-09
6.83468e-11
1.61186e-09
4.48815e-09
-6.07216e-09
-2.7859e-11
7.56343e-09
-6.07547e-09
1.23883e-10
-2.83534e-09
7.19203e-09
1.31461e-10
2.85722e-09
3.37184e-09
-6.1698e-09
-5.93002e-11
2.56992e-09
2.85044e-09
-5.29555e-09
-1.24853e-10
5.25213e-09
1.74995e-10
-2.72424e-09
5.59769e-09
-2.30182e-11
-1.07773e-09
-4.56309e-09
5.7282e-09
-8.7443e-11
5.57435e-09
-6.41607e-09
-2.36027e-10
-6.52739e-09
2.3115e-09
-3.47232e-10
2.8871e-09
-4.88888e-09
1.67459e-09
3.2716e-10
-1.73648e-09
4.24204e-09
3.81522e-10
2.76262e-09
-4.41669e-09
-8.2448e-11
-2.06878e-09
4.83591e-09
-4.54883e-12
-1.08607e-09
5.33091e-09
-4.14746e-09
-9.73979e-11
4.6526e-09
-5.33658e-09
-4.02111e-10
2.28902e-09
-6.82146e-09
4.63579e-09