/*--------------------------------*- C++ -*----------------------------------*\
| =========                 |                                                 |
| \\      /  F ield         | OpenFOAM: The Open Source CFD Toolbox           |
|  \\    /   O peration     | Version:  v1612+                                |
|   \\  /    A nd           | Web:      www.OpenFOAM.com                      |
|    \\/     M anipulation  |                                                 |
\*---------------------------------------------------------------------------*/
FoamFile
{
    version     2.0;
    format      ascii;
    class       volVectorField;
    location    "150";
    object      wallShearStress;
}
// * * * * * * * * * * * * * * * * * * * * * * * * * * * * * * * * * * * * * //

dimensions      [0 2 -2 0 0 0 0];

internalField   uniform (0 0 0);

boundaryField
{
    WALL
    {
        type            calculated;
        value           nonuniform List<vector> 
1506
(
(-0.00903401 -0.0115157 -0.00397913)
(-0.00874145 -0.0113708 -0.00417367)
(-0.00829925 -0.0102866 -0.00330028)
(-0.00830055 -0.0106516 -0.00307211)
(-0.0080659 -0.0102264 -0.00314489)
(-0.00825398 -0.0106457 -0.00321896)
(-0.00895445 -0.0118004 -0.00422606)
(-0.00913794 -0.0120531 -0.0046908)
(-0.00853246 -0.0116582 -0.00393092)
(-0.00894679 -0.0119376 -0.00398505)
(-0.011162 -0.0142534 -0.00579411)
(-0.0104137 -0.013554 -0.00547935)
(-0.0109727 -0.0124552 -0.00507209)
(-0.0100309 -0.012344 -0.00438051)
(-0.00963789 -0.0118338 -0.00426785)
(-0.00881095 -0.0120135 -0.0047657)
(-0.00913021 -0.0116699 -0.00411477)
(-0.00854335 -0.0107266 -0.00402317)
(-0.00855527 -0.011203 -0.00383051)
(-0.0101519 -0.0126686 -0.00452141)
(-0.0100996 -0.012148 -0.0044919)
(-0.00994553 -0.0117603 -0.00468236)
(-0.00888968 -0.0111734 -0.00401602)
(-0.00965072 -0.0119498 -0.0037643)
(-0.00974856 -0.0118541 -0.00395988)
(-0.0114645 -0.0140035 -0.00506904)
(-0.0116628 -0.0132727 -0.00561261)
(-0.00848939 -0.0128185 -0.00491726)
(-0.0092303 -0.0135616 -0.00541166)
(-0.00954255 -0.0129559 -0.00516813)
(-0.0098681 -0.0126897 -0.00479021)
(-0.0104091 -0.0139768 -0.00570763)
(-0.0101371 -0.0135441 -0.00544634)
(-0.00985723 -0.0126445 -0.00525611)
(-0.0100015 -0.0132974 -0.00564785)
(-0.0116408 -0.0138571 -0.00473572)
(-0.011859 -0.0137241 -0.00532933)
(-0.0110147 -0.0136753 -0.00449894)
(-0.011622 -0.013268 -0.00568192)
(-0.0103224 -0.0125903 -0.00424399)
(-0.0107513 -0.0130227 -0.0045538)
(-0.0104262 -0.0138279 -0.00517197)
(-0.0106573 -0.0135433 -0.0049205)
(-0.00942209 -0.012293 -0.00547052)
(-0.00935662 -0.011759 -0.00423424)
(-0.00925701 -0.01189 -0.00490521)
(-0.00965197 -0.0118278 -0.00399917)
(-0.00992226 -0.013654 -0.00561493)
(-0.00963642 -0.0125224 -0.00465579)
(-0.00792995 -0.00994408 -0.00328023)
(-0.00810253 -0.0102166 -0.00331574)
(-0.00898651 -0.0106217 -0.00425719)
(-0.00844475 -0.0101613 -0.00364618)
(-0.00725324 -0.00939335 -0.00287096)
(-0.00752628 -0.00993783 -0.00291979)
(-0.00864826 -0.0106736 -0.00385956)
(-0.00813606 -0.00934039 -0.00381694)
(-0.00922482 -0.0120568 -0.00412296)
(-0.00918389 -0.0122552 -0.004118)
(-0.00879841 -0.0116169 -0.0042362)
(-0.0095211 -0.0123794 -0.00430145)
(-0.00923118 -0.0128573 -0.00521878)
(-0.0102154 -0.0139968 -0.00570141)
(-0.00870854 -0.0115673 -0.00422323)
(-0.00863277 -0.0114397 -0.00405379)
(-0.00826377 -0.00997146 -0.00332387)
(-0.00859398 -0.0109373 -0.00332594)
(-0.0103522 -0.0131926 -0.00520031)
(-0.0104697 -0.0129891 -0.00525844)
(-0.0105638 -0.0132426 -0.00478583)
(-0.0100062 -0.0125094 -0.00518383)
(-0.0102556 -0.0131409 -0.00570155)
(-0.0103006 -0.0134023 -0.0053192)
(-0.008739 -0.011055 -0.00454729)
(-0.00901767 -0.0111547 -0.0039532)
(-0.00893595 -0.0112128 -0.00392335)
(-0.00940516 -0.0113282 -0.00385782)
(-0.00876043 -0.0111297 -0.00453782)
(-0.00893054 -0.0108702 -0.0037505)
(-0.00896957 -0.0107859 -0.00415059)
(-0.00881373 -0.0107069 -0.00404104)
(-0.00927112 -0.0111571 -0.00412338)
(-0.00884138 -0.0114964 -0.00398444)
(-0.00881928 -0.0119313 -0.00410385)
(-0.00924595 -0.0116146 -0.00412617)
(-0.00934455 -0.0120804 -0.0041477)
(-0.0086515 -0.0118206 -0.0041983)
(-0.00862733 -0.0113672 -0.00395889)
(-0.0116901 -0.0142153 -0.00564882)
(-0.0119469 -0.0149289 -0.00605608)
(-0.0107586 -0.0134024 -0.00623082)
(-0.0113129 -0.0136226 -0.00596267)
(-0.0109262 -0.0135515 -0.00539952)
(-0.0108001 -0.0134071 -0.00547467)
(-0.0105259 -0.0145026 -0.00620953)
(-0.0102413 -0.0136266 -0.00570868)
(-0.0102798 -0.0134374 -0.00582533)
(-0.0104108 -0.0137793 -0.00447077)
(-0.0106729 -0.0137428 -0.00444741)
(-0.0106422 -0.013704 -0.00431399)
(-0.0106893 -0.0139124 -0.00442483)
(-0.0103102 -0.0137075 -0.00438669)
(-0.0104802 -0.0140473 -0.00456643)
(-0.0119459 -0.0146618 -0.00495089)
(-0.0114657 -0.0141265 -0.00449788)
(-0.0114394 -0.0143714 -0.00464798)
(-0.011868 -0.0142874 -0.00480401)
(-0.0109698 -0.0137884 -0.00434242)
(-0.0118656 -0.0140292 -0.00487306)
(-0.00669072 -0.00892432 -0.00272628)
(-0.00629299 -0.008481 -0.00242449)
(-0.00913373 -0.0120823 -0.00423818)
(-0.00946271 -0.0127 -0.00444505)
(-0.00930395 -0.0127917 -0.00439414)
(-0.00951584 -0.0123168 -0.00416239)
(-0.00990466 -0.0124716 -0.00407731)
(-0.00997585 -0.013511 -0.00457179)
(-0.00958585 -0.0121446 -0.00398839)
(-0.00968898 -0.0121724 -0.00376165)
(-0.00951862 -0.0122068 -0.00399992)
(-0.00953202 -0.0121827 -0.00403033)
(-0.00929151 -0.0119269 -0.00390279)
(-0.00890081 -0.0117496 -0.00408283)
(-0.00906087 -0.0116489 -0.00418995)
(-0.00906718 -0.0122916 -0.0044231)
(-0.00888144 -0.0118859 -0.00439458)
(-0.00933294 -0.0120667 -0.00425764)
(-0.00918847 -0.0119343 -0.00414897)
(-0.00897572 -0.0119712 -0.00446436)
(-0.00909026 -0.0118375 -0.00448782)
(-0.00882425 -0.0113282 -0.00377499)
(-0.00870653 -0.0115329 -0.0037742)
(-0.00849128 -0.0111456 -0.0036827)
(-0.00837207 -0.0108828 -0.00353051)
(-0.0092234 -0.0119607 -0.0037579)
(-0.00832868 -0.0114252 -0.00381422)
(-0.00887184 -0.0109538 -0.00357725)
(-0.00802486 -0.0108482 -0.00358875)
(-0.00886439 -0.0116073 -0.00348343)
(-0.00912481 -0.0115256 -0.00367737)
(-0.00817506 -0.0109989 -0.0032876)
(-0.00849028 -0.0109567 -0.00347729)
(-0.00861561 -0.0106889 -0.00347686)
(-0.00821564 -0.010899 -0.00351336)
(-0.00854238 -0.0110098 -0.0033152)
(-0.00850298 -0.0107408 -0.00346474)
(-0.00864356 -0.0107774 -0.00342973)
(-0.00819475 -0.0106561 -0.00334313)
(-0.00816383 -0.0124211 -0.00427805)
(-0.00842033 -0.0126643 -0.00430502)
(-0.00844857 -0.0127442 -0.00454322)
(-0.00842137 -0.0123293 -0.0044567)
(-0.00795225 -0.0120817 -0.00409003)
(-0.0079733 -0.0124408 -0.00417982)
(-0.00821456 -0.0109666 -0.00371055)
(-0.00813074 -0.0114608 -0.00390797)
(-0.00840635 -0.0118962 -0.0040243)
(-0.00845721 -0.0119076 -0.00366621)
(-0.00870491 -0.0111864 -0.0034775)
(-0.00847782 -0.0114879 -0.0037407)
(-0.00768645 -0.0115169 -0.003571)
(-0.0072745 -0.0106708 -0.00313573)
(-0.00764318 -0.0109576 -0.00323132)
(-0.00776221 -0.0114028 -0.00345422)
(-0.00947651 -0.0111355 -0.0050657)
(-0.00907039 -0.010912 -0.00464575)
(-0.00895007 -0.0105317 -0.00458878)
(-0.00894323 -0.0106243 -0.00378188)
(-0.00804524 -0.00986542 -0.00333554)
(-0.00889834 -0.0104392 -0.00463656)
(-0.00872618 -0.0105644 -0.0037225)
(-0.00813813 -0.00958999 -0.00368092)
(-0.00870277 -0.0102872 -0.00445222)
(-0.00807587 -0.0102399 -0.00325745)
(-0.00805477 -0.0109792 -0.00335575)
(-0.00755039 -0.0103168 -0.00296266)
(-0.00761158 -0.00980531 -0.00311899)
(-0.00822152 -0.0111071 -0.00309938)
(-0.00855277 -0.0103805 -0.00367049)
(-0.00795336 -0.00991997 -0.00327978)
(-0.00821633 -0.00995802 -0.00364975)
(-0.00833573 -0.00962841 -0.00387499)
(-0.00893402 -0.0107357 -0.00383172)
(-0.00788069 -0.0107943 -0.00323967)
(-0.00763368 -0.0106625 -0.00339687)
(-0.00809367 -0.0109574 -0.00331321)
(-0.00826156 -0.011456 -0.00354941)
(-0.00787591 -0.01077 -0.00330952)
(-0.0085617 -0.0115327 -0.00376299)
(-0.00825705 -0.0104512 -0.00319555)
(-0.00816492 -0.010346 -0.00322532)
(-0.00784146 -0.00998649 -0.00302246)
(-0.00817906 -0.0104768 -0.00308483)
(-0.00806376 -0.0104613 -0.00318575)
(-0.00812683 -0.0103693 -0.00317661)
(-0.00822407 -0.0107905 -0.00318016)
(-0.00834418 -0.0107836 -0.00317309)
(-0.00835385 -0.0106193 -0.00330441)
(-0.00838107 -0.0102741 -0.0033805)
(-0.0080106 -0.0106014 -0.00310039)
(-0.00801231 -0.0102104 -0.00317338)
(-0.00802859 -0.0101849 -0.00304305)
(-0.00842041 -0.0106691 -0.00326919)
(-0.00825124 -0.010601 -0.00294012)
(-0.00826945 -0.0104315 -0.00310246)
(-0.0082582 -0.0104076 -0.00311953)
(-0.00865869 -0.0107688 -0.0034409)
(-0.008433 -0.0104223 -0.00348115)
(-0.00844134 -0.0103035 -0.00348756)
(-0.00814136 -0.0106139 -0.00316688)
(-0.00848329 -0.0106201 -0.00331718)
(-0.00811966 -0.0104943 -0.00351924)
(-0.00804915 -0.0107848 -0.0035135)
(-0.00815306 -0.0108118 -0.00343004)
(-0.00808949 -0.0104742 -0.00340369)
(-0.00876997 -0.011219 -0.0035806)
(-0.0080231 -0.0104286 -0.00359021)
(-0.00847261 -0.0112597 -0.00386383)
(-0.00807887 -0.0108981 -0.00375383)
(-0.00852563 -0.0115312 -0.00379907)
(-0.00859163 -0.0112811 -0.00374866)
(-0.00844519 -0.0111575 -0.00381195)
(-0.00960249 -0.0123321 -0.00460919)
(-0.00942524 -0.0126945 -0.00465112)
(-0.00894942 -0.011361 -0.00408863)
(-0.00962532 -0.0122488 -0.00418392)
(-0.00873739 -0.0121488 -0.00457282)
(-0.011706 -0.0154864 -0.00510769)
(-0.0112521 -0.0151789 -0.00499637)
(-0.0124008 -0.0154425 -0.00495985)
(-0.0114674 -0.0153369 -0.00498461)
(-0.011104 -0.0141876 -0.00475941)
(-0.0114895 -0.0146109 -0.00472185)
(-0.01171 -0.0154428 -0.00527888)
(-0.0119281 -0.0152576 -0.00497995)
(-0.0114283 -0.0149273 -0.00494825)
(-0.0115205 -0.0150221 -0.00518171)
(-0.0112153 -0.0148504 -0.00521489)
(-0.0119091 -0.0151568 -0.00483597)
(-0.012509 -0.0156581 -0.00519247)
(-0.0126436 -0.0153417 -0.00519543)
(-0.0125374 -0.0153383 -0.00515263)
(-0.0116088 -0.0147819 -0.00469153)
(-0.011945 -0.0151239 -0.0048945)
(-0.0103208 -0.0135023 -0.00554008)
(-0.00933032 -0.0119208 -0.00474338)
(-0.0102531 -0.0129964 -0.005218)
(-0.00924956 -0.0124278 -0.00534217)
(-0.00988394 -0.0130223 -0.00513005)
(-0.0108993 -0.0144694 -0.00505466)
(-0.0111799 -0.0150635 -0.00537586)
(-0.01113 -0.0148746 -0.00541485)
(-0.0105221 -0.013866 -0.00493578)
(-0.0108086 -0.0148069 -0.00515026)
(-0.0104654 -0.0143721 -0.00537313)
(-0.0113579 -0.013803 -0.0047023)
(-0.0113462 -0.0139264 -0.00453936)
(-0.011631 -0.0140604 -0.00475667)
(-0.011027 -0.0129924 -0.00459025)
(-0.0109791 -0.013296 -0.00446979)
(-0.0114228 -0.0135466 -0.00479194)
(-0.0109545 -0.0140401 -0.0045011)
(-0.0106328 -0.0142759 -0.00483547)
(-0.0102488 -0.0140478 -0.00460822)
(-0.0107341 -0.0142641 -0.00456912)
(-0.0108671 -0.0147631 -0.00497357)
(-0.0113055 -0.0140295 -0.00456262)
(-0.0113014 -0.0146142 -0.00449047)
(-0.0109133 -0.0140275 -0.00450892)
(-0.0107136 -0.0135769 -0.00442336)
(-0.0110749 -0.0140617 -0.00460584)
(-0.00885193 -0.0123416 -0.00476807)
(-0.00863133 -0.0112572 -0.00410324)
(-0.00943124 -0.0129152 -0.00513276)
(-0.00920179 -0.0123904 -0.00474984)
(-0.00938355 -0.0128537 -0.00492466)
(-0.00951513 -0.0128106 -0.00490515)
(-0.00929964 -0.0115995 -0.00412476)
(-0.00878881 -0.0117539 -0.00476756)
(-0.00883177 -0.0121579 -0.00471281)
(-0.00972426 -0.012758 -0.00501774)
(-0.00900091 -0.0118115 -0.0046092)
(-0.00967718 -0.0124264 -0.00432725)
(-0.0100147 -0.013781 -0.00500013)
(-0.0107212 -0.0138228 -0.00492)
(-0.00991119 -0.0133745 -0.00490412)
(-0.0103476 -0.0139583 -0.00496467)
(-0.00985532 -0.0133777 -0.00500036)
(-0.0102341 -0.0136039 -0.00495149)
(-0.00921134 -0.0117412 -0.00430904)
(-0.00951171 -0.013024 -0.00554785)
(-0.00945062 -0.0123496 -0.00457452)
(-0.0102956 -0.0132988 -0.00474164)
(-0.0105803 -0.0132516 -0.0049484)
(-0.00946548 -0.0131724 -0.00543495)
(-0.00957803 -0.0120882 -0.00461926)
(-0.0101684 -0.0125282 -0.00445741)
(-0.00981436 -0.0128894 -0.00525452)
(-0.0105857 -0.0135152 -0.005281)
(-0.0101398 -0.0130849 -0.00462753)
(-0.00962838 -0.0127053 -0.00509747)
(-0.0101408 -0.0119273 -0.00435572)
(-0.00998687 -0.0124471 -0.00418057)
(-0.0105632 -0.0129952 -0.00454277)
(-0.0103842 -0.012154 -0.00439717)
(-0.0104463 -0.0129454 -0.0042279)
(-0.0106886 -0.0127474 -0.0044515)
(-0.00937384 -0.0118696 -0.00379397)
(-0.0102967 -0.0129664 -0.00402509)
(-0.0101581 -0.0134108 -0.00429427)
(-0.0100664 -0.0128787 -0.00399846)
(-0.0099101 -0.0131011 -0.00437592)
(-0.0106481 -0.0126931 -0.00450688)
(-0.00968026 -0.0120727 -0.00404509)
(-0.0100718 -0.0127257 -0.00410186)
(-0.0101509 -0.012804 -0.00406692)
(-0.0102132 -0.0125236 -0.00419173)
(-0.00994161 -0.0126118 -0.00403312)
(-0.0107111 -0.0135645 -0.00421949)
(-0.0103714 -0.0126472 -0.00428237)
(-0.0102624 -0.0127754 -0.0041466)
(-0.00967979 -0.0123845 -0.00387182)
(-0.0099204 -0.0121163 -0.00400256)
(-0.0106681 -0.0128255 -0.00447325)
(-0.00985088 -0.0123612 -0.00405196)
(-0.00968474 -0.0130565 -0.00428863)
(-0.00950892 -0.0130369 -0.00437059)
(-0.00965992 -0.013142 -0.00436454)
(-0.00961056 -0.012822 -0.00433976)
(-0.00988308 -0.0135234 -0.00430557)
(-0.00974472 -0.0131639 -0.00472526)
(-0.00960067 -0.0130906 -0.00461267)
(-0.0096794 -0.0130537 -0.0045665)
(-0.0100632 -0.0136545 -0.00469539)
(-0.0101347 -0.0141305 -0.00493085)
(-0.0100221 -0.0135798 -0.00459797)
(-0.009624 -0.0128169 -0.00453212)
(-0.00960991 -0.0130346 -0.00466634)
(-0.00920171 -0.0127618 -0.0047122)
(-0.00975545 -0.0131678 -0.00461064)
(-0.00915671 -0.0126413 -0.00462653)
(-0.00948496 -0.0128229 -0.00445979)
(-0.0114247 -0.0134426 -0.00497413)
(-0.0110201 -0.0132811 -0.00455441)
(-0.0114181 -0.0138526 -0.00488101)
(-0.011746 -0.0138325 -0.00517689)
(-0.0116001 -0.0137259 -0.00505274)
(-0.0113205 -0.0132846 -0.00498151)
(-0.0119827 -0.0143265 -0.00546409)
(-0.0110722 -0.0136043 -0.00509788)
(-0.0102181 -0.0123888 -0.00554176)
(-0.0105581 -0.0127774 -0.00513468)
(-0.0113656 -0.0132905 -0.00609173)
(-0.0105651 -0.0128053 -0.00471303)
(-0.0106609 -0.0129643 -0.00457109)
(-0.0114644 -0.0137643 -0.00490937)
(-0.0112596 -0.0132791 -0.00464007)
(-0.0100507 -0.0121885 -0.00430394)
(-0.0110263 -0.0126441 -0.00500177)
(-0.0117095 -0.0139498 -0.0059322)
(-0.0111838 -0.0131016 -0.00597271)
(-0.0117399 -0.013994 -0.00470744)
(-0.0111503 -0.0133604 -0.00586258)
(-0.0103062 -0.0127123 -0.00479755)
(-0.0121138 -0.01456 -0.00581532)
(-0.012403 -0.0147065 -0.00656419)
(-0.0113572 -0.0134234 -0.00590495)
(-0.0115493 -0.0137299 -0.00533048)
(-0.0116647 -0.0140683 -0.00489171)
(-0.012292 -0.0154039 -0.00539253)
(-0.0110064 -0.0134186 -0.00458144)
(-0.0125352 -0.0150086 -0.00561903)
(-0.0110743 -0.0139388 -0.00585891)
(-0.0104323 -0.0128726 -0.00478576)
(-0.0113402 -0.0142225 -0.00636178)
(-0.0103857 -0.0129052 -0.00495368)
(-0.0103563 -0.0130169 -0.00596863)
(-0.0110221 -0.0140427 -0.00525217)
(-0.0106936 -0.0136766 -0.00550944)
(-0.0109776 -0.0138339 -0.00638301)
(-0.0109283 -0.0138913 -0.00649126)
(-0.0107466 -0.0135178 -0.00569969)
(-0.00860682 -0.0117079 -0.0046983)
(-0.00916248 -0.0114373 -0.0040611)
(-0.00923607 -0.0122493 -0.00489171)
(-0.00935685 -0.0121138 -0.00514077)
(-0.00889363 -0.0115919 -0.00483264)
(-0.00936552 -0.0120383 -0.00413575)
(-0.00864512 -0.0117969 -0.00451115)
(-0.00923359 -0.0120522 -0.00429955)
(-0.00917526 -0.0119594 -0.00443991)
(-0.00862418 -0.0111837 -0.00400077)
(-0.00871218 -0.0117359 -0.00438399)
(-0.00907165 -0.0118083 -0.00446687)
(-0.00875295 -0.0115118 -0.00411723)
(-0.00908363 -0.0116398 -0.00430694)
(-0.00861986 -0.0121819 -0.00421987)
(-0.00879159 -0.012439 -0.00437507)
(-0.00855272 -0.012216 -0.00435892)
(-0.00850721 -0.012187 -0.00429504)
(-0.00861488 -0.0121992 -0.004534)
(-0.0087905 -0.0122055 -0.00443092)
(-0.00943209 -0.0127081 -0.00524656)
(-0.00897962 -0.0124028 -0.00472483)
(-0.00958641 -0.0122732 -0.00413332)
(-0.00959073 -0.0128382 -0.00486233)
(-0.00948011 -0.0118436 -0.00424282)
(-0.00911479 -0.0121869 -0.0051056)
(-0.00913533 -0.0126968 -0.00510334)
(-0.00941258 -0.0122759 -0.0044695)
(-0.00906719 -0.0119505 -0.00443484)
(-0.00954387 -0.0127087 -0.00449333)
(-0.00846525 -0.0115958 -0.00403182)
(-0.008685 -0.0122107 -0.00433552)
(-0.00857378 -0.0116748 -0.0039196)
(-0.0086271 -0.0117841 -0.00416681)
(-0.00897943 -0.0124039 -0.00454259)
(-0.00887115 -0.0123553 -0.00450433)
(-0.00909517 -0.0121752 -0.00426431)
(-0.00869811 -0.0123444 -0.00443549)
(-0.010413 -0.013208 -0.00516189)
(-0.0100687 -0.0133492 -0.00608691)
(-0.0109816 -0.0136334 -0.00563734)
(-0.0105311 -0.0139512 -0.0054266)
(-0.0103746 -0.013591 -0.00559837)
(-0.0103976 -0.0138914 -0.00626899)
(-0.0101243 -0.0131137 -0.00534837)
(-0.00996759 -0.0128556 -0.00585528)
(-0.00849593 -0.0132571 -0.00517718)
(-0.00898218 -0.0132582 -0.00495791)
(-0.0090266 -0.0133671 -0.00527236)
(-0.00864374 -0.0133403 -0.00526931)
(-0.00925494 -0.0137944 -0.00552039)
(-0.00942982 -0.0134042 -0.00527333)
(-0.00900375 -0.0132601 -0.0054102)
(-0.00925703 -0.0128289 -0.0049982)
(-0.00898873 -0.0123463 -0.00472643)
(-0.00929524 -0.0132177 -0.00522132)
(-0.00974315 -0.0129239 -0.00479136)
(-0.0103933 -0.0119812 -0.00554608)
(-0.0101019 -0.0122203 -0.00421817)
(-0.0107418 -0.0120973 -0.00575789)
(-0.00981943 -0.0117884 -0.00422867)
(-0.010928 -0.0134996 -0.00498293)
(-0.0101445 -0.0119215 -0.00463449)
(-0.0112111 -0.0132351 -0.00500598)
(-0.0111569 -0.0131727 -0.00462676)
(-0.0103045 -0.0126386 -0.00492884)
(-0.00996749 -0.0125644 -0.00496128)
(-0.0101309 -0.0124176 -0.00488421)
(-0.0104636 -0.0126814 -0.00518692)
(-0.0104684 -0.0132043 -0.00520873)
(-0.0102235 -0.0127278 -0.00421371)
(-0.00987085 -0.0118964 -0.00427927)
(-0.0101341 -0.0123256 -0.00411197)
(-0.0100211 -0.0120054 -0.00429821)
(-0.0101896 -0.0122638 -0.00413946)
(-0.0100886 -0.0114152 -0.00463205)
(-0.0105357 -0.0122681 -0.00483064)
(-0.00931908 -0.0112503 -0.00400371)
(-0.00926318 -0.0109424 -0.00472953)
(-0.00941939 -0.0112111 -0.00399062)
(-0.0103808 -0.0122414 -0.0043657)
(-0.0092317 -0.0116026 -0.00399197)
(-0.00976325 -0.0120197 -0.00426055)
(-0.00947016 -0.0123332 -0.00439513)
(-0.00885872 -0.0112297 -0.0047229)
(-0.00853715 -0.0110549 -0.00434749)
(-0.0093767 -0.0117772 -0.00471677)
(-0.00852807 -0.0110592 -0.0038178)
(-0.00946952 -0.0121266 -0.00415023)
(-0.00835334 -0.0115866 -0.00435437)
(-0.00893567 -0.0116918 -0.00416705)
(-0.00858332 -0.0112788 -0.00391121)
(-0.00883226 -0.0111586 -0.00437392)
(-0.00869666 -0.0111799 -0.00424887)
(-0.00895095 -0.0117298 -0.00479299)
(-0.00954748 -0.0123183 -0.00466327)
(-0.0094275 -0.0115724 -0.00420826)
(-0.00928706 -0.0114644 -0.0037076)
(-0.00984321 -0.0118218 -0.00408583)
(-0.0090818 -0.0108535 -0.00376053)
(-0.00943281 -0.0110918 -0.00387077)
(-0.00977128 -0.0117276 -0.0040328)
(-0.00938874 -0.011539 -0.00389461)
(-0.00985881 -0.0120346 -0.00413641)
(-0.00925508 -0.011338 -0.0037521)
(-0.010042 -0.0116991 -0.00428272)
(-0.00984621 -0.0119918 -0.00415811)
(-0.00961023 -0.0118431 -0.00399102)
(-0.0099358 -0.0118716 -0.00406248)
(-0.0099102 -0.0127091 -0.00452981)
(-0.00954957 -0.0115621 -0.00410097)
(-0.0100813 -0.012098 -0.0046783)
(-0.00901567 -0.0114964 -0.00471832)
(-0.00980148 -0.0124915 -0.00457559)
(-0.00877697 -0.0110575 -0.00470324)
(-0.00901689 -0.0108434 -0.00432781)
(-0.00947182 -0.0119712 -0.00386302)
(-0.00986564 -0.0118587 -0.00461191)
(-0.00908453 -0.0108322 -0.00435423)
(-0.0095689 -0.0112271 -0.00435926)
(-0.00971816 -0.0115781 -0.00462312)
(-0.00980947 -0.011785 -0.00401749)
(-0.00866606 -0.0108281 -0.00446102)
(-0.00927982 -0.0115139 -0.00450816)
(-0.00886372 -0.0109944 -0.00473425)
(-0.00890902 -0.0113394 -0.00468489)
(-0.00911499 -0.0115108 -0.00425168)
(-0.00839514 -0.0108682 -0.00472533)
(-0.00942604 -0.0113191 -0.00385164)
(-0.0087254 -0.0109181 -0.00393228)
(-0.00887902 -0.0108894 -0.00381644)
(-0.00873367 -0.0117554 -0.00426271)
(-0.00938279 -0.0119929 -0.00404013)
(-0.00944655 -0.0119346 -0.00440236)
(-0.00886708 -0.0113213 -0.00402829)
(-0.00872193 -0.0117857 -0.00431016)
(-0.00909056 -0.0118378 -0.00423536)
(-0.00844472 -0.0103567 -0.00362668)
(-0.00827969 -0.0103958 -0.00329234)
(-0.00843885 -0.0104534 -0.00312283)
(-0.00780874 -0.0102951 -0.0033425)
(-0.00832629 -0.0109024 -0.00323461)
(-0.00855965 -0.0108915 -0.00348738)
(-0.0081259 -0.0102399 -0.00319001)
(-0.00832627 -0.0103156 -0.00344917)
(-0.00787 -0.0104177 -0.00318725)
(-0.00868337 -0.0104835 -0.00355614)
(-0.00829363 -0.010379 -0.00336263)
(-0.0084888 -0.0103548 -0.00334217)
(-0.00835069 -0.0105943 -0.00336343)
(-0.0081409 -0.0105127 -0.00332813)
(-0.00841299 -0.0106959 -0.00334139)
(-0.00778293 -0.00996463 -0.00316353)
(-0.00807309 -0.0103135 -0.0032422)
(-0.00820205 -0.0105646 -0.00332007)
(-0.00917674 -0.0112716 -0.00456558)
(-0.00869738 -0.0107598 -0.00402965)
(-0.00896349 -0.011126 -0.00398978)
(-0.00877102 -0.0106319 -0.00439131)
(-0.00861372 -0.0107611 -0.00366632)
(-0.0088631 -0.0109055 -0.00335743)
(-0.0083602 -0.0106515 -0.00321003)
(-0.00846066 -0.0108961 -0.00318922)
(-0.00814709 -0.0101391 -0.00316877)
(-0.00848174 -0.0103986 -0.00340763)
(-0.00861724 -0.0106617 -0.00351133)
(-0.00857921 -0.0101875 -0.00347151)
(-0.00909269 -0.0111964 -0.0029117)
(-0.00825575 -0.0108492 -0.00305283)
(-0.00912186 -0.0110888 -0.0038245)
(-0.00836766 -0.0102862 -0.00357617)
(-0.00906164 -0.0108833 -0.00381301)
(-0.00879923 -0.0108812 -0.00392234)
(-0.00968111 -0.0118003 -0.00430863)
(-0.00863426 -0.0114308 -0.00457813)
(-0.00913279 -0.0116099 -0.0039476)
(-0.00874646 -0.0109622 -0.0045873)
(-0.00924216 -0.01116 -0.00385003)
(-0.0087998 -0.0107676 -0.00378205)
(-0.00891959 -0.0109423 -0.00358035)
(-0.00829313 -0.0101721 -0.00372238)
(-0.00911883 -0.0110034 -0.00393863)
(-0.00889625 -0.0110997 -0.00402514)
(-0.00870671 -0.0106112 -0.00413975)
(-0.00887593 -0.0108485 -0.00363504)
(-0.00908307 -0.0112965 -0.00386728)
(-0.00839468 -0.0103088 -0.00324931)
(-0.00893717 -0.0106034 -0.00419357)
(-0.00926758 -0.0111814 -0.00359045)
(-0.00862518 -0.011421 -0.00479187)
(-0.00853875 -0.0105065 -0.00441109)
(-0.0095728 -0.0115388 -0.00405636)
(-0.00855955 -0.0106018 -0.00387082)
(-0.00924482 -0.0116978 -0.00372461)
(-0.00858149 -0.0106054 -0.00361608)
(-0.00821437 -0.0100339 -0.00334106)
(-0.00939911 -0.0111503 -0.00368498)
(-0.00828155 -0.0103814 -0.00302298)
(-0.00860782 -0.0104167 -0.00418557)
(-0.00895166 -0.011359 -0.00354484)
(-0.00851143 -0.00987323 -0.00393024)
(-0.00847781 -0.010631 -0.00313757)
(-0.00896049 -0.0109689 -0.00410852)
(-0.00894253 -0.0110929 -0.00364579)
(-0.00877717 -0.0108599 -0.00298382)
(-0.0095226 -0.0113614 -0.00383184)
(-0.00833466 -0.0103158 -0.00360312)
(-0.00869415 -0.0105298 -0.00341811)
(-0.00821962 -0.0106099 -0.00308764)
(-0.00833045 -0.0107416 -0.00336256)
(-0.00780988 -0.00979543 -0.00309592)
(-0.00849637 -0.010347 -0.00331007)
(-0.00801853 -0.00989878 -0.00323845)
(-0.00842263 -0.0102418 -0.00344675)
(-0.0084803 -0.0116838 -0.00479025)
(-0.00836927 -0.0104791 -0.00365735)
(-0.00933396 -0.0119905 -0.00402844)
(-0.00978147 -0.0117522 -0.00489809)
(-0.00892216 -0.0108144 -0.00392202)
(-0.00948652 -0.0114257 -0.00438057)
(-0.00880914 -0.0107574 -0.00371572)
(-0.00897957 -0.0107491 -0.00463141)
(-0.00932256 -0.0117083 -0.00411244)
(-0.00938852 -0.011561 -0.00438683)
(-0.00892394 -0.0119587 -0.00481171)
(-0.00933301 -0.0121078 -0.00462566)
(-0.00860449 -0.0115199 -0.00453612)
(-0.00832328 -0.0110129 -0.00407548)
(-0.00866396 -0.0111613 -0.00404591)
(-0.00945741 -0.0119881 -0.00517082)
(-0.0108944 -0.0133807 -0.00552378)
(-0.0093228 -0.0116282 -0.00600937)
(-0.00850274 -0.0115261 -0.00376931)
(-0.00866207 -0.0113912 -0.00371226)
(-0.00953781 -0.0113505 -0.00403374)
(-0.00886221 -0.0105093 -0.00392307)
(-0.0089155 -0.0108978 -0.00409546)
(-0.00882918 -0.0105715 -0.00396698)
(-0.0107393 -0.0124418 -0.00492056)
(-0.010228 -0.0120286 -0.00430719)
(-0.0108033 -0.0125503 -0.00476547)
(-0.0102285 -0.0122323 -0.00429583)
(-0.0104393 -0.012733 -0.00470891)
(-0.0104398 -0.0123495 -0.00460939)
(-0.0107263 -0.0123589 -0.0049985)
(-0.0102182 -0.0120695 -0.00429822)
(-0.0103079 -0.0124775 -0.00452913)
(-0.0101506 -0.0114861 -0.00464921)
(-0.0102072 -0.0120401 -0.00416741)
(-0.00969839 -0.0119113 -0.00419925)
(-0.00948268 -0.0112365 -0.00429385)
(-0.00920253 -0.011363 -0.00415555)
(-0.00891238 -0.0119799 -0.00501349)
(-0.00842587 -0.0116543 -0.00504148)
(-0.00928785 -0.0120284 -0.0043425)
(-0.00885181 -0.0118013 -0.00455654)
(-0.0084509 -0.011623 -0.00439237)
(-0.00881317 -0.0111083 -0.0039433)
(-0.00899654 -0.011661 -0.00393672)
(-0.00913898 -0.0117318 -0.00443452)
(-0.00884227 -0.0112513 -0.00493378)
(-0.00923177 -0.0117735 -0.00492471)
(-0.00846654 -0.0111094 -0.00441904)
(-0.00794681 -0.0103222 -0.00321383)
(-0.00841785 -0.0102323 -0.00346379)
(-0.00801633 -0.0100356 -0.00307826)
(-0.0083604 -0.0102237 -0.0032517)
(-0.00908616 -0.0110483 -0.00332173)
(-0.00897587 -0.0109304 -0.00410436)
(-0.00871641 -0.0108324 -0.00354952)
(-0.00895634 -0.0106255 -0.00408677)
(-0.00940431 -0.0117819 -0.00405887)
(-0.00908633 -0.0112339 -0.00387995)
(-0.00878271 -0.0105612 -0.00396613)
(-0.00916362 -0.011347 -0.00450875)
(-0.0089181 -0.0115599 -0.00466501)
(-0.00883247 -0.0111073 -0.00415124)
(-0.00903272 -0.0115375 -0.00461281)
(-0.0093005 -0.011757 -0.00397956)
(-0.00894981 -0.0108887 -0.00340772)
(-0.0084629 -0.0104847 -0.00352837)
(-0.00907548 -0.0114848 -0.00479474)
(-0.00885609 -0.0110232 -0.00416734)
(-0.00917357 -0.0113405 -0.00398304)
(-0.00848298 -0.0104856 -0.00387291)
(-0.00949424 -0.0117221 -0.00452862)
(-0.00804522 -0.010059 -0.00293787)
(-0.00867587 -0.010691 -0.00336544)
(-0.00820957 -0.0102427 -0.00302758)
(-0.00896095 -0.0112178 -0.0034201)
(-0.00849318 -0.0103565 -0.00352785)
(-0.00801691 -0.0100509 -0.00305184)
(-0.00830559 -0.0103801 -0.00318613)
(-0.00839625 -0.0101205 -0.00351822)
(-0.00921607 -0.0113389 -0.00343986)
(-0.0085021 -0.010463 -0.00337827)
(-0.00895605 -0.0108375 -0.00348076)
(-0.00981853 -0.0117375 -0.00369531)
(-0.00868956 -0.0106434 -0.00314766)
(-0.00823747 -0.0105581 -0.00265227)
(-0.00863072 -0.0101626 -0.00379828)
(-0.00817531 -0.00992114 -0.00306281)
(-0.00932118 -0.0110884 -0.00354253)
(-0.0091527 -0.0113608 -0.00390219)
(-0.00822109 -0.0102259 -0.00348347)
(-0.0094057 -0.0112595 -0.00396241)
(-0.00866184 -0.0110998 -0.00327633)
(-0.00866468 -0.0102973 -0.00372447)
(-0.00973772 -0.0115212 -0.00383699)
(-0.0082731 -0.010433 -0.00333344)
(-0.00851656 -0.0103498 -0.00346422)
(-0.00822789 -0.0103077 -0.00317881)
(-0.00850664 -0.0107713 -0.00312597)
(-0.00843608 -0.0109282 -0.00318241)
(-0.00817702 -0.0104559 -0.00318654)
(-0.00803051 -0.0105113 -0.00318384)
(-0.00828408 -0.0105924 -0.00321127)
(-0.00818798 -0.0108092 -0.00313707)
(-0.00821979 -0.0107158 -0.00319386)
(-0.00843561 -0.0107354 -0.00328749)
(-0.00822132 -0.0106739 -0.0030985)
(-0.00813996 -0.0105338 -0.00318217)
(-0.00829106 -0.0104627 -0.00317918)
(-0.00819098 -0.0106792 -0.00291959)
(-0.00837736 -0.0104308 -0.00334993)
(-0.00805196 -0.0101912 -0.00326398)
(-0.00852079 -0.0107157 -0.00331092)
(-0.00783077 -0.00991549 -0.00306173)
(-0.00783053 -0.00994149 -0.00320257)
(-0.00779504 -0.0099171 -0.00301173)
(-0.00842845 -0.0104917 -0.00325739)
(-0.00817884 -0.0100564 -0.00332121)
(-0.00833955 -0.0103333 -0.0033586)
(-0.00825515 -0.0106667 -0.00316526)
(-0.00842618 -0.0104031 -0.00338588)
(-0.00814087 -0.0102564 -0.00338132)
(-0.00826971 -0.0104182 -0.0032301)
(-0.0083132 -0.00995651 -0.00345904)
(-0.0091266 -0.0112759 -0.00385293)
(-0.0089724 -0.0118145 -0.00476363)
(-0.00900681 -0.0117134 -0.00412586)
(-0.00871982 -0.0112959 -0.00402238)
(-0.00892902 -0.0116372 -0.00471011)
(-0.00933719 -0.0113608 -0.00396728)
(-0.00869837 -0.0105654 -0.00396178)
(-0.0097598 -0.0122411 -0.00481793)
(-0.00840029 -0.0105978 -0.00411015)
(-0.0082936 -0.0111415 -0.00454861)
(-0.00928673 -0.0118022 -0.00408063)
(-0.00942644 -0.0112675 -0.00474447)
(-0.00945112 -0.011382 -0.0044015)
(-0.00973977 -0.0117669 -0.00513906)
(-0.0100968 -0.011971 -0.00481154)
(-0.0102814 -0.012035 -0.00523019)
(-0.0086731 -0.010697 -0.00444902)
(-0.0090773 -0.0111562 -0.00431421)
(-0.00887253 -0.0109554 -0.00411587)
(-0.00950092 -0.0113048 -0.0049023)
(-0.0079134 -0.0108065 -0.00418636)
(-0.00998661 -0.0121544 -0.0038616)
(-0.0104403 -0.0131036 -0.00490125)
(-0.00954933 -0.0113462 -0.00384266)
(-0.00935771 -0.0105436 -0.00451177)
(-0.00950137 -0.0119198 -0.00396152)
(-0.0088304 -0.0106402 -0.00389108)
(-0.0100562 -0.0116541 -0.00449227)
(-0.0101577 -0.0116528 -0.0044617)
(-0.00998595 -0.012281 -0.0042241)
(-0.00979474 -0.0128329 -0.00400134)
(-0.00971777 -0.011489 -0.00445116)
(-0.00932938 -0.0114707 -0.00362091)
(-0.00953199 -0.0117514 -0.00408544)
(-0.00947953 -0.011537 -0.00379819)
(-0.0088716 -0.0109148 -0.00423497)
(-0.00882049 -0.010926 -0.0037234)
(-0.00887823 -0.0113118 -0.00422185)
(-0.00856798 -0.0111278 -0.00458558)
(-0.00887271 -0.0116126 -0.0042151)
(-0.00916421 -0.0113464 -0.00391371)
(-0.00956026 -0.012604 -0.00418228)
(-0.00966281 -0.0122732 -0.00470062)
(-0.00823721 -0.0105033 -0.00397337)
(-0.00888327 -0.0106868 -0.00359514)
(-0.00890503 -0.0118725 -0.004505)
(-0.00829644 -0.0117976 -0.00451611)
(-0.00901292 -0.011166 -0.00390893)
(-0.00896041 -0.0114343 -0.00377997)
(-0.00861008 -0.0112657 -0.0040224)
(-0.00885237 -0.0109875 -0.00448048)
(-0.00967312 -0.0118518 -0.00485547)
(-0.00931164 -0.01148 -0.00417343)
(-0.00960051 -0.0121856 -0.00517465)
(-0.0091013 -0.011305 -0.00470023)
(-0.00951699 -0.0120261 -0.00438134)
(-0.00894907 -0.0113455 -0.00504819)
(-0.00917249 -0.0119042 -0.00410674)
(-0.00870059 -0.0113423 -0.0039018)
(-0.00908243 -0.0114873 -0.00410843)
(-0.010115 -0.0116887 -0.00530837)
(-0.0106082 -0.012789 -0.00499243)
(-0.0090531 -0.01117 -0.00432086)
(-0.0105471 -0.0124196 -0.00483756)
(-0.00984432 -0.0122157 -0.00411573)
(-0.0104118 -0.0120915 -0.00464938)
(-0.00987139 -0.0121005 -0.00430719)
(-0.00992506 -0.0117734 -0.00425392)
(-0.00992998 -0.0112838 -0.00531712)
(-0.00909965 -0.0110708 -0.00489909)
(-0.00915766 -0.0112231 -0.00401119)
(-0.00981221 -0.0122492 -0.00439569)
(-0.00915469 -0.0109918 -0.00404448)
(-0.0101525 -0.012344 -0.00497297)
(-0.00915396 -0.0110566 -0.00462109)
(-0.00979978 -0.011582 -0.00487648)