/*--------------------------------*- C++ -*----------------------------------*\
| =========                 |                                                 |
| \\      /  F ield         | OpenFOAM: The Open Source CFD Toolbox           |
|  \\    /   O peration     | Version:  v1612+                                |
|   \\  /    A nd           | Web:      www.OpenFOAM.com                      |
|    \\/     M anipulation  |                                                 |
\*---------------------------------------------------------------------------*/
FoamFile
{
    version     2.0;
    format      ascii;
    class       volScalarField;
    location    "150";
    object      p;
}
// * * * * * * * * * * * * * * * * * * * * * * * * * * * * * * * * * * * * * //

dimensions      [0 2 -2 0 0 0 0];

internalField   nonuniform List<scalar> 
16938
(
3.43047
3.21931
3.31931
3.29197
3.28783
3.28202
3.2886
3.2729
3.28009
3.2731
3.28273
3.2888
3.30144
3.2836
3.28586
3.27369
3.29232
3.29672
3.3426
3.33668
3.32806
3.32175
3.30159
3.29635
3.30066
3.33852
3.33354
3.31386
3.32775
3.31911
3.31548
3.31506
3.314
3.30242
3.31918
3.31356
3.39471
3.39254
3.38755
3.38709
3.39104
3.39676
3.38801
3.38731
3.39018
3.39802
3.39656
3.39233
3.39099
3.39212
3.39631
3.3952
3.39648
3.3327
3.32587
3.32569
3.32715
3.31513
3.32089
3.3232
3.3252
3.33168
3.33439
3.3293
3.34518
3.33337
3.32238
3.33378
3.3158
3.33123
3.32214
3.38016
3.37643
3.38519
3.38263
3.37153
3.37046
3.37541
3.37618
3.36662
3.37913
3.36932
3.36706
3.35813
3.3625
3.3878
3.3856
3.37351
3.38425
3.3954
3.39032
3.39957
3.38442
3.3893
3.36654
3.37198
3.38256
3.39488
3.38058
3.38415
3.33783
3.34076
3.33999
3.33575
3.3447
3.32221
3.31343
3.31647
3.33909
3.3341
3.32723
3.33429
3.32659
3.33352
3.31774
3.34612
3.32479
3.33577
3.34878
3.33409
3.33396
3.33487
3.33589
3.32161
3.33114
3.32605
3.34243
3.31142
3.31671
3.31226
3.32909
3.33643
3.34633
3.3434
3.34416
3.34259
3.34272
3.33722
3.34585
3.34381
3.34062
3.33192
3.34872
3.34847
3.34358
3.34391
3.3398
3.34179
3.33193
3.34209
3.33711
3.3433
3.2697
3.26422
3.28116
3.28991
3.26177
3.29288
3.28102
3.27086
3.26405
3.2844
3.29976
3.30131
3.28115
3.29974
3.29565
3.28992
3.30094
3.29046
3.3524
3.35366
3.35105
3.3539
3.3469
3.34566
3.3487
3.35931
3.36359
3.35991
3.35776
3.35999
3.34855
3.34473
3.34453
3.34434
3.37535
3.37471
3.37562
3.37802
3.37341
3.3685
3.38194
3.3772
3.36526
3.37227
3.38037
3.38658
3.37587
3.38773
3.36928
3.31958
3.31212
3.29165
3.3014
3.35389
3.34429
3.30816
3.32931
3.32509
3.34968
3.33496
3.30498
3.30597
3.30486
3.33491
3.3385
3.32441
3.33127
3.32771
3.30609
3.29832
3.31446
3.31431
3.29596
3.29699
3.29928
3.31261
3.3127
3.29392
3.29532
3.24862
3.23614
3.24977
3.24278
3.24876
3.23579
3.23468
3.2278
3.23792
3.237
3.22922
3.25159
3.25869
3.23602
3.23612
3.24252
3.25609
3.25176
3.3789
3.38647
3.3756
3.37744
3.38153
3.38729
3.37766
3.39256
3.38867
3.39377
3.37358
3.36594
3.37593
3.37512
3.39051
3.38313
3.38641
3.38284
3.38673
3.34736
3.35279
3.36525
3.36487
3.35265
3.35591
3.35705
3.36911
3.37093
3.36085
3.36101
3.35798
3.36244
3.40579
3.40957
3.39416
3.39936
3.39379
3.38143
3.38035
3.37361
3.37695
3.39827
3.40327
3.40937
3.39495
3.40386
3.38124
3.3876
3.37271
3.38632
3.37906
3.35733
3.35363
3.3619
3.36436
3.3593
3.37453
3.35161
3.35377
3.36137
3.36282
3.35964
3.37187
3.38218
3.3609
3.36251
3.36217
3.36734
3.37094
3.41998
3.42359
3.41467
3.41484
3.41409
3.42926
3.41683
3.41384
3.42422
3.40656
3.40414
3.42371
3.41965
3.39942
3.4063
3.40531
3.39929
3.39562
3.40088
3.39497
3.39424
3.39195
3.33449
3.36395
3.35878
3.37148
3.34749
3.3571
3.37322
3.35841
3.36226
3.34427
3.3423
3.35955
3.37528
3.36222
3.31725
3.31697
3.32115
3.31558
3.31655
3.311
3.31333
3.3211
3.31565
3.31098
3.32368
3.30928
3.31117
3.32037
3.33175
3.32176
3.33279
3.31017
3.3063
3.28858
3.2757
3.31378
3.30326
3.28948
3.27039
3.27449
3.3111
3.31866
3.2966
3.28151
3.3034
3.29602
3.2685
3.28076
3.30105
3.27973
3.26754
3.27078
3.26114
3.25941
3.26092
3.26408
3.27049
3.26304
3.27234
3.27734
3.27241
3.27588
3.27323
3.27663
3.25982
3.27728
3.26585
3.26953
3.22735
3.22368
3.22968
3.21456
3.22553
3.23834
3.24165
3.24386
3.2545
3.2458
3.23144
3.23672
3.23434
3.23238
3.23269
3.28711
3.27619
3.2971
3.29469
3.30913
3.31698
3.29941
3.27059
3.2737
3.30525
3.28945
3.289
3.27887
3.2941
3.30745
3.28682
3.28958
3.29321
3.36341
3.3625
3.3555
3.3519
3.3491
3.34799
3.37095
3.34796
3.34174
3.35123
3.35518
3.36857
3.37191
3.37682
3.36017
3.35699
3.37064
3.37612
3.35975
3.36438
3.36037
3.36373
3.36787
3.36087
3.35766
3.35951
3.36628
3.35723
3.34656
3.34733
3.35328
3.3491
3.34667
3.35067
3.34585
3.36216
3.36804
3.35236
3.36632
3.3568
3.34901
3.34987
3.34878
3.35081
3.34475
3.35117
3.3438
3.34274
3.32979
3.34965
3.33707
3.35231
3.34897
3.34117
3.35039
3.34197
3.34771
3.32912
3.33431
3.34153
3.3426
3.3417
3.34143
3.34839
3.34773
3.3506
3.33278
3.32964
3.34385
3.34277
3.3382
3.33482
3.35833
3.35608
3.37594
3.37241
3.35998
3.36847
3.35979
3.37355
3.36968
3.35948
3.35778
3.356
3.36677
3.36488
3.36143
3.3706
3.36456
3.37933
3.35748
3.37303
3.36942
3.36926
3.23311
3.23681
3.23068
3.22642
3.22125
3.21774
3.23408
3.24151
3.2372
3.23627
3.2342
3.24619
3.2409
3.22842
3.24497
3.24234
3.24775
3.23557
3.3599
3.37372
3.36683
3.36769
3.37254
3.36654
3.34965
3.36147
3.37634
3.37415
3.36129
3.36162
3.35247
3.34909
3.3772
3.36679
3.36839
3.36978
3.31091
3.30391
3.31825
3.30921
3.31682
3.30599
3.30421
3.30565
3.30146
3.29717
3.29767
3.3127
3.30051
3.30039
3.29671
3.35465
3.35576
3.35838
3.35024
3.35206
3.34972
3.35704
3.35212
3.35399
3.35381
3.34826
3.32327
3.32353
3.33545
3.33073
3.3306
3.32428
3.32224
3.32064
3.32995
3.32827
3.32884
3.31577
3.30824
3.29904
3.29483
3.31463
3.23192
3.22569
3.24453
3.24078
3.25262
3.22629
3.22367
3.22105
3.23905
3.24921
3.24609
3.22852
3.24053
3.23003
3.23502
3.33158
3.34666
3.32793
3.32871
3.32836
3.34603
3.34111
3.33992
3.33177
3.33296
3.4127
3.41783
3.41294
3.32378
3.32112
3.34558
3.34296
3.31999
3.32485
3.34425
3.3454
3.34223
3.35693
3.3591
3.33759
3.34974
3.36362
3.34106
3.35044
3.31188
3.31361
3.34062
3.30674
3.31587
3.30238
3.30975
3.32382
3.29499
3.29272
3.29461
3.31209
3.30629
3.29495
3.29676
3.32165
3.33565
3.30431
3.31888
3.31395
3.30446
3.33034
3.33594
3.32805
3.33945
3.30639
3.3131
3.30881
3.41275
3.41452
3.41713
3.41501
3.41463
3.41596
3.41746
3.4164
3.4179
3.41759
3.26871
3.25281
3.26602
3.27004
3.26604
3.27378
3.25927
3.26863
3.28749
3.29236
3.27793
3.27994
3.27342
3.25817
3.26692
3.28804
3.28882
3.26426
3.27697
3.27402
3.27347
3.39812
3.40419
3.39469
3.39547
3.38725
3.39518
3.39089
3.39853
3.38128
3.37576
3.3891
3.39083
3.38006
3.38323
3.37885
3.39032
3.38894
3.38908
3.39711
3.39522
3.40153
3.39119
3.39325
3.39527
3.38306
3.39403
3.39267
3.39298
3.39591
3.39559
3.39543
3.38766
3.39146
3.30289
3.31166
3.29575
3.29052
3.2996
3.31372
3.29869
3.27168
3.28649
3.28276
3.27404
3.27397
3.26848
3.29273
3.2727
3.27395
3.24606
3.24845
3.26667
3.27138
3.27515
3.2558
3.25637
3.26591
3.26711
3.24655
3.26296
3.25627
3.24871
3.25342
3.25518
3.29603
3.30242
3.30806
3.29952
3.29452
3.28321
3.2823
3.30132
3.30592
3.31484
3.30569
3.2959
3.31243
3.28897
3.30776
3.29105
3.28687
3.29204
3.28323
3.27705
3.28592
3.29342
3.27936
3.28911
3.30716
3.30136
3.3147
3.309
3.30249
3.29412
3.3096
3.30419
3.3158
3.21927
3.2203
3.23059
3.22662
3.2142
3.22125
3.22464
3.20012
3.20601
3.35263
3.3475
3.3386
3.34106
3.34361
3.34567
3.33684
3.3317
3.33796
3.33282
3.33318
3.34284
3.34884
3.34472
3.34758
3.33716
3.34905
3.3328
3.34128
3.33349
3.32759
3.33248
3.39783
3.40155
3.38139
3.38583
3.39114
3.37631
3.36937
3.39216
3.39194
3.39462
3.37869
3.38812
3.3825
3.37769
3.3744
3.39017
3.39642
3.3877
3.38711
3.37825
3.28284
3.26692
3.25968
3.27009
3.27591
3.27253
3.25974
3.2884
3.27659
3.28593
3.24852
3.26067
3.27143
3.28025
3.26953
3.28982
3.2919
3.3226
3.32211
3.30397
3.2943
3.30697
3.29364
3.31069
3.30631
3.31639
3.30975
3.31337
3.31709
3.31273
3.30446
3.29334
3.29223
3.3076
3.30568
3.30217
3.34694
3.34646
3.3461
3.34359
3.35042
3.34914
3.34909
3.34684
3.34861
3.33
3.31549
3.30928
3.32899
3.29965
3.3247
3.33826
3.3332
3.34465
3.31523
3.32969
3.41656
3.42103
3.42518
3.42711
3.41702
3.42138
3.28775
3.28626
3.29361
3.30592
3.31123
3.31817
3.29457
3.33071
3.31993
3.28728
3.31045
3.30107
3.32106
3.29593
3.31091
3.27294
3.28196
3.27214
3.27512
3.28058
3.27788
3.29706
3.2903
3.29388
3.29834
3.27769
3.26626
3.28679
3.27888
3.25117
3.25653
3.27342
3.25378
3.25177
3.2738
3.27515
3.24036
3.25382
3.27173
3.2442
3.25064
3.33538
3.33158
3.32969
3.32889
3.34476
3.36563
3.35754
3.3664
3.33497
3.35857
3.35931
3.35096
3.35755
3.3518
3.34334
3.35443
3.35818
3.34905
3.34989
3.35461
3.33832
3.36045
3.3546
3.34592
3.35816
3.36601
3.34165
3.3443
3.35014
3.35642
3.35406
3.35048
3.37052
3.38044
3.34929
3.34596
3.37353
3.36855
3.37514
3.35862
3.358
3.35831
3.3981
3.39635
3.40162
3.39615
3.40388
3.40737
3.38774
3.38773
3.38805
3.39031
3.40122
3.4128
3.4047
3.41101
3.41517
3.40077
3.40316
3.40005
3.28862
3.29167
3.30006
3.28362
3.28319
3.31006
3.31966
3.31679
3.29842
3.30759
3.32278
3.3081
3.31539
3.31891
3.32385
3.29397
3.41228
3.41593
3.40227
3.39251
3.40729
3.39699
3.38718
3.39224
3.42256
3.41328
3.40938
3.39817
3.39988
3.39005
3.38896
3.41435
3.39831
3.39817
3.40237
3.37349
3.37671
3.38643
3.37922
3.36667
3.3771
3.37364
3.37752
3.36903
3.37006
3.36524
3.36754
3.38118
3.37087
3.38064
3.37127
3.36061
3.37854
3.38348
3.36102
3.36226
3.3628
3.29231
3.2904
3.30839
3.31718
3.32069
3.31359
3.30406
3.29486
3.29368
3.318
3.32248
3.29276
3.31266
3.29363
3.29248
3.28179
3.3117
3.31184
3.30825
3.29546
3.28687
3.28859
3.30254
3.30713
3.30579
3.31403
3.29115
3.29508
3.30642
3.28953
3.31182
3.29978
3.2788
3.26688
3.28538
3.27199
3.2775
3.2748
3.28664
3.28668
3.27571
3.27766
3.27108
3.27469
3.26938
3.28138
3.27775
3.29543
3.29247
3.29373
3.28117
3.26728
3.26091
3.25265
3.25372
3.24877
3.27625
3.27194
3.25757
3.29456
3.2914
3.26965
3.27772
3.28574
3.19921
3.20685
3.21943
3.21099
3.21466
3.20989
3.21182
3.22935
3.22022
3.21906
3.20859
3.21416
3.21583
3.22009
3.23842
3.23387
3.21342
3.22509
3.23676
3.2411
3.22605
3.22179
3.39306
3.38965
3.39407
3.39536
3.40026
3.39606
3.40228
3.38011
3.37978
3.39234
3.36141
3.36623
3.39209
3.38408
3.37573
3.38038
3.37527
3.37053
3.36531
3.38917
3.3428
3.33257
3.33472
3.31997
3.32322
3.3114
3.31165
3.3253
3.32818
3.34262
3.3286
3.31876
3.31602
3.30856
3.32557
3.30468
3.31098
3.31502
3.31189
3.27809
3.29481
3.28454
3.28245
3.27971
3.28796
3.29794
3.29871
3.30849
3.29814
3.28394
3.30583
3.31427
3.31711
3.31127
3.30302
3.29598
3.29401
3.30731
3.3126
3.31095
3.31602
3.35845
3.36101
3.36816
3.36586
3.36122
3.36203
3.36777
3.3672
3.36761
3.37188
3.35905
3.359
3.35697
3.36094
3.36542
3.36148
3.35271
3.35604
3.35942
3.35506
3.36282
3.36239
3.32007
3.3139
3.32502
3.31169
3.29396
3.29911
3.31985
3.3148
3.3207
3.3168
3.30612
3.29869
3.30459
3.32986
3.32943
3.32302
3.30861
3.32244
3.29912
3.36614
3.36683
3.36293
3.3643
3.35797
3.35335
3.34981
3.34777
3.34
3.3312
3.34381
3.35528
3.35587
3.36826
3.36249
3.36877
3.35459
3.35842
3.34659
3.34055
3.35045
3.36391
3.35874
3.35845
3.36247
3.37563
3.37745
3.35223
3.35445
3.36719
3.36577
3.28546
3.2806
3.18349
3.20557
3.19677
3.36466
3.36443
3.37951
3.37634
3.37276
3.36879
3.36797
3.31659
3.32403
3.32845
3.32336
3.26696
3.26592
3.23128
3.22784
3.34262
3.34748
3.3546
3.33765
3.3696
3.37407
3.36905
3.21226
3.21031
3.22592
3.23187
3.22293
3.22235
3.3829
3.38614
3.38303
3.24875
3.23928
3.24011
3.24232
3.23421
3.32225
3.32028
3.30908
3.22403
3.21989
3.2206
3.22916
3.29137
3.28553
3.27269
3.38334
3.37707
3.37368
3.24464
3.23706
3.22818
3.23128
3.23046
3.23469
3.21935
3.2266
3.3905
3.38976
3.38852
3.38498
3.38818
3.26578
3.2576
3.34833
3.3464
3.34993
3.34549
3.34193
3.32845
3.27714
3.25283
3.26531
3.27188
3.40245
3.40041
3.24601
3.24676
3.2258
3.23916
3.23786
3.3988
3.39618
3.40099
3.3945
3.39794
3.38945
3.35298
3.3546
3.34259
3.38278
3.38193
3.3872
3.38838
3.23886
3.24324
3.40885
3.40747
3.42109
3.4196
3.30938
3.31084
3.39739
3.39539
3.29671
3.3063
3.31919
3.40883
3.40775
3.26742
3.27678
3.34992
3.34892
3.25733
3.26837
3.42414
3.42834
3.43077
3.43389
3.43601
3.40065
3.39925
3.33814
3.33584
3.32725
3.27421
3.27301
3.26157
3.42918
3.42172
3.41703
3.32101
3.30906
3.30848
3.29761
3.4143
3.41641
3.41486
3.41772
3.42352
3.416
3.4376
3.38397
3.37844
3.43849
3.44494
3.45846
3.45967
3.45783
3.45865
3.45102
3.45831
3.45736
3.45225
3.40503
3.41052
3.41
3.29234
3.34014
3.33186
3.32756
3.32863
3.31973
3.3258
3.42085
3.4321
3.43272
3.43616
3.43345
3.43428
3.44008
3.44377
3.44315
3.44812
3.43472
3.44652
3.43248
3.44633
3.43751
3.42957
3.43488
3.43865
3.43151
3.4307
3.45264
3.44856
3.44403
3.44095
3.45774
3.45347
3.45024
3.44833
3.44148
3.43882
3.4402
3.42847
3.43436
3.42899
3.42881
3.44273
3.44229
3.43144
3.42941
3.44402
3.43663
3.25914
3.26309
3.40169
3.39666
3.39906
3.39814
3.39845
3.39706
3.38944
3.39165
3.40062
3.40056
3.40405
3.35888
3.37061
3.35171
3.35512
3.35293
3.37101
3.37532
3.36247
3.37019
3.37505
3.37876
3.37001
3.36337
3.36259
3.34499
3.35479
3.36535
3.37723
3.3726
3.36689
3.37925
3.34633
3.35871
3.36345
3.41428
3.42081
3.42982
3.42606
3.39255
3.39424
3.40249
3.40398
3.40441
3.4083
3.42138
3.41039
3.42031
3.40757
3.44
3.43976
3.43973
3.43423
3.41569
3.41677
3.41276
3.41826
3.41825
3.41614
3.41909
3.41806
3.41607
3.40591
3.40972
3.40757
3.40332
3.40368
3.40689
3.40534
3.41086
3.41298
3.26281
3.2566
3.31986
3.30617
3.30574
3.41173
3.41285
3.41593
3.41982
3.42939
3.42098
3.42226
3.42268
3.4125
3.4156
3.41393
3.42063
3.41638
3.31098
3.31049
3.29905
3.28631
3.28697
3.26992
3.28324
3.27091
3.25525
3.27772
3.27685
3.24885
3.2659
3.26115
3.26438
3.29814
3.28768
3.28117
3.26793
3.27551
3.2942
3.28173
3.2685
3.27069
3.253
3.25611
3.26042
3.2643
3.25959
3.27366
3.25813
3.2685
3.37827
3.37449
3.35566
3.34084
3.31247
3.32574
3.31673
3.3161
3.3438
3.33554
3.33213
3.34384
3.32205
3.33731
3.32706
3.32177
3.34548
3.35583
3.35098
3.40192
3.4062
3.40631
3.38174
3.38921
3.39007
3.39417
3.39647
3.39947
3.40581
3.40016
3.40165
3.4022
3.38673
3.38844
3.3951
3.39455
3.39305
3.39702
3.434
3.43368
3.43549
3.38949
3.39568
3.39841
3.4307
3.43789
3.42335
3.4374
3.4288
3.42238
3.41781
3.40521
3.4089
3.42959
3.42506
3.43904
3.44419
3.4517
3.44036
3.42819
3.43106
3.42739
3.41258
3.43783
3.42831
3.41671
3.43108
3.40973
3.41939
3.4369
3.43071
3.42272
3.40928
3.42098
3.41852
3.41844
3.42439
3.42844
3.42497
3.4308
3.41482
3.42513
3.4129
3.43005
3.43712
3.42349
3.41517
3.43252
3.4344
3.43195
3.42408
3.41167
3.42385
3.43207
3.43296
3.417
3.41659
3.4339
3.42498
3.42027
3.30963
3.30789
3.3073
3.29604
3.30873
3.33289
3.2381
3.24717
3.25833
3.25319
3.26683
3.25068
3.34386
3.3465
3.30721
3.31345
3.31095
3.32439
3.33101
3.32219
3.31497
3.33977
3.33289
3.33898
3.36847
3.36088
3.35134
3.35096
3.3586
3.35766
3.36979
3.35563
3.36055
3.35901
3.35672
3.37062
3.36954
3.24811
3.25966
3.25709
3.27248
3.27902
3.26386
3.26778
3.28995
3.29352
3.29617
3.28513
3.28751
3.30183
3.40611
3.40264
3.40986
3.39807
3.39733
3.40784
3.40116
3.4016
3.4159
3.41234
3.40437
3.40801
3.40512
3.41986
3.41805
3.3318
3.3449
3.33204
3.29191
3.35164
3.3707
3.35469
3.34024
3.36856
3.37505
3.38348
3.383
3.37581
3.39376
3.39935
3.39666
3.39323
3.39521
3.39996
3.39867
3.3951
3.39025
3.38896
3.39558
3.39295
3.39334
3.39086
3.38783
3.39469
3.39447
3.38599
3.38624
3.27676
3.2804
3.26727
3.28709
3.30907
3.30832
3.29374
3.29591
3.28944
3.29698
3.28775
3.28968
3.30085
3.30029
3.2977
3.30409
3.32172
3.32178
3.31505
3.31714
3.31793
3.31072
3.42255
3.42477
3.41938
3.42571
3.41037
3.41476
3.41133
3.40853
3.41345
3.40749
3.41856
3.41759
3.41849
3.41984
3.41815
3.4102
3.40652
3.40752
3.38783
3.38311
3.37767
3.40205
3.40692
3.40131
3.38685
3.40222
3.39915
3.39196
3.39566
3.3888
3.38822
3.40168
3.42147
3.43321
3.4254
3.41669
3.42084
3.42352
3.41321
3.24258
3.25185
3.2462
3.24925
3.23897
3.25002
3.23598
3.23029
3.24775
3.37232
3.37695
3.37296
3.38797
3.39163
3.38608
3.38595
3.37098
3.3771
3.38131
3.3776
3.37838
3.38854
3.38368
3.38142
3.38047
3.38014
3.3848
3.38208
3.31914
3.31812
3.32847
3.3406
3.33079
3.34636
3.3427
3.34031
3.33162
3.35611
3.36391
3.34758
3.34902
3.35596
3.35128
3.36596
3.36613
3.34466
3.34741
3.34579
3.33487
3.33403
3.33502
3.33331
3.34629
3.36142
3.36767
3.36911
3.36012
3.35114
3.40442
3.40632
3.40935
3.40912
3.40532
3.39537
3.41409
3.4029
3.34338
3.35032
3.35241
3.36443
3.38406
3.38339
3.38511
3.3928
3.38797
3.3797
3.37914
3.3808
3.39851
3.4003
3.38856
3.39136
3.39869
3.39008
3.40143
3.39953
3.40814
3.40612
3.40114
3.40558
3.40288
3.396
3.40448
3.38671
3.39369
3.39595
3.39349
3.23541
3.24202
3.2351
3.22498
3.24365
3.22502
3.24736
3.22947
3.24376
3.23558
3.24163
3.26976
3.25742
3.2438
3.2518
3.24796
3.25042
3.25298
3.24789
3.24016
3.24088
3.2416
3.24619
3.24756
3.24964
3.25335
3.2515
3.24694
3.24775
3.23121
3.2445
3.23539
3.2473
3.24352
3.25154
3.23039
3.24107
3.24732
3.25418
3.25393
3.24182
3.24765
3.25546
3.24988
3.24484
3.24726
3.24133
3.25179
3.28169
3.28109
3.26712
3.26621
3.2617
3.25539
3.25529
3.28314
3.28308
3.25491
3.25502
3.26262
3.39128
3.39339
3.40248
3.40273
3.39229
3.40717
3.40089
3.39727
3.38369
3.39085
3.38918
3.38256
3.39834
3.38845
3.39449
3.38565
3.38844
3.39967
3.40804
3.40517
3.39796
3.40205
3.28915
3.29806
3.29133
3.30541
3.32105
3.30677
3.33145
3.2523
3.2573
3.26554
3.26684
3.26439
3.27368
3.3051
3.3078
3.29223
3.32082
3.32367
3.36437
3.36487
3.35794
3.35796
3.36465
3.36718
3.35757
3.36137
3.35453
3.35356
3.34446
3.34371
3.34025
3.35348
3.34937
3.35504
3.35463
3.35595
3.35463
3.34894
3.34653
3.34786
3.35003
3.35524
3.35256
3.34867
3.34453
3.34713
3.35604
3.35208
3.28837
3.28651
3.29962
3.33687
3.33244
3.34707
3.34299
3.31724
3.31076
3.32805
3.31785
3.33104
3.33204
3.3361
3.32445
3.36767
3.36251
3.3717
3.37903
3.37337
3.38187
3.38003
3.36783
3.36858
3.26476
3.25104
3.2582
3.25829
3.25725
3.26513
3.26099
3.2656
3.26166
3.25986
3.2632
3.27679
3.27812
3.26938
3.27851
3.27603
3.25715
3.27396
3.26729
3.26816
3.26012
3.38421
3.38368
3.38791
3.37441
3.38268
3.38356
3.37644
3.39361
3.37553
3.39199
3.38698
3.38476
3.39741
3.38461
3.3785
3.37317
3.38259
3.38221
3.37498
3.36846
3.3841
3.37818
3.3789
3.37183
3.37565
3.38145
3.37682
3.39145
3.38458
3.37197
3.37403
3.37337
3.36738
3.36607
3.38136
3.37113
3.38295
3.37689
3.37875
3.36599
3.37447
3.38584
3.39325
3.38733
3.38757
3.37272
3.3947
3.38544
3.39344
3.38584
3.37684
3.39208
3.3843
3.22446
3.22444
3.22458
3.2375
3.23878
3.23329
3.2382
3.22671
3.22886
3.23474
3.24269
3.24038
3.24319
3.23173
3.23504
3.23567
3.23315
3.24197
3.23932
3.23752
3.23512
3.24693
3.24407
3.23563
3.22254
3.218
3.21882
3.22942
3.24918
3.25998
3.25267
3.23804
3.26498
3.27538
3.38478
3.38212
3.37578
3.38019
3.36359
3.35808
3.37293
3.36113
3.37311
3.37512
3.36322
3.36012
3.3594
3.34896
3.34661
3.36922
3.35906
3.35883
3.36667
3.36429
3.2389
3.23335
3.24595
3.24478
3.2673
3.25991
3.3365
3.33731
3.32632
3.27016
3.27276
3.2653
3.27197
3.25387
3.25003
3.24442
3.31693
3.29484
3.29142
3.30709
3.29771
3.29118
3.28501
3.20884
3.22755
3.22509
3.22311
3.21519
3.21981
3.21449
3.28033
3.29186
3.29232
3.31256
3.31293
3.30696
3.30457
3.35278
3.34954
3.34272
3.34278
3.33451
3.31207
3.3179
3.3156
3.31382
3.31197
3.33083
3.33756
3.31287
3.32306
3.31417
3.32755
3.31532
3.33582
3.33059
3.33037
3.34256
3.32736
3.32791
3.33011
3.32353
3.22762
3.22681
3.23412
3.24024
3.22851
3.23351
3.24469
3.23605
3.23297
3.23674
3.22927
3.22984
3.22738
3.23262
3.23069
3.233
3.23548
3.24315
3.24392
3.2397
3.24212
3.25472
3.24101
3.25404
3.25219
3.25631
3.25604
3.38383
3.38103
3.37501
3.38665
3.39323
3.3873
3.38386
3.38061
3.22159
3.21717
3.21077
3.22349
3.20456
3.2188
3.23311
3.24307
3.23429
3.24093
3.24882
3.23027
3.22223
3.37151
3.36524
3.37726
3.37152
3.35221
3.35936
3.36253
3.36817
3.36191
3.36826
3.36459
3.38768
3.37953
3.37888
3.38314
3.37537
3.37331
3.36583
3.37365
3.36876
3.35263
3.34739
3.31454
3.3286
3.32871
3.33744
3.31187
3.29511
3.32293
3.32607
3.32101
3.31515
3.30892
3.32986
3.32535
3.32834
3.23412
3.21382
3.22305
3.22158
3.22312
3.22932
3.22617
3.23083
3.226
3.23307
3.22598
3.23012
3.2235
3.22878
3.23119
3.23159
3.23305
3.28768
3.24627
3.26024
3.23652
3.24305
3.24328
3.26276
3.26025
3.24285
3.24133
3.24238
3.33775
3.34673
3.3359
3.34447
3.33826
3.34662
3.3351
3.31807
3.32893
3.33293
3.32832
3.32745
3.33111
3.33847
3.3356
3.32802
3.32993
3.31704
3.31436
3.38128
3.38122
3.37103
3.37663
3.36851
3.36774
3.35307
3.37399
3.36313
3.38144
3.36945
3.37331
3.3817
3.37063
3.37357
3.36176
3.37922
3.38586
3.37312
3.36049
3.36011
3.37308
3.36751
3.37774
3.36896
3.36684
3.37222
3.20243
3.18254
3.37922
3.3706
3.38156
3.37041
3.36608
3.36944
3.37717
3.36502
3.36368
3.37653
3.37185
3.36678
3.37897
3.36881
3.3712
3.36663
3.36222
3.35155
3.35593
3.3529
3.34668
3.34888
3.36422
3.35942
3.21996
3.2135
3.21339
3.30689
3.29139
3.28829
3.24634
3.25444
3.26997
3.2535
3.25272
3.26059
3.27014
3.31415
3.32367
3.32463
3.33481
3.33083
3.22408
3.22047
3.21733
3.22414
3.22125
3.3681
3.37899
3.37267
3.3679
3.36715
3.36714
3.38266
3.37356
3.3738
3.36791
3.38125
3.37707
3.36936
3.37963
3.37463
3.37036
3.36774
3.37544
3.3793
3.3712
3.3625
3.35891
3.37184
3.36517
3.34428
3.34188
3.34474
3.35253
3.3501
3.33449
3.32771
3.34116
3.33177
3.26065
3.27525
3.27967
3.26591
3.30203
3.30401
3.30443
3.29532
3.28956
3.29181
3.29735
3.36993
3.3559
3.36347
3.3505
3.36334
3.35891
3.35386
3.35571
3.37405
3.38199
3.36829
3.36847
3.3709
3.37629
3.35897
3.37325
3.36535
3.36121
3.368
3.38199
3.37634
3.36033
3.36376
3.36318
3.36345
3.35816
3.37243
3.36755
3.37712
3.37298
3.36709
3.37169
3.37261
3.36072
3.36681
3.35716
3.35438
3.36001
3.35779
3.36837
3.35694
3.36256
3.36862
3.36324
3.35677
3.36686
3.36165
3.36593
3.35774
3.35771
3.35228
3.36054
3.3588
3.28267
3.29492
3.26642
3.26115
3.2572
3.26644
3.28034
3.27198
3.25946
3.2544
3.26555
3.28612
3.22117
3.21346
3.22034
3.21643
3.22387
3.21521
3.20758
3.20737
3.2204
3.21718
3.22669
3.20521
3.2129
3.21117
3.21525
3.21112
3.20292
3.20648
3.20365
3.214
3.37652
3.37279
3.38219
3.37632
3.38052
3.38276
3.37752
3.38993
3.38214
3.38211
3.37128
3.37682
3.23722
3.23847
3.2416
3.23938
3.24398
3.23325
3.23697
3.26017
3.25941
3.25687
3.26339
3.25124
3.25715
3.35197
3.35057
3.35458
3.35361
3.34271
3.34111
3.34612
3.35209
3.35342
3.30216
3.33849
3.33683
3.33769
3.3406
3.3297
3.318
3.33018
3.31948
3.31465
3.29989
3.33274
3.32388
3.33519
3.32846
3.34371
3.33721
3.34297
3.32932
3.34376
3.34734
3.35318
3.34816
3.33918
3.34597
3.35181
3.33938
3.35453
3.36062
3.33795
3.35522
3.3445
3.39067
3.37996
3.37138
3.3872
3.3763
3.37101
3.38264
3.37075
3.38346
3.37534
3.37958
3.3674
3.27964
3.26835
3.2597
3.26803
3.26915
3.27796
3.28029
3.27428
3.26881
3.25945
3.25917
3.26206
3.25819
3.37059
3.37499
3.37391
3.3771
3.38735
3.39796
3.4014
3.3895
3.40165
3.38674
3.36923
3.36349
3.3674
3.37566
3.37819
3.36958
3.37514
3.37045
3.3734
3.37275
3.38793
3.383
3.39345
3.37943
3.37848
3.37788
3.37194
3.3735
3.36959
3.38237
3.37871
3.26874
3.26908
3.27276
3.26359
3.27572
3.28114
3.28477
3.28761
3.3431
3.34631
3.34082
3.33151
3.33066
3.34779
3.33669
3.35751
3.35263
3.35339
3.30283
3.28867
3.31315
3.29315
3.31656
3.31291
3.31169
3.31376
3.32396
3.31986
3.32045
3.32879
3.27866
3.29842
3.29314
3.28454
3.28228
3.28407
3.27743
3.28015
3.29382
3.29421
3.29558
3.29737
3.32503
3.33537
3.33229
3.30742
3.31234
3.32642
3.33786
3.33831
3.3416
3.31831
3.30976
3.30888
3.31917
3.32515
3.31707
3.32432
3.31741
3.26442
3.2796
3.24858
3.25882
3.25634
3.24682
3.25609
3.24693
3.25869
3.28308
3.28051
3.27974
3.28471
3.29661
3.28284
3.39567
3.39775
3.38928
3.39495
3.4028
3.40009
3.39811
3.38988
3.40129
3.38465
3.38793
3.39954
3.38646
3.39347
3.38593
3.40556
3.39146
3.37282
3.36785
3.36504
3.35851
3.37109
3.36709
3.3731
3.35718
3.35267
3.40744
3.39516
3.41972
3.41682
3.407
3.42024
3.41122
3.36748
3.36657
3.36733
3.36608
3.37591
3.37661
3.37648
3.37896
3.37466
3.35917
3.36379
3.36664
3.36639
3.36177
3.35946
3.35153
3.35577
3.36025
3.35785
3.36284
3.3642
3.36269
3.35998
3.37035
3.36955
3.35255
3.3577
3.35811
3.36165
3.35625
3.37472
3.38055
3.37579
3.37871
3.37341
3.37918
3.37559
3.37113
3.37139
3.36599
3.37322
3.3715
3.3997
3.3923
3.38744
3.3828
3.39169
3.38503
3.3779
3.37609
3.38585
3.38122
3.37909
3.38574
3.38436
3.38676
3.38933
3.38245
3.37262
3.37759
3.37374
3.37498
3.36333
3.36832
3.37166
3.36825
3.36251
3.36658
3.25205
3.2476
3.24851
3.2468
3.24493
3.25543
3.25663
3.25853
3.25493
3.26394
3.26308
3.25798
3.25076
3.26571
3.32773
3.35178
3.3567
3.36153
3.34039
3.36687
3.37344
3.33511
3.34304
3.34569
3.4023
3.40014
3.41066
3.42478
3.42026
3.41171
3.41795
3.41392
3.42093
3.42878
3.42965
3.41745
3.42435
3.4102
3.30909
3.31795
3.31111
3.30856
3.31471
3.32945
3.31558
3.28217
3.27795
3.27403
3.28352
3.28005
3.28406
3.27901
3.27993
3.29171
3.30242
3.29504
3.2973
3.29827
3.30233
3.27278
3.27349
3.27511
3.26166
3.28465
3.28322
3.27735
3.27825
3.29183
3.39171
3.39776
3.39779
3.3947
3.3867
3.39701
3.39395
3.39715
3.40058
3.40102
3.36499
3.35207
3.33708
3.35104
3.3443
3.32671
3.327
3.34276
3.28124
3.29376
3.26898
3.27879
3.26738
3.26553
3.26825
3.26501
3.27136
3.3021
3.30744
3.30828
3.31093
3.30709
3.30712
3.29259
3.29851
3.31472
3.31289
3.2942
3.29823
3.25639
3.2584
3.24518
3.24315
3.24019
3.25202
3.35917
3.35287
3.35291
3.34245
3.33855
3.34229
3.3382
3.33959
3.33109
3.31568
3.33344
3.32998
3.43176
3.43594
3.4328
3.42726
3.41171
3.41857
3.41666
3.42357
3.42019
3.40907
3.41162
3.42232
3.41347
3.42403
3.41031
3.40936
3.41721
3.40864
3.42426
3.41508
3.41
3.40511
3.42933
3.42557
3.41045
3.42663
3.42061
3.41869
3.40991
3.42286
3.41202
3.42126
3.41333
3.42
3.4126
3.39844
3.41011
3.39254
3.39951
3.41935
3.41819
3.39922
3.40523
3.41136
3.44344
3.43867
3.41842
3.42241
3.42793
3.4414
3.43003
3.3723
3.37647
3.37734
3.38519
3.37775
3.38403
3.38397
3.38338
3.38424
3.3836
3.38075
3.40481
3.41003
3.40609
3.40614
3.40226
3.401
3.4031
3.40532
3.40497
3.39792
3.40029
3.40451
3.40618
3.404
3.39952
3.39512
3.39659
3.3997
3.39941
3.36655
3.36734
3.37691
3.28231
3.28546
3.26005
3.26892
3.27088
3.27093
3.26771
3.26944
3.28259
3.26118
3.26445
3.26072
3.25974
3.26524
3.26167
3.24762
3.2724
3.27357
3.26959
3.25482
3.2596
3.25771
3.26613
3.27316
3.26715
3.27329
3.28647
3.27509
3.26761
3.25597
3.27029
3.27423
3.27844
3.25614
3.25334
3.24982
3.26043
3.25239
3.25532
3.27271
3.26562
3.31593
3.31207
3.29783
3.29149
3.30132
3.29741
3.31183
3.31197
3.30466
3.3172
3.32865
3.30887
3.30908
3.32076
3.33109
3.32021
3.30571
3.31674
3.32046
3.32171
3.32288
3.41145
3.41277
3.40702
3.4145
3.40319
3.42171
3.41648
3.41552
3.4117
3.42027
3.41319
3.40716
3.40602
3.42559
3.42118
3.42165
3.42121
3.42164
3.41077
3.4224
3.41403
3.40582
3.41557
3.41326
3.4115
3.41214
3.41002
3.4161
3.41344
3.40065
3.40097
3.40494
3.40524
3.40449
3.4121
3.40818
3.40539
3.37334
3.38153
3.37152
3.36475
3.35465
3.28515
3.27422
3.27958
3.27535
3.29501
3.45166
3.44905
3.46333
3.44841
3.4366
3.43512
3.45123
3.42252
3.44903
3.42639
3.43556
3.43172
3.39797
3.40346
3.36213
3.3681
3.38772
3.37662
3.37513
3.38189
3.36671
3.39874
3.38663
3.38377
3.40277
3.40369
3.38929
3.37847
3.36895
3.39647
3.40272
3.38174
3.38034
3.39348
3.32232
3.34129
3.3328
3.33554
3.32819
3.34441
3.35328
3.34023
3.34314
3.3409
3.32456
3.33754
3.35682
3.35234
3.37758
3.36893
3.36063
3.39362
3.38182
3.38812
3.39473
3.39896
3.39047
3.39095
3.44186
3.44898
3.44834
3.44216
3.44224
3.43683
3.4348
3.43637
3.43137
3.43832
3.43252
3.44621
3.44199
3.42026
3.43911
3.43458
3.43809
3.42588
3.43412
3.42389
3.41617
3.42567
3.41899
3.41646
3.42628
3.42134
3.43332
3.43151
3.42788
3.42604
3.42197
3.43004
3.42408
3.42231
3.42009
3.41705
3.41756
3.42287
3.42493
3.41553
3.41784
3.42426
3.41998
3.40213
3.40942
3.40857
3.40907
3.40403
3.40232
3.40351
3.40827
3.40682
3.40301
3.4034
3.43164
3.44103
3.44075
3.4502
3.44057
3.45142
3.4463
3.45744
3.44467
3.44846
3.44622
3.4036
3.40659
3.40914
3.40526
3.41253
3.41103
3.40919
3.40898
3.40657
3.40506
3.40735
3.37109
3.37293
3.37658
3.37612
3.37399
3.37679
3.36568
3.36334
3.36583
3.35981
3.30997
3.3145
3.29807
3.29968
3.32155
3.325
3.30204
3.30191
3.32706
3.33175
3.31864
3.38512
3.39256
3.38954
3.39482
3.3923
3.38491
3.38194
3.39291
3.38845
3.37985
3.39322
3.38532
3.38084
3.37256
3.37805
3.39251
3.38321
3.3728
3.37918
3.28131
3.26038
3.26379
3.26038
3.28029
3.28485
3.28698
3.28899
3.27558
3.2667
3.28107
3.29735
3.28826
3.29801
3.29872
3.30435
3.24653
3.23693
3.25116
3.26721
3.25003
3.23996
3.2548
3.25813
3.26171
3.27085
3.2428
3.24021
3.21731
3.21369
3.21255
3.2434
3.22875
3.23896
3.24604
3.23117
3.22712
3.20253
3.19801
3.19913
3.1916
3.20811
3.19781
3.20155
3.18923
3.36127
3.35271
3.35104
3.36074
3.36079
3.35597
3.35595
3.36025
3.34902
3.35561
3.35715
3.36048
3.43622
3.43934
3.4307
3.40191
3.40276
3.40308
3.36238
3.34359
3.35103
3.37091
3.36467
3.36326
3.36989
3.42574
3.41965
3.42867
3.43141
3.43007
3.41477
3.41348
3.41506
3.40998
3.41533
3.40964
3.41118
3.41684
3.41732
3.41473
3.41045
3.41091
3.41304
3.40659
3.40981
3.41418
3.4118
3.41302
3.41332
3.41402
3.41414
3.41285
3.4062
3.40762
3.40985
3.40835
3.40887
3.30508
3.27992
3.30289
3.27893
3.29501
3.40181
3.40607
3.40532
3.40862
3.41465
3.41271
3.41894
3.41629
3.41602
3.4141
3.41309
3.41042
3.40834
3.41533
3.41374
3.28967
3.28753
3.35845
3.35638
3.3604
3.37245
3.34801
3.35692
3.37377
3.37062
3.36641
3.37112
3.36237
3.36001
3.37034
3.36966
3.37819
3.36892
3.36958
3.35944
3.36095
3.37463
3.37786
3.32118
3.32153
3.33473
3.33164
3.3438
3.32606
3.32753
3.3352
3.34254
3.32905
3.32045
3.39546
3.43186
3.43943
3.44905
3.4449
3.43825
3.4302
3.44663
3.434
3.33386
3.38919
3.37637
3.37395
3.38607
3.39382
3.38619
3.38499
3.37729
3.37797
3.37808
3.38587
3.3819
3.38084
3.39371
3.39085
3.40866
3.40073
3.40701
3.39206
3.40484
3.4129
3.40233
3.39969
3.39248
3.40189
3.4055
3.39906
3.41914
3.40539
3.41739
3.40647
3.41382
3.4068
3.40376
3.41831
3.40821
3.40477
3.40771
3.40598
3.40441
3.38651
3.39607
3.40544
3.39856
3.38908
3.4031
3.38359
3.37673
3.36678
3.36
3.34478
3.35074
3.37519
3.3782
3.36456
3.3576
3.35007
3.37097
3.41328
3.39359
3.3928
3.39225
3.39195
3.38616
3.38903
3.38993
3.3869
3.38513
3.38763
3.38491
3.38358