/*--------------------------------*- C++ -*----------------------------------*\
| =========                 |                                                 |
| \\      /  F ield         | OpenFOAM: The Open Source CFD Toolbox           |
|  \\    /   O peration     | Version:  v1612+                                |
|   \\  /    A nd           | Web:      www.OpenFOAM.com                      |
|    \\/     M anipulation  |                                                 |
\*---------------------------------------------------------------------------*/
FoamFile
{
    version     2.0;
    format      ascii;
    class       volVectorField;
    location    "100";
    object      wallShearStress;
}
// * * * * * * * * * * * * * * * * * * * * * * * * * * * * * * * * * * * * * //

dimensions      [0 2 -2 0 0 0 0];

internalField   uniform (0 0 0);

boundaryField
{
    WALL
    {
        type            calculated;
        value           nonuniform List<vector> 
1552
(
(-0.0139814 -0.0159726 -4.05319e-05)
(-0.022169 -0.0157472 0.000474672)
(-0.0219178 -0.0146609 -0.000912745)
(-0.0191755 -0.0124586 -0.00132474)
(-0.0201256 -0.0138815 -0.000897033)
(-0.0153229 -0.0133134 0.00491405)
(-0.0147142 -0.0130804 0.00478499)
(-0.0206887 -0.0166736 0.00475424)
(-0.0169564 -0.0103986 0.00769236)
(-0.015021 -0.0117069 0.00807877)
(-0.00473527 -0.0115808 -0.00164963)
(-0.00533479 -0.0109593 -0.00255652)
(-0.0106033 -0.0102819 -0.0133548)
(-0.0102403 -0.0186561 -0.00413074)
(-0.0105841 -0.0193896 -0.00252626)
(-0.019753 -0.0137877 -0.00114258)
(-0.0200383 -0.0129253 -0.00306089)
(-0.0147749 -0.0190388 -5.19138e-05)
(-0.0144052 -0.0214203 -0.00131007)
(-0.016728 -0.0194122 0.000117195)
(-0.0174733 -0.0172925 0.000796812)
(-0.0195278 -0.0148733 -0.00232005)
(-0.0180797 -0.0164462 -0.00134466)
(-0.0193486 -0.0141338 -0.00332252)
(-0.0184911 -0.0164229 -0.0027751)
(-0.0216919 -0.0173995 0.00316232)
(-0.0209401 -0.0159325 0.00183533)
(-0.0211445 -0.0159913 0.000842156)
(-0.0187203 -0.0171103 0.000712287)
(-0.0201558 -0.0128277 -0.000282515)
(-0.0216296 -0.0136856 0.000850592)
(-0.0166975 -0.0154641 9.54963e-05)
(-0.0160852 -0.0145544 0.00133321)
(-0.017466 -0.0124456 0.00238875)
(-0.0200364 -0.0121472 0.00103461)
(-0.00403158 -0.0115692 0.00122137)
(-0.00443377 -0.0119708 0.00243047)
(-0.00447883 -0.0117079 0.00306839)
(-0.00538978 -0.0121045 0.00507526)
(-0.0194058 -0.0125494 -0.00111553)
(-0.0180759 -0.0134949 0.000233245)
(-0.0161905 -0.00807233 0.00101176)
(-0.0174521 -0.00850318 0.00327209)
(-0.0201092 -0.0107542 0.00245504)
(-0.0185346 -0.00911363 0.0008111)
(-0.00424744 -0.0102882 0.00108388)
(-0.00387635 -0.00945753 0.000259632)
(-0.00477202 -0.0103452 0.00133776)
(-0.00445848 -0.0103282 0.00181497)
(-0.00434848 -0.00988307 0.000364468)
(-0.0042889 -0.00958872 -0.000427576)
(-0.00368332 -0.00764845 -0.0050477)
(-0.00341685 -0.00780669 -0.00395298)
(-0.0035965 -0.0076635 -0.00438443)
(-0.00331303 -0.00758758 -0.00454307)
(-0.00328996 -0.00791623 -0.00411556)
(-0.00381896 -0.00742422 -0.00486369)
(-0.0199351 -0.0108359 0.00122756)
(-0.0185559 -0.0125293 0.00180762)
(-0.018769 -0.010542 0.00220745)
(-0.0187628 -0.0117147 0.00313776)
(-0.0175257 -0.0117883 0.00330237)
(-0.0209733 -0.0121908 0.000704562)
(-0.0141877 -0.0111876 0.00844209)
(-0.0130896 -0.0117088 0.00723805)
(-0.0132207 -0.011054 0.00852783)
(-0.0128466 -0.0124648 0.00828406)
(-0.0110235 -0.0117774 0.00822706)
(-0.0118672 -0.0119118 0.00747486)
(-0.0133451 -0.00946339 0.0104938)
(-0.0153221 -0.00919557 0.00941619)
(-0.0160681 -0.0090178 0.00870347)
(-0.0140853 -0.00980046 0.0105242)
(-0.0148376 -0.00968779 0.0104761)
(-0.0155669 -0.00867205 0.00915202)
(-0.0105517 -0.0124459 -0.00390578)
(-0.00803231 -0.0117603 -0.0036093)
(-0.0109192 -0.0111822 -0.00437474)
(-0.0091097 -0.0111423 -0.00433306)
(-0.00832334 -0.011758 -0.00407076)
(-0.0116553 -0.0118226 -0.00393352)
(-0.0182082 -0.0178677 0.00121608)
(-0.0206258 -0.0187074 0.00113998)
(-0.0199684 -0.0160912 0.000672461)
(-0.0194943 -0.0183172 0.000998102)
(-0.0204178 -0.0163658 -0.000169959)
(-0.0197614 -0.0169891 0.000655474)
(-0.00591761 -0.00741183 -0.00546089)
(-0.00571376 -0.00747346 -0.00537399)
(-0.00686463 -0.00850369 -0.0061528)
(-0.0072757 -0.00769082 -0.00635148)
(-0.0064993 -0.00742381 -0.00604019)
(-0.00755268 -0.00788493 -0.00630267)
(-0.00574542 -0.00927521 -0.00366384)
(-0.00587996 -0.00901502 -0.00415538)
(-0.00461534 -0.00908419 -0.00296873)
(-0.00474481 -0.00925236 -0.00272784)
(-0.0055126 -0.00938683 -0.0032629)
(-0.0047597 -0.00862613 -0.00336621)
(-0.019334 -0.0128504 -0.00492026)
(-0.0184831 -0.0109843 -0.0064835)
(-0.0185593 -0.0106244 -0.00696602)
(-0.0186971 -0.0114332 -0.00641177)
(-0.0191639 -0.0125943 -0.00567135)
(-0.018991 -0.011626 -0.0052283)
(-0.0103589 -0.00720892 -0.00795611)
(-0.00756901 -0.00710821 -0.00735668)
(-0.00739218 -0.0073739 -0.00785056)
(-0.00818796 -0.00672287 -0.00783933)
(-0.00989584 -0.00733825 -0.00849094)
(-0.00936759 -0.00705833 -0.00765799)
(-0.0183127 -0.0101363 -0.00653894)
(-0.0179183 -0.0100085 -0.00501136)
(-0.0173407 -0.0103956 -0.00718196)
(-0.0183194 -0.0103789 -0.0055666)
(-0.0168305 -0.009989 -0.00679746)
(-0.0179616 -0.0101349 -0.0060989)
(-0.00413627 -0.00863826 -0.00222219)
(-0.00430007 -0.0086319 -0.0029343)
(-0.00380403 -0.00830787 -0.00253474)
(-0.00380659 -0.0078048 -0.00290016)
(-0.00400455 -0.00892877 -0.00218179)
(-0.00375275 -0.00792288 -0.00295114)
(-0.00577624 -0.0112691 0.00599254)
(-0.00588534 -0.0124158 0.00706334)
(-0.0064668 -0.0118407 0.00783261)
(-0.00689048 -0.012106 0.0071091)
(-0.00510263 -0.0120075 0.00564463)
(-0.00995396 -0.0195376 -0.00299213)
(-0.0112619 -0.0210181 -0.0029049)
(-0.0128688 -0.0208564 -0.00122027)
(-0.012596 -0.020057 -0.00128669)
(-0.0105659 -0.0188508 -0.00193513)
(-0.0114093 -0.0198484 -0.00211738)
(-0.0098123 -0.0173529 -0.00456929)
(-0.00956853 -0.0175117 -0.00350642)
(-0.0100442 -0.017663 -0.00495206)
(-0.00965038 -0.0182522 -0.00312632)
(-0.0104264 -0.0191733 -0.00378314)
(-0.00999984 -0.0182706 -0.00478913)
(-0.0141229 -0.0206934 0.00347155)
(-0.0140047 -0.0209711 0.00206998)
(-0.0123756 -0.0207435 0.00101917)
(-0.0138712 -0.0212445 0.00273183)
(-0.0126741 -0.0205811 0.00151157)
(-0.0120958 -0.0201908 0.00193309)
(-0.0155043 -0.0208653 0.00595407)
(-0.0156173 -0.0213221 0.00432049)
(-0.0180836 -0.02098 0.00540368)
(-0.0175467 -0.0201307 0.00573612)
(-0.0166331 -0.0206101 0.00694678)
(-0.0158256 -0.020224 0.00489926)
(-0.0107862 -0.0198719 0.00160853)
(-0.0105854 -0.0192853 0.00250187)
(-0.0128614 -0.0203807 0.00441682)
(-0.0130079 -0.0212997 0.003558)
(-0.0129033 -0.0204686 0.00263389)
(-0.0118758 -0.0206347 0.00187756)
(-0.0100244 -0.0167021 -0.00436462)
(-0.0109322 -0.0166398 -0.00530885)
(-0.0103056 -0.0192693 -0.00302312)
(-0.00966689 -0.0171699 -0.00378879)
(-0.00917355 -0.0174491 -0.00287944)
(-0.0113465 -0.0191617 -0.00401178)
(-0.011866 -0.0210577 0.0038193)
(-0.0101604 -0.0198681 0.00213269)
(-0.0108852 -0.0204161 0.00270819)
(-0.0112924 -0.0208767 -0.00323677)
(-0.0132728 -0.0225502 -0.00336318)
(-0.0107423 -0.0196819 -0.00264414)
(-0.0107853 -0.0208554 -0.00346669)
(-0.0122681 -0.0201868 -0.00207644)
(-0.0195317 -0.0118785 -0.00417958)
(-0.0210307 -0.0124154 -0.00498487)
(-0.0194397 -0.0113018 -0.0055966)
(-0.0197887 -0.0109617 -0.00685675)
(-0.0199439 -0.0110737 -0.00591862)
(-0.0189384 -0.0104348 -0.00717815)
(-0.00536691 -0.0068757 -0.00786578)
(-0.0049392 -0.00717726 -0.00764793)
(-0.00667198 -0.00738343 -0.00872269)
(-0.00580559 -0.00692211 -0.0073351)
(-0.00491192 -0.00709785 -0.00713771)
(-0.00662606 -0.00734879 -0.00793066)
(-0.00519583 -0.0114306 0.0029004)
(-0.00486373 -0.0113745 0.00210815)
(-0.00563611 -0.0116585 0.00434228)
(-0.00496531 -0.0111073 0.00327425)
(-0.00469292 -0.0108787 0.00226587)
(-0.00599979 -0.0123565 0.00400929)
(-0.00731944 -0.0119254 0.00954614)
(-0.00621096 -0.0120165 0.00883035)
(-0.00806715 -0.0113864 0.0104799)
(-0.0111818 -0.0134363 0.00337484)
(-0.00928813 -0.0128078 0.00286853)
(-0.0108133 -0.0128214 0.00400721)
(-0.0121106 -0.0132888 0.00377853)
(-0.010047 -0.0137252 0.00334075)
(-0.00850297 -0.0124649 0.00296404)
(-0.00495439 -0.00785611 -0.00466975)
(-0.00405816 -0.00803152 -0.00331528)
(-0.00442549 -0.00783117 -0.00442775)
(-0.00436361 -0.00790981 -0.00397613)
(-0.00421299 -0.00753656 -0.00424943)
(-0.00478837 -0.00798629 -0.00412671)
(-0.00393553 -0.00829839 -0.0021228)
(-0.00444555 -0.00848623 -0.00354148)
(-0.00433941 -0.00832345 -0.00280748)
(-0.00439839 -0.00847899 -0.00277677)
(-0.00446863 -0.00836483 -0.00347853)
(-0.00459232 -0.00845805 -0.00332004)
(-0.00414994 -0.00913201 -0.00054785)
(-0.00418699 -0.00950399 -0.00117907)
(-0.00415847 -0.00881917 -0.00131367)
(-0.00399569 -0.00843379 -0.00183348)
(-0.00435367 -0.00908045 -0.000723826)
(-0.0037528 -0.0085877 -0.00152357)
(-0.00363878 -0.00806638 -0.00296845)
(-0.00361906 -0.00795425 -0.00383673)
(-0.00392441 -0.00794 -0.00348196)
(-0.00380219 -0.00803571 -0.00415638)
(-0.00385685 -0.00813612 -0.0036282)
(-0.00398762 -0.00793176 -0.00395074)
(-0.00481749 -0.0102589 -0.00141036)
(-0.00512838 -0.0110012 -0.00100766)
(-0.00699638 -0.0125657 0.000195822)
(-0.00553586 -0.0112019 -0.000695366)
(-0.00645416 -0.0118742 -8.15181e-05)
(-0.0060249 -0.0116443 -0.000422667)
(-0.00943188 -0.0137483 0.00181505)
(-0.00841424 -0.0130921 0.00165848)
(-0.0109291 -0.0136899 0.00278721)
(-0.00964571 -0.0136625 0.0024505)
(-0.0120279 -0.0141401 0.00323498)
(-0.0109557 -0.0142108 0.00220287)
(-0.00736708 -0.012029 0.00150281)
(-0.00567819 -0.0112466 0.000345035)
(-0.0063921 -0.0117636 0.00113851)
(-0.00589943 -0.0114042 -0.000365475)
(-0.00673905 -0.011824 0.000479396)
(-0.0117098 -0.0161412 -0.000277143)
(-0.0127644 -0.0161628 0.000178351)
(-0.00960655 -0.0151763 -0.000457238)
(-0.00884743 -0.0151325 -0.00100112)
(-0.0149548 -0.0156032 -0.000354955)
(-0.0190348 -0.0133868 -0.00389337)
(-0.0185089 -0.0136844 -0.00212439)
(-0.0190653 -0.0142259 -0.00264271)
(-0.0192575 -0.013141 -0.00301398)
(-0.0192947 -0.0131515 -0.00445374)
(-0.0185176 -0.0147586 -0.00209835)
(-0.0181479 -0.0124244 -0.00596445)
(-0.0187596 -0.0141436 -0.00368811)
(-0.0183572 -0.0125975 -0.00444985)
(-0.0201338 -0.0111633 -0.00615485)
(-0.0210423 -0.0115253 -0.0037269)
(-0.0205458 -0.0111915 -0.00336774)
(-0.0201183 -0.0117888 -0.00307505)
(-0.0212753 -0.0117429 -0.00556461)
(-0.0209063 -0.0105851 -0.00439605)
(-0.0214604 -0.0114348 -0.00270901)
(-0.020907 -0.0110932 -0.00235085)
(-0.0213575 -0.0108633 -0.00412802)
(-0.0210625 -0.0110734 -0.0041047)
(-0.0207228 -0.0117532 -0.00202848)
(-0.0208532 -0.0114806 -0.00531537)
(-0.0169625 -0.0146754 0.000866849)
(-0.0149565 -0.0158048 0.00135128)
(-0.015872 -0.0134688 0.00261836)
(-0.0142435 -0.0140532 0.00253936)
(-0.0146542 -0.0146292 0.00235783)
(-0.0167776 -0.0137928 0.00145357)
(-0.0165872 -0.014788 0.00118235)
(-0.0135151 -0.0144745 0.00200018)
(-0.00954737 -0.00713699 -0.00929913)
(-0.0104573 -0.00757489 -0.00913183)
(-0.0132784 -0.00769139 -0.00805303)
(-0.0152187 -0.00853764 -0.00761897)
(-0.0158503 -0.00871382 -0.007878)
(-0.0138466 -0.00814333 -0.00844197)
(-0.0167756 -0.00885744 -0.0074622)
(-0.0123986 -0.00775114 -0.00848211)
(-0.00776612 -0.00707306 -0.00643338)
(-0.0084101 -0.00764474 -0.00755526)
(-0.00731937 -0.0068027 -0.00713434)
(-0.00626371 -0.00745593 -0.00600261)
(-0.00678597 -0.00751545 -0.00680045)
(-0.00911513 -0.00780449 -0.00740444)
(-0.00574814 -0.00814409 -0.00431819)
(-0.0050126 -0.00807626 -0.00393019)
(-0.00647449 -0.00819098 -0.00507552)
(-0.00546286 -0.00860027 -0.00473838)
(-0.00647165 -0.00804125 -0.00470559)
(-0.00492994 -0.00827415 -0.00406465)
(-0.0202981 -0.0121285 -0.00289007)
(-0.0191887 -0.0111598 -0.00378746)
(-0.0173776 -0.0103558 -0.00505449)
(-0.0188038 -0.0111498 -0.00430971)
(-0.0193311 -0.0111598 -0.00301314)
(-0.0184448 -0.0103022 -0.00459044)
(-0.0194649 -0.0119204 -0.00350888)
(-0.0177796 -0.010525 -0.00390695)
(-0.0186541 -0.0108094 -0.00366918)
(-0.0200383 -0.0128194 -0.00217843)
(-0.0192842 -0.0114071 -0.00191291)
(-0.0197313 -0.0120027 -0.00293304)
(-0.0174281 -0.0195781 0.00458992)
(-0.0162322 -0.0207867 0.00308806)
(-0.0162156 -0.0201354 0.00463784)
(-0.0183509 -0.0191837 0.00397912)
(-0.0186372 -0.0204085 0.00331197)
(-0.015713 -0.0188571 0.00361853)
(-0.0161349 -0.0205255 0.00248183)
(-0.0173389 -0.0194045 0.00240983)
(-0.0180123 -0.0187592 0.00270649)
(-0.0157681 -0.0192056 0.00236513)
(-0.0175149 -0.0195673 0.00220898)
(-0.0162892 -0.0196194 0.00279088)
(-0.0214144 -0.0151054 0.000203908)
(-0.0209795 -0.0142622 -0.000552067)
(-0.0214773 -0.0135249 -0.000896016)
(-0.0215815 -0.0152459 2.59242e-05)
(-0.0210206 -0.0142483 -0.000187919)
(-0.0204387 -0.0124858 -0.00156985)
(-0.0209504 -0.0135031 -0.00163997)
(-0.0207039 -0.0130705 -0.00154062)
(-0.0221457 -0.0156417 0.0022244)
(-0.0213071 -0.0132356 -0.00136336)
(-0.0218927 -0.0149312 0.000299338)
(-0.0210913 -0.0144086 0.00140789)
(-0.0209622 -0.0134813 0.000621574)
(-0.00915691 -0.0217967 -0.0058162)
(-0.00643339 -0.0172762 -0.00454499)
(-0.00774945 -0.020529 -0.00677048)
(-0.00892811 -0.0213844 -0.00466782)
(-0.00747645 -0.0208456 -0.00554038)
(-0.00713503 -0.0184215 -0.00394337)
(-0.00728755 -0.016721 -0.00965119)
(-0.00868693 -0.0147015 -0.0115498)
(-0.00788296 -0.0157431 -0.0105057)
(-0.00901554 -0.0157158 -0.0115082)
(-0.00907631 -0.016774 -0.011541)
(-0.0077474 -0.0192125 -0.007739)
(-0.00630767 -0.0162119 -0.00876181)
(-0.00731742 -0.0201678 -0.00991394)
(-0.00682856 -0.0176578 -0.00855037)
(-0.00699103 -0.0163346 -0.00843322)
(-0.00670655 -0.0175085 -0.0063907)
(-0.00655233 -0.0191888 -0.00667908)
(-0.00604064 -0.0164407 -0.00989855)
(-0.00670153 -0.0194187 -0.00690645)
(-0.0066799 -0.0184919 -0.00881238)
(-0.00581059 -0.016752 -0.00876132)
(-0.00624477 -0.0172883 -0.00785656)
(-0.0200359 -0.013041 -0.00340762)
(-0.0192767 -0.0154034 -0.00135667)
(-0.0200812 -0.0156961 -0.00254886)
(-0.0197309 -0.0139665 -0.00352743)
(-0.0212255 -0.0164669 -0.00195606)
(-0.0209829 -0.0138211 -0.00235365)
(-0.0201814 -0.0144238 -0.00406357)
(-0.0189485 -0.0157946 -0.00214366)
(-0.0194762 -0.0131421 -0.00370015)
(-0.0190331 -0.0147075 -0.00221016)
(-0.0203004 -0.0163337 -0.00189165)
(-0.0200873 -0.0139269 -0.00328616)
(-0.0156917 -0.0197171 -0.000952117)
(-0.0171435 -0.0192974 -0.0010025)
(-0.0177926 -0.0199639 -0.0014854)
(-0.0148075 -0.0193869 -0.000119115)
(-0.0142879 -0.0209306 -0.00196301)
(-0.0155295 -0.0207625 -0.000391952)
(-0.0141711 -0.0201487 -5.64572e-05)
(-0.0166138 -0.0188888 0.000554589)
(-0.0171208 -0.0203556 0.000500147)
(-0.0154589 -0.0202403 0.000389806)
(-0.0160921 -0.0194391 0.000710874)
(-0.0122968 -0.0132464 -0.00838792)
(-0.0122011 -0.0131382 -0.00913183)
(-0.0134068 -0.0128867 -0.00926304)
(-0.011945 -0.0148338 -0.00915095)
(-0.0119012 -0.014368 -0.00845578)
(-0.0114008 -0.0151925 -0.00873051)
(-0.00841266 -0.01721 -0.00874833)
(-0.00929207 -0.0191383 -0.00909873)
(-0.00854387 -0.0187176 -0.00942762)
(-0.00833509 -0.0172819 -0.00947109)
(-0.00862352 -0.0187247 -0.007699)
(-0.00788547 -0.0180956 -0.00778625)
(-0.0101398 -0.0196902 -0.0053493)
(-0.0103888 -0.0201686 -0.00448491)
(-0.00912648 -0.0189845 -0.00495606)
(-0.0100316 -0.0205271 -0.00405681)
(-0.0104311 -0.0205327 -0.00638338)
(-0.010305 -0.020738 -0.00633133)
(-0.00912105 -0.0211178 -0.00604036)
(-0.00875834 -0.0183618 -0.00585726)
(-0.0102114 -0.0203687 -0.00477042)
(-0.00883347 -0.0192175 -0.0044671)
(-0.00821032 -0.0188449 -0.00563887)
(-0.00921119 -0.019064 -0.00310647)
(-0.0100986 -0.0195224 -0.00473262)
(-0.00886309 -0.0179676 -0.0050836)
(-0.0110177 -0.0206541 -0.00450291)
(-0.00971849 -0.018553 -0.00586494)
(-0.0101115 -0.0196787 -0.00354972)
(-0.010207 -0.0188396 -0.00553315)
(-0.0136065 -0.0216358 0.000531268)
(-0.0136379 -0.02143 0.00136764)
(-0.0150393 -0.020846 0.00282844)
(-0.0141345 -0.0207991 0.00238708)
(-0.0128613 -0.0199838 0.00177151)
(-0.0149585 -0.0212805 0.00195539)
(-0.0102725 -0.0190871 -0.0039376)
(-0.00898508 -0.0168829 -0.00535981)
(-0.0104536 -0.0194053 -0.00609623)
(-0.00958491 -0.0183556 -0.00325304)
(-0.00897017 -0.0163666 -0.0045884)
(-0.0102472 -0.0186611 -0.00513398)
(-0.0139788 -0.0126855 -0.00897338)
(-0.0127942 -0.011919 -0.00915737)
(-0.0153466 -0.0106601 -0.00843439)
(-0.015096 -0.0122159 -0.00986197)
(-0.0146562 -0.0120852 -0.0102295)
(-0.0155886 -0.0101762 -0.00838314)
(-0.00822016 -0.0164256 -0.012543)
(-0.00752535 -0.0157555 -0.0110957)
(-0.0070904 -0.0160757 -0.0116112)
(-0.0063262 -0.0157696 -0.0104169)
(-0.00780323 -0.0161707 -0.0123227)
(-0.00788521 -0.0156862 -0.01212)
(-0.00612478 -0.0169586 -0.0105249)
(-0.00541749 -0.0150663 -0.0114378)
(-0.00497398 -0.0147075 -0.00899614)
(-0.00549986 -0.013226 -0.0106844)
(-0.00631089 -0.0137471 -0.0108419)
(-0.014147 -0.0121307 -0.0114523)
(-0.0137885 -0.0112989 -0.0116055)
(-0.0121303 -0.0136856 -0.012102)
(-0.0127098 -0.0113984 -0.0108998)
(-0.0123912 -0.0132615 -0.0118121)
(-0.0153246 -0.0118099 -0.0117331)
(-0.0199363 -0.00977841 -0.00583075)
(-0.0195642 -0.0100207 -0.00708339)
(-0.0182806 -0.0102643 -0.00815872)
(-0.0200533 -0.0108243 -0.00878291)
(-0.0192193 -0.0108075 -0.0074046)
(-0.0158659 -0.0107128 -0.010229)
(-0.0146138 -0.0109795 -0.00974002)
(-0.012947 -0.0129788 -0.0107113)
(-0.0150365 -0.0114946 -0.0108758)
(-0.0147332 -0.0126944 -0.0115408)
(-0.0136974 -0.0122873 -0.0102908)
(-0.0119609 -0.0129023 -0.0129013)
(-0.0135071 -0.0124615 -0.0126461)
(-0.0117641 -0.0122915 -0.0123269)
(-0.0128034 -0.012571 -0.0125379)
(-0.0127309 -0.0134309 -0.0133946)
(-0.0191806 -0.010809 -0.00815633)
(-0.016975 -0.0108195 -0.0104516)
(-0.0181766 -0.0108782 -0.0102022)
(-0.0187537 -0.00997951 -0.00837471)
(-0.0195993 -0.0111691 -0.00800049)
(-0.0182073 -0.00983407 -0.00877438)
(-0.011646 -0.0118791 -0.0133569)
(-0.0103262 -0.0119832 -0.0131233)
(-0.0102804 -0.0141752 -0.0126654)
(-0.0112456 -0.0123268 -0.0125714)
(-0.008625 -0.0142541 -0.0123699)
(-0.0100552 -0.0139337 -0.0136397)
(-0.0176537 -0.00999982 -0.00947061)
(-0.0167856 -0.0101901 -0.0104187)
(-0.0158029 -0.00953403 -0.0108333)
(-0.0176168 -0.0104109 -0.00935495)
(-0.0169814 -0.00944602 -0.0101267)
(-0.0157798 -0.00961216 -0.0111065)
(-0.00874723 -0.0124928 -0.0130587)
(-0.00798992 -0.0120193 -0.0127467)
(-0.00925172 -0.0127914 -0.0135384)
(-0.00699632 -0.0132118 -0.0121016)
(-0.00806065 -0.0132824 -0.0131107)
(-0.0155121 -0.00940587 -0.0109134)
(-0.0137173 -0.00934407 -0.0124388)
(-0.0146634 -0.00984953 -0.0119094)
(-0.0133247 -0.00916548 -0.0120162)
(-0.0154286 -0.00973925 -0.0111026)
(-0.0143319 -0.00996992 -0.0122596)
(-0.0165727 -0.00800973 0.00630289)
(-0.0118483 -0.0128043 -0.00398063)
(-0.0131587 -0.0100191 -0.00351256)
(-0.0117124 -0.0110239 -0.00358785)
(-0.0121449 -0.0130695 -0.004013)
(-0.012124 -0.0113431 -0.00350831)
(-0.0140247 -0.0114551 -0.00352495)
(-0.0106683 -0.0145576 -0.00373863)
(-0.00919832 -0.0144298 -0.00312899)
(-0.0103085 -0.014596 -0.00343769)
(-0.00975389 -0.0165816 -0.00267311)
(-0.0220595 -0.0141091 0.0010423)
(-0.0204293 -0.0138031 0.000282586)
(-0.0214634 -0.0162789 0.00237333)
(-0.0211613 -0.0152066 0.00122815)
(-0.0213602 -0.0151417 0.0018121)
(-0.0232203 -0.0169797 0.00288448)
(-0.0204615 -0.0130919 -0.000213664)
(-0.0177281 -0.0120949 -0.00164992)
(-0.00404734 -0.0113449 0.000900173)
(-0.00359723 -0.0109687 0.00254548)
(-0.00404434 -0.0117247 -1.02041e-05)
(-0.00447983 -0.0117042 -0.00105446)
(-0.00396755 -0.0112011 -0.000516553)
(-0.00643285 -0.00997905 -0.00374617)
(-0.00614655 -0.0102136 -0.00337067)
(-0.0076265 -0.00960765 -0.00383192)
(-0.00730015 -0.00976359 -0.00392547)
(-0.00713593 -0.0108825 -0.00382623)
(-0.00559109 -0.00997911 -0.00331391)
(-0.0159622 -0.0116167 -0.00312805)
(-0.0167535 -0.0114537 -0.00264785)
(-0.0134023 -0.010615 -0.00376382)
(-0.0153911 -0.0109304 -0.00311437)
(-0.01558 -0.0119468 -0.00394991)
(-0.0184063 -0.0183942 0.00655105)
(-0.0189811 -0.0202011 0.00656109)
(-0.0214305 -0.0197087 0.00645033)
(-0.0122589 -0.0104886 0.0117549)
(-0.0106385 -0.0107555 0.0120423)
(-0.0106341 -0.0104975 0.0109166)
(-0.00852835 -0.0115497 0.00980455)
(-0.0105677 -0.0116832 0.00956223)
(-0.0102137 -0.0121599 0.010696)
(-0.0115331 -0.0110958 0.0103516)
(-0.00907767 -0.0118912 0.00907045)
(-0.0170322 -0.00847063 -0.000576026)
(-0.0166468 -0.0086082 -0.000406109)
(-0.0153914 -0.00742637 -0.000627447)
(-0.0156665 -0.00783082 -0.00160913)
(-0.0160188 -0.00869553 -0.00231764)
(-0.0161559 -0.00885323 -0.00194051)
(-0.0174994 -0.0102409 -0.00587138)
(-0.0177536 -0.00988254 -0.0046771)
(-0.0172099 -0.00954504 -0.00543455)
(-0.0179218 -0.0088036 -0.00436005)
(-0.0180494 -0.00904018 -0.0037302)
(-0.00750622 -0.0122609 0.00640668)
(-0.00931866 -0.0120005 0.0075003)
(-0.00854274 -0.0123795 0.00814315)
(-0.0104678 -0.0122887 0.00778994)
(-0.00925952 -0.0114199 0.00866983)
(-0.00816801 -0.0118442 0.00628684)
(-0.00773254 -0.012823 0.00574082)
(-0.0126175 -0.0112861 0.00888292)
(-0.013824 -0.0113294 0.00957493)
(-0.0148077 -0.00997042 0.00825761)
(-0.014119 -0.00937126 0.00900788)
(-0.0117864 -0.0107262 0.0095731)
(-0.0187009 -0.0113698 0.00318131)
(-0.0196765 -0.011551 0.00360557)
(-0.0199127 -0.0106391 0.00226574)
(-0.0201066 -0.0109362 0.00238805)
(-0.0178908 -0.0109497 0.0041408)
(-0.0204111 -0.0104022 0.00187276)
(-0.0163605 -0.0117143 0.00645499)
(-0.0159745 -0.0104774 0.00698466)
(-0.0187152 -0.0109715 0.00523491)
(-0.0177274 -0.0103636 0.0057172)
(-0.0175147 -0.010815 0.00599156)
(-0.0152586 -0.0111439 0.00684615)
(-0.0203627 -0.0103932 -0.000178809)
(-0.0195586 -0.0108097 -0.0030483)
(-0.0182341 -0.00911524 -0.00211871)
(-0.0202897 -0.0107191 -0.0010537)
(-0.019566 -0.00994574 -0.000956233)
(-0.0182873 -0.00985786 -0.00338742)
(-0.0163913 -0.0101468 -0.004125)
(-0.0147845 -0.00970655 -0.00434815)
(-0.014038 -0.0110666 -0.00557028)
(-0.0142066 -0.00944172 -0.00460462)
(-0.0149391 -0.0115865 -0.00567722)
(-0.0159844 -0.00973875 -0.00441369)
(-0.0104809 -0.0153224 -0.0070489)
(-0.0102099 -0.0165121 -0.00645972)
(-0.0104938 -0.0153329 -0.0073121)
(-0.0111819 -0.0150974 -0.00775405)
(-0.00959948 -0.0164659 -0.00616485)
(-0.0106671 -0.0158522 -0.00678242)
(-0.0123604 -0.0134973 -0.00815391)
(-0.0109301 -0.0131488 -0.00714133)
(-0.0123393 -0.01369 -0.00725681)
(-0.0134357 -0.0120966 -0.00727282)
(-0.0126503 -0.0119181 -0.00725049)
(-0.0121465 -0.0128135 -0.008203)
(-0.0103587 -0.0166299 -0.00561233)
(-0.0106222 -0.0161649 -0.00581187)
(-0.0115504 -0.0145753 -0.00685054)
(-0.0110517 -0.0151329 -0.00624625)
(-0.0110535 -0.0148212 -0.00670245)
(-0.01085 -0.0163776 -0.00619853)
(-0.0176376 -0.00837454 0.00252215)
(-0.0170974 -0.00836671 0.00379807)
(-0.0185446 -0.0088175 0.00172301)
(-0.017806 -0.0082266 0.00199762)
(-0.0185569 -0.00890908 0.003984)
(-0.0173556 -0.00857418 0.00294972)
(-0.0200264 -0.0197764 0.00484234)
(-0.0201321 -0.0194069 0.00430857)
(-0.0219713 -0.0176995 0.00357355)
(-0.022278 -0.0177677 0.00395619)
(-0.0212714 -0.0180837 0.00445915)
(-0.0194578 -0.0169674 0.00569657)
(-0.0194526 -0.0172622 0.00429838)
(-0.0133316 -0.0098137 -0.00555599)
(-0.0166838 -0.0108697 -0.00548576)
(-0.0157991 -0.0102004 -0.0059618)
(-0.0152857 -0.00963929 -0.00484295)
(-0.0131846 -0.00964581 -0.00605446)
(-0.0144862 -0.00920828 -0.00615318)
(-0.00818712 -0.0093905 -0.00528672)
(-0.0070046 -0.00907759 -0.00499186)
(-0.0096669 -0.00906016 -0.00528262)
(-0.00977159 -0.010968 -0.00587888)
(-0.00773818 -0.00872277 -0.00499896)
(-0.00976127 -0.00916712 -0.00544989)
(-0.00505662 -0.00755791 -0.00522374)
(-0.00430145 -0.00755791 -0.00459106)
(-0.00521708 -0.00726727 -0.00571931)
(-0.00487498 -0.00726681 -0.00556074)
(-0.00413409 -0.00768903 -0.00485053)
(-0.0042644 -0.00720168 -0.00509179)
(-0.00432506 -0.00715832 -0.00581643)
(-0.00587152 -0.0067765 -0.00697206)
(-0.00574782 -0.00668513 -0.00663247)
(-0.00448838 -0.0070527 -0.00569885)
(-0.00485191 -0.00714526 -0.00651901)
(-0.00518613 -0.0072197 -0.00629886)
(-0.00340695 -0.00832653 -0.00321909)
(-0.00357012 -0.00842736 -0.00371753)
(-0.00360964 -0.0088983 -0.00246821)
(-0.00368675 -0.00941418 -0.00293974)
(-0.00378875 -0.00920977 -0.00335091)
(-0.00391873 -0.0092281 -0.00249405)
(-0.00311498 -0.00871593 -0.00508341)
(-0.00354808 -0.00941662 -0.00382859)
(-0.0032125 -0.00924253 -0.00432839)
(-0.00317223 -0.00816871 -0.00442561)
(-0.00325151 -0.00844233 -0.00385937)
(-0.00329316 -0.00880743 -0.00331585)
(-0.00426505 -0.00921134 -0.00138157)
(-0.00444576 -0.00918308 -0.00190413)
(-0.00423874 -0.00850927 -0.00227566)
(-0.00398914 -0.00910588 -0.000899474)
(-0.00409857 -0.00871043 -0.00191957)
(-0.00324415 -0.00810961 -0.00376164)
(-0.00365733 -0.0100747 -0.00308064)
(-0.00441895 -0.00742081 -0.00678882)
(-0.00379172 -0.0072593 -0.00641786)
(-0.00543621 -0.00719046 -0.00599303)
(-0.00432148 -0.00728112 -0.0053358)
(-0.0166433 -0.0153603 -0.000229923)
(-0.0153983 -0.0162699 -0.000101739)
(-0.0141349 -0.0155518 0.000901928)
(-0.0178797 -0.0154231 -4.63112e-05)
(-0.0162825 -0.0124738 0.00345002)
(-0.014675 -0.0142273 0.00330441)
(-0.0166001 -0.013423 0.00278698)
(-0.0136877 -0.0141907 0.00372577)
(-0.0158403 -0.0131309 0.00329216)
(-0.014986 -0.014234 0.00358468)
(-0.0157119 -0.0134674 0.00296676)
(-0.016616 -0.00859443 -0.00631065)
(-0.017645 -0.0117349 -0.00470932)
(-0.0128943 -0.0106664 -0.00492821)
(-0.00893144 -0.00845013 -0.00580733)
(-0.00790572 -0.00866424 -0.00533916)
(-0.0103163 -0.00889605 -0.0061092)
(-0.0109465 -0.00916165 -0.00589807)
(-0.0115768 -0.00947194 -0.00536559)
(-0.0141929 -0.0109344 -0.00575039)
(-0.015765 -0.0107522 -0.00486133)
(-0.0169837 -0.00984257 -0.00437057)
(-0.0121338 -0.0195237 -0.00186862)
(-0.0106175 -0.0192126 -0.00199791)
(-0.0178468 -0.00817792 0.00053844)
(-0.0182999 -0.00803153 0.00227026)
(-0.0158922 -0.00942576 0.0080533)
(-0.0171547 -0.00923049 0.00763829)
(-0.0181042 -0.00954389 0.00588803)
(-0.0171583 -0.00895696 0.00677509)
(-0.0177207 -0.00972582 0.00535176)
(-0.0180252 -0.00980961 0.00474933)
(-0.0119708 -0.0144673 -0.0084944)
(-0.0108504 -0.0146885 -0.00695412)
(-0.0125518 -0.0146989 -0.00739332)
(-0.0104829 -0.0168705 -0.00437463)
(-0.0125116 -0.0122718 -0.00663494)
(-0.0125012 -0.0126385 -0.00686237)
(-0.0111173 -0.014827 -0.00560322)
(-0.0107842 -0.0156108 -0.00551517)
(-0.013027 -0.013684 -0.00639463)
(-0.011501 -0.0129974 -0.00611645)
(-0.0110653 -0.0143295 -0.00597047)
(-0.0139993 -0.00867447 -0.00315599)
(-0.0142858 -0.0112038 -0.00589582)
(-0.0130888 -0.0118397 -0.00606)
(-0.0135455 -0.012254 -0.00620723)
(-0.0143207 -0.0106688 -0.0056437)
(-0.0149398 -0.00834937 -0.00309121)
(-0.0102204 -0.0157305 -0.00421756)
(-0.0103643 -0.0166973 -0.00440137)
(-0.0100077 -0.0171387 -0.00334031)
(-0.00981532 -0.0153488 -0.00387158)
(-0.00945422 -0.0174268 -0.00253027)
(-0.00975295 -0.0161833 -0.00305252)
(-0.0189127 -0.00966904 0.00226762)
(-0.0175099 -0.00964721 0.00470685)
(-0.0204407 -0.0102523 0.000246393)
(-0.0165259 -0.0117341 0.0054138)
(-0.0160541 -0.0122734 0.00627206)
(-0.0136287 -0.0119468 0.00683746)
(-0.0151412 -0.011881 0.00668517)
(-0.0186448 -0.00957743 -0.000729877)
(-0.0192874 -0.00982441 -0.00113952)
(-0.0186763 -0.00966189 -0.00217844)
(-0.0188712 -0.00961368 -0.00298296)
(-0.0151846 -0.0115656 -0.00765288)
(-0.0156068 -0.0104296 -0.00704812)
(-0.0149215 -0.0101132 -0.00589691)
(-0.0142214 -0.0120981 -0.00718198)
(-0.0150239 -0.0111677 -0.00679165)
(-0.0143422 -0.012001 -0.00760192)
(-0.0145474 -0.0114496 -0.00690944)
(-0.0168128 -0.0102002 -0.00621435)
(-0.0161886 -0.0108231 -0.00633748)
(-0.0180862 -0.00855033 0.000221496)
(-0.018041 -0.00980393 -0.00113874)
(-0.0183346 -0.00848614 -0.000741728)
(-0.0166568 -0.00769923 0.00534669)
(-0.0166728 -0.00763422 0.00359158)
(-0.0177865 -0.00879474 -2.22253e-05)
(-0.017873 -0.00860755 -0.00040704)
(-0.0166001 -0.00918813 -0.00244835)
(-0.0165097 -0.00917377 -0.00263875)
(-0.0169133 -0.00752391 0.00115071)
(-0.0113225 -0.0124038 0.00947608)
(-0.0201714 -0.0104482 -0.000953814)
(-0.0201545 -0.00938458 -0.00162339)
(-0.0126481 -0.0107033 -0.00427152)
(-0.0130717 -0.0103352 -0.0043982)
(-0.0151821 -0.0114771 -0.00440126)
(-0.0161899 -0.0113755 -0.00345145)
(-0.0122849 -0.0112903 -0.00477581)
(-0.0139207 -0.0121389 -0.00374325)
(-0.00765112 -0.00995992 -0.00468222)
(-0.0094913 -0.0108396 -0.00448763)
(-0.0104686 -0.0101418 -0.00451541)
(-0.0104286 -0.00997163 -0.00454781)
(-0.00931503 -0.0105769 -0.00482272)
(-0.00709382 -0.0111159 -0.00363475)
(-0.00599778 -0.0116851 -0.00265313)
(-0.00547526 -0.0118965 -0.0020189)
(-0.00392396 -0.00890823 -0.000531104)
(-0.00524751 -0.0112827 -0.00205105)
(-0.00654171 -0.0115625 -0.0030799)
(-0.00458059 -0.0107224 -0.00181167)
(-0.00465118 -0.0109083 -0.00159076)
(-0.00478059 -0.0102685 -0.00227374)
(-0.00517754 -0.00949692 -0.003059)
(-0.00577148 -0.0106621 -0.00287632)
(-0.00502041 -0.00992497 -0.00249553)
(-0.0174054 -0.0127449 -0.00277284)
(-0.0179891 -0.0122294 -0.00235952)
(-0.0203901 -0.0154913 0.00367239)
(-0.00957901 -0.0145294 -0.00374706)
(-0.0111141 -0.0140264 -0.00359985)
(-0.010152 -0.0186822 -0.00180663)
(-0.00879165 -0.0186476 -0.00062753)
(-0.00876526 -0.0180512 0.000292909)
(-0.00808434 -0.0175303 -0.000540518)
(-0.0087929 -0.0169124 -0.00185094)
(-0.017085 -0.00792955 0.00571226)
(-0.0157172 -0.00692172 5.7094e-05)
(-0.0165518 -0.00760778 0.00138796)
(-0.0169233 -0.00740049 0.00308858)
(-0.0169602 -0.00762176 0.00428383)
(-0.0151216 -0.00646145 0.00125484)
(-0.0140195 -0.00900868 -0.00233823)
(-0.0141095 -0.00834765 -0.00220881)
(-0.0142343 -0.00986789 -0.00295362)
(-0.0161004 -0.00719149 -0.000582213)
(-0.0148896 -0.00862188 -0.00231917)
(-0.0152351 -0.00700384 -0.00123635)
(-0.0136543 -0.00943356 -0.0121014)
(-0.0143516 -0.00975477 -0.01191)
(-0.0134396 -0.00958865 -0.012065)
(-0.014973 -0.00979757 -0.0118353)
(-0.0108893 -0.0108887 -0.0129242)
(-0.0101962 -0.0117915 -0.0131371)
(-0.012311 -0.0107529 -0.0126782)
(-0.0122743 -0.0112202 -0.0130924)
(-0.0166511 -0.0096426 -0.010197)
(-0.0133176 -0.0127721 -0.0136343)
(-0.017793 -0.00977045 -0.00669619)
(-0.0181467 -0.00999465 -0.00664883)
(-0.0194573 -0.0102298 -0.00680699)
(-0.0172459 -0.01082 -0.0100234)