/*--------------------------------*- C++ -*----------------------------------*\
| =========                 |                                                 |
| \\      /  F ield         | OpenFOAM: The Open Source CFD Toolbox           |
|  \\    /   O peration     | Version:  v1612+                                |
|   \\  /    A nd           | Web:      www.OpenFOAM.com                      |
|    \\/     M anipulation  |                                                 |
\*---------------------------------------------------------------------------*/
FoamFile
{
    version     2.0;
    format      ascii;
    class       volScalarField;
    location    "50";
    object      p;
}
// * * * * * * * * * * * * * * * * * * * * * * * * * * * * * * * * * * * * * //

dimensions      [0 2 -2 0 0 0 0];

internalField   nonuniform List<scalar> 
17027
(
1.33815
1.23374
1.23208
1.26807
1.20708
1.21715
1.27778
1.24051
1.26039
1.27563
1.28749
1.29047
1.22497
1.25188
1.23765
1.27835
1.24026
1.27391
1.19678
1.19347
1.18113
1.18159
1.18695
1.19627
1.19227
1.18909
1.23003
1.22691
1.21304
1.19988
1.1936
1.19135
1.23808
1.21352
1.21059
1.19843
1.23877
1.23839
1.19317
1.74052
1.72961
1.73665
1.7381
1.74189
1.71305
1.70835
1.72703
1.7403
1.69493
1.70542
1.74984
1.74227
1.72562
1.74411
1.72747
1.75737
1.74406
1.38986
1.35352
1.36267
1.36866
1.3849
1.36378
1.39216
1.411
1.38707
1.38549
1.39579
1.40618
1.37535
1.37766
1.30278
1.35553
1.33599
1.36699
1.35516
1.34091
1.37414
1.3983
1.38764
1.29207
1.33836
1.41647
1.40472
1.33464
1.37322
1.7387
1.67365
1.71236
1.72973
1.68476
1.70229
1.73477
1.67062
1.65477
1.75255
1.75402
1.74909
1.47997
1.50527
1.45182
1.49081
1.44602
1.44076
1.51003
1.52599
1.51076
1.53495
1.50196
1.42017
1.42515
1.51111
1.50315
1.51868
1.54051
1.49121
1.522
1.50591
1.70362
1.65574
1.6791
1.61868
1.64701
1.68045
1.67202
1.72418
1.55907
1.54755
1.67385
1.64658
1.59152
1.58835
1.62639
1.64305
1.67014
1.68534
1.65048
1.5947
1.65148
1.48611
1.47066
1.43447
1.4434
1.47003
1.46729
1.42426
1.4348
1.40141
1.42155
1.44626
1.4472
1.45647
1.42997
1.40635
1.40069
1.41043
1.35241
1.38502
1.44684
1.45796
1.41789
1.39219
1.38228
1.44461
1.41941
1.46345
1.51239
1.43191
1.49285
1.46698
1.5879
1.59812
1.61872
1.62018
1.59252
1.61633
1.61764
1.60753
1.57732
1.57736
1.59747
1.58928
1.51506
1.51878
1.51257
1.48814
1.45515
1.47058
1.48935
1.56568
1.58361
1.53763
1.54035
1.47872
1.57698
1.50699
1.50112
1.6066
1.59492
1.51893
1.54874
1.58392
1.58166
1.55575
1.3765
1.39279
1.37506
1.38512
1.37206
1.37619
1.37755
1.38878
1.33194
1.34317
1.30929
1.31418
1.34684
1.32782
1.37095
1.3727
1.32987
1.32098
1.35508
1.35508
1.92313
1.93737
1.90717
1.91126
1.91305
1.92126
1.9321
1.89023
1.89468
1.91054
1.90108
1.86829
1.89503
1.79555
1.82343
1.75634
1.72195
1.75085
1.78166
1.84146
1.77285
1.80247
1.71929
1.80863
1.79363
1.73548
1.82496
1.12712
1.16155
1.14729
1.16728
1.14864
1.17189
1.14913
1.1624
1.10993
1.14412
1.16244
1.15103
1.1454
1.14829
1.14766
1.14793
1.13823
1.17934
1.77438
1.81895
1.8211
1.80739
1.72878
1.69585
1.77428
1.82636
1.76251
1.79693
1.79494
1.75331
1.73862
1.77322
1.69405
1.69288
1.73084
1.31256
1.31003
1.41456
1.39635
1.35728
1.31619
1.34364
1.33804
1.36869
1.33318
1.45267
1.43481
1.41735
1.4117
1.39873
1.43207
1.4573
1.48827
1.43028
1.49099
1.48031
1.48988
1.52586
1.50933
1.53634
1.53469
1.48852
1.53128
1.53707
1.55125
1.50386
1.52646
1.52069
1.56512
1.52761
1.55904
1.48741
1.49068
1.44299
1.47484
1.46387
1.48134
1.44354
1.39827
1.38417
1.35609
1.36273
1.44479
1.39866
1.36642
1.37542
1.33951
1.43052
1.37675
1.39015
1.3207
1.31989
1.41574
1.47286
1.49374
1.51592
1.54362
1.55091
1.42938
1.48718
1.49653
1.51053
1.52643
1.53725
1.50504
1.46649
1.34997
1.39644
1.38967
1.43329
1.61703
1.60036
1.59632
1.61205
1.59262
1.57292
1.62794
1.63934
1.59595
1.58667
1.62665
1.62544
1.54797
1.55082
1.56217
1.59036
1.59155
1.30823
1.26919
1.36683
1.27464
1.29687
1.25409
1.3064
1.32439
1.3107
1.27238
1.55418
1.57549
1.53221
1.51681
1.54144
1.58511
1.59986
1.60734
1.4951
1.55327
1.55259
1.58361
1.56813
1.31623
1.29728
1.30899
1.25264
1.44041
1.41338
1.41077
1.44708
1.33961
1.27696
1.27353
1.34579
1.50603
1.51914
1.60091
1.64556
1.5841
1.61055
1.58408
1.62655
1.55439
1.53355
1.52377
1.56754
1.64195
1.57584
1.64567
1.57067
1.58811
1.5843
1.56385
1.60541
1.61908
1.69069
1.66596
1.68048
1.69917
1.59653
1.61653
1.66525
1.63328
1.62581
1.641
1.57328
1.60172
1.6518
1.61026
1.60737
1.58168
1.56204
1.59056
1.59254
1.53579
1.56104
1.55753
1.62593
1.62965
1.62274
1.51934
1.51755
1.54905
1.5913
1.53045
1.58485
1.75389
1.73351
1.76877
1.7707
1.83891
1.8816
1.82629
1.88724
1.79232
1.80374
1.73374
1.80966
1.8332
1.86232
1.81598
1.85162
1.80618
1.84677
1.8609
1.8363
1.64036
1.60069
1.6333
1.59542
1.61777
1.60603
1.52591
1.5522
1.57156
1.55567
1.59511
1.59592
1.63255
1.61392
1.62132
1.64303
1.51405
1.79697
1.80796
1.77841
1.77722
1.70307
1.72734
1.77771
1.70227
1.81294
1.79564
1.71104
1.70171
1.67457
1.77836
1.90564
1.8904
1.8681
1.88673
1.93854
1.8877
1.92764
1.94669
1.92928
1.94356
1.9642
1.95931
1.93583
1.94647
1.92075
1.89214
1.9591
1.95485
1.60229
1.62828
1.6163
1.65599
1.59114
1.54708
1.67027
1.59259
1.61748
1.63459
1.65907
1.66203
1.65829
1.57197
1.67512
1.6339
1.61004
1.46873
1.40971
1.4265
1.40617
1.39585
1.42079
1.47977
1.37786
1.41269
1.38758
1.42792
1.32052
1.33528
1.43507
1.38699
1.33724
1.33209
1.43811
1.47827
1.49374
1.45457
1.40603
1.26322
1.18751
1.23006
1.26009
1.2596
1.22443
1.19517
1.20759
1.24522
1.19783
1.19771
1.26253
1.27521
1.19609
1.25748
1.25044
1.25416
1.22842
1.21508
1.53866
1.54485
1.57385
1.57986
1.58266
1.58823
1.52783
1.57173
1.55374
1.53637
1.53934
1.56869
1.54588
1.54587
1.55413
1.54933
1.58888
1.61158
1.62757
1.57495
1.55272
1.62275
1.66663
1.66458
1.58355
1.64351
1.56437
1.60423
1.6774
1.65784
1.62369
1.65603
1.66908
1.66083
1.80739
1.75302
1.80741
1.79136
1.74748
1.79477
1.70169
1.72929
1.83451
1.74791
1.78507
1.76879
1.74445
1.70771
1.68934
1.73573
1.83729
1.84081
1.82773
1.83354
1.77195
1.80068
1.93195
1.93821
1.92141
1.94388
1.94262
1.94106
1.95528
1.96406
1.98631
1.92638
1.97653
1.94751
1.95743
1.95831
1.98314
1.93747
2.0043
1.96981
1.98084
1.56117
1.63666
1.69059
1.67085
1.74109
1.64199
1.63933
1.6306
1.65926
1.71245
1.66126
1.68945
1.73682
1.75264
1.70673
1.58015
1.55103
1.55862
1.52343
1.57086
1.52064
1.6068
1.60134
1.58297
1.5904
1.60707
1.60169
1.62448
1.59454
1.57083
1.51868
1.61005
1.63335
1.62632
1.61222
1.62524
1.63352
1.63113
1.60652
1.63627
1.57101
1.59675
1.63689
1.62898
1.65552
1.63161
1.59744
1.56335
1.64657
1.66972
1.67205
1.62111
1.65628
1.67794
1.66771
1.63568
1.63251
1.64259
1.67547
1.63735
1.61238
1.6332
1.66482
1.65831
1.60554
1.61058
1.59032
1.48915
1.49973
1.502
1.51979
1.53843
1.57757
1.57909
1.46077
1.45523
1.53489
1.55294
1.57808
1.56122
1.5039
1.47587
1.49308
1.4748
1.43783
1.437
1.43065
1.49192
1.52142
1.48272
1.45322
1.45361
1.43837
1.44673
1.47898
1.48478
1.52813
1.51167
1.44004
1.44928
1.4469
1.49051
1.51581
1.51982
1.46307
1.47936
1.48266
1.48702
1.48408
1.4943
1.98035
1.99325
1.95457
1.92904
1.91598
1.93215
1.90212
1.90066
1.92788
1.90716
1.97669
1.97755
1.92452
1.97068
1.96313
1.92055
1.97148
1.92522
1.9617
1.74409
1.72387
1.85309
1.85207
1.84424
1.82874
1.80334
1.81356
1.77902
1.77284
1.74935
1.8461
1.8262
1.8097
1.82022
1.8244
1.80741
1.80512
1.61612
1.62725
1.67264
1.66094
1.61771
1.64368
1.63882
1.60195
1.58705
1.54387
1.5296
1.57876
1.67156
1.6799
1.65473
1.62973
1.65291
1.58073
1.54517
1.6191
1.53233
1.50997
1.51643
1.51497
1.55158
1.5272
1.51736
1.54394
1.56209
1.57778
1.60043
1.57634
1.56091
1.58728
1.53744
1.525
1.56892
1.1857
1.16738
1.19651
1.20263
1.19694
1.20428
1.20227
1.19849
1.20381
1.20689
1.13843
1.14639
1.14659
1.15652
1.59043
1.58865
1.20073
1.19973
1.20849
1.19734
1.15317
1.16013
1.15673
1.17298
1.18917
1.19758
1.38301
1.40878
1.39828
1.38137
1.18968
1.17751
1.18046
1.45152
1.47832
1.49197
1.14225
1.1386
1.14883
1.231
1.25068
1.22918
1.68233
1.68028
1.17915
1.12211
1.15091
1.51945
1.54219
1.50042
1.19924
1.20178
1.2063
1.21281
1.22015
1.3357
1.30451
1.30085
1.17776
1.17356
1.72351
1.74563
1.28196
1.27129
1.27059
1.25948
1.22966
1.23542
1.25211
1.25418
1.18776
1.19147
1.20277
1.64469
1.6206
1.37017
1.3949
1.34052
1.30661
1.29732
1.76002
1.77459
1.79526
1.75335
1.25738
1.25746
1.25237
1.37729
1.49179
1.40641
1.44358
1.24876
1.25564
1.24355
1.38689
1.34417
1.37182
1.35161
1.89975
1.9057
1.89318
1.8838
1.74797
1.72629
1.70077
1.72683
1.47029
1.45889
1.4212
1.44448
1.29209
1.2745
1.28847
1.26878
1.54301
1.5915
1.53823
1.47347
1.47931
1.79036
1.77132
1.63749
1.61636
1.45134
1.46626
1.29167
1.89317
1.88184
1.9178
1.94461
1.9515
1.42568
1.40698
1.94189
1.88749
1.90688
1.89158
1.31502
1.31267
1.79077
1.80578
1.57466
1.55621
1.55441
1.5673
1.93502
1.922
1.92809
1.39835
1.41066
1.62769
1.62704
1.51082
1.52614
1.85353
1.84361
1.83327
1.66551
1.66434
1.62928
1.6238
1.73683
1.72338
1.74486
1.74412
1.73932
1.73297
1.93245
1.94457
1.93284
1.91879
1.88917
1.89128
1.44803
1.47838
1.44976
1.40097
1.39759
1.82096
1.79658
1.83263
1.8601
1.69337
1.66307
1.72323
1.67639
1.74427
1.88229
1.86393
1.8342
1.45924
1.48414
1.51364
1.4714
1.56106
1.59452
1.54484
1.85431
1.82436
1.79579
1.76061
1.81731
1.75308
1.71995
1.67878
1.76879
1.72707
1.7994
1.78668
1.69216
1.71147
1.70059
1.73084
1.7479
1.59123
1.63644
1.66038
1.66224
1.87276
1.86855
1.84879
1.89052
1.87727
1.88198
1.84778
1.91501
1.90527
1.84159
1.91529
1.89698
1.86728
1.84856
1.72972
1.75668
1.77466
1.74192
1.79789
1.77975
1.78369
1.77382
1.79499
1.81652
1.82613
1.83365
1.73285
1.71262
1.67504
1.76401
1.77966
1.76026
1.69059
1.66963
1.8036
1.82283
1.78055
1.82126
1.79727
1.76664
1.73569
1.76363
1.75449
1.33779
1.37386
1.34482
1.3852
1.28197
1.32897
1.27822
1.2623
1.66847
1.63015
1.60342
1.52521
1.45848
1.43976
1.42716
1.4403
1.40103
1.54882
1.5254
1.43356
1.38483
1.46665
1.46483
1.37031
1.34545
1.40259
1.41547
1.39185
1.40598
1.35402
1.36905
1.37524
1.9787
1.97183
1.97197
1.95487
1.91084
1.88926
1.86836
1.95479
1.95989
1.84233
1.85445
1.78801
1.77065
1.82552
1.84123
1.8495
1.81839
1.8708
1.86156
1.8733
1.84755
1.82175
1.83106
1.88511
1.86455
1.80504
1.77207
1.85421
1.81725
1.86832
1.8797
1.87254
1.89931
1.89988
1.90269
1.91352
1.93065
1.9115
1.90008
1.91455
1.88516
1.96298
1.95404
1.93105
1.95367
1.94177
1.72847
1.72572
1.73156
1.68898
1.69586
1.67034
1.67904
1.67516
1.66764
1.7763
1.77839
1.77682
1.72006
1.71657
1.72526
1.72656
1.72515
1.75279
1.74471
1.72961
1.74214
1.75393
1.75463
1.75875
1.69956
1.67816
1.69224
1.70808
1.68964
1.71618
1.72029
1.71786
1.68462
1.69751
1.70135
1.65132
1.63037
1.64547
1.5676
1.68546
1.65135
1.65675
1.69021
1.66905
1.6583
1.65929
1.67874
1.67235
1.67212
1.46338
1.46098
1.44275
1.43299
1.48622
1.47765
1.78554
1.76464
1.75528
1.70532
1.70284
1.70121
1.72164
1.71412
1.66039
1.68018
1.74099
1.73309
1.72466
1.67394
1.66535
1.68173
1.64639
1.64168
1.67418
1.65363
1.65883
1.67314
1.66294
1.64386
1.63863
1.63053
1.65527
1.6521
1.71143
1.72752
1.74986
1.70671
1.60138
1.59088
1.62294
1.63543
1.6382
1.72001
1.70456
1.73274
1.71027
1.67812
1.67929
1.68099
1.701
1.66474
1.66879
1.68167
1.66693
1.91051
1.88289
1.9154
1.89707
1.80683
1.79427
1.7836
1.79471
1.79605
1.7834
1.80528
1.81071
1.77805
1.73676
1.86096
1.86702
1.8636
1.84491
1.87276
1.88414
1.87793
1.89087
1.8449
1.84088
1.88009
1.47086
1.4702
1.43637
1.4325
1.47581
1.47819
1.55711
1.55711
1.54787
1.53951
1.5794
1.58294
1.60875
1.4769
1.44977
1.48331
1.45148
1.44049
1.4769
1.46395
1.49439
1.50466
1.54789
1.56219
1.59942
1.58555
1.56698
1.56082
1.6046
1.5904
1.56908
1.55569
1.54019
1.60793
1.60567
1.59446
1.69013
1.68945
1.71376
1.70797
1.6952
1.4558
1.48555
1.46047
1.48592
1.47108
1.5699
1.55258
1.51995
1.50151
1.48779
1.51411
1.50224
1.35125
1.38526
1.33954
1.32124
1.32701
1.34623
1.96997
1.98101
1.96965
1.98562
1.76027
1.7721
1.79154
1.9376
1.95159
1.92596
1.8519
1.87826
1.89929
1.89685
1.91639
1.90767
1.9139
1.9044
1.91271
1.96651
1.96631
1.95945
1.95888
1.92934
1.96277
1.60137
1.58161
1.60246
1.60079
1.57365
1.56242
1.56805
1.57684
1.56913
1.5363
1.50154
1.53218
1.50255
1.48981
1.53767
1.52807
1.68947
1.75022
1.70734
1.73982
1.78041
1.58804
1.59091
1.62466
1.87985
1.90388
1.72345
1.71157
1.7456
1.83168
1.75539
1.76233
1.8298
1.78946
1.85831
1.80011
1.79235
1.91136
1.8107
1.84361
1.88956
1.87495
1.86531
1.84598
1.82752
1.7528
1.76124
1.73237
1.72289
1.78967
1.92559
1.88836
1.92146
1.88756
1.99491
1.99972
1.97533
1.97629
1.96056
1.97452
1.95922
1.92882
1.34316
1.8898
1.87902
1.99945
1.99772
1.95687
1.9443
1.97511
1.94699
1.78716
1.80322
1.96778
1.97361
1.95314
1.94981
1.9293
1.84552
1.82408
1.83784
1.8248
1.83376
1.81386
1.86741
1.45658
1.48393
1.51235
1.52534
1.51999
1.50246
1.58009
1.60069
1.58326
1.56407
1.58076
1.5473
1.61578
1.5492
1.5261
1.51498
1.48565
1.53822
1.58023
1.59293
1.60873
1.70264
1.68207
1.65488
1.63415
1.73403
1.67953
1.69777
1.69801
1.63083
1.65103
1.65949
1.63573
1.71554
1.7475
1.66015
1.69624
1.73822
1.7119
1.72041
1.6627
1.68452
1.69279
1.67528
1.60261
1.6605
1.63691
1.67138
1.75711
1.72198
1.75504
1.72403
1.68404
1.66487
1.7187
1.71196
1.87142
1.85563
1.85289
1.89059
1.87322
1.29127
1.31987
1.33066
1.31154
1.30207
1.31888
1.34326
1.33185
1.33431
1.35471
1.36026
1.35297
1.34271
1.37206
1.38664
1.41074
1.40595
1.38312
1.41869
1.48343
1.48901
1.48542
1.49688
1.50365
1.46644
1.52246
1.5257
1.37802
1.42437
1.40413
1.45239
1.433
1.4182
1.44998
1.46492
1.45879
1.45406
1.46069
1.48925
1.51866
1.50247
1.56734
1.5929
1.61497
1.62657
1.53108
1.56667
1.54858
1.48263
1.52079
1.44728
1.46538
1.4877
1.46256
1.44327
1.5171
1.51556
1.49148
1.46268
1.51235
1.49594
1.50199
1.47863
1.47463
1.43802
1.38904
1.41763
1.77662
1.78282
1.80221
1.57346
1.59609
1.59108
1.64088
1.68324
1.84135
1.86212
1.86917
1.86411
1.85965
1.88515
1.87654
1.89422
1.89435
1.87177
1.86864
1.8559
1.8641
1.87051
1.84681
1.86797
1.88135
1.87065
1.86527
1.87734
1.85688
1.91352
1.90413
1.90895
1.88233
1.86476
1.88194
1.89979
1.88047
1.89826
1.88336
1.29339
1.26364
1.28695
1.32299
1.31162
1.25811
1.324
1.33183
1.37807
1.41575
1.44243
1.45914
1.41328
1.43646
1.42698
1.36547
1.39799
1.38573
1.40364
1.39291
1.21212
1.21224
1.24153
1.31485
1.31748
1.28704
1.34988
1.37131
1.48997
1.58031
1.53519
1.52687
1.61445
1.64722
1.33617
1.41378
1.3636
1.27631
1.29769
1.32061
1.27847
1.30022
1.26992
1.72061
1.7444
1.76305
1.72878
1.80647
1.81661
1.74806
1.7759
1.75468
1.82502
1.79064
1.66781
1.71208
1.73031
1.73675
1.70437
1.73282
1.7322
1.62882
1.64512
1.68109
1.69577
1.68241
1.70972
1.71192
1.2185
1.24546
1.25577
1.26786
1.25221
1.26109
1.31069
1.31267
1.35105
1.30436
1.33483
1.34882
1.21184
1.23604
1.25287
1.2677
1.45679
1.4995
1.52805
1.44115
1.42723
1.54983
1.52273
1.39834
1.43532
1.44493
1.48114
1.52521
1.4922
1.49158
1.51579
1.4567
1.55934
1.57571
1.59238
1.57215
1.5519
1.58747
1.59794
1.53869
1.49205
1.55238
1.54698
1.46587
1.50433
1.70678
1.69832
1.72531
1.66658
1.65459
1.16211
1.1701
1.17721
1.2007
1.23418
1.21542
1.24162
1.19694
1.17893
1.17431
1.18261
1.17154
1.16878
1.20969
1.23554
1.2366
1.2588
1.22682
1.22978
1.21293
1.23251
1.25967
1.25558
1.24851
1.22242
1.24643
1.22943
1.27726
1.26105
1.24081
1.22672
1.24554
1.21795
1.24082
1.22683
1.22134
1.20425
1.20357
1.30829
1.28578
1.31026
1.17166
1.19994
1.17881
1.42474
1.39244
1.3021
1.34647
1.35217
1.32336
1.62479
1.63865
1.76802
1.73507
1.74555
1.71012
1.69545
1.6838
1.67593
1.69077
1.65748
1.68399
1.68027
1.70164
1.69763
1.71772
1.70466
1.79975
1.7793
1.78879
1.73058
1.75872
1.78169
1.75064
1.16823
1.16116
1.16892
1.18767
1.20041
1.1891
1.20071
1.19198
1.19795
1.17457
1.19963
1.21875
1.21473
1.20857
1.13805
1.18714
1.14904
1.22944
1.30552
1.28237
1.27701
1.33435
1.36896
1.25853
1.25382
1.25791
1.38221
1.4066
1.36858
1.30457
1.27631
1.28049
1.24384
1.24427
1.30438
1.32826
1.48115
1.47668
1.50702
1.43277
1.38323
1.42225
1.3417
1.36683
1.45835
1.47921
1.38877
1.37024
1.21954
1.20902
1.20838
1.20652
1.22335
1.23221
1.24007
1.20752
1.20026
1.19345
1.18739
1.39296
1.40021
1.37481
1.42559
1.46129
1.48158
1.52322
1.46881
1.54622
1.51373
1.4867
1.49206
1.44508
1.42387
1.40374
1.39449
1.44119
1.62611
1.70054
1.6887
1.64135
1.6893
1.62966
1.57009
1.52537
1.50276
1.60581
1.62873
1.6212
1.63774
1.64599
1.62719
1.54001
1.57951
1.66466
1.64965
1.63401
1.61727
1.61272
1.57255
1.65397
1.66088
1.65972
1.68659
1.67629
1.13664
1.14861
1.15051
1.14884
1.58914
1.61345
1.62377
1.65219
1.64403
1.66472
1.65126
1.61656
1.6403
1.65006
1.72904
1.71307
1.72708
1.64118
1.65056
1.67108
1.65673
1.63636
1.6626
1.68348
1.67503
1.64663
1.17361
1.18773
1.20213
1.20031
1.19608
1.18295
1.26306
1.23949
1.24133
1.24255
1.2028
1.2174
1.18334
1.26883
1.29412
1.25068
1.27552
1.33457
1.20805
1.20848
1.22324
1.23617
1.19315
1.18092
1.17699
1.21449
1.22416
1.13689
1.14666
1.13521
1.13645
1.14361
1.15701
1.13743
1.14778
1.50004
1.26398
1.25931
1.28008
1.40059
1.47528
1.45253
1.42957
1.37205
1.3972
1.36614
1.35812
1.40177
1.42322
1.41787
1.41822
1.40281
1.42604
1.4215
1.46988
1.44675
1.40564
1.4776
1.47605
1.30518
1.31867
1.26463
1.30606
1.38368
1.40196
1.38409
1.37435
1.35349
1.30753
1.50215
1.39914
1.48632
1.53306
1.17757
1.1927
1.19953
1.19158
1.20222
1.16605
1.17549
1.16818
1.16858
1.15753
1.1787
1.1816
1.21034
1.18752
1.19317
1.19219
1.17943
1.16347
1.16666
1.17906
1.52993
1.54374
1.53137
1.54891
1.19943
1.21142
1.20827
1.1994
1.20789
1.20392
1.2214
1.57523
1.61332
1.56888
1.57579
1.60491
1.61628
1.58649
1.17415
1.1616
1.18552
1.19698
1.19315
1.18646
1.17863
1.18194
1.17093
1.14405
1.15041
1.13909
1.14429
1.1453
1.1956
1.20473
1.20606
1.203
1.20669
1.17871
1.18564
1.18211
1.1543
1.13692
1.16186
1.16857
1.16178
1.54065
1.60823
1.58292
1.58359
1.55563
1.6145
1.60355
1.58826
1.58108
1.56084
1.56386
1.6062
1.59475
1.55653
1.56431
1.56944
1.57834
1.58554
1.61014
1.59801
1.60686
1.60913
1.56835
1.55101
1.42852
1.4326
1.45487
1.44621
1.44631
1.47167
1.48824
1.5148
1.52759
1.5152
1.4936
1.4648
1.51565
1.48232
1.45797
1.48093
1.39204
1.42929
1.4068
1.26837
1.25794
1.31802
1.32863
1.28918
1.29197
1.30313
1.31157
1.6041
1.5133
1.5621
1.5489
1.5858
1.5528
1.61722
1.58898
1.49343
1.47234
1.51232
1.49209
1.19284
1.1625
1.21273
1.22073
1.21684
1.20376
1.16905
1.17054
1.17361
1.17423
1.16954
1.17253
1.18806
1.17755
1.16859
1.17243
1.16172
1.16888
1.18192
1.66187
1.70012
1.67893
1.69738
1.69089
1.69661
1.67842
1.69185
1.69697
1.71827
1.72838
1.67828
1.68395
1.68716
1.68032
1.70227
1.69768
1.6648
1.7162
1.70161
1.68787
1.67463
1.66847
1.64384
1.66806
1.62774
1.63749
1.64212
1.62365
1.48591
1.48591
1.53978
1.54991
1.51408
1.50059
1.57626
1.57851
1.57159
1.62633
1.6016
1.57338
1.63775
1.60796
1.60047
1.58669
1.61799
1.63386
1.60209
1.57448
1.58328
1.56709
1.61921
1.60019
1.59846
1.60052
1.16667
1.16393
1.17649
1.17102
1.1878
1.16588
1.1428
1.14224
1.1464
1.14238
1.13341
1.14148
1.12668
1.12996
1.12645
1.13057
1.12777
1.36341
1.26608
1.24534
1.38012
1.37167
1.33129
1.27812
1.28477
1.48162
1.4786
1.44535
1.5074
1.77112
1.80539
1.77672
1.81996
1.84649
1.80642
1.78159
1.76326
1.75381
1.74554
1.75414
1.75328
1.71947
1.7376
1.71307
1.78658
1.7523
1.78214
1.77955
1.69423
1.69563
1.67293
1.6756
1.64099
1.69031
1.6918
1.6478
1.63948
1.61296
1.41437
1.37987
1.40633
1.37954
1.35009
1.39977
1.42945
1.4145
1.22962
1.24402
1.22919
1.25695
1.19322
1.1967
1.22504
1.24941
1.25959
1.26015
1.25915
1.27755
1.26394
1.19291
1.21658
1.18508
1.21267
1.2109
1.16198
1.18487
1.15351
1.21071
1.19164
1.1344
1.13379
1.12861
1.14577
1.18692
1.21288
1.17585
1.1613
1.17572
1.15718
1.16518
1.16764
1.16109
1.16634
1.1451
1.16251
1.15012
1.14356
1.14059
1.344
1.32
1.34551
1.33186
1.36577
1.36964
1.28839
1.29954
1.27431
1.28639
1.38127
1.40558
1.35145
1.66183
1.72274
1.69001
1.74571
1.76131
1.73461
1.69229
1.69535
1.67494
1.7538
1.72961
1.75611
1.61762
1.59643
1.58982
1.55889
1.59373
1.53762
1.63068
1.65142
1.66
1.64901
1.67321
1.2508
1.27193
1.34031
1.32223
1.30628
1.30886
1.27281
1.25788
1.25116
1.22542
1.23217
1.3441
1.34374
1.28061
1.31789
1.29917
1.32354
1.31786
1.22628
1.27881
1.26206
1.2676
1.24834
1.28113
1.25571
1.85136
1.84524
1.85428
1.83983
1.87706
1.86919
1.73205
1.69119
1.67872
1.70809
1.76895
1.73407
1.32363
1.36403
1.3682
1.35591
1.33904
1.32623
1.36155
1.38019
1.27408
1.29074
1.2829
1.2889
1.2698
1.29182
1.29878
1.25697
1.256
1.2583
1.25366
1.28199
1.54638
1.58554
1.55223
1.6045
1.62273
1.81546
1.8258
1.82892
1.79273
1.76531
1.74156
1.65016
1.61994
1.68613
1.66
1.64093
1.62016
1.7028
1.71045
1.68873
1.62734
1.60985
1.71518
1.71467
1.64313
1.61983
1.64648
1.68736
1.69644
1.62217
1.67427
1.6392
1.59095
1.8381
1.82029
1.81086
1.73221
1.78442
1.74828
1.76089
1.78695
1.75311
1.81623
1.79998
1.61512
1.61999
1.55962
1.6449
1.63178
1.67539
1.67425
1.65046
1.72432
1.70344
1.75088
1.78853
1.7766
1.86506
1.84288
1.79895
1.76887
1.76408
1.83236
1.86135
1.8657
1.81698
1.7973
1.78822
1.86639
1.85352
1.64876
1.62583
1.68162
1.60453
1.62883
1.72061
1.7248
1.71866
1.9585
1.96679
1.9482
1.76998
1.7677
1.72677
1.80708
1.78012
1.83894
1.85141
1.84424
1.78158
1.79689
1.73844
1.74635
1.82208
1.82573
1.39989
1.3799
1.36713
1.33851
1.37927
1.93326
1.99914
1.99127
1.98611
1.95698
1.96542
1.94723
1.95626
1.98121
2.00468
1.97403
2.00183
1.99791
1.97831
1.95816
1.91817
1.89529
1.92235
1.96305
1.95128
1.96844
1.81974
1.73761
1.80127
1.77989
1.78856
1.94097
1.94821
1.9365
1.93158
1.93238
1.95428
1.94678
1.90996
1.89334
1.61428
1.58934
1.69097
1.7233
1.76805
1.6912
1.64518
1.84159
1.82886
1.86236
1.8647
1.79892
1.7983
1.81761
1.8076
1.73515
1.74168
1.77372
1.78834
1.56979
1.58589
1.59071
1.55006
1.53222
1.56894
1.54115
1.56891
1.55745
1.95556
1.97657
1.95381
1.98286
1.95487
1.98458
1.9751
1.85039
1.84208
1.86198
1.86798
1.89064
1.86039
1.88968
1.8804
1.86614
1.883
1.87118
1.878
1.87879
1.85835
1.93888
1.93975
1.93969
1.92831
1.91772
1.93688
1.94944
1.9482
1.91145
1.91071
1.90022
1.92602
1.90782
1.69111
1.67951
1.70904
1.74468
1.72585
1.6954
1.67525
1.56067
1.50369
1.53946
1.55946
1.56359
1.53824
1.55018
1.52882
1.50354
1.81188
1.81497
1.82702
1.82805
1.83599
1.79066
1.78259
1.77963
1.79774
1.77518
1.82343
1.83061
1.82333
1.81553
1.79434
1.78932
1.82917
1.82727
1.82289
1.81143
1.82236
1.8215
1.81046
1.72536
1.70903
1.7174
1.73992
1.73541
1.7298
1.73412
1.71379
1.74135
1.72045
1.7641
1.75804
1.76355
1.77221
1.78147
1.74357
1.72675
1.75071
1.73404
1.50141
1.46848
1.48033
1.49612
1.48669
1.512
1.52711
1.62594
1.61251
1.61558
1.95314
1.98725
1.96905
1.96749
1.94165
1.93002
1.96423
1.94791
1.94253
1.94367
1.89175
1.88117
1.91197
1.87597
1.88099
1.91376
1.89707
1.92129
1.90346
1.93233
1.95288
1.93589
1.92047
1.90349
1.91818
1.94271
1.92805
1.91639
1.90553
1.90123
1.88005
1.92535
1.93543
1.89909
1.88277
1.90976
1.74321
1.82605
1.75987
1.78558
1.76505
1.84573
1.8472
1.82226
1.79831
1.75729
1.86648
1.86071
1.89093
1.87048
1.88907
1.89665
1.88053
1.87955
1.89446
1.86829
1.85808
1.88129
1.91652
1.94526
1.91699
1.90131
1.93985
1.93808
1.95381
1.9377
1.94183
1.91376
1.94719
1.9292
1.92604
1.92678
1.93836
1.48928
1.55005
1.57021
1.50152
1.49142
1.47481
1.44242
1.36031
1.40223
1.37853
1.37788
1.35311
1.33986
1.35718
1.34629
1.84545
1.83279
1.81615
1.83837
1.78259
1.83505
1.85244
1.81249
1.78663
1.77399
1.75144
1.55962
1.56082
1.53398
1.50819
1.52554
1.60413
1.60731
1.91618
1.91509
1.8957
1.82632
1.866
1.86678
1.91185
1.86891
1.46722
1.41823
1.43318
1.49107
1.52145
1.48349
1.51489
1.5187
1.56909
1.53473
1.59882
1.62223
1.56132
1.52602
1.48467
1.4861
1.41488
1.46277
1.45847
1.47675
1.49181
1.82447
1.8154
1.78849
1.76493
1.8013
1.77773
1.85166
1.82828
1.87236
1.8416
1.91254
1.92402
1.85172
1.89896
1.85775
1.35042
1.40396
1.38409
1.40419
1.35412
1.32498
1.36537
1.42744
1.42311
1.36601
1.34011
1.88803
1.87581
1.91426
1.90328
1.92881
1.90307
1.9118
1.94191
1.92864
1.93777
1.5851
1.68583
1.62416
1.6556
1.61587
1.57992
1.66647
1.67641
1.60248
1.55118
1.77234
1.78538
1.7814
1.7912
1.75231
1.79722
1.73634
1.78204
1.75818
1.80395
1.80209
1.73363
1.72503
1.7242
1.72753
1.73391
1.7192
1.75939
1.77054
1.76418
1.76676
1.76086
1.73448
1.93685
1.95478
1.91944
1.90519
1.89717
1.95573
1.94237
1.94147
1.92275
1.98346
1.97472
2.00028
1.99648
1.98765
1.9811
1.97142
1.99119
1.97544
1.95849
1.94905
1.97736
1.96809
1.96356
1.95803
1.93923
1.9399
1.94423
1.90704
1.91057
1.88683
1.90691
1.92511
1.90489
1.94284
1.93363
1.92761
1.95863
1.93317
1.94405
1.81718
1.79036
1.74704
1.83941
1.84414
1.77655
1.81706
1.77245
1.84404
1.83838
1.81009
1.82659
1.82599
1.82375
1.78299
1.80814
1.82281
1.84066
1.83961
1.82236
1.82428
1.54833
1.49926
1.50744
1.55493
1.56707
1.569
1.55854
1.56286
1.56542
1.52297
1.50351
1.52037
1.53878
1.54128
1.58126
1.57394
1.59565
1.60634
1.55776
1.58838
1.57224
1.55158
1.53624
1.58035
1.52066
1.52694
1.95296
1.92765
1.96782
1.95482
1.94562
1.98013
1.96002
1.77444
1.69935
1.70885
1.66568
1.75743
1.80095
1.80418
1.79637
1.80539
1.73361
1.70422
1.76046
1.76456
1.6915
1.73071
1.75218
1.8728
1.88207
1.84223
1.8875
1.86265
1.90479
1.90275
1.90031
1.88527
1.82639
1.88192
1.87339
1.86273
1.84821
1.21266
1.21621
1.20684
1.20615
1.20267
1.19898
1.20931
1.21239
1.18355
1.22028
1.20375
1.20422
1.19539
1.20637
1.20738
1.16166
1.18186
1.19286
1.1891
1.18645
1.18134
1.22321
1.23036
1.2136
1.22041
1.21648
1.23409
1.23102
1.22293
1.21427
1.28369
1.27266
1.34445
1.34809
1.31866
1.29062
1.29186
1.30045
1.32919
1.35752
1.28334
1.3046
1.27894
1.27919
1.29461
1.2819
1.31135
1.30856
1.31704
1.31257
1.38421
1.42597
1.46533
1.39257
1.3983
1.43128
1.4213
1.45322
1.45396
1.44301
1.43397
1.45111
1.4228
1.36099
1.34698
1.37827
1.35995
1.37574
1.72813
1.77218
1.82861
1.90001
1.88059
1.90996
1.92915
1.91718
1.92922
1.89917
1.92664
1.91131
1.94738
1.92906
1.52732
1.45418
1.52701
1.47821
1.43493
1.56961
1.55982
1.55271
1.57198
1.52711
1.46948
1.3608
1.33716
1.39803
1.42307
1.35363
1.41051
1.38838
1.40658
1.8263
1.84389
1.849
1.8668
1.83084
1.7052
1.5258
1.50861
1.55152
1.54775
1.53429
1.53677
1.69273
1.68586
1.65834
1.6838
1.69609
1.71905
1.69662
1.7075
1.69707
1.70625
1.72002
1.71736
1.61055
1.58998
1.61087
1.64038
1.62128
1.62153
1.60548
1.64009
1.63759
1.70912
1.54077
1.49252
1.53089
1.54261
1.55693
1.53853
1.51579
1.50185
1.48564
1.55362
1.46734
1.48861
1.45657
1.47073
1.60109
1.62371
1.65521
1.58762
1.5896
1.62194
1.61479
1.63062
1.65678
1.65723
1.67307
1.62354
1.64734
1.45379
1.57609
1.52295
1.54899
1.81727
1.85311
1.84988
1.8395
1.82152
1.87597
1.88443
1.88258
1.84787
1.83289
1.84124
1.56068
1.55983
1.82458
1.76726
1.83804
1.83727
1.81007
1.77268
1.78413
1.76112
1.72588
1.74479
1.84361
1.85269
1.79276
1.78836
1.76725
1.88699
1.94113
1.90194
1.93689
1.93147
1.94093
1.94313
1.88665
1.92365
1.41524
1.43816
1.401
1.41823
1.39435
1.36285
1.37976
1.38385
1.29995
1.29869
1.3254
1.30434
1.98407
1.97122
1.9071
1.93269
1.88153
1.87704
1.86182
1.93515
1.93177
1.92157
1.90295
1.912
1.87999
1.93983
1.94058
1.92189
1.91882
1.55531
1.70507
1.68576
1.56067
1.59731
1.60857
1.63368
1.60867
1.82709
1.83171
1.84542
1.8521
1.85445
1.84919
1.85892
1.83797
1.31884
1.30031
1.57023
1.64246
1.59902
1.67423
1.674
1.65388
1.71534
1.70594
1.70284
1.70802
1.3155
1.33023
1.35864
1.40334
1.35912
1.41329
1.35909
1.44619
1.4312
1.44346
1.46312
1.40913
1.3959
1.22855
1.2487
1.21011
1.21656
1.19273
1.20221
1.23884
1.29041
1.23773
1.24314
1.22501
1.32006
1.2925
1.2539
1.25557
1.51373
1.38456
1.38139
1.4186
1.42042
1.43737
1.36066
1.3206
1.38652
1.35582
1.46383
1.42627
1.25946
1.25582
1.26757
1.57049
1.56608
1.53966
1.54373
1.492
1.45215
1.447
1.22748
1.22638
1.22638
1.20259
1.19341
1.19784
1.18656
1.29416
1.25715
1.31401
1.25642
1.22039
1.24298
1.23792
1.24152
1.23815
1.26865
1.25079
1.23915
1.18127
1.18835
1.21152
1.17648
1.18425
1.19381
1.17547
1.18906
1.17854
1.19323
1.18613
1.44756
1.50152
1.38788
1.44018
1.42027
1.36546
1.40098
1.43068
1.38725
1.48489
1.51661
1.43694
1.43215
1.65709
1.68732
1.66748
1.69623
1.66375
1.67721
1.7338
1.71673
1.71879
1.16315
1.17856
1.16547
1.16433
1.19194
1.18397
1.16062
1.16382
1.17423
1.18046
1.18555
1.21174
1.25929
1.20883
1.1724
1.187
1.23372
1.24289
1.24434
1.26256
1.2036
1.19074
1.4851
1.46836
1.5161
1.54417
1.521
1.5563
1.54917
1.51593
1.4918
1.5831
1.57007
1.5427
1.52894
1.37206
1.40102
1.38571
1.35333
1.36673
1.32093
1.36585
1.39143
1.33729
1.31308
1.35838
1.34126
1.37673
1.36778
1.20934
1.21144
1.20233
1.20436
1.21095
1.2097
1.19766
1.20774
1.20614
1.21393
1.21224
1.21149
1.21045
1.21079
1.20493
1.20367
1.20965
1.53383
1.53545
1.54942
1.63118
1.63078
1.62839
1.6304
1.6082
1.60142
1.60091
1.58819
1.58362
1.62249
1.18479
1.20059
1.17973
1.18044
1.15287
1.14396
1.15881
1.16629
1.19851
1.1828
1.13458
1.14809
1.15811
1.1705
1.15988
1.13637
1.15818
1.14845
1.16108
1.15626
1.15465
1.15693
1.17152
1.64918
1.6244
1.61152
1.65846
1.61865
1.65706
1.67088
1.68222
1.67825
1.57618
1.60003
1.61183
1.29323
1.32217
1.26045
1.26071
1.28077
1.31923
1.34004
1.32567
1.30079
1.4843
1.45403
1.43582
1.47133
1.52282
1.57901
1.50523
1.49329
1.46507
1.5432
1.59919
1.58896
1.5668
1.53825
1.70537
1.71381
1.79919
1.80063
1.79202
1.80894
1.77401
1.74735
1.69422
1.74292
1.69958
1.72108
1.7431
1.7415
1.75813
1.7423
1.71815
1.70506
1.7379
1.71522
1.71516
1.769
1.75019
1.75642
1.756
1.73719
1.7381
1.77546
1.76319
1.78479
1.76261
1.41545
1.3003
1.33076
1.32295
1.32336
1.30332
1.28654
1.2641
1.3026
1.32
1.27296
1.31232
1.28667
1.19471
1.17558
1.2145
1.13788
1.13451
1.63909
1.67595
1.61769
1.72104
1.73188
1.32065
1.36189
1.39798
1.32826
1.30817
1.37984
1.4145
1.32409
1.34235
1.29475
1.28708
1.24621
1.24216
1.33165
1.26333
1.33734
1.34657
1.31881
1.29622
1.30232
1.30507
1.72171
1.67877
1.74349
1.8439
1.82315
1.88923
1.89661
1.90723
1.82695
1.83703
1.85702
1.84385
1.91449
1.91677
1.91934
1.76631
1.79845
1.79847
1.71162
1.77012
1.7431
1.75842
1.79335
1.82155
1.75782
1.71788
1.73139
1.78851
1.75201
1.70789
1.74617
1.73087
1.72412
1.68199
1.77638
1.76803
1.805
1.78732
1.6596
1.69453
1.55857
1.48978
1.46902
1.53085
1.59948
1.50824
1.50657
1.79907
1.84089
1.80371
1.86772
1.94766
1.98821
1.98298
1.9855
1.95931
1.96614
1.96854
1.88667
1.84877
1.89483
1.87285
1.89325
1.91555
1.9182
1.87598
1.84484
1.84512
1.82993
1.68224
1.67014
1.64973
1.6356
1.67909
1.69006