/*--------------------------------*- C++ -*----------------------------------*\
| =========                 |                                                 |
| \\      /  F ield         | OpenFOAM: The Open Source CFD Toolbox           |
|  \\    /   O peration     | Version:  v1612+                                |
|   \\  /    A nd           | Web:      www.OpenFOAM.com                      |
|    \\/     M anipulation  |                                                 |
\*---------------------------------------------------------------------------*/
FoamFile
{
    version     2.0;
    format      ascii;
    class       volVectorField;
    location    "50";
    object      U;
}
// * * * * * * * * * * * * * * * * * * * * * * * * * * * * * * * * * * * * * //

dimensions      [0 1 -1 0 0 0 0];

internalField   nonuniform List<vector> 
17233
(
(0.0412377 -0.195371 -0.757223)
(0.0909039 -0.311846 -0.717874)
(0.0651215 -0.391923 -0.784114)
(0.0557722 -0.30415 -1.10143)
(0.0628921 -0.300317 -1.07886)
(0.0600098 -0.320348 -1.16286)
(0.0770008 -0.303629 -1.13151)
(0.112537 -0.359426 -1.28181)
(0.0712775 -0.326037 -1.21734)
(0.0912371 -0.34516 -1.27152)
(0.0768172 -0.32174 -1.17051)
(0.0984821 -0.327029 -1.16444)
(0.08942 -0.328778 -1.18233)
(0.0992771 -0.322574 -1.14735)
(0.0827923 -0.311783 -0.895055)
(0.0665206 -0.310488 -0.815227)
(0.0810586 -0.3042 -0.863618)
(0.0764671 -0.30979 -0.854456)
(0.0665238 -0.316824 -0.882017)
(0.0920275 -0.319267 -0.957538)
(0.0606965 -0.302042 -0.819547)
(0.0690744 -0.310426 -0.878134)
(0.0367225 -0.285565 -0.771764)
(0.0349597 -0.287026 -0.74924)
(0.0960131 -0.315358 -0.952748)
(0.0718965 -0.309833 -0.894993)
(0.0606117 -0.305759 -0.890901)
(0.039867 -0.284606 -0.763284)
(0.0436113 -0.295184 -0.767915)
(0.0589389 -0.303021 -0.880634)
(0.0709375 -0.301378 -0.912195)
(0.0281076 -0.0681727 -0.380354)
(0.0445123 -0.0717465 -0.391071)
(0.0316208 -0.0681414 -0.437286)
(0.0380597 -0.0686008 -0.434651)
(0.00797514 -0.0714387 -0.345056)
(0.0283897 -0.0727154 -0.354012)
(0.00781497 -0.0694976 -0.318256)
(-0.0228038 -0.0902728 -0.381192)
(-0.00936194 -0.0806726 -0.330688)
(0.0264338 -0.0716923 -0.375003)
(0.0371929 -0.0684069 -0.423855)
(0.0112699 -0.0787363 -0.446874)
(0.145177 -0.209932 -0.521813)
(0.13044 -0.196853 -0.487507)
(0.12181 -0.19009 -0.467759)
(0.136728 -0.211852 -0.495686)
(0.130477 -0.24264 -0.560119)
(0.142935 -0.255848 -0.665639)
(0.162458 -0.228181 -0.640379)
(0.130646 -0.214287 -0.513949)
(0.117802 -0.1972 -0.473447)
(0.152931 -0.243375 -0.659073)
(0.141768 -0.239761 -0.553248)
(0.141651 -0.232913 -0.623113)
(0.132508 -0.226745 -0.561202)
(0.137356 -0.20023 -0.522526)
(0.122981 -0.200918 -0.501786)
(0.101268 -0.263536 -0.957658)
(0.0835844 -0.257476 -0.922854)
(0.0914123 -0.23479 -0.813564)
(0.0854559 -0.213177 -0.77633)
(0.0432125 -0.18966 -0.714309)
(0.0644821 -0.213399 -0.793322)
(0.0513143 -0.201098 -0.731141)
(0.065375 -0.213908 -0.792702)
(0.0691031 -0.199798 -0.695839)
(0.082876 -0.21575 -0.757932)
(0.0966153 -0.272359 -0.971342)
(0.0746147 -0.204028 -0.747981)
(0.0844711 -0.226993 -0.817694)
(0.0504117 -0.183424 -0.691723)
(0.0581488 -0.205098 -0.732854)
(0.0425896 -0.196984 -0.6825)
(0.107419 -0.274867 -0.94677)
(0.111436 -0.271857 -0.950928)
(0.0988938 -0.231132 -0.812482)
(0.0851503 -0.218045 -0.759037)
(0.0152689 -0.268499 -0.615012)
(0.0626776 -0.286054 -0.738674)
(0.0560971 -0.281978 -0.684205)
(0.0379628 -0.262437 -0.595082)
(0.016015 -0.268485 -0.589731)
(0.0465855 -0.288799 -0.728216)
(0.054646 -0.270757 -0.61366)
(0.0343036 -0.257857 -0.5707)
(0.0173546 -0.283891 -0.596428)
(0.0478579 -0.284468 -0.741198)
(0.0537814 -0.281352 -0.706057)
(0.0242668 -0.236685 -0.494243)
(0.0164222 -0.253386 -0.527084)
(0.0392618 -0.265378 -0.612501)
(0.0190457 -0.256472 -0.56812)
(0.0388008 -0.281973 -0.725594)
(0.0284709 -0.26079 -0.631556)
(-0.0537995 -0.26388 -0.633995)
(-0.0408402 -0.29242 -0.658791)
(-0.0649124 -0.291432 -0.537766)
(-0.0521364 -0.30892 -0.585644)
(-0.0516453 -0.282268 -0.64519)
(-0.0584194 -0.25138 -0.618259)
(-0.0592144 -0.289257 -0.541615)
(-0.0640784 -0.264979 -0.495848)
(-0.0644018 -0.291386 -0.577065)
(-0.0681834 -0.267165 -0.551688)
(-0.0725665 -0.243093 -0.536893)
(-0.0760668 -0.249871 -0.461861)
(-0.0749445 -0.246153 -0.512876)
(0.135171 -0.27367 -1.04464)
(0.13757 -0.271971 -1.0259)
(0.157114 -0.268563 -1.02093)
(0.161367 -0.27784 -1.04419)
(0.161882 -0.288147 -1.07587)
(0.159145 -0.286131 -1.08584)
(0.16107 -0.278379 -1.01834)
(0.171001 -0.296173 -1.18458)
(0.176321 -0.295997 -1.18558)
(0.148542 -0.303256 -1.13074)
(0.141948 -0.282487 -1.04138)
(0.177673 -0.293672 -1.08007)
(0.173892 -0.290243 -1.06727)
(0.185866 -0.298703 -1.13534)
(0.178027 -0.298974 -1.17094)
(0.149428 -0.299079 -1.11531)
(0.185323 -0.299429 -1.17624)
(0.171322 -0.292391 -1.18464)
(0.191545 -0.303219 -1.12591)
(0.18148 -0.291921 -1.09162)
(0.157696 -0.30314 -1.12667)
(0.167427 -0.300767 -1.11565)
(0.0114369 -0.0676508 -0.490237)
(-0.0185425 -0.0821101 -0.469941)
(-0.0275857 -0.0732502 -0.588446)
(0.0240658 -0.0236466 -0.573624)
(-0.0226853 -0.0750996 -0.510174)
(-0.00101604 -0.0726423 -0.475916)
(-0.0299612 -0.0822684 -0.458905)
(-0.0258636 -0.0937269 -0.598665)
(-0.0407457 -0.10343 -0.568294)
(-0.0180323 -0.0725384 -0.539386)
(0.0183729 -0.0440846 -0.568409)
(0.189329 -0.307881 -1.0033)
(0.197866 -0.310777 -1.07783)
(0.204168 -0.318451 -1.09897)
(0.188429 -0.303013 -1.0245)
(0.198072 -0.297568 -1.20772)
(0.196807 -0.314184 -1.18278)
(0.212151 -0.315196 -1.18664)
(0.196591 -0.321248 -1.16526)
(0.184283 -0.291691 -1.02935)
(0.177784 -0.294637 -1.03431)
(0.170612 -0.290974 -0.999721)
(0.175562 -0.295309 -1.04487)
(0.173663 -0.294751 -1.05906)
(0.114536 -0.216501 -0.749126)
(0.0983824 -0.217672 -0.697398)
(0.10637 -0.223013 -0.728229)
(0.13352 -0.244458 -0.790297)
(0.130943 -0.239405 -0.772022)
(0.093419 -0.210624 -0.680869)
(0.145082 -0.266651 -0.929072)
(0.153473 -0.261174 -0.904049)
(0.153271 -0.270182 -0.89367)
(0.150914 -0.274424 -0.921654)
(0.137226 -0.251083 -0.787539)
(0.13006 -0.230821 -0.741124)
(0.122631 -0.224983 -0.750215)
(0.132425 -0.23986 -0.746761)
(0.120188 -0.222011 -0.691444)
(0.152152 -0.272 -0.873344)
(0.11527 -0.222979 -0.729029)
(0.144558 -0.320804 -1.04638)
(0.156009 -0.300996 -1.05296)
(0.156045 -0.293476 -1.00462)
(0.142233 -0.31248 -0.9736)
(0.105148 -0.328644 -0.986471)
(0.150613 -0.305543 -1.01638)
(0.130195 -0.317017 -1.01175)
(0.125648 -0.319105 -0.940939)
(0.162394 -0.285389 -0.969394)
(0.151588 -0.29422 -0.811598)
(0.123027 -0.311171 -0.852684)
(0.122076 -0.320351 -0.879937)
(0.136157 -0.318127 -0.908053)
(0.154088 -0.295684 -1.03704)
(0.158208 -0.29095 -0.915838)
(0.137072 -0.293637 -0.821317)
(0.13084 -0.315062 -0.828449)
(0.15224 -0.288369 -0.987477)
(0.136913 -0.303827 -0.813933)
(0.132427 -0.31654 -0.849497)
(0.0465294 -0.0309227 -0.656889)
(0.0559386 -0.0286905 -0.584817)
(0.0367753 -0.0783591 -0.707549)
(0.0315271 -0.0521197 -0.601699)
(0.0471332 -0.0490723 -0.715222)
(0.0831444 -0.0258782 -0.679736)
(0.0392359 -0.00624474 -0.572688)
(0.0560455 -0.00195648 -0.48378)
(0.0650673 -0.0295703 -0.470524)
(0.0458729 -0.0277264 -0.494887)
(0.105132 0.0219719 -0.552586)
(0.185267 -0.206393 -1.13237)
(0.172549 -0.180962 -1.00754)
(0.172835 -0.109786 -0.923175)
(0.17971 -0.185281 -1.07915)
(0.183274 -0.225591 -1.17268)
(0.145497 -0.156572 -0.99723)
(0.148865 -0.138426 -0.973909)
(0.182954 -0.194122 -1.1337)
(0.170572 -0.138194 -1.04884)
(0.169998 -0.0967352 -0.899235)
(0.184105 -0.187355 -1.06675)
(0.127816 -0.0998296 -0.90188)
(0.158751 -0.0923609 -0.923973)
(0.133456 0.0161374 -0.680267)
(0.187222 -0.0634607 -0.871222)
(0.167363 -0.0355385 -0.786024)
(0.167678 0.00486334 -0.74407)
(0.172765 -0.16436 -1.02992)
(0.139493 -0.0839579 -0.854928)
(0.119636 -0.116653 -0.916548)
(0.139119 -0.079296 -0.86581)
(0.181833 -0.119967 -0.969018)
(0.170842 -0.304328 -1.04136)
(0.18729 -0.313708 -1.13906)
(0.168372 -0.319456 -1.03514)
(0.175219 -0.301776 -1.06881)
(0.184509 -0.30132 -1.08524)
(0.192751 -0.308896 -1.17876)
(0.16155 -0.324048 -0.965718)
(0.179993 -0.325684 -0.998021)
(0.160147 -0.320609 -0.92542)
(0.15934 -0.324286 -0.891924)
(0.154731 -0.31431 -1.00116)
(0.184199 -0.321184 -1.14475)
(0.180595 -0.324846 -0.984553)
(0.173486 -0.308973 -1.02039)
(0.182959 -0.326035 -1.13176)
(0.176437 -0.317278 -1.07097)
(0.180529 -0.354881 -1.10344)
(0.185492 -0.338058 -1.07016)
(0.16679 -0.342785 -1.08177)
(0.19426 -0.294349 -1.22386)
(0.195639 -0.28368 -1.23244)
(0.173128 -0.253734 -1.09101)
(0.174672 -0.279092 -1.11128)
(0.186357 -0.273493 -1.19049)
(0.175006 -0.288778 -1.12223)
(0.187771 -0.314782 -1.14223)
(0.197499 -0.297721 -1.16745)
(0.183873 -0.271319 -1.12793)
(0.184615 -0.305213 -1.1195)
(0.181811 -0.3149 -1.10404)
(0.165672 -0.313838 -1.20017)
(0.171388 -0.31533 -1.21073)
(0.163102 -0.315601 -1.20959)
(0.139935 -0.308747 -1.11138)
(0.148898 -0.319324 -1.17589)
(0.157377 -0.316752 -1.1735)
(0.161768 -0.318916 -1.14476)
(0.151049 -0.306939 -1.1304)
(0.151435 -0.314253 -1.16169)
(0.141377 -0.308455 -1.13406)
(0.143506 -0.309825 -1.11955)
(0.155224 -0.310662 -1.11532)
(0.140016 -0.284881 -1.01291)
(0.164459 -0.332387 -1.21949)
(0.151678 -0.310837 -1.13181)
(0.14758 -0.310024 -1.10587)
(0.0600335 -0.291231 -1.0504)
(0.052798 -0.298716 -1.04844)
(0.0638639 -0.270483 -0.983995)
(0.0521086 -0.281117 -0.973138)
(0.0774671 -0.301077 -1.1013)
(0.0722124 -0.262489 -0.96445)
(0.0675868 -0.264534 -0.908623)
(0.0604973 -0.305208 -1.07188)
(0.0654113 -0.282915 -0.967273)
(0.0874378 -0.275345 -1.02586)
(0.0774858 -0.276874 -1.01455)
(0.0889434 -0.306527 -1.12023)
(0.085599 -0.294701 -1.04764)
(0.0661778 -0.296784 -1.00184)
(-0.0644062 -0.209331 -0.616204)
(-0.0772292 -0.186787 -0.468024)
(-0.0859067 -0.216426 -0.530797)
(-0.0845544 -0.226407 -0.513359)
(-0.0770205 -0.200068 -0.448893)
(-0.0798799 -0.229443 -0.560941)
(-0.0914509 -0.231988 -0.551796)
(-0.0762925 -0.186706 -0.473876)
(-0.0773079 -0.166572 -0.432393)
(-0.0528927 -0.125155 -0.569179)
(-0.0444762 -0.132454 -0.588822)
(-0.0544446 -0.141394 -0.628794)
(-0.0880905 -0.161972 -0.46097)
(-0.0841259 -0.15616 -0.413663)
(-0.0789834 -0.200252 -0.621051)
(-0.0722719 -0.135917 -0.407767)
(-0.0466367 -0.171168 -0.64564)
(-0.0543609 -0.139017 -0.567049)
(-0.0712987 -0.125258 -0.479935)
(-0.0736586 -0.136008 -0.483749)
(0.00713538 -0.265945 -0.710002)
(0.00211848 -0.276108 -0.805609)
(0.000871365 -0.267658 -0.749736)
(0.00129427 -0.242019 -0.642312)
(0.0211331 -0.275001 -0.740858)
(0.0292736 -0.290856 -0.866632)
(0.0172561 -0.281209 -0.822353)
(0.0285937 -0.270229 -0.73494)
(0.0128415 -0.264036 -0.675156)
(0.0338609 -0.291376 -0.900291)
(0.041605 -0.305269 -0.931747)
(-0.00275463 -0.275155 -0.767133)
(0.0129459 -0.264676 -0.698446)
(0.0088909 -0.255989 -0.682372)
(0.031495 -0.267442 -0.741895)
(0.0444251 -0.302981 -0.902076)
(0.0240492 -0.287585 -0.863955)
(0.0058842 -0.240351 -0.640727)
(0.0261907 -0.25781 -0.708394)
(0.00658716 -0.26985 -0.763459)
(0.0141125 -0.261757 -0.731911)
(-0.00162546 -0.265008 -0.712721)
(0.00303453 -0.254099 -0.654654)
(0.0398022 -0.302036 -0.885723)
(0.0258555 -0.287193 -0.864453)
(0.023684 -0.278628 -0.838417)
(-0.0564546 -0.17454 -0.618622)
(-0.0412405 -0.17324 -0.676663)
(-0.0820159 -0.150214 -0.495835)
(-0.103096 -0.106795 -0.421683)
(-0.0607397 -0.15759 -0.623208)
(-0.0909292 -0.126806 -0.477252)
(0.128164 -0.244712 -0.859378)
(0.138093 -0.247452 -0.891019)
(0.137429 -0.235941 -0.837415)
(0.154559 -0.246341 -0.886963)
(0.150613 -0.23988 -0.845769)
(0.127996 -0.226511 -0.783689)
(0.108021 -0.238157 -0.832206)
(0.121227 -0.243379 -0.915095)
(0.118945 -0.241441 -0.906325)
(0.10634 -0.233485 -0.83961)
(0.161005 -0.252452 -0.93773)
(0.156529 -0.243163 -0.872512)
(0.103737 -0.227151 -0.79592)
(0.128212 -0.235729 -0.88792)
(0.160446 -0.249118 -0.92639)
(0.13511 -0.234257 -0.860874)
(0.126576 -0.231803 -0.82769)
(0.0838014 -0.30424 -1.02441)
(0.080771 -0.304446 -0.987757)
(0.0804426 -0.312119 -0.988941)
(0.106424 -0.319613 -1.04595)
(0.113525 -0.325461 -1.09946)
(0.114529 -0.321594 -1.08393)
(0.137562 -0.32232 -1.15869)
(0.11687 -0.320652 -1.16483)
(0.123172 -0.326129 -1.13444)
(0.082809 -0.305226 -0.994477)
(0.0796118 -0.299941 -0.94945)
(0.111856 -0.310894 -1.09185)
(0.152857 -0.270984 -1.0068)
(0.15397 -0.279238 -1.02927)
(0.150387 -0.267618 -0.970636)
(0.15917 -0.270406 -0.98744)
(0.116101 -0.231022 -0.809982)
(0.131974 -0.250031 -0.862905)
(0.137181 -0.271231 -0.970174)
(0.129448 -0.237261 -0.825595)
(0.11175 -0.222609 -0.770942)
(0.122382 -0.245847 -0.863993)
(0.110784 -0.247054 -0.871452)
(0.106069 -0.25862 -0.893529)
(0.112755 -0.241691 -0.845308)
(0.107644 -0.236643 -0.835015)
(0.106465 -0.21106 -0.769437)
(-0.0256547 -0.2916 -0.742844)
(-0.0393161 -0.251495 -0.740357)
(-0.0449742 -0.333756 -0.679541)
(0.0163708 -0.286918 -0.783734)
(0.0315578 -0.245305 -0.82064)
(-0.0531991 -0.270966 -0.711183)
(-0.0330207 -0.364539 -0.668592)
(-0.0415414 -0.338361 -0.684103)
(0.0792474 -0.303026 -0.885013)
(0.0427046 -0.251337 -0.833506)
(0.0204677 -0.340023 -0.76672)
(0.0320884 -0.32658 -0.788652)
(0.0491559 -0.287796 -0.699824)
(0.0398436 -0.27112 -0.653925)
(0.0585976 -0.295713 -0.751384)
(0.0655952 -0.299352 -0.758753)
(0.0469606 -0.281106 -0.672973)
(0.0542539 -0.296926 -0.753906)
(0.0510964 -0.292468 -0.784516)
(0.0513502 -0.293777 -0.789825)
(0.0407735 -0.273018 -0.635874)
(0.0317451 -0.24966 -0.580507)
(0.0437072 -0.28491 -0.722098)
(0.0378902 -0.298702 -0.756348)
(0.0301153 -0.289667 -0.710949)
(0.0304208 -0.283331 -0.719586)
(0.0209677 -0.272595 -0.687455)
(0.0260435 -0.251856 -0.618973)
(0.0254584 -0.267216 -0.662255)
(0.0331143 -0.258384 -0.61836)
(-0.00642104 -0.0527918 -0.471247)
(0.0261482 -0.059176 -0.3277)
(0.00701808 -0.07109 -0.327725)
(0.053068 -0.0286614 -0.442165)
(0.0566447 -0.013965 -0.450939)
(-0.00922177 -0.0622616 -0.394311)
(-0.000819667 -0.0654643 -0.384237)
(0.0248193 -0.0582504 -0.340296)
(0.0190046 -0.068679 -0.343572)
(0.00607558 -0.06735 -0.343924)
(0.0326497 -0.0497751 -0.337513)
(0.0843205 -0.0226764 -0.398956)
(0.0650874 -0.0360654 -0.384661)
(0.134863 -0.285244 -0.703609)
(0.124313 -0.268479 -0.638929)
(0.131951 -0.277502 -0.719457)
(0.15568 -0.314351 -0.828804)
(0.157522 -0.304584 -0.81365)
(0.147958 -0.307675 -0.766388)
(0.142218 -0.301376 -0.725848)
(0.125961 -0.276298 -0.66994)
(0.131781 -0.270612 -0.675463)
(0.150582 -0.290408 -0.78486)
(0.13642 -0.281351 -0.693689)
(0.14004 -0.275479 -0.705916)
(0.0445653 -0.263804 -0.772513)
(0.0492979 -0.268195 -0.767188)
(0.00255229 -0.233361 -0.568864)
(-0.00265819 -0.217047 -0.521035)
(0.0290786 -0.253072 -0.685497)
(0.0247644 -0.250274 -0.663383)
(0.0383393 -0.270733 -0.731498)
(0.0514223 -0.272655 -0.716089)
(0.0386908 -0.219335 -0.554797)
(0.026411 -0.211753 -0.518151)
(0.020496 -0.223898 -0.52866)
(0.00925435 -0.211045 -0.504062)
(0.00935146 -0.232132 -0.606525)
(0.0360801 -0.246468 -0.662596)
(0.024879 -0.215832 -0.555535)
(0.0137265 -0.194131 -0.465915)
(0.177028 -0.298808 -0.585539)
(0.167654 -0.292064 -0.543083)
(0.156647 -0.256251 -0.493072)
(0.174651 -0.240297 -0.506327)
(0.18687 -0.249976 -0.554124)
(0.197442 -0.30909 -0.586262)
(0.187248 -0.299599 -0.604263)
(0.188823 -0.305595 -0.670707)
(0.196702 -0.303982 -0.6674)
(0.166838 -0.253465 -0.49082)
(0.178354 -0.270449 -0.57485)
(0.181329 -0.238176 -0.497304)
(0.163915 -0.229513 -0.457686)
(0.209589 -0.279962 -0.663181)
(0.194015 -0.265533 -0.549008)
(0.178319 -0.38811 -0.831039)
(0.168341 -0.411726 -0.766464)
(0.172508 -0.382929 -0.853002)
(0.135316 -0.416131 -0.711078)
(0.142642 -0.386853 -0.888659)
(0.122921 -0.413236 -0.79252)
(-0.000965406 -0.0796826 -0.361039)
(-0.013613 -0.0812455 -0.33971)
(-0.00839085 -0.0770987 -0.368624)
(-0.0149009 -0.0825075 -0.356319)
(-0.0129614 -0.0826677 -0.404661)
(-0.0342219 -0.0988103 -0.398248)
(0.00311298 -0.0772862 -0.394766)
(0.0375337 -0.0894815 -0.487858)
(0.0295899 -0.0998126 -0.498877)
(-0.0399257 -0.114648 -0.463023)
(-0.0430191 -0.115014 -0.438085)
(-0.0348486 -0.109793 -0.422521)
(-0.0110557 -0.0818595 -0.40914)
(0.0182734 -0.108295 -0.551232)
(-0.0273525 -0.119284 -0.524453)
(-0.0200502 -0.132724 -0.52947)
(-0.00774068 -0.096857 -0.480719)
(0.155061 -0.315434 -0.982307)
(0.157225 -0.32266 -1.07417)
(0.157893 -0.324135 -0.940136)
(0.162433 -0.30855 -0.926422)
(0.175376 -0.291741 -0.89154)
(0.16613 -0.289915 -0.90004)
(0.17303 -0.232516 -0.932992)
(0.171427 -0.225955 -0.975575)
(0.176985 -0.264088 -0.963999)
(0.179428 -0.275592 -1.03054)
(0.16961 -0.215607 -0.893419)
(0.182185 -0.261207 -0.904649)
(0.197768 -0.276469 -1.04411)
(0.174477 -0.214554 -0.983002)
(0.183685 -0.234686 -1.03483)
(0.182615 -0.279445 -0.908092)
(0.176777 -0.274789 -0.944071)
(0.175657 -0.226567 -1.01307)
(0.162372 -0.183833 -0.92276)
(0.174651 -0.230712 -0.895093)
(0.191814 -0.252556 -0.895372)
(0.085639 -0.315608 -1.23007)
(0.0801789 -0.306234 -1.19094)
(0.0786814 -0.29653 -1.15171)
(0.075659 -0.325305 -1.2229)
(0.101637 -0.321971 -1.26364)
(0.0795989 -0.298557 -1.18044)
(0.106393 -0.358534 -1.29774)
(0.115036 -0.341621 -1.28009)
(0.0857986 -0.337898 -1.26748)
(0.0983243 -0.349585 -1.28867)
(0.0960089 -0.328728 -1.2466)
(0.0829718 -0.338228 -1.25357)
(0.07516 -0.339747 -1.2241)
(0.0707039 -0.33166 -1.20221)
(0.0544888 -0.329839 -1.17916)
(0.159306 -0.262228 -1.13015)
(0.170158 -0.165741 -1.04139)
(0.161018 -0.23758 -1.07061)
(0.16122 -0.177905 -1.02181)
(0.179649 -0.148653 -0.946072)
(0.172358 -0.210727 -0.995506)
(0.167239 -0.268318 -1.11132)
(0.170853 -0.219215 -1.03289)
(0.162253 -0.28624 -1.1322)
(0.158733 -0.289575 -1.11645)
(0.173899 -0.284706 -1.17985)
(0.170108 -0.294459 -1.17443)
(0.182669 -0.211888 -1.12661)
(0.190003 -0.238815 -1.18206)
(0.178515 -0.272844 -1.17941)
(0.185562 -0.236287 -1.16001)
(0.177524 -0.160104 -1.08657)
(0.16538 -0.320382 -1.21555)
(0.162481 -0.320973 -1.22087)
(0.137956 -0.321567 -1.09737)
(0.144427 -0.314783 -1.11517)
(0.17153 -0.311965 -1.13999)
(0.167807 -0.321805 -1.13431)
(0.160887 -0.316161 -1.1453)
(0.173736 -0.318667 -1.22052)
(0.146999 -0.32648 -1.13254)
(0.151008 -0.300216 -1.05756)
(0.150633 -0.32114 -1.11978)
(0.177498 -0.301338 -1.04851)
(0.188703 -0.279322 -1.05027)
(0.204285 -0.295278 -1.1137)
(0.224578 -0.290743 -1.11523)
(0.178236 -0.282715 -1.04061)
(0.169819 -0.255346 -0.945305)
(0.206079 -0.28562 -1.04767)
(0.171254 -0.246662 -0.88076)
(0.168091 -0.253906 -0.866118)
(0.219552 -0.293487 -1.11664)
(0.229763 -0.30537 -1.09868)
(0.20599 -0.275819 -0.957349)
(0.18527 -0.260326 -0.869844)
(0.179199 -0.262378 -0.873741)
(0.19749 -0.288141 -0.941784)
(0.216496 -0.297294 -1.0046)
(0.183636 -0.256792 -0.823079)
(0.179436 -0.259751 -0.89743)
(0.174218 -0.24684 -0.910185)
(0.171985 -0.205853 -0.886685)
(0.163244 -0.190393 -0.79824)
(0.180158 -0.238338 -0.816983)
(0.180363 -0.171609 -0.809269)
(0.167407 -0.187639 -0.895518)
(0.179382 -0.174551 -0.75489)
(0.170117 -0.151059 -0.809043)
(0.0545139 -0.284279 -1.04369)
(0.0613658 -0.264813 -0.961443)
(0.0343009 -0.304023 -1.07904)
(0.0429683 -0.305152 -1.07909)
(0.0377132 -0.306104 -1.08987)
(0.0450154 -0.282931 -1.04242)
(0.0469504 -0.265895 -0.978142)
(0.045994 -0.285716 -1.04221)
(0.0395841 -0.260925 -0.888676)
(0.0326438 -0.272334 -0.892454)
(0.0431667 -0.272902 -0.898304)
(0.0406304 -0.266479 -0.921098)
(0.0367247 -0.284839 -0.912554)
(0.0320813 -0.282063 -0.937869)
(0.0354407 -0.262299 -0.92395)
(0.0437683 -0.258577 -0.911372)
(0.109972 -0.341614 -0.690321)
(0.105064 -0.332369 -0.68332)
(0.142018 -0.347096 -0.892167)
(0.146043 -0.35714 -0.885225)
(0.127655 -0.339248 -0.751552)
(0.13599 -0.337356 -0.777295)
(0.159485 -0.343351 -0.965394)
(0.147404 -0.359296 -0.887673)
(0.152462 -0.335371 -0.932961)
(0.139088 -0.340439 -0.875752)
(0.112779 -0.35943 -0.749393)
(0.109892 -0.346784 -0.726195)
(0.145597 -0.36211 -0.971666)
(0.14493 -0.349915 -0.949506)
(0.140286 -0.34705 -0.91741)
(0.11292 -0.362669 -0.828803)
(0.233262 -0.358159 -0.911554)
(0.226229 -0.366691 -0.916453)
(0.241101 -0.325755 -0.966427)
(0.233298 -0.331402 -0.869833)
(0.247222 -0.339166 -0.981016)
(0.253203 -0.342212 -0.932982)
(0.239922 -0.35258 -1.03362)
(0.222756 -0.339941 -0.981818)
(0.227117 -0.320945 -0.9642)
(-0.0707207 -0.187956 -0.704631)
(-0.0762403 -0.198248 -0.682761)
(-0.0029273 -0.158031 -0.768231)
(-0.0145804 -0.16346 -0.766832)
(-0.0616951 -0.231247 -0.693008)
(-0.0692888 -0.196542 -0.656617)
(-0.000416543 -0.168601 -0.784853)
(-0.0136763 -0.140508 -0.750517)
(-0.0717718 -0.248512 -0.655133)
(-0.0583984 -0.221411 -0.74015)
(0.0122858 -0.149425 -0.646388)
(-0.00568102 -0.144927 -0.63355)
(-0.0203871 -0.170234 -0.61508)
(-0.0290896 -0.144059 -0.587907)
(-0.0192482 -0.143613 -0.569831)
(-0.0187279 -0.146916 -0.579962)
(-0.0497488 -0.116294 -0.476644)
(-0.0435093 -0.109929 -0.465037)
(-0.0554817 -0.10908 -0.444378)
(-0.052287 -0.102385 -0.421741)
(0.014261 -0.128966 -0.634266)
(-0.0381189 -0.104639 -0.434103)
(-0.052062 -0.119751 -0.480187)
(-0.0631144 -0.102191 -0.422463)
(-0.0571225 -0.0944707 -0.384152)
(-0.0258602 -0.094335 -0.432066)
(-0.0476803 -0.0811363 -0.375486)
(-0.0386094 -0.0873581 -0.410764)
(-0.0171689 -0.0986978 -0.460734)
(0.00533872 -0.126375 -0.57406)
(0.0180239 -0.127427 -0.587493)
(-0.0328199 -0.0937167 -0.452116)
(0.155524 -0.28825 -1.06154)
(0.171294 -0.294551 -1.11949)
(0.167283 -0.291603 -1.0725)
(0.158877 -0.271056 -0.935749)
(0.150288 -0.280099 -0.94542)
(0.165798 -0.290492 -1.04459)
(0.16994 -0.29539 -1.03953)
(0.157572 -0.274541 -0.97142)
(0.1492 -0.281042 -0.968382)
(0.155244 -0.276258 -0.886482)
(0.153979 -0.279036 -0.951403)
(0.153783 -0.280336 -0.964701)
(0.158656 -0.287293 -0.959548)
(0.154456 -0.277522 -0.926977)
(0.146168 -0.274344 -0.979902)
(0.151537 -0.279606 -0.995278)
(0.141154 -0.278858 -0.950609)
(0.193798 -0.105926 -0.475734)
(0.19197 -0.0862033 -0.498656)
(0.237535 -0.0924654 -0.553025)
(0.244909 -0.126578 -0.547505)
(0.221166 -0.034629 -0.594733)
(0.172566 0.00125582 -0.508868)
(0.154638 -0.0726341 -0.425253)
(0.154912 -0.0584204 -0.448127)
(0.24248 -0.104758 -0.568681)
(0.14882 -0.0218106 -0.446607)
(0.134643 -0.032366 -0.43134)
(0.167452 -0.0753778 -0.443088)
(0.0627886 -0.158089 -0.695327)
(0.0544101 -0.143334 -0.64708)
(0.0629552 -0.152959 -0.687434)
(0.059623 -0.127112 -0.637483)
(0.0500643 -0.127239 -0.637424)
(0.0720045 -0.151363 -0.71125)
(0.0310334 -0.130414 -0.581628)
(0.0241387 -0.130815 -0.658391)
(0.0559397 -0.14231 -0.703587)
(0.0030436 -0.128561 -0.611589)
(0.0207056 -0.133121 -0.665884)
(0.0504532 -0.139019 -0.719281)
(0.0220307 -0.254832 -0.73901)
(0.00410456 -0.233761 -0.645045)
(0.029522 -0.264646 -0.78481)
(0.0165548 -0.25665 -0.719539)
(0.0415715 -0.297727 -0.841538)
(0.0540981 -0.304085 -0.876837)
(0.0126841 -0.25905 -0.702763)
(0.00691487 -0.245197 -0.635129)
(0.00849429 -0.252609 -0.670904)
(0.0394943 -0.279672 -0.809387)
(0.0259279 -0.261144 -0.702679)
(0.0328208 -0.264964 -0.728517)
(0.0281855 -0.274243 -0.719126)
(0.0245344 -0.278631 -0.739111)
(0.0434369 -0.289085 -0.837079)
(0.0201626 -0.264852 -0.764442)
(0.0492957 -0.296135 -0.874278)
(0.0115358 -0.26092 -0.693295)
(0.11677 -0.235019 -0.819377)
(0.104767 -0.224904 -0.773236)
(0.117504 -0.228604 -0.807456)
(0.0939313 -0.213551 -0.731736)
(0.117545 -0.251598 -0.888418)
(0.103223 -0.232373 -0.809365)
(0.085236 -0.222351 -0.757624)
(0.0812229 -0.209638 -0.70996)
(0.139984 -0.272055 -0.956998)
(0.118404 -0.254517 -0.91379)
(0.0857259 -0.222266 -0.754748)
(0.0894076 -0.220625 -0.743525)
(0.0915235 -0.235431 -0.804071)
(0.106289 -0.234218 -0.866693)
(0.0978289 -0.216348 -0.741473)
(0.110216 -0.230152 -0.805105)
(0.0784871 -0.299156 -0.980325)
(0.0762743 -0.283345 -0.942237)
(0.0959094 -0.298612 -1.02815)
(0.107324 -0.297818 -1.06972)
(0.079412 -0.313888 -0.873803)
(0.0773795 -0.292902 -0.861727)
(0.109453 -0.305163 -1.01947)
(0.0676456 -0.293466 -0.936599)
(0.110541 -0.303026 -1.00148)
(0.0711912 -0.296386 -0.808278)
(0.0907886 -0.305434 -0.894253)
(0.0686856 -0.302991 -0.915069)
(0.11749 -0.313983 -1.03603)
(0.0966435 -0.307284 -0.952491)
(0.0844516 -0.306945 -0.952224)
(0.09505 -0.306076 -0.910676)
(0.0885907 -0.311387 -0.885961)
(0.02911 -0.263389 -0.751609)
(0.0247501 -0.245593 -0.658082)
(0.0350248 -0.272141 -0.750585)
(0.0425712 -0.270862 -0.808087)
(0.0362893 -0.262986 -0.728192)
(0.0289072 -0.264314 -0.709105)
(0.0199294 -0.25998 -0.66678)
(0.0777624 -0.311563 -0.912488)
(0.0673866 -0.301598 -0.874216)
(0.0768539 -0.305315 -0.915361)
(0.0668776 -0.305159 -0.882876)
(0.0366124 -0.289589 -0.771973)
(0.0299849 -0.2856 -0.717717)
(0.0664894 -0.293062 -0.902203)
(0.0644113 -0.284799 -0.879038)
(0.0486925 -0.281722 -0.759701)
(0.0672834 -0.299687 -0.897443)
(0.105327 -0.175148 -0.740459)
(0.129698 -0.21821 -0.820457)
(0.10689 -0.22584 -0.792647)
(0.0980072 -0.190044 -0.66438)
(0.123127 -0.225378 -0.882658)
(0.100173 -0.197939 -0.748296)
(0.111764 -0.177595 -0.677498)
(0.113633 -0.189759 -0.678984)
(0.124848 -0.211998 -0.718682)
(0.125002 -0.245911 -0.938455)
(0.121157 -0.221808 -0.863586)
(0.113651 -0.229657 -0.741194)
(0.112457 -0.215993 -0.65443)
(0.104302 -0.179085 -0.605803)
(0.0913184 -0.171033 -0.654777)
(0.0947832 -0.177128 -0.685508)
(0.0883771 -0.176767 -0.594327)
(0.11939 -0.238289 -0.766687)
(0.11767 -0.246096 -0.844218)
(0.0960976 -0.190626 -0.613278)
(0.121393 -0.213817 -0.71439)
(0.103099 -0.204038 -0.622771)
(0.0772746 -0.175267 -0.561518)
(0.115497 -0.401162 -0.691604)
(0.138314 -0.397913 -0.738436)
(0.165337 -0.390763 -0.834922)
(0.144266 -0.408286 -0.817432)
(0.148866 -0.379151 -0.920018)
(0.179094 -0.380099 -0.898584)
(0.0966336 -0.389323 -0.6649)
(0.121579 -0.402388 -0.732676)
(0.0938016 -0.392357 -0.809603)
(0.0993263 -0.418825 -0.683756)
(0.097974 -0.400445 -0.647958)
(0.157652 -0.380379 -0.889581)
(0.166184 -0.389969 -0.852216)
(0.0856584 -0.400144 -0.667704)
(0.130884 -0.379788 -0.695047)
(0.138727 -0.387749 -0.742772)
(0.118152 -0.389147 -0.824353)
(0.106091 -0.392526 -0.697736)
(-0.0509979 -0.200624 -0.653326)
(-0.0702272 -0.192787 -0.617771)
(-0.0801781 -0.185866 -0.586534)
(-0.0900976 -0.186888 -0.529545)
(-0.00794937 -0.123045 -0.70425)
(-0.0502587 -0.165478 -0.655144)
(-0.0837868 -0.16918 -0.524402)
(-0.0804959 -0.14956 -0.52497)
(-0.0207175 -0.078202 -0.626328)
(-0.0120888 -0.0660232 -0.624059)
(-0.0427734 -0.158585 -0.65036)
(-0.0649772 -0.144771 -0.630993)
(-0.0564215 -0.11285 -0.607493)
(-0.0612454 -0.127292 -0.57916)
(0.0776967 -0.275846 -0.915371)
(0.0919708 -0.29007 -0.97365)
(0.0822639 -0.29735 -0.968941)
(0.0859145 -0.292861 -0.961871)
(0.0862375 -0.282082 -0.92816)
(0.0782024 -0.262855 -0.8774)
(0.0784887 -0.261213 -0.886517)
(0.0980974 -0.284554 -0.973271)
(0.086556 -0.279136 -0.946089)
(0.088888 -0.269556 -0.927507)
(0.0900596 -0.272418 -0.947168)
(0.104348 -0.274559 -0.943201)
(0.088659 -0.266274 -0.897169)
(0.114198 -0.293705 -1.00196)
(0.104008 -0.289668 -1.01339)
(0.102803 -0.272046 -0.946862)
(0.0919064 -0.253263 -0.854981)
(0.0417375 -0.25205 -0.629889)
(0.0412687 -0.240447 -0.605414)
(0.0371715 -0.235087 -0.583406)
(0.0345822 -0.212835 -0.535229)
(0.0575586 -0.271207 -0.737458)
(0.0583437 -0.26321 -0.704854)
(0.0675336 -0.241062 -0.646793)
(0.0480033 -0.256127 -0.649688)
(0.0327679 -0.210185 -0.554932)
(0.0653989 -0.275081 -0.802655)
(0.0489653 -0.209268 -0.546215)
(0.0742865 -0.267631 -0.80819)
(0.0738139 -0.298128 -0.882968)
(0.0768096 -0.266183 -0.713964)
(0.0593335 -0.269876 -0.713321)
(0.0485389 -0.223566 -0.605837)
(0.0701867 -0.302532 -0.861331)
(0.078739 -0.28828 -0.854286)
(0.0626222 -0.26329 -0.683382)
(0.122707 -0.328001 -0.832585)
(0.134732 -0.316321 -0.801626)
(0.122978 -0.312662 -0.780805)
(0.117635 -0.307995 -0.726737)
(0.116635 -0.314977 -0.818309)
(0.10141 -0.320121 -0.802555)
(0.101984 -0.319185 -0.806448)
(0.191073 -0.306668 -0.937277)
(0.181278 -0.301081 -0.909096)
(0.190849 -0.314118 -0.989324)
(0.170189 -0.276678 -0.97225)
(0.192474 -0.289837 -0.98005)
(0.196602 -0.303051 -0.930266)
(0.184441 -0.298515 -0.913538)
(0.179774 -0.281401 -0.997795)
(0.157073 -0.272886 -0.963572)
(0.177443 -0.278479 -0.990321)
(0.205319 -0.299924 -1.05002)
(0.173811 -0.289224 -0.957719)
(0.208367 -0.308474 -1.12938)
(0.188545 -0.299414 -1.09711)
(0.203486 -0.306413 -1.12702)
(0.0417968 -0.201606 -0.725927)
(0.0453602 -0.178913 -0.649898)
(0.040043 -0.220288 -0.679135)
(0.0394306 -0.226589 -0.694259)
(0.0379242 -0.188956 -0.631074)
(0.0455849 -0.219719 -0.762944)
(0.0496123 -0.188082 -0.684718)
(0.0402125 -0.166158 -0.574642)
(0.0351673 -0.226622 -0.727347)
(0.0536779 -0.180007 -0.623094)
(0.0430545 -0.227044 -0.684173)
(0.0350608 -0.242333 -0.778184)
(0.0405629 -0.180822 -0.603221)
(0.052882 -0.204275 -0.662865)
(0.0533085 -0.229671 -0.674756)
(0.0441441 -0.24022 -0.765445)
(0.0411845 -0.204805 -0.634791)
(0.0298514 -0.0727639 -0.331971)
(0.0347472 -0.0751185 -0.312662)
(0.0556093 -0.078425 -0.348093)
(0.0390514 -0.0799487 -0.2977)
(0.048441 -0.0716711 -0.374115)
(0.0475314 -0.0665169 -0.421937)
(0.066104 -0.0668027 -0.438545)
(0.0451221 -0.0789798 -0.331485)
(0.0338035 -0.0713726 -0.364743)
(0.101533 -0.0717795 -0.480687)
(0.0957734 -0.0683698 -0.481513)
(0.098754 -0.0887386 -0.391353)
(0.112112 -0.0979494 -0.407114)
(0.0853561 -0.0933128 -0.370089)
(0.0583313 -0.0851639 -0.329225)
(0.0876823 -0.0855061 -0.398529)
(0.11578 -0.0926638 -0.468484)
(0.0722736 -0.0869266 -0.357243)
(0.133464 -0.283175 -1.02979)
(0.126993 -0.283679 -1.02849)
(0.153422 -0.292963 -1.11449)
(0.154565 -0.291617 -1.09442)
(0.149335 -0.300306 -1.13918)
(0.157151 -0.30157 -1.16845)
(0.107442 -0.287345 -0.985865)
(0.122783 -0.287166 -1.02378)
(0.105968 -0.291193 -0.971112)
(0.0995654 -0.284208 -0.966645)
(0.125474 -0.280212 -1.01749)
(0.119988 -0.282802 -1.00172)
(0.114683 -0.28312 -0.993614)
(0.126057 -0.312886 -1.06206)
(0.156928 -0.294815 -1.11272)
(0.132996 -0.283736 -1.02729)
(0.104185 -0.300861 -0.98283)
(0.153005 -0.283379 -1.07495)
(0.141121 -0.288794 -1.08653)
(0.131581 -0.299924 -1.0603)
(0.142986 -0.307134 -1.12166)
(0.0866442 -0.310978 -0.936301)
(0.0125061 -0.239346 -0.562193)
(0.0148791 -0.236556 -0.539243)