/*--------------------------------*- C++ -*----------------------------------*\
| =========                 |                                                 |
| \\      /  F ield         | OpenFOAM: The Open Source CFD Toolbox           |
|  \\    /   O peration     | Version:  v1612+                                |
|   \\  /    A nd           | Web:      www.OpenFOAM.com                      |
|    \\/     M anipulation  |                                                 |
\*---------------------------------------------------------------------------*/
FoamFile
{
    version     2.0;
    format      ascii;
    class       volVectorField;
    location    "50";
    object      wallShearStress;
}
// * * * * * * * * * * * * * * * * * * * * * * * * * * * * * * * * * * * * * //

dimensions      [0 2 -2 0 0 0 0];

internalField   uniform (0 0 0);

boundaryField
{
    WALL
    {
        type            calculated;
        value           nonuniform List<vector> 
1532
(
(-0.00148018 0.00635496 0.0149427)
(-0.000811335 0.00694105 0.0142485)
(-5.98856e-05 0.00402962 0.00809423)
(-0.000586769 0.00282864 0.00892321)
(0.00118615 0.00413641 0.00682711)
(0.00150507 0.00520077 0.00849499)
(-0.000183839 0.00171779 0.0104003)
(0.00235658 0.00364484 0.00898415)
(0.00179813 0.00317694 0.00897914)
(0.00183846 0.00308077 0.00886295)
(0.0023181 0.00333086 0.00888421)
(0.0019246 0.00350118 0.00877372)
(0.00221414 0.00384269 0.00910096)
(-0.000891604 0.0050173 0.0110988)
(-0.000961283 0.00579597 0.012108)
(-0.000763601 0.0046414 0.0106396)
(-0.00101478 0.00498174 0.0123286)
(-0.000681809 0.00589906 0.0113574)
(-0.000975324 0.00515922 0.0115316)
(-0.000207658 0.00772723 0.0242198)
(-4.58701e-05 0.00803014 0.0237313)
(0.00089427 0.00849974 0.0241826)
(-0.000126035 0.00794085 0.0247359)
(-0.000706305 0.00775781 0.0251596)
(0.00037436 0.00839234 0.0237315)
(-0.00650124 0.0111352 0.0172942)
(-0.00570723 0.0122811 0.0177423)
(-0.00554009 0.0113062 0.0181922)
(-0.00575573 0.0128992 0.0172622)
(-0.00595237 0.00972956 0.0177301)
(-0.00690393 0.0111452 0.0182283)
(-0.000961542 0.00331881 0.0123328)
(-0.000753814 0.00297177 0.0121128)
(-0.000968152 0.00315773 0.0115746)
(-0.00126125 0.00376803 0.0120523)
(-0.00064898 0.00283649 0.0114947)
(-0.00147251 0.00405637 0.0122641)
(-0.00415867 0.00688004 0.0229627)
(-0.00587406 0.00779559 0.0224333)
(-0.00533085 0.00720252 0.0214179)
(-0.00469243 0.00719297 0.0219862)
(-0.00568971 0.00729442 0.0231148)
(-0.00478528 0.00729227 0.0234142)
(0.000266028 0.00967186 0.018389)
(0.000264996 0.00965766 0.0194289)
(0.000781553 0.0094087 0.0202124)
(0.000791835 0.0086848 0.0191442)
(0.000401316 0.00828655 0.0184347)
(0.000465281 0.00946065 0.0190574)
(0.00149875 0.0015219 0.00934747)
(0.00123612 0.00166259 0.0100233)
(0.00184724 0.000907659 0.00991917)
(0.00200543 0.000967051 0.00926171)
(0.00202122 0.00119803 0.00898868)
(0.00138997 0.0012429 0.0101171)
(-0.000383609 0.00243141 0.0088377)
(-0.000316067 0.00281979 0.00836675)
(-0.000574812 0.00230139 0.0108645)
(0.00198204 0.00630511 0.0104566)
(0.00192122 0.00745998 0.0113091)
(0.00206633 0.0058775 0.0101673)
(0.00226933 0.00714284 0.010804)
(0.00240871 0.00643893 0.0103947)
(0.00186217 0.00711784 0.0110428)
(-0.00028619 0.00248645 0.0082037)
(-0.000113411 0.00279789 0.00880802)
(9.63877e-05 0.00291171 0.00890536)
(3.54478e-05 0.00283052 0.00857519)
(-0.000239766 0.00254581 0.00837627)
(-0.000252482 0.00257655 0.0081368)
(-0.0041082 0.00766256 0.0183964)
(-0.0041422 0.0071693 0.0185101)
(-0.00335922 0.00644755 0.0174394)
(-0.00392609 0.00735303 0.0181326)
(-0.0034018 0.0062947 0.0177399)
(-0.00410624 0.00708973 0.0186502)
(5.48245e-05 0.00109556 0.0147688)
(-0.000281586 0.00158578 0.0149696)
(-0.000574676 0.0023015 0.0147203)
(-9.60631e-05 0.00150409 0.0143021)
(-0.000499757 0.00202189 0.015069)
(0.00200273 0.00792358 0.0182895)
(0.00238355 0.00732358 0.0173809)
(0.00294984 0.00828662 0.0188864)
(0.00204206 0.00792164 0.0183317)
(0.00299544 0.00751777 0.0183655)
(0.00349213 0.00779293 0.0180943)
(-0.00116143 0.00567568 0.0171032)
(-0.000699358 0.0059062 0.01698)
(-0.00111814 0.00552418 0.0160238)
(-0.00119387 0.00571378 0.0165117)
(-0.000624377 0.00641771 0.0164965)
(-0.000344261 0.00721218 0.0170181)
(0.00131658 0.00525974 0.00887512)
(0.000910431 0.00573569 0.00984129)
(0.0009344 0.00508502 0.00881598)
(0.000771302 0.00534864 0.00912992)
(0.00162797 0.00489692 0.00846651)
(0.0011794 0.00450999 0.00732942)
(0.000972164 0.00486953 0.00830403)
(0.00122666 0.00472043 0.00786985)
(0.00134959 0.00509171 0.00836478)
(0.000546539 0.00445777 0.0087752)
(0.00103246 0.00486841 0.00789079)
(0.00187589 0.00470156 0.00807891)
(0.0022892 0.00462556 0.00849992)
(0.00233714 0.00444358 0.0075846)
(0.00200584 0.00460986 0.00767287)
(0.00165028 0.00484299 0.00833169)
(0.00266317 0.00456847 0.00789637)
(0.00317938 0.00384218 0.00672817)
(0.00335536 0.00357132 0.00736875)
(0.00301903 0.00395996 0.00698005)
(0.00316654 0.00399183 0.00731222)
(0.00370169 0.00354534 0.0071176)
(0.0038485 0.00335728 0.00707539)
(-0.000866712 0.00615595 0.01873)
(-0.000372211 0.006717 0.0187168)
(-0.000817529 0.00573271 0.017487)
(-0.00106296 0.0064982 0.0185293)
(-0.000680567 0.00704025 0.0198009)
(-0.000785417 0.00658092 0.019165)
(0.00232778 0.0085303 0.0195193)
(0.000281765 0.00767652 0.0200777)
(0.00124165 0.00783084 0.0187397)
(0.000813604 0.00780412 0.0191415)
(0.00208983 0.00855743 0.0199302)
(0.000267851 0.00747618 0.0174602)
(0.000607706 0.00751531 0.0181351)
(8.44011e-05 0.00761848 0.0177224)
(0.000550893 0.00795143 0.0184396)
(0.00105756 0.00772786 0.0177329)
(0.000441354 0.00685168 0.01672)
(0.000945605 -0.000820555 0.0155373)
(0.000594259 -0.00105943 0.0167639)
(-0.000368764 0.000968632 0.0171609)
(0.000456337 -0.000149246 0.0159185)
(-4.5022e-05 0.000539506 0.015833)
(6.58259e-05 -0.000640941 0.0175)
(-0.000455724 0.00561663 0.0192256)
(-0.000953809 0.00567225 0.0189931)
(-0.000798759 0.00538203 0.0186255)
(-0.000236937 0.00553906 0.0185147)
(-0.000109413 0.00597452 0.0196236)
(-0.000604576 0.00581512 0.0196248)
(-0.000391158 0.00497451 0.0180261)
(-0.000211389 0.00487005 0.018041)
(-0.000334557 0.00519188 0.0183951)
(-0.00107822 0.00509246 0.0177617)
(-0.000775384 0.00480581 0.0175766)
(-0.000869887 0.00504661 0.0179793)
(0.0024397 0.00656917 0.0170991)
(0.00254078 0.00615524 0.0171106)
(0.00297562 0.00650623 0.0174456)
(0.00277799 0.00594491 0.0174398)
(0.00322157 0.00587434 0.0168072)
(0.00251197 0.00649885 0.0171711)
(0.0038883 0.00414892 0.0160368)
(0.00420267 0.00491476 0.0171874)
(0.00316731 0.00507049 0.0170726)
(0.00295507 0.00447931 0.0167008)
(0.00415463 0.00489278 0.0161456)
(0.00181741 0.00632196 0.0179383)
(0.00232961 0.00614886 0.0170426)
(0.00154456 0.00651721 0.0179508)
(0.00152208 0.00676665 0.018144)
(0.00199261 0.00656324 0.0175947)
(0.00165519 0.00676451 0.0175082)
(0.00166551 0.00590825 0.0172577)
(0.000880689 0.00557846 0.0183857)
(0.00113019 0.00586502 0.0180756)
(0.00130908 0.0053321 0.0174134)
(0.00151678 0.00598352 0.0184267)
(-0.000418711 0.00333048 0.0149277)
(-0.000447995 0.00339008 0.0156688)
(-0.000876163 0.00363891 0.0147752)
(-0.000565552 0.0039461 0.0159763)
(-0.00110171 0.00421686 0.0151606)
(-0.00104175 0.00413746 0.0154938)
(0.000773037 0.00373586 0.0162395)
(0.000724768 0.00429372 0.0168996)
(0.000122982 0.0039197 0.0164968)
(0.00131963 0.00394077 0.0171238)
(0.000184946 0.00397472 0.0164134)
(0.000263515 0.00351203 0.0158346)
(7.38073e-05 0.0046737 0.0175318)
(0.000459976 0.00480103 0.0171954)
(0.000985357 0.00480154 0.0170237)
(0.000532092 0.00497654 0.0173541)
(0.000215775 0.00474192 0.0175371)
(8.85632e-05 0.00435092 0.0169291)
(0.00689908 0.00710926 0.0189209)
(0.00683668 0.00585639 0.0174051)
(0.00025407 0.00201011 0.00698069)
(0.000151251 0.00227308 0.00791576)
(-2.07105e-05 0.00183351 0.00706973)
(-2.22074e-05 0.00232849 0.00798748)
(-0.000125573 0.0018133 0.00698018)
(-0.000266197 0.00207762 0.00764678)
(0.000628715 0.00336307 0.00919561)
(0.000764598 0.00360961 0.00944244)
(0.000321059 0.00282337 0.00870841)
(0.000369754 0.00304326 0.00917399)
(0.000349612 0.00286575 0.00881245)
(0.000620936 0.00326907 0.0090207)
(0.00230338 0.005575 0.0101576)
(0.00214163 0.00617482 0.0099199)
(0.00242861 0.0070713 0.0108643)
(0.00227823 0.00655849 0.0106771)
(0.00225848 0.00580328 0.0104973)
(0.00216573 0.00523346 0.0100331)
(0.00181087 0.0100247 0.0118237)
(0.00188299 0.00808488 0.0109091)
(0.00232824 0.00830298 0.0110743)
(0.00159344 0.0090704 0.01123)
(0.00220983 0.00789471 0.0107501)
(0.00184523 0.00897874 0.0111089)
(-0.000324249 0.00225902 0.00868007)
(-0.000331092 0.0023767 0.00839694)
(-0.000367588 0.00238028 0.00861289)
(-0.000274048 0.00236791 0.00845705)
(-0.000442855 0.00238705 0.00839353)
(-0.000257793 0.00224589 0.00853115)
(0.000612317 0.00280856 0.00879674)
(0.000519019 0.00260251 0.00864889)
(0.00115201 0.00311603 0.00873561)
(0.00109226 0.00317222 0.00903198)
(0.000716779 0.0028943 0.00876928)
(0.00036712 0.00262193 0.00853927)
(0.000936225 0.0034734 0.00910908)
(0.00160809 0.00423323 0.00921676)
(0.00097515 0.00329198 0.00884385)
(0.00144113 0.00418341 0.00945061)
(0.00120379 0.00368371 0.00940873)
(0.0017672 0.00458196 0.00965389)
(0.00196857 0.0091678 0.0117754)
(0.00183272 0.00667518 0.0104038)
(0.00184344 0.00708284 0.0104619)
(0.00198777 0.00856891 0.0110823)
(0.00218619 0.00843599 0.010989)
(0.00217817 0.00745393 0.011009)
(0.00123905 0.0104256 0.012188)
(0.000384558 0.0131142 0.0125254)
(0.000715667 0.0119255 0.0119626)
(0.00118498 0.0102428 0.0114946)
(0.00193584 0.0101276 0.0109378)
(9.64708e-05 0.0110844 0.0120237)
(0.00214949 0.00601302 0.0108656)
(0.00157384 0.0046967 0.0100165)
(0.00191255 0.00553849 0.0104468)
(-7.57293e-08 0.00240915 0.00812536)
(-0.000447542 0.00241907 0.00831513)
(-0.000105674 0.00235707 0.00834858)
(-0.000344737 0.00237033 0.00844145)
(-0.000398711 0.00254953 0.00842058)
(-0.000569067 0.00239273 0.00886002)
(-0.000736125 0.00244912 0.00885765)
(-0.0002807 0.00234543 0.00840974)
(-0.000353056 0.00240882 0.00839196)
(-0.00036757 0.00242184 0.00870261)
(-0.000439607 0.00234773 0.0085771)
(-0.00105403 0.0129189 0.0132016)
(-0.00230523 0.0125257 0.0146111)
(-0.00154282 0.012762 0.0142517)
(-0.00244931 0.0124868 0.0148191)
(-0.00124251 0.0138418 0.0133725)
(-0.00313029 0.0112235 0.0169678)
(-0.00241825 0.00918801 0.0148636)
(-0.00182925 0.00979951 0.0139529)
(-0.00196487 0.0120861 0.0148939)
(-0.00218717 0.0111816 0.0153767)
(-0.00285165 0.0115347 0.0156978)
(-0.00337452 0.00925884 0.0160055)
(-2.85189e-05 0.00699201 0.0113814)
(0.000831989 0.00643819 0.010273)
(0.00060047 0.00661544 0.0107034)
(0.000213841 0.00669919 0.0105024)
(-0.000206733 0.00673161 0.0121127)
(0.000588304 0.00651198 0.0104026)
(8.5478e-05 0.00784741 0.0119772)
(0.000931966 0.00735232 0.0115215)
(0.0012773 0.00756951 0.0112019)
(2.41564e-06 0.00715535 0.0116249)
(0.000339428 0.00779633 0.0117461)
(0.000701635 0.00707107 0.0115247)
(0.00168539 0.00586065 0.0100286)
(0.00171878 0.00600978 0.0103013)
(0.00129279 0.0066136 0.0101631)
(0.00200624 0.00575567 0.00977232)
(0.00149166 0.00666739 0.0105238)
(0.00131047 0.00602853 0.00987916)
(-0.00212718 0.0060514 0.0141631)
(-0.00185348 0.00542191 0.01476)
(-0.00232268 0.00583214 0.0146988)
(-0.00186409 0.00488499 0.014313)
(-0.00222024 0.00569953 0.0148236)
(-0.00196189 0.00608429 0.0143677)
(-0.00257849 0.00855599 0.014997)
(-0.00221832 0.00719586 0.0150964)
(-0.00264093 0.00649743 0.0146515)
(-0.00294683 0.00724303 0.0153369)
(-0.00222145 0.00818306 0.0154343)
(-0.00306175 0.00748234 0.0152361)
(-0.000605019 0.00319566 0.00910907)
(-0.000743026 0.00432765 0.00970793)
(-0.000776486 0.00391161 0.010374)
(-0.000704379 0.00353833 0.0108429)
(-0.000886958 0.004217 0.0105094)
(0.00293955 0.00022611 0.0140106)
(0.00277775 0.000574608 0.0139343)
(0.00200446 0.00100496 0.0140607)
(0.00220396 0.00055411 0.0133942)
(0.00144793 0.000696113 0.0129002)
(0.0014514 0.000971785 0.0135642)
(0.000315384 0.00227133 0.0145264)
(0.000920964 0.00134788 0.0134974)
(0.000982529 0.00204888 0.0153424)
(5.51277e-06 0.00260046 0.0140273)
(0.000882679 0.00166285 0.0146253)
(-3.2968e-05 0.00230388 0.0137721)
(0.00313273 0.00229756 0.0161658)
(0.00193737 0.00206497 0.0154779)
(0.00226974 0.00231993 0.0161337)
(0.00197678 0.00162589 0.0152576)
(0.00293951 0.0014504 0.0150142)
(0.00327726 0.00178814 0.0156615)
(-0.000320415 0.0024918 0.0116724)
(-0.000293752 0.00249341 0.0112166)
(0.000419238 0.00192547 0.0109751)
(0.000577392 0.00191125 0.0106145)
(-1.09064e-05 0.00228559 0.0107157)
(8.63848e-06 0.00221124 0.0114659)
(0.000628798 0.00200589 0.010119)
(0.00116863 0.00177678 0.00954409)
(0.000735409 0.00196333 0.00969206)
(0.000914502 0.00201513 0.00936676)
(0.000769225 0.00196413 0.00981277)
(0.00124536 0.00193292 0.00940937)
(0.00322245 0.00273616 0.0079077)
(0.00264849 0.00228495 0.00796835)
(0.00307015 0.00301083 0.00815896)
(0.00271745 0.002832 0.00859486)
(0.00295066 0.00242459 0.00821466)
(0.00302435 0.000699867 0.00856148)
(0.00375709 0.0011692 0.00789635)
(0.00388697 0.000753929 0.00787085)
(0.00361231 0.000539814 0.00856477)
(0.00290572 0.00109049 0.00830839)
(0.00331866 0.00123194 0.00799459)
(2.32178e-05 0.00370084 0.00774561)
(7.38314e-05 0.00338986 0.00749809)
(-0.000108423 0.00470549 0.00913382)
(-0.000257558 0.00367194 0.00908122)
(-1.60587e-05 0.00424163 0.00845754)
(-0.00134628 0.00414346 0.0140122)
(-0.00139892 0.00435187 0.0146048)
(-0.00147098 0.00466799 0.0137024)
(-0.00157568 0.00455739 0.014173)
(-0.00160213 0.00494229 0.0143974)
(-0.00127386 0.00439988 0.0139886)
(-0.000627433 0.00327263 0.0136641)
(-0.0010148 0.00367322 0.0141427)
(-0.00106798 0.00399971 0.0139421)
(-0.000590026 0.00359205 0.0146729)
(-0.00112294 0.00360541 0.0131278)
(-0.000456203 0.00312263 0.01453)
(0.00130382 0.00285238 0.0159056)
(0.00105875 0.00274766 0.0156736)
(0.000811956 0.00280184 0.0151903)
(0.000247908 0.00324357 0.0156418)
(0.000323886 0.00284437 0.0153403)
(0.00124518 0.00308013 0.0161483)
(-0.00222217 0.00309923 0.00922089)
(-0.00109656 0.0023169 0.00869174)
(-0.00135326 0.00221077 0.00833345)
(-0.00109228 0.00203751 0.00850293)
(-0.00190051 0.00277858 0.0088369)
(-0.00194437 0.0029034 0.00960446)
(-0.000461077 0.00211585 0.00878267)
(-0.000791878 0.00219205 0.00891097)
(-0.000556727 0.00185389 0.00796004)
(-0.000476708 0.00201772 0.00820737)
(-0.000428717 0.00208487 0.00842599)
(-0.00116109 0.00228084 0.00909021)
(-2.18826e-05 0.00185026 0.00733632)
(-0.000381328 0.00182422 0.00781814)
(7.09562e-05 0.00178285 0.00786098)
(-0.000106327 0.00169962 0.00733296)
(-0.000248736 0.00167058 0.0073498)
(-0.000422624 0.00174598 0.00783462)
(-0.00118014 0.00559004 0.014477)
(-0.00139966 0.00596143 0.0142782)
(-0.00145572 0.00623052 0.0148883)
(-0.00704462 0.00874601 0.0230421)
(-0.0068424 0.00792701 0.0233781)
(-0.00332557 0.00481147 0.0101709)
(-0.00365003 0.00592268 0.0103576)
(-0.00406682 0.00711647 0.0113967)
(-0.00305169 0.00478855 0.00972117)
(-0.0039619 0.00758011 0.0113171)
(-0.00375649 0.0065188 0.0111232)
(-0.00159139 0.0140402 0.0161604)
(-0.00110569 0.0130991 0.0159144)
(-0.0019098 0.0139902 0.0153364)
(-0.00194568 0.0114462 0.0139407)
(-0.00116988 0.00624623 0.0141435)
(-0.000642911 0.00829914 0.0156247)
(-0.00120085 0.0079598 0.0146033)
(-0.0010341 0.00836935 0.0148096)
(-0.00112921 0.00828377 0.016246)
(0.000727243 0.00665969 0.0186675)
(0.000897228 0.0072079 0.0180752)
(0.00101908 0.00693383 0.0184185)
(0.00087999 0.00650786 0.0181077)
(0.000834249 0.00709456 0.0182793)
(0.000644325 0.00712382 0.0177683)
(0.00100744 0.00701446 0.0168036)
(0.000579366 0.00707018 0.0166078)
(0.000629137 0.00742895 0.0167824)
(0.000388409 0.00705786 0.0163466)
(0.00109364 0.00743369 0.0175709)
(0.000912671 0.00770895 0.017842)
(-0.000357533 0.00724844 0.0149358)
(-1.8853e-05 0.00748793 0.016083)
(-4.45087e-05 0.00783454 0.0157653)
(-0.000333754 0.00758039 0.0159632)
(0.000194654 0.00808773 0.0162819)
(0.000181079 0.00763948 0.0162968)
(-0.00186173 0.00708033 0.013866)
(-0.00178923 0.00613652 0.014532)
(-0.00206561 0.00762471 0.0148713)
(-0.00135234 0.00539771 0.013191)
(-0.00154343 0.0065264 0.0138997)
(-0.000448277 0.0117499 0.0182115)
(-0.000697312 0.0120333 0.019139)
(2.39347e-05 0.0107361 0.0196369)
(0.00017682 0.0105585 0.0179537)
(-0.000276525 0.010638 0.0171536)
(-5.58706e-05 0.0114369 0.0192079)
(0.000758022 0.00898395 0.0214417)
(0.000276533 0.00833922 0.0223943)
(0.000912881 0.00974358 0.0217634)
(0.000632844 0.00817716 0.0210921)
(0.00034818 0.00875012 0.0225523)
(0.00047873 0.00968806 0.0229132)
(-0.00186018 0.00900505 0.0153194)
(-0.00151861 0.00821276 0.0155269)
(-0.00181983 0.00919152 0.0157295)
(-0.00135182 0.00857167 0.0160356)
(-0.000944097 0.00858455 0.0158305)
(-0.00153785 0.00921578 0.0150548)
(-0.00215252 0.00620942 0.013398)
(-0.00268398 0.00804239 0.0134924)
(-0.00213391 0.0072546 0.0159647)
(-0.00196122 0.00725477 0.0129031)
(-0.0026616 0.00756162 0.01581)
(-0.00223901 0.00724923 0.013322)
(-0.00294486 0.0082962 0.013735)
(-0.00358147 0.00776421 0.0124194)
(-0.00375082 0.00702907 0.011972)
(-0.00404065 0.00722226 0.0117052)
(-0.00314525 0.00561712 0.0109616)
(-0.0035743 0.00770808 0.0121788)
(-0.00305876 0.00690768 0.0120047)
(-0.00291168 0.00797138 0.0129663)
(-0.0031045 0.0071237 0.0123143)
(-0.00266848 0.00766646 0.01317)
(-0.00328838 0.00819566 0.0128521)
(-0.00189252 0.00663669 0.0232278)
(-0.00128818 0.00639618 0.022631)
(-0.00244542 0.00663883 0.0237111)
(-0.00277173 0.00663414 0.0235064)
(-0.00132464 0.00701362 0.0241981)
(-0.00294992 0.00703956 0.0242437)
(-0.00165368 0.00742915 0.02533)
(-0.0046122 0.00748791 0.0190891)
(-0.0049382 0.00724071 0.0198652)
(-0.00426128 0.0073317 0.0198356)
(-0.00425469 0.00688552 0.020433)
(-0.00483828 0.0076148 0.0197155)
(-0.00399877 0.00674666 0.0199201)
(-0.00195303 0.00551299 0.0188946)
(-0.0018636 0.00565599 0.0197786)
(-0.00143151 0.00538993 0.0181345)
(-0.00175773 0.00553049 0.0189665)
(-0.00144403 0.00556446 0.0197019)
(-0.00125213 0.00577948 0.0198109)
(0.000666718 0.00817359 0.019254)
(0.0011578 0.00849175 0.0197378)
(0.000635491 0.00789064 0.0206331)
(0.00078496 0.00778643 0.0197153)
(0.00113965 0.00781831 0.0195667)
(0.000845542 0.00823453 0.0196911)
(0.000698377 0.00598732 0.0186913)
(0.000371523 0.00656028 0.0196636)
(0.000747734 0.00684164 0.019918)
(6.13006e-05 0.00623026 0.0197844)
(0.000249845 0.00663075 0.0201565)
(0.000797507 0.00658038 0.0188325)
(-0.00072746 0.00282189 0.0125963)
(-0.00100725 0.00315996 0.0132758)
(-0.000321767 0.00218215 0.0125359)
(-0.000637657 0.00264634 0.0123467)
(-0.000603751 0.00254257 0.0135423)
(-0.000332816 0.00216163 0.0130352)
(-0.000501451 0.00250887 0.0100791)
(-0.00045622 0.0026082 0.0109896)
(-0.000145368 0.00229568 0.00996123)
(-0.000658484 0.00274973 0.0110381)
(-0.000618424 0.00265273 0.0103576)
(-0.000306742 0.00253852 0.0106503)
(-0.00160976 0.00372908 0.0110622)
(-0.00103176 0.0031757 0.0108498)
(-0.00186439 0.00390496 0.0110405)
(-0.00127288 0.0035552 0.0112307)
(-0.00166522 0.00398746 0.0120942)
(-0.00186194 0.00400888 0.0123544)
(-0.00656208 0.00864859 0.0214479)
(-0.00637797 0.00904983 0.0194412)
(-0.00714537 0.0101341 0.0202634)
(-0.0061366 0.0082323 0.0205854)
(-0.00600311 0.00852384 0.0195565)
(-0.00720949 0.00933926 0.0207363)
(-0.00469529 0.00899959 0.0188896)
(-0.0054363 0.0104752 0.0186369)
(-0.00533391 0.00883507 0.0192645)
(-0.00487019 0.0081772 0.0186986)
(-0.0052309 0.0102913 0.0186566)
(-0.00541653 0.00891407 0.0181227)
(-0.000561546 0.0067065 0.0118642)
(-0.000863867 0.00654823 0.0122889)
(0.00246634 0.00469319 0.00943816)
(0.00228459 0.00432437 0.00918555)
(0.00222965 0.00537527 0.0100114)
(0.00237018 0.00528064 0.00996897)
(0.00227333 0.00457986 0.00973097)
(0.00240128 0.00508774 0.0096)
(0.000744511 0.00229311 0.00815768)
(0.000861116 0.00255321 0.00848939)
(0.00110581 0.00238994 0.00860401)
(0.00136204 0.00245704 0.00834067)
(0.00139121 0.00261842 0.00838416)
(0.00266367 0.00413627 0.00918664)
(0.0029348 0.00401759 0.00862694)
(0.00252108 0.00319534 0.00877205)
(0.00286418 0.00352955 0.00867014)
(0.00267978 0.00387008 0.00921129)
(0.00239476 0.00344338 0.0095529)
(0.00107703 0.00911531 0.0116631)
(0.00160881 0.00860687 0.0106228)
(0.0022152 0.00832243 0.0110404)
(0.00221948 0.00869092 0.0115899)
(0.00164125 0.00928126 0.0115231)
(0.00221677 0.0089204 0.0111159)
(3.376e-05 0.00941206 0.0127804)
(-0.000669432 0.0103768 0.0141976)
(-0.000584328 0.0106914 0.0141774)
(0.000307724 0.0108997 0.0125566)
(-0.000104861 0.00943603 0.0126997)
(-0.0003176 0.0107292 0.0133153)
(-0.000191391 0.00944414 0.013781)
(0.000487302 0.0102385 0.012192)
(0.0017088 0.00853103 0.0111304)
(0.000340673 0.00887997 0.0119937)
(0.000948828 0.00928162 0.012616)
(0.000847727 0.00921095 0.0125888)
(0.00146799 0.00944558 0.0118555)
(0.00235973 0.00310667 0.00895076)
(0.00239326 0.00405235 0.00947324)
(0.00258643 0.00457637 0.00889224)
(0.0013433 0.00271322 0.00876757)
(0.00227192 0.00468978 0.00942488)
(0.00233085 0.00445541 0.00933147)
(0.00241025 0.00475741 0.00952959)
(0.00228882 0.00440608 0.00930195)
(0.00238235 0.00535434 0.00979481)
(0.00243464 0.00552951 0.00991011)
(0.00197698 0.00372349 0.00902272)
(0.00174432 0.00349643 0.00895625)
(0.00136085 0.0030046 0.0088161)
(0.00150191 0.00282118 0.00849184)
(-0.000361363 0.00650121 0.0116383)
(-0.000678056 0.0056291 0.0112842)
(-0.00139181 0.00556681 0.0126027)
(-0.00102522 0.00560343 0.0126635)
(-0.00129609 0.00465451 0.0123897)
(-0.00135781 0.00525655 0.0128763)
(-0.00105416 0.00411953 0.012455)
(-0.00114261 0.00404711 0.0111658)
(-0.00105644 0.00418769 0.0119246)
(-0.00367383 0.0147175 0.0156731)
(-0.00292164 0.011861 0.0135377)
(-0.00333793 0.0149727 0.0150634)
(-0.00449852 0.0137135 0.0155226)
(-0.00505592 0.0138356 0.0176954)
(-0.00423018 0.0145317 0.0148722)
(-0.00509557 0.0144192 0.016114)
(-0.0060467 0.0142622 0.0169327)
(-0.00448059 0.0137412 0.0147783)
(-0.00538651 0.0160265 0.0143587)
(-0.00569178 0.0118741 0.018124)
(-0.0058445 0.00944624 0.0187906)
(-0.00522815 0.00790812 0.018963)
(-0.00557995 0.0126368 0.0172663)
(-0.00520821 0.0123088 0.0167608)
(-0.00364182 0.0120912 0.0148534)
(-0.00461179 0.00957405 0.0164868)
(-0.00509354 0.0103517 0.0170343)
(-0.00360459 0.0101073 0.0164333)
(-0.00351062 0.0113799 0.014772)
(-0.000720496 0.00275923 0.0103706)
(0.000871595 0.00767203 0.0198934)
(-0.000984648 0.00601223 0.0206008)
(-0.000879134 0.00591107 0.019867)
(-0.000485665 0.00581284 0.0195011)
(-0.00108171 0.00646181 0.021778)
(-0.000323523 0.00692675 0.0216723)
(-0.000630273 0.00645123 0.0208122)
(0.000202382 0.00734169 0.0210348)
(0.000322187 0.00694685 0.0205757)
(8.74923e-05 0.00595574 0.0190278)
(0.000557983 0.00624651 0.019545)
(-8.1859e-05 0.00695893 0.0222194)
(-0.00294446 0.00611949 0.0207336)
(-0.00228576 0.0064487 0.0218756)
(-0.00152445 0.00573239 0.0200711)
(-0.00191814 0.00597184 0.0214836)
(-0.00214504 0.00602172 0.0208376)
(-0.00127458 0.00653118 0.0219671)
(-0.00187415 0.00598086 0.0211053)
(-0.000778712 0.00653546 0.0215441)
(-0.00280865 0.00557071 0.0119815)
(-0.00263684 0.00478664 0.0113463)
(-0.00297234 0.00500722 0.0106609)
(-0.00170814 0.00304237 0.0093953)
(-0.0020034 0.00363208 0.0102084)
(-0.00226948 0.00425253 0.0107658)
(-0.00224285 0.00387138 0.00983647)
(-0.00187866 0.00328686 0.00964965)
(-0.0030393 0.00566797 0.0123132)
(-0.00298817 0.00602073 0.0124026)
(-0.00324083 0.00750362 0.0130533)
(-0.00280961 0.00663896 0.0128069)
(-0.00240843 0.00594919 0.012085)
(-0.0028093 0.00593168 0.0128506)
(-0.00254322 0.00676192 0.0133824)
(-0.00171405 0.00786198 0.0127248)
(-0.00206146 0.00787756 0.013066)
(-0.00179123 0.00754782 0.0137721)
(-0.0016203 0.00892978 0.0133388)
(-0.00226913 0.0106679 0.014823)
(-0.0014588 0.0104827 0.0153427)
(0.0009845 0.00782106 0.0190646)
(0.00051283 0.00807261 0.0198567)
(0.000418992 0.00829148 0.0189717)
(0.000542158 0.00717677 0.0210611)
(0.000572847 0.00771955 0.0208618)
(0.000770686 0.00698585 0.0186476)
(0.00125765 0.00704078 0.0187121)
(0.00130533 0.00711447 0.0175355)
(0.000613069 0.00817494 0.0178254)
(0.000821654 0.00728203 0.0182397)
(0.000581053 0.00775007 0.0178991)
(0.000836292 0.00732256 0.0177316)
(0.000740448 0.00769541 0.0172054)
(0.000736019 0.00757431 0.017328)
(0.000803801 0.00720502 0.0175778)
(0.000450083 0.00793993 0.0171802)
(0.000262229 0.00765495 0.016522)
(0.000679729 0.00818805 0.0171737)
(0.000808046 0.00767182 0.0169606)
(0.000775909 0.00789155 0.018307)
(0.000362867 0.00754643 0.0168926)
(0.000276366 0.00795874 0.0170525)
(0.000473955 0.00903062 0.0181579)
(0.00053173 0.0085 0.0176918)
(-0.000250371 0.00819864 0.0169785)
(-0.000306774 0.008621 0.0172883)
(-0.000735747 0.00949366 0.0175422)
(-7.72393e-05 0.00837027 0.0170154)
(-0.00046226 0.00814578 0.0164593)
(-0.000391004 0.00969383 0.0165269)
(-0.000508614 0.00940686 0.0170848)
(-5.08196e-05 0.00825691 0.0170529)
(-0.0001669 0.00829366 0.0164188)
(-0.000341032 0.00873924 0.0164759)
(-0.000270018 0.00879595 0.0164076)
(-0.000654738 0.00749621 0.0160679)
(-0.00137997 0.00955303 0.0154911)
(-0.00128746 0.00796785 0.0163724)
(-0.000868051 0.00715739 0.0150856)
(-0.000587909 0.00755165 0.0148012)
(-0.00219886 0.00683226 0.0147918)
(-0.00135373 0.00652314 0.0143243)
(-0.000816988 0.0069855 0.0153392)
(-0.000931776 0.00693176 0.015025)
(-0.00105381 0.00645061 0.0153325)
(-0.00127475 0.0057822 0.0153182)
(-0.00112096 0.00580396 0.0154231)
(-0.000679023 0.00648938 0.01564)
(-0.000327468 0.00725803 0.0154426)
(-2.84612e-05 0.00735665 0.0163759)
(7.64339e-05 0.00752565 0.0160007)
(-4.65208e-05 0.00766143 0.0156008)
(0.000291549 0.00771667 0.016718)
(0.000310906 0.00707049 0.0162985)
(0.000192857 0.00796014 0.0170539)
(-0.000276278 0.00732408 0.016468)
(-0.00089377 0.00692432 0.0158664)
(-0.00081419 0.00721335 0.015788)
(-0.000585859 0.00701136 0.0160853)
(-0.000441612 0.00674331 0.0161985)
(-0.000809477 0.00680972 0.0163389)
(-0.000256587 0.0123254 0.0180229)
(0.000491122 0.0114621 0.0207749)
(0.000368249 0.0130134 0.0197462)
(0.000209875 0.0119367 0.0199085)
(-0.00284183 0.0107634 0.0137218)
(-0.00274315 0.00894515 0.0137863)
(-0.00381085 0.0122907 0.0144848)
(-0.00336467 0.00856616 0.0124697)
(-0.00359628 0.0121333 0.0144101)
(-0.00295202 0.011133 0.015874)
(-0.00176889 0.011673 0.0149716)
(-0.00167027 0.0134798 0.0173012)
(-0.00145488 0.01322 0.0183338)
(-0.000594239 0.0117962 0.0176374)
(-0.0032253 0.0109286 0.0139534)
(-0.00187115 0.00978431 0.017376)
(-0.000615559 0.0095497 0.0175583)
(-0.000723535 0.0100284 0.0169054)
(-0.000905521 0.0100465 0.016455)
(-0.000837922 0.010998 0.0166755)
(-0.000609067 0.0101138 0.016691)
(-0.000687243 0.00981901 0.0156582)
(-0.00251863 0.00410011 0.0101341)
(-0.00298771 0.0046787 0.01032)
(-0.00317404 0.00497937 0.0105433)
(-0.00204775 0.00338944 0.0095274)
(-0.00390813 0.00901141 0.0131712)
(-0.00411958 0.00848268 0.0123472)
(-0.00428153 0.0105654 0.0131301)
(-0.00378496 0.0114727 0.0133408)
(-0.0038084 0.00995502 0.0121931)
(-0.00467804 0.0118726 0.0134791)
(-0.00366618 0.0106837 0.0143152)
(0.00104699 0.00963248 0.0246947)
(0.00043464 0.0138239 0.0179268)
(-0.000165741 0.0138437 0.0180809)
(0.000729255 0.0136064 0.0200539)
(0.000754871 0.0144644 0.0195855)
(0.000826432 0.0120579 0.0214168)
(0.00132875 0.0124856 0.0212596)
(0.00070281 0.0121848 0.0209945)
(0.00139668 0.0121259 0.022795)
(0.000907708 0.0101086 0.0240871)
(-0.00419653 0.00719864 0.0246977)
(-0.00326859 0.00699582 0.0250723)
(-0.00243349 0.00718815 0.0254571)
(-0.00514898 0.00711092 0.0251529)
(-0.00163759 0.00481971 0.0130281)
(-0.00157736 0.00476622 0.0128338)
(-0.00162181 0.00444812 0.0136423)
(-0.00132231 0.00587918 0.0149864)
(-0.00139053 0.00484339 0.0151377)
(-0.00139799 0.00497169 0.0133162)
(-0.00139745 0.00446127 0.0140327)
(-0.00184213 0.00511006 0.0140352)
(-0.0011621 0.0046401 0.0149696)
(-0.00116769 0.00544872 0.0147297)
(-0.00116212 0.00371647 0.0140605)
(-0.00122893 0.00366889 0.0137413)
(-0.00133999 0.00394031 0.0138996)
(0.00104976 0.0113701 0.0227063)
(0.00114399 0.010148 0.0227195)
(0.00101566 0.0110911 0.0226101)
(0.0011193 0.0111736 0.02146)
(0.000680841 0.00986107 0.0220331)
(0.000985712 0.0095256 0.0223616)
(0.000978421 0.00900901 0.0238588)
(0.000799859 0.00868083 0.0244784)
(0.000810398 0.00884947 0.0229869)
(0.000814123 0.00880118 0.0224659)
(-0.00266753 0.00372151 0.00960715)
(-0.000587412 0.00191818 0.00816782)
(-0.000918353 0.00189125 0.00793997)
(-0.00302389 0.00438242 0.00999924)
(-0.00237214 0.00361682 0.00988803)
(-0.00293114 0.00429303 0.0101647)
(-0.00254386 0.00353217 0.00955499)
(-0.00115985 0.00238071 0.00883875)
(-0.00163688 0.00273201 0.00878874)
(0.00205349 0.00276904 0.0162124)
(-0.000934942 0.00343673 0.0126839)
(0.000168662 0.00279864 0.0147013)
(-0.00129528 0.00439377 0.0126036)
(-0.000915933 0.00359327 0.0124711)
(-0.00198182 0.00513964 0.0161349)
(-0.00224446 0.00548975 0.0159864)
(-0.00126009 0.00444589 0.0135072)
(-0.0015214 0.00490919 0.0134394)
(-0.00131939 0.00423219 0.0133685)
(-0.00143481 0.00512281 0.0138329)
(0.000269008 0.00599189 0.0106118)
(-0.000251591 0.00562866 0.0106351)
(3.68483e-06 0.00610636 0.0103225)
(6.81835e-05 0.00231119 0.00874774)
(4.26292e-05 0.00234154 0.00807682)
(0.000401955 0.0023081 0.00858433)
(0.000694633 0.00224609 0.0085493)
(0.000393849 0.00239454 0.00842161)
(0.000706478 0.00635373 0.0105282)
(0.00129594 0.00616802 0.0101778)
(0.00104106 0.00604298 0.00997825)
(0.00222401 0.00531107 0.00959225)
(0.00185407 0.00595852 0.0100168)
(0.00206631 0.00588006 0.0100059)
(0.00226157 0.00555961 0.00992031)
(0.00112848 0.00234469 0.00891761)
(0.000506457 0.00220886 0.00864539)
(0.000686192 0.00215687 0.00843588)
(0.00239885 0.00480201 0.00909365)
(0.00252598 0.00454947 0.00885025)
(0.00282368 0.0042727 0.008818)
(5.15465e-05 0.00460016 0.00908476)
(-0.000337879 0.00381162 0.00967896)
(0.000789481 0.00426198 0.00717981)
(0.000623179 0.0042336 0.00778386)
(0.00397092 -0.00218318 0.0116875)
(0.00248072 0.00283074 0.00882602)
(0.00235239 0.00214459 0.0082889)
(0.00202188 0.00221156 0.00856481)
(0.00137837 0.00224999 0.00862841)
(0.00192586 0.0025488 0.00903944)