/*--------------------------------*- C++ -*----------------------------------*\
| =========                 |                                                 |
| \\      /  F ield         | OpenFOAM: The Open Source CFD Toolbox           |
|  \\    /   O peration     | Version:  v1612+                                |
|   \\  /    A nd           | Web:      www.OpenFOAM.com                      |
|    \\/     M anipulation  |                                                 |
\*---------------------------------------------------------------------------*/
FoamFile
{
    version     2.0;
    format      ascii;
    class       volScalarField;
    location    "100";
    object      p;
}
// * * * * * * * * * * * * * * * * * * * * * * * * * * * * * * * * * * * * * //

dimensions      [0 2 -2 0 0 0 0];

internalField   nonuniform List<scalar> 
21243
(
3.08594
3.08226
3.07384
3.06851
3.08119
2.92588
2.91697
3.07784
3.05945
2.94976
3.09108
3.03516
2.9915
3.06204
3.05606
3.08821
2.92911
3.06199
3.04383
3.04664
2.99458
3.03152
2.99987
3.00509
2.96105
3.05982
3.08374
3.0576
3.05695
2.99331
3.07853
3.08177
3.06241
3.01055
3.05214
3.06463
3.02811
3.06208
3.02643
2.98922
2.99091
2.99517
3.03223
2.9932
3.07308
3.04664
3.0672
3.06457
2.99522
3.03878
3.06523
3.02062
3.02036
2.94549
2.95822
3.02706
3.03131
3.07992
3.08196
3.02992
3.09027
3.05005
3.05605
3.08619
3.02561
2.95668
2.99123
3.0856
3.06694
3.05316
3.08304
3.04608
3.09575
2.93869
3.08967
3.08072
3.10009
3.04781
3.08809
3.00245
2.98367
3.09109
3.0914
3.01315
3.0236
3.05982
3.07278
2.98983
3.064
3.06833
2.96887
2.97289
2.98024
2.97147
2.98627
3.06456
2.94763
3.02417
3.01409
3.01022
3.0997
3.00639
3.07942
3.07492
3.05039
3.09805
2.90766
2.91285
2.9171
2.97524
2.9691
2.96978
3.03993
3.00428
3.0493
3.04445
3.07983
3.09186
3.04709
2.96151
2.99504
3.0183
3.06604
3.08296
3.08492
3.04595
3.0573
2.96497
3.00403
2.95525
3.08261
3.07893
3.0738
2.94386
3.07659
3.06566
3.06902
3.06076
3.05213
3.08694
3.08491
2.96229
3.08248
3.0682
3.06981
3.06172
2.97059
3.00682
3.02409
2.92719
2.97458
3.0818
3.01011
3.01014
3.08088
3.01662
2.98717
3.00221
2.97209
2.93068
2.93284
2.9584
3.08072
3.08062
3.05664
3.01765
3.09176
3.02123
3.00948
3.00986
3.08927
3.08735
3.08899
2.99345
3.0084
3.07517
3.07044
3.04627
3.0451
3.04199
2.96253
2.97585
3.08987
3.08382
3.03038
2.99367
3.04579
3.04212
3.0343
3.10248
3.09884
3.02528
3.02913
3.02678
3.08411
3.08363
3.07907
3.08415
2.98767
2.98826
2.97225
3.08201
3.01248
2.91519
2.91857
2.90386
3.05687
3.07266
3.08009
3.07713
3.0819
3.08091
2.92422
2.92634
3.08245
2.98125
3.04067
3.05364
3.05671
3.05625
3.04534
3.08354
3.09159
3.0892
3.08692
3.07745
3.05512
3.09642
3.10024
3.09422
3.09823
3.03187
3.04656
3.04242
3.09207
3.09414
3.0822
3.03754
2.94427
2.94155
2.96196
2.97119
2.95067
2.98853
2.96468
3.04409
3.04012
3.05565
3.07182
3.05073
3.08672
3.08773
3.08767
3.07679
3.06748
3.06556
3.02673
2.95894
3.09132
3.08109
3.08816
3.07243
3.08324
3.08542
3.08428
3.05713
3.05276
3.07092
3.07254
3.06986
3.06655
3.05868
3.06924
3.07039
3.06897
3.07316
3.03826
3.05116
3.07787
3.09045
3.08621
3.07937
3.00859
3.06584
2.90382
3.07878
2.98421
3.05179
3.06158
3.02558
3.03644
2.95599
3.01949
3.03053
3.09587
3.05851
3.05844
3.05932
3.06009
3.06259
3.00959
3.01422
3.01441
3.01647
3.01233
3.05515
3.05346
3.02595
3.04893
2.94165
3.0535
3.00533
3.05612
2.92666
3.0647
3.04672
3.05425
3.08599
3.08834
3.09096
3.09428
3.09207
3.08414
2.99458
2.98918
2.97322
3.019
3.0189
3.01769
3.00335
3.00632
3.00941
3.02518
3.02538
2.91346
3.08495
3.03169
3.01209
3.0378
3.04762
3.10306
2.91924
3.09127
2.95569
2.91977
3.06791
3.07485
3.0809
3.04475
3.03255
3.07636
3.08063
3.05914
3.06564
3.03721
3.08317
3.08858
3.07645
3.08286
3.0924
3.09221
3.0906
3.08668
3.07969
3.07076
3.03155
3.03942
3.08193
3.08782
3.09002
3.09413
3.01687
3.08403
3.05836
3.06359
3.04088
3.01009
3.00456
3.086
3.07966
3.09449
3.09685
3.03976
3.02416
3.09158
3.035
3.02098
3.06171
2.96436
3.0729
3.07975
3.07045
3.06139
3.0782
3.0458
3.01501
2.99848
3.02088
3.04898
3.08315
2.95595
2.95565
2.94301
2.94659
2.94948
3.02943
2.98096
2.95458
2.99716
2.99389
2.97795
3.0016
2.99188
2.99581
3.07926
2.94631
3.0189
3.09369
3.09071
3.08918
3.09192
3.08647
3.09073
2.97603
2.97158
2.97849
2.98701
3.07812
2.91695
3.07029
3.08937
3.10033
3.09447
3.08614
3.02503
3.06226
3.04602
3.03715
3.05256
3.03787
3.0344
3.05697
3.05417
3.05856
2.96113
3.07727
3.04492
3.03857
3.02568
3.03955
2.92108
2.93222
2.94158
2.97176
2.96176
2.95535
2.98924
2.98417
2.95129
2.9132
2.90949
2.90923
3.07896
3.07184
3.08007
3.0621
3.05814
3.06329
3.05523
2.93262
2.92114
2.92455
3.06428
3.06383
3.0175
3.07105
3.0939
3.09303
2.96903
2.98641
2.99588
3.01279
3.00923
3.04104
3.07285
3.06481
3.01138
3.07771
3.0712
3.07709
3.08317
3.03708
3.03993
2.9944
2.95925
3.02673
3.02844
2.94297
2.94894
3.04873
3.05034
3.04501
3.05437
2.99295
3.06278
3.07529
2.99186
3.07448
3.09001
3.02478
3.06983
3.05691
3.01766
3.08959
3.01377
3.00651
3.01281
3.01538
2.9974
3.08713
3.02369
3.02732
3.0325
3.07534
3.06169
2.97168
2.9928
2.99496
2.95216
2.97244
3.04615
3.04226
3.01769
3.01906
3.03131
2.93663
3.09406
3.0181
3.06979
3.07469
3.07614
3.09911
3.02248
3.08608
2.98553
3.08637
3.02219
3.08868
3.08796
3.05743
3.07275
3.06422
3.01611
3.05083
3.04506
3.04813
3.04363
3.02818
3.01351
3.06376
3.04904
3.06794
2.9409
2.93562
3.00155
3.04541
3.08889
3.08144
3.01393
2.96062
3.08484
3.06837
3.07982
3.07775
3.05303
3.01389
3.01132
3.05545
3.06472
3.03976
3.09516
3.04537
3.04848
2.91418
3.10024
3.09642
3.07702
3.07237
2.93891
3.00237
2.99685
3.09247
3.08217
3.04762
3.04641
3.09791
3.05089
3.06451
3.06257
3.03445
3.07898
3.03568
3.08228
3.04694
3.08022
3.03461
3.07126
3.08761
3.0819
3.04118
3.06263
3.05906
2.93367
3.06746
2.99461
3.02739
2.99837
2.97701
3.0508
3.00018
3.03627
3.02727
3.08966
3.06447
3.07561
2.97011
2.96779
2.98745
2.99981
2.96979
2.99616
3.01026
3.09336
3.09249
3.0602
3.07202
3.04126
3.02492
3.01601
2.95333
2.94264
2.92306
2.92153
3.01543
3.0159
3.05885
2.99778
2.95373
3.00944
3.02493
3.07633
3.08399
3.08419
3.06167
3.05026
3.0023
3.05034
3.01886
3.02182
3.04598
3.07001
3.08127
3.05859
3.05757
3.06947
3.08173
3.07261
3.03856
3.00178
3.04573
3.08305
3.08083
3.08569
3.07649
3.09038
3.07639
3.07654
3.09234
3.05719
3.04102
3.072
3.08146
3.079
3.05022
3.07768
3.05218
3.06835
3.06001
3.08098
3.04013
3.04812
3.0426
3.04396
3.04609
3.06
3.08235
3.06564
3.07018
3.0745
3.07442
3.05388
3.05114
3.0317
3.04896
3.05926
2.98466
2.95628
2.92201
2.96126
2.94751
2.93379
2.96248
3.0494
3.05764
3.08499
3.05564
3.07839
3.07797
3.0643
3.02233
2.99816
3.02878
3.01127
2.95942
3.03003
3.00783
2.971
2.99333
3.01686
2.99615
2.9965
3.04419
3.03229
3.01172
3.00809
3.04841
3.03087
3.00379
2.93867
2.96682
2.94208
3.06306
3.05787
3.08456
3.05596
3.04296
3.04123
3.07744
3.02562
3.00085
3.02478
3.01811
2.97602
3.01098
2.99503
2.96386
2.9948
2.98307
3.00049
3.03557
3.02932
3.01146
3.02458
3.03738
3.00146
2.98664
3.02215
3.03834
3.02008
3.04816
3.04722
2.98654
3.08249
3.07932
3.09194
3.06546
3.09063
3.05779
3.08217
2.97828
3.05528
3.00093
3.03417
3.05825
3.04366
3.03728
3.03402
3.04823
3.04625
3.03505
3.07584
3.08696
3.08431
3.08536
3.07594
3.07596
3.08663
2.94645
2.92535
2.9457
3.04232
3.03414
3.02994
3.0279
3.04157
3.04043
3.02772
2.93156
2.9274
2.93876
3.05528
3.07277
3.0698
3.06773
3.07378
3.06069
3.07235
3.07001
3.08271
3.07536
3.07925
3.08331
3.06526
3.04529
3.03634
3.03787
3.05102
3.06832
3.06617
3.07969
3.08129
3.07164
3.04983
3.0511
3.06295
3.05536
3.06528
3.06079
3.06495
3.06487
3.0619
3.09877
3.10496
3.07878
3.08275
3.07303
3.08052
3.08623
3.08771
3.0788
3.07133
3.0849
3.0649
3.06033
3.05928
3.04663
3.04516
3.07826
3.07593
3.07649
3.06891
3.06981
3.06817
3.06869
3.06966
3.03908
3.07618
3.06304
3.06278
2.9315
2.96881
2.96077
2.95122
2.94084
2.93548
2.95036
3.0732
3.05151
3.06637
3.05494
3.07082
3.06744
3.0581
2.98936
2.98463
2.9839
2.98046
2.99447
2.99777
2.98166
3.05368
3.02847
3.05226
3.03341
3.03768
3.02983
3.04155
3.02517
3.02622
2.97393
2.98895
2.96661
2.9843
2.9879
2.99539
2.97875
2.98882
2.98303
3.00553
2.9892
2.97981
2.97138
2.99661
3.0555
3.06937
3.05168
3.06203
3.05574
3.05861
3.05747
2.99719
2.98815
2.98827
3.02093
2.98789
2.98552
3.0393
2.91907
2.92414
2.91039
2.91898
3.037
3.00695
3.04347
3.02313
3.02953
3.02048
3.02783
3.08101
3.07805
3.08436
3.08861
3.07353
3.07078
3.07561
3.07175
3.05546
3.06735
3.02325
2.94214
2.97705
2.94648
2.93972
2.95821
2.94865
2.97312
2.96425
2.95675
2.95994
2.96933
3.03188
2.99261
3.01626
3.01087
3.01822
3.01272
3.01725
3.00397
3.0051
3.02999
3.00267
3.02687
3.02129
3.00722
2.96759
2.94927
2.97622
2.98028
2.95596
2.9519
2.98388
2.99196
2.99845
2.95282
2.98491
2.96987
2.97579
2.97764
3.0149
3.02799
2.98262
2.99792
3.01184
3.01744
2.99043
3.09222
3.09665
3.09534
3.09421
3.08861
3.09721
3.09126
3.08831
3.08989
3.09599
3.09127
3.09628
3.09227
3.09688
3.08736
3.09358
3.08981
3.07871
3.08459
3.09016
3.09025
3.07617
3.08155
3.07278
3.0686
3.05713
3.05988
3.06959
3.06785
3.05857
3.07336
3.0642
3.06446
3.06698
3.05712
3.06879
3.06142
3.06508
3.06419
3.07888
3.07959
3.07757
3.0699
3.05664
3.05923
3.02367
3.03821
3.0493
3.03346
3.03969
3.03895
3.03556
2.98613
3.00172
2.99351
2.9982
3.02964
3.03961
3.026
3.01838
3.03133
3.02403
3.02254
3.00661
3.01565
3.0329
3.03309
2.95992
2.92734
2.92078
2.91434
2.95741
2.9213
2.91584
2.91536
2.91923
2.92413
2.93092
2.91434
2.90052
2.9101
2.91261
3.02097
2.97539
2.99353
2.98773
3.00936
3.03309
3.01975
3.01688
3.03313
3.02591
3.0214
2.99483
3.0089
3.01044
3.00708
2.99678
3.03246
3.02667
3.04014
3.07887
3.08987
3.08087
3.0817
3.0856
3.01528
3.01473
2.9997
3.01911
3.02389
3.00498
2.95987
2.98558
2.99694
2.99943
2.99813
3.03119
3.01136
3.00145
2.96286
2.99419
2.97996
2.97268
2.99546
3.08851
3.0861
3.07082
3.05892
3.0724
3.06492
3.07084
3.06746
3.08768
3.07372
3.08655
3.09045
3.08447
3.09247
3.08767
3.08676
3.08026
3.08087
3.07424
3.08384
3.09077
3.07844
3.07481
3.03854
3.06259
3.04853
3.05594
3.05784
3.04785
3.04743
3.01608
3.04198
3.02584
3.04534
3.04175
3.02827
2.99812
2.99493
2.98697
2.97396
2.98254
2.99075
3.01792
3.04891
3.02951
3.03732
3.02762
3.03221
3.02933
3.05732
3.03634
3.01084
3.0284
3.03915
3.03692
3.0291
3.05689
3.03689
3.03892
3.03266
3.05491
3.04905
3.0376
3.00211
3.02452
3.02177
3.03208
3.00921
3.01514
3.02417
3.05209
3.06315
3.05852
3.06859
3.06355
3.0586
3.0693
3.06373
3.06673
3.05129
3.07474
3.04663
3.06932
3.05871
3.06436
3.06136
3.07005
3.0833
3.08254
3.09187
3.0661
3.07367
3.08048
3.06335
3.0809
3.08293
3.06744
3.07033
3.07931
3.06058
3.06378
3.07924
3.08868
3.04899
3.02599
3.05837
2.98697
2.96186
2.99495
3.03979
3.03802
3.00704
3.02137
3.01385
3.05226
3.06521
3.05346
3.06075
3.06088
3.06728
3.05565
3.06786
3.07629
3.06602
3.07654
3.07824
3.08078
3.07382
3.09265
3.08652
3.09289
3.08838
3.095
3.09742
3.10206
3.09775
3.09223
3.07735
3.07776
3.08605
3.08849
3.089
3.07656
3.08999
3.0845
3.08589
3.08598
3.09
3.09927
3.09192
3.08189
3.07345
3.07344
3.07087
3.08074
3.07941
3.07152
3.07627
3.08701
3.08453
3.08232
3.09351
3.09024
3.09161
3.08972
3.0961
3.09138
3.09191
3.09236
3.08862
3.09381
3.09135
3.08534
3.0767
3.06812
3.07918
3.07533
3.07394
3.07815
3.07728
3.07924
3.0774
3.08009
3.0915
3.08216
3.08214
3.0827
3.0807
3.07482
3.07786
3.08276
3.08359
3.07763
3.08509
3.08052
3.09334
3.08474
3.09306
3.081
3.09247
3.08731
3.08611
3.08076
3.09148
3.04165
3.04951
3.06129
3.05921
3.04659
3.04823
3.05704
3.06458
3.05518
3.05462
3.05209
3.06042
3.05534
3.06691
3.04192
3.05212
3.08472
3.08235
3.06309
3.07317
3.07861
3.07971
3.07306
3.06209
3.05956
3.07753
3.06192
3.08382
3.09494
3.09969
3.09029
3.0847
3.07508
3.08476
3.08605
3.07866
3.07668
3.09152
3.07547
3.07716
3.08109
3.09029
3.09
3.06723
3.06082
3.04328
3.05936
3.059
3.05089
3.04996
3.06335
3.05151
3.0378
3.05135
3.04861
3.06748
3.05894
3.0626
3.05662
3.07312
3.06824
3.07169
3.08049
3.06638
3.06855
3.07376
3.07798
3.06722
3.07071
3.07502
3.07375
3.07744
3.06863
3.07438
3.0828
3.08197
3.07042
3.07115
3.06568
3.07264
3.06721
3.05995
3.04346
3.07202
3.08977
3.06562
3.06003
3.08358
3.07373
3.06756
3.06301
3.07478
3.07104
3.07476
3.05659
3.06552
3.05551
3.07
3.07685
3.07633
3.08847
3.05435
3.03542
3.05198
3.05199
3.04702
3.04421
3.05413
3.06375
3.0582
3.06095
3.05522
3.04061
3.03567
3.05147
3.04011
3.05001
3.03603
3.05347
3.04103
3.04632
3.05443
3.05499
3.04761
3.05535
3.04573
3.0585
3.05123
3.05063
3.05224
3.04911
3.04706
3.04575
3.06015
3.05612
3.05143
3.05481
3.05452
3.05183
3.07231
3.05685
3.07092
3.0585
3.06133
3.06718
3.07099
3.08854
3.07868
3.07862
3.06917
3.07207
3.07644
3.07194
3.07109
3.05647
3.05835
3.07467
3.06517
3.06092
3.07159
3.06017
3.07017
3.05483
3.06082
3.06895
3.07643
3.06851
3.06986
3.08094
3.06154
3.05223
3.04946
3.04813
3.03648
3.03851
3.04246
3.05972
3.05434
3.044
3.04201
3.056
3.04985
3.06201
3.05617
3.0514
3.05244
3.04602
3.0469
3.03751
3.03168
3.03192
3.05853
3.05145
3.04722
3.05011
3.04313
3.06253
3.04671
3.04613
3.05014
3.05515
3.04497
3.07007
2.97865
2.98746
3.00792
2.98477
3.0039
3.00095
2.98658
2.96537
2.9397
2.96338
2.94978
2.95895
2.95345
2.93919
2.92355
2.93066
2.92373
2.91667
2.93393
2.93073
2.95248
2.94097
2.94866
2.9318
2.93529
2.94239
2.98223
2.96162
2.95298
2.94902
2.97354
2.96831
2.95434
2.96487
2.94262
2.95982
2.9492
2.96368
2.95915
2.95359
2.9267
2.94436
2.96937
2.95249
2.94149
2.94437
2.95002
3.04501
3.06144
3.04641
3.04263
3.06009
3.04591
3.04775
3.06146
3.06141
3.06716
3.0501
3.06998
3.0617
3.0641
3.07707
3.08976
3.08775
3.08617
3.08397
3.0782
3.05882
3.07459
3.06932
3.07544
3.07155
3.07295
3.05185
3.06898
3.08258
3.07348
3.06735
3.06719
3.07193
3.05244
3.06698
3.06697
3.07157
3.05546
3.0593
3.06721
3.08798
3.07392
3.06855
3.0706
3.08247
3.08051
3.07483
3.03996
3.02363
3.03188
3.04048
3.03579
3.04488
3.02846
3.04405
3.03583
3.0468
3.04362
3.03979
3.02409
3.00657
3.01104
3.01384
3.01439
3.01432
3.04584
3.0213
3.03691
3.02227
3.02896
2.99876
3.01831
3.01351
3.02567
3.0147
3.03919
3.01916
3.03225
3.02788
3.02534
2.98541
2.98123
2.96583
2.97532
2.97767
2.96401
2.95452
2.97275
2.97908
2.95472
2.96932
2.96042
2.9921
3.01449
3.03512
3.02056
3.012
3.01382
3.01905
3.00154
3.00934
3.03045
3.00497
3.02328
3.01929
3.00899
2.98245
2.96326
2.98348
2.98581
2.97072
2.96511
2.99144
3.00244
2.99961
2.96886
2.98794
2.98371
2.98189
2.9876
3.01108
3.02882
2.99389
3.00269
3.01255
3.01918
2.99657
2.96227
2.99649
2.97453
2.97835
2.97212
2.9698
3.02336
3.00618
3.0168
2.99959
2.97445
3.00292
2.97702
2.9854
2.99193
3.03943
3.03083
3.0537
3.05186
3.03769
3.03914
3.05549
3.05603
3.04806
3.05638
3.04362
3.04334
3.03789
3.04842
3.04488
3.02665
3.01954
3.018
3.03934
3.03338
3.02342
3.02518
3.00828
2.99501
3.01512
3.00641
3.00393
3.01684
3.0296
3.05219
3.04773
3.03641
3.04521
3.04765
3.03227
3.01264
3.0225
3.04862
3.02969
3.03165
3.0304
3.03083
3.02444
2.99805
3.0323
3.02222
3.02209
3.01714
3.02668
2.9476
2.94277
2.95596
2.97127
2.9414
2.95095
2.95479
2.95062
2.93439
2.92296
2.9318
2.91841
2.93193
2.93275
2.94423
2.96878
2.95998
2.95276
2.95889
2.96465
2.94774
2.97384
2.93843
2.94714
2.96923
2.95929
2.94169
2.95142
2.94616
2.93344
2.96029
2.95446
2.93255
3.0346
3.05488
3.05124
3.05756
3.03503
3.04103
3.05353
3.03297
3.04223
3.0445
3.04928
3.04066
3.03132
3.09167
3.06924
3.08121
3.04672
3.05325
3.07402
3.05893
3.06097
3.06158
3.06064
3.05422
3.03913
3.06801
3.05261
3.0547
3.05296
3.05996
3.06032
3.03988
3.03068
3.05023
3.03649
3.03821
3.0504
3.06405
3.07567
3.07636
3.05952
3.07343
3.07936
3.06506
3.0207
3.01399
3.01087
3.01693
3.00727
3.01862
3.04545
3.03625
3.05019
3.03723
3.03328
3.02985
3.03981
3.01331
3.01599
3.00302
2.99979
3.00672
2.99995
3.00202
3.01008
3.0303
3.00363
3.01371
3.03109
3.01537
3.02004
3.02011
3.01849
3.00744
2.98216
2.97231
2.96818
2.99985
2.99452
3.01324
2.99875
2.99828
2.99566
2.99657
2.9886
3.00316
2.9809
2.96927
2.96315
2.96702
2.96661
2.99461
2.97268
2.99473
2.99686
2.97821
2.98049
2.97709
2.98376
2.9923
2.97576
2.98965
2.97824
2.98722
3.03267
3.04708
3.04509
3.04801
3.03095
3.03145
3.04676
3.01044
3.03401
3.02773
3.01481
3.02628
3.03122
3.01015
3.03792
3.0165
3.01089
3.00958
3.02923
3.03115
3.01851
2.99734
3.01599
3.00335
3.01371
2.99425
3.00184
3.00874
3.01606
3.03738
3.02013
3.0198
3.0215
3.02579
3.01597
3.02865
3.00762
2.98909
3.00982
3.00762
3.00872
3.00771
3.01257
3.02331
2.99319
2.97372
2.94227
2.95166
2.94388
2.93586
2.95502
2.97985
2.96492
2.96938
3.06696
2.97587
2.95791
2.97586
2.97659
2.90311
2.96317
3.06323
3.06771
3.06441
3.06288
3.057
3.05838
3.05514
3.0636
2.97225
3.03898
3.03547
2.98663
3.01647
3.01904
3.02037
3.01435
3.06016
3.02548
3.01906
3.02804
3.05368
3.05797
3.0343
3.05453
3.05748
3.0348
3.0041
2.97786
3.00578
2.98557
2.98461
3.00928
3.08851
3.08446
3.08542
3.08029
3.05601
3.07786
3.05029
3.07417
3.06505
3.07632
3.06794
3.09109
3.08605
3.0835
3.08682
3.0809
3.09111
3.08513
3.08193
3.08219
3.08936
3.03315
3.04714
3.04109
3.06435
3.04769
3.062
3.05198
3.07661
3.06164
3.06872
3.07655
3.06748
3.06317
3.07384
3.06828
3.07423
3.06717
3.07307
3.05728
3.06456
3.03021
3.04652
3.03924
3.03742
3.0408
3.05272
3.05685
2.96977
2.98294
3.02064
2.99961
2.98724
2.98584
2.99182
2.95044
2.95521
2.93115
2.94798
2.9467
2.99514
2.97418
2.98292
2.981
2.9574
2.9468
3.0397
3.03365
3.03701
3.04659
3.05264
3.05465
3.03213
3.06868
3.04017
3.03377
3.06959
3.03922
3.05413
2.99363
3.02327
3.01026
2.98671
3.00224
3.0123
3.01641
2.99083
3.02702
3.02202
3.01011
3.0219
3.02716
3.01013
3.01237
3.0264
3.02517
3.01568
3.01755
3.02282
3.08439
3.08637
3.08453
3.08172
3.08153
3.08515
3.08069
3.02443
3.02325
3.0278
3.02401
3.03276
3.03316
3.02676
3.02734
3.03352
2.93463
3.08608
3.08516
3.03072
3.03287
3.01789
3.01912
3.038
3.08679
3.0808
3.07712
3.08415
3.08694
3.08314
3.05263
3.06413
3.05082
3.05111
3.05139
3.05242
3.04936
3.066
3.07327
3.06876
3.07486
3.06742
3.07348
3.07077
3.02377
3.03368
3.02634
3.04707
3.07374
3.0681
3.07016
3.07388
3.07029
3.09394
3.09713
3.09631
3.10244
3.0984
3.09204
3.08419
3.08923
3.08838
3.0879
3.0867
3.09145
3.08715
3.03862
3.05315
3.04097
3.05323
3.05593
3.06392
3.05783
3.05564
3.05494
3.05909
3.03777
3.03057
3.06959
3.06435
3.07131
3.07063
3.05261
3.06224
2.95178
2.9546
2.93743
2.94545
2.95111
2.94316
3.0603
3.05969
3.0564
3.06364
3.05898
3.06128
3.06007
2.9821
2.99403
2.99358
2.99172
3.01875
3.02247
3.01701
3.0253
3.0073
2.99259
3.00471
2.99523
3.00143
2.99597
3.00221
2.98167
2.99471
2.97642
2.9823
2.98304
2.98839
2.97468
3.04703
3.0463
3.05924
3.05156
3.05093
3.04653
3.05516
3.00349
2.99132
2.99966
2.99074
2.99747
2.99462
2.99802
3.01666
3.01377
3.01036
3.02443
3.03712
3.03933
3.01948
3.03468
3.02609
3.02489
3.03588
3.02486
3.03574
3.03027
3.02708
3.02859
3.03671
3.03346
3.03722
3.01412
3.02919
3.03538
3.03876
3.01929
3.08528
3.08268
3.0646
3.06962
3.07842
3.0738
3.07309
3.06854
3.07675
3.06281
3.065
3.06102
2.94761
2.95098
2.96418
2.96016
2.95183
2.95461
2.95897
2.98303
2.9859
2.96409
2.97467
2.97904
2.98234
2.97141
2.99982
3.00532
2.98249
2.98974
2.9941
2.99521
2.98742
3.01228
2.99525
2.99501
2.99709
3.00575
3.00203
3.00118
2.98335
2.98788
2.99093
2.977
2.98565
2.98138
2.98266
2.9721
2.98994
2.99311
2.99435
2.97942
2.98664
2.9882
2.98805
2.99303
2.99271
3.00392
2.99003
2.99742
2.99725
3.09799
3.10361
3.09882
3.09907
3.09391
3.09722
3.09148
3.08622
3.09814
3.0792
3.08603
3.0892
3.09255
3.08982
3.08902
3.095
3.09176
3.09375
3.09394
3.09444
3.09408
3.0876
3.08376
3.0911
3.09054
3.05319
3.05799
3.05162
3.05576
3.05074
3.05598
3.05317
3.05131
3.04373
3.05666
3.05041
3.06763
3.06384
3.06639
3.06838
3.07404
3.07099
3.07176
3.07316
3.07904
3.06984
3.06271
3.04526
3.03463
3.04284
3.0382
3.04305
3.03867
3.03982
3.00519
3.00022
3.04378
3.04315
3.03979
3.04068
3.03493
3.02696
3.02098
3.02135
3.01735
3.02059
3.02924
3.03484
3.02656
3.02432
3.02961
2.92742
2.93699
2.91935
2.92298
2.92983
2.93487
2.94413
2.92408
2.93096
2.9192
2.93437
2.9254
2.92117
2.91764
2.91108
2.91981
2.921
2.9959
3.01613
3.01679
3.00958
3.01746
3.02286
3.01474
3.00596
3.01415
3.01789
3.01773
3.0591
3.06292
2.99903
2.99204
2.98229
2.99205
2.99432
2.99478
2.98852
2.94896
2.96385
2.96334
2.95808
2.95517
2.95674
2.95894
2.969
2.95818
2.97197
3.00934
2.98977
3.03106
2.98914
3.00735
3.01747
3.08333
3.07912
3.09362
3.089
3.07124
3.07575
3.07801
3.07181
3.07024
3.06865
3.07132
3.08677
3.0861
3.09168
3.08172
3.08866
3.09354
3.09555
3.0859
3.08841
3.09278
3.08891
3.08853
3.09266
3.00695
3.00196
3.06499
3.04856
3.05894
3.05766
3.05944
3.05538
3.05968
3.04963
3.04589
3.0356
3.04469
3.0445
3.04768
3.04118
3.00647
3.01134
3.00683
3.00205
2.99509
3.04682
3.03996
3.05201
3.05163
3.04646
3.04819
3.05058
3.00564
3.02239
3.00146
3.01442
3.00935
3.01684
3.00776
3.0223
3.02541
3.0055
3.01805
3.01813
3.02415
3.01194
3.04192
3.03861
3.05356
3.05075
3.04308
3.04071
3.04695
3.05919
3.06225
3.06282
3.06764
3.05908
3.0603
3.06097
3.07081
3.05942
3.06055
3.05384
3.07174
3.06014
3.0645
3.05541
3.06576
3.0787
3.06944
3.06695
3.07295
3.09355
3.08356
3.08429
3.08583
3.0873
3.07733
3.08629
3.08312
3.08239
3.08164
3.08672
3.08754
3.07129
3.06543
3.03842
3.05038
3.02586
3.03801
3.03337
3.04723
3.03084
3.00993
3.00572
3.04315
3.0893
3.08209
3.08673
3.08477
3.08749
3.08485
3.08705
3.0846
3.08852
3.08511
3.08365
3.08275
3.08754
3.08258
3.07955
3.08687
3.0815
3.08756
3.08221
3.08537
3.08641
3.09424
3.09616
3.07062
3.06774
3.07299
3.07416
3.07022
3.07102
3.0734
3.09569
3.09685
3.09527
3.09064
3.09314
3.09061
3.09178
3.09392
3.09647
3.08989
3.09516
3.08682
3.0957
3.09423
3.07157
3.08139
3.07718
3.07299
3.07278
3.07698
3.07338
3.09597
3.10025
3.07073
3.06937
3.07688
3.07712
3.07504
3.07414
3.08134
3.09221
3.09425
3.08902
3.09344
3.08375
3.09062
3.08957
3.09413
3.09192
3.09023
3.08541
3.06364
3.0628
3.06818
3.06659
3.06657
3.06306
3.07155
3.04667
3.0495
3.06078
3.05838
3.06159
3.06668
3.05314
3.03843
3.03774
3.04167
3.06285
3.0702
3.06372
3.07008
3.06609
3.06908
3.06651
3.08888
3.07139
3.07438
3.08779
3.08727
3.08781
3.08638
3.09123
3.08895
3.08548
3.08401
3.08376
3.08986
3.0791
3.09007
3.08604
3.08484
3.08913
3.09521
3.09733
3.08893
3.09263
3.05901
3.06113
3.05878
3.05353
3.05955
3.05563
3.05534
3.05522
3.05286
3.05035
3.04863
3.04082
3.03483
3.03356
3.0601
3.05536
3.06022
3.05995
3.06119
3.06842
3.06998
3.07143
3.07472
3.07049
3.06964
3.07112
3.07559
3.0819
3.08014
3.07466
3.08694
3.08452
3.0842
3.08115
3.06742
3.06498
3.0698
3.04897
3.03554
3.05467
3.04866
3.04466
3.04433
3.05046
3.08968
3.09289
3.09038
3.0794
3.07604
3.08382
3.07514
3.07234
3.07033
3.0731
3.06002
3.073
3.07295
3.06446
3.05813
3.0658
3.05645
3.0835
3.08013
3.08282
3.08539
3.0736
3.09124
3.08298
3.04724
3.0506
3.04344
3.04525
3.04813
3.04784
3.04602
3.04203
3.03793
3.04149
3.04481
3.04669
3.04594
3.04532
3.0483
3.03606
3.03977
3.03073
3.04112
3.03802
3.03926
3.03727
3.04583
3.04278
3.03436
3.0417
3.04347
3.0367
3.05715
3.04377
3.05383
3.0492
3.03373
3.05856
3.04062
3.04687
3.04517
3.04955
3.04122
3.06632
3.06384
3.07036
3.06457
3.06842
3.0644
3.06802
3.08439
3.07312
3.05962
3.06376
3.06997
3.07497
3.07277
3.08086
3.07238
3.07119
3.07559
3.07609
3.07
3.07124
3.08006
3.07444
3.07528
3.06941
3.0774
3.05126
3.06136
3.07048
3.02684
3.0615
3.05791
3.06407
3.05629
3.06171
3.05831
3.06079
3.06127
3.05474
3.02977
3.0275
3.02879
3.02846
3.0343
3.02563
3.03018
3.03312
3.03742
3.0188
3.02997
3.02893
3.04322
3.04643
3.05538
3.07345
3.06593
3.06174
3.07346
2.99459
2.97698
2.98226
2.98331
2.98979
2.98526
2.98818
2.95172
2.94291
2.96443
2.94555
2.91554
2.93317
2.9226
2.92104
2.92307
2.92852
2.91991
2.95812
2.95513
2.97612
2.96451
2.96184
2.958
2.96913
2.94204
2.94637
2.92658
2.94209
2.93407
2.94317
2.93219
2.94485
2.93968
2.94058
2.94027
2.94249
2.93858
2.97506
2.95946
2.98038
2.96774
2.97087
2.96438
2.97356
3.04905
3.06138
3.05283
3.05465
3.05393
3.05639
3.05152
3.06286
3.06483
3.07027
3.06277
3.06081
3.06213
3.06523
3.09284
3.08361
3.08183
3.08566
3.08872
3.08367
3.08836
3.06383
3.06538
3.05176
3.05728
3.06029
3.06124
3.05617
3.08593
3.07656
3.08272
3.08078
3.08352
3.08065
3.08607
3.07715
3.07561
3.08478
3.07891
3.07968
3.07646
3.08358
3.06164
3.06645
3.05269
3.06126
3.06181
3.06558
3.05646
3.03946
3.0307
3.03831
3.0315
3.02975
3.01754
3.02536
3.02815
3.02911
3.02412
3.00695
3.01457
3.00796
3.00171
3.00961
3.00653
3.01154
3.0395
3.02112
3.0343
3.0191
3.02636
3.01808
3.01165
3.0153
3.02157
3.01895
3.01449
2.95684
2.96467
2.95996
2.96415
2.97171
2.99214
2.98728
3.01243
3.0015
2.99984
3.04052
3.02694
3.04447
3.03365
3.03739
3.03217
3.03878
3.01924
3.00353
3.01048
3.00499
3.01317
3.00774
3.00831
2.98542
2.98983
2.98765
2.97809
2.9878
2.98244
2.9824
2.97527
2.99292
2.99019
2.99078
2.98124
2.98662
2.98404
3.00028
3.00081
3.00593
3.01138
3.00232
3.00414
3.00756
2.99346
2.99154
2.9799
2.99606
2.9822
2.99367
3.00385
2.9908
3.00554
3.00565
3.00173
2.98331
3.00414
2.99653
2.99981
2.98758
2.99228
2.99351
3.05484
3.05346
3.05612
3.04968
3.05544
3.04978
3.05204
3.02023
3.0335
3.02718
3.03122
3.02329
3.0287
3.02512
3.00646
3.01332
2.99488
3.0066
3.00508
3.01156
2.99932
3.00109
3.01646
3.00802
3.0089
3.00687
3.01207
3.00601
3.04564
3.03515
3.044
3.04315
3.04138
3.03949
3.04527
3.04465
3.03129
3.03993
3.03439
3.03949
3.03561
3.03851
3.02014
3.01935
3.0087
3.0105
3.01751
3.0157
3.01264
2.96717
2.97094
2.96242
2.9633
2.96767
2.95899
2.96245
2.93887
2.93603
2.95429
2.9418
2.94732
2.93431
2.9478
2.96149
2.95139
2.95852
2.95281
2.96093
2.96756
2.93366
2.94404
2.9354
2.91805
2.94401
2.94009
2.93787
2.95556
3.06491
3.05991
3.06666
3.06666
3.06549
3.06195
3.06803
3.05122
3.04662
3.05081
3.06959
3.08838
3.08089
3.07069
3.07134
3.05669
3.06827
3.066
3.06717
3.0551
3.05833
3.05768
3.04773
3.04717
3.05128
3.05243
3.0475
3.03501
3.0486
3.04258
3.04745
3.0423
3.04517
3.0425
3.07541
3.05821
3.0719
3.06881
3.06341
3.06506
3.07023
3.04095
3.02935
3.02935
3.03319
3.01779
3.03047
3.02039
3.02477
3.02199
3.02481
3.02147
2.99235
3.00948
2.99305
2.99625
2.99453
3.00186
2.99052
3.01454
3.02164
3.02208
3.0213
3.01683
3.02168
3.02419
3.00863
3.02151
3.02019
3.02205
3.02058
3.02313
3.01297
3.01535
3.00035
2.9648
2.97612
2.97545
2.97114
2.96701
2.97379
3.0158
3.01945
3.00692
3.00932
3.0076
3.00596
2.9898
2.9874
2.98567
2.99172
2.98527
2.9905
2.97905
2.96854
2.97599
2.96405
2.97765
2.98046
2.99268
2.99011
2.99688
3.00534
3.00099
2.99638
2.99647
2.99791
3.04355
3.04813
3.04201
3.03926
3.04358
3.0439
3.03972
3.02367
3.01224
3.02741
3.02287
3.01799
3.01706
3.02083
3.00612
3.00744
3.00279
3.00988
3.00611
3.00956
3.0019
3.0187
3.01833
3.03364
3.02548
3.02373
3.01891
3.02936
3.02859
3.02401
3.03771
3.03259
3.02945
3.02861
3.03302
2.98937
3.00587
2.99454
2.99805
2.99385
2.99675
2.99489
2.98109
2.99323
2.99746
2.99479
2.98934
2.98815
2.9299
2.94524
2.92508
2.92914
2.93381
2.93602
2.92979
3.00525
2.96956
3.01944
2.98508
3.03384
3.01785
3.0095
3.01774
3.02087
3.01455
3.03024
3.03645
3.02171
3.02853
3.03205
2.99494
3.01498
3.00368
3.0128
3.00371
3.01074
3.00614
3.02213
3.03039
3.0377
3.0337
3.02859
3.02848
3.03269
3.05197
3.0337
3.04143
3.04519
3.04407
3.04052
3.04058
3.00689
2.99828
3.00068
3.07542
3.0784
3.06883
3.0751
3.07183
3.07534
3.07344
3.06813
3.07068
3.06016
3.08779
3.08838
3.08185
3.09102
3.08945
3.08942
3.08735
3.08221
3.05605
3.04944
3.05173
3.05789
3.05571
3.0597
3.05853
3.05682
3.08189
3.0655
3.08712
3.07219
3.07755
3.07939
3.04272
3.0668
3.0431
3.05211
3.05421
3.05683
3.07224
3.05225
3.0737
3.08081
3.08265
3.08054
3.0756
3.06414
3.02273
3.02814
3.0205
3.03118
3.01306
3.00503
3.00125
3.01255
2.96303
2.97043
2.97032
2.96269
2.94672
2.95932
3.03167
3.04469
3.02846
3.04505
3.03085
3.03477
3.03247
3.07041
3.06618
3.06003
3.06495
3.0584
3.06891
3.07339
3.02145
3.02588
3.02062
3.0171
3.00864
3.02007
2.98016
3.01481
3.02158
3.07306
3.05653
3.07357
3.05745
3.07321
3.06065
3.06985
3.05583
3.06166
3.04151
3.04707
3.05267
3.05489
3.04565
3.01395
3.02939
3.01537
3.0293
3.01911
3.02673
3.01998
3.03829
3.03162
3.01816
3.02874
3.03109
3.03333
3.0253
3.04347
3.05882
3.05083
3.05399
3.04982
3.05248
3.04764
3.04092
3.03847
3.05874
3.04927
3.04566
3.0406
3.05231
3.03929
3.01956
3.03698
3.03266
3.03496
3.02728
3.04031
3.07248
3.07288
3.06663
3.07251
3.07006
3.07333
3.0695
3.08662
3.07866
3.08314
3.08525
3.08212
3.08266
3.08171
3.08893
3.08846
3.09197
3.0865
3.08777
3.08606
3.08874
3.07848
3.08153
3.08518
3.08637
3.0813
3.08496
3.08372
3.08396
3.0756
3.07848
3.07616
3.08117
3.07854
3.07875
3.0837
3.08158
3.07582
3.07862
3.08171
3.08151
3.07865
3.07911
3.0874
3.08119
3.08455
3.08156
3.08443
3.08145
2.93359
2.925
2.93074
2.9275
2.92295
2.91577
2.92164
2.91651
2.93353
2.93389
2.9485
2.91208
2.9348
2.92306
2.93185
2.95153
2.9236
2.91701
2.92219
2.94539
2.9317
2.93403
2.92441
3.04876
3.04443
3.05371
3.04577
3.04899
3.04459
3.0507
3.04201
3.04449
3.03753
3.03617
3.04162
3.0416
3.03772
3.01974
3.02432
3.01757
3.02658
3.01939
3.02503
3.02012
3.03526
3.03259
3.02277
3.02804
3.03331
3.03132
3.02906
3.03424
3.04598
3.03913
3.04189
3.03757
3.04048
3.03761
3.03352
3.0374
3.04471
3.04037
3.03799
3.03704
3.04047
3.03625
3.02273
3.03345
3.03016
3.03255
3.02936
3.03278
2.94232
2.93422
2.94669
2.93708
2.91614
2.92403
2.9256
2.91596
2.9286
2.92916
2.92072
2.92425
2.92598
3.05437
3.06269
3.04361
3.05901
3.05628
3.06422
3.04819
3.08409
3.07159
3.08272
3.08224
3.07581
3.0711
3.07066
3.07512
3.08205
3.07288
3.07791
3.07875
3.07033
3.05747
3.05809
3.06673
3.07244
3.06864
3.06584
3.07437
3.08473
3.06742
3.07562
3.07747
3.07853
3.07723
3.07517
3.06849
3.06726
3.07877
3.07386
3.02439
3.00602
3.05481
3.0791
3.06044
3.06132
3.07045
3.06899
3.06395
3.06345
3.06934
3.08472
3.08606
3.08217
3.07996
3.07858
3.08155
3.07639
3.07454
3.07397
3.0729
3.0744
3.07182
3.07408
3.06944
3.07373
3.07098
3.07131
3.03546
3.03284
3.01877
3.03224
3.02849
3.03564
3.04737
3.05764
3.05364
3.06129
3.04813
3.05309
3.06037
3.06567
3.05743
3.05038
3.06011
3.03082
3.04885
3.0433
3.04226
3.06185
3.05614
3.04225
3.04311
3.05523
3.05086
3.03994
3.04085
3.05393
3.04945
3.04741
3.05108
3.04236
3.06303
3.05828
3.05075
3.07719
3.07448
3.07651
3.07991
3.05431
3.07312
3.06876
3.06739
3.06913
3.07748
3.07287
3.08479
3.08344
3.06159
3.06901
3.07194
3.07649
3.08
3.06817
3.07986
3.07082
3.07173
3.07658
3.07193
3.07263
3.08106