/*--------------------------------*- C++ -*----------------------------------*\
| =========                 |                                                 |
| \\      /  F ield         | OpenFOAM: The Open Source CFD Toolbox           |
|  \\    /   O peration     | Version:  v1612+                                |
|   \\  /    A nd           | Web:      www.OpenFOAM.com                      |
|    \\/     M anipulation  |                                                 |
\*---------------------------------------------------------------------------*/
FoamFile
{
    version     2.0;
    format      ascii;
    class       surfaceScalarField;
    location    "200";
    object      phi;
}
// * * * * * * * * * * * * * * * * * * * * * * * * * * * * * * * * * * * * * //

dimensions      [0 3 -1 0 0 0 0];

internalField   nonuniform List<scalar> 
37284
(
3.06972e-09
-1.54803e-08
1.37581e-08
-1.34747e-09
-3.16212e-09
1.92339e-09
-3.87205e-09
5.11078e-09
1.25335e-08
3.98728e-09
-1.51215e-08
-1.39924e-09
1.09867e-09
-1.07504e-08
8.09455e-09
1.55721e-09
-1.12911e-08
2.22742e-09
1.01624e-08
1.01749e-09
-9.88078e-09
-1.88706e-09
-9.8792e-09
-3.94403e-10
6.50239e-10
-6.88508e-09
8.81127e-09
-2.57639e-09
-6.07067e-09
8.94833e-09
-7.63405e-09
-1.07723e-08
1.23357e-08
2.29307e-09
3.93425e-10
-1.03205e-08
3.17267e-09
-1.29796e-09
-1.17555e-08
5.93983e-10
-7.3005e-09
-7.46224e-09
-2.71605e-09
-5.2013e-09
6.09298e-10
7.1957e-09
-1.03065e-08
1.81286e-09
-5.69539e-09
7.6898e-09
4.00261e-09
-8.84824e-09
1.28346e-08
-7.98899e-09
1.78783e-08
-9.05918e-09
-4.81652e-09
5.55113e-09
-1.4596e-09
1.37868e-08
4.78089e-09
7.62011e-09
-2.12492e-08
8.69528e-09
-1.52859e-08
1.13715e-08
1.36392e-08
-1.50782e-08
2.22726e-08
2.59825e-08
-1.99426e-08
-2.83126e-08
-6.18945e-09
1.4151e-08
7.33709e-10
-4.67414e-09
1.13194e-08
-1.36443e-08
2.75742e-08
-2.9071e-10
-1.3194e-09
1.18471e-08
3.62333e-09
-3.36459e-09
5.81264e-09
2.18054e-08
-2.42534e-08
1.34091e-08
-1.80931e-08
2.36427e-08
-1.9659e-08
1.82896e-09
-1.84911e-09
1.30573e-08
-1.16026e-08
1.17397e-09
1.79379e-09
1.76368e-08
-2.06046e-08
1.47393e-08
-1.54524e-08
1.80368e-08
-1.80921e-08
1.86043e-08
-2.0402e-09
-3.50675e-09
7.77371e-09
1.53445e-08
-4.51389e-09
3.60753e-09
4.73319e-10
1.06585e-08
1.6518e-08
-1.33297e-08
1.44486e-08
5.46372e-09
1.24724e-08
-7.08352e-09
2.30801e-08
9.01805e-09
2.68404e-09
1.02414e-08
1.18508e-08
-5.57425e-09
-3.11807e-10
2.78872e-08
-1.7334e-08
1.417e-08
-1.70947e-08
1.56953e-08
7.41601e-09
-6.01666e-09
4.60288e-09
-4.47095e-09
-1.72267e-08
-3.27145e-09
2.67011e-09
-9.35556e-09
9.95689e-09
4.26252e-10
-1.28095e-08
9.11184e-09
-1.47299e-09
-9.28115e-09
1.34243e-08
1.3996e-08
-8.21917e-09
9.91846e-09
4.30566e-09
-1.52319e-08
1.13524e-08
1.68287e-08
-8.63064e-09
8.14757e-10
-9.89963e-09
5.27113e-11
4.91343e-10
-7.54666e-09
-9.60041e-09
7.8659e-09
-1.77706e-08
2.00477e-09
-2.35193e-09
-1.08158e-08
-3.70631e-09
-9.22726e-09
1.24022e-10
-1.02414e-08
-3.36459e-09
1.28216e-08
1.85918e-09
-1.91517e-08
-5.03634e-09
-1.01267e-08
5.78988e-10
4.21696e-09
-1.25992e-08
-8.26167e-09
3.93504e-09
-7.4096e-09
1.50886e-09
5.91951e-09
-9.99715e-09
2.21202e-10
1.63559e-09
-1.21403e-08
1.02835e-08
1.19748e-09
-8.38585e-09
3.59104e-10
-6.17392e-09
-6.56747e-10
-3.82869e-09
-5.80318e-09
-5.13867e-09
3.97292e-10
-5.83742e-09
1.05788e-08
-2.18986e-09
-8.65571e-09
5.70692e-09
-9.27035e-09
-1.06561e-08
2.03238e-08
-1.47362e-08
3.27607e-09
3.59136e-09
-8.46244e-09
-9.66327e-10
-8.47749e-09
1.23982e-08
1.77772e-09
-4.13849e-10
6.57439e-09
-1.36391e-08
-7.53517e-09
8.50446e-10
-4.11934e-09
-2.95633e-09
7.3409e-09
9.60308e-10
1.22874e-08
3.28088e-09
-1.65285e-08
-1.15123e-08
9.27214e-09
3.20051e-09
3.28056e-11
-1.37362e-08
2.19112e-09
1.26947e-08
1.47507e-09
-1.08809e-08
-3.28877e-09
1.14613e-08
1.35208e-08
-1.45421e-08
-1.54631e-09
3.62142e-09
1.2467e-08
2.93799e-09
-1.74472e-08
2.07541e-09
2.15448e-08
-2.06821e-08
1.46178e-08
-1.10673e-08
5.99649e-09
1.72936e-09
2.96967e-10
7.92483e-09
1.3323e-08
-5.58835e-09
-4.64329e-09
1.45513e-08
-4.31961e-09
-6.11296e-09
6.52116e-09
-4.16997e-09
-8.8157e-09
8.34249e-09
1.17846e-09
6.09907e-09
-2.21037e-09
2.03099e-10
-9.75076e-09
1.1758e-08
1.47023e-08
-2.18401e-10
-1.66943e-08
2.53734e-10
-7.76041e-10
1.39074e-08
-1.33851e-08
-9.22293e-09
-1.17028e-09
1.06469e-08
-6.89321e-09
2.25462e-09
-4.58434e-09
1.27262e-08
-7.54725e-09
9.52332e-09
-2.00614e-09
7.37902e-09
-5.16977e-09
9.01977e-09
-1.12443e-08
1.91487e-10
-1.58037e-08
1.48361e-08
1.67208e-09
-1.24485e-08
1.09679e-08
-7.84427e-09
8.34607e-09
6.02711e-09
-5.54131e-09
-7.58845e-09
4.51095e-09
-8.97691e-10
-8.67719e-09
-2.87364e-09
-2.71485e-09
-7.24592e-09
1.72739e-08
5.82646e-09
-6.58182e-09
-1.65185e-08
5.40391e-09
1.1311e-09
1.07389e-08
-2.20476e-08
6.61893e-09
2.08326e-08
-1.538e-08
-8.41114e-10
1.23818e-08
-2.65754e-08
1.91165e-08
-4.92289e-09
3.22438e-08
-2.70007e-08
7.13861e-09
-2.49077e-08
-2.89672e-09
-9.6856e-09
3.749e-08
-1.33995e-08
2.07356e-08
1.20563e-08
-7.41883e-10
-2.47139e-08
1.57785e-08
-1.66824e-08
-3.18062e-09
4.48305e-09
4.83556e-09
-5.09285e-09
-2.63181e-08
-2.20588e-08
-1.06352e-10
1.83856e-08
-2.20362e-08
-1.44225e-09
7.47629e-09
1.20404e-08
1.69072e-08
4.25542e-09
-8.87618e-09
3.25845e-09
1.36231e-09
-1.04724e-08
3.94876e-09
1.0779e-08
-2.77356e-09
-7.97721e-09
1.87458e-09
4.70371e-09
-7.31156e-09
-1.65712e-10
-9.45951e-09
3.69084e-09
1.53008e-08
-3.48611e-09
2.03409e-11
-2.90414e-09
-4.42776e-09
-3.10029e-09
-4.85659e-09
-9.16529e-09
2.84769e-10
-4.40171e-09
-7.66772e-09
-2.46626e-09
-5.82722e-09
-2.85629e-09
1.11498e-08
-8.27114e-09
-7.31801e-09
1.31229e-08
-3.669e-09
-7.70244e-09
-1.38853e-09
-1.12749e-08
1.00011e-08
-8.42118e-09
-1.23957e-08
6.17867e-09
-1.34787e-08
-1.85725e-09
-2.93251e-10
-2.3546e-09
4.50512e-09
2.06481e-09
-1.56001e-09
-2.36201e-09
2.24022e-11
1.94327e-09
9.91507e-11
1.85969e-09
6.90544e-10
-4.11024e-09
1.85131e-09
2.12193e-09
-2.11352e-09
1.75585e-09
1.17846e-10
-1.97886e-10
-9.66176e-10
3.28602e-09
2.5692e-09
3.76859e-09
-5.64723e-09
6.76211e-09
-4.48613e-09
4.85514e-09
-1.28443e-09
-1.98993e-09
6.79166e-10
3.78436e-09
-2.47358e-09
-1.13975e-09
2.34652e-09
-3.19666e-09
3.81333e-09
-1.29565e-10
1.21925e-09
-4.90299e-09
2.46793e-09
4.05201e-09
-2.70661e-09
5.85132e-09
7.81236e-10
-7.56784e-10
1.8126e-09
4.79552e-09
2.95862e-09
4.9597e-09
-6.57412e-09
-7.55223e-09
8.71445e-09
5.41191e-09
-1.29282e-08
-6.2226e-10
6.97637e-09
-7.80115e-10
-1.20829e-08
1.10051e-08
1.85796e-09
9.87942e-09
-1.14377e-08
7.78215e-10
-6.32715e-09
3.27833e-09
1.19025e-08
-1.3119e-08
-5.11064e-09
-2.67339e-09
2.866e-10
1.42893e-08
-6.12678e-10
2.68025e-09
-1.35053e-08
-1.52002e-08
2.50461e-09
-2.32722e-10
3.6856e-09
1.2625e-09
-1.17013e-08
1.68104e-08
-1.62954e-08
-3.18832e-09
-8.42565e-09
1.79966e-08
7.23941e-09
-1.19947e-08
-3.03823e-09
3.76305e-09
-1.24214e-08
1.5381e-08
-2.46113e-09
-7.47936e-10
-1.21719e-08
-3.26523e-09
1.43483e-08
4.29798e-09
1.06267e-08
-1.17619e-09
-1.19117e-08
-1.3355e-08
8.15299e-09
1.9368e-09
1.03029e-08
-1.30312e-08
-1.35596e-08
8.14774e-09
1.97601e-08
1.71754e-08
-2.84455e-09
-1.50788e-08
9.51842e-09
-5.90266e-09
1.06569e-08
-1.46777e-08
-1.31013e-08
8.97449e-09
1.22798e-08
-2.87727e-09
7.88703e-11
-3.55896e-09
1.27611e-08
-1.0544e-09
2.51072e-09
2.90482e-09
-8.8286e-09
3.10598e-09
1.5241e-08
-1.11684e-08
-7.25092e-09
9.59071e-09
-3.38874e-09
1.9886e-08
3.33322e-09
-1.36634e-08
-9.55581e-09
1.26482e-08
1.69678e-08
-9.73002e-09
4.70207e-09
-2.47895e-08
1.86586e-08
1.42882e-09
4.27571e-09
-1.83009e-08
1.87273e-08
1.46951e-08
-2.99242e-09
-7.42699e-09
-8.61193e-09
-5.88484e-09
1.783e-08
-7.35834e-09
-1.20026e-08
1.0601e-09
-8.98592e-09
-2.31619e-08
-1.90558e-08
1.13089e-08
1.54812e-08
-7.73424e-09
8.00998e-09
-5.22602e-09
-1.64473e-08
-1.99051e-09
-1.04093e-08
2.04098e-08
-1.22845e-08
-8.76184e-09
1.53275e-08
-2.38305e-08
3.277e-09
-5.28708e-09
1.03787e-08
-1.70722e-08
8.62959e-09
-1.93607e-09
-1.45393e-08
1.53166e-08
9.60134e-09
-1.21848e-08
1.37503e-09
-3.72957e-09
-9.01384e-09
-2.02432e-08
3.14382e-09
2.95695e-09
6.12298e-09
-1.22237e-08
8.68009e-09
3.73643e-09
-9.27269e-09
1.73667e-09
1.40496e-08
-9.83435e-09
-5.95194e-09
1.43535e-08
-3.93672e-09
1.27279e-08
-1.12343e-08
-1.72534e-09
2.31766e-10
5.92575e-09
-4.94379e-09
1.17459e-08
7.68128e-09
-1.32648e-08
1.70904e-09
3.87445e-09
1.08473e-09
1.25223e-08
-2.56256e-09
3.34741e-09
5.56591e-10
6.35301e-09
-1.97161e-09
4.24818e-09
6.08841e-09
1.55812e-08
-9.28339e-09
1.64565e-08
-1.41562e-08
1.2671e-09
-7.324e-09
1.1888e-08
-6.8845e-09
-9.77221e-09
-3.00894e-09
-1.34836e-08
1.20858e-08
-1.92314e-09
5.1704e-09
-3.59287e-10
-5.55185e-09
-3.50803e-09
-2.13422e-09
-1.28179e-09
-8.53198e-09
-4.22265e-09
3.41452e-09
-4.58533e-09
3.38531e-09
-2.2145e-09
-1.69685e-09
8.88701e-10
-1.04456e-09
4.6009e-09
-7.70806e-10
-2.78556e-09
-1.83709e-09
-3.79278e-09
-9.18553e-09
7.18633e-09
-3.85982e-09
-1.28682e-09
6.58596e-10
-2.61629e-09
-3.95766e-09
-2.36879e-09
-8.63333e-09
6.02638e-09
-1.02322e-08
-7.01897e-09
-4.14095e-08
3.18776e-08
-1.37824e-08
2.33143e-08
-3.00446e-09
-1.62122e-08
-2.21928e-08
1.20555e-08
1.36506e-08
6.17155e-09
-2.57193e-08
2.16031e-08
1.61716e-08
-1.22982e-08
-1.64256e-08
2.45783e-08
1.19755e-08
-9.50924e-09
-2.70447e-08
1.72683e-08
2.2151e-09
5.09494e-09
-3.9379e-08
3.10286e-08
2.56187e-08
3.58255e-09
-3.0986e-08
-3.2805e-08
1.64933e-08
2.52924e-09
-1.28622e-08
-3.61551e-08
-1.54188e-08
2.41569e-08
4.91247e-09
-1.44916e-08
4.40847e-09
-2.23614e-09
-2.17647e-08
-1.70793e-08
3.45683e-08
1.35396e-08
-9.04981e-09
4.52119e-09
2.91917e-08
-2.46631e-08
-1.41588e-08
1.52334e-08
-2.41481e-08
1.51303e-08
-3.01315e-08
-2.07813e-09
-5.57012e-09
3.69347e-09
8.21908e-09
-6.34245e-09
8.57818e-11
9.09901e-09
-1.47549e-08
-6.81715e-09
-3.2256e-09
-1.8034e-08
1.13027e-08
1.56547e-09
-2.49417e-09
1.00277e-08
1.01988e-08
-4.1424e-10
-9.54676e-10
1.49317e-08
-1.03556e-08
-5.88247e-09
6.65716e-09
9.46188e-09
3.93745e-09
-3.43815e-09
-8.70977e-09
-8.21447e-09
2.03624e-08
8.52582e-09
-4.94641e-09
-6.84003e-09
-1.96566e-09
2.83203e-09
5.97363e-09
-1.14121e-09
-5.48575e-09
-2.13066e-10
-5.75043e-09
-5.43433e-09
6.78224e-09
4.40251e-09
-6.52035e-09
-3.71298e-10
7.25596e-09
-7.80664e-09
-5.96967e-09
1.00471e-09
8.16918e-10
-8.05053e-09
5.02437e-09
1.0605e-09
-8.06765e-09
-5.46864e-09
1.11066e-09
8.50359e-09
-3.75948e-10
3.62014e-10
-7.7927e-09
2.93212e-09
-1.13307e-08
1.30243e-08
-4.6257e-09
-8.51072e-09
1.25535e-08
9.23305e-09
-6.03388e-11
-9.54866e-09
8.28402e-09
1.95375e-09
-2.26572e-10
3.58388e-10
1.16005e-08
-1.17323e-08
1.20811e-08
-1.2368e-08
-7.34724e-09
-2.14868e-09
1.27103e-08
1.5195e-09
-1.1809e-09
1.06327e-08
1.49313e-09
-1.13571e-10
1.26642e-09
-7.91005e-09
-5.41868e-09
5.22072e-09
8.10798e-09
-8.59074e-09
3.60987e-10
3.19629e-10
-1.53043e-08
1.8648e-09
8.02081e-09
-4.27163e-09
-6.99376e-09
-4.03889e-09
2.23026e-08
-1.36824e-08
-6.96014e-09
-1.66006e-09
1.43149e-08
9.85251e-09
-7.44777e-09
-5.41461e-09
7.53817e-09
-7.68258e-09
5.05338e-10
-1.08896e-08
-9.78648e-09
1.40784e-08
-1.23253e-08
-8.71325e-09
8.9062e-09
5.32066e-09
-1.48476e-10
-7.52925e-09
2.6694e-09
1.00804e-08
-6.22281e-10
6.31135e-10
-6.00022e-09
2.50441e-09
-4.18679e-09
-3.00195e-09
-1.0446e-08
6.62017e-09
-2.05118e-08
4.93113e-09
-1.06363e-08
-7.5943e-09
1.54435e-09
1.21623e-08
-6.11245e-09
-2.41089e-09
3.72279e-09
-5.02022e-09
9.23391e-09
-5.69894e-09
5.641e-11
-9.5412e-09
1.43137e-09
-2.10567e-09
-5.27992e-09
3.80107e-09
-3.56162e-09
5.04045e-09
9.29196e-09
-4.04601e-09
-7.04307e-09
1.79712e-09
2.15697e-09
3.56901e-09
3.56598e-09
-7.50366e-09
-2.20928e-09
5.66693e-09
-7.56431e-09
2.56116e-10
1.29385e-08
-5.63028e-09
-3.33881e-09
-9.02374e-09
4.79824e-09
3.59776e-09
-1.24423e-08
5.50576e-09
7.81398e-09
-1.79231e-08
1.37069e-08
-4.37308e-09
3.92452e-09
-8.57521e-09
-5.93597e-09
1.40061e-08
-6.58528e-09
3.03475e-09
-5.18355e-09
8.73407e-09
4.27182e-10
-1.22924e-08
-1.49324e-08
-6.68139e-09
3.6907e-09
-1.37188e-08
-1.36559e-08
-2.09503e-09
-1.5756e-09
-3.37242e-09
-5.79763e-09
1.02279e-08
-7.82315e-09
-5.86063e-09
3.45587e-09
6.44889e-09
-6.48303e-09
-4.20105e-09
6.49178e-09
-1.25476e-08
-1.36048e-08
-8.997e-10
4.73068e-09
-1.18437e-08
-2.70555e-09
-2.26017e-10
-5.88093e-09
6.29304e-09
-1.86072e-10
-4.71602e-09
4.89989e-09
-4.09876e-10
-1.245e-09
1.87984e-09
-6.51577e-09
5.01735e-10
-6.46275e-09
-1.63348e-09
4.04205e-09
2.49133e-09
-3.17424e-09
1.33196e-09
2.088e-10
7.06684e-09
-3.30241e-10
-4.43538e-10
1.91328e-09
-9.10602e-09
9.07258e-09
-1.13249e-09
-6.37232e-09
-3.1318e-09
1.06366e-08
9.97641e-09
1.23903e-09
-3.91153e-09
-2.02833e-09
3.76848e-09
-2.06058e-09
3.20423e-10
3.82817e-09
4.2989e-10
-3.01903e-09
-8.3884e-09
-9.06201e-09
1.10781e-08
-2.96851e-08
4.87065e-09
1.2605e-08
1.22094e-08
-1.67078e-08
-6.77686e-09
2.93119e-08
-5.82732e-09
-1.86774e-09
-2.34063e-09
-2.54767e-08
1.96119e-08
-2.95479e-09
-1.85248e-08
1.22282e-08
1.22543e-08
-1.81309e-08
1.40281e-08
-1.28852e-08
1.83178e-08
8.47122e-09
-8.92242e-09
-2.50356e-09
-6.89294e-09
-1.373e-09
-7.32812e-09
1.55941e-08
-1.74018e-08
7.45643e-09
1.39377e-08
-1.07127e-08
-1.06813e-08
1.97147e-08
-3.78703e-09
6.19706e-09
-5.02141e-09
1.28525e-08
-1.04402e-08
-5.87867e-09
2.2516e-08
-3.10228e-09
8.97326e-09
8.06668e-09
9.94024e-09
6.67215e-09
1.17282e-08
-6.5566e-09
9.65118e-09
1.84928e-09
-1.34273e-08
5.51111e-09
2.11217e-09
-1.0693e-08
3.06972e-09
8.8874e-09
-7.5978e-09
4.22151e-09
-9.57025e-09
-6.53337e-10
6.52192e-09
3.7016e-09
8.01978e-09
-1.54779e-08
-2.21483e-10
-2.85861e-10
8.84969e-09
-8.34234e-09
-1.39527e-08
1.49422e-08
-1.21098e-09
2.72313e-09
-1.0786e-08
-5.8898e-09
7.07435e-10
-5.6105e-10
8.74101e-09
-1.79507e-08
7.60398e-09
9.69343e-09
-1.64286e-09
1.44837e-08
2.10128e-09
1.97721e-08
4.68002e-09
-1.64324e-08
1.5263e-08
1.1031e-08
2.01943e-08
-1.27912e-08
2.13037e-09
1.64211e-08
1.21267e-09
-2.46478e-09
1.16014e-08
-1.03493e-08
8.69471e-09
-5.083e-10
-6.97375e-09
1.49286e-08
-1.5374e-08
-2.42094e-09
9.06413e-09
8.73079e-09
-5.61662e-09
-1.19098e-09
-8.56644e-09
9.75775e-09
-1.02513e-08
-5.12304e-09
-2.59038e-09
9.1434e-09
3.20469e-09
1.22904e-08
7.68239e-09
-6.43025e-09
-1.35426e-08
3.89171e-09
5.80826e-09
6.43242e-09
-9.51629e-11
1.34511e-09
8.68605e-09
-1.50813e-09
-5.54684e-09
-1.6311e-09
2.05047e-09
4.21463e-09
-4.35397e-09
-1.01854e-08
4.28805e-09
3.45461e-09
1.47529e-08
1.51526e-09
-1.22995e-08
5.53514e-09
-4.05028e-10
1.30229e-09
3.62435e-09
7.65515e-09
-5.74437e-09
-4.34357e-09
2.98176e-09
9.56768e-10
3.52184e-09
-6.35016e-09
-4.07494e-09
2.96327e-09
2.56313e-09
-4.24475e-09
5.20345e-09
-5.14904e-09
7.204e-10
3.53696e-10
-4.09404e-09
4.66392e-09
-4.27772e-09
3.34203e-10
9.00234e-09
-1.02172e-10
-1.32614e-08
7.02117e-09
5.53503e-09
-1.1439e-08
5.80181e-09
-6.84602e-09
2.20425e-08
7.07612e-09
3.44127e-09
2.89969e-08
-6.4556e-09
-1.02844e-08
1.25938e-08
-7.19354e-09
-3.91898e-09
-3.26488e-10
-2.74113e-09
1.85518e-08
-5.80127e-09
-1.00094e-08
-7.65746e-09
-1.50262e-08
-9.29719e-09
-2.01645e-09
7.82085e-09
3.88495e-09
-9.96924e-09
7.50574e-09
-7.02133e-09
-7.49809e-09
1.25802e-09
-9.47552e-09
-4.73934e-09
-1.15332e-08
-2.355e-09
5.15252e-09
6.2594e-09
-1.90693e-08
-1.21819e-08
-1.37608e-08
-3.03447e-09
-1.69769e-08
-2.83492e-09
6.30464e-09
-2.00746e-08
1.66049e-08
2.06188e-09
-1.19974e-08
7.10059e-09
-4.23764e-09
-3.60835e-09
-1.79784e-08
2.58244e-08
8.67804e-09
-1.08538e-08
-1.84766e-08
2.11729e-08
-1.0372e-08
2.18073e-08
-6.53295e-09
-4.90238e-09
-1.24199e-08
6.06364e-09
1.63519e-09
4.72103e-09
-1.40985e-08
-8.69332e-09
2.418e-09
3.68614e-09
1.57031e-08
2.11451e-09
-2.39655e-08
1.77641e-09
-1.19986e-08
-1.28203e-08
6.84041e-09
-2.0084e-08
3.72183e-09
1.17036e-08
1.43454e-08
-2.16742e-08
-4.37484e-09
1.41637e-08
-8.99308e-09
4.58313e-09
3.62432e-09
-1.63629e-08
-1.12269e-08
-2.30943e-09
-2.08014e-08
-1.21029e-08
-3.42969e-09
-3.02629e-09
-8.19334e-09
-1.15993e-08
-1.86957e-09
-2.07386e-09
8.74698e-09
-4.80354e-09
-6.28914e-09
-5.2843e-09
9.70384e-09
-5.71056e-09
3.87725e-09
-4.45585e-09
-5.90555e-09
9.29929e-09
4.21531e-09
-1.58314e-08
-6.68567e-09
8.73947e-09
1.82342e-09
7.70169e-09
-1.01721e-08
4.67202e-09
-3.12726e-09
-1.37631e-08
1.22183e-08
-2.47597e-10
-1.21462e-08
1.70658e-08
4.08637e-09
-1.76421e-09
6.41729e-09
-1.50901e-09
1.20236e-08
-1.21532e-09
9.0759e-09
-2.88323e-09
3.67937e-09
-7.73416e-09
9.27564e-10
-8.02515e-09
1.126e-08
-3.48249e-09
-8.75663e-09
-8.43328e-09
3.42681e-09
-8.87925e-09
-4.03794e-09
8.76859e-09
-1.05127e-09
-6.46359e-09
5.13712e-09
-2.76689e-08
-5.84501e-09
2.64304e-08
-1.14337e-08
-1.04182e-08
-5.81697e-09
2.28269e-08
-2.00904e-08
-1.41702e-08
1.27514e-11
1.69691e-08
-1.91805e-08
1.4323e-08
4.87025e-09
-1.51421e-08
-1.33682e-08
1.46682e-08
5.99459e-09
-6.1845e-09
-1.44783e-08
-4.23485e-09
2.01944e-09
-1.35178e-08
-8.59202e-09
-1.19298e-08
-5.23116e-09
1.62253e-08
5.08805e-10
-1.07395e-08
7.74039e-09
4.2501e-09
1.18943e-09
5.78255e-09
-1.81109e-08
3.13624e-09
-9.28353e-09
1.00454e-08
-6.4003e-09
6.19424e-09
1.15915e-08
7.92047e-11
-2.02276e-08
3.00688e-08
-9.92034e-09
-1.79986e-08
2.6652e-08
-8.57429e-09
1.05107e-08
2.29012e-09
-1.2275e-09
-1.15733e-08
5.11611e-09
9.65831e-09
-4.26372e-09
2.06951e-09
-2.41061e-09
-1.76574e-08
-1.41369e-09
-1.67444e-08
1.10986e-08
-1.02222e-08
1.64316e-08
-2.16855e-10
1.82738e-08
9.15571e-09
2.63931e-09
2.64803e-08
7.6976e-11
9.47489e-11
2.96753e-08
1.275e-08
-1.63881e-08
-1.46454e-08
-5.37411e-09
1.20207e-08
7.99887e-09
1.0638e-08
4.23576e-09
1.02812e-09
-1.26211e-08
7.09917e-09
-7.42992e-11
1.20593e-08
1.83476e-09
5.17362e-09
-1.36313e-09
5.32122e-09
4.92063e-09
9.72144e-10
2.80982e-09
-8.70261e-09
7.12759e-09
4.11286e-09
-9.68143e-09
-1.55903e-09
1.78391e-09
3.70336e-09
-5.66695e-10
4.23e-09
-2.97442e-09
5.283e-10
-1.79103e-09
-6.44226e-09
8.8763e-10
7.34566e-09
3.14961e-09
-7.10729e-10
1.26426e-08
6.79586e-10
-7.28016e-09
-6.04201e-09
1.06814e-08
9.08876e-09
2.36631e-09
-9.01627e-10
-4.43915e-09
1.37395e-09
5.26288e-09
-8.12443e-09
-7.94635e-09
1.08078e-08
5.8633e-11
7.57047e-09
1.36856e-08
-2.11657e-09
-3.90601e-09
-3.53882e-09
6.23133e-09
6.45893e-09
-6.30438e-10
-1.20599e-08
-1.61996e-08
8.45646e-12
5.5548e-09
6.12651e-09
-1.60948e-08
-9.77929e-09
5.8846e-09
3.90312e-09
-3.41585e-09
9.54749e-11
-3.84682e-09
-5.82302e-09
5.35102e-09
4.31869e-09
3.34514e-09
-7.82242e-09
-1.8563e-09
-1.2529e-08
3.23274e-09
-8.98271e-09
-4.69608e-09
5.40723e-10
-1.49492e-09
-7.49387e-09
7.57139e-09
-3.79249e-09
-4.36188e-09
-3.07032e-09
-8.97752e-12
7.44119e-09
-5.85219e-09
1.07636e-12
1.48926e-09
-4.99641e-09
-2.39294e-09
2.94004e-09
4.44931e-09
-4.02472e-09
-1.37382e-09
4.02145e-10
1.07039e-08
-3.53538e-09
-1.1857e-09
-5.98276e-09
1.28085e-09
7.03007e-09
-4.8753e-09
4.74503e-09
1.89939e-09
-5.8619e-09
-1.88966e-09
-3.04842e-09
7.25077e-11
6.44634e-09
-8.86517e-09
2.41993e-09
-4.83749e-09
-1.04758e-08
8.74245e-09
-7.13184e-09
-5.49437e-10
-3.88164e-09
-6.04471e-09
-4.17308e-09
-3.38701e-09
-4.60856e-09
1.86319e-10
-5.11286e-09
8.77397e-09
-8.4986e-09
-1.42479e-08
1.04159e-08
-6.16424e-09
-9.26933e-09
-3.9575e-09
-6.29129e-10
-1.19411e-08
6.40602e-09
-3.9869e-09
-2.42443e-09
-1.07886e-09
-2.7049e-09
-3.4779e-09
7.26169e-09
-2.02264e-09
2.96478e-09
-2.02098e-09
1.33057e-09
-7.07018e-09
2.82524e-09
2.91438e-09
5.05508e-09
-6.4294e-09
-8.32219e-10
-4.0628e-09
1.41714e-09
-2.80554e-09
-4.93061e-11
-4.61778e-09
8.68919e-10
-3.13913e-10
2.66243e-09
2.4732e-09
-8.55658e-09
3.42096e-09
2.55944e-09
-4.51478e-09
2.99294e-09
3.2092e-09
-3.72894e-09
2.8922e-10
2.82103e-09
-1.17312e-10
2.18681e-09
9.94394e-09
-3.91472e-09
-8.21602e-09
-1.67417e-09
4.31259e-11
1.2038e-09
1.48229e-08
-1.24018e-09
1.32241e-08
7.00897e-11
5.75954e-09
1.47107e-09
7.59234e-09
1.26863e-08
6.29725e-09
2.48654e-10
1.00124e-08
5.05084e-09
1.82491e-08
8.99104e-09
1.02262e-08
1.3053e-08
2.46534e-08
7.58867e-09
8.75511e-09
1.95237e-08
1.11795e-09
-1.04341e-08
1.88366e-09
1.04354e-08
-1.88497e-09
-4.7667e-09
9.18085e-09
-1.48482e-08
4.71319e-09
-1.60539e-08
6.57398e-09
9.42351e-09
-3.01576e-10
-7.23827e-09
-7.71524e-09
6.11285e-09
-4.77648e-09
6.37885e-09
-5.11574e-09
1.0432e-08
5.11919e-09
-1.7487e-09
5.8138e-09
6.17969e-09
-9.18173e-09
8.42443e-09
-1.67022e-09
-3.52154e-10
-6.40206e-09
6.77645e-09
1.10715e-08
-5.10009e-09
2.24188e-09
8.97105e-09
1.8478e-09
6.27955e-09
2.30461e-09
7.69917e-09
9.25081e-10
-5.90613e-10
-4.45493e-09
-6.77283e-09
6.37439e-09
4.85335e-09
-3.72452e-09
-3.94864e-09
3.21822e-09
-5.29654e-10
-9.9677e-09
-9.78622e-10
-5.62869e-09
5.61115e-09
9.9617e-10
4.63731e-09
-5.72406e-09
1.08125e-10
-3.62899e-09
-1.59682e-09
1.96625e-09
3.25954e-09
1.04839e-09
-4.00743e-11
2.51841e-09
-8.67677e-09
3.01467e-09
-6.22033e-09
4.37023e-10
3.57731e-09
-1.86801e-09
-3.99163e-10
8.72234e-09
-6.45518e-09
4.9434e-09
-5.64832e-09
7.21541e-09
-5.60027e-09
1.00034e-09
-3.08822e-09
5.02617e-10
4.18231e-09
-7.94169e-09
-1.8933e-08
1.69437e-08
-1.10822e-08
-1.67907e-09
5.38237e-09
-9.24034e-11
1.0831e-08
-9.80397e-09
-1.21093e-08
7.12436e-09
6.10764e-09
-2.40096e-09
1.25941e-09
1.22313e-08
1.38225e-08
-2.38285e-08
-2.22534e-09
2.12893e-08
-4.42681e-09
-4.63115e-09
1.38004e-08
-1.25906e-08
-1.76088e-08
2.29813e-09
-2.90626e-10
-6.22229e-09
1.27098e-08
-1.64961e-08
-1.1378e-08
-1.10056e-09
2.39972e-09
-4.27033e-09
2.97119e-09
1.9774e-09
2.06684e-09
-5.14475e-09
1.82701e-09
4.97092e-09
-4.82053e-09
-2.23402e-09
6.46074e-09
-4.48051e-09
-1.8105e-10
3.91227e-10
-3.57197e-09
1.93896e-10
-1.10241e-09
-3.74727e-10
-1.13837e-09
-2.05889e-09
-2.01948e-09
-3.42938e-09
5.07412e-09
8.4075e-09
-9.17359e-09
5.85014e-10
-8.70335e-09
1.48768e-08
-6.38813e-09
-2.34599e-09
1.55106e-09
7.18302e-09
1.93443e-09
4.47134e-10
-8.76972e-09
-2.43105e-09
-3.05506e-09
-5.32445e-09
-7.94082e-10
1.22577e-08
-8.48911e-09
-6.82364e-09
4.95683e-09
-1.40248e-09
-2.6205e-09
-3.84232e-09
-1.06625e-08
4.93032e-09
-1.0714e-09
9.39187e-10
3.31803e-09
1.68094e-09
-6.86325e-11
4.71697e-09
-2.67436e-10
8.21617e-09
-1.1515e-09
-2.34766e-09
1.85557e-09
8.54395e-09
-2.18332e-09
5.19782e-09
-2.42076e-11
1.15939e-08
-1.63822e-08
-2.47723e-09
7.26558e-09
-1.33432e-09
1.35195e-08
-5.91207e-10
-3.16431e-10
5.96571e-09
1.22916e-09
5.85872e-09
-7.35528e-09
7.03057e-09
-6.11783e-09
9.18116e-09
-4.47392e-09
9.74315e-09
-4.90692e-09
4.34497e-09
-1.46771e-09
9.29178e-09
1.9191e-09
1.32026e-10
7.61461e-10
4.30434e-09
7.20828e-09
6.81061e-10
-1.19055e-08
-5.15782e-09
-8.7393e-09
1.68833e-09
4.57379e-09
-9.14581e-09
-1.57012e-09
9.38163e-09
-5.97746e-09
-2.48729e-09
3.41122e-09
-3.42296e-09
4.97966e-09
1.125e-10
-1.36142e-08
4.171e-09
-2.65659e-08
-1.82113e-08
3.77763e-08
7.00085e-09
-2.63505e-08
2.0037e-08
-2.02524e-08
1.18452e-08
9.94032e-09
-3.38884e-08
1.69511e-08
-3.14564e-08
6.89313e-09
-8.15335e-09
2.51915e-08
-1.43268e-09
2.59507e-08
-1.06973e-08
-8.41304e-09
8.54392e-09
-2.96196e-10
1.7703e-08
1.29392e-08
-1.36961e-08
1.2322e-08
2.07069e-08
4.74738e-09
2.14239e-08
1.60897e-08
-2.12695e-08
5.78811e-09
-5.57966e-09
2.10611e-08
-1.40867e-08
1.36112e-09
-1.30111e-09
3.26516e-08
-2.55623e-08
2.37747e-08
-3.94242e-09
-5.99651e-09
5.68482e-09
2.17355e-08
-9.56608e-10
1.5667e-08
2.35973e-08
-1.39093e-08
1.7061e-08
2.55566e-08
-7.2688e-09
-6.38623e-09
1.24832e-08
1.17184e-09
-6.80626e-09
-5.25828e-09
6.22077e-09
5.84377e-09
-1.81801e-09
7.35432e-09
-1.24423e-08
6.90602e-09
4.54182e-09
-9.06449e-09
2.70465e-09
3.3617e-09
3.14606e-09
-1.3314e-08
-9.439e-09
5.53189e-09
-2.61891e-09
9.02961e-09
9.43616e-10
3.11176e-09
-1.18887e-09
-3.58024e-09
-5.88953e-09
3.07655e-11
4.49212e-09
-4.2855e-09
-9.27112e-09
-1.00673e-08
2.11707e-09
7.40592e-09
6.86053e-10
-1.33503e-08
5.25486e-09
-3.43093e-12
-1.45348e-08
9.28337e-09
-1.08259e-08
1.34367e-08
2.6441e-09
7.66997e-09
-1.13515e-08
-1.16343e-08
7.3454e-09
8.99982e-09
1.08732e-08
-1.01504e-08
-9.72254e-09
1.19406e-08
6.8114e-10
-3.62193e-09
5.2711e-09
-6.705e-09
1.15371e-08
-1.01032e-08
-7.63223e-09
1.79321e-08
-5.02884e-09
8.62672e-09
3.57708e-09
-1.08122e-08
1.18067e-08
7.26029e-09
2.76932e-09
8.43578e-10
9.05224e-09
1.01486e-08
7.78028e-09
-6.76866e-09
1.13396e-08
-1.80165e-09
1.24043e-08
-1.13926e-08
-2.22992e-09
7.9082e-09
1.22539e-08
-1.3866e-08
-9.09608e-09
1.60691e-08
4.22344e-09
1.8965e-08
-1.16514e-08
2.83815e-08
-1.17537e-08
7.41179e-09
-9.91958e-10
2.19617e-08
3.39646e-09
1.5355e-08
4.10708e-09
-1.56078e-09
1.40095e-08
1.50744e-08
-4.68717e-09
-1.19481e-08
8.87786e-09
5.52852e-10
2.80183e-09
1.07721e-08
2.56472e-09
-1.40515e-08
1.89955e-08
-3.0354e-09
-1.90859e-09
2.61903e-09
1.05748e-08
-1.34399e-08
2.46033e-10
-1.56546e-08
4.22221e-09
-5.43825e-09
1.7242e-08
-1.22889e-09
-7.36929e-09
2.09265e-08
1.36786e-08
-1.16122e-08
-5.10183e-09
-8.8922e-09
4.96829e-10
-5.0445e-09
-5.38158e-09
-1.91652e-08
5.78949e-09
5.19837e-10
1.56464e-08
5.04007e-09
-1.38605e-08
-6.82594e-09
8.06418e-09
4.7031e-09
2.8791e-09
-8.74084e-09
8.73656e-09
8.06847e-09
-3.20395e-09
-1.92903e-08
2.29656e-09
5.76684e-09
8.73157e-09
-9.7953e-09
-4.15374e-09
-2.17855e-09
-1.14174e-09
7.4741e-09
-8.76261e-09
-1.1576e-08
1.61849e-08
3.07954e-09
1.19549e-09
1.34556e-09
-5.62051e-09
-8.24873e-09
6.13963e-09
7.69364e-09
-5.58448e-09
2.4629e-09
8.31095e-09
1.9891e-09
-1.27629e-08
7.17523e-09
-6.40893e-09
1.69662e-09
1.61563e-09
-3.20299e-09
1.02132e-08
-2.37519e-09
5.0452e-09
3.55124e-09
-6.22123e-09
8.13577e-10
-5.36726e-09
5.87663e-09
1.79636e-09
-2.62777e-09
-1.84335e-09
9.81907e-09
-1.31932e-09
-6.65632e-09
2.67069e-09
3.43586e-09
-6.08109e-09
-2.54346e-11
7.45668e-09
-8.81094e-09
3.34336e-09
4.41468e-09
6.94387e-09
-3.90186e-09
6.88749e-09
1.97894e-10
-5.30434e-11
1.52345e-09
5.47348e-09
1.91142e-09
9.45159e-09
-9.13001e-10
1.31481e-09
-9.85339e-09
9.19463e-09
1.0077e-08
-9.81999e-09
1.39573e-08
-9.23013e-09
-9.62956e-09
5.32675e-09
1.23167e-08
-9.54398e-09
-1.89543e-09
1.12683e-08
1.71094e-10
-8.3837e-09
-1.03904e-08
9.98777e-09
2.9317e-09
-3.50828e-09
-9.4112e-09
1.00951e-10
7.99139e-09
-1.56021e-09
-3.83198e-09
1.45868e-08
-1.40646e-10
-7.31139e-09
1.03837e-08
-1.10375e-08
1.40604e-08
-1.25932e-08
6.42783e-10
1.27631e-08
3.97911e-10
-1.22899e-08
-3.67422e-09
-9.05967e-09
-1.22694e-08
-1.98825e-09
-5.43166e-09
5.37849e-09
2.04142e-09
-3.46957e-09
1.63817e-09
-1.56844e-10
1.89225e-09
2.18339e-09
-6.78118e-09
3.12304e-09
-4.60321e-09
4.75077e-09
-6.03696e-09
2.76913e-09
-3.45003e-09
-1.56488e-09
3.29765e-09
-9.45899e-11
1.84373e-09
-2.85564e-10
-3.70569e-09
2.82949e-09
4.44521e-09
-6.48491e-11
5.53526e-09
-1.02688e-09
-9.81329e-09
5.3049e-09
9.97102e-10
1.09871e-08
-2.41842e-09
2.3971e-09
3.31896e-09
1.93319e-09
-3.5883e-09
6.22369e-09
8.33125e-09
-9.61687e-10
-5.21041e-09
-2.15915e-09
2.29249e-09
5.00171e-10
5.5386e-09
1.02611e-09
1.19128e-08
-4.12765e-09
2.36026e-09
3.93544e-09
-4.00321e-09
3.20899e-09
1.4172e-11
-3.33044e-09
1.07284e-10
-4.16836e-09
2.09088e-09
4.43774e-09
-1.09671e-09
1.37352e-10
-9.71265e-09
6.95624e-09
3.25659e-09
-3.34881e-09
-7.32552e-09
-6.20373e-09
9.32073e-09
-1.13954e-09
-6.1609e-09
-8.746e-09
-2.98216e-10
-7.45558e-10
-7.90146e-09
8.31676e-09
-1.09492e-08
-5.16234e-10
1.07199e-08
7.08645e-09
1.85093e-09
-1.98866e-08
-8.50685e-09
7.69184e-09
4.32967e-10
-1.30645e-08
1.21153e-08
-6.04523e-09
-7.49917e-09
5.43051e-10
-2.14988e-09
-1.52754e-08
7.26921e-10
7.04935e-09
-1.19785e-08
1.21483e-08
1.23964e-10
-2.93703e-10
8.17619e-09
-6.35942e-09
-9.17651e-09
7.35975e-09
-5.16719e-10
-8.98336e-09
-1.23444e-08
8.26326e-09
-1.875e-09
7.92126e-11
-1.01827e-08
-1.53711e-08
-1.77927e-09
-1.39096e-09
-2.93242e-09
3.13274e-09
3.19609e-09
-3.39644e-09
5.78926e-09
2.49582e-09
-1.12175e-08
-3.89069e-09
7.26348e-09
-2.40088e-10
-6.20705e-09
8.10557e-09
6.98644e-09
-7.69559e-09
3.20495e-09
-4.24589e-09
-3.99357e-09
-3.93633e-09
1.21757e-08
-5.43013e-09
-5.95137e-09
7.13554e-09
5.58738e-09
-1.05021e-09
-9.96737e-09
-7.1186e-09
8.71239e-09
-5.31717e-09
-4.64865e-09
6.02946e-09
9.96104e-10
6.82551e-10
-6.99586e-09
7.09634e-09
3.79319e-09
2.14106e-09
-1.26423e-09
1.4091e-09
6.54713e-10
-6.56761e-09
-6.09392e-09
-1.45637e-10
6.36354e-09
-8.22186e-10
-5.19252e-09
-4.08928e-09
2.69119e-09
1.48998e-09
-9.18818e-11
-1.10105e-09
4.14706e-09
-7.13528e-09
4.22337e-09
-1.05174e-08
5.19296e-09
-1.87852e-10
4.13891e-09
-4.09668e-09
1.62741e-09
-7.8331e-09
8.32314e-09
-2.11744e-09
4.21715e-09
1.01463e-10
-7.86904e-09
4.18301e-09
-1.65811e-10
4.19512e-09
-5.30349e-11
8.21037e-09
-9.91554e-09
3.9562e-09
1.26809e-08
-1.30277e-08
-1.79095e-08
1.04744e-08
-3.22222e-10
7.75739e-09
9.43338e-10
-9.91049e-09
-8.94235e-09
-2.00846e-08
9.34878e-09
2.12103e-08
-1.01371e-08
-9.00425e-09
1.30296e-08
-8.27529e-09
-1.46648e-08
5.35066e-09
7.35673e-09
-1.09079e-08
2.64321e-08
-6.17547e-09
-1.63429e-08
3.10233e-09
4.07014e-09
9.17036e-09
-9.12382e-09
-3.46526e-09
-3.75383e-09
2.01737e-08
-7.1442e-09
-2.21533e-08
1.22806e-08
1.09955e-08
-6.82066e-09
-1.14776e-08
-5.48013e-09
-3.91929e-09
-7.82127e-09
-2.25411e-08
-7.7021e-10
3.34292e-09
6.83385e-10
-3.25608e-09
2.14412e-09
-3.04836e-09
1.34045e-10
5.82524e-09
2.35788e-09
-7.74424e-09
-4.38822e-10
3.75624e-10
5.19597e-09
2.53665e-10
3.22306e-09
4.95491e-10
-2.98069e-09
3.76483e-09
4.41184e-09
-2.59672e-09
8.86318e-10
-1.36519e-09
3.07558e-09
-4.71949e-10
1.93382e-11
-5.3096e-10
4.64035e-09
1.08816e-08
1.85225e-09
-1.0376e-08
4.14652e-09
3.75446e-09
-1.37294e-09
4.60684e-09
2.44421e-09
-2.80819e-09
-1.0794e-10
1.58898e-09
4.25655e-09
-5.30827e-09
-5.37148e-10
2.66802e-09
4.46219e-09
-1.68856e-09
1.17084e-09
-3.11826e-09
-8.60737e-10
-1.03338e-09
3.56935e-09
1.32092e-10
-6.34594e-10
3.85792e-09
-3.02032e-10
-6.99931e-09
9.15362e-09
-4.43947e-09
1.89621e-08
-6.40039e-09
4.37185e-10
-1.29989e-08
8.45346e-10
7.25177e-09
1.0865e-08
-1.1376e-08
5.10545e-09
7.11589e-09
-5.43256e-09
-5.10498e-09
-8.38452e-10
-6.35538e-09
-5.47756e-09
-1.56692e-08
7.13867e-09
1.57823e-08
-4.91454e-09
-1.03175e-08
-1.01676e-08
1.23786e-08
-7.1256e-09
1.24274e-08
-2.40709e-09
-2.01879e-08
-1.14225e-08
9.37053e-09
-3.053e-09
-4.75259e-09
-1.30253e-08
3.90654e-09
-1.26671e-08
-1.95723e-09
1.07178e-08
-1.3571e-09
1.24023e-08
-1.78718e-08
1.75833e-08
1.54535e-10
-5.59895e-09
-1.61328e-08
7.91271e-09
1.33255e-08
-5.66663e-09
-1.09562e-09