/*--------------------------------*- C++ -*----------------------------------*\
| =========                 |                                                 |
| \\      /  F ield         | OpenFOAM: The Open Source CFD Toolbox           |
|  \\    /   O peration     | Version:  v1612+                                |
|   \\  /    A nd           | Web:      www.OpenFOAM.com                      |
|    \\/     M anipulation  |                                                 |
\*---------------------------------------------------------------------------*/
FoamFile
{
    version     2.0;
    format      ascii;
    class       surfaceScalarField;
    location    "50";
    object      phi;
}
// * * * * * * * * * * * * * * * * * * * * * * * * * * * * * * * * * * * * * //

dimensions      [0 3 -1 0 0 0 0];

internalField   nonuniform List<scalar> 
45643
(
-3.94757e-09
1.46304e-09
5.21788e-09
-2.73335e-09
2.99671e-09
-1.85335e-09
-8.75665e-10
-2.67699e-10
6.98418e-09
-7.40994e-09
3.42247e-09
-1.11403e-09
-5.49863e-09
2.66658e-09
3.94608e-09
6.47137e-09
2.01901e-09
-6.37696e-09
-2.11342e-09
-2.77139e-09
1.73954e-09
1.23267e-09
-2.00837e-10
1.13949e-09
-5.89499e-09
1.98409e-09
-2.80708e-09
4.83509e-09
3.98731e-09
-6.01533e-09
-1.28485e-09
-2.25446e-09
4.88248e-09
-1.34317e-09
-1.07125e-09
4.08569e-09
-2.66111e-09
-3.53327e-10
1.46256e-09
1.43095e-09
-2.60774e-09
-2.85753e-10
-8.35852e-09
4.18359e-09
6.51799e-09
-2.34306e-09
2.8781e-09
-5.27429e-09
-1.20757e-09
3.60376e-09
1.30413e-08
2.96043e-09
-9.15068e-09
-6.851e-09
-2.4444e-09
5.61659e-09
1.30608e-09
-4.47829e-09
1.11223e-08
-6.78881e-09
-9.62119e-09
5.28767e-09
1.51641e-08
8.7266e-09
-1.52797e-08
-8.61098e-09
-1.86528e-09
6.46281e-09
3.20856e-09
4.5187e-09
-3.42274e-09
-2.47495e-10
-8.48461e-10
-1.51411e-09
5.22827e-09
5.53417e-10
-4.26757e-09
3.81728e-09
-5.36877e-09
-6.34413e-09
-1.32489e-09
2.67604e-09
-1.54348e-09
1.92334e-10
-1.51802e-09
-7.39894e-09
6.14444e-09
2.77252e-09
3.33523e-09
5.28925e-09
-1.01425e-08
4.26641e-09
-6.27934e-11
-4.09147e-09
-1.12141e-10
2.05568e-09
4.59225e-09
-3.63903e-09
-3.0089e-09
2.50865e-09
2.81135e-09
-5.14377e-09
-1.76239e-10
4.68303e-09
5.65178e-09
-2.25276e-09
-8.08204e-09
1.29545e-08
-5.67911e-09
-1.64722e-10
-7.11062e-09
-3.8463e-09
4.59483e-09
-6.27807e-10
-1.20729e-10
5.87466e-09
-2.59971e-09
3.71632e-09
-6.99127e-09
-1.55749e-09
3.64396e-09
-2.07985e-09
-6.62229e-12
-4.66671e-09
-3.1331e-09
4.86829e-10
7.31298e-09
-2.39799e-09
-6.36136e-09
1.78081e-09
5.30875e-11
-6.27131e-09
5.22867e-09
9.89549e-10
4.04706e-09
-6.43521e-09
3.96638e-09
-1.57824e-09
3.51201e-09
-4.61894e-10
-2.98156e-09
-6.85628e-11
-2.31888e-09
-2.51034e-09
4.95669e-09
-1.27461e-10
4.02061e-09
-6.26527e-09
-7.42141e-11
-6.88736e-10
-1.6931e-09
2.48081e-09
-9.89781e-11
5.57084e-09
4.09464e-09
-1.01866e-08
5.211e-10
1.03187e-09
-2.18726e-09
1.42816e-09
-2.72794e-10
-2.28755e-10
-1.3634e-09
1.70711e-09
-1.14834e-10
2.06367e-09
3.13257e-09
-3.07298e-09
-2.12326e-09
7.74163e-09
-1.96618e-09
-5.34441e-09
-4.31044e-10
-6.12627e-09
6.53736e-09
6.09224e-09
-6.50333e-09
4.81821e-09
-2.3799e-09
-1.11859e-08
8.74758e-09
1.00847e-09
-4.40678e-09
3.36926e-09
2.90509e-11
2.41057e-09
-3.83252e-09
1.8751e-09
-4.53142e-10
-2.05215e-09
4.69338e-09
-2.30661e-10
3.98105e-09
-3.66903e-10
-3.43795e-09
-1.76196e-10
2.0247e-09
2.0265e-09
-1.1731e-09
-2.02897e-09
1.94607e-09
-3.22126e-09
3.30415e-09
-3.35062e-09
-6.04765e-09
1.06134e-08
-1.21511e-09
2.40747e-09
1.04406e-10
-2.44655e-09
-6.53047e-11
3.54164e-09
-4.98887e-09
1.78445e-09
-3.37229e-10
1.53704e-09
-2.9675e-09
2.51291e-09
-1.08247e-09
4.74687e-09
-1.4793e-09
-1.20131e-09
-2.06625e-09
3.50168e-09
2.80542e-10
-6.16415e-09
2.38193e-09
-3.38441e-09
1.47411e-09
-4.39947e-10
2.35026e-09
1.55676e-09
6.16793e-09
-7.75009e-11
-7.64719e-09
2.66582e-09
8.03868e-09
-1.47423e-09
-9.23027e-09
-6.57249e-09
4.43228e-09
-8.43503e-09
1.05753e-08
2.62586e-09
1.26096e-09
-5.60826e-09
1.72141e-09
-8.40262e-10
4.75674e-09
-1.29063e-09
-1.0173e-09
3.42318e-09
3.42258e-09
-5.82846e-09
3.09584e-09
-3.09331e-09
6.2905e-09
-6.29303e-09
3.5051e-09
-1.89263e-09
-5.71878e-09
4.10631e-09
6.08734e-09
-3.50843e-09
-3.72968e-09
1.15077e-09
5.19088e-09
-7.0262e-09
-5.85403e-09
7.68935e-09
3.08457e-09
-2.12179e-09
1.23451e-09
-2.19729e-09
-3.31464e-09
-4.87618e-09
8.29543e-09
-1.0462e-10
-2.71215e-10
5.13483e-09
2.94172e-10
-5.15779e-09
-6.82183e-09
3.98069e-09
2.97598e-09
-1.34849e-10
-2.82656e-09
-5.64681e-09
5.62187e-10
7.91118e-09
-1.12101e-08
6.92863e-09
4.66357e-09
-3.82073e-10
-4.86694e-09
-7.96443e-09
7.79265e-09
5.03873e-09
-2.53205e-09
-1.88906e-09
-8.92792e-09
-1.68114e-09
3.61491e-09
7.80512e-10
-1.29011e-10
1.79091e-09
-5.27967e-09
4.2406e-09
-7.5184e-10
9.44634e-10
2.33158e-10
2.87176e-09
-4.04955e-09
-5.31401e-09
1.11087e-08
-5.70922e-09
-8.54928e-11
-2.22481e-09
3.24212e-09
-7.1759e-09
6.1586e-09
2.03356e-09
-2.62096e-09
3.7472e-09
-3.15979e-09
1.12592e-08
5.70768e-10
-5.78577e-09
-6.04425e-09
1.25165e-09
-1.94472e-09
9.07149e-10
-2.14091e-10
-1.41252e-09
2.03453e-09
4.86413e-09
-6.61628e-09
1.06178e-08
-1.41311e-08
1.01295e-08
-8.83307e-09
9.11307e-09
7.30698e-09
-7.58698e-09
-6.37886e-09
-2.31618e-09
-1.38031e-10
-1.12802e-09
3.46453e-09
8.18792e-09
-1.05244e-08
-7.68191e-10
7.51609e-09
-3.47321e-09
-3.27469e-09
-6.96676e-09
-6.72322e-09
1.29218e-08
4.35591e-09
1.73841e-09
-6.81397e-09
7.19647e-10
-4.13494e-09
7.62309e-09
-6.74683e-09
3.25868e-09
-1.77771e-09
1.51723e-09
-4.26613e-09
4.5266e-09
-2.10575e-09
-2.34304e-09
4.41116e-09
3.76248e-11
-2.09616e-10
-2.7394e-09
8.1727e-09
-5.22368e-09
-4.7574e-09
4.42727e-09
-5.62213e-09
5.95223e-09
3.21309e-09
-1.13375e-09
-1.84493e-09
-2.34409e-10
1.27564e-09
1.32936e-09
-2.5462e-09
-5.87678e-11
4.70696e-09
-1.542e-09
-1.03106e-08
7.14567e-09
-2.99678e-09
5.78612e-09
-2.76697e-09
-2.23655e-11
-4.34244e-09
6.12658e-09
-5.8223e-09
4.03816e-09
8.0146e-11
-4.19005e-09
-2.32527e-10
4.58027e-09
3.28706e-11
-4.31878e-09
-2.94374e-10
-3.33922e-10
-2.47938e-09
2.87038e-09
-5.70971e-11
-2.12439e-09
5.38949e-11
2.21693e-09
-1.46434e-10
-3.9473e-09
-6.43626e-10
-2.07137e-10
4.79806e-09
5.40313e-09
-7.03122e-09
-3.27352e-09
4.90161e-09
1.00524e-09
-2.55297e-09
-4.15587e-09
5.70356e-09
3.8641e-10
1.93566e-09
-1.8991e-09
-4.22971e-10
-4.95282e-09
-3.15076e-09
1.96032e-09
6.14327e-09
3.8342e-10
-9.83329e-10
-6.7346e-09
7.33451e-09
1.41546e-09
-6.33933e-09
-7.1202e-10
5.6359e-09
2.91206e-09
-5.07026e-09
2.27589e-09
-1.17667e-10
4.44983e-09
-8.29171e-09
4.02032e-09
-1.78432e-10
-1.36512e-09
2.00388e-10
-1.29359e-09
2.45842e-09
3.86436e-09
-5.30326e-09
2.38354e-09
-8.4166e-10
-2.20948e-10
2.52945e-09
-1.46681e-09
-6.54192e-09
6.51315e-09
2.46055e-10
-2.17275e-10
4.51552e-09
3.01244e-09
-3.28463e-09
-4.24333e-09
6.60842e-10
-4.96325e-09
2.27345e-09
-4.93756e-09
5.39889e-09
2.76231e-09
-3.22363e-09
-1.66546e-09
3.63641e-09
-1.63528e-09
-3.35674e-10
6.20539e-09
1.1164e-09
-2.93888e-09
-4.38291e-09
-3.38683e-09
4.65641e-10
3.07743e-09
-1.56243e-10
-5.92122e-09
5.1655e-09
-1.14501e-09
1.90073e-09
4.73462e-09
-4.72546e-09
4.42212e-10
-4.51368e-10
5.05413e-09
-2.14741e-09
2.42436e-09
-5.33108e-09
-3.61589e-09
-2.10809e-09
3.42306e-09
2.30092e-09
-5.6825e-10
-8.77329e-09
6.5458e-09
2.79574e-09
9.25013e-11
-1.16498e-09
-6.52408e-09
7.59656e-09
2.56487e-09
8.39726e-10
-2.92341e-09
-4.81183e-10
-3.766e-09
2.39046e-09
3.9404e-09
-3.15379e-09
4.65301e-09
4.20526e-09
-5.70448e-09
6.40423e-09
2.03165e-09
-4.72548e-09
-3.71037e-09
5.22751e-09
-7.73871e-09
7.79297e-10
1.73192e-09
5.5841e-09
2.193e-09
-4.92251e-09
-2.85458e-09
-1.72631e-09
2.15408e-09
-4.37197e-10
9.38063e-12
2.59903e-09
3.27595e-09
-4.66155e-09
-1.21343e-09
5.74811e-09
-1.37134e-10
-5.26683e-09
-3.44147e-10
3.25008e-09
-4.58332e-10
-2.44224e-09
-3.49509e-10
-3.50293e-10
4.55438e-09
-3.91307e-09
-2.91019e-10
-3.66861e-09
-3.52165e-10
-1.05766e-10
4.12655e-09
2.41795e-09
-3.75647e-09
-3.53746e-09
4.87598e-09
1.56402e-09
2.95954e-09
-3.725e-09
-7.98556e-10
2.21292e-09
2.37404e-09
-3.73508e-09
-8.51879e-10
-1.7839e-10
2.57552e-09
-2.29404e-09
-1.03093e-10
-4.74352e-10
1.25619e-11
-5.61367e-09
6.07547e-09
-5.11765e-09
2.67772e-09
2.4987e-09
-5.87813e-11
-1.67592e-09
1.41716e-08
-3.38257e-09
9.09913e-10
1.80248e-09
-3.9571e-09
1.24471e-09
-1.42509e-09
2.89196e-09
1.21477e-09
-2.68164e-09
-1.94251e-10
4.81228e-09
-1.29332e-09
-3.32471e-09
6.10857e-09
1.88476e-09
-4.05656e-09
-3.93677e-09
7.66546e-09
-4.36706e-09
-8.74699e-09
5.44859e-09
1.88093e-09
-1.39709e-09
-3.70832e-09
-2.80263e-09
2.61119e-09
-1.5594e-09
1.75083e-09
-3.70272e-09
3.68322e-09
-4.43688e-09
4.45638e-09
7.42721e-09
-8.40489e-10
-9.04994e-09
2.46322e-09
3.43634e-09
4.63797e-10
-3.56708e-09
-3.33056e-10
3.9504e-09
-5.48231e-09
-4.72779e-09
6.2597e-09
-4.84611e-10
-4.07672e-09
7.64783e-09
-3.0865e-09
-5.56155e-09
6.85957e-09
-2.20267e-09
9.04648e-10
-3.96954e-09
-1.53829e-09
5.44249e-09
6.53558e-11
-5.67222e-09
2.07375e-09
4.27536e-09
-6.76891e-10
-7.33156e-09
-2.06635e-09
4.06775e-09
5.33012e-09
-1.21346e-09
3.39785e-09
-3.34028e-10
-1.8504e-09
4.52379e-09
6.72203e-09
-4.26164e-09
-7.87939e-09
2.87132e-09
4.06257e-09
9.45503e-10
1.66638e-09
1.02841e-09
-2.50195e-09
-1.92845e-10
4.09942e-09
-1.88662e-10
6.03927e-11
-3.97115e-09
5.85735e-09
9.19007e-09
-1.11931e-08
-3.85432e-09
1.83107e-09
5.65694e-09
-1.81038e-10
-5.66468e-09
-2.61422e-10
3.35354e-09
2.57256e-09
8.32105e-10
5.72236e-09
-5.69695e-09
-8.57508e-10
2.076e-09
-2.51023e-10
-4.42533e-09
2.60036e-09
5.50896e-09
1.76313e-09
-6.48835e-09
-7.83739e-10
-3.28456e-09
6.82675e-10
-1.63459e-09
4.23647e-09
3.0815e-09
3.32081e-09
-2.84529e-09
-3.55702e-09
7.82413e-09
4.22194e-10
-1.61467e-09
-6.63165e-09
-2.26861e-09
-2.60302e-09
5.19887e-09
-3.27246e-10
2.58261e-09
2.94511e-10
-4.92691e-09
2.04979e-09
6.04642e-09
-6.4289e-09
1.12205e-09
-7.39558e-10
-2.72334e-09
3.03594e-09
-2.22376e-10
-9.0236e-11
-1.48236e-09
4.91757e-09
1.67143e-09
-5.10664e-09
1.72607e-09
-3.65033e-09
2.16363e-09
-2.39339e-10
-1.07338e-09
4.34473e-09
-4.9189e-09
1.64757e-09
-5.74544e-09
6.41985e-09
-1.12065e-09
4.46234e-10
7.28498e-10
2.26011e-09
4.73851e-10
-3.46245e-09
1.19846e-09
3.37182e-10
3.37982e-09
-4.91546e-09
-2.57539e-09
-3.62959e-09
-9.64681e-10
7.16966e-09
2.71842e-09
-6.31492e-09
-3.67948e-09
7.27597e-09
3.53168e-09
2.0314e-09
-4.8149e-09
-7.48177e-10
2.47303e-09
-2.35447e-09
3.38654e-09
-1.06561e-09
-1.90265e-09
5.44128e-09
3.15049e-09
1.12887e-09
-1.76868e-09
-2.51066e-09
5.56183e-09
-2.02532e-09
-3.86021e-10
1.72926e-09
-2.10426e-09
-1.26529e-09
1.64026e-09
-4.78372e-09
6.15326e-09
4.9712e-09
-6.34076e-09
3.19608e-09
-1.47768e-09
1.08587e-11
-1.54621e-09
4.18762e-09
-2.59993e-09
-4.14895e-11
3.9047e-09
2.97986e-09
-3.16281e-09
-3.72176e-09
-3.444e-09
1.88127e-09
1.82838e-09
-2.65656e-10
-3.23008e-09
-1.34911e-09
2.92709e-09
1.65211e-09
-5.4296e-09
6.07556e-10
6.34782e-09
-1.52577e-09
2.40731e-09
-1.11405e-09
-1.06498e-09
-2.2825e-10
-4.82308e-09
-2.40751e-09
6.11755e-09
1.11305e-09
5.43081e-09
-1.79962e-09
-3.13264e-09
-4.98549e-10
2.12217e-09
1.74082e-09
1.56783e-09
2.59321e-09
-1.27169e-09
2.72555e-09
-4.0312e-09
-2.85182e-09
6.88271e-09
2.97565e-13
2.18561e-09
-2.10398e-09
-4.18036e-11
-3.98204e-11
7.74365e-09
-5.90509e-11
-6.64518e-09
-1.03941e-09
-3.77618e-09
4.01979e-09
2.85222e-09
-9.7145e-11
2.30309e-09
-2.09448e-09
-1.11476e-10
3.88728e-09
-5.42572e-09
-2.04115e-09
3.57959e-09
4.12256e-09
-4.58283e-09
-5.44904e-11
5.14759e-10
1.85135e-09
5.12476e-09
-8.41751e-10
-4.35235e-10
-5.44597e-09
2.10424e-09
3.77696e-09
4.16296e-09
4.23125e-10
-3.56749e-09
-1.0186e-09
1.29262e-09
2.43511e-09
-3.56954e-09
-3.38226e-09
4.22845e-09
1.09105e-10
-4.26556e-09
6.13486e-09
-1.97843e-09
-5.57573e-09
-3.64163e-09
8.76332e-10
8.34103e-09
-8.23736e-09
-1.27294e-08
7.55439e-09
1.34124e-08
1.77163e-09
-3.44808e-09
2.06452e-09
-3.88063e-10
1.01432e-08
-2.49507e-09
-4.78727e-09
-2.86083e-09
-5.07751e-09
7.17224e-09
-3.00948e-09
9.14749e-10
1.58745e-09
-2.24383e-09
4.30723e-09
-3.65085e-09
7.06182e-10
6.0066e-09
-1.57241e-09
-5.14037e-09
7.64418e-09
-4.86584e-09
-2.23181e-09
-5.46518e-10
1.6037e-09
4.2354e-09
-5.46576e-09
-3.73332e-10
1.98137e-09
5.56823e-09
-5.89377e-09
-1.65582e-09
-2.79683e-09
7.76876e-09
-4.77343e-09
-1.98494e-10
-1.7439e-09
3.89899e-09
-4.0859e-09
1.9308e-09
-3.72735e-10
-3.21579e-09
3.64238e-09
-5.38592e-11
3.00934e-09
4.60149e-09
-3.47204e-09
-4.1388e-09
-2.8512e-09
6.80727e-09
-1.78228e-09
-2.1738e-09
-4.55629e-09
-3.7286e-09
8.22533e-09
5.95483e-11
3.22113e-09
-2.49974e-09
1.50239e-09
-2.22378e-09
-2.93481e-09
-1.17242e-09
-1.04412e-09
5.15135e-09
-3.85294e-09
-1.03755e-09
-3.13109e-09
8.02158e-09
4.81282e-09
-6.40658e-09
4.57777e-09
-2.98401e-09
8.73144e-09
-6.62255e-09
-5.00662e-09
2.89773e-09
-4.45101e-09
3.02576e-09
1.87508e-09
-4.49827e-10
3.97497e-09
-4.23623e-09
4.74867e-10
-2.13619e-10
-2.73997e-09
1.06333e-09
1.73319e-09
-5.655e-11
-6.75424e-09
2.87348e-10
6.52366e-09
-5.67562e-11
1.83353e-09
4.18725e-09
3.18716e-10
-6.3395e-09
6.09368e-09
-4.8349e-09
2.73445e-09
-3.99323e-09
6.50843e-09
-1.07484e-08
2.01513e-09
-1.27134e-09
5.79411e-09
-2.32787e-09
-2.1949e-09
-2.69784e-09
2.52536e-09
5.19057e-09
-5.01808e-09
-3.02805e-09
-1.21915e-09
7.30587e-11
-6.03535e-10
-6.34688e-09
8.61934e-09
-1.66893e-09
3.35779e-09
1.64484e-09
-6.88011e-10
3.3279e-09
-5.02416e-09
7.35783e-09
-5.66158e-09
6.25454e-09
3.23177e-09
-7.78685e-09
-1.69943e-09
2.19323e-09
-1.11473e-09
-9.06167e-10
-1.72328e-10
1.2719e-09
-1.95503e-09
4.66418e-09
-2.86171e-09
1.10184e-09
1.97161e-09
-2.11727e-10
-2.3415e-09
3.68855e-09
2.07512e-10
-1.55457e-09
-2.98761e-10
5.81524e-09
-3.00896e-09
-2.50752e-09
-8.56878e-09
-4.22529e-09
9.7973e-09
-6.39103e-09
-6.84472e-10
-1.49328e-09
4.29888e-09
-8.24742e-09
-2.76753e-10
-3.17827e-09
-6.15083e-09
7.71195e-09
1.61716e-09
-2.99512e-09
2.53534e-09
-1.74472e-09
2.2045e-09
-2.8934e-09
6.94607e-09
-4.40394e-09
3.51267e-10
-6.09769e-09
-4.94761e-09
5.11666e-09
5.92864e-09
-2.41692e-09
-1.72635e-09
4.51194e-09
-3.68672e-10
-4.45787e-09
-4.58391e-09
7.48841e-09
1.55337e-09
6.1469e-09
3.11624e-09
-6.06976e-09
-3.19339e-09
-1.78505e-09
-3.2373e-09
3.35689e-09
-7.99584e-09
1.11131e-08
1.61839e-09
-4.73567e-09
-4.49113e-09
-6.19433e-09
4.74544e-09
5.94e-09
-6.29049e-09
-4.87594e-09
4.41154e-09
6.75489e-09
3.06989e-09
-2.95177e-09
-5.27997e-11
-6.53337e-11
1.86729e-09
-2.21108e-09
4.92455e-10
-1.48697e-10
-1.377e-09
-1.45452e-09
2.73944e-09
9.20871e-11
-4.28628e-09
7.07005e-09
-2.06794e-09
-7.15859e-10
3.85324e-09
-4.25958e-09
4.3862e-10
-3.22976e-11
1.06051e-09
3.14248e-09
-3.49759e-10
-3.78002e-09
-3.79207e-10
-1.2707e-10
-8.96965e-09
7.01637e-09
1.66477e-09
2.88519e-10
-7.22461e-09
2.39143e-09
1.03645e-09
3.79672e-09
4.54109e-09
-1.89751e-09
-3.7121e-09
1.0685e-09
3.55638e-09
5.63384e-10
-7.03693e-09
2.91719e-09
-5.01684e-11
4.57636e-09
-6.38911e-10
2.26657e-09
-1.98957e-09
-3.27171e-10
-7.42591e-09
3.76255e-09
-3.67829e-10
-5.3772e-09
8.55348e-09
3.10478e-09
-6.28106e-09
-4.29229e-09
-2.76016e-09
2.8524e-10
6.76721e-09
2.49492e-09
-6.68295e-09
-4.56225e-09
8.75029e-09
4.75825e-09
-2.79068e-09
-1.82684e-09
-1.40725e-10
2.61697e-09
-1.50084e-09
-2.38747e-09
-1.42418e-09
-2.96819e-09
7.45747e-10
3.64663e-09
1.84977e-09
-9.29269e-10
1.69647e-09
2.03758e-11
7.55109e-10
-2.27632e-09
-3.85617e-09
1.30628e-09
-1.72688e-09
4.27677e-09
5.84432e-09
-2.57702e-09
-4.49227e-10
-2.81807e-09
8.37948e-10
5.28489e-09
-4.08928e-09
2.82677e-09
2.98852e-09
7.05353e-09
3.75306e-09
2.83287e-09
-6.0734e-09
-5.12526e-10
-1.51194e-10
1.13907e-09
1.0558e-09
-2.04366e-09
1.80301e-09
-3.3116e-09
1.3574e-09
-8.41929e-09
6.91906e-09
5.00191e-09
3.92804e-09
3.29051e-09
-9.18923e-09
1.97069e-09
2.42655e-09
2.48058e-09
-1.89113e-09
-3.01599e-09
-5.027e-09
8.77976e-09
-2.39817e-10
-3.51294e-09
4.36515e-09
2.84482e-09
-5.69999e-09
-1.50999e-09
4.23953e-10
1.71707e-09
1.16128e-09
-3.3023e-09
-2.07732e-09
6.53026e-09
3.28869e-09
-4.4748e-09
6.05591e-09
4.36978e-09
-5.95089e-09
6.0923e-09
-4.13946e-09
-1.24665e-09
-3.05841e-09
1.21202e-09
5.29302e-09
-3.44663e-09
-4.90329e-09
1.14859e-09
2.16636e-10
3.53806e-09
3.61316e-09
-3.58576e-09
1.71429e-10
-1.98825e-10
-2.57732e-09
-3.12468e-09
1.40737e-11
4.63306e-09
5.13888e-09
-6.29086e-09
-3.48107e-09
1.55759e-12
-7.64569e-12
-7.27542e-09
1.09528e-09
2.18843e-09
3.99171e-09
-7.07642e-09
5.12995e-09
-6.21052e-10
2.56752e-09
1.29266e-09
8.3146e-10
-2.04765e-09
-7.64856e-11
6.18258e-09
-2.16751e-09
-2.75734e-09
-1.25774e-09
-7.2542e-09
-7.57399e-09
1.07811e-08
4.04711e-09
-9.94956e-10
-2.42641e-09
3.64726e-09
-2.25895e-10
-2.95266e-09
-9.59813e-10
3.86834e-09
4.41328e-11
-6.69907e-09
-4.01962e-10
7.26353e-09
-1.62496e-10
-2.42755e-09
-1.00381e-09
-2.08709e-09
5.51846e-09
2.20253e-09
-2.8933e-09
5.38524e-09
-4.69451e-09
-6.85166e-09
-2.07672e-09
2.06317e-09
6.8652e-09
7.16918e-09
5.18709e-09
-3.69966e-09
-8.65661e-09
-2.29893e-09
5.32218e-09
-3.05649e-09
3.32265e-11
-8.09464e-09
-4.80315e-09
6.14355e-09
1.15564e-10
-2.03586e-09
-1.57016e-10
-2.33102e-09
-8.51472e-09
3.73693e-09
7.10881e-09
-3.62004e-09
6.06478e-09
-5.68644e-09
3.2417e-09
6.04605e-09
-1.14267e-09
-9.55279e-10
-3.9481e-09
-7.28957e-11
-6.25976e-09
2.2242e-09
4.10846e-09
-9.1159e-10
-1.37178e-09
2.17552e-09
1.07838e-10
2.39735e-09
-2.50009e-09
2.07827e-10
-1.05098e-10
-5.49533e-09
1.63524e-09
1.90754e-09
1.95252e-09
6.15485e-09
-5.85222e-09
-3.04104e-10
1.48067e-12
1.94531e-09
-6.20369e-09
6.78961e-09
-2.53123e-09
1.12193e-09
-6.86271e-09
3.58809e-09
2.15269e-09
-9.0489e-09
3.06056e-09
7.20566e-09
-1.21732e-09
-2.13086e-09
-1.49923e-09
3.77835e-09
-1.48255e-10
3.09142e-09
-6.36745e-09
3.64897e-09
-3.7294e-10
4.85996e-09
-8.56699e-09
4.47826e-09
-7.71221e-10
-1.03969e-10
4.50013e-09
-4.36536e-09
-3.07898e-11
6.07414e-09
-1.25763e-09
-1.84136e-09
-2.97515e-09
6.76477e-09
6.24698e-09
-7.39853e-09
-5.61326e-09
6.69476e-10
-4.29454e-09
-1.48839e-10
5.1319e-09
-2.30785e-10
4.49823e-11
-4.9461e-09
-1.282e-10
3.22916e-09
-2.95043e-09
-1.50523e-10
4.58847e-09
-4.4113e-09
-5.63923e-11
-1.20777e-10
2.15288e-10
-4.41366e-09
3.99438e-09
2.03995e-10
-2.05923e-09
-5.03506e-10
-2.56559e-09
5.12833e-09
8.88615e-10
2.00811e-09
2.27107e-09
-5.16779e-09
-4.98537e-10
-2.50542e-09
4.59141e-09
3.70094e-09
2.02712e-09
-5.15944e-09
-5.68618e-10
1.22364e-09
2.55103e-09
-3.02524e-09
-7.49431e-10
-1.30806e-10
3.18641e-10
4.53049e-09
-4.71832e-09
6.19755e-09
1.95694e-10
-2.66665e-10
-4.1875e-09
5.05601e-09
-7.16815e-10
-1.51689e-10
6.69897e-09
-5.95391e-09
-6.09876e-10
-1.35181e-10
-9.549e-09
9.17213e-10
4.45807e-09
4.17371e-09
-4.79559e-09
5.79491e-09
5.64794e-09
-6.64726e-09
4.89739e-09
3.14501e-09
1.12528e-09
-9.16768e-09
5.86446e-09
-6.92982e-09
5.96276e-09
2.22225e-09
-8.40204e-10
-1.20316e-09
-1.7888e-10
5.28503e-09
2.35885e-09
-3.40416e-09
2.30973e-09
1.64833e-09
-5.53895e-10
8.13155e-09
-5.35975e-09
3.92716e-09
-1.89654e-09
-2.16422e-10
-3.84094e-09
-2.2145e-09
4.85823e-09
-2.7217e-09
7.79735e-11
-1.08144e-10
-2.49591e-09
-1.15224e-09
3.75629e-09
-5.10629e-09
5.10958e-09
1.90947e-10
-1.94228e-10
1.65721e-11
3.47087e-09
-1.55169e-09
-1.93574e-09
-5.32119e-09
5.3479e-09
1.79484e-11
-4.46588e-11
2.9639e-09
-5.4917e-09
4.8983e-09
-2.3705e-09
-4.67098e-09
4.52285e-10
1.88453e-09
2.33417e-09
-4.52439e-09
3.48288e-09
-2.92353e-09
5.0923e-09
-2.45723e-09
-4.80311e-09
2.16804e-09
1.87512e-09
-2.65459e-09
2.42874e-09
-1.64926e-09
4.49483e-09
-3.48307e-10
-4.03692e-09
-1.09601e-10
4.7056e-09
1.34081e-09
-5.66952e-09
-3.76885e-10
1.59228e-09
2.34368e-09
2.69762e-10
-1.93728e-09
-5.87984e-11
5.94145e-10
-2.30381e-09
-2.73282e-09
4.4425e-09
-2.15371e-09
1.414e-09
9.17136e-10
-1.77408e-10
-1.42468e-10
-9.81848e-09
5.885e-09
4.07595e-09
-1.69334e-09
-2.62386e-09
4.4933e-09
-1.76102e-10
5.38143e-10
4.42708e-09
2.65805e-09
-7.62327e-09
4.42397e-09
9.46286e-10
-9.4422e-09
4.07193e-09
5.58744e-09
-3.35624e-09
-1.90381e-09
-3.27385e-10
-5.47172e-09
-3.17588e-09
2.83239e-09
5.81521e-09
-4.64929e-09
6.29727e-09
3.59832e-09
-5.24632e-09
-1.00222e-09
-1.80024e-09
2.67145e-09
1.30999e-10
3.08061e-09
2.66132e-09
-4.93732e-09
-8.04605e-10
9.44072e-10
-4.74453e-09
2.68643e-09
3.21635e-09
-6.43366e-09
4.77332e-10
-8.91607e-09
7.25048e-09
-1.96478e-09
3.63036e-09
5.69249e-09
-6.4165e-10
-7.83548e-09
2.78463e-09
1.06201e-09
-2.92299e-09
-7.05509e-09
-3.19599e-09
-4.52467e-09
5.21684e-09
2.5038e-09
2.89406e-09
-2.08444e-09
-6.25558e-09
-4.15565e-09
1.86613e-09
-2.12898e-09
4.41849e-09
9.23615e-10
7.31451e-09
-4.70924e-09
-3.52889e-09
-4.88332e-09
3.55641e-09
3.04397e-09
6.83233e-09
-6.19128e-09
4.94639e-09
4.94947e-09
-2.24559e-09
-8.10864e-09
5.40475e-09
3.62478e-10
6.38946e-09
-6.27403e-09
-4.77916e-10
-3.35408e-09
-2.5359e-09
5.89421e-09
-4.21838e-12
5.72163e-09
-2.023e-09
-6.18019e-10
4.89529e-09
-7.74649e-09
-3.27064e-10
3.76252e-09
5.07051e-10
-4.07237e-09
-1.97203e-10
-3.17553e-09
2.10871e-09
-5.08323e-09
6.15007e-09
-2.49751e-09
-1.47728e-09
4.30256e-09
-3.2777e-10
1.00936e-09
5.51262e-09
-3.24434e-10
-5.62212e-09
-1.37728e-09
1.69164e-11
-1.13037e-09
5.07494e-09
-3.28046e-09
-6.64099e-10
-6.0049e-09
7.14071e-09
3.08997e-09
-4.22579e-09
1.65129e-09
-4.50825e-09
7.74008e-09
-4.88311e-09
1.94765e-09
3.20297e-09
-4.81041e-09
-3.40227e-10
-2.40924e-09
3.37173e-09
5.86984e-09
-6.81632e-09
5.14619e-09
-6.77603e-09
8.44616e-09
6.62804e-09
-3.65417e-09
-4.82721e-09
-2.79672e-09
2.63055e-09
-3.08181e-10
2.95451e-10
2.98552e-09
-1.61324e-10
-5.60027e-10
5.08285e-09
-4.3615e-09
-4.27751e-09
2.29616e-09
-3.44825e-09
-2.77831e-09
6.11143e-09
-5.76063e-09
2.40535e-09
-3.69068e-09
-1.03707e-09
2.32242e-09
4.07251e-09
5.50672e-09
-1.23863e-08
3.10087e-09
3.14982e-10
-3.23829e-09
-1.77552e-10
7.78454e-10
-4.04971e-09
-2.98145e-09
-7.95033e-09
-3.29828e-09
4.22902e-09
7.01959e-09
1.08647e-09
6.6261e-09
-1.06711e-09
-6.64545e-09
-3.23705e-09
4.40772e-10
2.96947e-09
-1.73187e-10
4.65809e-09
-5.90719e-09
5.14467e-09
-3.89558e-09
2.29297e-09
-7.39529e-11
-2.10198e-09
-1.1702e-10
-4.87679e-09
5.95281e-09
7.98575e-09
-9.06175e-09
6.14556e-09
-4.56234e-09
-1.57049e-09
-1.27343e-11
-2.4572e-09
-3.57348e-09
2.1566e-09
-3.48998e-09
1.46276e-09
-1.29364e-10
-2.71772e-10
1.70997e-10
5.30397e-09
-5.20321e-09
-1.89437e-09
1.85376e-09
2.25948e-10
-1.85341e-10
-2.9369e-10
4.30086e-09
2.54926e-10
-4.26209e-09
2.73755e-09
2.70698e-09
-1.82962e-09
-2.89975e-09
5.24723e-09
-5.80989e-10
-1.76649e-09
-1.57338e-09
3.96066e-09
-2.30359e-09
-8.36895e-11
-2.42153e-09
-6.45102e-11
2.74437e-09
-2.58333e-10
-5.25346e-09
9.106e-10
5.42328e-09
-1.08041e-09
3.04104e-09
-5.86056e-09
4.20557e-09
-1.38605e-09
-8.12203e-09
6.8313e-09
-5.45898e-09
6.74972e-09
2.82133e-09
2.98604e-09
3.98023e-10
3.10551e-10
7.28764e-09
4.69622e-09
-1.57502e-09
-5.87371e-09
2.75252e-09
5.67749e-09
-5.65882e-09
3.4621e-10
-3.64873e-10
5.58753e-09
1.55406e-09
-4.34257e-09
-2.79902e-09
5.11416e-09
-2.11031e-09
3.86286e-11
-3.04248e-09
6.93898e-09
3.80697e-09
-3.00035e-09
-7.7456e-09
-5.49615e-09
1.09376e-10
5.94302e-09
-5.56243e-10
-3.51596e-11
-5.90694e-09
3.23983e-09
2.70225e-09
-4.82674e-09
-2.36076e-09
4.61729e-09
2.57021e-09
4.16304e-09
2.24391e-10
-1.97995e-09
-2.40748e-09
1.64655e-10
3.22621e-09
-3.8152e-10
-4.27152e-09
-5.20807e-10
2.94123e-12
4.78939e-09
-8.94944e-11
-2.01662e-09
-3.91392e-10
9.98612e-09
-3.26317e-09
-5.79934e-09
1.61478e-09
5.69142e-09
-5.14684e-09
-2.15936e-09
-2.16757e-09
-6.09187e-10
-5.07792e-10
2.20682e-09
-3.07894e-09
1.02401e-09
-1.51908e-10
-5.27243e-09
6.65027e-09
4.14742e-09
-5.72194e-09
-6.94091e-10
3.6249e-10
-3.29703e-09
3.36438e-09
-4.29842e-10
-4.45991e-09
4.38006e-09
-5.58483e-09
2.55287e-10
-3.88309e-09
2.03024e-09
3.50943e-09
-6.93672e-09
1.39705e-09
-3.39115e-09
-7.84043e-10
2.27893e-10
5.18868e-09
1.83067e-10
-5.24922e-09
-1.22531e-10
-1.50091e-10
3.93648e-09
-3.61612e-09
-1.7027e-10
6.06792e-12
-3.08966e-09
3.21313e-09
-1.29533e-10
-7.62437e-10
-1.88496e-11
-5.16505e-09
5.25611e-09
8.64088e-12
-9.97102e-11
-1.79682e-10
4.14275e-09
-3.73419e-09
-2.28884e-10
-3.61103e-09
3.59249e-09
2.92225e-10
-2.73684e-10
-4.67822e-09
4.56385e-09
4.03337e-09
-3.91899e-09
1.51681e-09
-1.76028e-09
1.88839e-09
-1.64492e-09
-5.57905e-09
3.37882e-09
2.48378e-09
-2.83547e-10
4.02222e-10
-4.1885e-09
6.74895e-09
-2.96267e-09
4.94193e-09
1.94064e-09
-4.78357e-09
-2.09899e-09
-1.08397e-09
7.18901e-10
-4.55245e-09
4.91752e-09
8.34907e-09
-5.05803e-09
-5.47681e-09
2.18575e-09
-4.79778e-09
-1.8755e-09
5.23208e-09
1.44121e-09
-3.82651e-09
1.78705e-09
1.0344e-09
1.00507e-09
-1.5699e-09
-3.69898e-09
1.18949e-09
4.07938e-09
7.69861e-10
1.98053e-09
-2.69725e-09
-5.31465e-11
-4.80246e-09
3.30999e-09
-4.94274e-09
5.88093e-10
-6.26131e-09
4.22111e-09
1.4521e-09
-3.26353e-09
3.59283e-09
-4.90622e-10
2.75804e-09
1.41938e-09
-2.92578e-09
-8.91256e-09
3.28728e-09
4.67201e-09
9.53276e-10
-2.67473e-09
-1.01556e-09
1.86951e-09
1.82076e-09
-3.94191e-09
8.92961e-09
3.74374e-09
-2.13928e-09
-3.98717e-09
6.18295e-09
-5.65009e-11
-2.28322e-09
1.53112e-09
1.04249e-09
-2.90421e-10
-1.03976e-09
2.75422e-09
-1.72326e-09
8.79593e-12
2.95606e-10
-5.12815e-09
2.72825e-09
-1.39749e-10
4.57686e-09
-2.89689e-10
-2.31645e-09
-1.87039e-09
1.98203e-09
2.2048e-09
-1.83278e-10
-3.54572e-09
4.06894e-09
-3.39944e-10
-3.79289e-09
-2.58505e-10
5.00168e-09
-9.50279e-10
7.16269e-09
-6.11472e-09
-6.1513e-09
5.10333e-09
-9.77187e-10
-1.30312e-09
-3.61457e-11
-7.8659e-09
8.36162e-09
-3.34795e-10
-1.60921e-10
1.15065e-09
1.26737e-09
-1.18412e-09
-1.234e-09
-4.00985e-09
4.47114e-09
3.1446e-12
-4.64438e-10
-4.089e-10
-4.08751e-09
5.00322e-09
-5.06811e-10
8.78794e-09
8.04597e-10
-3.02175e-09
-6.57079e-09
-7.49244e-09
4.64332e-09
5.42081e-09
-2.57169e-09
-3.11536e-09
-2.34459e-09
4.1751e-09
-5.21582e-09
3.83285e-09
6.05527e-09
-4.6723e-09
-9.94855e-10
-1.30057e-09
2.39675e-09
-1.01337e-10
9.84905e-11
-3.92749e-09
-3.05932e-10
2.53972e-10
-3.78953e-09
-3.39784e-11
-6.38503e-09
7.52106e-09
4.65382e-09
-5.78985e-09
-1.46831e-09
-7.7455e-10
-4.03978e-11
5.50399e-10
-2.43335e-09
2.08604e-09
-2.03082e-10
1.23966e-09
8.30735e-09
2.22095e-09
4.15465e-09
-2.45383e-09
-3.92176e-09
4.83774e-09
-3.13526e-09
3.16834e-09
-4.87083e-09
5.83102e-09
-3.00714e-09
-6.58417e-11
-5.31843e-09
1.30807e-09
1.05854e-09
-6.42882e-10
3.21945e-09
-5.39075e-09
2.81418e-09
-2.84341e-09
9.77979e-10
2.78649e-09
-9.2105e-10
9.31106e-10
1.06079e-09
3.74214e-09
-5.73404e-09
4.51821e-09
1.96525e-09
-5.55237e-09
-2.08531e-09
5.72768e-09
-2.90367e-09
-7.38697e-10
-1.95774e-09
1.96317e-09
4.30261e-09
-4.30805e-09
-2.42021e-09
1.63307e-09
1.07319e-09
-2.86047e-10
-4.28937e-09
3.32658e-09
-8.58622e-09
3.47269e-09
3.33353e-09
-3.92999e-09
-2.87622e-09
-1.86722e-10
-1.96921e-09
2.20718e-09
-5.12373e-11
-9.29857e-10
2.2465e-09
-1.28065e-09
-3.60101e-11
8.02898e-09
-3.36314e-09
-2.60038e-10
-4.40581e-09
1.35877e-09
4.7911e-09
-7.73038e-10
-5.37684e-09
-4.27583e-10
4.09466e-09
2.14743e-09
-5.81449e-09
-5.841e-10
-1.86993e-09
3.81846e-09
-3.74044e-09
-2.57704e-10
2.24534e-09
4.44001e-09
-4.49973e-09
2.11726e-09
1.77358e-09
-3.55958e-09
-3.31247e-10
1.72783e-09
1.07942e-09
-2.51342e-09
-2.93827e-10
1.43292e-09
1.41284e-09
-1.55145e-09
4.07612e-09
-9.13936e-10
-1.61074e-09
6.30663e-09
-1.43186e-09
3.11529e-09
-7.99005e-09
2.87568e-09
7.75062e-10
1.99384e-09
-5.64458e-09
-3.90894e-09
-3.58393e-09
2.22593e-09
5.26694e-09
-1.02427e-08
2.61995e-10
7.32604e-09
2.65469e-09
-4.59513e-09
2.86109e-10
-1.65775e-10
-2.78693e-09
-8.21805e-11
2.94705e-09
-7.7934e-11
-2.74461e-09
1.80824e-10
-2.23143e-10
4.05441e-10
-3.44147e-09
-4.51446e-09
7.55049e-09
-4.30665e-09
7.17778e-09
1.39145e-10
-3.01027e-09
-5.49544e-09
4.67891e-10
8.75877e-09
-3.73122e-09
-3.81665e-09
9.55425e-09
5.90375e-10
-6.32798e-09
3.84586e-09
-9.69111e-09
6.35718e-10
5.20954e-09
6.9012e-09
4.89131e-10
-1.15854e-08
4.19507e-09
-2.49941e-09
-2.87725e-11
2.67595e-09
-1.47809e-10
-5.24221e-09
8.99494e-09
-9.34185e-09
5.58914e-09
5.63557e-09
-8.99209e-09
8.72852e-09
-5.372e-09
-3.59565e-09
4.50269e-09
-1.68858e-09
7.81534e-10
1.15414e-09
5.09954e-09
-1.59558e-09
-5.68121e-10
-5.96973e-09
-3.62976e-09
1.16703e-09
1.27148e-09
-4.12775e-09
1.68923e-09
-4.06395e-09
-9.27047e-09
3.30787e-09
1.00266e-08
4.57682e-09
7.76554e-09
-7.94488e-09
-4.39747e-09
1.12448e-09
-7.49823e-10
-7.7736e-09
-7.8065e-09
-4.39934e-10
4.9659e-09
3.28054e-09
-5.39734e-09
2.54093e-10
3.87187e-09
1.27138e-09
-1.10538e-09
-3.4501e-09
5.68292e-09
-1.12744e-09
-2.35479e-09
6.30714e-09
-1.99288e-10
-5.04562e-09
-2.8242e-09
6.27916e-10
7.2419e-09
5.73114e-09
8.30239e-09
-5.63617e-09
-4.21197e-09
-7.95515e-09
7.2992e-09
4.86792e-09
3.56858e-09
7.22614e-09
-6.63147e-09
-4.16326e-09
4.0642e-09
3.59499e-10
-7.4723e-09
3.04861e-09
7.91905e-09
-3.7564e-09
-3.67369e-09
-4.88956e-10
-2.39843e-09
-4.46928e-09
-3.63276e-10
7.23099e-09
-3.45814e-09
-4.08927e-09
7.95285e-09
-1.23292e-10
7.1304e-09
-2.58013e-09
-4.42698e-09
7.30855e-09
-3.22133e-09
-4.25818e-09
1.7096e-10
-7.24351e-09
4.5224e-09
2.91075e-09
-1.89636e-10
-7.47162e-09
7.52277e-09
-4.4085e-09
4.35735e-09
4.26309e-09
6.45713e-09
-6.44092e-09
-4.2793e-09
-1.07138e-08
9.12706e-10
4.05585e-09
5.74521e-09
4.48912e-09
1.10134e-10
3.20423e-09
1.20542e-09
-5.37726e-09
-7.26619e-09
1.1438e-08
-5.32777e-09
5.12203e-09
2.60821e-10
-5.50744e-11
-9.19181e-09
3.76444e-09
4.86318e-09
5.64192e-10
-5.81084e-09
-3.17924e-09
1.51785e-09
7.47223e-09
-9.08588e-09
-5.21607e-09
5.72044e-09
8.58152e-09
4.49507e-09
-7.42595e-09
5.69186e-09
-2.76098e-09
5.34464e-09
-9.48861e-09
4.4827e-12
4.13949e-09
-1.37607e-09
4.99765e-09
-7.88755e-09
4.26597e-09
-6.84666e-09
2.60011e-09
2.84978e-09
1.39678e-09
9.07141e-09
-3.2794e-09
-3.02284e-09
-2.76917e-09
5.55582e-09
-4.97288e-09
8.66796e-09
-9.2509e-09
-2.95794e-09
-2.50246e-09
6.61932e-09
-1.15892e-09
-4.84552e-09
-1.39347e-09
-4.85277e-09
1.10918e-08
-8.28211e-09
5.32703e-10
4.49061e-09
3.25879e-09
-8.54878e-09
3.10566e-09
6.73634e-10
4.76949e-09
3.4548e-09
5.155e-09
6.2173e-10
-9.23152e-09
-8.28355e-09
5.70665e-09
-8.29066e-10
3.40597e-09
4.48195e-10
7.96351e-09
-5.24293e-09
-3.16877e-09
8.17438e-09
5.50817e-09
-4.96263e-09
-8.71991e-09
4.94331e-09
-5.70243e-09
-8.51482e-09
9.27395e-09
-5.92867e-09
1.96232e-09