/*--------------------------------*- C++ -*----------------------------------*\
| =========                 |                                                 |
| \\      /  F ield         | OpenFOAM: The Open Source CFD Toolbox           |
|  \\    /   O peration     | Version:  v1612+                                |
|   \\  /    A nd           | Web:      www.OpenFOAM.com                      |
|    \\/     M anipulation  |                                                 |
\*---------------------------------------------------------------------------*/
FoamFile
{
    version     2.0;
    format      ascii;
    class       surfaceScalarField;
    location    "150";
    object      phi;
}
// * * * * * * * * * * * * * * * * * * * * * * * * * * * * * * * * * * * * * //

dimensions      [0 3 -1 0 0 0 0];

internalField   nonuniform List<scalar> 
36863
(
-3.49003e-09
1.41002e-09
-9.30664e-09
1.13867e-08
-5.5081e-09
3.53254e-09
-1.51448e-09
6.91768e-09
4.3303e-09
-8.66762e-09
-2.58041e-09
-4.75404e-09
4.16136e-09
7.51033e-09
3.99098e-09
4.76134e-09
-1.35064e-08
-3.5142e-09
6.91823e-10
7.15267e-09
-7.79123e-09
1.18902e-08
-2.68903e-09
1.19845e-09
-1.30198e-08
2.51469e-09
3.36565e-09
-7.67528e-09
-5.04005e-09
-5.93777e-09
2.31018e-09
-1.37984e-08
9.99816e-09
-1.33021e-09
-9.09514e-09
-2.59439e-09
-1.27666e-08
-1.87465e-09
8.42886e-10
-6.92288e-09
2.90755e-09
-8.75131e-09
-5.79601e-09
-2.45706e-09
-1.85082e-09
-3.85252e-09
2.18912e-09
-7.73281e-09
8.4193e-10
-2.79145e-10
9.4589e-10
3.41509e-10
-1.00852e-09
1.29457e-10
-3.23426e-10
-8.52356e-11
1.83128e-09
-1.36583e-10
-6.23576e-10
-1.07132e-09
-9.80965e-10
1.8292e-10
1.74328e-09
-1.7568e-11
1.1795e-09
-4.49235e-10
-7.12812e-10
3.4693e-10
-2.52452e-10
-1.12041e-10
4.22476e-10
4.27379e-10
-5.29393e-10
-8.19564e-10
1.53147e-09
-5.30086e-11
7.82236e-10
1.81329e-10
1.69878e-09
-2.51258e-09
6.32478e-10
3.29893e-09
1.43433e-09
-4.55196e-09
-4.48941e-10
3.17603e-09
5.71816e-10
1.35367e-09
-1.03854e-10
5.90912e-09
1.06668e-09
-5.54148e-09
-8.10151e-10
1.50936e-09
2.47678e-09
1.89531e-09
3.20362e-09
4.62233e-09
-2.86565e-09
-6.90041e-10
-1.53644e-09
3.28293e-10
2.7175e-09
-1.62682e-10
-2.01187e-11
1.60653e-09
4.91108e-09
-1.26277e-09
2.12257e-09
1.48342e-09
-2.34327e-09
-1.28998e-09
-1.35493e-10
4.05738e-09
-5.72553e-09
1.07494e-08
-3.80023e-09
-1.22367e-09
1.08885e-08
-9.15322e-09
-7.46081e-09
3.89099e-09
3.22199e-09
3.6363e-09
7.05621e-09
7.72325e-09
-4.86006e-09
2.88508e-09
-7.17829e-09
-3.80188e-09
3.33881e-09
7.51929e-09
-3.92448e-09
3.21126e-09
-3.08703e-09
-1.47744e-10
-8.63681e-09
-6.21776e-09
2.79035e-09
3.27964e-09
-4.98025e-09
-1.18331e-09
-5.4224e-11
-7.15317e-10
-2.01513e-10
4.48485e-09
-5.66485e-09
4.40199e-09
9.40077e-09
-1.57711e-09
-8.45418e-10
-1.60821e-09
-1.96155e-09
3.90646e-09
3.08957e-09
-5.25272e-10
2.71195e-09
-4.23861e-09
-4.41112e-09
1.94857e-10
-6.33506e-11
2.74344e-09
-2.93913e-09
5.28969e-10
-3.33255e-10
5.71558e-09
-2.28034e-09
2.49636e-09
-3.53809e-09
-6.69108e-09
9.12803e-09
-2.5009e-09
-4.13078e-09
2.3883e-09
2.88722e-09
-5.10126e-10
-7.26656e-09
3.63004e-09
5.06616e-09
-6.3079e-09
-2.25507e-09
-4.73123e-09
4.4854e-09
-2.61344e-09
-1.30828e-10
-5.37864e-09
-1.5394e-09
4.44695e-09
1.45008e-09
-4.3579e-09
2.59699e-09
-3.37191e-09
-7.64624e-10
8.5632e-09
-9.81448e-09
-3.54232e-10
1.6054e-09
-2.91162e-09
-3.43562e-09
1.46214e-08
-8.27412e-09
-3.98743e-09
1.24067e-09
7.19361e-09
-4.30946e-09
5.92342e-09
-5.14014e-10
-1.10009e-09
-1.37561e-09
-3.36958e-10
-8.75147e-09
-4.02897e-09
8.79291e-09
5.46254e-09
-1.44742e-09
-6.92689e-09
7.70142e-09
-3.61462e-09
-1.69005e-09
-3.63346e-09
1.50418e-09
3.81935e-09
-6.08547e-09
6.50149e-10
3.74529e-09
1.86757e-09
-5.11968e-09
-2.83333e-09
-1.80944e-09
4.35489e-11
-6.36964e-09
2.30685e-09
4.71296e-09
-2.78047e-09
1.24549e-09
-4.83464e-09
9.78837e-11
-7.99802e-09
4.69616e-09
2.49016e-09
-7.08842e-09
3.04755e-09
-1.60827e-10
1.11028e-09
-5.18608e-09
6.38269e-09
-4.01396e-09
6.62843e-09
5.59109e-09
1.48063e-09
-4.58153e-09
4.62468e-09
-2.45996e-09
3.06432e-09
-1.51029e-09
-6.00684e-09
-4.01653e-10
-1.20165e-09
6.52522e-10
-4.30992e-09
1.52424e-09
1.83249e-09
-2.70408e-09
2.34236e-09
-1.21971e-09
-2.23362e-10
3.99335e-10
1.31357e-10
-1.11153e-08
1.20036e-08
-3.83071e-09
2.94242e-09
3.48949e-10
-4.87051e-09
-6.59378e-09
-4.5084e-09
-7.53492e-09
7.90941e-09
4.13384e-09
2.96434e-09
-7.17547e-09
-2.97275e-10
1.56114e-09
9.34552e-10
9.50792e-09
-5.02865e-09
1.14569e-08
-6.07928e-09
6.43543e-09
-4.58503e-09
-6.72092e-09
3.12308e-09
-5.18353e-10
-6.26397e-09
1.64948e-09
6.17561e-09
-1.76551e-10
-6.69242e-09
-2.85605e-09
2.01352e-09
-4.89262e-09
-8.97526e-09
2.9327e-11
9.52956e-09
-8.81023e-09
8.7231e-09
-4.94153e-09
8.29129e-09
-2.1386e-09
-1.49629e-08
-7.0799e-09
9.02822e-09
6.77481e-09
-1.77743e-09
2.98876e-09
-1.76475e-09
1.04007e-09
9.7529e-09
1.06267e-08
7.77872e-09
-6.70934e-09
-1.16162e-08
1.83415e-08
1.21668e-08
-9.62754e-09
-2.08806e-08
9.99815e-09
-2.12428e-09
1.04678e-08
-1.73888e-08
5.86697e-09
5.09895e-09
-1.03209e-08
1.09794e-08
7.15563e-09
-2.77626e-08
1.32439e-08
-1.50267e-08
1.27622e-08
6.61902e-09
-1.33223e-08
1.99473e-08
-8.43273e-09
-8.98998e-09
8.60244e-09
1.371e-08
-1.51568e-08
-8.01072e-09
-1.30966e-08
-1.66059e-10
1.59588e-09
6.73349e-09
-8.16305e-09
-1.31115e-08
2.52741e-09
1.04181e-08
-1.64017e-08
5.29885e-09
-2.0086e-09
1.08681e-09
4.53458e-09
-7.69741e-09
2.07639e-09
3.20452e-09
5.48075e-09
-7.59831e-09
-5.37832e-09
1.53619e-09
5.43819e-09
1.11747e-09
-1.2114e-08
-5.40499e-09
-4.99209e-09
9.31414e-09
7.633e-10
5.7978e-09
-1.08027e-09
-8.04373e-11
-1.36904e-09
-7.89635e-09
1.08018e-08
1.3455e-08
-1.22963e-08
-3.17267e-11
-2.06676e-09
-5.26966e-09
-5.27508e-09
-1.8396e-09
1.23842e-08
-9.73559e-09
-8.46749e-09
1.29334e-08
-2.61857e-09
-1.81727e-08
1.10552e-08
1.04086e-08
-2.51758e-08
1.21483e-08
-1.37816e-08
9.00588e-09
-6.72798e-09
1.15037e-08
3.66369e-10
-3.89314e-09
-1.02549e-08
1.02684e-09
2.70391e-09
-1.27568e-08
5.3161e-09
-1.15489e-08
-1.04381e-08
2.01472e-08
-8.20501e-09
7.06464e-09
-8.61345e-09
-4.15305e-09
-5.40641e-09
-1.3475e-08
-2.03144e-08
-5.56682e-09
-1.59161e-08
2.18492e-08
-5.33985e-09
-1.13101e-08
-1.3854e-08
9.74515e-09
-6.32932e-09
-1.91759e-08
-2.88321e-09
3.18201e-09
3.34682e-09
-2.0004e-08
-6.31092e-09
-2.13959e-08
-8.52919e-09
-1.98257e-09
1.9055e-08
-8.54319e-09
-6.6122e-09
1.00166e-08
-1.19337e-08
-4.71007e-09
-6.96133e-09
9.68875e-09
-8.7403e-09
7.14952e-09
-3.1194e-09
-1.01054e-08
1.3711e-08
4.38987e-10
-4.04485e-09
2.29786e-09
-1.31206e-08
4.2104e-09
1.01871e-09
-7.74236e-09
-3.38195e-09
-9.57423e-09
4.91058e-09
6.48511e-10
3.44762e-10
-9.73374e-09
7.32473e-10
-1.42255e-10
9.38578e-09
-6.94927e-09
-1.41807e-09
-1.01849e-08
1.25916e-09
-6.66901e-11
4.95643e-09
1.12517e-08
-5.94954e-09
-1.02587e-08
-3.06622e-09
-1.00025e-09
9.02291e-09
6.12952e-09
8.20908e-09
-1.5804e-09
-1.27583e-08
8.20839e-09
1.48855e-09
1.55468e-09
-4.11302e-09
-4.60678e-09
1.30522e-08
-4.3324e-09
1.02527e-09
5.63356e-09
-1.26084e-08
3.45083e-09
-5.4918e-09
2.69032e-09
-8.49492e-09
1.12435e-08
-5.43896e-09
-5.63232e-09
1.44521e-08
-3.6272e-09
-2.40833e-09
1.23951e-08
-6.35966e-09
1.48845e-08
-1.28781e-08
7.23049e-09
-6.18804e-09
-8.03932e-09
1.06153e-08
2.48038e-09
5.14498e-09
4.76966e-09
9.32551e-09
9.95836e-09
-6.84092e-09
6.60839e-09
-4.52529e-09
1.36885e-08
-1.24125e-08
3.24962e-09
2.25171e-10
1.77229e-08
-1.03021e-08
-7.64581e-09
1.94075e-08
-1.00794e-08
-9.1029e-09
-1.01615e-08
1.74946e-08
1.9142e-08
-2.64749e-08
9.68013e-09
5.58332e-09
-2.54249e-08
-9.74556e-09
9.07295e-10
2.6333e-08
-8.14229e-09
2.31231e-08
-2.4726e-08
1.20897e-08
2.14675e-08
-1.58341e-08
-7.63476e-09
-1.30972e-08
2.16394e-08
2.504e-08
-9.14046e-09
-3.80949e-09
5.14567e-09
9.76131e-09
4.50066e-09
1.66313e-08
9.98196e-09
3.39518e-09
1.35025e-08
1.23917e-08
6.34416e-09
6.051e-09
7.27158e-10
-5.66565e-09
-1.11249e-09
4.00125e-09
1.80001e-09
2.49739e-10
4.37511e-09
7.37368e-09
-2.36393e-09
-9.38486e-09
-1.28076e-09
-5.44684e-09
-1.36112e-10
6.86374e-09
-1.95819e-09
-3.21954e-09
3.89696e-09
2.70161e-09
1.94664e-09
4.57199e-10
-5.10546e-09
-5.96506e-09
4.2443e-09
-2.37437e-10
4.88071e-09
-3.76475e-10
-3.77708e-09
3.71394e-09
5.16801e-09
5.90889e-09
2.66246e-10
7.75383e-09
2.32148e-09
-7.90748e-09
-7.58895e-10
-7.74066e-09
1.77984e-09
6.41535e-10
-9.15471e-09
7.72543e-10
-5.7e-09
6.24934e-09
7.41339e-09
-2.05773e-09
8.25099e-09
1.08357e-09
-7.27675e-09
8.21985e-09
-2.06341e-09
-8.21414e-09
-5.2511e-09
-1.01443e-09
1.45166e-08
5.82874e-09
-2.8599e-09
-5.01888e-09
1.03872e-08
4.32081e-09
-4.6267e-09
7.79442e-09
5.10314e-09
-1.1708e-08
-1.18954e-09
-1.05619e-09
9.45843e-10
7.90479e-09
-7.87661e-10
-7.9679e-09
-8.6626e-09
1.24267e-09
1.53878e-08
-2.54877e-10
-1.06665e-08
2.95353e-09
6.03256e-10
5.91676e-09
-8.58538e-09
-3.2389e-09
3.16164e-09
-6.23412e-09
-1.30178e-08
2.12196e-09
9.71445e-10
5.82775e-09
-8.92123e-09
-7.01239e-10
-3.41098e-09
-4.67134e-09
-8.16226e-09
1.68313e-09
3.2402e-09
-8.41379e-09
1.89743e-09
6.7571e-10
6.97526e-09
-9.54837e-09
-3.69196e-09
1.15169e-08
-8.48976e-09
6.64875e-10
2.84902e-09
-6.55788e-09
-3.44383e-09
7.15274e-09
-5.68198e-09
1.18132e-09
-6.92433e-09
1.1425e-08
-1.10533e-08
-7.70896e-10
2.43036e-09
9.39388e-09
-6.55114e-09
-1.01842e-08
-9.85765e-09
-1.07024e-08
7.60833e-09
1.29519e-08
-1.35133e-08
2.88481e-09
-9.32177e-09
-4.08336e-09
2.70277e-09
-1.40165e-08
-8.8185e-09
1.52109e-08
-7.93655e-09
8.03245e-09
-1.53068e-08
5.62845e-09
5.49918e-09
-1.48718e-09
-5.96099e-09
1.02972e-08
8.01857e-09
-3.11374e-09
8.54723e-09
-4.25217e-09
-1.09047e-09
-1.94772e-08
3.78997e-09
-1.2817e-08
1.9855e-08
-1.36224e-09
-1.04603e-08
1.13759e-08
1.41075e-08
1.39747e-08
-7.47255e-09
-7.86443e-09
1.18792e-08
-3.90048e-09
5.99601e-09
1.72941e-08
6.55394e-09
-1.02365e-08
-4.60281e-10
4.34291e-09
-8.39603e-09
7.59137e-09
-3.53827e-09
-2.08458e-09
6.47561e-09
-4.81155e-11
2.27403e-09
-1.69512e-09
-8.97495e-09
6.43727e-09
9.74846e-10
-5.1381e-09
4.73498e-09
-3.82295e-10
1.03512e-08
-2.66322e-09
-6.71318e-09
-3.04761e-09
4.06176e-09
3.72083e-09
2.87525e-09
4.42833e-09
4.45843e-09
2.16361e-09
9.69346e-10
5.90769e-09
5.02637e-09
1.9621e-09
-1.28591e-08
9.2018e-09
-1.01542e-08
2.03954e-09
-1.09379e-09
9.20837e-09
-1.08553e-08
-6.20878e-09
-1.29534e-09
1.20406e-08
-4.53643e-09
2.50076e-09
-6.67e-09
5.82309e-10
1.0146e-08
-1.18221e-08
8.67412e-09
8.86953e-09
6.3224e-09
4.95533e-09
7.93148e-09
-1.03305e-08
-1.34961e-09
7.38894e-09
4.29114e-09
4.90303e-10
-8.65533e-09
-2.1655e-09
-3.15087e-09
1.33863e-08
-2.86197e-09
1.43024e-08
-3.50892e-09
4.22332e-09
-2.65509e-09
-1.02236e-08
1.18089e-08
-8.18717e-09
6.01569e-10
2.75186e-09
7.7074e-09
-4.52529e-09
-1.10486e-08
1.27119e-08
-7.00649e-09
5.233e-09
-2.91116e-09
-1.23976e-08
7.12156e-09
-9.06859e-09
-1.09294e-08
8.94931e-09
-8.11825e-11
-1.59939e-08
3.8459e-09
-1.20714e-08
1.44309e-08
-6.95236e-09
-6.23581e-09
-1.65451e-08
-1.10086e-08
8.81589e-09
1.87379e-08
9.00487e-09
-8.22387e-09
-1.73261e-08
-1.40049e-09
3.83935e-09
-1.38407e-08
8.05188e-09
-5.91965e-09
1.70706e-09
-4.47619e-09
1.12099e-08
2.08221e-09
2.19658e-09
1.3791e-09
5.46879e-09
4.50652e-09
-1.41732e-08
1.35628e-08
-5.81806e-09
6.42849e-09
-1.19153e-08
-1.46317e-09
-7.94779e-10
-7.27073e-09
-5.43002e-09
7.85453e-10
-9.8797e-09
3.22569e-09
5.95583e-09
6.98082e-10
-1.15154e-08
7.40469e-09
-5.769e-09
-1.73576e-08
-1.58957e-09
1.7484e-08
-5.25652e-09
1.1878e-08
2.51906e-09
-9.14056e-09
-2.37295e-08
1.14409e-08
7.03197e-09
4.51022e-09
-2.81926e-09
-8.96171e-09
-7.95263e-09
-1.05927e-08
7.02992e-09
-1.95561e-08
1.39746e-08
8.80719e-09
-5.02042e-09
-7.13107e-09
-2.10299e-09
-1.07445e-08
-2.11486e-08
-2.9912e-09
4.09995e-10
2.14497e-09
-1.29169e-08
-1.36406e-08
-1.14523e-08
2.00723e-08
-6.52617e-09
-1.67254e-08
-1.80218e-08
3.50954e-09
2.14955e-09
-2.60675e-09
-3.05231e-09
6.87167e-09
-1.69449e-09
-1.66766e-09
-9.68116e-09
9.55945e-09
-4.52531e-09
4.64696e-09
1.00088e-08
-1.15026e-08
-8.18739e-09
2.48009e-09
2.52836e-09
5.00027e-09
4.14576e-09
7.89375e-09
-2.00078e-09
4.88961e-09
3.98288e-09
2.83787e-10
-1.35047e-10
2.969e-09
5.70871e-10
-6.14663e-09
5.08228e-09
-3.8078e-09
2.32309e-09
-8.74338e-09
-7.21321e-10
-1.48093e-09
2.78899e-09
4.62894e-09
-1.18519e-09
8.11993e-09
2.26598e-09
2.77358e-09
-4.4687e-09
2.68251e-09
-1.3273e-10
-3.63585e-09
5.13316e-09
-1.5836e-09
1.20199e-08
-3.87919e-10
1.13802e-08
-2.30121e-08
-1.59533e-08
8.25456e-09
1.97186e-08
-1.04214e-08
6.25616e-09
-1.45247e-08
1.869e-08
-2.16536e-08
1.08444e-08
-7.12761e-09
9.21826e-10
-9.74752e-09
1.41202e-08
6.8083e-09
-1.37832e-08
-7.14531e-09
1.17003e-08
-5.67314e-09
8.093e-09
-7.78577e-09
2.22965e-08
-5.21604e-09
-5.86787e-09
-3.44083e-09
-1.41861e-08
-1.26836e-08
-2.93994e-08
2.01159e-08
-4.90253e-09
1.81434e-08
-8.84052e-09
-2.49457e-09
2.20579e-08
-2.09205e-09
-1.38761e-08
1.34255e-08
-2.04674e-08
-6.74136e-09
1.88455e-09
-5.57319e-09
3.80644e-09
-1.44154e-08
1.61819e-08
3.31692e-10
-1.27836e-08
6.87841e-09
-3.17505e-09
1.44395e-08
-7.45814e-09
-9.85418e-09
7.01069e-09
-7.6378e-10
4.11692e-09
4.73969e-09
2.0871e-09
5.9776e-09
-8.82869e-09
1.74089e-09
1.23127e-08
-1.19667e-08
1.21472e-08
-5.26456e-10
-9.87991e-09
8.30541e-09
-1.3419e-08
-7.67003e-09
-1.01382e-08
4.02818e-09
-3.80077e-09
-5.50135e-09
8.96501e-09
-6.78827e-09
-5.81666e-09
4.9274e-09
-3.99073e-09
6.66233e-09
9.47552e-09
2.50534e-09
1.4353e-08
-1.01397e-08
-6.08878e-09
1.03036e-08
-4.23417e-09
9.74237e-10
5.18894e-10
2.74122e-09
-2.85542e-10
-2.10101e-09
-1.84755e-09
-3.38619e-09
1.47525e-09
2.88516e-09
-1.63553e-09
-2.03618e-09
-6.14206e-09
-3.64333e-11
-2.30804e-09
8.48653e-09
1.26967e-10
-5.5345e-09
-7.34524e-10
3.19813e-09
-2.77764e-09
-2.52149e-09
1.2064e-09
2.51067e-09
2.3527e-10
1.44666e-09
-3.96679e-09
2.28485e-09
6.15422e-09
-4.85862e-09
-1.16864e-09
-1.71585e-09
7.83358e-09
1.76626e-09
-3.16652e-09
2.01059e-09
-3.89856e-09
-3.64655e-09
1.17768e-09
1.9582e-09
1.52934e-09
-2.04091e-09
3.27745e-09
-1.13959e-09
-1.79707e-10
-3.04455e-09
2.53502e-09
6.1147e-10
-3.78589e-10
-4.36026e-09
1.13115e-10
1.45472e-10
-2.27777e-09
-2.68542e-09
1.63216e-09
-6.96059e-09
6.41859e-09
-1.09016e-09
-5.6705e-09
7.09279e-09
2.09868e-10
3.74928e-09
4.8923e-09
-5.54532e-10
-8.08702e-09
7.03009e-09
3.99152e-09
-7.27231e-09
-2.94828e-11
8.78422e-09
-1.56225e-09
-7.1925e-09
-5.70693e-09
-1.28314e-09
-5.47466e-09
1.21033e-09
9.15668e-09
7.32098e-09
-4.20726e-09
2.66057e-09
-7.08993e-10
5.14125e-09
2.16415e-09
6.91501e-09
9.38748e-09
-1.93231e-10
8.54671e-09
-9.09928e-09
-1.00962e-09
-4.72846e-09
7.80053e-09
4.77314e-09
1.83886e-09
8.61321e-09
-4.10329e-09
2.85889e-09
-7.3688e-09
-8.57516e-10
8.05698e-09
1.41375e-09
7.30468e-09
-2.91826e-10
-1.11161e-08
6.46395e-09
-1.67898e-11
-2.15529e-09
2.34784e-09
7.02425e-09
-1.56197e-09
1.00166e-09
-1.39537e-08
1.33806e-09
-2.08306e-09
-9.01173e-09
1.73432e-08
-1.42916e-08
-7.35216e-10
-2.31655e-09
2.88238e-09
1.57989e-08
-1.05439e-10
9.47752e-09
7.3156e-09
4.09615e-09
-1.17036e-08
6.78319e-09
-1.02956e-09
-1.22785e-08
-7.64636e-09
1.04233e-08
-1.59841e-09
8.27248e-09
2.49393e-09
3.62478e-09
-1.43912e-08
3.34353e-09
5.37731e-09
-4.48344e-10
3.1455e-09
-8.52857e-09
8.91034e-09
-3.52724e-09
6.53685e-09
-4.7816e-11
8.70312e-09
6.08151e-09
-1.22907e-08
8.18671e-09
5.89374e-09
5.73878e-09
-1.06426e-08
3.94483e-09
3.83994e-10
3.86821e-09
6.61348e-09
6.62381e-09
7.946e-10
7.68333e-10
-7.16001e-10
1.1208e-08
-7.40728e-09
1.1407e-08
-4.71568e-09
-9.4796e-09
2.86698e-09
1.04908e-09
-4.44721e-09
-2.8981e-09
9.68597e-09
5.16133e-09
2.45315e-09
-3.34864e-09
-4.26585e-09
2.13577e-10
4.10111e-09
8.46623e-10
6.45171e-09
-3.28428e-09
3.86915e-09
-7.03658e-09
5.84294e-09
8.2235e-10
-3.26705e-09
2.55405e-09
4.81412e-09
-6.06363e-10
-2.07542e-10
-7.29706e-09
6.64144e-10
-5.50644e-09
-4.2487e-09
-1.56277e-09
1.13179e-08
-1.1751e-09
-5.85987e-09
1.52854e-09
8.87454e-09
-1.47282e-09
1.04688e-08
-2.23956e-09
3.23085e-09
-3.10669e-09
-3.07971e-10
-3.87737e-09
-3.45534e-09
-3.52196e-09
-1.911e-10
4.36176e-11
5.15651e-10
-5.22169e-10
-3.7547e-11
-1.74235e-10
-5.74191e-10
-1.02844e-09
1.77608e-09
-6.73888e-09
1.7848e-09
1.4947e-09
3.45903e-09
-6.52398e-10
-5.16771e-11
1.10838e-09
-4.0481e-10
8.61878e-11
-5.37588e-10
-2.01436e-10
-2.79029e-10
4.42228e-10
-7.77348e-11
-1.18423e-10
-3.13562e-10
-3.25083e-09
3.68264e-09
-6.02206e-09
-8.35436e-10
3.97066e-09
2.6607e-09
-4.84685e-09
-9.16821e-10
4.32287e-09
-3.58026e-09
-3.78698e-11
-4.61775e-10
-7.52204e-11
-1.83206e-10
-1.34085e-10
-1.05963e-09
4.11333e-09
-3.26053e-10
-5.2531e-10
-1.35969e-10
-1.04881e-10
-8.57915e-11
-1.81938e-10
-1.37768e-10
2.39455e-09
-3.45483e-10
-3.19598e-09
1.14623e-09
1.54264e-12
1.33295e-09
1.83172e-10
-6.34669e-10
6.37066e-10
-6.36439e-10
1.76446e-10
-1.74624e-09
5.68275e-09
2.85715e-09
-6.79352e-09
4.67096e-09
9.72995e-10
4.86691e-09
9.82624e-09
-6.47166e-09
-2.00481e-09
5.82141e-09
1.86627e-09
3.17608e-09
-5.10001e-10
6.19877e-09
-4.31147e-09
9.69722e-10
4.97275e-09
5.20455e-10
-6.26306e-10
7.52786e-09
-8.11722e-09
5.56205e-09
3.92536e-09
-2.28806e-10
5.52194e-10
4.8331e-09
4.36186e-10
5.43861e-09
1.3121e-09
7.51343e-09
-6.2809e-09
4.2057e-09
4.96751e-09
3.79091e-09
-5.59154e-09
-1.56806e-09
-6.27452e-10
7.78698e-09
-5.81745e-09
6.68704e-09
-6.46104e-09
-1.20333e-09
4.30303e-09
-8.91719e-09
4.60718e-09
6.38742e-09
-1.2198e-08
8.74763e-11
7.56257e-09
-3.04295e-09
6.32849e-09
-1.938e-09
-9.00993e-10
-1.8411e-09
9.42909e-09
1.00429e-08
9.39638e-09
-1.3052e-08
1.04893e-08
-1.34747e-09
-1.60899e-08
8.91481e-09
-1.52717e-09
8.70201e-09
3.28277e-10
-7.02177e-09
6.64913e-09
-1.88869e-09
5.60568e-09
-2.67401e-09
1.40314e-09
-4.33467e-09
1.16251e-08
-3.7342e-09
6.28951e-09
1.3113e-08
-1.49365e-08
5.86009e-09
7.54927e-09
1.75252e-09
-5.06395e-09
-3.7875e-09
1.45417e-09
7.93878e-09
-1.92219e-09
6.32264e-09
-8.1896e-09
3.95071e-09
2.44492e-11
-6.35819e-09
4.42211e-09
7.79609e-09
-6.54944e-10
-2.62489e-09
8.49958e-09
1.74132e-09
-2.0291e-08
3.60499e-09
1.66475e-08
3.85344e-11
-4.40852e-09
2.4017e-09
-1.82844e-08
1.77608e-08
-7.41013e-10
-2.14284e-08
-7.80071e-10
1.34144e-08
-1.02327e-08
-2.36259e-08
2.27901e-08
4.44067e-09
1.38177e-08
-1.96827e-08
4.56028e-09
2.12806e-08
-2.6582e-08
2.10783e-08
-1.72983e-08
-2.5214e-09
1.35264e-08
5.64227e-09
8.29421e-09
2.59862e-09
-1.22593e-08
2.08709e-08
1.41784e-08
4.67068e-09
-3.11216e-09
1.07822e-08
1.36762e-08
-3.38032e-09
-4.72574e-09
-7.87556e-11
2.56751e-08
-3.09625e-08
-2.26971e-09
2.85066e-08
-2.00028e-08
-6.28901e-09
2.29095e-08
-2.16316e-08
2.76529e-08
6.0388e-09
1.75925e-08
4.37763e-09
-2.50994e-09
1.59574e-08
1.91129e-09
2.34715e-08
1.69938e-08
4.60406e-10
4.11976e-09
3.23431e-09
-7.81429e-09
-3.78339e-09
2.01002e-09
2.23379e-09
-1.74858e-09
-6.05106e-09
4.01621e-09
-2.6839e-09
5.30275e-10
4.04848e-10
4.0777e-09
-6.67613e-09
6.71823e-09
-1.76925e-09
7.85695e-09
2.66489e-09
-6.98133e-10
-4.65065e-09
-5.82187e-09
2.43572e-09
-6.28537e-09
-2.95799e-09
7.47411e-09
-5.79892e-09
2.03106e-09
-2.51739e-09
-5.3284e-09
6.03473e-10
-1.07391e-09
-1.15668e-09
3.54157e-09
-2.99566e-09
5.67925e-10
-4.47796e-09
-3.05291e-09
8.54852e-10
2.41944e-09
-4.27427e-09
2.72364e-11
-6.58977e-09
-2.50173e-09
8.20215e-10
8.27132e-09
-9.15757e-09
1.63146e-09
9.36359e-10
-5.86544e-09
-9.18025e-09
6.67422e-10
1.43783e-08
8.98561e-09
-8.83883e-09
-6.01218e-09
3.01407e-09
-6.92207e-10
6.66377e-09
-2.89756e-09
7.84513e-09
-7.44926e-09
-6.55354e-11
8.69175e-09
-1.15238e-08
-6.00797e-09
-1.35511e-10
8.09649e-09
3.69825e-09
-2.24034e-09
-9.55437e-09
3.97829e-09
-1.88976e-09
-1.44987e-08
7.40107e-09
2.50922e-09
4.58846e-09
1.15387e-09
-1.19544e-08
-7.6051e-09
-2.53459e-09
1.09599e-08
-9.2475e-09
3.27387e-09
2.13187e-09
-2.10868e-09
3.92927e-09
-1.10008e-08
-1.31878e-08
1.6679e-08
-3.06183e-09
-1.24633e-08
1.113e-08
8.0583e-09
-3.79737e-09
1.23928e-08
-1.27354e-08
8.87249e-09
-1.1868e-08
-2.11879e-09
7.5231e-09
-1.61662e-09
-3.78769e-09
8.911e-09
-2.97518e-09
-8.0546e-09
-4.98356e-09
6.7601e-09
5.7466e-09
4.85196e-09
-9.24497e-10
4.91661e-09
-6.23816e-10
5.59151e-10
7.12772e-09
4.54898e-09
8.34123e-09
8.34884e-11
-3.59017e-09
-4.83454e-09
2.35494e-09
3.01783e-09
2.96848e-09
-1.02171e-08
6.39527e-09
6.17677e-09
-3.20129e-09
-6.93236e-09
-3.5017e-09
-4.24282e-10
3.30212e-09
7.53519e-09
-5.33868e-09
-3.81313e-09
1.16606e-08
2.26991e-09
4.56759e-09
-2.31306e-09
-5.84471e-09
5.4175e-09
1.68009e-10
-1.01791e-09
4.93362e-09
-9.03286e-10
-7.63669e-09
-2.65263e-09
-1.54546e-10
-5.86897e-09
1.21516e-08
-1.42133e-08
1.24571e-08
-1.03955e-08
-1.08968e-08
2.09257e-08
2.12253e-09
-1.83091e-08
1.93476e-08
1.50626e-08
-1.61011e-08
-4.0598e-09
-1.94298e-08
5.18044e-09
8.94025e-09
-5.14229e-10
-2.26394e-08
8.09132e-09
-1.0048e-08
2.00166e-08
-6.82884e-09
-7.3078e-10
3.06401e-08
-1.28736e-08
1.13554e-10
5.93122e-09
-1.98196e-08
6.43172e-09
2.0684e-08
-1.14159e-08
7.80162e-09
-2.23198e-08
2.26093e-08
-1.10953e-08
2.02575e-08
-1.36083e-09
-8.00428e-09
1.18932e-08
-4.91755e-09
1.0286e-09
8.96411e-09
1.24923e-09
-5.68378e-09
-4.52974e-09
2.68709e-09
2.61462e-09
3.66237e-09
1.55509e-08
-1.00928e-08
-2.16845e-09
-3.2898e-09
1.02337e-08
1.38094e-09
1.25748e-09
1.68427e-09
1.06493e-09
1.33905e-09
-1.02341e-09
-3.30231e-09
3.3192e-09
2.59745e-09
-6.79507e-10
-1.37406e-09
1.24524e-09
-8.60594e-10
1.33665e-09
1.22861e-09
7.00844e-10
-3.26673e-09
9.39433e-10
1.64174e-09
1.4982e-09
-6.11818e-09
5.86911e-09
-1.24893e-09
5.57438e-09
-4.08654e-09
1.03752e-11
-1.57653e-09
-4.94236e-09
4.00798e-10
-4.33121e-09
2.61887e-09
7.58148e-09
-2.74017e-09
3.98337e-09
-5.93538e-09
6.05659e-09
1.1381e-09
-1.25926e-09
-5.10752e-09
-1.97014e-09
1.1423e-09
-9.82085e-09
5.51711e-09
-6.67417e-10
4.97124e-09
-3.95497e-09
-4.31183e-09
-1.554e-09
-1.24628e-09
-4.28516e-09
1.37063e-09
1.9458e-09
-1.9024e-09
1.00384e-08
-1.20617e-08
6.28567e-09
5.10871e-09
5.95249e-09
-7.09982e-09
-9.894e-11
-4.33268e-09
9.62678e-10
-2.692e-09
-5.0838e-09
9.46709e-09
4.13198e-09
-2.07501e-08
3.42758e-09
9.25381e-09
8.06879e-09
-1.97911e-08
2.12851e-08
1.27712e-08
-1.42652e-08
-2.88607e-08
-5.19459e-09
1.42644e-08
-4.44917e-09
-7.73763e-09
-8.56332e-09
-1.50293e-08
3.92416e-10
1.90776e-08
-1.37627e-08
-1.95471e-08
1.81303e-08
1.02651e-08
-6.61663e-10
-2.77333e-08
-7.17411e-09
-1.17996e-09
2.64847e-08
-1.06716e-08
-1.13261e-08
-3.16705e-08
1.14418e-08
-5.6889e-09
1.03519e-08
-1.61048e-08
-1.85525e-09
1.36895e-08
6.16596e-09
3.36515e-09
-1.52199e-08
6.35302e-09
-2.04227e-09
-4.96577e-09
1.16172e-08
-1.16854e-09
-5.48272e-09
-6.93378e-09
1.12625e-08
-9.29442e-09
2.08223e-09
4.33712e-09
5.19775e-09
-1.09332e-08
1.11193e-08
1.35034e-08
4.14052e-09
-4.72187e-09
-2.31621e-09
3.99959e-09
-7.05208e-09
5.36929e-09
4.28339e-09
-7.91324e-09
1.31357e-09
-6.58271e-10
8.94122e-09
4.77839e-09
-8.34701e-09
1.34764e-08
-8.29194e-09
7.64551e-09
-1.16531e-08
7.40792e-09
8.58229e-09
4.97046e-10
-8.87635e-10
8.27634e-09
-2.12647e-09
-1.17037e-08
5.55386e-09
1.5026e-08
1.12639e-08
-2.34496e-09
1.94077e-09
5.72736e-11
-1.12344e-08
5.30572e-09
-7.98842e-09
4.69012e-09
-9.34936e-09
-1.47544e-08
-1.43864e-08
-9.6679e-09
1.73728e-09
-5.99325e-09
-6.97806e-09
-8.32767e-09
-6.27778e-09
-5.05418e-09
-3.5145e-09
2.16866e-09
5.34728e-09
-1.35087e-08
-1.55171e-08
9.35815e-09
-9.05594e-09
-1.62426e-08
7.11672e-09
1.67712e-08
1.82351e-09
-1.24238e-08
-8.43884e-09
-1.04971e-09
1.66052e-08
-9.52829e-10
-5.66263e-09
-7.26184e-09
4.11345e-09
4.4185e-09
-1.27031e-09
-7.61184e-10
-3.25327e-09
1.14723e-08
-7.45796e-09
-5.53034e-09
-2.49275e-09
-1.47398e-08
-5.97598e-09
-5.27872e-09
9.42664e-09
-8.70065e-09
6.94444e-09
-3.77419e-09
6.04102e-09
-1.37274e-08
-1.01424e-09
-6.62858e-09
5.46322e-09
4.02132e-10
1.56159e-10
7.17975e-10
5.15856e-09
2.4961e-09
-1.10163e-08
3.36165e-09
6.59015e-09
6.4551e-09
-7.88668e-09
3.47822e-10
1.59067e-08
-8.79959e-09
-7.45499e-09
1.28924e-08
-5.9544e-09
7.26079e-09
3.87659e-09
4.76927e-09
4.36456e-09
-6.05099e-09
8.94724e-09
2.48453e-09
-2.72668e-09
-7.1912e-09
7.43329e-09
-8.88717e-10
7.73781e-09
-7.75506e-10
2.88232e-09
5.47136e-09
-7.57817e-09
-8.36088e-09
4.85865e-09
-8.34141e-09
5.02682e-09
8.23636e-10
-4.64829e-09
-3.9639e-09
7.7885e-09
-7.46657e-09
8.83335e-10
-1.77769e-09
9.61133e-09
-4.54987e-09
1.39366e-09
6.13484e-09
-1.24383e-08
4.74282e-10
6.36711e-09
-3.40854e-09
5.40213e-09
2.61031e-09
-4.81688e-09
-4.03265e-09
7.10384e-09
4.81623e-09
-2.30876e-09
4.16958e-09
8.05947e-10
1.03481e-08
-1.08755e-08
-2.78512e-10
9.25443e-09
-9.70783e-09
1.25931e-09
-5.0647e-09
1.8743e-09
1.24448e-08
-5.63315e-10
5.8467e-09
5.19175e-09
-2.18229e-09
-5.74112e-09
2.73161e-09
-1.55694e-09
8.62299e-09
-3.05511e-09
-2.4932e-09
3.99135e-09
-5.23962e-09
2.21826e-12
4.97194e-09
-7.92641e-10
-1.38872e-08
-1.41667e-09
8.01065e-10
-1.026e-08
-7.66509e-09
9.2374e-09
-4.22438e-09
2.65206e-09
5.68903e-09
-6.62447e-09
-6.72963e-09
-2.84486e-09
2.07566e-09
-5.95767e-09
2.90115e-09
-3.78972e-09
7.06943e-09
1.69635e-09
2.02944e-10
-1.33235e-09
-4.30869e-09
4.65842e-10
-8.42266e-09
5.88665e-09
-7.37741e-09
1.95661e-09
3.82603e-09
-7.84268e-10
2.82742e-10
3.87227e-09
-1.43601e-08
1.59871e-08
-8.6497e-09
1.52248e-08
2.06106e-08
-1.05156e-08
-6.99102e-10
-9.39598e-09
-3.12022e-10
-1.2928e-08
4.59028e-09
-2.11057e-08
6.43354e-09
2.59926e-08
-1.79729e-08
-1.1088e-08
3.06821e-09
8.44788e-09
6.84112e-09
1.07036e-08
1.61304e-08
-1.1234e-08
1.28968e-08
-1.21783e-08
3.66271e-09
-2.3485e-08
8.58822e-09
2.50428e-10
-8.45936e-09
2.64423e-09
-4.62162e-09
-7.0454e-09
-1.17094e-08
5.93775e-09
-9.3689e-09
-5.68753e-09
-1.27516e-08
3.62833e-09
-9.8521e-09
5.74651e-09
4.77272e-10
1.11422e-09
-5.40339e-09
7.91752e-09
3.29407e-09
-6.84122e-09
-3.79378e-09
7.34094e-09
-2.08943e-09
5.67355e-09
-2.90067e-10
-2.5528e-09
3.52732e-09
-2.63013e-09
-3.68155e-10
-6.17971e-09
4.45263e-09
-3.62371e-10
-1.05967e-08
8.08056e-09
-7.9646e-09
-6.76289e-09
-6.18992e-10
-4.57757e-09
-4.65553e-09
3.21348e-09
-8.5678e-09
1.46443e-09
3.88985e-09
3.82986e-09
-3.56779e-09
2.9514e-09
-3.63035e-09
-2.35109e-08
1.83805e-08
8.17747e-09
-3.04701e-09
-2.17248e-08
2.20853e-08
-2.38715e-08
2.15167e-08
-1.1796e-08
-2.48776e-08
6.99783e-09
1.42233e-09
9.45658e-09
-4.29773e-08
1.1899e-08
1.17097e-08
-1.4152e-08
-2.28336e-08
2.19965e-08
6.24954e-09
1.8484e-08
1.59243e-09
1.72246e-08
-1.35255e-08
-2.93094e-09
5.96568e-09
3.44682e-09
-1.5406e-09
6.55434e-09
4.34078e-09
-9.35465e-09
5.11657e-09
3.21199e-09
-9.86922e-09
6.38309e-09
-1.1549e-08
8.46568e-09
-3.29972e-09
-4.29097e-09
1.03387e-08
3.35371e-10
-5.49926e-10
7.72332e-09
-6.1908e-10
6.08906e-09
-1.52241e-09
-5.6754e-09
-2.90522e-09
-2.96839e-09
7.64832e-09
-7.23466e-09
5.17025e-09
-1.81298e-09
1.95524e-09
6.25547e-09
-4.99876e-09
7.96945e-09
-1.67344e-09
-8.17975e-10
5.61444e-09
5.54223e-09
3.44951e-09
4.1982e-09
9.84178e-09
-3.85491e-09
-8.16671e-10
8.983e-09
-5.63276e-09
-3.50489e-09
3.92431e-09
-3.85597e-09
3.4365e-09
6.01832e-09
-5.40224e-10
5.07793e-09
4.38989e-09
8.69393e-09
3.08297e-10
9.79583e-09
5.66037e-09
6.04093e-09
-2.17252e-09
3.05685e-09
1.05663e-09
4.60918e-09
4.48855e-09
-1.67651e-10
5.01145e-09
-3.53518e-09
-1.30867e-09
5.29233e-09
-4.35459e-09
-1.10544e-09
6.31917e-09
4.44209e-09
-2.23791e-09
-8.52338e-09
7.49258e-09
3.2517e-10
-1.49859e-09
-3.78363e-09
-6.76465e-10
9.47151e-09
-4.70456e-09
6.21323e-09
-3.50769e-09
3.74206e-09
-4.58899e-09
3.69685e-10
5.4844e-09
1.63848e-09
1.2766e-09
3.80281e-09
-9.54843e-09
-4.82886e-09
6.37892e-09
-1.22495e-09
4.44174e-09
-5.46782e-09
-1.23922e-09
2.76654e-10
-3.15458e-09
5.11633e-09
4.41709e-09
4.79353e-11
9.92425e-09
-1.39512e-08
-1.0158e-08
1.0898e-08
1.32111e-08
7.83943e-09
-1.32435e-08
-8.54733e-09
-9.35348e-09
2.36491e-09
-2.08614e-09
9.07467e-09
-1.73668e-09
2.22542e-10
7.30484e-09
-3.27259e-09
-1.72759e-08
-2.80663e-09
-4.65539e-11
4.94288e-09
-7.47411e-09
7.94454e-10
-3.48041e-09
-2.34208e-09
-7.28092e-09
6.39481e-09
2.12068e-09
-1.17881e-08
2.97522e-09
-4.05455e-09
-7.92325e-09
-3.16549e-09
6.63371e-09
-8.89785e-09
4.38478e-09
-4.39821e-09
-5.4985e-10
-4.20471e-09
4.17102e-09
-7.12452e-09
7.15819e-09
-1.96923e-09
4.83136e-09
-1.0337e-08
5.72942e-09
-2.23725e-10
2.43952e-09
2.79315e-11
3.18833e-09
-1.07387e-09
3.25025e-10
-1.56876e-10
5.66667e-09
4.3214e-09
7.48677e-09
-6.31187e-09
-5.49633e-09
2.93206e-09
3.15441e-10
2.79945e-09
-3.73068e-09
1.38838e-09
-3.70248e-09
6.34502e-09
2.49747e-09
-3.44249e-10
-5.88394e-09
6.49489e-09
3.48933e-09
5.72448e-09
6.72186e-09
4.39585e-09
-4.13624e-09
-6.9815e-09
4.6208e-09
1.90589e-09
1.95169e-10
-1.02699e-08
8.18526e-09
6.70536e-09
-1.32722e-09
-4.54681e-09
5.48651e-09
1.73067e-10
4.60912e-09
-3.92993e-09
4.80731e-09
6.28399e-09
2.31009e-10
8.93808e-09
-5.60798e-09
-4.65736e-09
-1.24742e-09
6.28576e-09
1.24562e-09
1.60603e-08
-4.21469e-09
1.99715e-10
6.73812e-09
1.43854e-08
-5.46438e-09
1.60197e-09
9.23807e-09
-5.37569e-09
-5.07259e-09
2.49187e-09
-2.88369e-09
-2.28396e-08
-2.75275e-10
8.15798e-09
1.49568e-08
-1.24434e-09
-1.23648e-08
-4.25417e-09
-3.18368e-09
9.0398e-09
-3.87208e-11
4.83364e-09
4.54684e-09
7.71362e-09
4.34387e-09
-8.68112e-09
1.36554e-08
-5.58133e-09
3.27768e-09
-7.08696e-09
7.72062e-09
-3.91135e-09
-5.5209e-09
3.91192e-10
-4.36541e-09
9.4951e-09
4.96165e-09
-7.56782e-09
-2.91472e-09
8.6305e-09
-1.08046e-08
1.18064e-08
-1.75001e-09
7.48189e-10
4.60691e-09
-4.33942e-09
-1.1072e-08
-5.11845e-10
-2.67814e-09
-7.16501e-09
5.67979e-09
-2.88019e-09
6.65201e-09
-2.55699e-09
1.08906e-08
7.73011e-09
-1.28284e-08
-1.18491e-09
-8.39818e-09
8.07457e-09
-1.51765e-09
7.73361e-09
-4.65445e-09
-1.14774e-08
1.05894e-08
1.50112e-09
-4.35692e-09
1.02391e-08
8.42488e-09
1.19112e-09
-1.23066e-08
7.51462e-09
-2.80048e-10
3.00455e-09
-2.33285e-11
1.19704e-08
-4.43243e-09
5.85722e-09
4.41424e-09
-9.08042e-09
6.57975e-09
-1.35005e-09
2.43297e-09
-5.70776e-09
3.53421e-09
-2.59357e-10
2.8746e-09
-6.3708e-09
5.92918e-09
-6.60315e-09
9.45445e-09
-8.06742e-09
1.18423e-09
3.5511e-09
7.57723e-09
-6.71413e-09
8.62707e-09
-3.57485e-09
2.83821e-09
-1.96634e-09
-3.62224e-09
8.96422e-11
-3.90249e-09
4.46218e-09
5.24588e-11
-2.3918e-09
5.23822e-10
7.73051e-09
-1.918e-09
-1.77788e-09
6.81728e-09
1.9064e-09
8.01222e-09
1.14822e-08
-9.42818e-09
-6.6918e-09
1.25234e-10