/*--------------------------------*- C++ -*----------------------------------*\
| =========                 |                                                 |
| \\      /  F ield         | OpenFOAM: The Open Source CFD Toolbox           |
|  \\    /   O peration     | Version:  v1612+                                |
|   \\  /    A nd           | Web:      www.OpenFOAM.com                      |
|    \\/     M anipulation  |                                                 |
\*---------------------------------------------------------------------------*/
FoamFile
{
    version     2.0;
    format      ascii;
    class       volVectorField;
    location    "150";
    object      U;
}
// * * * * * * * * * * * * * * * * * * * * * * * * * * * * * * * * * * * * * //

dimensions      [0 1 -1 0 0 0 0];

internalField   nonuniform List<vector> 
16780
(
(0.616597 0.710556 0.230699)
(0.646579 0.67457 0.192454)
(0.614341 0.650338 0.13525)
(0.614724 0.666785 0.133628)
(0.621903 0.702712 0.153079)
(0.628559 0.652583 0.154343)
(0.619094 0.727308 0.195226)
(0.601496 0.727577 0.240835)
(0.634085 0.683105 0.210269)
(0.632321 0.674349 0.142222)
(0.598802 0.763578 0.191971)
(0.596508 0.725752 0.234001)
(0.586109 0.766225 0.200432)
(0.584574 0.759461 0.198658)
(0.572091 0.764591 0.235313)
(0.645564 0.664145 0.179398)
(0.634009 0.693118 0.155175)
(0.0991229 0.0901764 0.0226746)
(0.076983 0.0767869 0.0169373)
(0.122204 0.140953 0.0156639)
(0.110954 0.125733 0.0132354)
(0.0704222 0.127751 0.0164965)
(0.0571522 0.0997987 0.0126554)
(0.128463 0.149486 0.0110748)
(0.0849815 0.121201 0.0161244)
(0.0588209 0.0818675 0.0159249)
(0.096551 0.150708 0.0159598)
(0.270519 0.232251 0.12984)
(0.310907 0.293791 0.145779)
(0.291379 0.271204 0.1407)
(0.261711 0.220654 0.128274)
(0.345284 0.350457 0.15312)
(0.315068 0.30007 0.143184)
(0.346771 0.348472 0.149279)
(0.276067 0.258994 0.0975968)
(0.258704 0.230956 0.115602)
(0.217892 0.175304 0.105207)
(0.301046 0.281019 0.112572)
(0.198099 0.173477 0.069883)
(0.191704 0.14953 0.0782315)
(0.251194 0.231804 0.0963105)
(0.505559 0.637825 0.252983)
(0.465907 0.574911 0.222952)
(0.480331 0.610654 0.246769)
(0.479777 0.609394 0.252004)
(0.476854 0.621259 0.235378)
(0.456042 0.570592 0.218454)
(0.51264 0.661245 0.266809)
(0.490651 0.618066 0.245948)
(0.457575 0.577751 0.210004)
(0.441347 0.562404 0.198185)
(0.397906 0.519084 0.187296)
(0.501747 0.66521 0.262503)
(0.483167 0.633264 0.239459)
(0.524179 0.69694 0.268287)
(0.493937 0.653502 0.227544)
(0.384009 0.498217 0.178335)
(0.611943 0.65067 0.128833)
(0.583538 0.605587 0.1306)
(0.560108 0.533149 0.125272)
(0.580201 0.565066 0.139157)
(0.627547 0.688906 0.154943)
(0.636794 0.648742 0.173698)
(0.634543 0.6464 0.177516)
(0.630097 0.653563 0.136629)
(0.642948 0.601048 0.155611)
(0.634008 0.598658 0.155858)
(0.583184 0.579774 0.123923)
(0.605052 0.591701 0.132338)
(0.555807 0.496901 0.216232)
(0.513446 0.483636 0.204149)
(0.619294 0.579647 0.258182)
(0.632694 0.556289 0.247343)
(0.581127 0.528628 0.241006)
(0.558276 0.497726 0.210771)
(0.504587 0.47224 0.181315)
(0.616732 0.56617 0.277847)
(0.629128 0.509588 0.189642)
(0.620589 0.505918 0.172485)
(0.528664 0.679804 0.222973)
(0.555861 0.726089 0.242591)
(0.546089 0.703901 0.236279)
(0.511154 0.64135 0.216307)
(0.558608 0.757839 0.24078)
(0.554121 0.762629 0.244757)
(0.557651 0.707656 0.239926)
(0.534965 0.671103 0.227248)
(0.507519 0.635133 0.212926)
(0.562688 0.740812 0.265803)
(0.550103 0.699361 0.242912)
(0.561662 0.69681 0.251788)
(0.548873 0.671576 0.239079)
(0.558212 0.736751 0.268033)
(0.308334 0.378607 0.107801)
(0.307706 0.38395 0.108684)
(0.254889 0.341565 0.0983211)
(0.240159 0.331356 0.0960094)
(0.269773 0.370566 0.111816)
(0.246147 0.343302 0.108413)
(0.23081 0.319836 0.0974126)
(0.555331 0.730208 0.212597)
(0.56911 0.753748 0.214698)
(0.590568 0.759679 0.194651)
(0.569526 0.73277 0.195508)
(0.581463 0.783283 0.206562)
(0.580986 0.840708 0.208246)
(0.569166 0.745513 0.199922)
(0.552571 0.724317 0.199563)
(0.565357 0.730891 0.20153)
(0.549599 0.704311 0.19001)
(0.603082 0.769549 0.187288)
(0.586231 0.755861 0.191044)
(0.591917 0.776358 0.190582)
(0.595323 0.861115 0.176252)
(0.615682 0.850234 0.155818)
(0.614398 0.872786 0.162761)
(0.621232 0.853311 0.14993)
(0.611853 0.849173 0.177664)
(0.584847 0.825724 0.199543)
(0.610037 0.823118 0.172471)
(0.606816 0.79886 0.200975)
(0.646235 0.786414 0.232528)
(0.665893 0.790865 0.217148)
(0.648505 0.757721 0.220724)
(0.641218 0.711243 0.200749)
(0.638331 0.808198 0.272888)
(0.641208 0.818087 0.272371)
(0.638576 0.839566 0.298458)
(0.641805 0.738266 0.262212)
(0.623008 0.789788 0.302939)
(0.621183 0.809955 0.308567)
(0.637759 0.794304 0.307737)
(0.49365 0.53332 0.183806)
(0.521453 0.543985 0.19073)
(0.538472 0.593043 0.239441)
(0.403413 0.427601 0.135304)
(0.435289 0.453525 0.141683)
(0.417645 0.453358 0.145274)
(0.542269 0.600282 0.224602)
(0.490039 0.514168 0.164622)
(0.40181 0.440953 0.118623)
(0.349976 0.395901 0.100681)
(0.477754 0.496505 0.160874)
(0.539357 0.580425 0.191476)
(0.434056 0.456922 0.136502)
(0.629875 0.849944 0.292494)
(0.622442 0.831909 0.319114)
(0.615346 0.827029 0.312601)
(0.5996 0.851305 0.350774)
(0.63278 0.868102 0.275706)
(0.641229 0.874912 0.249171)
(0.637168 0.883327 0.272455)
(0.63004 0.879261 0.277277)
(0.611945 0.839111 0.348338)
(0.600679 0.830142 0.369592)
(0.617992 0.82318 0.302634)
(0.594188 0.839243 0.364798)
(0.609161 0.843702 0.292179)
(0.627832 0.859322 0.277476)
(0.609044 0.848618 0.33565)
(0.594255 0.816133 0.365629)
(0.59965 0.859902 0.343854)
(0.617882 0.84105 0.282377)
(0.599174 0.85177 0.345375)
(0.481395 0.77763 0.25426)
(0.4535 0.811247 0.249093)
(0.533231 0.730028 0.212112)
(0.568724 0.695543 0.205864)
(0.469266 0.768198 0.193013)
(0.487595 0.770746 0.17458)
(0.487705 0.758213 0.172334)
(0.54172 0.718904 0.153515)
(0.583741 0.66878 0.165545)
(0.476711 0.77223 0.189449)
(0.544342 0.709484 0.158229)
(0.546621 0.704435 0.149898)
(0.53029 0.717854 0.150121)
(0.626392 0.849034 0.183945)
(0.625319 0.861393 0.197034)
(0.623477 0.83897 0.193521)
(0.632142 0.85457 0.179168)
(0.589515 0.803809 0.217297)
(0.607847 0.873528 0.199579)
(0.601859 0.853591 0.209886)
(0.599456 0.856431 0.23784)
(0.608838 0.862262 0.227256)
(0.573692 0.869049 0.253215)
(0.602698 0.860821 0.209828)
(0.601459 0.85028 0.217819)
(0.618832 0.874078 0.211467)
(0.584756 0.868849 0.268884)
(0.601762 0.868777 0.254824)
(0.599185 0.85727 0.232193)
(0.608469 0.876583 0.245639)
(0.532463 0.803502 0.345329)
(0.500513 0.820148 0.337648)
(0.552649 0.797951 0.282285)
(0.671958 0.716494 0.262283)
(0.672346 0.706772 0.262754)
(0.582177 0.768553 0.314402)
(0.485164 0.828162 0.377414)
(0.450093 0.855481 0.380225)
(0.540572 0.810338 0.335918)
(0.446105 0.841409 0.38752)
(0.536409 0.824683 0.300925)
(0.488681 0.840765 0.358936)
(0.444003 0.861376 0.396054)
(0.469261 0.850233 0.377162)
(0.620952 0.756253 0.278209)
(0.471658 0.615888 0.251252)
(0.483377 0.607308 0.261219)
(0.511735 0.717797 0.238768)
(0.529057 0.753053 0.251711)
(0.535432 0.749942 0.256991)
(0.505038 0.714787 0.234238)
(0.523303 0.709354 0.249115)
(0.44201 0.55355 0.221862)
(0.464911 0.583207 0.237712)
(0.453525 0.594338 0.251216)
(0.532673 0.761499 0.237932)
(0.526797 0.778662 0.246095)
(0.523743 0.74884 0.244484)
(0.536192 0.783804 0.250037)
(0.53715 0.727494 0.246161)
(0.501426 0.699557 0.241342)
(0.555356 0.750823 0.305137)
(0.536286 0.791166 0.315049)
(0.552411 0.768862 0.304912)
(0.532933 0.809372 0.300956)
(0.558151 0.782712 0.257655)
(0.551277 0.788633 0.250681)
(0.549993 0.803958 0.245475)
(0.552513 0.795834 0.241126)
(0.549314 0.794382 0.243815)
(0.549904 0.876477 0.253533)
(0.540945 0.895212 0.234879)
(0.592088 0.879607 0.173722)
(0.547978 0.847316 0.26036)
(0.531525 0.893415 0.235093)
(0.557269 0.854921 0.225127)
(0.55124 0.877644 0.211189)
(0.568805 0.872687 0.193519)
(0.565357 0.814238 0.234147)
(0.559723 0.826447 0.229525)
(0.528022 0.73593 0.249039)
(0.50143 0.66761 0.24323)
(0.507974 0.680806 0.250199)
(0.513417 0.699906 0.241119)
(0.532818 0.759783 0.242106)
(0.531054 0.74639 0.242221)
(0.53222 0.800358 0.259822)
(0.539882 0.778763 0.237043)
(0.526812 0.806029 0.289165)
(0.536018 0.798199 0.253828)
(0.528963 0.798372 0.311079)
(0.52405 0.806734 0.312263)
(0.518896 0.725556 0.265796)
(0.527951 0.770061 0.261752)
(0.504311 0.690273 0.254779)
(0.537852 0.780452 0.265831)
(0.515929 0.783199 0.283104)
(0.536466 0.733096 0.299676)
(0.534663 0.763737 0.305775)
(0.505219 0.685547 0.27537)
(0.513736 0.691059 0.266208)
(0.524767 0.73452 0.291624)
(0.519131 0.722065 0.273148)
(0.520465 0.720011 0.273693)
(0.494743 0.648788 0.192555)
(0.431215 0.557184 0.175879)
(0.512678 0.666899 0.20318)
(0.471062 0.605292 0.205402)
(0.446558 0.568801 0.190377)
(0.486202 0.632038 0.22301)
(0.459601 0.588026 0.193464)
(0.482015 0.627627 0.223058)
(0.524217 0.688841 0.185627)
(0.473065 0.615953 0.182851)
(0.535362 0.724739 0.223794)
(0.537227 0.719255 0.246946)
(0.524955 0.704928 0.241787)
(0.522857 0.682049 0.210732)
(0.542023 0.720343 0.212995)
(0.54594 0.729223 0.267913)
(0.468321 0.604546 0.188733)
(0.605058 0.841698 0.356283)
(0.624785 0.856026 0.315873)
(0.585204 0.821242 0.278289)
(0.583889 0.795901 0.281862)
(0.590108 0.805932 0.325851)
(0.627544 0.849535 0.309892)
(0.597272 0.821018 0.273327)
(0.583883 0.799486 0.270018)
(0.599651 0.827583 0.271997)
(0.62436 0.858492 0.257766)
(0.613534 0.833954 0.250758)
(0.578227 0.815868 0.262523)
(0.637083 0.871123 0.239415)
(0.607021 0.831735 0.230328)
(0.644862 0.885002 0.254721)
(0.582571 0.849792 0.214999)
(0.617273 0.858519 0.173135)
(0.621832 0.835807 0.128076)
(0.62013 0.844217 0.165551)
(0.610395 0.868043 0.145324)
(0.624616 0.841774 0.142314)
(0.616044 0.855183 0.157456)
(0.633408 0.844474 0.134854)
(0.621647 0.83201 0.159964)
(0.558111 0.796423 0.230373)
(0.545744 0.795928 0.254658)
(0.555204 0.803598 0.240809)
(0.597875 0.780206 0.183537)
(0.589461 0.790558 0.197024)
(0.541024 0.826966 0.308597)
(0.560209 0.835051 0.276562)
(0.536098 0.828993 0.322526)
(0.547715 0.821805 0.278157)
(0.58294 0.812166 0.228161)
(0.606467 0.763329 0.18729)
(0.60144 0.769133 0.218365)
(0.534843 0.837754 0.316647)
(0.532206 0.835576 0.333327)
(0.562156 0.821387 0.271401)
(0.586007 0.794585 0.268108)
(0.528372 0.828034 0.33124)
(0.547379 0.827282 0.288976)
(0.50487 0.467093 0.176115)
(0.541296 0.498956 0.183058)
(0.590305 0.568929 0.227891)
(0.625814 0.606319 0.24259)
(0.631503 0.606267 0.252545)
(0.626864 0.573541 0.226055)
(0.515604 0.471231 0.173957)
(0.46005 0.43243 0.161743)
(0.526676 0.491486 0.200936)
(0.560562 0.515406 0.20999)
(0.596061 0.553027 0.22063)
(0.551888 0.533524 0.221546)
(0.552832 0.527569 0.210785)
(0.568155 0.543458 0.221009)
(0.462804 0.44745 0.173319)
(0.420864 0.406101 0.153819)
(0.465303 0.459484 0.183298)
(0.489996 0.4832 0.199174)
(0.523239 0.79938 0.389879)
(0.507216 0.820994 0.369701)
(0.497055 0.839369 0.406977)
(0.528305 0.816764 0.389871)
(0.479232 0.832859 0.375062)
(0.449606 0.809312 0.357992)
(0.452598 0.844104 0.378602)
(0.482367 0.842637 0.399096)
(0.468004 0.858769 0.414649)
(0.543422 0.813395 0.373012)
(0.478603 0.830322 0.400811)
(0.472336 0.83833 0.350149)
(0.440566 0.840815 0.382127)
(0.444239 0.861717 0.403449)
(0.425797 0.862969 0.403332)
(0.447049 0.881381 0.428951)
(0.472489 0.814399 0.372819)
(0.479563 0.807168 0.396643)
(0.523634 0.782115 0.332917)
(0.567599 0.719397 0.340488)
(0.457141 0.8314 0.378425)
(0.549985 0.719453 0.325914)
(0.588366 0.702378 0.282204)
(0.561418 0.745277 0.262555)
(0.478674 0.802319 0.406513)
(0.464476 0.823325 0.380624)
(0.48557 0.779981 0.382936)
(0.534685 0.724922 0.375614)
(0.582947 0.715122 0.319958)
(0.602555 0.693982 0.253088)
(0.608007 0.686434 0.258494)
(0.492243 0.812734 0.342322)
(0.46378 0.840743 0.344401)
(0.125037 0.259774 0.0336934)
(0.125493 0.267611 0.0548361)
(0.168465 0.273669 0.0343224)
(0.197766 0.288617 0.0455993)
(0.286693 0.408629 0.103225)
(0.313735 0.438222 0.111368)
(0.123501 0.301486 0.0798918)
(0.127598 0.288439 0.0553933)
(0.182896 0.381433 0.083811)
(0.219506 0.428216 0.128204)
(0.210898 0.408807 0.113611)
(0.230713 0.363654 0.0569109)
(0.302924 0.41925 0.0994779)
(0.256044 0.349423 0.0766068)
(0.183438 0.39346 0.10498)
(0.161418 0.372748 0.0894743)
(0.160812 0.346614 0.0816865)
(0.159295 0.363817 0.0967306)
(0.192817 0.413568 0.112205)
(0.260986 0.408742 0.096971)
(0.224278 0.435418 0.121134)
(0.412631 0.567217 0.212773)
(0.431507 0.575268 0.223236)
(0.529706 0.560292 0.16783)
(0.490171 0.548778 0.170749)
(0.477436 0.60638 0.218327)
(0.439366 0.581251 0.21567)
(0.560416 0.588535 0.160359)
(0.468278 0.597342 0.224689)
(0.450506 0.583835 0.215075)
(0.425051 0.573606 0.216248)
(0.493741 0.572191 0.184441)
(0.524458 0.600225 0.182011)
(0.565616 0.621255 0.167074)
(0.475547 0.603993 0.217927)
(0.505658 0.660152 0.26533)
(0.492708 0.6355 0.251905)
(0.478396 0.573618 0.232507)
(0.479472 0.579076 0.233482)
(0.506242 0.657893 0.267068)
(0.473154 0.548362 0.228503)
(0.554761 0.727767 0.304575)
(0.545363 0.733075 0.29747)
(0.508834 0.61212 0.254361)
(0.530067 0.663678 0.27973)
(0.476449 0.585164 0.237929)
(0.469916 0.563492 0.223286)
(0.473765 0.552314 0.219649)
(0.548598 0.667738 0.278344)
(0.485659 0.565352 0.240265)
(0.420018 0.462489 0.190637)
(0.5509 0.658632 0.256998)
(0.531649 0.640772 0.238118)
(0.558426 0.676808 0.251911)
(0.52322 0.624954 0.231502)
(0.558279 0.626206 0.26621)
(0.556378 0.641857 0.259566)
(0.569461 0.682037 0.266355)
(0.566531 0.689596 0.258415)
(0.548969 0.663772 0.2436)
(0.554791 0.637332 0.270989)
(0.556663 0.656298 0.267044)
(0.559059 0.688251 0.275488)
(0.55711 0.672171 0.289573)
(0.560121 0.681853 0.285015)
(0.548049 0.714228 0.28279)
(0.591957 0.534769 0.16515)
(0.617416 0.54812 0.178173)
(0.654779 0.631588 0.194008)
(0.648415 0.61752 0.205723)
(0.588044 0.524556 0.162084)
(0.545009 0.49301 0.144706)
(0.642666 0.575938 0.168406)
(0.606593 0.569857 0.166961)
(0.595496 0.565972 0.148692)
(0.639138 0.639 0.185251)
(0.653656 0.632252 0.19868)
(0.579385 0.531345 0.161994)
(0.552661 0.51504 0.144753)
(0.618851 0.588564 0.15457)
(0.582969 0.53778 0.157571)
(0.0311425 0.0375237 0.00803823)
(0.0694702 0.0773082 0.000200656)
(0.342906 0.302959 0.0456466)
(0.0790602 0.0863412 0.0190587)
(0.0230202 0.0385475 -0.00458256)
(0.00353125 0.0207134 -0.00617834)
(0.228336 0.228974 0.0412639)
(0.319715 0.295959 0.0488902)
(0.31101 0.272759 0.0331442)
(0.216311 0.187979 0.0185552)
(0.0125186 0.0565736 -0.0182172)
(-0.00802097 0.0232614 -0.0164605)
(0.200537 0.168296 0.00323175)
(0.0501297 0.0665416 -0.00641435)
(0.0158728 0.043323 -0.0201413)
(0.00179398 0.0299682 -0.0198837)
(0.155561 0.170872 0.00832429)
(0.142477 0.155328 -0.000431104)
(0.0425758 0.0710457 -0.0217015)
(0.0149677 0.0525501 -0.0178218)
(0.0472443 0.0883643 -0.0172641)
(0.622847 0.484814 0.192468)
(0.565439 0.479583 0.193054)
(0.568162 0.521177 0.218128)
(0.594952 0.494083 0.196733)
(0.549068 0.478155 0.188297)
(0.624991 0.531393 0.214798)
(0.50564 0.504565 0.204659)
(0.563318 0.524985 0.228714)
(0.491636 0.475187 0.188477)
(0.624578 0.502353 0.207826)
(0.638812 0.532453 0.223283)
(0.632001 0.540922 0.249743)
(0.578338 0.495868 0.205243)
(0.632592 0.638027 0.178832)
(0.611532 0.668778 0.18813)
(0.597353 0.650632 0.200232)
(0.571709 0.675399 0.254875)
(0.627863 0.598953 0.2277)
(0.626402 0.613427 0.184459)
(0.567365 0.711831 0.229554)
(0.550696 0.703763 0.268868)
(0.52981 0.73413 0.283927)
(0.552218 0.698645 0.297953)
(0.530833 0.721048 0.302567)
(0.639175 0.601048 0.175617)
(0.656499 0.602354 0.183677)
(0.605182 0.622413 0.255418)
(0.552999 0.706005 0.282583)
(0.611011 0.619315 0.270897)
(0.624847 0.593718 0.25835)
(0.63448 0.639578 0.199253)
(0.59072 0.681017 0.235051)
(0.643979 0.596666 0.179922)
(0.649282 0.593222 0.224021)
(0.652923 0.569788 0.206295)
(0.614584 0.652343 0.248281)
(0.560897 0.698899 0.287707)
(0.587935 0.758788 0.355017)
(0.582438 0.762675 0.359553)
(0.541649 0.800619 0.393319)
(0.586548 0.745242 0.375071)
(0.546862 0.809744 0.369241)
(0.535123 0.823061 0.386691)
(0.534159 0.811641 0.427572)
(0.564613 0.77322 0.39735)
(0.594294 0.751948 0.348664)
(0.591527 0.749288 0.368819)
(0.546889 0.814359 0.381172)
(0.542505 0.83184 0.383781)
(0.564001 0.776483 0.410432)
(0.555413 0.818282 0.370565)
(0.560848 0.831271 0.385808)
(0.571954 0.819508 0.384114)
(0.564063 0.823442 0.400656)
(0.571416 0.81641 0.404949)
(0.582427 0.759518 0.39396)
(0.569366 0.783643 0.39266)
(0.577308 0.798072 0.399192)
(0.574719 0.773743 0.39266)
(0.536924 0.687624 0.205331)
(0.539542 0.658535 0.216963)
(0.539318 0.643513 0.213428)
(0.534098 0.620165 0.212361)
(0.543961 0.690466 0.222939)
(0.545523 0.666053 0.223054)
(0.543112 0.626388 0.210394)
(0.539733 0.652642 0.206159)
(0.551149 0.628363 0.220735)
(0.549324 0.626222 0.218266)
(0.539522 0.61257 0.215688)
(0.549278 0.629023 0.217334)
(0.530725 0.616841 0.204024)
(0.541302 0.666222 0.228271)
(0.543683 0.633582 0.201445)
(0.537151 0.617358 0.204493)
(0.478654 0.588003 0.243585)
(0.47173 0.576859 0.243041)
(0.492554 0.597471 0.255107)
(0.454222 0.556417 0.235801)
(0.436917 0.527009 0.227611)
(0.478031 0.580041 0.242755)
(0.507567 0.604652 0.259942)
(0.470755 0.583095 0.245178)
(0.506847 0.641259 0.262592)
(0.502729 0.625026 0.25915)
(0.52211 0.715859 0.277661)
(0.523884 0.709277 0.27783)
(0.509196 0.656416 0.266132)
(0.508936 0.661326 0.270532)
(0.518687 0.693767 0.270607)
(0.522431 0.625114 0.26125)
(0.496631 0.615193 0.257613)
(0.546197 0.757183 0.304031)
(0.540672 0.759147 0.301284)
(0.5523 0.748347 0.296722)
(0.544406 0.707305 0.290508)
(0.541877 0.710701 0.289656)
(0.561906 0.53811 0.178942)
(0.443302 0.543889 0.171558)
(0.511727 0.534525 0.180041)
(0.454012 0.5731 0.170795)
(0.382534 0.521754 0.149661)
(0.455808 0.540046 0.17948)
(0.351953 0.402561 0.081834)
(0.338307 0.380358 0.0863426)
(0.450209 0.436691 0.0953383)
(0.533678 0.466446 0.0977417)
(0.337266 0.451361 0.12058)
(0.596996 0.508228 0.131234)
(0.547027 0.480219 0.116349)
(0.372764 0.444432 0.109017)
(0.337253 0.482168 0.14069)
(0.341685 0.440376 0.116727)
(0.522486 0.472928 0.103655)
(0.421541 0.473114 0.135746)
(0.461876 0.467521 0.124162)
(0.445313 0.833739 0.353512)
(0.426079 0.863628 0.358754)
(0.599631 0.787714 0.206333)
(0.554903 0.843248 0.16914)
(0.469905 0.868949 0.290825)
(0.423677 0.90415 0.321168)
(0.456189 0.8529 0.346812)
(0.438315 0.87585 0.356465)
(0.484725 0.87859 0.281507)
(0.481121 0.87852 0.282931)
(0.561777 0.847841 0.250215)
(0.531981 0.81281 0.337504)
(0.618116 0.76257 0.250589)
(0.494194 0.455162 0.110738)
(0.292366 0.268326 0.0398204)
(0.264155 0.244602 0.0337271)
(0.598945 0.558667 0.133108)
(0.484862 0.434052 0.0990117)
(0.211487 0.191488 0.00814056)
(0.141267 0.142685 0.00711536)
(0.179998 0.18419 0.0179573)
(0.135548 0.170017 0.00931998)
(0.0983603 0.108699 -0.00852661)
(0.226422 0.2062 0.040675)
(0.150897 0.143758 0.0118316)
(0.311794 0.320515 0.128712)
(0.296042 0.289736 0.137743)
(0.329779 0.337009 0.148241)
(0.327483 0.324866 0.144755)
(0.349101 0.35106 0.169757)
(0.378722 0.404701 0.196358)
(0.398254 0.435453 0.206474)
(0.416426 0.465169 0.185918)
(0.392735 0.439149 0.174118)
(0.361954 0.380275 0.147191)
(0.393449 0.428042 0.204902)
(0.405537 0.447864 0.188577)
(0.482137 0.555001 0.231458)
(0.431335 0.493358 0.204959)
(0.493086 0.591471 0.245117)
(0.450818 0.5087 0.206357)
(0.464154 0.547412 0.233385)
(0.452624 0.532649 0.230194)
(0.55357 0.822635 0.326615)
(0.5787 0.789667 0.339604)
(0.580218 0.773406 0.343354)
(0.548333 0.82916 0.336029)
(0.543616 0.827617 0.33759)
(0.57754 0.804085 0.351428)
(0.529103 0.857627 0.391652)
(0.575397 0.815638 0.364789)
(0.579009 0.797235 0.353644)
(0.529159 0.841152 0.34122)
(0.533545 0.827615 0.367897)
(0.597084 0.783031 0.23446)
(0.575461 0.790322 0.273267)
(0.620342 0.745626 0.244901)
(0.613156 0.761663 0.26136)
(0.648183 0.676314 0.215464)
(0.648863 0.704554 0.189729)
(0.646979 0.686325 0.205178)
(0.598042 0.786215 0.242516)
(0.604235 0.800154 0.233498)
(0.611969 0.774198 0.234172)
(0.638867 0.736209 0.265852)
(0.627006 0.749566 0.242135)
(0.647267 0.71017 0.188149)
(0.631633 0.733884 0.27508)
(0.634763 0.730212 0.256685)
(0.652297 0.704498 0.184735)
(0.643702 0.684258 0.169247)
(0.632724 0.748405 0.180371)
(0.642105 0.735478 0.191989)
(0.626498 0.747648 0.191131)
(0.590511 0.794674 0.236361)
(0.635913 0.735048 0.176295)
(0.622168 0.761125 0.195813)
(0.578304 0.801563 0.3151)
(0.57303 0.816027 0.301493)
(0.612739 0.776906 0.210729)
(0.603639 0.788176 0.201252)
(0.61245 0.775433 0.255654)
(0.587402 0.805195 0.254199)
(0.578211 0.821514 0.248335)
(0.582116 0.801601 0.286665)
(0.630377 0.739256 0.286613)
(0.626511 0.720009 0.300594)
(0.631333 0.700271 0.284406)
(0.61333 0.66908 0.294773)
(0.6141 0.609683 0.222135)
(0.618784 0.634255 0.264573)
(0.595878 0.582767 0.198598)
(0.642326 0.713875 0.278244)
(0.658998 0.670198 0.229633)
(0.633535 0.621505 0.214084)
(0.646545 0.646859 0.216082)
(0.638192 0.629941 0.215667)
(0.648581 0.640282 0.212302)
(0.639964 0.630375 0.202331)
(0.505622 0.569266 0.15383)
(0.496204 0.542876 0.150062)
(0.589305 0.608799 0.158281)
(0.574874 0.597402 0.156793)
(0.594322 0.610378 0.149686)
(0.587824 0.596546 0.158667)
(0.538023 0.597186 0.177849)
(0.554306 0.584958 0.163339)
(0.466128 0.577965 0.194975)
(0.496577 0.598745 0.202763)
(0.577087 0.606309 0.155286)
(0.440368 0.552073 0.188981)
(0.476706 0.585666 0.203795)
(0.471935 0.515011 0.153342)
(0.556626 0.59547 0.156574)
(0.564741 0.577206 0.158487)
(0.485363 0.559241 0.173184)
(0.552939 0.608666 0.169565)
(0.5094 0.602528 0.200794)
(0.463297 0.533069 0.161544)
(0.479403 0.532154 0.152022)
(0.652637 0.742095 0.137728)
(0.635898 0.786997 0.149286)
(0.64668 0.763464 0.154924)
(0.646549 0.734103 0.154715)
(0.604331 0.734734 0.187278)
(0.606441 0.725597 0.184017)
(0.591267 0.702981 0.186413)
(0.560148 0.680783 0.19368)
(0.638416 0.773561 0.159972)
(0.648719 0.723113 0.138735)
(0.633793 0.718575 0.181142)
(0.603483 0.69951 0.211242)
(0.623282 0.755822 0.172318)
(0.634212 0.721126 0.188935)
(0.621844 0.708406 0.196606)
(0.577412 0.663739 0.215525)
(0.645752 0.717869 0.147884)
(0.634046 0.720102 0.180984)
(0.617945 0.744976 0.186575)
(0.58186 0.708854 0.187452)
(0.583965 0.697459 0.193401)
(0.524004 0.817255 0.312501)
(0.51706 0.818657 0.299881)
(0.503041 0.832561 0.333119)
(0.505915 0.837252 0.320327)
(0.504143 0.837736 0.361973)
(0.520004 0.809819 0.269715)
(0.527915 0.819227 0.257646)
(0.505476 0.837782 0.323194)
(0.487285 0.841681 0.352997)
(0.504583 0.825358 0.324797)
(0.506943 0.825854 0.357125)
(0.526747 0.805035 0.249166)
(0.518281 0.776198 0.292914)
(0.539026 0.790822 0.336368)
(0.504459 0.790324 0.303816)
(0.654703 0.607803 0.21831)
(0.649242 0.630267 0.206102)
(0.611487 0.534545 0.173047)
(0.569413 0.507514 0.153414)
(0.632044 0.58297 0.172376)
(0.559758 0.523423 0.133672)
(0.597867 0.549398 0.141179)
(0.636866 0.670683 0.200468)
(0.63515 0.661836 0.201223)
(0.646836 0.607917 0.214349)
(0.652264 0.593798 0.157311)
(0.6259 0.56895 0.153386)
(0.635466 0.557466 0.170426)
(0.558288 0.839413 0.367308)
(0.586856 0.820738 0.387329)
(0.620983 0.798722 0.327278)
(0.637915 0.77362 0.301593)
(0.593846 0.810924 0.388969)
(0.610424 0.794428 0.40444)
(0.59592 0.82018 0.364826)
(0.632736 0.766577 0.336733)
(0.593406 0.807973 0.377973)
(0.602535 0.819742 0.39144)
(0.593597 0.812413 0.378298)
(0.605917 0.82412 0.402973)
(0.528723 0.795353 0.20083)
(0.569266 0.758359 0.17897)
(0.600489 0.712202 0.141707)
(0.587536 0.700512 0.142707)
(0.540597 0.780953 0.192924)
(0.564838 0.754178 0.185199)
(0.592053 0.733345 0.149073)
(0.58364 0.743875 0.155746)
(0.59281 0.728864 0.149218)
(0.567565 0.767745 0.2103)
(0.547552 0.777645 0.227162)
(0.609646 0.721407 0.148245)
(0.606491 0.723287 0.13338)
(0.570872 0.765686 0.171468)
(0.582406 0.746606 0.186854)
(0.572204 0.762808 0.210279)
(0.598135 0.73138 0.189735)
(0.613705 0.718151 0.15304)
(0.587366 0.751495 0.182396)
(0.588743 0.733731 0.150533)
(0.5503 0.786347 0.188258)
(0.517779 0.798149 0.237906)
(0.537808 0.80003 0.20706)
(0.678308 0.74383 0.127478)
(0.628889 0.701223 0.202529)
(0.674086 0.749142 0.133135)
(0.656457 0.758774 0.143991)
(0.648173 0.717858 0.174323)
(0.610292 0.699988 0.22162)
(0.607562 0.695625 0.21993)
(0.673513 0.768084 0.111023)
(0.671859 0.753761 0.130325)
(0.634485 0.726909 0.187804)
(0.623646 0.745053 0.176848)
(0.619457 0.720835 0.206768)
(0.576952 0.67787 0.231635)
(0.608522 0.719561 0.208604)
(0.593772 0.689945 0.218134)
(0.637112 0.741542 0.168104)
(0.613739 0.690287 0.309244)
(0.604012 0.702025 0.331134)
(0.619412 0.676939 0.311445)
(0.614038 0.673663 0.313483)
(0.612914 0.665808 0.286999)
(0.612809 0.684276 0.269741)
(0.623939 0.592927 0.26734)
(0.654838 0.658779 0.278368)
(0.650588 0.613647 0.247251)
(0.643506 0.597635 0.242458)
(0.638916 0.595417 0.24556)
(0.614611 0.574808 0.220685)
(0.631436 0.601038 0.228757)
(0.589226 0.547253 0.227825)
(0.633201 0.614547 0.222555)
(0.602608 0.553856 0.205862)
(0.517613 0.723635 0.218997)
(0.51274 0.694398 0.227641)
(0.49087 0.67502 0.230782)
(0.511067 0.720667 0.225211)
(0.541436 0.774755 0.194713)
(0.519483 0.740641 0.211047)
(0.522999 0.772577 0.226)
(0.52616 0.766332 0.215055)
(0.526251 0.78426 0.206949)
(0.536951 0.78519 0.200683)
(0.534377 0.776012 0.199016)
(0.581128 0.737455 0.159068)
(0.569589 0.701773 0.154505)
(0.578929 0.747315 0.165882)
(0.578009 0.772064 0.178495)
(0.598473 0.744909 0.163093)
(0.600546 0.717086 0.144489)
(0.582223 0.68939 0.143598)
(0.573802 0.777111 0.188873)
(0.593441 0.712738 0.143848)
(0.559672 0.78747 0.213314)
(0.58889 0.755363 0.163256)
(0.574804 0.776993 0.198568)
(0.700551 0.588789 0.089951)
(0.589151 0.581806 0.102111)
(0.787024 0.562087 0.0456517)
(0.757434 0.538036 0.0290445)
(0.619662 0.523057 0.0860835)
(0.457162 0.508692 0.131228)
(0.544703 0.576151 0.124418)
(0.840814 0.580063 0.0192519)
(0.687252 0.507314 0.0390117)
(0.553114 0.453888 0.0373913)
(0.529312 0.726311 0.257643)
(0.524713 0.780646 0.269234)
(0.526489 0.784053 0.292286)
(0.528268 0.783307 0.274055)
(0.511498 0.806212 0.2838)
(0.535459 0.778472 0.286671)
(0.523153 0.704999 0.25687)
(0.530629 0.786985 0.253236)
(0.553862 0.735745 0.294052)
(0.530763 0.776118 0.288354)
(0.531408 0.795063 0.254308)
(0.520197 0.810614 0.256266)
(0.533168 0.732555 0.215885)
(0.55248 0.721277 0.186861)
(0.558997 0.73859 0.183953)
(0.559072 0.731564 0.1884)
(0.61401 0.666554 0.158891)
(0.570747 0.722338 0.176565)
(0.586911 0.705706 0.18018)
(0.63657 0.64647 0.115128)
(0.647759 0.62636 0.125543)
(0.652014 0.615746 0.128103)
(0.642412 0.611084 0.117735)
(0.633338 0.672549 0.128581)
(0.619457 0.675162 0.111273)
(0.629999 0.641986 0.0998097)
(0.602226 0.697338 0.117758)
(0.643045 0.60278 0.117944)
(0.620034 0.595479 0.103849)
(0.619957 0.667957 0.109439)
(0.623028 0.613519 0.100782)
(0.475461 0.402421 0.0490447)
(0.613644 0.473901 0.0370364)
(0.424842 0.368429 0.0303206)
(0.702771 0.496556 0.0369569)
(0.599576 0.461867 0.0493027)
(0.523426 0.852773 0.156977)
(0.546158 0.83367 0.0341669)
(0.506541 0.853924 0.0669116)
(0.489169 0.882791 0.0404904)
(0.463311 0.874629 0.159419)
(0.516566 0.830415 0.056107)
(0.500665 0.854 0.0729855)
(0.495734 0.802216 0.102905)
(0.468078 0.804592 0.132727)
(0.483265 0.774713 0.159553)
(0.497716 0.784255 0.130337)
(0.4974 0.778268 0.122196)
(0.464287 0.794814 0.176428)
(0.490426 0.781543 0.156753)
(0.507417 0.819581 0.101102)
(0.499908 0.849808 0.121748)
(0.490277 0.859485 0.135886)
(0.467156 0.836189 0.164243)
(0.496088 0.831116 0.127701)
(0.462839 0.838818 0.193275)
(0.113874 0.105497 0.00479034)
(0.125114 0.112134 0.0269578)
(0.226676 0.228936 0.0678451)
(0.256953 0.264285 0.0719745)
(0.0647254 0.0620068 0.0122086)
(0.0317578 0.0211601 -0.0089467)
(0.247228 0.249297 0.0437333)
(0.0642106 0.0367947 -0.0120881)
(0.0159888 0.0188979 -0.0146826)
(0.0754763 0.0841538 -0.00706512)
(0.0330781 0.0427546 -0.0170102)
(0.635986 0.816751 0.168197)
(0.626327 0.823939 0.168021)
(0.629837 0.829319 0.170375)
(0.605026 0.810644 0.2008)
(0.586169 0.775375 0.186595)
(0.57183 0.753784 0.175373)
(0.618894 0.813829 0.19309)
(0.620791 0.846157 0.201438)
(0.61554 0.848809 0.211564)
(0.598411 0.800665 0.186196)
(0.605906 0.814889 0.195467)
(0.622877 0.801421 0.177758)
(0.621066 0.790107 0.182045)
(0.5837 0.743209 0.177071)
(0.59515 0.629451 0.136237)
(0.578189 0.627912 0.122467)
(0.574794 0.644638 0.114986)
(0.603157 0.610876 0.0729014)
(0.614412 0.602206 0.0585352)
(0.610507 0.571434 0.0516318)
(0.521268 0.623219 0.208867)
(0.51647 0.637586 0.207989)
(0.523051 0.638543 0.21089)
(0.0222093 0.0333058 -0.0128951)
(0.00319202 0.0235582 -0.0170612)
(0.482307 0.61942 0.250375)
(0.497084 0.59037 0.212057)
(0.544088 0.552464 0.212771)
(0.521095 0.532269 0.214901)
(0.549672 0.563802 0.212749)
(0.267603 0.22431 0.104519)
(0.227442 0.178359 0.097529)
(0.556289 0.662039 0.154059)
(0.581397 0.673356 0.142571)
(0.574236 0.672347 0.174898)
(0.105929 0.293239 0.0394516)
(0.0711588 0.204019 0.0148457)
(0.0901242 0.253448 0.0302486)
(0.562147 0.725419 0.119027)
(0.558758 0.73674 0.124545)
(0.548186 0.737769 0.145698)
(0.534973 0.771503 0.154956)
(0.538143 0.58724 0.227935)
(0.519327 0.570743 0.219093)
(0.54726 0.577273 0.22759)
(0.555178 0.585713 0.223367)
(0.597316 0.511577 0.159613)
(0.576007 0.494915 0.160441)
(0.577735 0.651721 0.23338)
(0.575296 0.646088 0.227926)
(0.512278 0.717465 0.221056)
(0.499211 0.678424 0.237548)
(0.498546 0.677302 0.247312)
(0.509848 0.709456 0.226081)
(0.541816 0.709496 0.217329)
(0.541698 0.690478 0.220817)
(0.529817 0.657036 0.220326)
(0.0444687 0.15178 0.012064)
(0.0782458 0.218829 0.0342877)
(0.512627 0.493378 0.218536)
(0.53544 0.517959 0.229165)
(0.503122 0.505987 0.215821)
(0.565221 0.741414 0.154304)
(0.566051 0.718348 0.137934)
(0.551968 0.734044 0.165763)
(0.582952 0.707949 0.186714)
(0.599756 0.706748 0.197809)
(0.567809 0.679432 0.201439)
(0.615369 0.545846 0.129965)
(0.627481 0.586542 0.118425)
(0.527569 0.64625 0.232754)
(0.529638 0.639799 0.228717)
(0.504852 0.499794 0.208134)
(0.507937 0.491732 0.217735)
(0.556206 0.537042 0.24057)
(0.444618 0.516186 0.253202)