/*--------------------------------*- C++ -*----------------------------------*\
| =========                 |                                                 |
| \\      /  F ield         | OpenFOAM: The Open Source CFD Toolbox           |
|  \\    /   O peration     | Version:  v1612+                                |
|   \\  /    A nd           | Web:      www.OpenFOAM.com                      |
|    \\/     M anipulation  |                                                 |
\*---------------------------------------------------------------------------*/
FoamFile
{
    version     2.0;
    format      ascii;
    class       volVectorField;
    location    "50";
    object      wallShearStress;
}
// * * * * * * * * * * * * * * * * * * * * * * * * * * * * * * * * * * * * * //

dimensions      [0 2 -2 0 0 0 0];

internalField   uniform (0 0 0);

boundaryField
{
    WALL
    {
        type            calculated;
        value           nonuniform List<vector> 
1514
(
(-0.0167595 -0.0053302 -0.0148346)
(-0.0161487 -0.00464094 -0.0157294)
(-0.0246466 -0.0134353 0.000493316)
(-0.0256909 -0.00915596 -0.00028649)
(-0.0234895 -0.00826033 -0.0134156)
(-0.0229462 -0.00826041 -0.016152)
(-0.0209606 -0.00226553 -0.0109495)
(-0.0179674 -0.000984081 -0.0114575)
(-0.0168358 -0.0123105 -0.00335804)
(-0.0176195 -0.0115449 -0.003761)
(-0.0200636 -0.0138477 -0.00857914)
(-0.0186552 -0.0151141 -0.00710673)
(-0.0104306 -0.0158403 -0.00397869)
(-0.00925769 -0.0150367 -0.00482839)
(-0.0203548 -0.00900547 -0.0198521)
(-0.0202172 -0.00875303 -0.0219424)
(-0.0195025 -0.00734256 -0.0227041)
(-0.0196361 -0.00585834 -0.0203969)
(-0.00351009 -0.00534418 -0.00450283)
(-0.00468957 -0.00646886 -0.00519168)
(-0.00630145 -0.00534128 -0.0111685)
(-0.00832681 -0.00439343 -0.0110988)
(-0.0104327 -0.00397949 -0.0107686)
(-0.0202541 -0.00943565 -0.0247034)
(-0.0216618 -0.00859476 -0.0239822)
(-0.0131334 -0.0209945 -0.0116967)
(-0.0148583 -0.0216614 -0.00927298)
(-0.0124124 0.00109652 -0.0109222)
(-0.0146509 0.00119291 -0.00991005)
(-0.0187192 -0.0001162 -0.00845647)
(-0.0155428 0.000353992 -0.00962164)
(-0.0155336 -0.0171317 0.00217712)
(-0.0164766 -0.0159945 0.00188682)
(-0.0168294 -0.016898 0.00171624)
(-0.016163 -0.0167097 0.00346182)
(-0.00279939 -0.00615227 -0.00513066)
(-0.00313623 -0.00697629 -0.00454146)
(-0.021807 -0.00882465 -0.00947876)
(-0.02219 -0.00857262 -0.0101338)
(-0.0142081 -0.00388596 -0.0141864)
(-0.0115464 -0.00500042 -0.0137028)
(-0.0190144 -0.0185844 0.000571644)
(-0.0222112 -0.0165818 0.000688074)
(-0.018044 -0.0176489 0.00111662)
(-0.0213007 -0.0144526 0.00186406)
(-0.0230296 -0.00926289 -0.00184072)
(-0.0222707 -0.00788041 -0.00250538)
(-0.0206042 -0.0137907 0.00275416)
(-0.0206232 -0.0134784 0.00127501)
(-0.0202256 -0.00643654 -0.0130248)
(-0.0197209 -0.00633291 -0.010836)
(-0.0219189 -0.00685692 -0.0176155)
(-0.0207398 -0.00552005 -0.0155341)
(-0.0256983 -0.00921416 -0.0147332)
(-0.0246344 -0.0104914 -0.0124801)
(-0.0187355 -0.0162406 -0.00580198)
(-0.0201582 -0.015939 -0.00782811)
(-0.0247959 -0.00817317 -0.0229673)
(-0.0220919 -0.00828692 -0.0248886)
(-0.00373943 -0.00232534 -0.007288)
(-0.00281725 -0.0024564 -0.00566523)
(-0.00292852 -0.00248224 -0.00651169)
(-0.00269718 -0.00275252 -0.00638051)
(-0.00388959 -0.00210267 -0.00809161)
(-0.00275225 -0.00279325 -0.00712662)
(-0.0154528 -0.0043439 -0.0145253)
(-0.0160419 -0.0042107 -0.0122902)
(-0.0157876 -0.00450805 -0.0129908)
(-0.017484 -0.00477797 -0.0163538)
(-0.0055038 -0.00640437 -0.0052202)
(-0.00443066 -0.00535913 -0.00452758)
(-0.00612019 -0.00628633 -0.00482358)
(-0.0052933 -0.00584463 -0.00431612)
(-0.00736648 -0.00679309 -0.00472708)
(-0.00713454 -0.00641779 -0.00431029)
(-0.0131677 -0.0128109 -0.00627545)
(-0.0105647 -0.00959749 -0.00531219)
(-0.0126291 -0.0118466 -0.00639777)
(-0.00955291 -0.0110359 -0.00470551)
(-0.00803766 -0.00863641 -0.00480416)
(-0.0109937 -0.0112392 -0.00502964)
(-0.0071545 -0.00889698 -0.0056245)
(-0.0233323 -0.00935937 -0.01975)
(-0.0235296 -0.0104805 -0.0184722)
(-0.0229653 -0.0112338 -0.0183982)
(-0.0216025 -0.0102661 -0.0192599)
(-0.0214526 -0.00888379 -0.0210204)
(-0.0185282 -0.00868003 -0.0206149)
(-0.0141076 -0.0101821 -0.0226824)
(-0.0143557 -0.00778208 -0.0208652)
(-0.0152627 -0.00802216 -0.0213659)
(-0.0160524 -0.0103278 -0.0249173)
(-0.0156152 -0.00983751 -0.0230065)
(-0.013742 -0.00909449 -0.0215676)
(-0.00870946 -0.0215657 -0.00965948)
(-0.008233 -0.021693 -0.00739562)
(-0.00784164 -0.0208678 -0.00845202)
(-0.00850815 -0.0199149 -0.00423882)
(-0.00864439 -0.0201615 -0.00597546)
(-0.00243212 -0.00325887 -0.00494979)
(-0.00246965 -0.0033665 -0.00481634)
(-0.00253794 -0.00301126 -0.00504578)
(-0.00254777 -0.00315433 -0.00496422)
(-0.00248001 -0.00324607 -0.00519778)
(-0.00250698 -0.00327133 -0.00483417)
(-0.0164516 -0.0193709 -0.000826875)
(-0.0203813 -0.0175584 0.00246921)
(-0.0216692 -0.0159749 0.0027313)
(-0.0192194 -0.0205983 -0.00210573)
(-0.017742 -0.0196311 0.00117012)
(-0.0208984 -0.016578 0.00216024)
(-0.00685039 -0.00106776 -0.00835594)
(-0.00871638 -4.5583e-05 -0.00893565)
(-0.00768662 -0.000408059 -0.0089767)
(-0.00774539 -0.00107678 -0.00869316)
(-0.00961925 -0.000730726 -0.0093878)
(-0.00980308 -0.000193625 -0.00897908)
(-0.00966116 -0.00182936 -0.00928399)
(-0.0113037 -0.00204484 -0.00945441)
(-0.0115578 -0.00158923 -0.00908479)
(-0.00870316 -0.00175634 -0.00934187)
(-0.00919693 -0.00144505 -0.0093797)
(-0.0104875 -0.00157725 -0.00933302)
(-0.0235982 -0.00669197 -0.0200475)
(-0.0233734 -0.00821906 -0.0159881)
(-0.0224097 -0.00703695 -0.0140016)
(-0.0237162 -0.00740114 -0.0174945)
(-0.0211277 -0.00610151 -0.0152169)
(-0.0206924 -0.00620605 -0.0135827)
(-0.0181729 -0.00521325 -0.0127913)
(-0.0193282 -0.00620571 -0.0150623)
(-0.0172717 -0.00538307 -0.0113614)
(-0.0203623 -0.00668819 -0.0149393)
(-0.0190534 -0.00634579 -0.0119686)
(-0.0193027 -0.0118335 -0.0273231)
(-0.0165251 -0.0119819 -0.0261433)
(-0.02086 -0.00898451 -0.0255942)
(-0.019069 -0.00994449 -0.0260424)
(-0.0167534 -0.0103249 -0.0256707)
(-0.0257328 -0.0109223 -0.0202074)
(-0.0259213 -0.0103614 -0.018323)
(-0.0258367 -0.010901 -0.0177914)
(-0.0252 -0.0103134 -0.0201681)
(-0.0260182 -0.0116864 -0.0166648)
(-0.0264032 -0.0110044 -0.0168245)
(-0.0270343 -0.00950611 -0.0245438)
(-0.0236122 -0.0080704 -0.0227381)
(-0.0252956 -0.00799961 -0.0216749)
(-0.0263622 -0.00892565 -0.0213714)
(-0.025305 -0.00879165 -0.0247657)
(-0.0264872 -0.00904772 -0.0209139)
(-0.0225647 -0.010314 -2.59967e-05)
(-0.022055 -0.00847976 -0.00230565)
(-0.0213683 -0.00989056 -0.00157331)
(-0.0220493 -0.0117643 0.000298896)
(-0.021317 -0.0116395 -0.000477506)
(-0.0238359 -0.00677321 -0.00336991)
(-0.0229524 -0.00569934 -0.00307328)
(-0.0235434 -0.0069657 -0.00178027)
(-0.0241372 -0.00853816 -0.00128008)
(-0.0241414 -0.00507514 -0.00377565)
(-0.0254022 -0.00791419 -0.00153292)
(-0.0247521 -0.00735411 -0.00244544)
(-0.0239203 -0.00442971 -0.00420109)
(-0.0244184 -0.00594264 -0.00229251)
(-0.0241586 -0.00593046 -0.00356479)
(-0.0112164 -0.00315679 -0.0100991)
(-0.0104108 -0.00247805 -0.00967596)
(-0.0122293 -0.00242768 -0.00971792)
(-0.0131173 -0.0027137 -0.00943496)
(-0.0123408 -0.00292453 -0.00949943)
(-0.0103068 -0.00282063 -0.010172)
(-0.0222212 -0.00250832 -0.00589864)
(-0.0203333 -0.00100211 -0.00708636)
(-0.0216367 -0.00219087 -0.00619618)
(-0.0187551 -0.000776225 -0.00797)
(-0.0202423 -0.000279733 -0.00759304)
(-0.0216459 -0.00110984 -0.00672431)
(-0.0185952 -0.00702062 -0.00610411)
(-0.0201728 -0.00558192 -0.00522037)
(-0.0182786 -0.00639815 -0.00651699)
(-0.0212199 -0.00807304 -0.00354035)
(-0.0201644 -0.00799057 -0.00444533)
(-0.0207327 -0.00673391 -0.00443652)
(-0.00218574 -0.00278087 -0.00509654)
(-0.00254103 -0.00245926 -0.00534221)
(-0.00249073 -0.00267444 -0.00565318)
(-0.00233676 -0.00287999 -0.00508094)
(-0.00238464 -0.0026344 -0.00516466)
(-0.00225245 -0.00272907 -0.00512952)
(-0.0102163 -0.00129898 -0.00940958)
(-0.00964125 -0.00076552 -0.0091904)
(-0.0105512 -0.000922248 -0.00920119)
(-0.00842362 -0.00085302 -0.00916647)
(-0.00872049 -0.00153256 -0.00929939)
(-0.00772189 -0.00141284 -0.00894743)
(-0.00599958 -0.00165734 -0.00869796)
(-0.00544904 -0.00191295 -0.00808981)
(-0.00503306 -0.00211279 -0.00808775)
(-0.00515863 -0.00228112 -0.00859098)
(-0.00547673 -0.00143353 -0.00831417)
(-0.00216153 -0.00809775 -0.00479241)
(-0.00253487 -0.00751959 -0.00516582)
(-0.00198557 -0.00808882 -0.00555346)
(-0.0020272 -0.00700451 -0.00560244)
(-0.00264415 -0.00935887 -0.00533482)
(-0.00298222 -0.00891625 -0.00528079)
(-0.0134302 -0.019328 0.000398932)
(-0.017889 -0.0171801 0.00296332)
(-0.0175531 -0.0202697 0.00293643)
(-0.0144213 -0.0182142 0.0031736)
(-0.0164097 -0.0171246 0.00395567)
(-0.0156883 -0.0209754 0.00127765)
(-0.0198778 -0.0191698 0.00255009)
(-0.0193304 -0.0154168 0.00275195)
(-0.0241947 -0.00416542 -0.00397973)
(-0.0251792 -0.00622576 -0.00429216)
(-0.0252012 -0.00736101 -0.00290722)
(-0.0235555 -0.00320039 -0.00527856)
(-0.0245195 -0.0041133 -0.00526369)
(-0.0252642 -0.00607909 -0.00305737)
(-0.0265539 -0.0104841 -0.00212229)
(-0.0263974 -0.010611 -0.000342273)
(-0.0261488 -0.0141014 -0.00235921)
(-0.0257711 -0.0106309 -0.00178202)
(-0.0234118 -0.0143253 -0.0018953)
(-0.0243372 -0.0131921 -0.000820483)
(-0.0233807 -0.0134187 0.000711608)
(-0.0252097 -0.0114943 -0.000340264)
(-0.026529 -0.011517 -0.00500984)
(-0.0232579 -0.0111728 -0.00524162)
(-0.0231738 -0.0153813 -0.00525804)
(-0.0226889 -0.0149668 -0.0055498)
(-0.024845 -0.0128677 -0.00433544)
(-0.0245953 -0.0132947 -0.00322918)
(-0.0251637 -0.0109099 -0.00295613)
(-0.0158574 -0.0189684 -0.00989187)
(-0.018158 -0.0190963 -0.00635867)
(-0.0146515 -0.0195999 -0.00998163)
(-0.0172877 -0.0183583 -0.00726861)
(-0.0169122 -0.0214548 -0.00893897)
(-0.0170496 -0.0201881 -0.00824602)
(-0.0148031 -0.00351463 -0.0136517)
(-0.0155597 -0.00466372 -0.0151734)
(-0.0112843 -0.0035169 -0.0128095)
(-0.0142874 -0.00276366 -0.0134264)
(-0.012503 -0.00249777 -0.01297)
(-0.0126855 -0.00346421 -0.0137707)
(-0.02218 -0.00809822 -0.0127174)
(-0.0214477 -0.00564056 -0.0136269)
(-0.02206 -0.00699707 -0.0126394)
(-0.0228201 -0.0091102 -0.0150201)
(-0.0220255 -0.00589661 -0.0135257)
(-0.021053 -0.00612508 -0.0131225)
(-0.0216977 -0.0070155 -0.0125954)
(-0.0204663 -0.00629438 -0.0143004)
(-0.0227294 -0.00943462 -0.012274)
(-0.0228061 -0.00908218 -0.0127218)
(-0.0236592 -0.0115931 -0.0133881)
(-0.0221395 -0.0112268 -0.0126607)
(-0.0239987 -0.0116564 -0.0146786)
(-0.0159044 -0.00162099 -0.0131612)
(-0.0123523 -0.00138786 -0.0127342)
(-0.0131059 -0.000847818 -0.0127618)
(-0.0147228 -0.00185141 -0.0130777)
(-0.0129016 -0.00161122 -0.0126929)
(-0.0144382 -0.00124827 -0.0126374)
(-0.0130783 0.000389884 -0.0114161)
(-0.0159611 -0.000246031 -0.0117758)
(-0.0146279 7.43897e-05 -0.011552)
(-0.0119209 -0.000293829 -0.0114123)
(-0.0144402 0.000181013 -0.0111908)
(-0.0126688 -0.000163979 -0.0114454)
(-0.0213471 -0.00430397 -0.0111983)
(-0.0219102 -0.00611444 -0.0109637)
(-0.020262 -0.00432068 -0.0120627)
(-0.0220214 -0.00453647 -0.0110641)
(-0.022494 -0.00693809 -0.0113178)
(-0.0213926 -0.00585363 -0.0109419)
(-0.0214039 -0.00373952 -0.0120366)
(-0.0225041 -0.00641018 -0.00940585)
(-0.0221385 -0.00440071 -0.00968452)
(-0.0222312 -0.00691303 -0.00915377)
(-0.0220554 -0.00371109 -0.0105235)
(-0.0218312 -0.00624431 -0.00975155)
(-0.0213449 -0.00495294 -0.0107994)
(-0.0226153 -0.00950056 -0.0119226)
(-0.0216901 -0.0101265 -0.0103133)
(-0.022469 -0.00858068 -0.0115572)
(-0.0218464 -0.0113927 -0.0112229)
(-0.0225443 -0.0105079 -0.0112132)
(-0.0216282 -0.0102225 -0.00893004)
(-0.021522 -0.011082 -0.00927681)
(-0.0211943 -0.0106671 -0.00954693)
(-0.0219585 -0.0102238 -0.00933198)
(-0.0224321 -0.00860392 -0.00858416)
(-0.0222028 -0.00810359 -0.00952102)
(-0.0192836 -0.015836 -0.0120714)
(-0.0166209 -0.0167002 -0.0141947)
(-0.0168987 -0.016006 -0.0133272)
(-0.0182738 -0.0152713 -0.0110776)
(-0.0174555 -0.0153214 -0.0125428)
(-0.0173356 -0.0166085 -0.0135332)
(-0.00221215 -0.00544618 -0.00548302)
(-0.0023454 -0.00553226 -0.00465162)
(-0.00212502 -0.0052612 -0.00463748)
(-0.00211525 -0.00507234 -0.00495204)
(-0.00196652 -0.00409476 -0.00467698)
(-0.00779949 -0.0126058 -0.00448931)
(-0.0094412 -0.0139156 -0.004466)
(-0.00985211 -0.0129498 -0.00455983)
(-0.00791315 -0.0119626 -0.00437092)
(-0.0117864 -0.0149538 -0.00463634)
(-0.0116255 -0.0138039 -0.00483762)
(-0.00374406 -0.0087769 -0.00518521)
(-0.00536323 -0.00997453 -0.0042655)
(-0.00295302 -0.00703281 -0.00475212)
(-0.00491062 -0.0089204 -0.00431862)
(-0.00398574 -0.00811504 -0.00498112)
(-0.00292497 -0.00335097 -0.00435936)
(-0.00270047 -0.00341228 -0.00492019)
(-0.00284171 -0.00320449 -0.00476232)
(-0.00282994 -0.00347516 -0.00494158)
(-0.00313802 -0.00361926 -0.00493033)
(-0.00293532 -0.00356746 -0.0047482)
(-0.00271272 -0.00377537 -0.00468335)
(-0.00344649 -0.00423344 -0.00441586)
(-0.00297095 -0.00386001 -0.00446945)
(-0.00317174 -0.00425325 -0.00469432)
(-0.0026813 -0.00358947 -0.00463478)
(-0.00310599 -0.00387609 -0.00418614)
(-0.00270488 -0.00311826 -0.00540346)
(-0.00266347 -0.00320124 -0.00522786)
(-0.00282735 -0.00284046 -0.00577236)
(-0.00239424 -0.00295712 -0.0049872)
(-0.00294092 -0.00271637 -0.00573579)
(-0.00293558 -0.00311544 -0.00543995)
(-0.00905977 -0.00225457 -0.0115521)
(-0.00917748 -0.00274302 -0.0115074)
(-0.0100192 -0.0028391 -0.012301)
(-0.00792357 -0.00198213 -0.0111902)
(-0.0072368 -0.00312976 -0.0104087)
(-0.00734566 -0.00328857 -0.0102431)
(-0.00537416 -0.00363606 -0.0087421)
(-0.00636735 -0.00516435 -0.00976782)
(-0.00482823 -0.00474562 -0.00769724)
(-0.00480726 -0.00355986 -0.0081132)
(-0.00520784 -0.00527792 -0.00792649)
(-0.00641098 -0.00391994 -0.0104791)
(-0.00780856 -0.00539275 -0.0109326)
(-0.00925818 -0.00444703 -0.0120488)
(-0.00831243 -0.00483804 -0.0120822)
(-0.00929283 -0.00600521 -0.0125541)
(-0.0101234 -0.00490932 -0.0130996)
(-0.00801901 -0.00483673 -0.0111851)
(-0.00871537 -0.0191047 0.00140439)
(-0.0129034 -0.0187648 0.00279252)
(-0.011907 -0.0173637 0.00215022)
(-0.0102708 -0.0185056 0.00213881)
(-0.00963475 -0.0199233 0.00237237)
(-0.0111115 -0.0193478 0.00199757)
(-0.016135 -0.0130107 -0.000514769)
(-0.0152418 -0.013794 0.000591131)
(-0.00545299 -0.0177865 -0.00129251)
(-0.00461866 -0.018108 -0.00259865)
(-0.00580256 -0.0191841 -0.00167996)
(-0.00310833 -0.0174832 -0.00330803)
(-0.00323962 -0.0169666 -0.00395932)
(-0.00329263 -0.0163847 -0.00201785)
(-0.0240805 -0.00349765 -0.00663799)
(-0.0240546 -0.00270604 -0.00684411)
(-0.0247906 -0.00586726 -0.00510645)
(-0.0249108 -0.00672807 -0.0054481)
(-0.0244824 -0.00580665 -0.00634187)
(-0.024724 -0.00350559 -0.00567414)
(-0.0185734 0.000516423 -0.00846782)
(-0.0225481 -0.00112984 -0.00669157)
(-0.021984 -0.000978117 -0.00722782)
(-0.0194774 0.000518669 -0.00813629)
(-0.0212611 -0.000601971 -0.0074837)
(-0.0190628 0.000558907 -0.00980289)
(-0.0221934 -0.00159786 -0.00865051)
(-0.0203224 0.000680582 -0.00938687)
(-0.0194733 0.000874462 -0.00923804)
(-0.0215573 -0.00014038 -0.00932978)
(-0.0209743 -0.000247313 -0.00802052)
(-0.0228141 -0.00420763 -0.00886082)
(-0.0226098 -0.00358683 -0.00893608)
(-0.0235824 -0.00366938 -0.00772795)
(-0.0239785 -0.00709392 -0.00796165)
(-0.0238274 -0.00613102 -0.00847091)
(-0.0242142 -0.00594618 -0.00750797)
(-0.0171146 -0.0192481 -0.0112717)
(-0.01558 -0.0186404 -0.0107132)
(-0.0183274 -0.0184589 -0.00919668)
(-0.0174995 -0.0204112 -0.0106336)
(-0.0174222 -0.0180404 -0.00965747)
(-0.0217672 -0.0125839 -0.00661379)
(-0.0228393 -0.0124975 -0.00632171)
(-0.0252983 -0.00982225 -0.00693694)
(-0.0222602 -0.0114793 -0.00702117)
(-0.024218 -0.0104844 -0.00611607)
(-0.0234608 -0.0100057 -0.00709911)
(-0.0225974 -0.00924501 -0.00851728)
(-0.0216701 -0.0115261 -0.00773036)
(-0.0220236 -0.0106525 -0.00805594)
(-0.0228642 -0.00847734 -0.00837175)
(-0.0223987 -0.0108702 -0.00727329)
(-0.0224931 -0.00954082 -0.00777487)
(-0.0160088 -0.0215943 -0.00929139)
(-0.0143206 -0.0244487 -0.0147519)
(-0.0132427 -0.0221726 -0.0172776)
(-0.014616 -0.0215456 -0.0116321)
(-0.0133339 -0.0208374 -0.014633)
(-0.0147562 -0.0216522 -0.012777)
(-0.0140878 -0.0206581 -0.0158177)
(-0.0149249 -0.021271 -0.0155475)
(-0.0147548 -0.0197012 -0.0124361)
(-0.014943 -0.0202634 -0.0140222)
(-0.0141395 -0.0212694 -0.0140698)
(-0.0138073 -0.0198011 -0.0122625)
(-0.0154174 -0.0218228 -0.0228825)
(-0.0137474 -0.019501 -0.0205914)
(-0.0122045 -0.0157452 -0.0210883)
(-0.0129402 -0.0163894 -0.0229801)
(-0.0129856 -0.0175321 -0.0192869)
(-0.013584 -0.0193355 -0.0189082)
(-0.0119607 -0.0134286 -0.0227061)
(-0.0103194 -0.0151733 -0.0218245)
(-0.00858905 -0.0155245 -0.019432)
(-0.00867881 -0.0146401 -0.019676)
(-0.0103106 -0.0136344 -0.021467)
(-0.0119758 -0.0142159 -0.0231786)
(-0.010435 -0.0198183 -0.00430557)
(-0.0114079 -0.0216104 -0.00460301)
(-0.0132562 -0.0203886 -0.00201721)
(-0.0154282 -0.0221032 -0.0014289)
(-0.013693 -0.0216188 -0.00235572)
(-0.0125446 -0.0211255 -0.00288893)
(-0.00859088 -0.0195455 -0.00224772)
(-0.0103211 -0.0197017 -0.00128832)
(-0.010376 -0.0202187 -0.000251818)
(-0.0116391 -0.0208532 -0.000790579)
(-0.00913035 -0.0207732 -0.00298267)
(-0.0101973 -0.0216258 -0.00269666)
(-0.0118428 -0.0187011 -0.0229638)
(-0.0133998 -0.016312 -0.0250762)
(-0.0124609 -0.0193265 -0.0217995)
(-0.0110654 -0.021161 -0.0187942)
(-0.0110261 -0.0202603 -0.019767)
(-0.0135412 -0.0164527 -0.0252082)
(-0.0166931 -0.0126615 -0.026281)
(-0.0124894 -0.0151486 -0.0237681)
(-0.0143922 -0.0138269 -0.0254076)
(-0.0170268 -0.0133613 -0.0275861)
(-0.0127078 -0.0160399 -0.0239071)
(-0.0152769 -0.0161955 -0.0265964)
(-0.00875805 -0.0211879 -0.0149859)
(-0.00929396 -0.0198165 -0.0174073)
(-0.00791389 -0.0197125 -0.0150333)
(-0.00807962 -0.0182334 -0.0173608)
(-0.00962153 -0.0175054 -0.0199628)
(-0.00937451 -0.0187845 -0.0194923)
(-0.0122696 -0.0175434 -0.0198738)
(-0.0134874 -0.0226201 -0.0204683)
(-0.0116635 -0.0175103 -0.0201281)
(-0.0131301 -0.0198591 -0.0176948)
(-0.0122306 -0.0196813 -0.0167788)
(-0.0118962 -0.0195381 -0.0172841)
(-0.016751 -0.00546717 -0.0181389)
(-0.015831 -0.00673272 -0.019347)
(-0.0156467 -0.00668577 -0.0199736)
(-0.0151303 -0.00525376 -0.0171133)
(-0.0168838 -0.00583092 -0.01898)
(-0.0153742 -0.00559781 -0.0185495)
(-0.0170812 -0.00680112 -0.0201896)
(-0.0173375 -0.00839832 -0.0221235)
(-0.0191878 -0.00671183 -0.0215986)
(-0.0173967 -0.00722664 -0.021926)
(-0.0176011 -0.0089791 -0.023162)
(-0.0130211 -0.0111611 -0.0222401)
(-0.0125348 -0.0129819 -0.0218574)
(-0.0128835 -0.0111354 -0.021537)
(-0.0128545 -0.0126451 -0.0224693)
(-0.0128499 -0.010381 -0.0214509)
(-0.0126999 -0.0123955 -0.0219079)
(-0.0133358 -0.0150647 -0.0248076)
(-0.0134446 -0.0169016 -0.0239952)
(-0.0136659 -0.0194278 -0.0244688)
(-0.0137733 -0.0166097 -0.0240058)
(-0.0141484 -0.0185448 -0.0260533)
(-0.013413 -0.0183292 -0.0245572)
(-0.0163891 -0.00844335 -0.0240651)
(-0.0175595 -0.01243 -0.0274867)
(-0.0145286 -0.00994643 -0.0223718)
(-0.0157932 -0.0085841 -0.0228709)
(-0.0141368 -0.0106397 -0.0236981)
(-0.016329 -0.0107569 -0.024237)
(-0.0176826 -0.01855 -0.0117604)
(-0.0174055 -0.016727 -0.00928395)
(-0.0180076 -0.0174081 -0.0115935)
(-0.018726 -0.0192618 -0.0121678)
(-0.0184303 -0.0167027 -0.010454)
(-0.0165541 -0.0174907 -0.010694)
(-0.0146051 -0.0193595 -0.0177159)
(-0.015525 -0.0196506 -0.0135533)
(-0.0159037 -0.019672 -0.0129623)
(-0.0150375 -0.0197146 -0.0165936)
(-0.0140377 -0.0176793 -0.0137871)
(-0.0143742 -0.0195262 -0.0160603)
(-0.0173204 -0.016025 -0.0116994)
(-0.0191384 -0.0164809 -0.011355)
(-0.0167502 -0.0165206 -0.0114422)
(-0.0163604 -0.0169391 -0.0126948)
(-0.0178291 -0.0161781 -0.0107393)
(-0.0163607 -0.0173876 -0.0132557)
(-0.00347844 -0.015865 -0.010363)
(-0.0029097 -0.0150958 -0.00943104)
(-0.0034081 -0.0168532 -0.00522382)
(-0.00217706 -0.0158453 -0.00719085)
(-0.00301735 -0.0171229 -0.00581134)
(-0.0037385 -0.0170086 -0.00772738)
(-0.00264577 -0.0134969 -0.0114012)
(-0.0013783 -0.0129341 -0.00829623)
(-0.0175563 -0.0150985 0.00130564)
(-0.0144251 -0.018266 0.00235991)
(-0.0138747 -0.0175487 0.00239176)
(-0.0165272 -0.0163775 0.00164482)
(-0.0155455 -0.0174041 0.00224568)
(-0.0177449 -0.0156157 0.00140114)
(-0.00584644 -0.00445 -0.0105666)
(-0.00505612 -0.00429219 -0.0100171)
(-0.00320848 -0.00580784 -0.0101787)
(-0.00392139 -0.00529904 -0.0101225)
(-0.00371636 -0.00507244 -0.00953996)
(-0.00908343 -0.00513253 -0.0114751)
(-0.0109092 -0.00510743 -0.0110256)
(-0.0081006 -0.00518755 -0.0116416)
(-0.0108515 -0.00572195 -0.0117822)
(-0.00733625 -0.00432325 -0.010973)
(-0.00983954 -0.0045582 -0.0111685)
(-0.00187228 -0.00528475 -0.00767372)
(-0.00122107 -0.0062442 -0.0069047)
(-0.00221589 -0.00525036 -0.00821046)
(-0.00496863 -0.00533555 -0.00424911)
(-0.00464053 -0.00521275 -0.00446146)
(-0.00591049 -0.00560874 -0.00428729)
(-0.00587672 -0.00558029 -0.00425226)
(-0.00649572 -0.00564877 -0.00400535)
(-0.00402954 -0.00484943 -0.00437903)
(-0.00779261 -0.00821736 -0.00459734)
(-0.00643703 -0.00736212 -0.00490957)
(-0.00997375 -0.00969385 -0.00561084)
(-0.00778542 -0.00791098 -0.00510484)
(-0.00649313 -0.00763381 -0.00510596)
(-0.00951609 -0.00893017 -0.00552463)
(-0.00362585 -0.00473663 -0.00472984)
(-0.00274696 -0.00386328 -0.00469734)
(-0.00282828 -0.00398054 -0.00490368)
(-0.00326347 -0.00431594 -0.00456749)
(-0.00299517 -0.00438633 -0.00485272)
(-0.0032027 -0.00464959 -0.00485986)
(-0.00826739 -0.0152537 -0.00439075)
(-0.0109544 -0.0156405 -0.00412466)
(-0.0125868 -0.0173826 -0.00416319)
(-0.0158548 -0.0176677 -0.00442888)
(-0.0138276 -0.0177292 -0.0053778)
(-0.0145935 -0.012644 -0.00616856)
(-0.0120856 -0.0126789 -0.00574479)
(-0.0116966 -0.012741 -0.00505701)
(-0.0140693 -0.0135642 -0.00530149)
(-0.0162299 -0.0135102 -0.00660647)
(-0.0130397 -0.0153772 -0.0213801)
(-0.0136409 -0.01716 -0.0209923)
(-0.0134705 -0.0177106 -0.0185045)
(-0.0124964 -0.0159786 -0.018806)
(-0.0127214 -0.015239 -0.020152)
(-0.013575 -0.017731 -0.0201551)
(-0.00414097 -0.00298852 -0.00739355)
(-0.00393485 -0.00313585 -0.00686606)
(-0.00518982 -0.00312389 -0.00843233)
(-0.00468674 -0.00242816 -0.00795206)
(-0.00545894 -0.00245027 -0.00892336)
(-0.00436305 -0.00333266 -0.00740816)
(-0.00279321 -0.00314457 -0.0053409)
(-0.00281299 -0.00304968 -0.00531159)
(-0.00321066 -0.00302915 -0.00606409)
(-0.00304541 -0.00303509 -0.00550668)
(-0.00322713 -0.00346781 -0.00581643)
(-0.00307826 -0.00336866 -0.00574968)
(-0.00197045 -0.00420976 -0.00537554)
(-0.00161004 -0.00500906 -0.0056396)
(-0.00157775 -0.00390263 -0.00526202)
(-0.00185072 -0.00352458 -0.00628928)
(-0.00209134 -0.00392861 -0.00598048)
(-0.00177566 -0.00519666 -0.00529369)
(-0.00596051 -0.00135699 -0.00829108)
(-0.00647062 -0.00222103 -0.00895636)
(-0.00464337 -0.00164596 -0.00698912)
(-0.00566221 -0.00206861 -0.00836174)
(-0.00504605 -0.00210854 -0.00823074)
(-0.00531002 -0.00200604 -0.00896296)
(-0.00732168 -0.00195128 -0.0095232)
(-0.00534659 -0.00195717 -0.0085385)
(-0.00488149 -0.00181872 -0.00737005)
(-0.00582703 -0.00196763 -0.00919083)
(-0.00673008 -0.00185036 -0.00923246)
(-0.00655508 -0.00154459 -0.00876119)
(-0.00294356 -0.00222449 -0.00671786)
(-0.00317295 -0.00216648 -0.00625261)
(-0.00405577 -0.00246311 -0.00729074)
(-0.00319368 -0.00277856 -0.00611961)
(-0.00415818 -0.00245381 -0.00790198)
(-0.00292213 -0.0028683 -0.00637128)
(-0.0200742 -0.00439757 -0.00639297)
(-0.0220554 -0.0060542 -0.00386787)
(-0.0198155 -0.00538971 -0.00595335)
(-0.0187009 -0.00429262 -0.0066717)
(-0.0214839 -0.0069129 -0.00530492)
(-0.0210747 -0.00511947 -0.00503492)
(-0.0185195 -0.00250007 -0.00744959)
(-0.0199593 -0.00224556 -0.0069229)
(-0.0216968 -0.00308728 -0.00570677)
(-0.0199173 -0.00330879 -0.00663784)
(-0.0213328 -0.00404147 -0.00556645)
(-0.0226778 -0.00407939 -0.00488932)
(-0.0178814 0.000385195 -0.0108514)
(-0.0212228 -0.00154373 -0.00963484)
(-0.0195969 -0.000622276 -0.0108984)
(-0.0215131 -0.00129789 -0.0102613)
(-0.021189 -0.00268273 -0.0122076)
(-0.0202924 -0.00181526 -0.0107526)
(-0.018118 -0.000858382 -0.0119695)
(-0.0193908 2.26355e-05 -0.0110818)
(-0.0232345 -0.0112279 -0.0273968)
(-0.0194739 -0.0113542 -0.0272888)
(-0.0213891 -0.0108458 -0.0283909)
(-0.0240972 -0.00866028 -0.0252561)
(-0.0218063 -0.00986807 -0.0265275)
(-0.0238497 -0.00816026 -0.0254723)
(-0.0260245 -0.00818383 -0.0208819)
(-0.0269563 -0.00887512 -0.0184598)
(-0.0261417 -0.00878039 -0.0200531)
(-0.0263264 -0.00833237 -0.0186663)
(-0.0255941 -0.00863568 -0.0220516)
(-0.025201 -0.00784026 -0.0218636)
(-0.0276046 -0.00772528 -0.0177959)
(-0.0264974 -0.00785151 -0.016046)
(-0.0285303 -0.00905865 -0.0215281)
(-0.025752 -0.00816085 -0.0170538)
(-0.026112 -0.00942587 -0.0200654)
(-0.0221717 -0.00512617 -0.00453113)
(-0.0148354 -0.00370764 -0.00868216)
(-0.0167572 -0.00390371 -0.00774057)
(-0.0153774 -0.00331605 -0.00839935)
(-0.0177804 -0.00482323 -0.00733272)
(-0.0192379 -0.00550703 -0.00656568)
(-0.0143677 -0.00296438 -0.00904441)
(-0.014172 -0.00221717 -0.0092612)
(-0.0150922 -0.00262592 -0.00881556)
(-0.0174395 -0.0037544 -0.00747409)
(-0.0165962 -0.00310121 -0.00821191)
(-0.0173709 -0.0031175 -0.00803992)
(-0.0189463 -0.00361545 -0.00722823)
(-0.0146364 -0.00205207 -0.00895891)
(-0.0170209 -0.00213657 -0.00817888)
(-0.0162911 -0.00239315 -0.00837109)
(-0.0031443 -0.00306655 -0.00582436)
(-0.003053 -0.00358782 -0.00493385)
(-0.00323784 -0.00351796 -0.00546386)
(-0.00320407 -0.00344773 -0.00508099)
(-0.00361191 -0.00352962 -0.00606121)
(-0.00355929 -0.00342105 -0.00595178)
(-0.00416191 -0.00347124 -0.00711637)
(-0.00364545 -0.00357123 -0.0063155)
(-0.00354144 -0.00267129 -0.00657246)
(-0.00417073 -0.00241043 -0.00721027)
(-0.00368743 -0.00261216 -0.00687199)
(-0.00471144 -0.00241714 -0.00791481)
(-0.00541717 -0.00180767 -0.00850236)
(-0.00610918 -0.00136424 -0.00899838)
(-0.00567676 -0.00184383 -0.00884793)
(-0.00600901 -0.00204011 -0.00916535)
(-0.00637297 -0.00185394 -0.0096101)
(-0.00620644 -0.0198296 -0.00333231)
(-0.0070209 -0.0190587 -0.00169054)
(-0.00870819 -0.0199448 -0.00106629)
(-0.0249653 -0.0136265 -0.0127296)
(-0.0183639 -0.0133746 -0.00755876)
(-0.0218186 -0.0130406 -0.0094621)
(-0.0233678 -0.0127171 -0.0105024)
(-0.0231852 -0.0141314 -0.0107367)
(-0.0248225 -0.01555 -0.0125482)
(-0.0245646 -0.0145178 -0.0125939)
(-0.0147895 -0.00873931 -0.0216247)
(-0.0181846 -0.00524445 -0.0179531)
(-0.0187277 -0.00558273 -0.0177766)
(-0.0183081 -0.00491701 -0.0157928)
(-0.0181631 -0.00462367 -0.0128697)
(-0.0181801 -0.00573497 -0.0151259)
(-0.0165617 -0.00542318 -0.0107796)
(-0.0153827 -0.00497499 -0.0102587)
(-0.0154455 -0.00428923 -0.0109562)
(-0.0172254 -0.00530603 -0.0124591)
(-0.0151921 -0.00457859 -0.00910035)
(-0.00312193 -0.00517306 -0.00532817)
(-0.00328399 -0.00499862 -0.0053394)
(-0.00380312 -0.00519204 -0.00485689)
(-0.0029106 -0.00429247 -0.0050531)
(-0.00539089 -0.0069124 -0.00546194)
(-0.00421881 -0.00563718 -0.00506544)
(-0.00434661 -0.00623571 -0.00498487)
(-0.00530198 -0.0068007 -0.0049085)
(-0.0112249 -0.00861824 -0.00520271)
(-0.00865847 -0.00784641 -0.00507814)
(-0.00466065 -0.00543318 -0.00468894)
(-0.00347242 -0.00452333 -0.00430104)
(-0.0133069 -0.00866851 -0.00593783)
(-0.0119219 -0.00842946 -0.00500263)
(-0.0103066 -0.00813066 -0.00521797)
(-0.0137125 -0.00818619 -0.00609807)
(-0.0103389 -0.0075971 -0.00502306)
(-0.0121867 -0.00763084 -0.00537881)
(-0.0125795 -0.00716452 -0.00541933)
(-0.0111791 -0.00685398 -0.00487916)
(-0.0105954 -0.00656937 -0.00497799)
(-0.0117799 -0.00676403 -0.0051292)
(-0.00891729 -0.0070669 -0.0047533)
(-0.00971462 -0.00694202 -0.00470707)
(-0.00824223 -0.00640454 -0.00445524)
(-0.00677911 -0.00639736 -0.00485358)
(-0.00778042 -0.00595908 -0.00425588)
(-0.00883327 -0.00617308 -0.00428924)
(-0.00535726 -0.00528473 -0.0109906)
(-0.00619854 -0.00545275 -0.00408523)
(-0.0130571 -0.00688979 -0.0061565)
(-0.0179075 -0.0123837 -0.00737267)
(-0.0245273 -0.0125549 -0.0159805)
(-0.0253894 -0.0138822 -0.0150724)
(-0.0169165 -0.00852905 -0.0211972)
(-0.0222311 -0.00886036 -0.0241236)
(-0.0196639 -0.00958961 -0.0238496)
(-0.018274 -0.0100341 -0.0249978)
(-0.0159976 -0.00940784 -0.0224695)
(-0.0170138 -0.00916339 -0.0235297)
(-0.0153178 -0.0107951 -0.0243931)
(-0.0135932 -0.0105559 -0.0235281)
(-0.0151645 -0.0114642 -0.0247545)
(-0.0130767 -0.00922529 -0.0217443)
(-0.0131586 -0.00934687 -0.021971)
(-0.0105919 -0.010805 -0.0212465)
(-0.00553905 -0.0188915 -0.0111829)
(-0.00578634 -0.0194922 -0.00347986)
(-0.0058212 -0.0199653 -0.00471656)
(-0.00495935 -0.0190342 -0.00895681)
(-0.00218982 -0.0151086 -0.00781213)
(-0.00506741 -0.0195555 -0.00539475)
(-0.00641432 -0.0172669 -0.0159576)
(-0.00546142 -0.0172329 -0.0128487)
(-0.0117683 -0.0142138 -0.0234772)
(-0.00735925 -0.0171422 -0.0186907)
(-0.0174187 -0.0146585 -0.010546)
(-0.0136179 -0.0166452 -0.0182784)
(-0.0132057 -0.01665 -0.0195141)
(-0.0139232 -0.0178332 -0.0181981)
(-0.0145494 -0.0175969 -0.0156168)
(-0.0147085 -0.0178576 -0.0153178)
(-0.0140918 -0.0166423 -0.0144425)
(-0.0155399 -0.0156114 -0.0119367)
(-0.0149286 -0.0164441 -0.0142481)
(-0.0138433 -0.0183599 -0.0196517)
(-0.0132529 -0.0175427 -0.0173069)
(-0.015948 -0.0187949 -0.0125177)
(-0.0186458 -0.0162167 -0.0100383)
(-0.0154264 -0.0180443 -0.01452)
(-0.0193481 -0.00695481 -0.0219823)
(-0.0166427 -0.00909761 -0.0229251)
(-0.0174126 -0.00895698 -0.0235734)
(-0.0184304 -0.00839009 -0.0230741)
(-0.0198577 -0.00866377 -0.0240385)
(-0.0131817 -0.0161517 -0.022486)
(-0.0159076 -0.0177455 -0.0273341)
(-0.0152172 -0.0178436 -0.0254171)
(-0.0160175 -0.016785 -0.0263556)
(-0.0150896 -0.0127848 -0.0259555)
(-0.0165893 -0.013257 -0.0267037)
(-0.0203239 -0.00961437 -0.0254065)
(-0.0183318 -0.00942044 -0.0253472)
(-0.0178061 -0.0115921 -0.0266265)
(-0.0220082 -0.0101023 -0.0276147)
(-0.0231441 -0.00997848 -0.027966)
(-0.0195735 -0.0100721 -0.0256108)
(-0.0147602 -0.0139533 -0.0250237)
(-0.0143816 -0.0174348 -0.026008)
(-0.0125326 -0.0184208 -0.0217769)
(-0.0137727 -0.0170309 -0.0185946)
(-0.0132398 -0.0152038 -0.0212223)
(-0.0116154 -0.0122853 -0.0196155)
(-0.0169328 -0.00583087 -0.0187048)
(-0.0133048 -0.0119353 -0.0231804)
(-0.0136062 -0.0148845 -0.0226349)
(-0.0140468 -0.0141805 -0.0236913)