/*--------------------------------*- C++ -*----------------------------------*\
| =========                 |                                                 |
| \\      /  F ield         | OpenFOAM: The Open Source CFD Toolbox           |
|  \\    /   O peration     | Version:  v1612+                                |
|   \\  /    A nd           | Web:      www.OpenFOAM.com                      |
|    \\/     M anipulation  |                                                 |
\*---------------------------------------------------------------------------*/
FoamFile
{
    version     2.0;
    format      ascii;
    class       volVectorField;
    location    "150";
    object      U;
}
// * * * * * * * * * * * * * * * * * * * * * * * * * * * * * * * * * * * * * //

dimensions      [0 1 -1 0 0 0 0];

internalField   nonuniform List<vector> 
17165
(
(-0.914119 0.478944 -0.235898)
(-0.963609 0.487771 -0.263527)
(-0.960434 0.495024 -0.246614)
(-0.992988 0.509531 -0.260669)
(-0.930065 0.464583 -0.249113)
(-0.873603 0.460364 -0.220626)
(-1.01128 0.473786 -0.264956)
(-1.006 0.47936 -0.260695)
(-0.945786 0.489202 -0.221928)
(-0.90892 0.475891 -0.187293)
(-0.989663 0.474659 -0.245559)
(-0.999223 0.490312 -0.260034)
(-0.916843 0.481014 -0.203226)
(-0.851052 0.464669 -0.173777)
(-0.958638 0.464249 -0.241658)
(-0.925896 0.475179 -0.211474)
(-0.880087 0.452145 -0.20591)
(-0.90529 0.455596 -0.219422)
(-0.775585 0.741293 -0.382936)
(-0.752992 0.727402 -0.378961)
(-0.872792 0.697177 -0.372669)
(-0.865719 0.715952 -0.383145)
(-0.812331 0.716471 -0.37997)
(-0.749197 0.722884 -0.386996)
(-0.723114 0.717112 -0.365082)
(-0.874849 0.691881 -0.37795)
(-0.86207 0.702928 -0.379767)
(-0.87176 0.693935 -0.365259)
(-0.803089 0.712707 -0.369206)
(-0.764056 0.714389 -0.379468)
(-0.746863 0.700332 -0.373504)
(-0.791624 0.71904 -0.388209)
(-0.829124 0.708001 -0.370674)
(-0.799809 0.704791 -0.377792)
(-0.769107 0.713904 -0.36882)
(-0.481011 0.606394 -0.134111)
(-0.526093 0.625309 -0.132534)
(-0.589153 0.608325 -0.186392)
(-0.590204 0.598688 -0.202702)
(-0.48673 0.62624 -0.127028)
(-0.444912 0.594425 -0.125219)
(-0.509326 0.612987 -0.16551)
(-0.567289 0.607941 -0.200267)
(-0.597844 0.607394 -0.198356)
(-0.444288 0.597271 -0.147853)
(-0.450419 0.601786 -0.162443)
(-0.398036 0.591508 -0.133805)
(-0.430472 0.595009 -0.131159)
(-0.462714 0.600535 -0.147868)
(-0.500415 0.613602 -0.173147)
(-0.596431 0.742607 -0.153642)
(-0.631419 0.74842 -0.139936)
(-0.604996 0.757014 -0.135861)
(-0.588405 0.758783 -0.137132)
(-0.571509 0.710154 -0.208766)
(-0.597453 0.685018 -0.198539)
(-0.601564 0.72607 -0.185602)
(-0.637536 0.713258 -0.171039)
(-0.622876 0.765751 -0.146487)
(-0.688386 0.726614 -0.176831)
(-0.676416 0.753044 -0.171081)
(-0.594146 0.781758 -0.13762)
(-0.621427 0.693668 -0.196114)
(-0.621588 0.67478 -0.220047)
(-0.666705 0.698177 -0.196911)
(-0.647874 0.647184 -0.210785)
(-0.587234 0.751132 -0.189286)
(-0.632182 0.646226 -0.212651)
(-0.489647 0.783359 -0.174826)
(-0.550004 0.75962 -0.198576)
(-0.479316 0.77129 -0.157303)
(-0.438163 0.748182 -0.152895)
(-0.456627 0.764613 -0.15188)
(-0.497366 0.755249 -0.168448)
(-0.488922 0.7596 -0.158414)
(-0.436365 0.739999 -0.128003)
(-0.525622 0.78827 -0.159668)
(-0.538552 0.779637 -0.190666)
(-0.567997 0.763155 -0.178629)
(-0.553832 0.796238 -0.141561)
(-0.55064 0.770897 -0.136951)
(-0.491912 0.75288 -0.139178)
(-0.489356 0.301193 -0.24523)
(-0.555148 0.292559 -0.230162)
(-0.527639 0.297206 -0.242236)
(-0.579449 0.315435 -0.238631)
(-0.631893 0.343626 -0.247214)
(-0.501799 0.339907 -0.262723)
(-0.502426 0.323352 -0.252755)
(-0.536496 0.298684 -0.231637)
(-0.520265 0.337395 -0.256534)
(-0.597495 0.314689 -0.245126)
(-0.591979 0.347803 -0.242992)
(-0.617973 0.345986 -0.240672)
(-0.592077 0.343953 -0.236775)
(-0.613804 0.333959 -0.2451)
(-0.644373 0.341994 -0.250358)
(-0.564528 0.291818 -0.230293)
(-0.643892 0.327791 -0.250147)
(-0.587425 0.378972 -0.264952)
(-0.547113 0.351649 -0.262277)
(-0.903318 0.346787 -0.27857)
(-0.873921 0.295987 -0.279265)
(-0.848875 0.331537 -0.264891)
(-0.910784 0.364014 -0.266001)
(-0.862074 0.285013 -0.276868)
(-0.805628 0.254984 -0.272028)
(-0.885245 0.26963 -0.314897)
(-0.693169 0.207993 -0.240153)
(-0.769539 0.271383 -0.255453)
(-0.908831 0.333263 -0.269591)
(-0.920382 0.306321 -0.29071)
(-0.79164 0.244761 -0.270936)
(-0.858509 0.273165 -0.282475)
(-0.839316 0.343927 -0.257629)
(-0.74704 0.258533 -0.261943)
(-0.865443 0.326554 -0.257694)
(-0.884216 0.343155 -0.268921)
(-0.766904 0.342485 -0.201691)
(-0.779359 0.354259 -0.205382)
(-0.713079 0.346908 -0.166975)
(-0.763627 0.310308 -0.21373)
(-0.780728 0.302401 -0.222029)
(-0.650433 0.297266 -0.160837)
(-0.678032 0.342342 -0.148143)
(-0.74804 0.34389 -0.181006)
(-0.695458 0.280953 -0.18862)
(-0.673931 0.266064 -0.179187)
(-0.71713 0.26494 -0.208927)
(-0.630499 0.259244 -0.161647)
(-0.62263 0.2703 -0.145603)
(-0.614723 0.284588 -0.140669)
(-0.733818 0.283068 -0.187232)
(-0.646359 0.272737 -0.158132)
(-0.645879 0.275431 -0.151946)
(-0.826304 0.297241 -0.297261)
(-0.802535 0.298242 -0.301014)
(-0.818113 0.312052 -0.312961)
(-0.958478 0.366789 -0.352426)
(-0.918302 0.356178 -0.337733)
(-0.857879 0.3395 -0.31594)
(-0.978761 0.381638 -0.355821)
(-1.00256 0.376522 -0.363289)
(-0.872332 0.36166 -0.316428)
(-0.927478 0.384114 -0.333714)
(-0.923256 0.330799 -0.334667)
(-0.901597 0.329613 -0.320476)
(-0.913492 0.379302 -0.3292)
(-0.973555 0.410095 -0.357796)
(-0.99403 0.398082 -0.369554)
(-0.987421 0.401919 -0.367537)
(-0.959048 0.395743 -0.354521)
(-0.905157 0.340191 -0.328149)
(-0.935104 0.369806 -0.347457)
(-0.954858 0.406295 -0.34551)
(-0.658436 0.640031 -0.216411)
(-0.711378 0.700788 -0.21517)
(-0.664743 0.62753 -0.217298)
(-0.714569 0.677769 -0.216144)
(-0.736725 0.62551 -0.23699)
(-0.675496 0.667105 -0.21743)
(-0.696832 0.699725 -0.219907)
(-0.680829 0.582589 -0.240074)
(-0.710573 0.625469 -0.249063)
(-0.750567 0.679286 -0.226023)
(-0.662199 0.590161 -0.23726)
(-0.719059 0.679416 -0.241024)
(-0.689814 0.633414 -0.249378)
(-0.529835 0.592289 -0.261639)
(-0.552114 0.567311 -0.250048)
(-0.524992 0.533254 -0.245865)
(-0.53526 0.552243 -0.240203)
(-0.53894 0.552984 -0.24953)
(-0.554094 0.566375 -0.240406)
(-0.53134 0.475256 -0.248655)
(-0.55365 0.438984 -0.228823)
(-0.593587 0.492045 -0.234952)
(-0.5453 0.474373 -0.248948)
(-0.538068 0.44348 -0.231798)
(-0.550694 0.462148 -0.222798)
(-0.561212 0.471439 -0.228851)
(-0.604225 0.595748 -0.246651)
(-0.582048 0.473272 -0.242505)
(-0.55266 0.421528 -0.242155)
(-0.594309 0.50018 -0.225767)
(-0.528254 0.269289 -0.10156)
(-0.568144 0.275435 -0.115249)
(-0.571144 0.313742 -0.103985)
(-0.522539 0.291912 -0.0904708)
(-0.69387 0.347695 -0.161227)
(-0.694678 0.358287 -0.159083)
(-0.604844 0.350957 -0.115953)
(-0.597797 0.350217 -0.105081)
(-0.538828 0.312623 -0.104518)
(-0.480763 0.290032 -0.0816443)
(-0.644719 0.305973 -0.152716)
(-0.641366 0.357431 -0.125052)
(-0.560667 0.283296 -0.113989)
(-0.622747 0.342957 -0.112031)
(-0.301442 0.345648 -0.280905)
(-0.258614 0.330908 -0.27131)
(-0.241032 0.352 -0.267835)
(-0.201653 0.308149 -0.240931)
(-0.23217 0.295994 -0.24338)
(-0.31611 0.338385 -0.267248)
(-0.323745 0.352265 -0.276819)
(-0.196437 0.279788 -0.231366)
(-0.257565 0.347356 -0.274625)
(-0.307516 0.367109 -0.280943)
(-0.247529 0.325272 -0.263026)
(-0.256037 0.301748 -0.247414)
(-0.225321 0.302216 -0.248046)
(-0.433266 0.208806 -0.201406)
(-0.404815 0.20419 -0.18521)
(-0.439575 0.202688 -0.178492)
(-0.452953 0.208635 -0.19084)
(-0.437358 0.215785 -0.194912)
(-0.540684 0.226779 -0.178181)
(-0.450947 0.210687 -0.174088)
(-0.530901 0.214478 -0.184274)
(-0.486826 0.223104 -0.180317)
(-0.534233 0.217742 -0.185478)
(-0.611943 0.229638 -0.207325)
(-0.799955 0.372619 -0.218232)
(-0.847372 0.396048 -0.236434)
(-0.879144 0.390572 -0.270576)
(-0.893677 0.397844 -0.273519)
(-0.845986 0.363532 -0.256128)
(-0.801942 0.367627 -0.222458)
(-0.880254 0.378619 -0.284836)
(-0.876835 0.374611 -0.294694)
(-0.817498 0.321568 -0.248887)
(-0.849767 0.382044 -0.264497)
(-0.841641 0.310544 -0.279999)
(-0.514464 0.304158 -0.229567)
(-0.499422 0.292305 -0.227164)
(-0.475729 0.26799 -0.214701)
(-0.454803 0.268491 -0.215727)
(-0.407195 0.264868 -0.217789)
(-0.393631 0.265803 -0.220191)
(-0.421758 0.272549 -0.231099)
(-0.357028 0.271677 -0.23106)
(-0.368154 0.288247 -0.244877)
(-0.457951 0.301457 -0.238652)
(-0.435396 0.282759 -0.245678)
(-0.395253 0.302303 -0.256338)
(-0.389263 0.297885 -0.248812)
(-0.660484 0.342819 -0.254915)
(-0.663375 0.299425 -0.261054)
(-0.644188 0.444197 -0.253772)
(-0.639169 0.410936 -0.244899)
(-0.592506 0.359188 -0.248429)
(-0.728809 0.40432 -0.259711)
(-0.702758 0.459951 -0.230688)
(-0.62486 0.412082 -0.249448)
(-0.606027 0.439948 -0.239375)
(-0.630629 0.337245 -0.249764)
(-0.655961 0.385852 -0.246393)
(-0.658558 0.328702 -0.249768)
(-0.768155 0.459502 -0.252074)
(-0.629923 0.440378 -0.208452)
(-0.491688 0.782073 -0.153874)
(-0.427601 0.746425 -0.145035)
(-0.562563 0.770427 -0.192914)
(-0.524748 0.778924 -0.197321)
(-0.417565 0.759478 -0.168016)
(-0.484073 0.791666 -0.165878)
(-0.396318 0.737162 -0.146307)
(-0.520973 0.740284 -0.21584)
(-0.511136 0.764888 -0.20753)
(-0.452001 0.762915 -0.158836)
(-0.404632 0.749376 -0.163756)
(-0.441289 0.771635 -0.197693)
(-0.444089 0.751955 -0.190829)
(-0.410873 0.758357 -0.184704)
(-0.46729 0.464489 -0.252638)
(-0.429622 0.431417 -0.272319)
(-0.404651 0.471085 -0.289748)
(-0.451417 0.49109 -0.276858)
(-0.418277 0.417978 -0.269374)
(-0.506272 0.466274 -0.245353)
(-0.476392 0.433545 -0.247189)
(-0.405458 0.481572 -0.296075)
(-0.72952 0.192492 -0.247435)
(-0.705872 0.1908 -0.235785)
(-0.720587 0.191085 -0.238376)
(-0.606418 0.188233 -0.215177)
(-0.590087 0.171756 -0.219704)
(-0.636321 0.177619 -0.213912)
(-0.634337 0.184041 -0.209358)
(-0.658573 0.191881 -0.229306)
(-0.644375 0.182524 -0.238061)
(-0.580155 0.170337 -0.218732)
(-0.601196 0.186439 -0.207373)
(-0.695778 0.167333 -0.254218)
(-0.662445 0.161814 -0.241832)
(-0.493856 0.326232 -0.16878)
(-0.471046 0.338447 -0.158408)
(-0.478001 0.317592 -0.175291)
(-0.487148 0.331678 -0.169206)
(-0.480589 0.343309 -0.155947)
(-0.496058 0.344028 -0.168066)
(-0.517007 0.337905 -0.173351)
(-0.495476 0.34545 -0.152147)
(-0.541108 0.351508 -0.198264)
(-0.572242 0.349831 -0.20585)
(-0.496084 0.362467 -0.159235)
(-0.47779 0.344626 -0.15097)
(-0.577886 0.366734 -0.181841)
(-0.554657 0.382536 -0.170005)
(-0.5369 0.37247 -0.156209)
(-0.548409 0.399903 -0.17391)
(-0.593358 0.360502 -0.195594)
(-0.65312 0.433826 -0.204902)
(-0.609132 0.424242 -0.190606)
(-0.544665 0.38892 -0.157112)
(-0.578131 0.415059 -0.173566)
(-0.505507 0.372587 -0.14545)
(-0.59813 0.401583 -0.201047)
(-0.641417 0.392885 -0.227464)
(-0.628692 0.442847 -0.196969)
(-0.632861 0.405844 -0.215121)
(-0.813118 0.360337 -0.214809)
(-0.814421 0.37636 -0.213156)
(-0.822973 0.356391 -0.222454)
(-0.808161 0.376437 -0.20826)
(-0.814516 0.393902 -0.214043)
(-0.885355 0.337158 -0.282423)
(-0.879855 0.31463 -0.275658)
(-0.88612 0.317632 -0.284153)
(-0.863606 0.349248 -0.241302)
(-0.84078 0.378516 -0.230098)
(-0.914236 0.331301 -0.306997)
(-0.895174 0.314913 -0.297983)
(-0.851528 0.367484 -0.248666)
(-0.909488 0.401455 -0.294217)
(-0.927094 0.379203 -0.317906)
(-0.871987 0.413197 -0.260849)
(-0.946748 0.407279 -0.3235)
(-0.928877 0.368153 -0.312)
(-0.89085 0.403527 -0.28094)
(-0.759761 0.525285 -0.219824)
(-0.774013 0.590473 -0.226895)
(-0.7922 0.576645 -0.206715)
(-0.775592 0.497443 -0.234273)
(-0.724886 0.432137 -0.253764)
(-0.789115 0.489455 -0.236563)
(-0.721146 0.478352 -0.240608)
(-0.747222 0.452147 -0.245499)
(-0.726745 0.53328 -0.219247)
(-0.774469 0.573475 -0.210467)
(-0.762434 0.479693 -0.240417)
(-0.746284 0.501767 -0.234484)
(-0.771167 0.541807 -0.220239)
(-0.728927 0.498065 -0.2383)
(-0.830315 0.528136 -0.234676)
(-0.827192 0.489559 -0.248709)
(-0.816671 0.547449 -0.221804)
(-0.7777 0.55568 -0.214558)
(-0.672311 0.741371 -0.12181)
(-0.638216 0.723089 -0.119086)
(-0.638791 0.771795 -0.137537)
(-0.686412 0.719594 -0.140898)
(-0.668007 0.697511 -0.174073)
(-0.690892 0.713408 -0.138531)
(-0.612084 0.722688 -0.11232)
(-0.667129 0.706185 -0.184868)
(-0.657821 0.671228 -0.185924)
(-0.678258 0.666009 -0.204929)
(-0.668461 0.682037 -0.183805)
(-0.711359 0.670366 -0.185854)
(-0.732261 0.683566 -0.171951)
(-0.700731 0.662302 -0.191697)
(-0.716193 0.658102 -0.184723)
(-0.41517 0.195603 -0.21766)
(-0.462178 0.193249 -0.222737)
(-0.482673 0.264525 -0.249128)
(-0.453251 0.258454 -0.238218)
(-0.42064 0.203278 -0.213373)
(-0.375371 0.208984 -0.215728)
(-0.476894 0.203411 -0.233257)
(-0.438275 0.242904 -0.234543)
(-0.422882 0.230192 -0.227293)
(-0.488667 0.266992 -0.244633)
(-0.410247 0.253968 -0.229179)
(-0.515366 0.230525 -0.233495)
(-0.45714 0.233855 -0.232457)
(-0.5186 0.207824 -0.22992)
(-0.47523 0.230737 -0.236241)
(-0.781606 0.401831 -0.268544)
(-0.75856 0.364639 -0.258862)
(-0.736284 0.350633 -0.255983)
(-0.697327 0.349111 -0.249948)
(-0.828735 0.471214 -0.247022)
(-0.796103 0.480731 -0.239564)
(-0.836496 0.445061 -0.268285)
(-0.852695 0.437778 -0.264639)
(-0.6966 0.354271 -0.258485)
(-0.709254 0.341604 -0.258858)
(-0.746779 0.381667 -0.258914)
(-0.814906 0.482281 -0.234495)
(-0.750107 0.46649 -0.230153)
(-0.736897 0.373806 -0.258783)
(-0.731029 0.424501 -0.250976)
(-0.718396 0.406765 -0.263978)
(-0.73232 0.437498 -0.247002)
(-0.817145 0.451781 -0.24957)
(-0.779923 0.432366 -0.229141)
(-0.764755 0.444745 -0.233657)
(-0.708469 0.432179 -0.248682)
(-0.761908 0.454223 -0.234592)
(-0.614799 0.290199 -0.257704)
(-0.501854 0.302216 -0.250881)
(-0.534773 0.320975 -0.253906)
(-0.613165 0.385408 -0.237216)
(-0.599886 0.402873 -0.235366)
(-0.659438 0.322064 -0.246459)
(-0.626581 0.373401 -0.256409)
(-0.615789 0.41664 -0.228262)
(-0.585023 0.421104 -0.227659)
(-0.588465 0.262017 -0.257441)
(-0.56144 0.29439 -0.254166)
(-0.533467 0.295986 -0.253588)
(-0.512287 0.361183 -0.25336)
(-0.539224 0.373516 -0.247766)
(-0.54411 0.30606 -0.252545)
(-0.539569 0.346209 -0.253075)
(-0.660302 0.372115 -0.24319)
(-0.622131 0.302529 -0.25344)
(-0.69447 0.32498 -0.252768)
(-0.64436 0.298845 -0.262)
(-0.766033 0.500653 -0.203602)
(-0.727525 0.510108 -0.208126)
(-0.635966 0.537605 -0.158499)
(-0.674688 0.534654 -0.157187)
(-0.743732 0.447531 -0.240891)
(-0.697037 0.486084 -0.218353)
(-0.704869 0.492624 -0.229583)
(-0.637403 0.51581 -0.199988)
(-0.66994 0.485048 -0.237598)
(-0.586755 0.522905 -0.170972)
(-0.562329 0.506204 -0.175605)
(-0.707641 0.525445 -0.188805)
(-0.725166 0.47122 -0.238534)
(-0.6714 0.497867 -0.20964)
(-0.390898 0.451616 -0.212367)
(-0.435763 0.468949 -0.233514)
(-0.532849 0.467161 -0.245178)
(-0.383245 0.458626 -0.216677)
(-0.337365 0.435599 -0.193717)
(-0.530978 0.436056 -0.244745)
(-0.476156 0.49082 -0.225406)
(-0.432273 0.454806 -0.216825)
(-0.530292 0.520404 -0.201565)
(-0.461612 0.492622 -0.19516)
(-0.372557 0.450696 -0.190849)
(-0.548603 0.479093 -0.238593)
(-0.465469 0.490803 -0.212665)
(-0.439312 0.503208 -0.17742)
(-0.374317 0.459065 -0.174227)
(-0.72444 0.226791 -0.272041)
(-0.740913 0.250624 -0.260242)
(-0.757206 0.236215 -0.27267)
(-0.681069 0.213193 -0.248903)
(-0.808535 0.274127 -0.305742)
(-0.765543 0.264793 -0.29296)
(-0.692722 0.204537 -0.248198)
(-0.682649 0.209812 -0.246276)
(-0.656526 0.207531 -0.241592)
(-0.770053 0.229134 -0.280702)
(-0.805511 0.269282 -0.288723)
(-0.69228 0.257079 -0.254518)
(-0.71758 0.250681 -0.251485)
(-0.722417 0.26962 -0.259207)
(-0.762376 0.264555 -0.26614)
(-0.616341 0.202473 -0.241394)
(-0.667077 0.197435 -0.257608)
(-0.640249 0.206174 -0.252277)
(-0.732508 0.243114 -0.266137)
(-0.652647 0.243999 -0.252718)
(-0.787424 0.279816 -0.272505)
(-0.786141 0.265163 -0.289755)
(-0.669309 0.248311 -0.249169)
(-0.634142 0.221803 -0.248917)
(-0.708014 0.204162 -0.259936)
(-0.770461 0.253789 -0.274872)
(-0.598312 0.593093 -0.10733)
(-0.57797 0.585667 -0.0992611)
(-0.578851 0.582723 -0.122225)
(-0.577026 0.588885 -0.106044)
(-0.611578 0.605067 -0.138164)
(-0.683583 0.588644 -0.127953)
(-0.691222 0.583905 -0.112382)
(-0.622309 0.575969 -0.0993258)
(-0.596141 0.565438 -0.140827)
(-0.711823 0.570652 -0.195056)
(-0.605614 0.580281 -0.122597)
(-0.605228 0.58197 -0.116698)
(-0.647143 0.575511 -0.132587)
(-0.659784 0.578969 -0.114579)
(-0.75896 0.570322 -0.187024)
(-0.650922 0.581813 -0.101562)
(-0.724517 0.582559 -0.12987)
(-0.71936 0.554628 -0.209746)
(-0.755669 0.564178 -0.199895)
(-0.743188 0.550423 -0.212166)
(-0.656717 0.574777 -0.115341)
(-0.780468 0.551372 -0.19982)
(-0.640522 0.695503 -0.200236)
(-0.612808 0.725845 -0.188167)
(-0.61977 0.663175 -0.20744)
(-0.624599 0.679615 -0.214995)
(-0.617519 0.636855 -0.217496)
(-0.592414 0.710834 -0.197675)
(-0.513414 0.700842 -0.2309)
(-0.52442 0.648451 -0.234493)
(-0.582109 0.670322 -0.236297)
(-0.57476 0.650271 -0.225596)
(-0.540951 0.70818 -0.211142)
(-0.532534 0.684895 -0.225585)
(-0.929331 0.384008 -0.300534)
(-0.940823 0.369147 -0.29811)
(-1.00012 0.382397 -0.339971)
(-1.02699 0.408426 -0.322513)
(-0.998052 0.407657 -0.300301)
(-1.00448 0.408071 -0.292422)
(-0.94324 0.343721 -0.311865)
(-0.957722 0.341718 -0.315095)
(-1.04448 0.4019 -0.346066)
(-1.03369 0.421594 -0.312793)
(-1.01951 0.377688 -0.333306)
(-0.965525 0.334171 -0.320283)
(-0.936849 0.3522 -0.299348)
(-1.03401 0.414048 -0.293304)
(-1.06488 0.372871 -0.317805)
(-1.03436 0.395574 -0.31352)
(-1.02027 0.376232 -0.307491)
(-0.647432 0.659522 -0.097335)
(-0.615794 0.642865 -0.0944937)
(-0.644133 0.639942 -0.109992)
(-0.592481 0.648526 -0.0949597)
(-0.707152 0.651936 -0.107359)
(-0.705936 0.670509 -0.122466)
(-0.765992 0.602471 -0.181526)
(-0.63249 0.655986 -0.111563)
(-0.642589 0.628547 -0.137468)
(-0.64295 0.666197 -0.118637)
(-0.704973 0.648221 -0.129696)
(-0.733591 0.642262 -0.167878)
(-0.694916 0.613937 -0.165228)
(-0.749196 0.620982 -0.183673)
(-0.824715 0.414899 -0.230587)
(-0.788894 0.403863 -0.202301)
(-0.825509 0.397349 -0.229564)
(-0.904638 0.374576 -0.272993)
(-0.941326 0.389513 -0.303107)
(-0.803334 0.433893 -0.216739)
(-0.744365 0.424339 -0.175835)
(-0.818902 0.411886 -0.234336)
(-0.794351 0.430601 -0.193147)
(-0.823631 0.428108 -0.195743)
(-0.820203 0.332401 -0.210901)
(-0.852831 0.348838 -0.246163)
(-0.89399 0.399412 -0.28124)
(-0.907178 0.342314 -0.279941)
(-0.917246 0.349609 -0.281286)
(-0.772331 0.432176 -0.193671)
(-0.78858 0.425341 -0.190459)
(-0.828167 0.365198 -0.218038)
(-0.914535 0.385109 -0.289187)
(-0.858052 0.398064 -0.252618)
(-0.904855 0.553584 -0.363968)
(-0.892213 0.56871 -0.347386)
(-0.85226 0.616109 -0.362359)
(-0.817319 0.630304 -0.335619)
(-0.916779 0.58313 -0.371131)
(-0.858992 0.557527 -0.323259)
(-0.929262 0.541986 -0.368088)
(-0.762491 0.645744 -0.314717)
(-0.770858 0.651194 -0.329836)
(-0.894519 0.583404 -0.352758)
(-0.776113 0.620646 -0.339418)
(-0.831315 0.630684 -0.364239)
(-0.913836 0.568436 -0.361528)
(-0.874169 0.570643 -0.339562)
(-0.894934 0.594551 -0.361401)
(-0.78962 0.610418 -0.328498)
(-0.710699 0.607108 -0.300146)
(-0.762067 0.62739 -0.300914)
(-0.653279 0.598282 -0.274343)
(-0.762094 0.616098 -0.300455)
(-0.81321 0.648594 -0.30661)
(-0.826805 0.616565 -0.336536)
(-0.817718 0.616275 -0.320934)
(-0.875722 0.607365 -0.329327)
(-0.968651 0.409914 -0.295078)
(-0.927474 0.409441 -0.245277)
(-0.964466 0.425964 -0.282046)
(-0.995339 0.433838 -0.320667)
(-1.06215 0.439784 -0.326262)
(-0.933747 0.410175 -0.255195)
(-0.986648 0.416481 -0.301787)
(-0.939862 0.428533 -0.264489)
(-1.01333 0.442087 -0.288049)
(-1.05737 0.434251 -0.316975)
(-0.953311 0.425027 -0.258071)
(-1.01815 0.432519 -0.272676)
(-1.02975 0.4249 -0.277172)
(-1.02629 0.451449 -0.264886)
(-1.03261 0.441535 -0.26053)
(-1.03319 0.438094 -0.287332)
(-0.678641 0.280424 -0.19074)
(-0.700572 0.284484 -0.206943)
(-0.667427 0.266127 -0.186122)
(-0.527822 0.242009 -0.126774)
(-0.541405 0.265243 -0.114973)
(-0.654761 0.292038 -0.172271)
(-0.638658 0.295824 -0.149871)
(-0.559519 0.23946 -0.164293)
(-0.507545 0.227893 -0.138979)
(-0.60511 0.258722 -0.17697)
(-0.532926 0.247667 -0.141821)
(-0.513952 0.258229 -0.123361)
(-0.526727 0.269609 -0.118996)
(-0.527584 0.266448 -0.117316)
(-0.490607 0.23647 -0.117752)
(-0.614514 0.296192 -0.153725)
(-0.554916 0.272406 -0.139126)
(-0.821469 0.516965 -0.286266)
(-0.809462 0.506306 -0.265071)
(-0.859442 0.445495 -0.264611)
(-0.900841 0.423885 -0.303643)
(-0.726601 0.50112 -0.223298)
(-0.696523 0.493363 -0.19883)
(-0.904853 0.491501 -0.307792)
(-0.876218 0.449093 -0.287727)
(-0.893751 0.498823 -0.285263)
(-0.870146 0.450483 -0.272973)
(-0.867806 0.45314 -0.270163)
(-0.827032 0.461686 -0.238398)
(-0.835556 0.448094 -0.253683)
(-0.753732 0.482044 -0.223752)
(-0.728875 0.487252 -0.196757)
(-0.681851 0.475466 -0.182509)
(-0.919478 0.473167 -0.319101)
(-0.813902 0.49254 -0.270521)
(-0.87333 0.46674 -0.261921)
(-0.895771 0.466483 -0.289872)
(-0.762781 0.485981 -0.200012)
(-0.733737 0.478045 -0.194319)
(-0.743495 0.498832 -0.214654)
(-0.79995 0.4892 -0.222144)
(-0.754096 0.497292 -0.223739)
(-0.800929 0.489846 -0.241861)
(-0.694757 0.329144 -0.215701)
(-0.674238 0.307117 -0.215835)
(-0.729809 0.331187 -0.218729)
(-0.689645 0.351112 -0.196956)
(-0.629751 0.319236 -0.186372)
(-0.588879 0.284136 -0.194791)
(-0.574119 0.281456 -0.180518)
(-0.655378 0.347678 -0.172454)
(-0.64469 0.334171 -0.165345)
(-0.677124 0.312886 -0.196306)
(-0.607801 0.332894 -0.159241)
(-0.544007 0.260461 -0.168203)
(-0.547934 0.259323 -0.157466)
(-0.565845 0.283546 -0.136201)
(-0.639861 0.335926 -0.164272)
(-0.545266 0.299959 -0.141406)
(-0.561894 0.273759 -0.155561)
(-0.52978 0.273967 -0.139455)
(-0.562971 0.296458 -0.150662)
(-0.484299 0.429013 -0.275859)
(-0.491318 0.428051 -0.278093)
(-0.475332 0.518935 -0.280369)
(-0.408812 0.496425 -0.274193)
(-0.499766 0.424117 -0.273446)
(-0.507531 0.438406 -0.275505)
(-0.430915 0.433198 -0.287302)
(-0.455698 0.420745 -0.284139)
(-0.446708 0.447507 -0.27707)
(-0.510696 0.499437 -0.281263)
(-0.42566 0.444427 -0.285687)
(-0.380788 0.439166 -0.27797)
(-0.461696 0.452729 -0.278413)
(-0.489553 0.473735 -0.274674)
(-0.483132 0.511382 -0.273757)
(-0.359889 0.421421 -0.283392)
(-0.375162 0.413224 -0.282698)
(-0.382726 0.429227 -0.286131)
(-0.383786 0.387849 -0.281679)
(-0.357422 0.378205 -0.28488)
(-0.306365 0.395541 -0.273883)
(-0.358532 0.389914 -0.288597)
(-0.369616 0.417457 -0.289275)
(-0.27055 0.355795 -0.258359)
(-0.291823 0.347903 -0.264569)
(-0.28495 0.359578 -0.272007)
(-0.291973 0.400722 -0.280259)
(-0.268421 0.3506 -0.258867)
(-0.237537 0.351384 -0.249932)
(-0.583753 0.346718 -0.215551)
(-0.558768 0.347734 -0.22161)
(-0.581544 0.330255 -0.215505)
(-0.543887 0.338206 -0.225875)
(-0.566152 0.343724 -0.233507)
(-0.552345 0.333746 -0.213049)
(-0.539983 0.334299 -0.207689)
(-0.538407 0.320732 -0.220001)
(-0.548157 0.320151 -0.203473)
(-0.483449 0.318146 -0.20788)
(-0.469685 0.303591 -0.208271)
(-0.472521 0.294053 -0.210889)
(-0.506494 0.327111 -0.227489)
(-0.491583 0.324895 -0.22371)
(-0.436223 0.292899 -0.209948)
(-0.487561 0.308917 -0.210915)
(-0.485238 0.319536 -0.224052)
(-0.976666 0.447918 -0.228376)
(-0.999877 0.446817 -0.252914)
(-1.00917 0.44223 -0.240972)
(-0.984799 0.44654 -0.227468)
(-0.985902 0.428611 -0.222063)
(-0.988011 0.431986 -0.237435)
(-0.976203 0.430489 -0.243268)
(-1.01879 0.417874 -0.263139)
(-1.02199 0.425477 -0.257109)
(-0.9751 0.425376 -0.26819)
(-0.989053 0.433805 -0.272363)
(-0.979628 0.437161 -0.228823)
(-1.02188 0.432388 -0.270557)
(-0.974157 0.404086 -0.268232)
(-0.996978 0.412611 -0.274261)
(-0.624303 0.520398 -0.195882)
(-0.622206 0.538014 -0.18914)
(-0.718042 0.555765 -0.231606)
(-0.682264 0.552143 -0.212316)
(-0.54831 0.490618 -0.153232)
(-0.759885 0.541125 -0.26049)
(-0.741245 0.526447 -0.248024)
(-0.51159 0.454361 -0.129913)
(-0.652258 0.525836 -0.202306)
(-0.724212 0.498405 -0.222224)
(-0.741306 0.50844 -0.231491)
(-0.594676 0.483688 -0.149638)
(-0.657551 0.50073 -0.186924)
(-0.636551 0.492124 -0.171941)
(-0.346934 0.215269 -0.170177)
(-0.343177 0.209314 -0.159521)
(-0.472461 0.26126 -0.201486)
(-0.469436 0.270996 -0.183296)
(-0.443696 0.266386 -0.186832)
(-0.408792 0.236828 -0.184437)
(-0.324737 0.210075 -0.145799)
(-0.340502 0.210619 -0.14831)
(-0.354632 0.222503 -0.142371)
(-0.403558 0.238348 -0.149259)
(-0.517523 0.274585 -0.1855)
(-0.491761 0.257667 -0.192884)
(-0.465162 0.24408 -0.18249)
(-0.458541 0.247107 -0.164755)
(-0.440302 0.242967 -0.17196)
(-0.396963 0.232195 -0.155004)
(-0.460242 0.257348 -0.160841)
(-0.502419 0.265907 -0.165044)
(-0.799926 0.395421 -0.297839)
(-0.83594 0.42514 -0.312748)
(-0.777469 0.367295 -0.284659)
(-0.736314 0.359496 -0.279528)
(-0.763462 0.347525 -0.28108)
(-0.832043 0.445563 -0.320124)
(-0.814672 0.426743 -0.30945)
(-0.733093 0.336236 -0.26545)
(-0.717392 0.356525 -0.278776)
(-0.768374 0.349852 -0.282984)
(-0.791078 0.379393 -0.300963)
(-0.832815 0.443254 -0.325859)
(-0.802255 0.40294 -0.306223)
(-0.681868 0.321134 -0.249446)
(-0.688418 0.326116 -0.257313)
(-0.694798 0.340092 -0.263712)
(-0.746183 0.37992 -0.273508)
(-0.807457 0.405482 -0.29294)
(-0.749048 0.370726 -0.27411)
(-0.950516 0.493365 -0.353191)
(-0.909087 0.51632 -0.328016)
(-0.79373 0.55051 -0.29436)
(-0.743379 0.541907 -0.2776)
(-0.836679 0.550606 -0.296589)
(-0.793492 0.54658 -0.29461)
(-0.955905 0.518482 -0.366128)
(-0.959162 0.499789 -0.372334)
(-0.946542 0.529424 -0.364337)
(-0.913212 0.527527 -0.348671)
(-0.771038 0.549139 -0.298549)
(-0.862808 0.554652 -0.336183)
(-0.79018 0.570582 -0.320932)
(-0.819064 0.552097 -0.307756)
(-0.941065 0.521387 -0.357748)
(-0.836602 0.559791 -0.324639)
(-0.850165 0.571425 -0.342329)
(-0.944912 0.480853 -0.36525)
(-0.933574 0.457658 -0.355909)
(-0.944152 0.518075 -0.353704)
(-0.949935 0.533704 -0.366282)
(-0.953309 0.460964 -0.363889)
(-0.912713 0.459721 -0.354666)
(-0.958839 0.460017 -0.348742)
(-0.966115 0.476945 -0.349659)
(-0.988132 0.518487 -0.372398)
(-0.954816 0.545835 -0.364404)
(-0.96228 0.531541 -0.372775)
(-0.954963 0.548223 -0.36548)
(-0.963017 0.474944 -0.355457)
(-0.979409 0.507785 -0.364252)
(-0.929652 0.459213 -0.351671)
(-0.959115 0.464656 -0.347544)
(-0.979313 0.499148 -0.368509)
(-0.949962 0.555387 -0.369129)
(-0.72135 0.489857 -0.200796)
(-0.674937 0.497806 -0.180646)
(-0.622317 0.448775 -0.150167)
(-0.679584 0.506175 -0.19068)
(-0.609802 0.485089 -0.162935)
(-0.732493 0.448663 -0.194418)
(-0.672161 0.451627 -0.156488)
(-0.589209 0.416101 -0.126195)
(-0.529128 0.410417 -0.106773)
(-0.773621 0.487194 -0.228044)
(-0.578894 0.430515 -0.12966)
(-0.547623 0.444126 -0.1213)
(-0.599695 0.420925 -0.140743)
(-0.654045 0.437949 -0.157705)
(-0.616651 0.449454 -0.154425)
(-0.702773 0.482513 -0.197814)
(-0.733679 0.444519 -0.188102)
(-0.777271 0.471451 -0.214293)
(-0.362087 0.251943 -0.173183)
(-0.319725 0.237497 -0.163647)
(-0.389887 0.282882 -0.219152)
(-0.386592 0.27454 -0.203246)
(-0.338698 0.245233 -0.177518)
(-0.371309 0.258356 -0.175883)
(-0.364885 0.248641 -0.178908)
(-0.383196 0.253441 -0.173875)
(-0.306444 0.23526 -0.175474)
(-0.441912 0.289059 -0.1926)
(-0.413928 0.258833 -0.182332)
(-0.40078 0.261752 -0.189761)
(-0.406941 0.274707 -0.210869)
(-0.411181 0.259542 -0.199461)
(-0.372689 0.268723 -0.210901)
(-0.441349 0.281974 -0.211673)
(-0.466882 0.27954 -0.207491)
(-0.439559 0.275352 -0.177784)
(-0.506575 0.29093 -0.200259)
(-0.456586 0.282531 -0.180183)
(-0.443824 0.268966 -0.176766)
(-0.576351 0.762728 -0.20846)
(-0.566834 0.76995 -0.203421)
(-0.509323 0.822287 -0.159274)
(-0.524816 0.833497 -0.16802)
(-0.550598 0.807683 -0.146153)
(-0.589326 0.813641 -0.151791)
(-0.515936 0.807536 -0.160579)
(-0.500925 0.801619 -0.146246)
(-0.573882 0.812408 -0.152835)
(-0.531531 0.800192 -0.148438)
(-0.575906 0.777875 -0.200979)
(-0.567072 0.794072 -0.20116)
(-0.590902 0.80016 -0.193106)
(-0.634349 0.790196 -0.197325)
(-0.558488 0.828434 -0.160099)
(-0.564845 0.810026 -0.155604)
(-0.614742 0.79008 -0.192345)
(-0.596878 0.774774 -0.201885)
(-0.560581 0.823226 -0.175264)
(-0.576325 0.808205 -0.213625)
(-0.342121 0.76266 -0.229836)
(-0.315102 0.716603 -0.240365)
(-0.275947 0.732773 -0.254394)
(-0.42348 0.211003 -0.110892)
(-0.398208 0.196105 -0.115249)
(-0.410109 0.194443 -0.125658)
(-0.487397 0.235507 -0.123674)
(-0.248002 0.257365 -0.212911)
(-0.225114 0.245619 -0.199636)
(-0.232114 0.235382 -0.191094)
(-0.667261 0.727132 -0.102968)
(-0.70846 0.721852 -0.118626)
(-0.654846 0.736217 -0.111779)
(-0.64059 0.571126 -0.0774686)
(-0.702189 0.566119 -0.086045)
(-0.610785 0.547053 -0.0965273)
(-0.788517 0.662259 -0.136249)
(-0.80739 0.640625 -0.148995)
(-0.766932 0.648499 -0.122396)
(-0.756911 0.707596 -0.173727)
(-0.77629 0.704379 -0.190105)
(-0.834411 0.571522 -0.326685)
(-0.871715 0.585641 -0.348204)
(-0.3472 0.160535 -0.155969)
(-0.319888 0.164711 -0.165354)
(-0.349213 0.157492 -0.160702)
(-0.309856 0.161154 -0.157297)
(-0.251581 0.307025 -0.245961)
(-0.247943 0.327972 -0.245495)
(-0.233056 0.293733 -0.240567)
(-0.238421 0.276253 -0.235229)
(-0.848074 0.495104 -0.349383)
(-0.841872 0.499674 -0.338299)
(-0.880838 0.48894 -0.348838)
(-0.904394 0.352131 -0.239541)
(-0.906894 0.345845 -0.25719)
(-0.880659 0.480139 -0.153633)
(-0.894543 0.467299 -0.178478)
(-0.53067 0.450246 -0.118882)
(-0.509059 0.45897 -0.120234)
(-0.526089 0.462044 -0.15155)
(-0.559668 0.754811 -0.125337)
(-0.539388 0.765848 -0.128177)
(-0.275075 0.547573 -0.25353)
(-0.296789 0.5718 -0.241861)
(-0.608176 0.49165 -0.0956145)
(-0.571121 0.511259 -0.102739)
(-0.258313 0.558477 -0.282737)
(-0.235579 0.53439 -0.293262)
(-0.215091 0.516489 -0.298298)
(-0.8611 0.410357 -0.277353)
(-0.911592 0.430588 -0.313885)
(-0.906028 0.402509 -0.268564)
(-0.531554 0.221773 -0.100477)
(-0.494908 0.20569 -0.0933016)
(-0.326386 0.271266 -0.118799)
(-0.337783 0.276162 -0.114068)
(-0.879733 0.403259 -0.326026)
(-0.849982 0.383396 -0.313595)
(-0.916492 0.381279 -0.314689)
(-0.697255 0.409568 -0.147997)
(-0.650249 0.37065 -0.123314)
(-0.427604 0.275218 -0.0989833)
(-0.391391 0.247687 -0.117009)
(-0.427082 0.255083 -0.11912)
(-0.234622 0.242122 -0.156825)
(-0.25348 0.247494 -0.150619)
(-0.455487 0.496283 -0.138261)
(-0.414854 0.457002 -0.12544)
(-0.427755 0.425007 -0.122305)
(-0.324642 0.453508 -0.232601)