/*--------------------------------*- C++ -*----------------------------------*\
| =========                 |                                                 |
| \\      /  F ield         | OpenFOAM: The Open Source CFD Toolbox           |
|  \\    /   O peration     | Version:  v1612+                                |
|   \\  /    A nd           | Web:      www.OpenFOAM.com                      |
|    \\/     M anipulation  |                                                 |
\*---------------------------------------------------------------------------*/
FoamFile
{
    version     2.0;
    format      ascii;
    class       volVectorField;
    location    "150";
    object      wallShearStress;
}
// * * * * * * * * * * * * * * * * * * * * * * * * * * * * * * * * * * * * * //

dimensions      [0 2 -2 0 0 0 0];

internalField   uniform (0 0 0);

boundaryField
{
    WALL
    {
        type            calculated;
        value           nonuniform List<vector> 
1515
(
(0.0138499 -0.0222136 -0.00208721)
(0.0160324 -0.0215381 -0.00175356)
(0.00688901 -0.0080736 0.0033066)
(0.00685486 -0.00803091 0.00358138)
(0.00626196 -0.00619636 0.00607664)
(0.00591192 -0.00694029 0.00615082)
(0.00884755 -0.0241364 -0.00335381)
(0.00686468 -0.0216132 -0.00188871)
(0.00347835 -0.00884913 0.00731421)
(0.0197468 -0.019814 0.0104869)
(0.0179765 -0.021415 0.0131293)
(0.0109011 -0.016562 -0.00225549)
(0.0088242 -0.0169266 -0.000724994)
(0.0199706 -0.0124687 -0.00289434)
(0.018544 -0.011155 -0.00304064)
(0.0194098 -0.0169438 -0.00294543)
(0.0188019 -0.0161062 -0.00282941)
(0.0132243 -0.0180966 -0.00355399)
(0.0104696 -0.0198193 -0.00399122)
(0.0196072 -0.0187395 0.0105042)
(0.0172384 -0.0196647 0.0128917)
(0.0150887 -0.0218907 -0.00419143)
(0.0173383 -0.0201997 -0.00300271)
(0.0179101 -0.0158246 0.0105945)
(0.0193788 -0.01772 0.0123915)
(0.0123073 -0.0229872 -0.00342775)
(0.0141175 -0.0205545 -0.00367625)
(0.00503221 -0.00757584 0.00660848)
(0.0061708 -0.00726144 0.00627558)
(0.0037484 -0.00944188 0.00714266)
(0.0047648 -0.00872297 0.00702121)
(0.00487555 -0.00760085 0.0063643)
(0.0040633 -0.00805544 0.00678299)
(0.00855074 -0.0189713 -0.00264631)
(0.00684096 -0.0183223 -0.00108566)
(0.0116477 -0.0237828 0.014876)
(0.00963997 -0.00708952 0.00253715)
(0.011515 -0.00941041 0.00192423)
(0.01356 -0.0127812 0.000991283)
(0.0121462 -0.010117 0.000625279)
(0.0119414 -0.0062933 0.00220607)
(0.00452551 -0.00837841 0.00694467)
(0.00571912 -0.00778869 0.0067944)
(0.00705364 -0.00732566 0.00290489)
(0.00772527 -0.00964063 0.00239887)
(0.0073841 -0.00651201 0.00356998)
(0.00820935 -0.00749671 0.00317792)
(0.00804566 -0.00894265 0.00239046)
(0.00926818 -0.0111433 0.00231658)
(0.0140958 -0.020541 -0.000145176)
(0.0112524 -0.0214076 -0.00205921)
(0.0156284 -0.0155162 0.011778)
(0.0169905 -0.0150995 0.0111746)
(0.0184176 -0.0160867 -0.00393564)
(0.0148457 -0.0167984 -0.00427732)
(0.00995033 -0.0184362 -0.00313771)
(0.0129003 -0.0179766 -0.00327867)
(0.0141103 -0.0163949 -0.0044023)
(0.0122897 -0.0159209 -0.00346535)
(0.0207469 -0.015785 -0.000617838)
(0.019206 -0.0164269 -0.00207795)
(0.0186253 -0.0168484 -0.00302779)
(0.0201381 -0.0158396 -0.0010753)
(0.0195995 -0.0144218 -0.000701281)
(0.0190717 -0.0151334 -0.00193566)
(0.00749721 -0.0225208 0.00532654)
(0.00666426 -0.020351 0.00406053)
(0.00572109 -0.0219477 0.00436281)
(0.008897 -0.0220863 0.00469125)
(0.00753437 -0.0182925 0.00376828)
(0.00821906 -0.0209441 0.00376829)
(0.0179988 -0.0176987 0.00759038)
(0.0195207 -0.0185327 0.00803735)
(0.0204317 -0.019442 0.00700963)
(0.0197904 -0.0189166 0.00677081)
(0.0188266 -0.0185157 0.00862206)
(0.019591 -0.0197499 0.0101734)
(0.0111715 -0.0186758 -0.00256635)
(0.010064 -0.0187 -0.00219846)
(0.010853 -0.0189196 -0.0025446)
(0.015977 -0.0203398 0.0123921)
(0.0204895 -0.0178816 0.00222023)
(0.0203014 -0.0172794 0.00165275)
(0.0207918 -0.0165453 0.00262401)
(0.0200063 -0.0163145 0.00377472)
(0.0194972 -0.0171308 0.000931869)
(0.0205504 -0.0166049 0.00441419)
(0.012481 -0.0218658 0.0128289)
(0.0135979 -0.0241495 0.0130983)
(0.0142394 -0.0217851 0.0136576)
(0.013671 -0.0221604 0.0143002)
(0.0137346 -0.0242389 0.0141626)
(0.0121263 -0.0241965 0.0131324)
(0.0103316 -0.0226028 0.00597883)
(0.0121415 -0.0229236 0.00737702)
(0.0121728 -0.0230437 0.00587912)
(0.0143502 -0.0238896 0.00742708)
(0.013027 -0.0236131 0.00839953)
(0.0130919 -0.0226127 0.00885634)
(0.00371503 -0.00943966 0.00743431)
(0.00387371 -0.00906479 0.0073077)
(0.0029621 -0.0107604 0.00769697)
(0.00329172 -0.0103849 0.007756)
(0.00342513 -0.00914986 0.00733261)
(0.00291758 -0.00990197 0.00761938)
(0.00247988 -0.022155 0.000977388)
(0.00603052 -0.0232418 -0.000651258)
(0.0058471 -0.0237762 -0.00112266)
(0.00491503 -0.0238773 -0.000448198)
(0.00488905 -0.0241079 0.000925604)
(0.00385493 -0.0222354 0.000871073)
(0.0148766 -0.0207907 -0.00245871)
(0.0148446 -0.0222024 -0.00142042)
(0.0138649 -0.0227609 -0.00342307)
(0.0150366 -0.0208639 -0.00259004)
(0.0133398 -0.0236228 -0.00345111)
(0.0144714 -0.0235009 -0.00265485)
(0.0159249 -0.020734 -0.00197827)
(0.0168502 -0.0216206 -0.00128638)
(0.0171192 -0.0209995 0.00076408)
(0.0144085 -0.0203723 -0.00131457)
(0.0172106 -0.0235181 0.00210555)
(0.0163663 -0.020604 0.00147057)
(0.0166628 -0.0212985 2.70374e-05)
(0.0152494 -0.0223121 -0.00131437)
(0.00102527 -0.0197156 0.00581778)
(0.000966233 -0.0162954 0.00661271)
(0.00101482 -0.0175791 0.00575636)
(0.00121764 -0.0168671 0.00689308)
(0.000952475 -0.0183139 0.00619792)
(0.00116786 -0.0155644 0.00698936)
(0.0107715 -0.0057155 0.00318089)
(0.0116305 -0.00664695 0.00225797)
(0.0104345 -0.00586592 0.00278283)
(0.0118832 -0.00746533 0.00156288)
(0.0119973 -0.00729886 0.00264286)
(0.0114124 -0.00593102 0.00280429)
(0.00873967 -0.00478162 0.00552191)
(0.00813318 -0.00471918 0.00516861)
(0.00895236 -0.00475709 0.0050724)
(0.0082807 -0.00504337 0.0052648)
(0.00873438 -0.0044095 0.00510779)
(0.00973721 -0.00460477 0.00495098)
(0.0056578 -0.00669877 0.00449102)
(0.00619703 -0.00697926 0.00479692)
(0.00576121 -0.00681999 0.00482849)
(0.00615718 -0.0067555 0.00430576)
(0.00607519 -0.00711372 0.00427822)
(0.00652934 -0.00728432 0.00415316)
(0.00556025 -0.00673875 0.00535216)
(0.00563446 -0.00705219 0.0056579)
(0.00596747 -0.00713506 0.00569878)
(0.00549363 -0.00715079 0.00583602)
(0.00528611 -0.00731751 0.00595502)
(0.00542684 -0.00721859 0.00583197)
(0.00813244 -0.00631228 0.00365356)
(0.00777046 -0.00580491 0.00441104)
(0.00776442 -0.00602594 0.00369291)
(0.00831906 -0.00625108 0.00385279)
(0.00745102 -0.00571105 0.00441309)
(0.00807351 -0.00628093 0.00426185)
(0.00662918 -0.00616265 0.00525957)
(0.00663668 -0.00630006 0.00531596)
(0.007426 -0.00611541 0.0051124)
(0.00702076 -0.00615703 0.00525791)
(0.00681731 -0.0059786 0.00480788)
(0.0071352 -0.00597167 0.00515224)
(0.00595009 -0.00622378 0.00541131)
(0.00591618 -0.0064647 0.005774)
(0.00525255 -0.00677932 0.00636586)
(0.00536698 -0.00663289 0.00597232)
(0.00595432 -0.0065629 0.00563701)
(0.00560916 -0.00659705 0.00541488)
(0.00588056 -0.00660712 0.00534827)
(0.00517 -0.00689545 0.00599634)
(0.00543048 -0.00686441 0.00581781)
(0.00611917 -0.00697754 0.00553443)
(0.00548795 -0.00690348 0.0057905)
(0.00629175 -0.00676216 0.00377287)
(0.00674374 -0.0069708 0.00402213)
(0.00671897 -0.00737077 0.00361806)
(0.00724976 -0.00780524 0.00361144)
(0.00676944 -0.00764777 0.00325188)
(0.00662899 -0.00734891 0.0034235)
(0.00659493 -0.00791942 0.00316297)
(0.00657687 -0.00735395 0.00379191)
(0.0036972 -0.0124931 0.00625582)
(0.00427867 -0.0108585 0.00689547)
(0.00411245 -0.0112428 0.00669475)
(0.00471703 -0.010669 0.00690898)
(0.00450116 -0.0130251 0.00675483)
(0.00440291 -0.0125411 0.00711547)
(0.00311895 -0.0103438 0.00759219)
(0.00362151 -0.0101653 0.00724953)
(0.00409144 -0.00891114 0.00706357)
(0.00394501 -0.00980029 0.00759055)
(0.00414951 -0.00961945 0.0075383)
(0.00340011 -0.0110522 0.0075408)
(0.0100287 -0.00504018 0.00364464)
(0.00931932 -0.00467259 0.00399637)
(0.0107341 -0.00509495 0.00349998)
(0.00940474 -0.00464259 0.00414073)
(0.0105614 -0.0047652 0.0036966)
(0.0106131 -0.00474971 0.00422957)
(0.00928946 -0.00742612 0.00287843)
(0.00993988 -0.00768719 0.00308179)
(0.00934789 -0.00804615 0.00263987)
(0.009077 -0.00663305 0.0031884)
(0.00899861 -0.00745837 0.00257269)
(0.00863757 -0.00635527 0.00311729)
(0.0120154 -0.0106925 0.00173412)
(0.0107633 -0.00781016 0.00213534)
(0.0115954 -0.00892955 0.00167331)
(0.0125103 -0.0119968 0.00097146)
(0.012937 -0.0113946 0.00127389)
(0.0116783 -0.0093497 0.00170828)
(0.00549332 -0.00832354 0.0061888)
(0.00550429 -0.00767869 0.00616544)
(0.00468013 -0.00950406 0.0065277)
(0.00515191 -0.00911954 0.00665913)
(0.00497026 -0.00984846 0.00700948)
(0.00512398 -0.00822086 0.00658674)
(0.00589828 -0.00624002 0.00579993)
(0.00617203 -0.00647099 0.0061494)
(0.00563559 -0.00724284 0.00632537)
(0.00546241 -0.00675578 0.00620468)
(0.00637213 -0.00625294 0.00596769)
(0.00593009 -0.00702225 0.00634177)
(0.0062074 -0.00649537 0.00600814)
(0.00584952 -0.0063493 0.00576609)
(0.00552163 -0.00736834 0.00623359)
(0.00642064 -0.00619581 0.00592231)
(0.00591429 -0.00681253 0.00571078)
(0.00597328 -0.00633401 0.00609078)
(0.00594165 -0.00709755 0.00626943)
(0.00577822 -0.00720482 0.00602266)
(0.00521819 -0.00968768 0.00571193)
(0.00554119 -0.00787211 0.00603265)
(0.00532178 -0.0110976 0.00671698)
(0.00539306 -0.00855371 0.00665901)
(0.00532654 -0.00855908 0.00566029)
(0.00519347 -0.00864137 0.00611198)
(0.0107236 -0.00825031 0.0025298)
(0.0104824 -0.00782353 0.00243631)
(0.00923153 -0.00621486 0.00301183)
(0.00986153 -0.00646737 0.00311671)
(0.00975439 -0.00693021 0.00290062)
(0.010799 -0.00742401 0.00267618)
(0.00542821 -0.00752514 0.00643727)
(0.00516283 -0.0078983 0.00634746)
(0.00528065 -0.00872479 0.00682529)
(0.00468176 -0.00908462 0.00665034)
(0.0052918 -0.00805574 0.00684273)
(0.00503634 -0.00910002 0.00683483)
(0.00656912 -0.00646002 0.00616884)
(0.00622473 -0.00654685 0.00592596)
(0.00587633 -0.00734973 0.00671378)
(0.00594438 -0.00622108 0.00615829)
(0.00582273 -0.00711611 0.0065399)
(0.00607436 -0.00682563 0.00639754)
(0.00560777 -0.00702638 0.00651676)
(0.00616133 -0.00719087 0.00659133)
(0.00648056 -0.00638779 0.00590928)
(0.00597142 -0.00626786 0.00584721)
(0.00575009 -0.00653356 0.00595073)
(0.00625191 -0.00662412 0.00619791)
(0.00376805 -0.0176607 0.00538707)
(0.0025836 -0.0170073 0.00523266)
(0.0028764 -0.0143984 0.00529358)
(0.00256162 -0.0148957 0.00507699)
(0.00407454 -0.0142383 0.00607472)
(0.0037409 -0.0157887 0.00657839)
(0.00268614 -0.0219819 0.00245176)
(0.00261371 -0.0214927 0.00414265)
(0.00343669 -0.0229235 0.00178627)
(0.00180016 -0.0207081 0.004501)
(0.00337721 -0.0242283 0.0020094)
(0.00104633 -0.021582 0.00368721)
(0.0012503 -0.0212195 0.00225398)
(0.00251685 -0.0115825 0.00729661)
(0.00226315 -0.0123763 0.00760812)
(0.00282853 -0.0128809 0.00730405)
(0.00197121 -0.0137059 0.00768455)
(0.00187312 -0.0140169 0.00723392)
(0.00164389 -0.0127434 0.00830395)
(0.000919052 -0.0144242 0.00764462)
(0.00165097 -0.0139476 0.0077376)
(0.00226351 -0.0115475 0.00773961)
(0.00136976 -0.0135525 0.00789009)
(0.00214039 -0.0122919 0.00756175)
(-0.00039525 -0.0170265 0.00700185)
(-0.000917289 -0.0185389 0.00621685)
(0.00161733 -0.0179627 0.00860025)
(0.00111653 -0.0219858 0.00685623)
(0.00466453 -0.00781127 0.0062972)
(0.00458238 -0.00737109 0.00610416)
(0.00391498 -0.00791271 0.00681753)
(0.0165587 -0.0215882 -0.00029983)
(0.0149509 -0.0233929 -0.00159038)
(0.0155093 -0.0235461 -0.00171157)
(0.0158295 -0.0209306 -0.000781875)
(0.0172256 -0.0215157 0.00039586)
(0.0162856 -0.0233904 -0.000806401)
(0.00793763 -0.0272569 -0.00107496)
(0.00803274 -0.0235163 -0.00127977)
(0.00477175 -0.0270061 0.0026878)
(0.0044635 -0.0244169 0.000561971)
(0.00420743 -0.0235694 0.000625453)
(0.00466809 -0.0246757 -0.000297879)
(0.00176354 -0.0231673 0.00194796)
(0.00387204 -0.0240299 0.00165126)
(0.00508794 -0.023069 -0.00065083)
(0.00753851 -0.0253757 -0.00167622)
(0.00596062 -0.0244273 -0.00105476)
(0.00765459 -0.0248459 -0.00041158)
(0.00919833 -0.0246593 -0.00117543)
(0.00912935 -0.0261697 -0.00198659)
(0.00928704 -0.0284006 0.0111536)
(0.00749871 -0.0252089 0.00903718)
(0.00858577 -0.0239175 0.00843011)
(0.00740133 -0.0260107 0.00786519)
(0.00768297 -0.0250161 0.0107316)
(0.00744491 -0.0225882 0.00634741)
(0.00686512 -0.0211241 0.00455833)
(0.00724669 -0.0107805 0.00264032)
(0.0072916 -0.011439 0.00213641)
(0.00703061 -0.00980068 0.00270259)
(0.00699287 -0.00914634 0.00262584)
(0.00691636 -0.00991816 0.00221447)
(0.00666062 -0.00851898 0.00277588)
(0.00763484 -0.0140787 0.00266243)
(0.00711741 -0.017402 0.0030514)
(0.00704321 -0.0133754 0.00228264)
(0.00675606 -0.0151616 0.00262211)
(0.00962906 -0.0113409 0.00200396)
(0.00959778 -0.0106254 0.00233918)
(0.0100049 -0.0133308 0.00223238)
(0.00909572 -0.0124328 0.00186168)
(0.00986378 -0.0111154 0.00179925)
(0.00813775 -0.0105205 0.00202845)
(0.008376 -0.0125747 0.00180587)
(0.00840002 -0.0120255 0.00197911)
(0.0084865 -0.0141367 0.0019846)
(0.00792427 -0.0132328 0.00173822)
(0.00829164 -0.0113534 0.0018345)
(0.00885686 -0.0163722 0.00247401)
(0.00913477 -0.0190368 0.00293765)
(0.00876498 -0.0153742 0.00238927)
(0.009306 -0.0182775 0.00306717)
(0.00912174 -0.0159943 0.00199268)
(0.00932322 -0.0148306 0.00227147)
(0.00904977 -0.0232295 0.00569891)
(0.0111255 -0.0244971 0.00434166)
(0.0105039 -0.0224802 0.00465025)
(0.00813681 -0.0209052 0.00431103)
(0.0108545 -0.0224784 0.00576441)
(0.0113935 -0.0241652 0.00707307)
(0.0127958 -0.02193 0.0143718)
(0.0133924 -0.0246755 0.0148593)
(0.0137152 -0.0222477 0.0143084)
(0.0108398 -0.0232672 0.0140559)
(0.0117472 -0.0218395 0.0140361)
(0.00911369 -0.0252455 0.0126962)
(0.00958732 -0.0265953 0.0127573)
(0.00984006 -0.0265305 0.0142787)
(0.008935 -0.0249637 0.0112968)
(0.00880757 -0.0247076 0.0141375)
(0.0102524 -0.027568 0.014985)
(0.00960149 -0.0221215 -0.00280457)
(0.0107408 -0.0223753 -0.00338074)
(0.00732533 -0.0240507 -0.00264716)
(0.00891248 -0.023223 -0.00192367)
(0.0105707 -0.0229556 -0.00305819)
(0.010316 -0.0269525 -0.00266991)
(0.00688744 -0.0238805 -0.00287489)
(0.00991175 -0.024382 -0.00323969)
(0.0108083 -0.0246573 -0.00375467)
(0.0105527 -0.0245483 -0.00326736)
(0.0120596 -0.0233258 -0.00373822)
(0.0130249 -0.0224001 -0.00318275)
(0.0105461 -0.021305 -0.00390753)
(0.00783861 -0.0230629 -0.00236902)
(0.00636961 -0.020542 -0.00177701)
(0.00678893 -0.0202365 -0.00169216)
(0.00941422 -0.0214253 -0.00184429)
(0.00651127 -0.0191985 -0.000338417)
(0.00677256 -0.0199249 -0.000375018)
(0.00847147 -0.0214999 -0.00208533)
(0.0123433 -0.0206471 -0.00458893)
(0.0121616 -0.0200141 -0.00536596)
(0.0101899 -0.0196045 -0.00332229)
(0.0116231 -0.0235232 -0.00409952)
(0.0118347 -0.0192818 -0.00415359)
(0.00830908 -0.0210523 -0.00416936)
(0.00858171 -0.0182685 -0.00068174)
(0.00673703 -0.0191562 4.70193e-05)
(0.00718819 -0.0185382 0.000549461)
(0.00661054 -0.0188851 0.000694386)
(0.00796141 -0.018 -0.0014577)
(0.00813501 -0.0189704 -0.00136676)
(0.0195169 -0.0122888 0.00797848)
(0.0181016 -0.013501 0.010383)
(0.0187307 -0.0125349 0.00939649)
(0.0191868 -0.0120466 0.00785242)
(0.0174079 -0.0129668 0.00974202)
(0.0189083 -0.0132925 0.00911313)
(0.0127088 -0.0229028 0.0105426)
(0.0117728 -0.022176 0.0113353)
(0.012717 -0.0246719 0.00992211)
(0.0115484 -0.0219601 0.0115043)
(0.0118588 -0.0208267 0.00993001)
(0.011491 -0.022085 0.00822953)
(0.0145012 -0.0216284 0.0134977)
(0.0150242 -0.0212827 0.0141924)
(0.0140782 -0.0215056 0.0129146)
(0.0152807 -0.0179887 0.0124716)
(0.0153792 -0.0192556 0.01371)
(0.0142763 -0.0191766 0.0129333)
(0.0124519 -0.019241 0.00283937)
(0.0122526 -0.0202698 0.00262057)
(0.0121625 -0.0211196 0.00377918)
(0.0131468 -0.0195357 0.00430767)
(0.0126995 -0.0213315 0.00343901)
(0.0129751 -0.0162171 0.00150737)
(0.0130301 -0.0155831 0.00113045)
(0.012413 -0.0158345 0.0016596)
(0.0128015 -0.0167583 0.00194649)
(0.0130738 -0.0147569 0.00107126)
(0.0120756 -0.0137822 0.00083768)
(0.0161192 -0.0208855 0.0133467)
(0.0177055 -0.0199654 0.0136753)
(0.0160156 -0.0215627 0.0145277)
(0.0180111 -0.0219937 0.0149313)
(0.0145195 -0.0234017 0.0148168)
(0.0144594 -0.0222741 0.0142704)
(0.0197377 -0.0189685 0.0012907)
(0.0180542 -0.0200436 -0.00104878)
(0.0177736 -0.0204514 -0.00167654)
(0.019261 -0.0191712 0.000494904)
(0.0187723 -0.0186354 -0.00044439)
(0.0184494 -0.0207684 -0.00147927)
(0.0177944 -0.0181675 -0.00237492)
(0.0173984 -0.0197954 -0.00244662)
(0.0193316 -0.0186991 -0.00108411)
(0.0166696 -0.0203486 -0.00341363)
(0.018495 -0.0186126 -0.00177066)
(0.0210118 -0.0186976 0.00900127)
(0.01918 -0.0163721 0.00906515)
(0.018294 -0.0164878 0.0094147)
(0.0196016 -0.0165826 0.00691579)
(0.0186069 -0.0168063 0.00993395)
(0.0199518 -0.0164291 0.0076071)
(0.0207897 -0.0155292 0.00476498)
(0.0212275 -0.0168992 0.00688012)
(0.0212441 -0.0153453 0.00661435)
(0.0209764 -0.0155662 0.00505348)
(0.0214394 -0.0168845 0.00917515)
(0.0215104 -0.0164694 0.00752696)
(0.0184396 -0.018237 0.0128907)
(0.0159402 -0.018786 0.0134179)
(0.0161957 -0.0204006 0.0143993)
(0.0172091 -0.0191288 0.0138818)
(0.0170326 -0.0183234 0.0128437)
(0.019895 -0.0158787 0.0113291)
(0.0167176 -0.016639 0.0127139)
(0.0163134 -0.0155914 0.0117529)
(0.0196998 -0.0148809 0.0105228)
(0.0187886 -0.0164914 0.0123348)
(0.017812 -0.0152082 0.0107776)
(0.00582855 -0.0148862 0.00375583)
(0.00586578 -0.0167989 0.00380659)
(0.00624398 -0.0177733 0.00342344)
(0.00547566 -0.0159448 0.0042194)
(0.00743191 -0.0179211 0.00341309)
(0.00635919 -0.0108079 0.00569153)
(0.00533058 -0.0120648 0.0043323)
(0.00604429 -0.0140173 0.00462424)
(0.00611869 -0.0121402 0.00569724)
(0.00651082 -0.0143472 0.0052879)
(0.00543369 -0.0111979 0.0047619)
(0.00984095 -0.0158888 -0.00115981)
(0.0120986 -0.0176693 -0.00317272)
(0.0194676 -0.00962607 0.00190666)
(0.0201783 -0.00959481 0.00220294)
(0.020804 -0.00992272 0.00536035)
(0.0199794 -0.00946765 0.00481482)
(0.0198052 -0.00986047 0.00365472)
(0.0204721 -0.00915461 0.00354782)
(0.0142092 -0.0196673 -0.0040134)
(0.0151811 -0.0170666 -0.00489847)
(0.0132892 -0.0186185 -0.00539624)
(0.0162629 -0.016781 -0.004412)
(0.0175178 -0.016697 -0.00336676)
(0.0149448 -0.0152157 -0.00451642)
(0.0142279 -0.015017 -0.00410956)
(0.013011 -0.0157116 -0.00355193)
(0.0144761 -0.0145894 -0.00358286)
(0.0126577 -0.01632 -0.00330546)
(0.0136738 -0.0156202 -0.00298306)
(0.0171615 -0.0141348 -0.00421038)
(0.018078 -0.0128333 -0.00345253)
(0.015894 -0.0148589 -0.00400129)
(0.018236 -0.0138108 -0.00424317)
(0.0163146 -0.0140767 -0.00416559)
(0.0164767 -0.0154574 -0.00483487)
(0.0203805 -0.0115821 -0.00191913)
(0.0190142 -0.0132191 -0.00380006)
(0.0202134 -0.0108146 -0.000577091)
(0.020318 -0.012059 -0.00185138)
(0.0198386 -0.0100422 0.000723951)
(0.0191743 -0.0100028 -0.000785532)
(0.0089122 -0.0184376 -0.000672558)
(0.00760431 -0.0167077 0.00188234)
(0.00842289 -0.0180001 0.00183331)
(0.00880829 -0.0176641 -0.000117719)
(0.00749245 -0.0175638 0.00106625)
(0.00843862 -0.0169866 0.000144325)
(0.0133853 -0.0219329 0.00879471)
(0.0121231 -0.0211346 0.00747381)
(0.0159747 -0.0225683 0.00905024)
(0.0142828 -0.0211682 0.00963422)
(0.0138162 -0.0224842 0.00755277)
(0.0148235 -0.021385 0.0101758)
(0.0191606 -0.010062 0.00635054)
(0.0191465 -0.011442 0.00797353)
(0.019787 -0.011586 0.00777832)
(0.0205117 -0.0109375 0.00482348)
(0.0200932 -0.0115799 0.00684092)
(0.0203682 -0.0107967 0.00487546)
(0.013776 -0.0202968 0.00761457)
(0.0158594 -0.0208074 0.0093945)
(0.0136228 -0.0183102 0.00671107)
(0.0181405 -0.0157709 0.0114509)
(0.0165086 -0.0181635 0.0110739)
(0.0162376 -0.0170467 0.010979)
(0.019342 -0.0120937 0.0109397)
(0.0184448 -0.0134369 0.0116885)
(0.0183002 -0.0136532 0.0114307)
(0.0162026 -0.0156593 0.0110752)
(0.0192036 -0.013288 0.0113996)
(0.0176873 -0.0132028 0.0112707)
(0.0190986 -0.0129581 0.0108593)
(0.0160354 -0.0134956 0.0111534)
(0.0183907 -0.016177 0.0120134)
(0.0173181 -0.0144833 0.0115048)
(0.0142604 -0.0204023 0.00657564)
(0.0149311 -0.0218007 0.00498668)
(0.0148144 -0.0241374 0.00670548)
(0.0148473 -0.023173 0.00647952)
(0.0137141 -0.0197456 0.00536441)
(0.0176128 -0.0224589 0.00677024)
(0.0124315 -0.0155504 0.00171667)
(0.013851 -0.01831 0.00241543)
(0.0135418 -0.0165992 0.00239292)
(0.0112455 -0.0183368 0.00191241)
(0.0135951 -0.0184295 0.0028691)
(0.0140697 -0.0141346 0.000109701)
(0.0135264 -0.012377 0.000298648)
(0.0145007 -0.0136413 0.00176415)
(0.0142447 -0.0143241 0.0017741)
(0.0130419 -0.0138058 0.000481535)
(0.0155647 -0.0133676 0.00155072)
(0.0193523 -0.0204588 0.00903718)
(0.0173735 -0.0189344 0.00992252)
(0.0171517 -0.0189833 0.00934935)
(0.0184658 -0.020828 0.0110891)
(0.0191213 -0.0197927 0.00802131)
(0.0180068 -0.0211874 0.0115144)
(0.0210866 -0.0178394 0.00522041)
(0.0192539 -0.0168738 0.00589355)
(0.0197925 -0.0175769 0.00384913)
(0.0199572 -0.0174464 0.00675629)
(0.0203753 -0.0186116 0.0036024)
(0.0196943 -0.0180942 0.00392032)
(0.0195675 -0.0176791 0.00485088)
(0.0183782 -0.0172359 0.00865761)
(0.0192818 -0.0194867 0.0105924)
(0.0194691 -0.0189961 0.0111721)
(0.0178777 -0.0190255 0.0116761)
(0.0191929 -0.0176662 0.00884473)
(0.0173995 -0.0186263 0.0115185)
(0.00514912 -0.0186942 0.00194111)
(0.0055051 -0.0181215 0.00218901)
(0.00380367 -0.0167326 0.0023826)
(0.00418372 -0.0167154 0.00272507)
(0.00561192 -0.0188679 0.00127677)
(0.00503957 -0.010515 0.00652165)
(0.00483921 -0.0115575 0.00677435)
(0.00479883 -0.0120978 0.00600778)
(0.00388243 -0.0108303 0.00594995)
(0.00408947 -0.0129077 0.00581826)
(0.00429932 -0.012555 0.00644741)
(0.00837229 -0.00482497 0.00515338)
(0.00851747 -0.00472646 0.00465873)
(0.00825339 -0.00446202 0.00477223)
(0.00854157 -0.00501789 0.00494427)
(0.00809961 -0.0050126 0.00516919)
(0.00890624 -0.00475792 0.00491077)
(0.00986013 -0.0053153 0.00361812)
(0.00929716 -0.00518488 0.00444965)
(0.0096625 -0.00494799 0.00397288)
(0.00927089 -0.00516418 0.00376703)
(0.00918503 -0.00470413 0.00410225)
(0.00926904 -0.0049473 0.00447778)
(0.00735499 -0.00701537 0.00374149)
(0.00707242 -0.00689654 0.00346873)
(0.0070056 -0.00651352 0.00418164)
(0.00764341 -0.00708431 0.00379455)
(0.00755029 -0.00726398 0.00400245)
(0.00707939 -0.00647949 0.0040373)
(0.00798923 -0.00678344 0.00374781)
(0.0071351 -0.00607527 0.0042728)
(0.00760232 -0.00657003 0.00407011)
(0.00770403 -0.00675498 0.00355576)
(0.00742569 -0.00618184 0.00424625)
(0.00797646 -0.00731691 0.00336311)
(0.00685045 -0.00627517 0.00460427)
(0.00645051 -0.00620886 0.00516386)
(0.00686046 -0.00669179 0.00522981)
(0.00634115 -0.00632465 0.00534512)
(0.00692292 -0.00637845 0.00478302)
(0.00663104 -0.00622652 0.00466501)
(0.00625657 -0.00645335 0.00494482)
(0.00616715 -0.00648165 0.00518246)
(0.00639357 -0.00685585 0.00506036)
(0.00661384 -0.00669507 0.0044986)
(0.00626764 -0.00660537 0.00456472)
(0.00676494 -0.00677977 0.00469357)
(0.0161831 -0.0178463 -0.00399779)
(0.0187232 -0.0187229 -0.00282791)
(0.0155916 -0.0200405 -0.00430709)
(0.0161204 -0.01907 -0.00376075)
(0.0177523 -0.0187709 -0.00345875)
(0.0159302 -0.0201423 -0.00481732)
(0.0195766 -0.013128 0.00139296)
(0.0192692 -0.0131396 -0.000109509)
(0.0209859 -0.013267 0.0019955)
(0.0199011 -0.0128211 0.00210235)
(0.0198216 -0.0129634 0.000187216)
(0.0199796 -0.0169778 -0.000906616)
(0.0200598 -0.0155952 0.000155814)
(0.0202844 -0.017284 7.59239e-05)
(0.020387 -0.0160251 0.0014511)
(0.0193631 -0.017148 -0.00142586)
(0.0209838 -0.0160494 0.00203714)
(0.0197018 -0.0130351 0.00330485)
(0.021742 -0.0154215 0.00321273)
(0.0212346 -0.0145629 0.00513901)
(0.0213235 -0.0149304 0.00208021)
(0.0210012 -0.0144463 0.00467321)
(0.0211902 -0.0151053 0.00162415)
(0.0137454 -0.0192743 -0.00474424)
(0.0140613 -0.019724 -0.00516496)
(0.0151918 -0.0192231 -0.00429606)
(0.0071517 -0.00647011 0.00410482)
(0.00719032 -0.00681525 0.00447758)
(0.00910202 -0.00468576 0.00427697)
(0.00660826 -0.00570512 0.00575538)
(0.00685755 -0.00551394 0.0056589)
(0.00741896 -0.00536398 0.00550457)
(0.00784143 -0.0052042 0.00537136)
(0.0070008 -0.00567893 0.00567256)
(0.00637441 -0.00572277 0.00566922)
(0.00665359 -0.005837 0.00562918)
(0.00663736 -0.00561179 0.0055983)
(0.00915858 -0.00551706 0.00368116)
(0.00881497 -0.00548084 0.0040648)
(0.00892871 -0.00535803 0.00381563)
(0.00963931 -0.00556465 0.0036145)
(0.00868023 -0.00549474 0.00447767)
(0.00826048 -0.00546698 0.00449651)
(0.00784671 -0.00541836 0.00492761)
(0.00751029 -0.00541088 0.00497752)
(0.00937861 -0.0146148 0.00322299)
(0.00869025 -0.0158729 0.00311589)
(0.00594097 -0.0131079 0.00600727)
(0.00541745 -0.0129287 0.00633929)
(0.00524786 -0.0115714 0.00664127)
(0.00466705 -0.0133158 0.00517431)
(0.00515649 -0.0124084 0.00518085)
(0.00669171 -0.0174871 0.00233666)
(0.00538909 -0.0149959 0.00542988)
(0.00445161 -0.013227 0.00526368)
(0.00441611 -0.0148924 0.00325233)
(0.00560687 -0.0178387 0.00439985)
(0.00415928 -0.0148278 0.00437088)
(0.00495436 -0.014602 0.0046063)
(0.00427574 -0.014856 0.00555681)
(0.0133213 -0.00844815 0.00153307)
(0.0131595 -0.00945584 0.000586864)
(0.0148387 -0.0117384 0.000970613)
(0.0145073 -0.0114878 0.000303895)
(0.0140025 -0.0105319 0.00151625)
(0.0124717 -0.0076074 0.00173544)
(0.0128372 -0.0083831 0.00188838)
(0.0143739 -0.0193809 0.00469043)
(0.0129568 -0.020937 0.00324925)
(0.0149652 -0.0159815 0.00153913)
(0.0164674 -0.0196036 0.00189182)
(0.015765 -0.0175789 0.00249909)
(0.0150946 -0.0165622 0.00116554)
(0.0178945 -0.0192507 0.00401281)
(0.0140036 -0.0201404 0.00387452)
(0.0146036 -0.0193191 0.00360697)
(0.0129437 -0.0198506 0.00623482)
(0.0171375 -0.0215307 0.00348548)
(0.0142296 -0.0216423 0.00410661)
(0.0177749 -0.0207535 0.00602159)
(0.0162364 -0.0145678 0.0112302)
(0.0165984 -0.0195331 0.0102434)
(0.0195494 -0.0106598 0.00950236)
(0.0189615 -0.0114789 0.0104499)
(0.0195705 -0.0106092 0.00911465)
(0.0171842 -0.0153226 0.012257)
(0.0190638 -0.0134974 0.0105196)
(0.0176265 -0.0140535 0.0115637)
(0.0178586 -0.0110409 0.00856055)
(0.0173007 -0.0162181 0.0123834)
(0.0151975 -0.0167253 0.012493)
(0.0165972 -0.0156429 0.0122043)
(0.0148562 -0.0177948 0.012217)
(0.0146182 -0.0171298 0.0117176)
(0.0158339 -0.0169369 0.0122424)
(0.0155402 -0.0190176 0.011611)
(0.0143201 -0.0212234 0.0109766)
(0.014233 -0.0204695 0.0113682)
(0.0126487 -0.00700122 0.00212633)
(0.0186618 -0.0088185 0.0078994)
(0.0199254 -0.00817752 0.00601389)
(0.0195618 -0.00885388 0.00697922)
(0.0199796 -0.00821327 0.0046836)
(0.0199452 -0.00923601 0.00887509)
(0.0195785 -0.00878249 0.00790315)
(0.00980433 -0.019168 -0.00289252)
(0.00623309 -0.0182512 0.00109715)
(0.00689031 -0.0158072 0.00167813)
(0.00763179 -0.0178228 0.00171016)
(0.00746646 -0.0183353 0.0010139)
(0.00793328 -0.0178499 0.000954607)
(0.00840204 -0.0190688 -0.00141454)
(0.00865174 -0.0187793 -0.000499988)
(0.00989864 -0.0181248 -0.00182184)
(0.00933076 -0.0179937 -0.000420986)
(0.00961003 -0.0187312 -0.00159868)
(0.0119952 -0.0159628 -0.00228311)
(0.0110727 -0.0164007 -0.00339933)
(0.0213915 -0.00991707 -0.000586072)
(0.0198322 -0.00969754 -0.00236848)
(0.0216965 -0.0103329 -0.000994675)
(0.0194447 -0.00921649 -0.00036447)
(0.0159581 -0.0146916 -0.00448911)
(0.01323 -0.0159806 -0.00440814)
(0.014787 -0.0165729 -0.00461263)
(0.0143583 -0.0152012 -0.00412528)
(0.0202894 -0.0109973 -0.00307191)
(0.0134764 -0.0145901 -0.00377385)
(0.0136841 -0.0171179 -0.00421893)
(0.0129593 -0.0168262 -0.00362287)
(0.0138837 -0.0141283 -0.00439905)
(0.0153661 -0.013741 -0.00437765)
(0.019257 -0.0114092 0.00128068)
(0.0199648 -0.0129392 -0.000160233)
(0.0188363 -0.013594 -0.00190977)
(0.0184762 -0.0142457 -0.00188684)
(0.0204356 -0.0134455 -2.45864e-05)
(0.0165999 -0.0152272 -0.00378504)
(0.0167443 -0.0176865 -0.00459323)
(0.0145265 -0.0191287 -0.00460987)
(0.0164282 -0.0182854 -0.00455133)
(0.0122933 -0.0198106 -0.00302321)
(0.0157969 -0.0164102 -0.00471608)
(0.0185928 -0.01422 -0.00269386)
(0.0173861 -0.0142985 -0.00298105)
(0.0197379 -0.0143399 -0.00248289)
(0.0193105 -0.0127233 -0.00119592)
(0.0195977 -0.0124454 -0.000541309)
(0.0198977 -0.0133018 -0.00186468)
(0.02025 -0.0129587 -0.000554861)
(0.0194635 -0.0117113 -0.00118343)
(0.0199178 -0.0125432 -0.00248692)
(0.0184458 -0.014172 -0.00341148)
(0.018756 -0.0125313 -0.00271312)
(0.0204169 -0.00873788 0.00174835)
(0.0201038 -0.00910474 0.000997534)
(0.0204765 -0.00891658 0.00318131)
(0.0195512 -0.00839287 0.00458201)
(0.0188958 -0.00898836 0.00115488)
(0.0206971 -0.0112789 7.63733e-05)
(0.0204108 -0.0106352 0.000937976)
(0.0195439 -0.00996266 0.00620091)
(0.0198518 -0.00997688 0.00286898)
(0.0206348 -0.0108378 0.00194794)
(0.0197258 -0.0108185 0.000282392)
(0.0187691 -0.0110652 -0.000311221)
(0.0193362 -0.011136 0.00209727)
(0.0196092 -0.0106777 0.00340473)
(0.0204108 -0.0111529 0.00344793)
(0.0193998 -0.0105143 0.00228567)
(0.0196356 -0.0116108 0.000574143)
(0.0203288 -0.0115783 0.00128002)
(0.0110053 -0.0166708 -0.000744018)
(0.0080791 -0.0163107 0.00049284)
(0.0090011 -0.0180447 -8.19545e-05)
(0.0088174 -0.0163007 0.000681666)
(0.00777047 -0.0153207 0.00239088)
(0.00598422 -0.0135762 0.00463465)
(0.0132771 -0.0173596 0.00210715)
(0.0138287 -0.0212324 0.00254713)
(0.0200225 -0.012791 0.00353002)
(0.0172488 -0.0156732 0.0113648)
(0.0206736 -0.0166782 0.010682)
(0.0186679 -0.013726 0.00923548)
(0.0184547 -0.0135852 0.00877831)
(0.0215205 -0.0170026 0.00309808)
(0.0210898 -0.0150859 0.00322025)
(0.020907 -0.0170678 0.0113686)
(0.0206433 -0.0163234 0.0101589)
(0.0201833 -0.0163672 0.010072)
(0.0164382 -0.0217387 0.0134152)
(0.0206805 -0.0172941 0.00949032)
(0.0211531 -0.0164092 0.00618676)
(0.0207764 -0.0178756 0.00793507)
(0.0185865 -0.0179298 0.00256098)
(0.0199719 -0.017331 -8.58232e-05)
(0.018321 -0.0182137 -0.00265664)
(0.016455 -0.0197295 -0.00267982)
(0.0191271 -0.0184361 -0.000439976)
(0.0173342 -0.0195619 -0.000597862)
(0.0195748 -0.0191732 0.00151942)
(0.0182114 -0.0200664 0.000124034)
(0.0191353 -0.0193925 0.00122028)
(0.0195468 -0.019572 0.00194084)
(0.0213041 -0.0201372 0.0124768)
(0.0163777 -0.0186622 0.0132735)
(0.0159508 -0.0211832 0.0138498)
(0.017583 -0.0162878 0.0117964)
(0.0183547 -0.0182629 0.0116189)
(0.0192784 -0.0177617 0.0110409)