/*--------------------------------*- C++ -*----------------------------------*\
| =========                 |                                                 |
| \\      /  F ield         | OpenFOAM: The Open Source CFD Toolbox           |
|  \\    /   O peration     | Version:  v1612+                                |
|   \\  /    A nd           | Web:      www.OpenFOAM.com                      |
|    \\/     M anipulation  |                                                 |
\*---------------------------------------------------------------------------*/
FoamFile
{
    version     2.0;
    format      ascii;
    class       volVectorField;
    location    "100";
    object      U;
}
// * * * * * * * * * * * * * * * * * * * * * * * * * * * * * * * * * * * * * //

dimensions      [0 1 -1 0 0 0 0];

internalField   nonuniform List<vector> 
16968
(
(-0.373966 0.462394 -0.87329)
(-0.1918 0.242817 -0.481749)
(-0.312737 0.441335 -0.857343)
(-0.351078 0.435614 -0.827585)
(-0.35045 0.444334 -0.834696)
(-0.354408 0.427912 -0.81537)
(-0.354255 0.452957 -0.848714)
(-0.289482 0.370103 -0.690288)
(-0.313286 0.3984 -0.758012)
(-0.300647 0.384769 -0.725195)
(-0.270093 0.350992 -0.658951)
(-0.346729 0.417764 -0.802986)
(-0.348099 0.435852 -0.827101)
(-0.32457 0.413226 -0.777183)
(-0.278006 0.351319 -0.660488)
(-0.30748 0.388343 -0.739366)
(-0.292941 0.363241 -0.68714)
(-0.235591 0.400117 -0.846998)
(-0.235698 0.396304 -0.830078)
(-0.240469 0.40452 -0.873205)
(-0.256327 0.426596 -0.902992)
(-0.270629 0.433425 -0.971706)
(-0.281746 0.432865 -0.902859)
(-0.289253 0.429269 -0.950897)
(-0.223773 0.396592 -0.870542)
(-0.197292 0.371562 -0.795768)
(-0.284711 0.445672 -0.96875)
(-0.228738 0.410013 -0.909072)
(-0.265732 0.442445 -1.00142)
(-0.268553 0.451148 -1.01734)
(-0.2515 0.443268 -0.970197)
(-0.379966 0.473645 -0.895362)
(-0.389562 0.480528 -0.925865)
(-0.368865 0.454524 -0.868397)
(-0.40723 0.506419 -0.955173)
(-0.360069 0.461537 -0.867983)
(-0.383178 0.481727 -0.921085)
(-0.360732 0.44323 -0.851532)
(-0.403265 0.494327 -0.96109)
(-0.363751 0.46316 -0.881767)
(-0.407362 0.511595 -0.97792)
(-0.34641 0.434994 -0.820756)
(-0.411957 0.514547 -1.00256)
(-0.391392 0.480511 -0.928672)
(-0.360844 0.453782 -0.863946)
(-0.391165 0.479808 -0.919233)
(-0.376739 0.459853 -0.882123)
(-0.291165 0.370432 -0.706142)
(-0.326716 0.417822 -0.789032)
(-0.331094 0.411496 -0.786708)
(-0.379455 0.462702 -0.891978)
(-0.365599 0.45388 -0.870735)
(-0.373312 0.456352 -0.880366)
(-0.382124 0.471013 -0.898914)
(-0.276781 0.348537 -0.671268)
(-0.318715 0.390808 -0.757219)
(-0.357244 0.44428 -0.846217)
(-0.349153 0.430486 -0.826104)
(-0.316943 0.398623 -0.74902)
(-0.287118 0.369647 -0.694524)
(-0.34931 0.43685 -0.824504)
(-0.348791 0.439545 -0.831654)
(-0.295397 0.36663 -0.708531)
(-0.314108 0.386435 -0.74039)
(-0.313728 0.388881 -0.750136)
(-0.0220765 0.28477 -0.728174)
(-0.0453738 0.311203 -0.774792)
(-0.0592102 0.285819 -0.690718)
(-0.0468354 0.294681 -0.706739)
(-0.0177019 0.261721 -0.589047)
(0.000423678 0.236467 -0.52042)
(-0.00653938 0.267439 -0.610063)
(-0.373598 0.443559 -0.848278)
(-0.378732 0.45206 -0.857234)
(-0.389768 0.467956 -0.900679)
(-0.403633 0.485586 -0.928782)
(-0.3529 0.418517 -0.803549)
(-0.366839 0.438682 -0.834269)
(-0.340812 0.421824 -0.775709)
(-0.369414 0.436706 -0.836682)
(-0.369719 0.441635 -0.84308)
(-0.402605 0.482135 -0.918925)
(-0.380839 0.43754 -0.846572)
(-0.200485 0.304509 -0.752567)
(-0.224246 0.359088 -0.837004)
(-0.230454 0.381234 -0.854076)
(-0.180679 0.29758 -0.790557)
(-0.196553 0.313776 -0.789573)
(-0.224459 0.400786 -0.945866)
(-0.236185 0.404402 -0.963361)
(-0.245386 0.413592 -0.963354)
(-0.211783 0.357914 -0.892395)
(-0.216458 0.380677 -0.859275)
(-0.229671 0.40124 -0.963515)
(-0.187553 0.355947 -0.880035)
(-0.178175 0.331792 -0.8445)
(-0.192171 0.327108 -0.869867)
(-0.170513 0.301017 -0.782076)
(-0.215492 0.363491 -0.918805)
(-0.106807 0.369256 -0.877173)
(-0.145952 0.383623 -0.921691)
(-0.0924026 0.359798 -0.930516)
(-0.0296644 0.319968 -0.832891)
(-0.0233783 0.321419 -0.807009)
(-0.166913 0.397242 -0.982372)
(-0.0262776 0.31115 -0.793226)
(-0.0862887 0.338298 -0.866864)
(-0.100786 0.346422 -0.937341)
(-0.0252817 0.306611 -0.850291)
(-0.000542456 0.284382 -0.776684)
(-0.014132 0.301342 -0.762114)
(-0.14241 0.365749 -0.96201)
(-0.0147007 0.300754 -0.836992)
(0.0258705 0.28141 -0.711836)
(-0.0744553 0.328077 -0.878147)
(-0.360164 0.484238 -1.01418)
(-0.360748 0.482937 -1.01998)
(-0.352646 0.471073 -1.00717)
(-0.338745 0.457735 -0.996277)
(-0.387911 0.525985 -1.08853)
(-0.376661 0.518112 -1.07014)
(-0.356541 0.492796 -1.05049)
(-0.355412 0.498678 -1.05049)
(-0.332627 0.44857 -0.977445)
(-0.322408 0.456573 -1.00435)
(-0.365708 0.470305 -1.00304)
(-0.388598 0.51729 -1.07923)
(-0.364441 0.50069 -1.03518)
(-0.387509 0.526759 -1.06696)
(-0.372483 0.512313 -1.06876)
(-0.384254 0.523096 -1.10021)
(-0.252857 0.302689 -0.594324)
(-0.238959 0.293654 -0.592872)
(-0.238098 0.298691 -0.579374)
(-0.208831 0.256815 -0.510719)
(-0.246246 0.308954 -0.611256)
(-0.309445 0.38343 -0.734415)
(-0.230735 0.282195 -0.554888)
(-0.253002 0.313235 -0.608932)
(-0.253102 0.326574 -0.626148)
(-0.24816 0.31424 -0.615393)
(-0.357712 0.433447 -0.841924)
(-0.317208 0.381832 -0.741291)
(-0.300914 0.36067 -0.705279)
(-0.299455 0.374166 -0.719345)
(-0.360261 0.443101 -0.843027)
(-0.357995 0.446953 -0.851156)
(-0.303333 0.385443 -0.734045)
(-0.0571124 0.223859 -0.478307)
(-0.0361063 0.201602 -0.415108)
(0.00526813 0.169438 -0.368927)
(-0.0548375 0.229204 -0.454718)
(-0.0368684 0.192737 -0.37751)
(-0.00597312 0.168377 -0.349621)
(-0.0563936 0.220321 -0.435953)
(-0.101571 0.266235 -0.550743)
(-0.113316 0.262752 -0.580921)
(-0.104811 0.264555 -0.544725)
(-0.0198937 0.198392 -0.397308)
(-0.0391775 0.217025 -0.441606)
(-0.0425334 0.226248 -0.500008)
(-0.0138689 0.19504 -0.437008)
(-0.10393 0.274758 -0.591395)
(-0.097123 0.261571 -0.56607)
(-0.0918224 0.257225 -0.545236)
(-0.0408781 0.223445 -0.47706)
(-0.288067 0.399533 -0.742813)
(-0.265559 0.370476 -0.684886)
(-0.298856 0.395951 -0.739695)
(-0.266387 0.36065 -0.666597)
(-0.282826 0.380786 -0.718747)
(-0.270287 0.375481 -0.708817)
(-0.288763 0.400838 -0.762216)
(-0.281522 0.373647 -0.696011)
(-0.316388 0.403989 -0.763338)
(-0.309363 0.410011 -0.768815)
(-0.295063 0.39113 -0.748699)
(-0.353674 0.463159 -0.890746)
(-0.346454 0.451714 -0.867827)
(-0.34162 0.448177 -0.847905)
(-0.342945 0.453355 -0.849726)
(-0.34573 0.486778 -0.964438)
(-0.301661 0.456103 -0.891845)
(-0.327482 0.471251 -0.918906)
(-0.287001 0.445582 -0.855968)
(-0.302799 0.44718 -0.880275)
(-0.347213 0.494601 -0.983488)
(-0.344031 0.492205 -0.963664)
(-0.358728 0.498584 -1.03054)
(-0.334673 0.480055 -0.936639)
(-0.293602 0.449029 -0.911192)
(-0.285248 0.424092 -0.850983)
(-0.307625 0.466724 -0.955988)
(-0.28764 0.447779 -0.900442)
(-0.346519 0.497427 -1.00895)
(-0.343741 0.488887 -0.962163)
(-0.3411 0.488172 -0.961202)
(-0.277816 0.452361 -1.0092)
(-0.249216 0.419314 -0.96173)
(-0.293415 0.47276 -1.09512)
(-0.293502 0.477883 -1.10129)
(-0.270987 0.454054 -1.10681)
(-0.274275 0.476813 -1.06822)
(-0.317197 0.490417 -1.11455)
(-0.330785 0.484571 -1.08355)
(-0.283496 0.437995 -1.03434)
(-0.287257 0.456809 -1.00987)
(-0.265475 0.42536 -0.961824)
(-0.293291 0.446545 -1.03366)
(-0.324988 0.491825 -1.08456)
(-0.313851 0.48311 -1.08102)
(-0.361595 0.494095 -0.96747)
(-0.357282 0.48967 -0.987319)
(-0.356459 0.480297 -0.978917)
(-0.361128 0.483855 -0.957076)
(-0.353208 0.439339 -0.907123)
(-0.330797 0.413982 -0.846643)
(-0.34175 0.429052 -0.909951)
(-0.313262 0.395606 -0.820098)
(-0.297728 0.382186 -0.831759)
(-0.305455 0.402743 -0.840364)
(-0.343298 0.423734 -0.92153)
(-0.322102 0.42454 -0.919766)
(-0.332971 0.418204 -0.903041)
(-0.304667 0.391893 -0.827821)
(-0.333606 0.456628 -0.962789)
(-0.340016 0.471244 -0.960124)
(-0.331092 0.439615 -0.949271)
(-0.347226 0.450551 -0.958579)
(-0.320522 0.414105 -0.85104)
(-0.317685 0.40996 -0.843736)
(-0.359329 0.466087 -0.956726)
(-0.346481 0.429647 -0.906231)
(-0.317653 0.408995 -0.837725)
(-0.318693 0.411544 -0.855809)
(0.0512367 0.251544 -0.622442)
(0.0796049 0.244106 -0.553873)
(0.07068 0.261577 -0.610782)
(0.102171 0.220366 -0.514299)
(0.072438 0.244305 -0.522761)
(0.083491 0.226193 -0.495798)
(0.0280182 0.236766 -0.502699)
(0.0181637 0.267486 -0.594478)
(-0.0202418 0.295948 -0.746848)
(0.0397728 0.267074 -0.638184)
(0.0481921 0.217652 -0.47627)
(-0.00214703 0.265692 -0.559824)
(-0.054612 0.30126 -0.704131)
(-0.0354338 0.312038 -0.712646)
(-0.0199053 0.2995 -0.754703)
(-0.268272 0.464518 -1.10482)
(-0.260715 0.456535 -1.10398)
(-0.226863 0.439643 -1.12662)
(-0.253329 0.474343 -1.15578)
(-0.255926 0.491241 -1.13879)
(-0.289108 0.499153 -1.13951)
(-0.268059 0.471977 -1.16581)
(-0.267412 0.482661 -1.14748)
(-0.270851 0.469519 -1.09175)
(-0.249323 0.449758 -1.07412)
(-0.267796 0.453082 -1.07818)
(-0.232687 0.447421 -1.11617)
(-0.272207 0.466846 -1.15618)
(-0.298557 0.50421 -1.13629)
(-0.261741 0.464794 -1.09691)
(-0.261696 0.459546 -1.09165)
(-0.245906 0.439612 -1.08297)
(-0.26027 0.47188 -1.14682)
(-0.235098 0.460724 -1.0876)
(-0.204887 0.335174 -0.760375)
(-0.220866 0.370011 -0.813403)
(-0.23304 0.372277 -0.840818)
(-0.259976 0.415473 -0.952822)
(-0.225574 0.392933 -0.839244)
(-0.178961 0.324833 -0.727033)
(-0.192785 0.375045 -0.888524)
(-0.165084 0.341261 -0.843994)
(-0.200457 0.328401 -0.763764)
(-0.213071 0.390717 -0.883324)
(-0.18123 0.338482 -0.773669)
(-0.144269 0.360099 -0.738926)
(-0.10703 0.330868 -0.671702)
(-0.119369 0.342602 -0.722521)
(-0.102988 0.318866 -0.659702)
(-0.147748 0.351459 -0.70707)
(-0.135586 0.341972 -0.726331)
(-0.15343 0.374273 -0.75632)
(-0.160867 0.367283 -0.743707)
(-0.117369 0.349148 -0.713198)
(-0.164786 0.362576 -0.747295)
(-0.207251 0.417172 -0.89092)
(-0.191406 0.397728 -0.848635)
(-0.219205 0.416534 -0.835111)
(-0.192211 0.392007 -0.806516)
(-0.229203 0.408251 -0.847166)
(-0.234119 0.421305 -0.872575)
(-0.177779 0.372439 -0.762018)
(-0.224129 0.420465 -0.85671)
(-0.248225 0.428643 -0.875968)
(-0.230693 0.420869 -0.900093)
(-0.193424 0.406841 -0.840294)
(-0.188138 0.26449 -0.693604)
(-0.16418 0.221249 -0.609589)
(-0.201003 0.300727 -0.741202)
(-0.212422 0.294643 -0.722959)
(-0.261565 0.384897 -0.900563)
(-0.235831 0.348669 -0.848189)
(-0.186039 0.260134 -0.671967)
(-0.156079 0.211764 -0.622517)
(-0.243855 0.360781 -0.83667)
(-0.236674 0.35608 -0.860981)
(-0.256239 0.363393 -0.88722)
(-0.160301 0.215917 -0.662158)
(-0.139809 0.194752 -0.616613)
(-0.1651 0.2194 -0.632682)
(-0.201212 0.273839 -0.703369)
(-0.247772 0.344324 -0.819236)
(-0.252088 0.354152 -0.865998)
(-0.207819 0.336662 -0.836169)
(-0.202482 0.310292 -0.832049)
(-0.168389 0.252171 -0.71842)
(-0.158118 0.219077 -0.698772)
(-0.186391 0.263411 -0.727132)
(-0.182742 0.265441 -0.722244)
(-0.227855 0.299237 -0.631774)
(-0.191775 0.267096 -0.563505)
(-0.193717 0.263056 -0.575513)
(-0.181237 0.257507 -0.543045)
(-0.267067 0.349914 -0.732255)
(-0.293382 0.373764 -0.772962)
(-0.327853 0.434044 -0.871068)
(-0.319572 0.403313 -0.829934)
(-0.267322 0.342807 -0.717727)
(-0.279658 0.367059 -0.754129)
(-0.299793 0.371983 -0.771748)
(-0.273108 0.348042 -0.70581)
(-0.317315 0.408324 -0.833603)
(-0.32629 0.420944 -0.847605)
(-0.202141 0.279247 -0.57191)
(-0.20907 0.282267 -0.585453)
(-0.279691 0.374855 -0.734193)
(-0.240314 0.339707 -0.696854)
(-0.286999 0.378493 -0.795666)
(-0.311514 0.422165 -0.836585)
(-0.30334 0.384902 -0.778628)
(-0.301299 0.387641 -0.773457)
(-0.228867 0.312878 -0.632918)
(-0.256325 0.326686 -0.629898)
(-0.224056 0.288545 -0.576573)
(-0.27367 0.345014 -0.669786)
(-0.21027 0.280068 -0.547881)
(-0.199967 0.26393 -0.52704)
(-0.175243 0.241181 -0.470463)
(-0.287133 0.35638 -0.700051)
(-0.287273 0.376605 -0.714801)
(-0.244488 0.324216 -0.623205)
(-0.247786 0.319957 -0.629828)
(-0.196326 0.256848 -0.506621)
(-0.194584 0.257793 -0.486885)
(-0.215645 0.284338 -0.542534)
(-0.288665 0.372637 -0.721021)
(-0.193647 0.259354 -0.493943)
(-0.429609 0.532301 -1.00083)
(-0.41953 0.517723 -0.983512)
(-0.43173 0.526082 -0.993183)
(-0.416222 0.51682 -0.971839)
(-0.433798 0.533949 -1.00885)
(-0.419452 0.51013 -0.965831)
(-0.440023 0.547898 -1.03383)
(-0.39792 0.497987 -0.93015)
(-0.354895 0.43595 -0.803264)
(-0.410176 0.492286 -0.92587)
(-0.361645 0.442685 -0.827672)
(-0.383738 0.475652 -0.896781)
(-0.407623 0.497226 -0.938128)
(-0.402908 0.492702 -0.935851)
(-0.358462 0.446168 -0.832635)
(-0.366454 0.461209 -0.868474)
(-0.416253 0.517551 -0.976049)
(-0.37719 0.467862 -0.885487)
(-0.387125 0.474035 -0.888702)
(-0.0432031 0.310705 -0.870269)
(-0.0241386 0.288969 -0.83937)
(-0.101768 0.344284 -0.93368)
(-0.136038 0.372495 -0.95195)
(-0.00161063 0.253838 -0.851729)
(-0.0426461 0.271525 -0.894493)
(-0.0727356 0.292147 -0.91627)
(-0.00900106 0.290342 -0.852907)
(-0.0875192 0.367522 -0.903485)
(-0.0522612 0.284997 -0.920978)
(-0.147767 0.404289 -1.04013)
(-0.135419 0.398778 -1.03844)
(-0.13185 0.379212 -1.01722)
(-0.105168 0.37158 -1.01156)
(-0.023764 0.324926 -0.901381)
(0.0168453 0.295346 -0.882904)
(-0.100325 0.378219 -1.00386)
(-0.276671 0.33085 -0.651115)
(-0.290792 0.364925 -0.697536)
(-0.317105 0.387371 -0.751768)
(-0.306598 0.391151 -0.747248)
(-0.294982 0.363756 -0.69225)
(-0.289159 0.353576 -0.681223)
(-0.286364 0.354973 -0.702228)
(-0.217382 0.267797 -0.527336)
(-0.218393 0.272524 -0.53599)
(-0.297409 0.360953 -0.691717)
(-0.289301 0.369103 -0.703663)
(-0.260862 0.323497 -0.624435)
(-0.271512 0.344289 -0.660871)
(-0.275567 0.344922 -0.687521)
(-0.215984 0.2752 -0.526952)
(-0.214224 0.269397 -0.521545)
(-0.198093 0.264296 -0.496092)
(-0.206028 0.256619 -0.488184)
(-0.1921 0.221412 -0.450781)
(-0.203415 0.23991 -0.485587)
(-0.19443 0.229361 -0.43809)
(-0.261664 0.322619 -0.64086)
(-0.201944 0.315639 -0.699983)
(-0.196635 0.288162 -0.664968)
(-0.250524 0.379911 -0.867388)
(-0.289283 0.462406 -1.00596)
(-0.222911 0.347869 -0.795829)
(-0.207175 0.291476 -0.67834)
(-0.274643 0.387714 -0.868995)
(-0.255152 0.40257 -0.839046)
(-0.225813 0.379414 -0.81613)
(-0.251105 0.407929 -0.887939)
(-0.23051 0.372264 -0.839843)
(-0.19889 0.321497 -0.694077)
(-0.198482 0.305288 -0.66316)
(-0.22813 0.334669 -0.774441)
(-0.25384 0.36542 -0.834572)
(-0.247219 0.380131 -0.833375)
(-0.222266 0.349633 -0.753163)
(-0.240921 0.352895 -0.766283)
(-0.363422 0.457767 -0.910113)
(-0.324655 0.407817 -0.812289)
(-0.368035 0.46827 -0.926173)
(-0.323592 0.411143 -0.809083)
(-0.388455 0.482924 -0.955329)
(-0.343723 0.421388 -0.821181)
(-0.312939 0.382079 -0.754157)
(-0.328009 0.392774 -0.798755)
(-0.325046 0.397387 -0.806519)
(-0.376131 0.466711 -0.913406)
(-0.381568 0.487008 -0.95444)
(-0.39879 0.503664 -0.975757)
(-0.404077 0.492696 -0.963567)
(-0.379003 0.481397 -0.934817)
(-0.356924 0.456687 -0.910235)
(-0.373584 0.459389 -0.905973)
(-0.322335 0.407056 -0.793574)
(-0.396735 0.499871 -0.972071)
(-0.380342 0.484252 -0.942259)
(-0.374146 0.470557 -0.913981)
(-0.279189 0.342473 -0.710838)
(-0.29624 0.37215 -0.749191)
(-0.257932 0.311233 -0.637573)
(-0.32692 0.436119 -0.84492)
(-0.322728 0.391874 -0.781659)
(-0.275697 0.362613 -0.725288)
(-0.296166 0.365396 -0.756714)
(-0.285056 0.36776 -0.756699)
(-0.311053 0.39869 -0.817692)
(-0.2656 0.331131 -0.681919)
(-0.305074 0.396086 -0.797538)
(-0.287411 0.370819 -0.768922)
(-0.266829 0.352394 -0.723384)
(-0.267785 0.347754 -0.733978)
(-0.319741 0.403885 -0.819383)
(-0.327794 0.434879 -0.866718)
(-0.249321 0.304431 -0.676436)
(-0.284083 0.348893 -0.718911)
(-0.285312 0.367291 -0.75836)
(-0.414539 0.522202 -0.991704)
(-0.419167 0.519402 -1.00202)
(-0.406191 0.510043 -0.975682)
(-0.406966 0.515421 -0.974961)
(-0.380162 0.480494 -0.913628)
(-0.412835 0.513683 -0.971668)
(-0.370813 0.456131 -0.872858)
(-0.356561 0.453041 -0.85732)
(-0.408445 0.502586 -0.95745)
(-0.372515 0.471612 -0.892511)
(-0.342439 0.43348 -0.811668)
(-0.340173 0.435765 -0.817629)
(-0.402417 0.501082 -0.948329)
(-0.403801 0.502136 -0.953455)
(-0.376908 0.478267 -0.902537)
(-0.343885 0.440269 -0.831722)
(-0.349222 0.437254 -0.831432)
(-0.384203 0.504331 -0.991218)
(-0.38362 0.515598 -1.0115)
(-0.344121 0.478631 -0.9236)
(-0.320895 0.452605 -0.86064)
(-0.377642 0.496855 -0.974321)
(-0.375776 0.487852 -0.961584)
(-0.355579 0.471585 -0.904843)
(-0.341513 0.469692 -0.9149)
(-0.38141 0.509946 -1.00124)
(-0.364659 0.503341 -1.00217)
(-0.381472 0.513813 -1.03361)
(-0.360891 0.480454 -0.947837)
(-0.339569 0.463859 -0.908194)
(-0.347679 0.467636 -0.899679)
(-0.328494 0.451384 -0.904031)
(-0.350769 0.485269 -0.94685)
(-0.322665 0.463083 -0.895019)
(-0.312803 0.44952 -0.883964)
(-0.330997 0.464737 -0.89235)
(-0.319199 0.460944 -0.888825)
(-0.156762 0.237729 -0.713303)
(-0.188349 0.309061 -0.843462)
(-0.116019 0.180612 -0.653746)
(-0.098481 0.148966 -0.589686)
(-0.14184 0.216625 -0.729933)
(-0.105869 0.163289 -0.633415)
(-0.210596 0.310334 -0.840901)
(-0.196576 0.309767 -0.835996)
(-0.109037 0.164146 -0.585236)
(-0.139204 0.23319 -0.741437)
(-0.160516 0.246776 -0.728554)
(-0.13974 0.192751 -0.651635)
(-0.17381 0.283059 -0.808381)
(-0.159278 0.242497 -0.712894)
(-0.202061 0.295811 -0.713116)
(-0.232206 0.332987 -0.818268)
(-0.258227 0.372578 -0.856817)
(-0.179824 0.282895 -0.71543)
(-0.162758 0.256649 -0.670953)
(-0.1432 0.188935 -0.565964)
(-0.170726 0.25762 -0.670349)
(-0.253916 0.346722 -0.818871)
(-0.175137 0.235849 -0.625378)
(-0.131783 0.18985 -0.565388)
(-0.192855 0.257147 -0.663779)
(-0.138637 0.219767 -0.642056)
(-0.247172 0.308398 -0.589376)
(-0.245153 0.304069 -0.581036)
(-0.214026 0.262931 -0.522733)
(-0.202497 0.243819 -0.498388)
(-0.237999 0.285805 -0.557245)
(-0.234056 0.28986 -0.550353)
(-0.225058 0.272905 -0.523668)
(-0.229724 0.286566 -0.552216)
(-0.214203 0.272904 -0.516241)
(-0.303654 0.379513 -0.707751)
(-0.292339 0.36557 -0.701621)
(-0.305138 0.382533 -0.718422)
(-0.284475 0.357208 -0.683626)
(-0.217433 0.260823 -0.515349)
(-0.217036 0.268002 -0.514836)
(-0.305864 0.379481 -0.733599)
(-0.29012 0.355416 -0.684318)
(-0.303488 0.367942 -0.705492)
(-0.225973 0.28792 -0.536474)
(-0.297973 0.361935 -0.694898)
(-0.245049 0.308727 -0.583886)
(-0.249397 0.309127 -0.590978)
(-0.242221 0.304486 -0.559483)
(-0.214869 0.27802 -0.507211)
(-0.253154 0.310085 -0.593296)
(-0.287547 0.368824 -0.679212)
(-0.222201 0.278351 -0.503332)
(-0.198943 0.254581 -0.448175)
(-0.240734 0.298619 -0.546439)
(-0.240487 0.300171 -0.545655)
(-0.221781 0.274767 -0.502499)
(-0.215351 0.275531 -0.499843)
(-0.196414 0.2461 -0.445098)
(-0.313624 0.386397 -0.731401)
(-0.247118 0.316071 -0.585653)
(-0.206806 0.260286 -0.466766)
(-0.32118 0.408544 -0.750075)
(-0.304279 0.375001 -0.703737)
(-0.331116 0.418859 -0.769884)
(-0.315924 0.397309 -0.734099)
(-0.322799 0.399223 -0.742221)
(-0.37763 0.462403 -0.863642)
(-0.308667 0.379965 -0.726042)
(-0.392389 0.477807 -0.902547)
(-0.384632 0.477709 -0.882271)
(-0.396109 0.482999 -0.908109)
(-0.358191 0.450808 -0.894251)
(-0.36034 0.453461 -0.884463)
(-0.326924 0.410798 -0.794893)
(-0.339411 0.425033 -0.858172)
(-0.299946 0.392004 -0.745062)
(-0.363059 0.464522 -0.903995)
(-0.370972 0.477734 -0.925372)
(-0.316966 0.39195 -0.765592)
(-0.289901 0.369104 -0.721762)
(-0.317559 0.395752 -0.784801)
(-0.295192 0.386072 -0.736517)
(-0.361464 0.468015 -0.920857)
(-0.321283 0.421901 -0.835414)
(-0.304932 0.387188 -0.750691)
(-0.28078 0.352918 -0.743568)
(-0.289738 0.362022 -0.773513)
(-0.276083 0.334984 -0.728121)
(-0.219392 0.278184 -0.623505)
(-0.209209 0.258973 -0.602344)
(-0.208173 0.256901 -0.630064)
(-0.191183 0.240801 -0.582157)
(-0.232082 0.300223 -0.646034)
(-0.216693 0.271317 -0.598818)
(-0.230183 0.292282 -0.658614)
(-0.267059 0.33826 -0.740795)
(-0.267807 0.334023 -0.734455)
(-0.222114 0.266129 -0.634227)
(-0.215127 0.266324 -0.608611)
(-0.228311 0.281699 -0.628822)
(-0.153975 0.336129 -0.978562)
(-0.134092 0.320445 -0.959783)
(-0.125588 0.285354 -0.908439)
(-0.147084 0.324852 -0.924554)
(-0.148981 0.314354 -0.926178)
(-0.123001 0.285368 -0.910711)
(-0.222375 0.413408 -1.06388)
(-0.177082 0.386501 -1.05179)
(-0.182705 0.400242 -1.07485)
(-0.194135 0.401777 -1.08399)
(-0.113978 0.294223 -0.882594)
(-0.20861 0.404553 -1.08099)
(-0.157485 0.363325 -0.976824)
(-0.166795 0.242671 -0.470047)
(-0.16085 0.230397 -0.452822)
(-0.199388 0.281993 -0.564093)
(-0.18977 0.273689 -0.528016)
(-0.164492 0.248112 -0.46292)
(-0.164709 0.240159 -0.453413)
(-0.178468 0.256817 -0.484602)
(-0.183164 0.246662 -0.479088)
(-0.210397 0.306613 -0.590594)
(-0.231955 0.323273 -0.639502)
(-0.232606 0.306335 -0.606497)
(-0.241575 0.339307 -0.642755)
(-0.209209 0.278198 -0.556721)
(-0.232196 0.319941 -0.626612)
(-0.253791 0.354487 -0.693258)
(-0.248697 0.347835 -0.695508)
(-0.212031 0.293715 -0.566392)
(-0.24039 0.326498 -0.627655)
(-0.225602 0.270007 -0.531928)
(-0.204588 0.258829 -0.503053)
(-0.235412 0.286435 -0.562037)
(-0.246785 0.288746 -0.578957)
(-0.243487 0.285705 -0.560735)
(-0.216529 0.250907 -0.497202)
(-0.319595 0.377944 -0.739565)
(-0.304316 0.370552 -0.720877)
(-0.24073 0.291321 -0.564319)
(-0.290991 0.345361 -0.676949)
(-0.26456 0.314501 -0.6265)
(-0.290939 0.344891 -0.680437)
(-0.307325 0.362983 -0.715098)
(-0.287248 0.341657 -0.673161)
(-0.223214 0.261817 -0.518013)
(-0.232183 0.282749 -0.562699)
(-0.320912 0.374866 -0.733149)
(-0.326981 0.386195 -0.745437)
(-0.243554 0.291291 -0.585584)
(-0.235188 0.291305 -0.576724)
(-0.231969 0.281842 -0.553108)
(-0.212771 0.255458 -0.511398)
(-0.325719 0.386034 -0.747579)
(-0.218377 0.262899 -0.527782)
(-0.427258 0.53961 -1.05032)
(-0.43505 0.540768 -1.0457)
(-0.417797 0.518825 -1.00791)
(-0.429251 0.538201 -1.03718)
(-0.437735 0.546984 -1.0513)
(-0.421258 0.532329 -1.04091)
(-0.382809 0.48493 -0.94742)
(-0.373447 0.474844 -0.939791)
(-0.404003 0.514075 -0.994214)
(-0.432987 0.551424 -1.05573)
(-0.42439 0.529523 -1.02951)
(-0.3925 0.511607 -0.993963)
(-0.397121 0.509315 -0.99921)
(-0.375818 0.490628 -0.96029)
(-0.4138 0.522806 -1.01729)
(-0.422527 0.55161 -1.07365)
(-0.413033 0.540063 -1.06404)
(-0.412741 0.525873 -1.018)
(-0.405171 0.525076 -1.01259)
(-0.387494 0.488 -0.972857)
(-0.071542 0.326709 -0.785882)
(-0.114985 0.356526 -0.889069)
(-0.0865498 0.299256 -0.6782)
(-0.0600985 0.297249 -0.648029)
(-0.132022 0.37465 -0.92278)
(-0.0755036 0.353953 -0.830521)
(-0.0531439 0.284067 -0.636916)
(-0.0259276 0.262758 -0.588803)
(-0.0415157 0.332494 -0.757945)
(-0.0505689 0.27955 -0.642564)
(-0.0846415 0.301213 -0.687943)
(-0.135256 0.352254 -0.85643)
(-0.127654 0.367209 -0.823952)
(-0.175263 0.410433 -0.962891)
(-0.0371867 0.301124 -0.680261)
(-0.0736967 0.330505 -0.724953)
(-0.353503 0.438917 -0.802375)
(-0.338155 0.414641 -0.758532)
(-0.351843 0.45313 -0.821533)
(-0.339964 0.418383 -0.769842)
(-0.379982 0.461789 -0.856523)
(-0.340748 0.419583 -0.770391)
(-0.360797 0.454384 -0.845528)
(-0.348602 0.430081 -0.801021)
(-0.366942 0.450418 -0.832306)
(-0.380185 0.481431 -0.893385)
(-0.393385 0.487197 -0.907872)
(-0.320026 0.401613 -0.744379)
(-0.386789 0.465578 -0.878903)
(-0.373972 0.45832 -0.845898)
(-0.402573 0.492676 -0.923696)
(-0.408233 0.499567 -0.938866)
(-0.383249 0.481706 -0.906329)
(-0.366598 0.45488 -0.84167)
(-0.366132 0.452303 -0.848054)
(-0.337007 0.418662 -0.777526)
(-0.327219 0.395284 -0.76371)
(-0.31657 0.380588 -0.723329)
(-0.309045 0.36164 -0.694409)
(-0.406713 0.4967 -0.955995)
(-0.385804 0.472607 -0.916094)
(-0.39642 0.473692 -0.918493)
(-0.381944 0.460609 -0.896427)
(-0.382485 0.45705 -0.88663)
(-0.369487 0.439486 -0.854981)
(-0.382955 0.470082 -0.90479)
(-0.402118 0.491385 -0.94263)
(-0.36156 0.429176 -0.834159)
(-0.312768 0.374889 -0.73155)
(-0.308115 0.353178 -0.707311)
(-0.315205 0.380735 -0.745599)
(-0.308339 0.390172 -0.750202)
(-0.368216 0.443362 -0.846935)
(-0.32184 0.377822 -0.746397)
(-0.222896 0.326245 -0.648479)
(-0.279596 0.384109 -0.763084)
(-0.1854 0.301792 -0.597067)
(-0.266247 0.386328 -0.764332)
(-0.255871 0.351863 -0.683338)
(-0.272545 0.372604 -0.717761)
(-0.273622 0.377604 -0.749538)
(-0.268376 0.376232 -0.742633)
(-0.189667 0.27184 -0.569072)
(-0.198913 0.297624 -0.590736)
(-0.169707 0.275942 -0.559129)
(-0.218374 0.328592 -0.683126)
(-0.172943 0.265211 -0.526769)
(-0.223403 0.315957 -0.617504)
(-0.187257 0.288235 -0.567307)
(-0.175592 0.282472 -0.552691)
(-0.196737 0.315278 -0.61147)
(-0.246686 0.364204 -0.702978)
(-0.304473 0.386817 -0.77718)
(-0.276947 0.354872 -0.718676)
(-0.27786 0.350255 -0.694876)
(-0.295946 0.377333 -0.74248)
(-0.299507 0.365292 -0.730756)
(-0.312977 0.38944 -0.76778)
(-0.285517 0.356007 -0.706173)
(-0.270641 0.346356 -0.707448)
(-0.288913 0.374107 -0.767877)
(-0.306006 0.388527 -0.771991)
(-0.350772 0.450949 -0.881485)
(-0.346018 0.442954 -0.856057)
(-0.296508 0.359743 -0.745199)
(-0.326065 0.410914 -0.834039)
(-0.346798 0.440982 -0.863495)
(-0.330516 0.426803 -0.832713)
(-0.171652 0.254965 -0.517287)
(-0.161156 0.252925 -0.505363)
(-0.178375 0.255416 -0.546842)
(-0.174493 0.242892 -0.514193)
(-0.186071 0.27141 -0.541361)
(-0.191696 0.2691 -0.541458)
(-0.133375 0.217232 -0.449409)
(-0.155332 0.21171 -0.474459)
(-0.170974 0.238653 -0.517271)
(-0.151188 0.222248 -0.480304)
(-0.232678 0.327668 -0.644397)
(-0.238591 0.334028 -0.683596)
(-0.152681 0.242653 -0.502062)
(-0.185538 0.273209 -0.556589)
(-0.25027 0.338569 -0.684639)
(-0.180614 0.265706 -0.554759)
(-0.247571 0.302607 -0.574707)
(-0.257704 0.316163 -0.602285)
(-0.288747 0.365146 -0.690238)
(-0.242154 0.29984 -0.565227)
(-0.239324 0.291671 -0.538163)
(-0.243786 0.297999 -0.558905)
(-0.228329 0.289988 -0.532332)
(-0.291739 0.352925 -0.673811)
(-0.293305 0.353749 -0.691314)
(-0.250481 0.31461 -0.574931)
(-0.241044 0.308133 -0.570175)
(-0.281123 0.338823 -0.639179)
(-0.298754 0.378041 -0.740328)
(-0.322123 0.400861 -0.791511)
(-0.336502 0.411603 -0.802356)
(-0.288048 0.368918 -0.708937)
(-0.34418 0.431139 -0.825272)
(-0.260342 0.341779 -0.646289)
(-0.305694 0.395014 -0.74239)
(-0.295712 0.389261 -0.742395)
(-0.303069 0.389161 -0.753634)
(-0.284804 0.346628 -0.676997)
(-0.287905 0.365036 -0.699111)
(-0.260046 0.343174 -0.658991)
(-0.343189 0.427136 -0.818163)
(-0.289 0.368557 -0.695848)
(-0.305796 0.381848 -0.74295)
(-0.29061 0.366674 -0.702015)
(-0.296955 0.384633 -0.736288)
(-0.136533 0.270101 -0.673265)
(-0.181221 0.30558 -0.749402)
(-0.187608 0.329764 -0.817731)
(-0.202489 0.357956 -0.841483)
(-0.168183 0.272042 -0.706458)
(-0.143948 0.263542 -0.749154)
(-0.157581 0.295162 -0.781154)
(-0.207771 0.34299 -0.845893)
(-0.183498 0.31255 -0.825774)
(-0.0711279 0.178897 -0.599663)
(-0.0828612 0.178762 -0.59702)
(-0.181422 0.295471 -0.744954)
(-0.127776 0.238973 -0.666203)
(-0.147405 0.295668 -0.764401)
(-0.0750449 0.200591 -0.611435)
(-0.219669 0.283529 -0.557271)
(-0.214401 0.285782 -0.54416)
(-0.208534 0.270262 -0.512418)
(-0.234083 0.28933 -0.553164)
(-0.229745 0.292286 -0.571669)
(-0.20283 0.262903 -0.520509)
(-0.22743 0.293144 -0.565916)
(-0.20758 0.253725 -0.507266)
(-0.23004 0.280389 -0.551032)
(-0.21818 0.273842 -0.531398)
(-0.218244 0.284238 -0.552198)
(-0.284372 0.356066 -0.675551)
(-0.278777 0.338953 -0.667456)
(-0.337861 0.41869 -0.801663)
(-0.360993 0.434387 -0.84317)
(-0.389421 0.471471 -0.918835)
(-0.410849 0.501115 -0.981841)
(-0.346658 0.42252 -0.810476)
(-0.344385 0.429998 -0.827562)
(-0.382219 0.468308 -0.913147)
(-0.360749 0.435611 -0.849498)
(-0.355112 0.436425 -0.842352)
(-0.378571 0.462505 -0.896861)
(-0.377756 0.46347 -0.901988)
(-0.375356 0.456364 -0.902347)
(-0.383177 0.471137 -0.918102)
(-0.371918 0.452151 -0.872736)
(-0.383141 0.468893 -0.911471)
(-0.0696316 0.205564 -0.370228)
(-0.0592348 0.186527 -0.333303)
(-0.138655 0.269578 -0.528155)
(-0.132998 0.273084 -0.514787)
(-0.0673151 0.213056 -0.391097)
(-0.134224 0.267522 -0.52502)
(-0.0577387 0.182824 -0.313601)
(-0.052678 0.168274 -0.286532)
(-0.079937 0.220393 -0.396299)
(-0.173793 0.301668 -0.597738)
(-0.169877 0.304252 -0.601414)
(-0.119595 0.251312 -0.520651)
(-0.0646512 0.153497 -0.283831)
(-0.105674 0.216446 -0.39791)
(-0.0664236 0.191621 -0.323829)
(-0.152988 0.288693 -0.57302)
(-0.0865967 0.18004 -0.330387)
(-0.0669923 0.176774 -0.314466)
(-0.0923866 0.193568 -0.351091)
(-0.164324 0.271576 -0.541471)
(-0.10043 0.197504 -0.371913)
(-0.23525 0.418861 -0.903519)
(-0.23456 0.422139 -0.923773)
(-0.224956 0.395506 -0.879159)
(-0.220973 0.389341 -0.871963)
(-0.237609 0.403637 -0.883364)
(-0.258048 0.450424 -1.01715)
(-0.276104 0.464966 -1.06513)
(-0.28585 0.471768 -1.00682)
(-0.297844 0.453689 -0.980503)
(-0.244066 0.399622 -0.87962)
(-0.249382 0.397131 -0.892221)
(-0.258044 0.422618 -1.00252)
(-0.237147 0.424511 -0.971717)
(-0.288521 0.459034 -1.00482)
(-0.279817 0.429118 -1.00949)
(-0.228952 0.393804 -0.904058)
(-0.21634 0.367292 -0.861739)
(-0.223381 0.39383 -0.944521)
(-0.242214 0.396359 -0.931166)
(-0.259625 0.402268 -0.899808)
(-0.244027 0.387329 -0.922411)
(-0.256407 0.418184 -0.9451)
(-0.268342 0.407052 -0.790955)
(-0.257522 0.401574 -0.756992)
(-0.166923 0.349214 -0.669923)
(-0.170229 0.35347 -0.68463)
(-0.178688 0.347358 -0.650985)
(-0.169505 0.337688 -0.641734)
(-0.262245 0.417277 -0.791389)
(-0.227811 0.395655 -0.732081)
(-0.212129 0.390133 -0.74866)
(-0.211337 0.371096 -0.702215)
(-0.165454 0.336603 -0.636994)
(-0.195049 0.361218 -0.707366)
(-0.191967 0.351707 -0.671989)
(-0.188443 0.351741 -0.665818)
(-0.227153 0.380158 -0.72671)
(-0.21003 0.358736 -0.671276)
(-0.223166 0.383665 -0.72593)
(-0.121103 0.255159 -0.659016)
(-0.188196 0.342181 -0.814903)
(-0.137571 0.24603 -0.639503)
(-0.137538 0.268987 -0.659363)
(-0.242484 0.387932 -0.87601)
(-0.155192 0.312375 -0.741193)
(-0.190353 0.323548 -0.753131)
(-0.212025 0.37155 -0.844508)
(-0.188981 0.331734 -0.771469)
(-0.207441 0.353089 -0.80043)
(-0.214166 0.36281 -0.822447)
(-0.254341 0.391207 -0.870718)
(-0.361189 0.470497 -0.896674)
(-0.367121 0.45144 -0.880497)
(-0.353267 0.488122 -0.906815)
(-0.387352 0.499016 -0.980016)
(-0.35689 0.466982 -0.886364)
(-0.397691 0.509236 -0.998272)
(-0.397346 0.514218 -0.987102)
(-0.335322 0.458991 -0.864697)
(-0.390182 0.509235 -0.994759)
(-0.351496 0.473462 -0.90713)
(-0.184409 0.278441 -0.537554)
(-0.163385 0.261137 -0.501799)