/*--------------------------------*- C++ -*----------------------------------*\
| =========                 |                                                 |
| \\      /  F ield         | OpenFOAM: The Open Source CFD Toolbox           |
|  \\    /   O peration     | Version:  v1612+                                |
|   \\  /    A nd           | Web:      www.OpenFOAM.com                      |
|    \\/     M anipulation  |                                                 |
\*---------------------------------------------------------------------------*/
FoamFile
{
    version     2.0;
    format      ascii;
    class       surfaceScalarField;
    location    "100";
    object      phi;
}
// * * * * * * * * * * * * * * * * * * * * * * * * * * * * * * * * * * * * * //

dimensions      [0 3 -1 0 0 0 0];

internalField   nonuniform List<scalar> 
41402
(
6.30356e-09
4.64511e-09
-6.37245e-09
-4.5762e-09
1.14453e-08
5.77405e-10
-5.71911e-09
1.36942e-09
-1.41791e-08
7.0822e-09
5.72775e-09
-9.15703e-09
5.07871e-09
5.44779e-09
-3.38381e-09
5.67211e-09
1.15105e-09
1.10277e-10
-6.72919e-09
-6.87254e-09
4.71221e-09
-6.01445e-09
8.38463e-09
3.3535e-10
9.4556e-09
7.16205e-09
-8.89125e-09
-4.9999e-09
5.45588e-11
1.0931e-09
1.30312e-09
5.50066e-09
-2.12004e-09
-4.68374e-09
4.59539e-09
-3.75814e-09
4.6588e-10
-4.71868e-09
-5.08685e-09
1.01409e-08
8.36528e-10
6.59606e-10
9.90786e-09
-4.19942e-09
-1.08058e-08
5.09742e-09
5.60406e-09
1.38378e-09
2.92003e-09
-1.30136e-08
8.19777e-09
1.32644e-08
-8.44853e-09
1.48184e-08
-1.98946e-08
-7.93749e-09
-1.15376e-09
-1.01116e-08
7.06589e-09
1.25935e-08
-1.66585e-09
3.89081e-09
1.53052e-09
1.92607e-08
-8.15595e-09
-8.87128e-09
9.12039e-09
7.90681e-09
-1.12383e-08
1.41645e-09
-3.78084e-09
-1.29664e-08
-3.14739e-09
2.12985e-09
6.82125e-09
-1.01049e-08
5.43862e-09
-1.12465e-08
-5.43035e-09
-3.57821e-09
1.45532e-10
-4.252e-09
1.49029e-08
-1.28976e-08
3.95948e-09
-7.16432e-10
3.6465e-09
-3.93903e-09
-1.22878e-08
7.32898e-09
1.74926e-09
3.20965e-09
2.30732e-09
-2.86092e-09
-1.17343e-08
1.50367e-08
-1.94556e-09
-1.07839e-08
1.59196e-09
5.56236e-09
-1.00153e-08
-3.14146e-09
1.5729e-09
-5.40001e-09
6.9686e-09
5.1561e-10
3.26144e-09
-6.91852e-09
-1.32465e-08
1.284e-08
7.7355e-09
1.29752e-08
-1.11849e-08
7.34708e-09
-7.70069e-09
1.02052e-08
6.32353e-09
-1.09664e-08
4.01956e-09
7.93492e-09
-1.89311e-09
-3.82028e-09
7.28635e-09
-4.57058e-09
3.19322e-09
-1.9457e-09
-3.74556e-09
2.91242e-10
5.49439e-09
1.37076e-09
6.11005e-09
1.37638e-08
8.28882e-09
3.08041e-09
-4.02215e-09
1.38019e-09
4.95935e-09
-1.6031e-11
-2.34928e-09
-4.67548e-09
3.20452e-09
-4.35482e-09
5.98319e-11
4.98409e-09
1.05779e-10
-2.23065e-09
-3.36662e-09
2.75022e-09
-5.43548e-09
-7.24512e-09
-8.01541e-09
3.49403e-10
-2.04622e-09
2.87893e-09
-4.19928e-09
5.33266e-10
-2.44042e-09
-1.39066e-10
-5.95824e-09
-2.09148e-09
3.43623e-11
-1.57023e-09
6.92214e-09
-7.82007e-09
2.46818e-09
-1.8735e-09
5.3026e-11
2.5527e-09
-4.31772e-09
1.94788e-10
9.6688e-10
-2.87689e-10
6.42483e-10
1.69918e-10
4.00276e-09
-4.81514e-09
1.73622e-10
-4.72823e-09
5.19713e-09
4.14851e-10
3.29038e-09
-3.53529e-09
-3.87359e-09
4.4621e-09
-5.23792e-09
6.70745e-09
1.15441e-09
-2.62393e-09
-1.18517e-09
-4.99893e-11
-9.6616e-09
2.86879e-09
1.2722e-08
-5.92924e-09
-6.79301e-09
-1.05203e-09
-1.81659e-09
-1.57994e-08
-7.37037e-09
1.63767e-08
-6.60444e-09
-1.69399e-09
7.24638e-09
1.64268e-09
2.18109e-09
-5.33387e-10
-1.84504e-09
3.93176e-09
-4.44048e-10
8.1265e-09
-4.474e-09
-7.83728e-10
4.40058e-09
-6.78531e-11
2.37471e-09
3.24666e-09
8.8828e-11
-2.14334e-10
2.56414e-09
3.28438e-09
-5.63411e-09
2.66155e-09
2.21559e-09
-5.09144e-09
1.73629e-09
-4.11308e-09
4.52856e-09
-2.15173e-09
-2.58038e-09
8.371e-11
4.23302e-09
2.19566e-09
-3.64719e-09
4.35615e-11
4.01977e-09
-1.49917e-09
3.33661e-09
-1.07744e-09
1.60885e-09
-8.5258e-10
-1.46224e-10
4.4254e-09
-9.94725e-10
2.76706e-09
-7.17607e-10
2.22907e-09
5.06658e-09
-5.51178e-09
7.02951e-10
7.49885e-09
-2.68989e-09
3.01994e-09
-4.51193e-09
-4.55446e-09
-8.41498e-10
4.82641e-09
5.69674e-10
7.43347e-11
6.04244e-09
-9.14028e-10
1.23827e-10
6.53363e-09
4.67699e-10
5.69862e-09
7.19822e-09
5.10541e-09
5.15125e-09
-1.74552e-08
6.94016e-09
8.21142e-09
-7.9535e-09
-1.18102e-08
5.7666e-09
5.77412e-09
2.69133e-10
1.00723e-08
-1.67772e-08
3.49046e-09
8.93653e-09
-7.27598e-09
-1.8284e-09
1.22588e-08
1.02075e-08
3.77039e-09
-1.33492e-08
9.98709e-09
9.136e-09
7.50698e-10
-4.0278e-09
-2.24112e-09
1.19281e-08
1.29094e-09
1.0182e-08
-1.48624e-09
1.27682e-08
-1.26995e-09
-1.44071e-09
7.63928e-09
-7.19326e-09
2.84177e-09
-5.00005e-09
9.17679e-09
-2.45145e-09
3.76865e-09
-4.12583e-09
9.53397e-09
-1.54694e-10
-3.46538e-09
5.84916e-09
-5.75405e-09
8.34817e-09
1.1745e-09
3.17154e-09
-6.0838e-09
-8.75088e-09
4.45809e-09
-4.23513e-10
4.71636e-09
-5.734e-09
5.75145e-10
-4.50271e-09
-3.65631e-09
7.58398e-09
6.86576e-09
-2.88243e-09
-3.40814e-09
4.29278e-09
2.82351e-09
1.232e-09
4.24818e-09
2.85785e-09
6.21837e-09
-3.77661e-09
-5.29957e-09
4.95083e-09
-1.25817e-09
-8.34789e-10
-1.83349e-10
6.37561e-09
2.61783e-11
4.68649e-09
8.10102e-11
-7.71104e-09
2.9462e-11
3.39919e-09
4.28244e-09
-1.1672e-10
-1.21864e-09
3.66123e-09
-1.24031e-09
3.32397e-09
-5.74487e-09
3.37879e-09
-9.7568e-10
3.77616e-09
-8.79297e-09
1.8414e-09
2.8746e-09
-3.93225e-10
5.93077e-09
-2.13825e-09
6.03018e-09
1.91332e-09
-4.61957e-09
2.2232e-09
7.0867e-09
-3.27965e-09
6.16939e-09
-5.67388e-10
8.74666e-09
3.31714e-09
-8.28755e-09
-1.63488e-09
1.02648e-08
-2.22259e-09
3.67081e-09
9.55914e-09
-4.32863e-09
-2.97854e-09
6.92536e-09
-3.28233e-10
4.43635e-09
6.35158e-09
2.87932e-09
-2.43441e-09
7.89578e-09
-1.22395e-08
6.77806e-09
-7.06659e-10
-3.05867e-09
-1.07361e-08
1.45014e-08
-1.66521e-08
5.00642e-09
9.2112e-09
-4.63877e-09
-1.272e-08
-1.38544e-08
8.9302e-09
9.93059e-09
-1.66793e-08
1.59715e-08
-1.31466e-08
1.08176e-08
-2.27738e-09
-1.15989e-08
-1.75467e-09
-1.95634e-08
1.62026e-08
-5.047e-10
2.73575e-10
4.87084e-09
2.0262e-08
-1.05155e-08
1.03102e-08
-9.44154e-09
9.64684e-09
-1.19169e-08
8.96685e-10
1.71383e-09
-8.82774e-11
9.19198e-09
1.14237e-08
-1.54558e-08
1.88085e-08
-3.62745e-09
7.87515e-09
-8.3684e-09
1.47432e-10
4.97905e-10
-9.03952e-10
7.39656e-09
-6.99054e-09
-3.3792e-09
-3.03052e-10
4.18013e-09
-3.11803e-09
3.7954e-10
-6.40717e-10
1.43647e-10
-1.90872e-09
-3.83334e-09
5.5984e-09
3.99168e-09
-1.48885e-09
-2.3592e-09
-1.61277e-09
-5.91063e-10
1.90074e-09
-7.39117e-10
1.37376e-11
2.13732e-09
6.11213e-09
-8.26325e-09
1.98405e-09
5.00656e-09
-6.97689e-09
9.11055e-09
-8.88197e-09
9.22812e-09
1.95636e-09
-2.07395e-09
8.71918e-09
-3.95044e-10
2.83216e-09
-2.33695e-09
-1.07378e-09
-9.64737e-10
8.15074e-09
-1.83505e-09
5.76784e-09
2.91761e-09
-7.49167e-11
-1.05267e-11
1.04425e-09
5.48352e-09
-5.99397e-09
-5.33792e-10
3.37079e-09
1.08585e-08
-8.98686e-09
7.37745e-09
-9.249e-09
-8.16818e-09
1.58054e-08
3.22128e-09
5.89659e-09
-2.61683e-09
-1.22665e-08
2.91548e-09
-5.18699e-09
-1.52302e-09
1.59477e-08
-7.0472e-09
1.40419e-08
-8.68593e-09
-6.87907e-09
-9.07706e-09
1.72922e-08
5.8268e-09
-1.8634e-10
1.44749e-08
1.65909e-09
1.42453e-08
1.37371e-09
4.75438e-09
-1.31102e-08
5.73898e-09
1.4728e-08
-1.86595e-08
1.12846e-08
-5.63377e-09
1.97196e-08
-1.66379e-08
-1.73033e-08
1.42214e-08
2.05019e-08
9.51209e-09
-1.02944e-08
-3.85299e-09
2.07376e-09
1.60245e-08
-1.40202e-09
1.20239e-08
7.87109e-09
1.58447e-08
-3.21402e-09
3.34282e-09
1.25473e-08
9.53483e-09
5.45115e-09
-3.70157e-09
2.03529e-09
1.08423e-08
1.19802e-08
-4.28875e-09
-2.28282e-09
-5.92321e-09
1.24946e-08
-2.18029e-09
1.97582e-09
-4.08438e-09
9.85415e-09
-1.33761e-08
5.87802e-09
-2.3562e-09
1.81725e-08
-1.06012e-08
-4.48798e-09
-6.20045e-09
4.7651e-09
-5.71322e-09
-9.55055e-10
-1.09637e-08
5.40299e-09
-7.81547e-09
-4.73271e-09
-9.52906e-09
-1.04801e-08
2.47418e-08
-4.78404e-09
2.09234e-10
7.39335e-09
-2.81872e-09
3.12023e-09
6.798e-10
-8.58414e-09
4.54297e-09
-1.21354e-09
-1.30376e-09
-4.57719e-09
-5.73922e-10
6.45483e-09
-2.474e-09
-1.52436e-08
4.98861e-09
4.05451e-09
-1.2583e-08
-8.28227e-09
-1.22105e-08
-1.21797e-08
-3.2122e-09
8.85441e-09
-4.31046e-09
-1.33174e-09
-3.40472e-09
3.00901e-09
-2.81647e-09
-4.35919e-09
-3.1144e-10
1.26595e-09
6.29901e-10
-4.7055e-09
-1.26609e-09
5.34175e-09
-3.43918e-09
-2.02312e-10
4.27142e-09
-2.82753e-09
2.39717e-09
-3.92883e-09
8.21341e-10
-8.66811e-10
-2.78203e-09
6.7752e-10
-8.37591e-10
7.02592e-09
-2.01477e-09
-6.03054e-10
-3.83485e-09
-1.93098e-10
-3.18746e-09
-2.66214e-09
2.50588e-09
7.33363e-09
-7.67969e-09
-2.15985e-09
6.60258e-09
-4.64589e-09
5.49179e-10
-2.74731e-09
1.64862e-09
7.70126e-09
-9.13394e-10
5.49971e-09
1.51076e-09
-6.20156e-09
4.49036e-11
7.83226e-09
-1.03779e-08
5.63245e-10
1.98239e-09
-6.49726e-09
6.42234e-09
7.90718e-09
5.18603e-09
-8.95941e-09
-6.60453e-09
1.99525e-10
6.95435e-09
1.07902e-09
3.2869e-10
-8.36209e-09
9.66592e-10
-1.69194e-09
9.95809e-10
-6.11835e-09
-2.14945e-09
1.02204e-08
6.48656e-09
2.24373e-09
-8.40164e-09
9.36646e-09
-1.91331e-09
8.69787e-09
-1.14248e-08
3.29018e-09
-5.54718e-09
1.20956e-08
-9.92674e-10
-6.97093e-09
3.0227e-09
-1.06291e-08
8.10455e-09
-1.28196e-08
-9.23427e-09
-1.15686e-08
-3.10322e-09
4.30054e-09
4.22136e-09
3.75069e-09
5.34472e-11
-3.78184e-09
1.3102e-08
7.00879e-09
-8.73783e-09
-3.88973e-10
2.4626e-10
8.88065e-09
7.79723e-10
-5.53059e-09
-3.98693e-09
6.21713e-09
-4.27751e-09
-1.049e-09
-8.90584e-10
-5.97364e-10
6.42554e-09
-1.15556e-08
1.23667e-08
-5.64805e-10
-7.16029e-09
-3.61558e-09
-4.49703e-09
-5.31105e-09
-4.92161e-09
-5.37051e-10
4.86135e-09
-4.5207e-09
-1.44986e-09
-5.7549e-09
5.27849e-09
-6.05295e-11
-9.42325e-09
-7.59563e-09
9.8585e-09
2.44219e-09
-1.52377e-09
3.63493e-09
-4.55325e-09
-9.9915e-10
-1.05553e-09
9.11116e-10
3.04913e-09
-5.48367e-09
3.38987e-09
-3.47745e-09
3.32809e-09
-1.02563e-08
-1.24933e-09
8.1777e-09
-3.56075e-09
1.13399e-09
-5.36896e-09
-8.30341e-10
-4.05695e-09
-1.14024e-08
-1.23842e-09
3.52709e-10
4.55669e-09
-2.33784e-09
-2.42427e-10
9.87398e-09
-1.6658e-09
-6.64972e-09
-1.55847e-09
-2.25343e-09
1.09347e-09
1.10339e-08
1.11252e-08
-7.9224e-09
-4.86866e-09
5.48088e-10
8.32367e-09
-5.68663e-10
-6.34811e-09
8.01022e-09
2.18518e-09
-9.23607e-09
7.59888e-09
8.29068e-09
6.26343e-09
-1.45311e-09
-1.31011e-08
-1.82186e-09
2.19005e-09
5.63834e-09
-1.19685e-09
-4.97882e-09
7.68577e-09
-8.46364e-09
5.75662e-09
1.64472e-09
-6.75389e-09
1.30287e-10
9.30228e-09
4.76368e-09
-6.37866e-09
-5.03476e-09
6.03024e-11
-5.51435e-09
6.01254e-10
-3.5507e-09
-4.44023e-09
-7.828e-09
-2.99651e-09
-1.2272e-08
-1.20598e-08
1.79447e-10
1.20118e-08
-1.31458e-10
-1.08977e-08
-3.16752e-09
2.00541e-09
-4.06216e-09
-8.16866e-09
3.93882e-09
8.29196e-09
4.08538e-09
-8.35537e-09
2.07817e-10
1.20864e-08
4.34794e-09
-8.03645e-10
-1.56307e-08
-3.7041e-10
-2.3062e-10
1.26873e-08
-9.23926e-09
9.6905e-09
-8.21682e-10
8.7662e-09
-8.85572e-09
-9.1498e-09
-4.92273e-09
9.42774e-09
5.18544e-09
3.62732e-09
2.16083e-10
-7.37755e-09
-1.73296e-10
7.31466e-09
2.36167e-10
3.35154e-10
3.19511e-09
-1.66339e-08
1.77866e-08
-4.43963e-10
1.19108e-10
1.11844e-08
-1.08595e-08
1.25309e-08
-1.27954e-08
-3.82352e-09
7.27935e-10
-5.07308e-09
-3.37051e-09
-8.80838e-09
-6.97467e-09
-1.30299e-08
9.37353e-09
-3.27883e-10
3.12362e-09
-6.06442e-09
3.26863e-09
-6.43766e-09
3.65117e-09
2.4586e-09
-1.78304e-09
-6.24786e-09
1.59319e-09
-3.47628e-09
2.24397e-09
-5.50758e-10
-2.2599e-09
8.06182e-09
-2.67832e-09
5.02884e-09
-3.63758e-09
-2.98894e-09
6.33389e-09
-9.40938e-09
9.17081e-10
-1.42874e-10
-4.2505e-09
-6.20484e-09
8.74048e-10
-2.72588e-09
4.45099e-09
6.33671e-09
2.05334e-09
2.49545e-10
7.48297e-09
-1.18318e-09
-7.11965e-09
8.19853e-10
1.23705e-09
3.25697e-09
7.3787e-10
2.75755e-09
-3.63835e-09
4.43952e-09
-4.88483e-09
-1.14043e-09
-2.53227e-10
-1.83324e-09
2.16225e-09
4.11047e-09
-2.16144e-10
1.23177e-08
3.6189e-09
-9.78479e-09
-6.1518e-09
-7.16944e-09
4.97521e-09
1.4512e-08
-4.13902e-09
5.88482e-10
-1.0061e-09
1.23153e-08
-6.33389e-09
-5.48765e-09
9.23436e-09
-4.75276e-09
-5.98444e-09
-9.05569e-09
9.55248e-09
-4.9841e-09
-1.46615e-09
4.65843e-10
-9.78037e-09
-1.9136e-10
9.16089e-10
-7.21731e-09
-7.54714e-09
1.17124e-08
9.72356e-09
-1.55382e-08
-5.8976e-09
5.46713e-10
1.09744e-08
2.57046e-09
-5.02104e-09
1.21742e-08
-5.86147e-09
2.56342e-10
-6.34378e-09
-8.70508e-10
-8.33415e-09
-3.87107e-09
-2.79056e-09
-6.01666e-09
2.30852e-09
6.49865e-09
-4.24023e-10
3.96627e-09
-6.33284e-09
-9.67128e-10
-5.23513e-09
1.85591e-10
-5.19393e-09
7.97702e-09
-4.74601e-10
-5.74232e-09
1.03864e-09
-1.35891e-09
6.06257e-09
4.72018e-09
-5.64181e-09
-4.82072e-09
-2.7911e-09
6.92818e-09
5.831e-10
-8.09592e-09
5.29346e-09
2.37835e-09
-1.27211e-08
-2.61188e-10
4.80682e-09
8.17543e-09
-8.33039e-10
-2.20097e-09
-9.68711e-09
-6.11403e-09
-9.43238e-10
-2.02166e-09
2.26166e-09
-3.03111e-09
9.24814e-10
-8.58829e-09
-9.43092e-09
5.34712e-09
3.8226e-09
-2.88433e-09
-7.37964e-09
1.02914e-08
-2.74855e-09
-9.74388e-09
-1.38048e-09
8.85871e-09
2.81309e-09
-7.93778e-09
5.32152e-09
-5.9442e-09
4.49836e-09
-4.34518e-09
3.0369e-09
2.0408e-09
-1.85469e-09
-3.22298e-09
4.20974e-09
1.15442e-09
-2.32728e-09
-2.40575e-09
1.80039e-09
4.30389e-10
-7.95308e-10
2.75974e-09
1.01843e-09
-5.63284e-09
3.12554e-09
-7.60376e-09
7.23798e-09
8.04228e-09
-3.76231e-09
2.352e-09
3.55253e-09
-4.88606e-09
-7.52894e-10
9.96235e-09
-6.64826e-09
9.44065e-11
-4.15448e-10
-1.61747e-08
1.38493e-08
-9.38459e-10
3.26373e-09
-2.18276e-08
-4.29455e-09
9.94734e-09
-1.07932e-08
-1.35661e-08
2.21592e-08
2.20006e-09
-5.76003e-09
1.00381e-08
-1.50713e-08
-1.2469e-09
-2.40724e-08
1.62189e-08
9.10041e-09
-1.90157e-08
1.20088e-08
-5.52631e-09
7.31491e-09
-1.08726e-08
9.08387e-09
-9.35931e-09
1.70542e-08
-2.12611e-08
-1.01037e-08
1.17076e-08
1.22454e-08
1.23279e-08
2.73885e-09
-1.60053e-08
1.0292e-08
-1.81926e-08
2.37412e-09
1.52849e-08
-1.73653e-08
1.23723e-08
3.85929e-09
-1.55601e-08
-4.81235e-09
-1.54008e-08
-1.80048e-09
4.02457e-09
-1.74609e-08
-9.17911e-09
4.12503e-09
2.47967e-10
-2.15606e-08
5.03866e-09
1.5387e-08
-1.22937e-08
-5.90384e-09
2.81072e-09
1.67286e-08
2.11822e-08
-1.14733e-08
-2.64371e-08
-1.04908e-08
8.02272e-09
-1.18134e-08
1.42815e-08
-8.91797e-09
2.2787e-08
2.85938e-09
-2.4972e-08
-2.19422e-09
-3.29264e-08
8.20229e-09
-2.2685e-09
5.61181e-09
1.00191e-08
8.89453e-09
1.22129e-08
-1.33679e-08
9.85382e-09
-8.08363e-09
1.15976e-08
-3.70542e-09
-7.99317e-09
-1.66943e-09
-1.36146e-08
-1.88107e-09
1.17901e-08
-6.85461e-09
2.36815e-08
-6.97316e-09
-1.34361e-08
4.79326e-09
5.59006e-10
-8.74041e-09
-1.371e-08
-1.06687e-08
1.7524e-08
-9.15965e-09
2.42896e-10
7.86315e-09
-1.14885e-08
-5.53442e-09
-6.50461e-09
3.69898e-09
1.13526e-08
-9.91733e-09
-1.505e-08
-7.3625e-09
4.3265e-09
1.43885e-08
1.50829e-08
-6.06452e-09
1.21577e-09
-3.49744e-09
-3.0188e-10
1.44784e-08
-1.06792e-08
-2.22691e-10
1.07831e-08
-1.4058e-08
2.9223e-09
-1.20202e-08
8.8751e-09
1.17921e-08
-9.17175e-09
5.61818e-09
6.8211e-09
-1.65627e-09
8.03357e-09
-7.79806e-09
1.42428e-08
1.07463e-08
2.90539e-09
4.37273e-09
1.49296e-08
-8.55623e-09
-1.07648e-08
-9.00764e-09
1.69506e-10
1.96026e-08
-1.50414e-08
-3.55823e-09
7.83463e-09
1.07329e-08
-1.40103e-09
-2.51096e-09
9.28248e-09
-1.05807e-08
-1.37432e-08
-6.09905e-09
6.37382e-09
3.99503e-09
1.69793e-09
-5.53396e-09
1.00761e-08
1.64067e-09
5.85974e-09
-2.24855e-08
1.23311e-08
-7.10012e-09
1.1621e-08
1.03325e-08
-1.48536e-08
2.14853e-09
-1.51145e-10
-9.09752e-09
-1.32813e-09
-1.8257e-09
-9.31417e-09
1.2468e-08
1.0915e-08
1.1587e-08
-1.66422e-08
1.3791e-08
-7.27504e-10
1.93871e-08
9.47358e-09
-1.72737e-08
4.06018e-09
1.55578e-08
-2.30876e-10
7.1266e-09
9.16739e-09
-4.67321e-09
5.25204e-09
-2.49623e-09
4.37037e-09
-7.01782e-09
1.88499e-08
-6.58016e-09
1.51482e-08
2.70292e-09
8.28319e-09
-1.37686e-10
1.2481e-08
1.136e-08
-1.17156e-08
1.71787e-08
9.36341e-10
-1.97825e-09
3.91398e-09
-4.93511e-09
2.99955e-09
-7.09234e-09
5.46343e-09
7.18995e-09
-4.12661e-09
8.50606e-10
-4.35361e-09
1.631e-09
1.01061e-08
-7.3834e-09
-1.55819e-09
5.40843e-09
-8.20376e-09
-3.37398e-09
7.89956e-09
-2.89444e-09
3.30888e-09
-8.24101e-09
5.67635e-09
-7.30254e-09
-6.07373e-09
4.02873e-10
-5.33495e-09
2.26083e-09
-1.25207e-09
1.06426e-08
7.15577e-10
4.79669e-09
-6.4033e-10
4.8568e-09
-1.08391e-09
1.02658e-08
5.66421e-09
-5.28744e-09
8.12343e-09
6.99916e-09
3.98688e-10
-5.72826e-11
7.49386e-09
-5.31606e-09
3.48641e-09
-1.20691e-10
-4.86099e-11
-3.83862e-09
-8.66014e-09
1.25473e-08
-2.79687e-09
-6.13375e-09
-4.38809e-09
-1.99452e-09
6.46838e-09
-8.57935e-11
-5.04863e-09
4.98225e-10
1.62293e-10
1.18464e-09
9.21699e-09
-5.55902e-09
-4.84268e-09
-6.14506e-09
1.57306e-09
-4.76671e-10
3.22682e-09
-3.64335e-09
-3.41681e-09
-1.7336e-09
5.29823e-09
7.53689e-09
-3.61816e-09
1.99386e-09
4.09377e-09
-7.89482e-10
7.77927e-09
1.33065e-09
7.7786e-09
7.60276e-09
8.13349e-10
-4.06881e-09
-4.34727e-09
-3.90275e-09
4.41697e-09
7.08852e-09
-1.35121e-08
1.40059e-09
8.20874e-09
-5.84823e-09
-6.85055e-09
-7.88641e-09
1.12848e-08
-6.51088e-09
3.11248e-09
-7.73129e-09
-6.00335e-09
-1.09637e-08
-8.23985e-09
9.47986e-09
9.72383e-09
-7.94765e-09
1.60301e-09
-4.61908e-09
-6.64304e-09
1.43588e-09
9.62412e-09
4.35158e-09
8.33378e-09
-6.43297e-09
-5.96239e-09
5.75229e-09
-6.42374e-09
-4.07806e-09
6.54395e-09
-8.56976e-10
-2.12732e-09
-3.55964e-09
-1.54603e-09
2.12763e-09
-1.25843e-08
2.79852e-09
-7.25667e-09
-1.32752e-08
8.6124e-09
-3.13377e-09
-1.32099e-08
4.42921e-09
-2.32774e-09
-9.41388e-09
5.60155e-09
1.32922e-08
-3.38167e-09
1.1389e-08
-2.90865e-09
-4.37211e-09
-2.62321e-09
-6.76074e-09
-8.66561e-09
6.66832e-10
1.10155e-08
-6.96518e-09
-4.71705e-09
8.12812e-09
-3.0468e-09
-4.41446e-09
7.4192e-09
2.9055e-09
-2.19655e-09
1.9209e-09
-1.30578e-09
6.80413e-09
-6.78635e-09
1.06931e-09
7.63797e-09
-4.25661e-09
3.75788e-10
5.89773e-09
-5.53978e-09
-3.40472e-09
1.13395e-09
8.57586e-09
1.54397e-09
9.71632e-11
-2.98371e-09
1.15824e-08
-7.52935e-09
7.90394e-09
-8.82657e-09
-7.21568e-09
8.13834e-09
8.96898e-09
4.78932e-10
-1.26404e-08
1.07906e-08
-8.09961e-09
-9.7517e-09
5.21091e-09
-6.80429e-09
-9.35756e-10
8.5526e-09
-8.1246e-10
-2.02897e-09
-3.98967e-09
9.02769e-09
-2.3426e-10
4.9868e-10
3.63151e-09
-3.89591e-09
6.38134e-10
3.47199e-09
-4.3443e-09
-7.67372e-09
-6.33379e-09
7.20322e-09
-7.77486e-09
-7.69806e-10
8.7098e-10
-6.95767e-10
5.7027e-09
-4.50808e-09
5.67242e-09
-5.73011e-09
-9.02109e-10
-9.22967e-09
9.19607e-09
-9.88802e-09
8.45952e-09
5.26496e-10
-4.78325e-10
-5.70262e-10
4.68012e-09
4.69676e-09
-1.70307e-09
-4.88075e-09
1.14264e-10
-1.56729e-09
-7.95885e-09
-7.53375e-10
7.34854e-09
-9.22707e-10
7.10106e-09
-2.15176e-09
-4.81595e-09
-1.76692e-09
1.46247e-08
-6.70831e-09
2.9359e-10
-8.21016e-09
-7.81924e-09
1.00064e-08
1.24374e-08
-1.65431e-08
3.21768e-09
5.50603e-09
-1.62098e-08
-7.04167e-09
7.61483e-09
-1.49888e-08
1.24786e-08
-5.10468e-09
-4.51019e-10
-7.83591e-09
1.59014e-08
-5.61515e-09
-5.48581e-09
1.06497e-08
5.77825e-09
-1.38723e-09
-1.23581e-08
1.03004e-08
8.13344e-09
5.08187e-09
-1.19135e-08
-1.30185e-09
1.02924e-08
1.0545e-09
-3.21347e-09
1.17742e-08
-6.3989e-09
9.30508e-09
9.10919e-09
-1.51966e-08
8.11903e-09
-1.38683e-08
1.60416e-08
-3.56163e-09
-3.30823e-09
7.94735e-09
-4.12812e-09
-4.14562e-09
5.66548e-09
-6.93659e-09
7.96682e-10
4.74361e-10
1.43227e-09
-8.32481e-10
5.06567e-09
-1.64981e-10
-7.35418e-09
5.82541e-10
-6.23177e-09
5.56532e-10
7.10745e-09
-6.76668e-09
1.33156e-09
-4.97477e-09
1.07089e-10
4.0352e-09
-5.61981e-09
4.80038e-10
1.34361e-09
-6.49432e-10
-8.04839e-09
8.46329e-09
1.6225e-10
-7.62751e-10
-7.86284e-09
-1.24841e-08
1.01521e-08
1.07953e-08
-8.80173e-10
-1.14417e-08
6.14917e-09
1.09128e-08
-6.91e-09
-1.68055e-10
6.8737e-09
-6.18582e-09
6.51731e-09
2.00189e-09
-1.03641e-08
1.84485e-09
-7.05899e-09
8.09815e-09
5.4781e-09
8.98152e-09
3.93315e-09
-1.14609e-09
9.95952e-09
5.31415e-09
-1.05871e-08
-5.0912e-09
-1.64213e-09
-1.02759e-10
6.91158e-09
3.8172e-10
-7.94277e-09
-3.50365e-10
7.05914e-09
-1.10856e-08
1.68938e-09
8.18485e-09
-6.67678e-09
-3.19749e-09
5.05983e-09
-2.73813e-09
-6.32355e-10
-9.08906e-09
7.11009e-09
7.03875e-09
-5.86301e-10
-3.17935e-10
1.25338e-08
-1.14999e-08
-1.62029e-09
1.17596e-09
-1.68344e-09
1.30413e-08
1.78158e-09
1.13596e-08
-2.06911e-09
-1.10722e-08
-3.41408e-09
-9.09747e-09
9.99851e-09
2.51301e-09
9.14184e-09
-7.09351e-09
-2.66737e-10
5.65867e-09
6.90706e-11
2.19875e-09
3.41875e-09
5.68209e-09
-1.12996e-08
6.11536e-09
-1.05934e-08
3.81097e-09
-9.19553e-09
-8.80096e-10
9.16612e-09
5.6809e-09
-1.48005e-08
4.13944e-10
1.27031e-08
-5.30862e-09
1.46222e-09
8.95022e-09
3.40869e-09
-4.64769e-10
-5.74995e-09
6.33205e-09
1.71754e-10
8.65967e-09
-1.21137e-08
6.7506e-09
-3.29665e-09
-2.0053e-08
1.87555e-08
9.95718e-09
-1.11459e-08
-5.46756e-09
-3.43964e-09
-9.08036e-09
-1.41793e-08
1.69308e-09
4.24003e-09
1.28223e-08
-1.72301e-08
4.89503e-09
1.40282e-08
-6.96178e-09
-3.51782e-09
-3.22212e-09
-1.99435e-08
-3.09728e-09
-1.62171e-08
1.789e-08
1.62547e-09
-2.06808e-08
2.83834e-09
-2.30957e-08
4.77766e-09
1.00775e-08
-6.93343e-10
-1.84646e-08
1.10537e-08
-6.44396e-09
-1.56225e-08
1.67652e-08
-4.20583e-10
-1.03297e-08
-1.16866e-08
-1.18297e-08
-1.85148e-09
-2.7173e-09
-8.08026e-09
8.9086e-09
-1.76822e-08
-4.62951e-09
1.61968e-08
6.52954e-09
-1.29114e-08
-9.81497e-09
-6.59529e-09
1.55728e-09
2.12349e-08
4.6788e-09
-4.74451e-09
-4.73231e-09
-1.24357e-08
1.87255e-08
-7.0871e-09
-5.53505e-09
7.89007e-09
-1.24875e-08
-7.03537e-09
-1.14304e-08
8.71876e-09
-7.33446e-09
-2.9215e-09
6.30789e-10
-5.42169e-09
-7.69663e-09
-6.95084e-09
-5.32979e-09
-1.22964e-08
1.21967e-09
-5.78737e-09
-7.68095e-09
1.7203e-08
-3.7348e-09
-4.49214e-09
8.09575e-09
-9.39105e-09
-8.96182e-09
4.57727e-09
-3.2966e-09
1.76349e-09
8.15024e-09
-1.4406e-08
-6.51781e-09
1.68101e-09
-2.00205e-08
1.13107e-08
2.19196e-09
-2.61414e-09
1.14226e-08
-7.12754e-09
5.21398e-09
-1.13608e-08
3.8189e-09
-6.21854e-09
2.76804e-09
8.66443e-09
-1.16803e-09
-6.30649e-09
1.29607e-08
-5.48648e-09
-5.79923e-09
1.04399e-08
-5.80884e-09
3.59529e-09
1.56097e-09
-1.1463e-08
2.59813e-09
-4.8022e-09
-1.50099e-08
6.49344e-10
6.12357e-09
8.23692e-09
1.13165e-08
4.29766e-09
-8.53731e-09
-7.07696e-09
1.59322e-09
-5.28663e-09
1.0129e-08
-3.33358e-09
-2.49805e-09
5.07107e-09
5.70727e-09
-8.87752e-09
7.73003e-09
6.28507e-10
-9.43032e-09
-7.57393e-11
-2.9239e-10
-5.94278e-09
1.57705e-08
-7.05979e-09
9.62354e-10
2.0097e-10
1.17972e-08
5.58207e-09
8.57765e-09
-1.25989e-08
-4.27279e-09
8.10799e-09
-1.23717e-09
-7.22807e-09
-4.65594e-09
8.55157e-09
9.88362e-10
-1.26531e-08
1.28338e-08
-2.50828e-09
2.07134e-09
2.09343e-09
-3.62565e-09
-5.39061e-10
3.36322e-09
-3.22373e-09
1.93176e-09
-1.59886e-09
-2.17735e-09
7.13944e-09
-3.66384e-09
-1.86867e-09
3.93368e-09
-3.40297e-09
1.83259e-09
6.08322e-10
-4.71677e-09
8.84725e-10
-4.22188e-09
3.39169e-09
1.43852e-09
8.25846e-10
-2.75535e-09
-1.4734e-09
-9.27867e-10
-1.14916e-10
-3.00605e-09
1.43991e-09
-2.65574e-09
-5.39071e-10
-7.18373e-09
-2.01396e-09
3.22832e-09
-1.55367e-09
-4.82732e-09
1.24675e-09
-3.33947e-09
2.77859e-09
-9.19197e-11
-1.63213e-10
9.62626e-09
6.56526e-09
-4.7529e-10
-1.57163e-08
1.12353e-08
8.26258e-10
-2.43546e-09
1.03775e-08
7.20925e-09
-1.10216e-08
1.62585e-09
5.33143e-09
3.42012e-09
5.78415e-09
6.30721e-09
4.1386e-09
-1.09212e-08
-9.46763e-11
-1.0766e-09
-7.9276e-09
4.34803e-09
-5.00225e-09
1.42716e-09
-1.01182e-08
8.04897e-09
7.40061e-09
2.74418e-09
-5.65315e-09
-5.69868e-09
-3.46613e-09
6.22868e-09
-1.63904e-09
-1.84555e-09
9.27538e-09
-3.19915e-09
-4.63139e-09
1.01024e-08
-9.51101e-09
4.03993e-09
-8.52613e-09
-3.84105e-09
7.73578e-09
6.63922e-09
7.80868e-09
-2.75249e-09
-1.16954e-08
-8.08862e-10
-1.07806e-09
2.99856e-09
4.03873e-09
3.06513e-09
4.45034e-09
-9.81303e-09
8.36125e-09
-5.7737e-09
1.11341e-08
-9.10053e-10
-8.56786e-10
-8.45554e-10
6.53761e-09
5.38444e-09
-1.46746e-08
-1.16622e-09
9.14174e-09
-1.37493e-08
8.29492e-09
-2.6141e-09
-5.64359e-09
4.12547e-09
8.14641e-09
-1.07049e-08
7.94286e-09
8.68402e-09
-1.3465e-09
4.42098e-09
3.09679e-09
-4.07879e-09
1.32178e-08
2.16531e-09
-1.13044e-08
-7.11546e-09
6.61098e-09
-3.57427e-09
7.0401e-10
-1.84612e-08
1.06417e-08
-6.18119e-09
1.21097e-08
7.2893e-09
1.48921e-09
-1.0594e-09
1.1333e-08
-1.76327e-08
7.00379e-09
8.95764e-09
5.37041e-09
-2.99507e-09
6.33128e-09
-2.39404e-09
-2.44804e-09
6.93838e-09
9.76256e-09
-1.03697e-08
-3.20184e-09
1.73852e-09
-8.43985e-09
9.90318e-09
8.38585e-09
-2.63004e-09
1.39463e-08
1.37789e-09
-1.91363e-09
-1.00177e-10
1.37666e-08
-1.17529e-08
-5.56875e-10
-1.36619e-08
1.23052e-08
1.36609e-08
-2.01523e-09
-4.7264e-09
-6.91942e-09
1.39613e-08
-1.10842e-08
-2.21953e-09
-9.87751e-09
1.19968e-08
-1.17132e-08
6.15073e-10
-2.56388e-09
1.5212e-08
-7.12873e-09
-1.00985e-08
5.17958e-09
-1.05184e-09
-8.22967e-09
-3.81952e-09
-2.63942e-09
1.46884e-08
-1.05657e-08
-1.71187e-08
1.94546e-08
-8.27436e-09
-8.16536e-09
-1.4641e-08
-9.79328e-09
1.45567e-08
6.37606e-10
-1.0099e-08
-7.31104e-10
-1.81089e-08
-6.91709e-11
-1.35437e-08
-1.80857e-08
1.02258e-08
3.39552e-09
-5.11277e-09
1.41957e-08
-1.7061e-09
1.4192e-08
-9.09039e-09
-1.0409e-08
-8.20027e-10
6.11618e-09
-8.69289e-09
-5.02435e-09
4.46791e-09
-1.92064e-09
-1.64157e-08
7.149e-10
-6.51208e-09
1.02651e-08
-1.57879e-09
3.28441e-09
-1.06587e-08
8.95296e-09
-1.21923e-08
5.09409e-09
2.41409e-09
-4.2238e-09
7.32759e-09
-2.43675e-09
2.03195e-10
1.48124e-09
6.64363e-09
-7.26435e-09
-8.6057e-10
8.43875e-09
3.70084e-10
4.66682e-09
-3.69179e-09
7.46367e-09
9.60432e-09
3.93844e-09
-8.45031e-09
-4.13537e-09
-4.22526e-09
-5.36966e-09
-2.94421e-10
9.88932e-09
-1.48009e-09
-2.82935e-09
8.41322e-11
-7.34993e-09
-6.36195e-09
8.3421e-09
-6.73523e-09
-2.09483e-09
4.16069e-09
-1.50799e-09
-3.13459e-09
4.81875e-10
-5.8969e-09
9.76316e-09
-4.43993e-09
1.02594e-10
-5.26027e-09
1.38306e-10
-1.24004e-09
-4.22804e-09
-7.76747e-09
-7.01988e-09
7.25936e-09
-6.13639e-09
-6.19839e-09
-3.95608e-09
1.32183e-09
-9.98981e-09
-1.14662e-08
6.58965e-09
-1.31457e-08
1.36522e-08
2.62179e-09
-3.12829e-09
7.6635e-09
-6.65373e-09
-1.41555e-08
5.31462e-09
8.40088e-09
-7.56265e-09
-6.15287e-09
7.07399e-09
-1.18003e-09
-5.7939e-10
-3.72485e-09
6.7253e-09
4.07349e-09
4.59484e-09
8.11709e-11
9.86295e-09
-6.81749e-09
-1.23597e-09
-1.80954e-09
1.07088e-10
1.16756e-09
-6.25498e-09
9.05496e-09
1.08522e-08
2.28487e-10
-7.71599e-09
9.1335e-09
1.20425e-09
-1.50145e-08
6.44712e-10
-3.11613e-09
-7.10544e-09
3.40405e-09
-4.00839e-10
8.25063e-09
-1.1245e-09
-1.26632e-08
2.23498e-09
1.05353e-08
-4.76568e-09
1.08891e-08
-2.11868e-10
2.73904e-09
9.19246e-09
-1.17196e-08
-8.42039e-10
-9.18016e-09
-3.00833e-09
1.30306e-08
1.61932e-09
7.11875e-09
-8.94987e-09
1.22119e-08
-3.37786e-09
-9.6759e-09
2.29929e-09
-5.59743e-09
1.55103e-08
4.42129e-09
-3.26977e-10
-6.29145e-09
2.19726e-09
6.99412e-09
-9.7913e-10
-1.59369e-09
7.63638e-09
-3.33281e-10
-3.08949e-10
-6.24554e-09
6.54832e-10
7.21012e-09
-7.54917e-09
-1.47761e-09
1.13262e-08
-6.72179e-09
1.00838e-08
-4.34091e-09
-1.04266e-08
-1.20782e-09
2.59871e-09
1.32677e-09
7.70683e-10
-6.16479e-09
-5.20361e-09
1.60251e-09
-7.65381e-09
1.12548e-08
-1.63711e-08
-1.12614e-09
5.68242e-09
-7.36259e-09
-1.08883e-08
-7.1523e-09
-2.14152e-09
4.49471e-09
-6.8619e-09
-4.78506e-09
-5.4009e-09
4.52502e-09
-3.07465e-09
7.98626e-09
-9.43665e-09
4.53609e-09
-6.62889e-09
1.79241e-09
3.00402e-10
1.29988e-11
5.08348e-09
-4.97103e-09
-1.25448e-10
-6.90034e-11
3.09081e-09
-5.11729e-09
2.73372e-09
-7.07221e-10
-1.53371e-09
4.76908e-09
-1.44537e-10
3.17807e-09
-4.43103e-09
-2.80704e-10
1.13747e-09
-4.2712e-09
3.62219e-09
-4.8843e-10
-2.40028e-09
3.69677e-09
-1.59053e-10
-4.3529e-09
2.14532e-09
-1.92714e-10
-1.67773e-09
-2.24172e-09
3.95281e-09
-3.33925e-11
2.1905e-09
-3.71851e-09
-1.49757e-10
-4.41513e-09
2.43996e-09
-2.66508e-10
4.33247e-09
-2.1311e-09
-1.08874e-11
3.77703e-09
-7.43555e-09
3.7409e-09
-8.24178e-11
3.26988e-09
-7.29309e-09
4.19587e-09
-1.72716e-10
6.80788e-09
2.39034e-10
-3.71581e-10
-6.28046e-09
6.16788e-09
4.8416e-10
-6.78465e-09
6.2468e-09
1.6628e-10
3.82085e-09
-6.02686e-09
2.76216e-09
-5.56177e-10
-1.6802e-09
5.53013e-09
-2.90902e-11
-3.96342e-10
3.93304e-09
-3.30907e-09
-2.27599e-10
3.49625e-09
-3.62305e-09
-2.69528e-10
9.25937e-09
-7.45614e-09
-2.0543e-09
2.5105e-10
4.88182e-09
4.98796e-10
-5.09763e-09
-2.83027e-10
-1.76212e-09
6.83748e-09
-1.93532e-10
-5.53613e-09
4.33904e-09
-5.65049e-10
-3.38034e-09
5.42053e-09
-1.81409e-09
-2.26082e-10
-2.60329e-09
5.1738e-09
-2.56551e-09
-5.0024e-12
-5.69184e-09
-2.91801e-10
1.59388e-09
4.01798e-09
-5.3678e-09
-2.4395e-10
-3.08013e-09
4.69263e-09
-1.85765e-11
5.53131e-09
-8.503e-09
2.96938e-09
2.30755e-12
2.67611e-10
-7.59202e-09
7.21152e-09
1.12939e-10
5.73076e-09
6.81331e-11
6.89215e-09
-1.34337e-09
1.81956e-10
-4.45325e-09
7.20841e-09
-2.79247e-09
3.72927e-11
-2.89273e-09
-4.65356e-09
7.40822e-09
1.38061e-10
-7.0081e-09
-3.37912e-10
-2.99485e-09
4.89763e-09
-1.86977e-09
-3.30039e-11
1.60692e-09
-4.31577e-09
-2.86016e-10
5.08861e-09
-3.37553e-09
-1.06153e-10
-2.53056e-09
-2.75312e-09
5.2758e-09
7.85154e-12
-6.46893e-09
4.24434e-09
-3.06e-10
-6.19094e-09
3.56839e-09
-1.30587e-10
4.66061e-09
-8.63023e-09
4.07121e-09
-1.01638e-10
8.28116e-09
4.52934e-10
2.04371e-09
-2.26557e-09
-2.17827e-09
-7.32011e-09
6.71855e-10
-9.90489e-09
7.15728e-09
5.69426e-10
5.11453e-09
-5.38987e-09
6.83437e-10
-4.08062e-10
1.45212e-09
3.91374e-09
-2.51294e-10
-3.27796e-09
-1.55965e-10
-2.34336e-09
4.49292e-09
-1.9962e-09
-1.53286e-10
2.03251e-09
-4.00044e-09
-3.75417e-10
-2.52435e-09
4.65371e-09
-9.68608e-11
2.41757e-09
-4.59772e-09
-3.44253e-10
1.80279e-09
-3.72721e-09
2.11192e-09
-1.87461e-10
5.20901e-09
-3.47762e-09
7.13937e-11
-1.80948e-09
2.88326e-09
-1.09096e-09
1.72172e-11
-2.78626e-09
1.14851e-09
-1.71695e-10
-1.52819e-09
6.82174e-09
-5.35733e-09
6.3774e-11
-4.74732e-09
-2.46076e-09
6.76647e-09
4.41621e-10
-6.14957e-09
-1.25964e-10
4.3493e-09
-6.79745e-09
-1.26035e-11
7.14489e-09
-6.12555e-09
-9.82662e-10
-3.67389e-11
4.10282e-09
-7.56998e-09
3.6289e-09
-1.61824e-10
-2.66633e-09
6.6083e-09
1.60791e-10
4.74782e-09
-2.69281e-10
-1.41005e-09
6.56284e-09
-5.35398e-09
2.0123e-10
-7.55575e-09
6.09806e-09
4.76704e-11
-5.13484e-09
5.81286e-09
-8.99977e-10
2.21986e-10
1.78076e-09