/*--------------------------------*- C++ -*----------------------------------*\
| =========                 |                                                 |
| \\      /  F ield         | OpenFOAM: The Open Source CFD Toolbox           |
|  \\    /   O peration     | Version:  v1612+                                |
|   \\  /    A nd           | Web:      www.OpenFOAM.com                      |
|    \\/     M anipulation  |                                                 |
\*---------------------------------------------------------------------------*/
FoamFile
{
    version     2.0;
    format      ascii;
    class       volVectorField;
    location    "100";
    object      wallShearStress;
}
// * * * * * * * * * * * * * * * * * * * * * * * * * * * * * * * * * * * * * //

dimensions      [0 2 -2 0 0 0 0];

internalField   uniform (0 0 0);

boundaryField
{
    WALL
    {
        type            calculated;
        value           nonuniform List<vector> 
1670
(
(0.0201182 0.00584216 0.00890929)
(0.0207652 0.00494007 0.00956939)
(0.00692 -0.000908361 0.00719932)
(0.00660341 -0.00105041 0.00698984)
(0.0235006 0.00174514 0.00521069)
(0.0251245 0.000191125 0.00566286)
(0.0168854 0.00450444 0.0157051)
(0.0157194 0.00405583 0.0153944)
(0.00861493 0.00392234 0.00981044)
(0.00884184 0.00242791 0.0103394)
(0.0132386 0.00490375 0.015399)
(0.0153151 0.00316751 0.0172137)
(0.00846259 -0.000765248 0.00654152)
(0.00825544 -0.000712826 0.00657926)
(0.0199601 0.00345424 0.0166207)
(0.0202071 0.0032524 0.0179664)
(0.0196701 0.00192471 0.0184631)
(0.0206971 -7.36383e-05 0.0186915)
(0.0197018 0.00257512 0.0178591)
(0.0196398 0.00139497 0.0176934)
(0.018103 0.0013888 0.0185112)
(0.0192137 -0.00051321 0.0176372)
(0.0151154 0.00434522 0.0169478)
(0.0159641 0.00217096 0.0170738)
(0.00930906 0.00416377 0.0100339)
(0.0116388 0.00518733 0.0110421)
(0.00963557 0.00406278 0.0112473)
(0.00961901 0.00463586 0.0108935)
(0.00992732 0.00408438 0.0111115)
(0.0110159 0.00406822 0.0100324)
(0.0120227 0.00573681 0.00961593)
(0.00701504 -0.000236557 0.00771425)
(0.0069274 -0.000255089 0.00740815)
(0.00763538 0.000825065 0.00839435)
(0.00728129 0.000439312 0.00812615)
(0.0166762 0.00657827 0.00984578)
(0.0179035 0.00766171 0.00973904)
(0.0076898 -0.00261411 0.00650189)
(0.00770263 -0.00264589 0.00643025)
(0.00709322 -0.00231175 0.00718936)
(0.00711521 -0.0018111 0.00641907)
(0.0208579 -0.00547879 0.0166033)
(0.0203938 -0.00385679 0.0163042)
(0.0217022 0.00153552 0.0187621)
(0.0227082 -0.000534708 0.0197567)
(0.0235786 -0.00255865 0.0197411)
(0.0224813 -0.000178879 0.019156)
(0.0216472 -0.00185827 0.0183387)
(0.0231983 -0.00398127 0.0189645)
(0.0157232 -0.00174726 0.00705369)
(0.0167651 -0.00105037 0.00705958)
(0.022483 0.00198806 0.00889822)
(0.0233877 0.00263781 0.00973298)
(0.0232314 0.00646397 0.0116111)
(0.0214586 0.00569604 0.00863578)
(0.0173122 0.00577494 0.00668334)
(0.0202876 0.00443681 0.00750865)
(0.00895137 0.001935 0.00884731)
(0.00803412 0.00132056 0.00867308)
(0.00772038 0.000805208 0.00813988)
(0.00761113 0.00049225 0.00808129)
(0.0229223 -0.00390116 0.0180309)
(0.0173136 0.00110915 0.0178629)
(0.0172573 0.00272142 0.0183408)
(0.0162965 0.00125876 0.0081411)
(0.0140299 -0.000841742 0.00749292)
(0.00691866 0.000732543 0.00842801)
(0.00739216 0.000468723 0.00855878)
(0.0107466 0.00233505 0.00856263)
(0.00873186 0.00209741 0.0078448)
(0.0111207 0.00203737 0.00912142)
(0.00873644 0.000854338 0.00777724)
(0.008436 0.00199179 0.00810631)
(0.00879068 0.00242707 0.00806074)
(0.00882829 0.00141969 0.00827502)
(0.0212801 -0.00372462 0.0159464)
(0.0220762 -0.00310404 0.0180517)
(0.0229316 -0.00344368 0.0180716)
(0.02314 -0.00416167 0.0165598)
(0.0225482 -0.00323928 0.0184387)
(0.0236692 -0.00452805 0.0164593)
(0.013828 0.00365682 0.0168258)
(0.0142193 0.00454688 0.0159156)
(0.0135026 0.00333996 0.0153219)
(0.0217188 0.00406505 0.0136214)
(0.0192938 0.00554198 0.0143904)
(0.0197078 0.00341488 0.0137933)
(0.0193083 0.00551917 0.0138272)
(0.0193954 0.00375739 0.0132582)
(0.0200255 0.00352124 0.014797)
(0.0177993 0.000293069 0.017316)
(0.0184126 0.00174356 0.0188238)
(0.0183366 -0.000124709 0.0180033)
(0.0181776 0.00233489 0.0179074)
(0.0176895 0.000409789 0.0179499)
(0.0172788 0.000939916 0.0172045)
(0.00884881 -0.00185981 0.00686481)
(0.00928841 -0.00131931 0.00660434)
(0.00904366 -0.00144254 0.00675974)
(0.00890026 -0.0018742 0.00706885)
(0.0095788 -0.00142369 0.00677727)
(0.00866446 -0.00164029 0.00715594)
(0.0148714 0.00686454 0.012282)
(0.0151426 0.00711954 0.0110217)
(0.0148016 0.00862719 0.0108883)
(0.0137136 0.00631876 0.0104199)
(0.0151242 0.00883069 0.0119971)
(0.0146607 0.00679524 0.0127072)
(0.00608151 -0.00156355 0.00655489)
(0.00704544 -0.00123934 0.00721353)
(0.00656097 -0.00121082 0.00708727)
(0.0070574 -0.00117919 0.00720021)
(0.00720943 -0.00148555 0.00729999)
(0.00689818 -0.00146456 0.0071529)
(0.0228973 -0.00278649 0.00751067)
(0.0236403 -0.00400269 0.00769801)
(0.0228831 -0.00219711 0.00655026)
(0.0210985 -0.00348081 0.00736191)
(0.0236551 -0.0029054 0.00780784)
(0.0195505 0.00510277 0.00736169)
(0.0187424 0.00548518 0.00748034)
(0.0203829 0.00562333 0.00721609)
(0.0171861 0.00462005 0.00780767)
(0.0193686 0.00473317 0.00796365)
(0.0184986 0.00509007 0.00873973)
(0.0237205 -0.00725247 0.0165985)
(0.0211857 -0.00543247 0.015929)
(0.0239555 -0.0057727 0.0173599)
(0.0226429 -0.00632214 0.0165177)
(0.0219919 0.00175152 0.0182101)
(0.0218647 0.00152341 0.0198507)
(0.0224892 0.0020663 0.0191073)
(0.021595 0.0013844 0.0186369)
(0.0221221 -0.00104298 0.01903)
(0.0237667 0.000100178 0.0201497)
(0.0200069 0.00413391 0.00629809)
(0.0223087 0.00311074 0.0065427)
(0.0210704 0.00428534 0.00613345)
(0.0187215 0.00501992 0.00603852)
(0.0214018 0.00319194 0.00575277)
(0.00787728 0.00152439 0.00875501)
(0.00822205 0.00187046 0.00888855)
(0.00845021 0.00185658 0.00878864)
(0.00768534 0.00143719 0.00826016)
(0.00759798 0.000326186 0.00813157)
(0.00771236 0.00102221 0.00843808)
(0.00919388 0.0022119 0.00886614)
(0.00835438 0.00163484 0.0081246)
(0.00776605 0.00153984 0.00804731)
(0.00786133 0.000906266 0.0076141)
(0.0108966 0.00415938 0.00843379)
(0.0126441 0.00592001 0.00921114)
(0.0142429 0.00568598 0.00944348)
(0.0117943 0.00546348 0.00892831)
(0.0123392 0.00531313 0.00897445)
(0.0139641 0.00595809 0.00903317)
(0.0097138 0.00445231 0.00930847)
(0.0099638 0.0028066 0.009475)
(0.0103732 0.00309557 0.00878173)
(0.0095632 0.00263387 0.00900151)
(0.00996379 0.00361652 0.00948931)
(0.010516 0.00317367 0.00948022)
(0.0112481 0.00432393 0.00824851)
(0.0113193 0.00353733 0.00894107)
(0.0121361 0.0050606 0.00826543)
(0.0133697 0.0038954 0.00928305)
(0.0127759 0.00419713 0.0101841)
(0.0110816 0.00438325 0.00940516)
(0.0155555 0.00651486 0.00767488)
(0.0131281 0.00606198 0.00823124)
(0.0136692 0.00537831 0.00841049)
(0.0153969 0.00499613 0.00869462)
(0.0152164 0.00600272 0.00893145)
(0.0146825 0.00609678 0.00771824)
(0.0235323 -0.000507847 0.00621507)
(0.0228725 0.00170127 0.00570398)
(0.0240121 -0.000553291 0.00651063)
(0.0237059 0.00170975 0.00581564)
(0.0244856 0.000251556 0.006458)
(0.0233476 0.000829114 0.00612085)
(0.0184398 0.00479189 0.00714586)
(0.0198338 0.00360416 0.00673045)
(0.020052 0.00463644 0.00676)
(0.0210081 0.00415663 0.00665545)
(0.020961 0.00433379 0.00830175)
(0.0184802 0.00597432 0.00708822)
(0.0234274 0.00401949 0.00742663)
(0.0237841 0.00320951 0.00697968)
(0.0230033 0.00340854 0.0074117)
(0.0214943 0.00251807 0.00607888)
(0.0237039 0.00205915 0.00659818)
(0.0238063 0.00199422 0.00685857)
(0.0240241 -0.000354158 0.00754601)
(0.0253396 -0.000653332 0.00808887)
(0.022806 -0.00103891 0.00651112)
(0.023669 3.0434e-05 0.00690391)
(0.0238224 -0.00211659 0.00869347)
(0.024508 -0.00167344 0.00791781)
(0.0238346 0.000128973 0.0086587)
(0.0222341 -0.000334586 0.00903645)
(0.0231848 -0.000804495 0.00904866)
(0.0245359 -0.00178098 0.0104652)
(0.0224197 -0.00101878 0.00977335)
(0.0229208 -0.00213774 0.010671)
(0.0222977 -5.90086e-05 0.00958798)
(0.0230889 -5.0601e-05 0.00975011)
(0.0232228 0.00105303 0.00957594)
(0.0225881 0.000450933 0.00914759)
(0.0239678 0.00184454 0.00984967)
(0.00996533 -0.00272029 0.00608274)
(0.011817 -0.00286759 0.00632282)
(0.0109608 -0.00301645 0.00629652)
(0.00923167 -0.00275934 0.00626418)
(0.0100036 -0.0030755 0.00631273)
(0.0110284 -0.00269069 0.00618741)
(0.0115986 -0.00252522 0.00704674)
(0.0128031 -0.00231134 0.00688081)
(0.0122395 -0.00185277 0.00654699)
(0.010546 -0.00278162 0.00656367)
(0.0101675 -0.00266588 0.00646691)
(0.0114549 -0.00237988 0.00621221)
(0.00821297 -0.00272007 0.00700988)
(0.00736311 -0.00235605 0.00641408)
(0.00896525 -0.00274044 0.00638838)
(0.00790757 -0.0024507 0.00612758)
(0.00843654 -0.00275575 0.00662455)
(0.0073098 -0.00234194 0.00635397)
(0.00733837 -0.00201414 0.00640093)
(0.00701263 -0.00162903 0.00633454)
(0.0074288 -0.00200745 0.00644421)
(0.00713515 -0.0021181 0.00624496)
(0.00708536 -0.0016674 0.00634986)
(0.00712657 -0.000508766 0.00677837)
(0.00694075 -0.00083602 0.00681499)
(0.00686508 -0.00103111 0.0064964)
(0.00734739 -0.00102246 0.00666278)
(0.00704556 -0.00123745 0.00645184)
(0.00701162 -0.000618067 0.00669043)
(0.0160886 0.00408672 0.0088635)
(0.016252 0.00607615 0.00789618)
(0.0169699 0.00653261 0.00732259)
(0.0152554 0.00430354 0.00834809)
(0.0156475 0.00422705 0.00755016)
(0.0171419 0.00464355 0.00738572)
(0.0109566 0.0029532 0.00826178)
(0.0116286 0.00359883 0.00842459)
(0.0138637 0.00366682 0.00913257)
(0.012402 0.00323285 0.00930439)
(0.01322 0.00391681 0.00874384)
(0.0207955 -0.000968452 0.0108951)
(0.0216637 -0.00179233 0.0125039)
(0.0216837 -0.00195495 0.0127806)
(0.0211241 -0.00126932 0.011828)
(0.021145 -0.000979959 0.0113983)
(0.0206909 -0.00173107 0.0112616)
(0.0186441 -0.00265974 0.0142321)
(0.0202316 -0.00304917 0.0135963)
(0.02257 -0.00249983 0.0134654)
(0.0203252 -0.00289464 0.0156811)
(0.0208378 -0.00269847 0.0155802)
(0.019614 -0.00230192 0.0130051)
(0.0207824 -0.00296483 0.0133804)
(0.0191273 -0.00319795 0.0135568)
(0.0208752 -0.00352479 0.0155938)
(0.0214417 -0.00289615 0.0166973)
(0.0185079 -0.00233424 0.0158083)
(0.0207416 -0.0038042 0.0149359)
(0.0222823 0.00349809 0.00990392)
(0.020695 0.00276033 0.00891509)
(0.0214961 0.0026783 0.00915128)
(0.0204979 0.00327464 0.00880935)
(0.0202959 0.00522752 0.00877006)
(0.0194914 0.00558519 0.00896132)
(0.0209067 0.00418163 0.00917518)
(0.0210345 0.00419195 0.00938134)
(0.0200049 0.00683372 0.0103401)
(0.0183903 0.00710359 0.0107377)
(0.0177205 0.00805954 0.0105602)
(0.016771 0.00721792 0.0103991)
(0.0179276 0.0079484 0.00980046)
(0.0205537 0.00700919 0.0111119)
(0.0225209 0.00384858 0.0100103)
(0.0214486 0.00542459 0.0100797)
(0.0231326 0.00354 0.0106247)
(0.0157763 -0.000886543 0.00787265)
(0.0151105 -0.00109942 0.00708201)
(0.0163992 -0.000679111 0.00742461)
(0.0167732 0.000234057 0.00794062)
(0.0141707 -0.00140509 0.00710409)
(0.0178799 -0.000283966 0.00848394)
(0.0218531 -0.00096448 0.0186241)
(0.0206889 -0.00167924 0.0183978)
(0.0219755 -0.00271788 0.0184449)
(0.0220871 -0.00106447 0.0190188)
(0.0220567 -0.00146273 0.0189715)
(0.02171 -0.00207932 0.0181872)
(0.0241624 0.00338426 0.0168286)
(0.0253384 0.00235562 0.0176397)
(0.0217514 0.00164829 0.0135188)
(0.0241346 0.00244662 0.015755)
(0.0240844 0.00326013 0.0158564)
(0.0230147 0.00390816 0.0147249)
(0.0212759 0.00384162 0.0130309)
(0.0219042 0.00396545 0.0135815)
(0.0220266 0.00204149 0.0120526)
(0.0241975 0.00239362 0.0142636)
(0.0230255 0.00379719 0.0131701)
(0.0205476 0.00330469 0.0112675)
(0.0236224 -0.00279439 0.0192578)
(0.0240402 -0.00491021 0.0176258)
(0.0244563 -0.00310501 0.0197753)
(0.0231612 -0.00110105 0.0185546)
(0.0239714 -0.00276827 0.018675)
(0.0239197 -0.0021337 0.019447)
(0.023767 -0.00590392 0.0163971)
(0.023567 -0.00488637 0.0174124)
(0.0232558 -0.00439527 0.017258)
(0.0224225 -0.00519368 0.0161258)
(0.0233549 -0.00602947 0.0156945)
(0.0241712 -0.00532607 0.0170366)
(0.0237392 -0.000761638 0.0185402)
(0.0269155 0.000796234 0.0189471)
(0.0235633 -6.63959e-06 0.0176746)
(0.0240451 -0.00117261 0.0180428)
(0.025744 0.00201012 0.0192226)
(0.0255799 0.0021584 0.0185492)
(0.0220606 0.00111008 0.0107793)
(0.0222521 0.00100547 0.01242)
(0.0234057 0.00107441 0.0109784)
(0.0231488 0.00318647 0.0115722)
(0.0222049 0.00105318 0.0113042)
(0.0219324 0.00375226 0.0113829)
(0.0229273 -0.00727637 0.0139877)
(0.023199 -0.00702147 0.0142121)
(0.0239717 -0.00764076 0.0124427)
(0.023978 -0.00775711 0.0120821)
(0.0238906 -0.00773531 0.0131268)
(0.0239262 -0.00739509 0.0136941)
(0.02539 -0.00851031 0.0110353)
(0.0256181 -0.00789895 0.0103287)
(0.0248847 -0.00772197 0.0109187)
(0.0238576 -0.00800564 0.0112232)
(0.0244008 -0.0073962 0.00942239)
(0.0228689 -0.00589194 0.00966685)
(0.023341 -0.00589804 0.0104374)
(0.0229885 -0.00461748 0.00807947)
(0.0238337 -0.00509022 0.00893958)
(0.0223861 -0.00538394 0.010272)
(0.0232244 -0.00485391 0.00927317)
(0.0225169 -0.00532314 0.0152042)
(0.0221589 -0.00577622 0.0124934)
(0.0224435 -0.00608364 0.0142109)
(0.0202763 -0.00500115 0.0149329)
(0.0221653 -0.00620025 0.0146863)
(0.0219609 -0.00330358 0.011257)
(0.0209166 -0.00342614 0.0122137)
(0.0237782 -0.00419861 0.013352)
(0.023411 -0.00346578 0.0124353)
(0.0216334 -0.00410122 0.0136095)
(0.0210317 -0.00303161 0.0110987)
(0.00748936 -0.00241388 0.00736813)
(0.00729764 -0.00206613 0.00700096)
(0.00694385 -0.00186233 0.00709002)
(0.00746429 -0.00207648 0.00724373)
(0.00705438 -0.00175648 0.00727019)
(0.00689664 -0.000757679 0.00697197)
(0.00667858 -0.00100404 0.00705633)
(0.0068246 -0.000283536 0.00709244)
(0.00715522 -0.000293228 0.0075176)
(0.00697958 0.00016487 0.00763705)
(0.0072251 6.61491e-05 0.00746674)
(0.00687153 -0.000942127 0.00676386)
(0.00690817 -0.000588994 0.00699583)
(0.00741236 -0.00225554 0.0066386)
(0.00802366 -0.00295338 0.00675099)
(0.00762009 -0.0025713 0.00666766)
(0.00767091 -0.00284687 0.00656248)
(0.00786459 -0.00255791 0.00696625)
(0.00739376 -0.00211231 0.00647643)
(0.0235537 0.00197787 0.0059175)
(0.024973 0.000854815 0.0059488)
(0.0250274 0.00226214 0.00624006)
(0.0241045 0.000505905 0.00532045)
(0.0254594 -0.00246036 0.00497651)
(0.0254422 -0.00096824 0.00562977)
(0.0251803 -0.00143656 0.0053048)
(0.0229321 0.00611904 0.00893136)
(0.0205533 0.00751134 0.00803454)
(0.0217954 0.00505954 0.00824062)
(0.0196051 0.00791603 0.00785688)
(0.0191071 0.00606358 0.00787572)
(0.0178206 0.00690275 0.00763619)
(0.0156623 0.00643452 0.00840515)
(0.0185289 0.00658497 0.00797555)
(0.0149726 0.00753032 0.00817433)
(0.0171934 0.00703222 0.00808265)
(0.0180906 0.00639189 0.00782334)
(0.0187566 0.00707415 0.00959618)
(0.0224285 0.00397856 0.00858594)
(0.0197718 0.00421065 0.00741309)
(0.0222034 0.00392085 0.00866379)
(0.0221449 0.00559127 0.00953919)
(0.0220691 0.00480724 0.00863514)
(0.0220081 0.00494627 0.00949133)
(0.0222592 0.000802482 0.0115399)
(0.0237399 0.000319896 0.0136027)
(0.022742 0.00163755 0.011625)
(0.0172837 0.00696076 0.0117275)
(0.0178831 0.0076148 0.0102792)
(0.015426 0.00855891 0.0109054)
(0.0170975 0.0071047 0.0105652)
(0.0153191 0.00695825 0.0106532)
(0.0187004 0.00756317 0.0102438)
(0.00702026 5.97325e-05 0.00829609)
(0.00743245 -7.37234e-05 0.0082688)
(0.00715666 -0.000311245 0.00807098)
(0.00677482 -8.7995e-05 0.00806646)
(0.00756035 -0.000744971 0.00790486)
(0.00739594 -0.000445322 0.00807499)
(0.00733464 -0.00144647 0.00727928)
(0.00727716 -0.00160008 0.00727163)
(0.00762286 -0.00165844 0.00709492)
(0.00705855 -0.0016459 0.00700726)
(0.00745456 -0.00158977 0.00694533)
(0.00747945 -0.00150387 0.00737666)
(0.00706193 -0.000844308 0.00729839)
(0.00714569 -0.000409704 0.00781305)
(0.00676651 -0.000792001 0.00796276)
(0.00733767 -0.000602445 0.00816343)
(0.0074155 -0.00130178 0.00789757)
(0.00688177 -0.00105277 0.00737063)
(0.00709315 -0.000925371 0.00740456)
(0.00763635 -0.00096582 0.00720638)
(0.0068059 -0.000883171 0.00684835)
(0.00780142 -0.00106125 0.00756769)
(0.00750206 -0.000958628 0.00682965)
(0.00748734 -0.00114952 0.00697701)
(0.00695831 5.79559e-05 0.00803187)
(0.00717878 -0.000367739 0.00775375)
(0.00737975 -0.000521308 0.00802418)
(0.00900273 0.00259516 0.00957654)
(0.00910701 0.00344363 0.00991039)
(0.00924482 0.00235716 0.00980204)
(0.00930082 0.00267654 0.0091256)
(0.0096248 0.00381976 0.00955394)
(0.00880951 0.00402373 0.00956581)
(0.0114473 0.00431615 0.00977128)
(0.00921844 0.00434766 0.00934507)
(0.0111362 0.00450198 0.00912877)
(0.0108129 0.00492132 0.010226)
(0.00995076 0.00374558 0.00906888)
(0.0114197 0.00568303 0.00940644)
(0.0107657 0.00391739 0.0111386)
(0.0110278 0.00502663 0.0107245)
(0.0101612 0.00509364 0.0115376)
(0.0117302 0.00666994 0.0114262)
(0.0117908 0.00551885 0.0116876)
(0.0114927 0.00490187 0.0109712)
(0.0115945 0.00462749 0.0119374)
(0.00944082 0.00280878 0.010963)
(0.0124606 0.00575176 0.0109767)
(0.0123823 0.00746056 0.0112031)
(0.0150662 0.00698161 0.0123032)
(0.0147759 0.00652239 0.0116394)
(0.0119165 0.00652396 0.0111056)
(0.0112674 0.00569197 0.0108031)
(0.0135945 0.00672766 0.0102005)
(0.0148923 0.00785748 0.0106651)
(0.0158274 0.00834337 0.0109518)
(0.0145847 0.0077583 0.0108864)
(0.0162468 0.00847148 0.0111952)
(0.00882568 -0.0017448 0.00702161)
(0.00806895 -0.00182144 0.00705347)
(0.00916404 -0.00213836 0.00725888)
(0.00834038 -0.00191333 0.00689005)
(0.00797505 -0.00193529 0.0073545)
(0.00781606 -0.00178481 0.00708197)
(0.0136109 0.00501577 0.0144442)
(0.0148415 0.00385912 0.0154765)
(0.0137713 0.00439428 0.0146294)
(0.0148013 0.00442038 0.0145381)
(0.0162559 0.00459596 0.015038)
(0.0150983 0.00328263 0.0146876)
(0.0144581 0.00271473 0.0170179)
(0.0155907 0.00182997 0.0169304)
(0.0142572 0.00354469 0.0172811)
(0.0151655 0.00213757 0.0162186)
(0.0156856 0.000245568 0.0173553)
(0.0146895 0.00172899 0.0175913)
(0.0165161 0.0009231 0.018202)
(0.0171799 0.000286136 0.0184584)
(0.0155998 0.00106523 0.0174079)
(0.0121327 0.00536835 0.0104623)
(0.0110961 0.00458313 0.00817253)
(0.011468 0.00416529 0.00976589)
(0.0129964 0.00436119 0.010607)
(0.0113601 0.00363716 0.00846749)
(0.012236 0.00414535 0.00957645)
(0.0137976 0.00524846 0.0134212)
(0.0129364 0.00579016 0.0118766)
(0.0126098 0.00454925 0.0114153)
(0.01246 0.00584044 0.0112476)
(0.0147419 0.00500495 0.0134929)
(0.0119916 0.00369433 0.0102463)
(0.0153106 0.00470098 0.0134531)
(0.0155548 0.00428748 0.0140585)
(0.0163928 0.00418424 0.0142523)
(0.0144264 0.00495405 0.0124935)
(0.0137499 0.00337901 0.0112291)
(0.0146169 0.0044919 0.012661)
(0.0144512 0.00522488 0.0134172)
(0.0170903 0.00420808 0.0162605)
(0.0101237 -0.000200064 0.00683602)
(0.0104957 0.000605235 0.0065435)
(0.0108758 0.00114188 0.00647816)
(0.0111273 0.00054497 0.00711019)
(0.0105628 -2.39324e-05 0.0068301)
(0.0107629 -0.000101579 0.00680988)
(0.00806517 -0.00103347 0.00673783)
(0.00905656 -0.000500211 0.0063271)
(0.00918018 -0.000802537 0.00677708)
(0.00862732 -0.000737084 0.00651336)
(0.00844415 -0.00102901 0.00670378)
(0.00884456 -0.00105719 0.00690008)
(0.00679902 -0.000573904 0.00705566)
(0.0070735 -0.000519022 0.00722929)
(0.00743593 -0.000564407 0.0070751)
(0.00736073 -0.000653335 0.00714772)
(0.00709609 -0.000382545 0.00730916)
(0.0073503 -0.000510497 0.00758799)
(0.0100595 0.00282114 0.00625121)
(0.0106152 0.00291682 0.0066578)
(0.0115497 0.0030304 0.00816732)
(0.00999176 0.00177327 0.00653069)
(0.0116693 0.0024867 0.00770375)
(0.0102638 0.0014541 0.00623207)
(0.011265 0.00140016 0.0073088)
(0.0106311 0.00154649 0.00685436)
(0.0113584 0.00231597 0.00715515)
(0.0114734 0.00130093 0.007347)
(0.0103454 0.000666041 0.0066742)
(0.0184565 0.00303023 0.0172846)
(0.0170744 0.00280659 0.0158873)
(0.0165898 0.00343711 0.0166109)
(0.0162695 0.00332579 0.0168126)
(0.0176106 0.00277555 0.0170817)
(0.0179442 0.00202934 0.0172939)
(0.018514 -0.00128312 0.016755)
(0.0172712 -0.000508969 0.0171158)
(0.0181817 -0.00184327 0.0164674)
(0.016584 -0.00116659 0.0164128)
(0.018141 -0.00118062 0.0171213)
(0.0181815 -0.00178616 0.0160148)
(0.0201174 -0.000383532 0.0180332)
(0.0193689 0.00124785 0.0180327)
(0.0180627 0.00138775 0.0180016)
(0.0198387 0.000616632 0.0178513)
(0.0209454 0.00166727 0.0192279)
(0.0200284 -0.000851286 0.0185036)
(0.0204043 -0.00144016 0.0176999)
(0.0212143 -0.0026889 0.016931)
(0.0200275 -0.00220399 0.0170139)
(0.0212648 -0.00219013 0.0178551)
(0.0196248 -0.00112705 0.0172765)
(0.0207153 0.00316133 0.0165225)
(0.017693 0.00336911 0.0145527)
(0.0180323 0.00409974 0.0138799)
(0.0182971 0.00315979 0.0134147)
(0.0177662 0.00416903 0.0131434)
(0.0179248 0.00502835 0.0156113)
(0.0213395 0.00290589 0.0175606)
(0.0222801 0.00379099 0.0171471)
(0.0203378 0.00465173 0.0154557)
(0.0215172 0.00327806 0.0163461)
(0.0210931 0.00388747 0.0182699)
(0.0208736 0.00230261 0.0169971)
(0.0120696 -0.000881496 0.00742121)
(0.0125157 0.000652749 0.00708403)
(0.0111655 -0.000392371 0.00712863)
(0.0128802 0.000634848 0.00739754)
(0.0124809 -0.000496795 0.00754808)
(0.0120262 0.000399173 0.00694345)
(0.0132921 0.00125711 0.00788555)
(0.0117242 0.000853559 0.0068218)
(0.011979 0.000510479 0.0072073)
(0.0127661 0.00149886 0.00754671)
(0.0136807 0.00108584 0.00817298)
(0.0187554 0.00338141 0.0126069)
(0.0160443 0.00297707 0.00939782)
(0.0173014 0.00455345 0.0103332)
(0.017535 0.00307712 0.0110537)
(0.0197802 0.00336197 0.0125745)
(0.0172695 0.00362601 0.0101583)
(0.0127708 0.00281531 0.00844152)
(0.0114066 0.00482125 0.00831663)
(0.0118187 0.00297882 0.00841341)
(0.0121173 0.00317457 0.00921122)
(0.012277 0.00293669 0.0088865)
(0.0117648 0.00406558 0.00832968)
(0.0132985 0.00326053 0.00908471)
(0.0141319 0.00261689 0.00911982)
(0.0116134 0.00127584 0.00759712)
(0.0131356 0.00235265 0.00795503)
(0.0132872 0.00285708 0.00802112)
(0.0122082 0.00250362 0.00797681)
(0.0103629 -0.00169938 0.00690283)
(0.011651 -0.00133622 0.00730611)
(0.0114599 -0.000478614 0.00652736)
(0.0097465 -0.00171493 0.00676478)
(0.0112805 -0.00159466 0.00701113)
(0.0107004 -0.0011785 0.00689759)
(0.0177355 0.00176323 0.00984075)
(0.0185337 0.00394322 0.0104892)
(0.0151351 0.00183117 0.0079407)
(0.0155385 0.000773553 0.00852102)
(0.0168271 0.00233475 0.00958445)
(0.0180535 0.00215822 0.0102434)
(0.0153199 -0.000173815 0.00821386)
(0.0174836 0.00126599 0.00914731)
(0.0171352 9.34361e-05 0.00885404)
(0.0166974 -0.000506672 0.00851771)
(0.0147106 3.66696e-05 0.0079051)
(0.0167574 0.00197266 0.00825404)
(0.0170503 0.00128755 0.018802)
(0.0149946 0.00253125 0.0176512)
(0.0151774 0.00176452 0.0179668)
(0.00911951 0.00368672 0.0101828)
(0.00961268 0.00426096 0.0106965)
(0.00866709 0.00304868 0.00951528)
(0.0084053 0.00282533 0.0101561)
(0.00730003 0.00152682 0.00870474)
(0.00928131 0.00326987 0.0107179)
(0.00703485 0.00149571 0.00868877)
(0.00791598 0.00177337 0.0096636)
(0.00791266 0.00201939 0.00973185)
(0.00886532 0.00241468 0.0102275)
(0.00819034 0.00261802 0.00988928)
(0.00719898 0.000200103 0.00843634)
(0.00734948 0.000140458 0.0080428)
(0.00768759 0.000841434 0.00885931)
(0.00794425 0.000375155 0.00907385)
(0.00767121 0.000757924 0.00861484)
(0.00710342 -8.49305e-05 0.00842051)
(0.00727058 -6.78725e-05 0.00807832)
(0.0073498 5.85117e-05 0.00847864)
(0.00706745 -0.000481243 0.00804833)
(0.00715188 -0.000402701 0.00822252)
(0.00724762 2.8943e-05 0.00833477)
(0.00737822 -0.000279976 0.00814717)
(0.0070431 -0.000215142 0.00816129)
(0.00759547 0.000566004 0.00849191)
(0.00719326 0.000307693 0.00823668)
(0.00717703 0.000410733 0.00843237)
(0.00750359 0.00066108 0.0087699)
(0.0071277 7.08263e-05 0.00815129)
(0.00693502 0.000116029 0.00819581)
(0.0214053 0.005865 0.00896396)
(0.0193097 0.00398235 0.00919392)
(0.0221877 0.00454927 0.00970399)
(0.022149 0.00370572 0.0096586)
(0.0203214 0.00433268 0.00921295)
(0.0218541 0.00355306 0.0098158)
(0.0218333 0.00122555 0.00985789)
(0.0210637 0.000261478 0.0100297)
(0.0215766 0.00115976 0.0100408)
(0.0212752 -0.000514711 0.0112964)
(0.0212718 -9.16112e-05 0.0105482)
(0.0220484 0.000488369 0.0111608)
(0.0149351 0.00408654 0.00876217)
(0.0125634 0.00376689 0.00856897)
(0.0156026 0.00525038 0.00916021)
(0.0131583 0.00499508 0.00840135)
(0.01155 0.0040084 0.00863677)
(0.0121217 0.00408275 0.00860581)
(0.0227873 -0.00138318 0.0116551)
(0.00705068 -1.83038e-05 0.00827906)
(0.00768472 0.000905188 0.00858418)
(0.00669721 -0.000183361 0.00789349)
(0.00747528 0.00170197 0.00896009)
(0.00781975 0.00216994 0.00937989)
(0.0132219 0.00468751 0.0143538)
(0.0164485 0.00159885 0.0184869)
(0.0152757 0.0039752 0.0165415)
(0.0137787 0.00272814 0.0154507)
(0.0147607 0.00226634 0.0180129)
(0.0143514 0.00303493 0.0170971)
(0.0156434 0.00205473 0.0181982)
(0.0145807 0.00252015 0.0175744)
(0.0117896 0.00530069 0.011877)
(0.0127811 0.00486528 0.0137591)
(0.0129576 0.00541732 0.0134672)
(0.012863 0.00492103 0.0133619)
(0.012306 0.00553417 0.0115754)
(0.00833875 -0.000798525 0.00660538)
(0.00789659 -0.000969958 0.00690592)
(0.00784635 -0.00105026 0.00715495)
(0.00788259 -0.00072327 0.00691938)
(0.0131629 -0.00209904 0.00707358)
(0.0131198 -0.0020065 0.00700918)
(0.0142445 -0.00171591 0.0076629)
(0.0147631 -0.000672794 0.00727619)
(0.011825 -0.0022987 0.00745644)
(0.0104751 -0.00245162 0.00717007)
(0.0115514 -0.00179029 0.00718493)
(0.0129231 -0.000552574 0.00762103)
(0.0172473 0.00466139 0.0133568)
(0.013902 0.0042297 0.0117335)
(0.0158492 0.00401791 0.012899)
(0.0154449 0.00457876 0.0121283)
(0.0132755 0.00420582 0.0112885)
(0.0113978 0.00283537 0.00705959)
(0.0149207 0.0010342 0.0077061)
(0.013924 0.000778694 0.00735065)
(0.00832158 -0.00229715 0.00685892)
(0.00907863 -0.00229317 0.00711989)
(0.0100018 -0.0019081 0.00681769)
(0.0107646 -0.00171928 0.00654656)
(0.0103468 -0.00204768 0.00669139)
(0.0161583 0.00332711 0.0118453)
(0.0151843 0.00509708 0.0113025)
(0.0147461 0.00465924 0.0107693)
(0.0161265 0.00113226 0.00889897)
(0.0165045 0.00175076 0.00966738)
(0.0152896 0.00301493 0.0107357)
(0.0176555 0.00448305 0.0119671)
(0.0163807 0.00377454 0.0108012)
(0.0168458 0.00305996 0.0109875)
(0.0159962 0.00308927 0.0110355)
(0.0123923 0.0012915 0.00788573)
(0.0135966 0.00345131 0.00883957)
(0.0140809 0.00273588 0.00943231)
(0.0138624 0.00249534 0.00870295)
(0.0110856 -0.000246042 0.00688038)
(0.0102292 -0.00095124 0.00646477)
(0.0126212 -0.00017291 0.00723798)
(0.0131462 -0.000504195 0.00735534)
(0.019958 0.00197237 0.0105493)
(0.0200839 0.0035512 0.0120958)
(0.0187261 0.00242008 0.0105917)
(0.0190707 0.00442823 0.0120881)
(0.019329 0.00320395 0.0120846)
(0.0222876 0.00406153 0.0149351)
(0.0202866 0.00428319 0.0138549)
(0.0202833 0.00507152 0.0145772)
(0.0210663 0.00414565 0.0149119)
(0.0203476 0.00405495 0.0148676)
(0.0167113 0.00470086 0.0118892)
(0.0173039 0.00454061 0.0123161)
(0.0168018 0.00548226 0.0124637)
(0.0229921 0.0045529 0.0175691)
(0.021592 0.00406144 0.0171367)
(0.0210065 -0.00228686 0.0175637)
(0.0223092 -0.00271202 0.0177526)
(0.018518 0.00436073 0.0163351)
(0.0191022 0.00318577 0.0167795)
(0.017362 0.00441766 0.015042)
(0.019321 0.00396048 0.0169908)
(0.0191034 0.00411783 0.0157504)
(0.0202558 0.00263458 0.0175403)
(0.0206692 0.00295501 0.0189506)
(0.0226605 0.00122256 0.0192536)
(0.0208765 0.00290496 0.0179395)
(0.0227098 0.00194206 0.020081)
(0.0215877 0.00181711 0.01769)
(0.0197276 -3.10707e-05 0.0186774)
(0.0222149 -0.000949221 0.0198151)
(0.0208971 5.51872e-05 0.0182159)
(0.020439 -0.000725664 0.0193336)
(0.0178308 0.00234774 0.0167629)
(0.0211342 0.00049979 0.0198056)
(0.0205689 0.00329041 0.0190017)
(0.0192048 0.000406061 0.019038)
(0.0167056 0.00249843 0.0170851)
(0.018069 0.00203273 0.0173548)
(0.0177093 0.00262896 0.0175758)
(0.0184691 0.000864922 0.0174272)
(0.0179436 0.00261544 0.0170565)
(0.0167537 -0.000598519 0.0174245)
(0.0168076 -5.61294e-05 0.0172702)
(0.0204752 -0.00242141 0.0170759)
(0.0193584 -0.00189764 0.0166508)
(0.0196341 0.00153513 0.018936)
(0.0193672 -0.000723029 0.0177805)
(0.0181537 0.000585866 0.0184405)
(0.0197969 -0.00131768 0.017583)
(0.0188462 -0.000944166 0.0175696)
(0.0189616 -0.00131462 0.017095)
(0.0184502 -0.000876754 0.0171411)
(0.0184366 -0.000283153 0.0168698)
(0.00922957 0.000846201 0.00601781)
(0.00948141 0.00141767 0.00594658)
(0.0103672 0.00156235 0.00697101)
(0.0109424 0.00218541 0.0071989)
(0.00774844 -0.000720484 0.00714663)
(0.0080571 -0.00111088 0.00706463)
(0.0118857 0.000871895 0.0074612)
(0.0113682 0.000640039 0.00676081)
(0.00888672 -0.000676217 0.00660521)
(0.00994829 -0.000579575 0.00694256)
(0.00965229 -9.75218e-05 0.00654294)
(0.010095 0.000383364 0.0064723)
(0.0101785 0.000294426 0.00650863)
(0.00952586 0.000902161 0.00602047)
(0.00983133 0.00108471 0.00615373)
(0.00946668 0.000207643 0.0063999)
(0.00988707 -0.000219124 0.00648308)
(0.0115405 -0.000599358 0.00722276)
(0.0109629 -0.000254201 0.00723687)
(0.0102523 -0.000875548 0.00711697)
(0.0100147 -0.000495648 0.00630103)
(0.0100649 -0.00119977 0.00693017)
(0.0216677 -0.00171738 0.0186528)
(0.0212886 -0.00216806 0.0185195)
(0.0210015 -0.00211183 0.018795)
(0.021644 0.000300759 0.019296)
(0.0213541 0.000256266 0.019162)
(0.0212407 -0.000524504 0.0186252)
(0.010885 0.0030368 0.00775063)
(0.0110787 0.00428718 0.00809547)
(0.0126314 0.0048947 0.0112177)
(0.0137227 0.00447193 0.0104344)
(0.0121602 0.00540142 0.0110914)
(0.0166223 0.000536641 0.0179918)
(0.0153326 0.000818456 0.017091)
(0.0175655 0.000711535 0.0187424)
(0.0154539 0.00118771 0.0180437)
(0.0154295 0.0024993 0.0175376)
(0.0157963 0.00161234 0.0173702)
(0.0159984 0.00123996 0.0178231)
(0.0150466 0.00225604 0.0175862)
(0.0154609 0.00142134 0.0172401)
(0.0144276 0.00353014 0.0151421)
(0.0153645 0.00473993 0.0159872)
(0.0154005 0.0039765 0.0158415)
(0.0166391 0.00375325 0.0179868)
(0.0168793 0.00265598 0.0166747)
(0.0130269 0.003727 0.0129647)
(0.0139192 0.00396761 0.0122853)
(0.00939859 -0.0016726 0.00671099)
(0.0085856 -0.00213798 0.00722234)
(0.0105267 -0.00212057 0.00700438)
(0.00981024 -0.00213214 0.00726589)
(0.00896935 -0.00185217 0.00654598)
(0.00967887 -0.00107175 0.00687161)
(0.00943487 -0.00105014 0.00673897)
(0.00905365 -0.00120842 0.00690109)
(0.00874766 -0.00145519 0.00674306)
(0.00874091 -0.001412 0.00678056)
(0.00832484 -0.00144042 0.00684848)
(0.00801009 -0.00125094 0.00689706)
(0.0100833 0.00509736 0.0104542)