/*--------------------------------*- C++ -*----------------------------------*\
| =========                 |                                                 |
| \\      /  F ield         | OpenFOAM: The Open Source CFD Toolbox           |
|  \\    /   O peration     | Version:  v1612+                                |
|   \\  /    A nd           | Web:      www.OpenFOAM.com                      |
|    \\/     M anipulation  |                                                 |
\*---------------------------------------------------------------------------*/
FoamFile
{
    version     2.0;
    format      ascii;
    class       volScalarField;
    location    "118";
    object      p;
}
// * * * * * * * * * * * * * * * * * * * * * * * * * * * * * * * * * * * * * //

dimensions      [0 2 -2 0 0 0 0];

internalField   nonuniform List<scalar> 
21396
(
2.70174
2.71654
2.69447
2.70116
2.70682
2.75333
2.681
2.76025
2.65955
2.68649
2.81216
2.64066
2.73466
2.71401
2.75579
2.70733
2.74446
2.69539
2.74987
2.74356
2.65226
2.67831
2.69697
2.76493
2.75742
2.68708
2.7934
2.80285
2.71427
2.64462
2.73757
2.74657
2.63207
2.60507
2.73092
2.7584
2.6706
2.69011
2.78549
2.7789
2.66135
2.64687
2.74351
2.63601
2.72674
2.74702
2.68569
2.68405
2.72098
2.74541
2.72964
2.70232
2.68503
2.68313
2.70099
2.77902
2.76272
2.7673
2.65546
2.72968
2.65435
2.81005
2.65187
2.69662
2.70117
2.72155
2.77185
2.66298
2.75372
2.66135
2.68322
2.6895
2.82967
2.62826
2.63298
2.68021
2.80388
2.68709
2.68798
2.78086
2.78203
2.80961
2.77353
2.65911
2.66605
2.7843
2.77845
2.79367
2.81311
2.74109
2.65304
2.66001
2.74326
2.74969
2.69341
2.79141
2.7115
2.6531
2.70774
2.62941
2.70895
2.68044
2.79105
2.80866
2.68396
2.6425
2.65839
2.68491
2.71069
2.70722
2.71821
2.67372
2.66592
2.72136
2.72007
2.68441
2.71838
2.74402
2.71283
2.71973
2.72639
2.7565
2.6844
2.6738
2.73899
2.70533
2.6128
2.66791
2.70782
2.69663
2.71759
2.69504
2.70347
2.79875
2.70486
2.67748
2.68465
2.70784
2.71205
2.6428
2.63895
2.68877
2.68737
2.68881
2.61722
2.61823
2.72774
2.69234
2.70206
2.76958
2.64576
2.6586
2.72338
2.68662
2.68093
2.72511
2.74125
2.69807
2.65019
2.68061
2.69312
2.67451
2.61139
2.66073
2.64472
2.66692
2.60609
2.65509
2.65387
2.67378
2.70668
2.73417
2.73878
2.7339
2.77723
2.78987
2.7792
2.64036
2.69381
2.69502
2.68258
2.70845
2.78335
2.70573
2.62605
2.65848
2.70291
2.75406
2.73144
2.74926
2.73717
2.66775
2.63925
2.73762
2.75479
2.77178
2.76154
2.78826
2.78912
2.79626
2.79415
2.80498
2.79025
2.79608
2.81674
2.79946
2.65799
2.66636
2.68612
2.68517
2.61469
2.61706
2.61336
2.72962
2.6811
2.67876
2.69036
2.72199
2.75144
2.73297
2.69678
2.70468
2.71853
2.71053
2.70813
2.71514
2.71388
2.71136
2.69988
2.69345
2.6823
2.63623
2.65998
2.622
2.6159
2.73663
2.71051
2.69071
2.70201
2.70989
2.7084
2.71132
2.68042
2.64671
2.80562
2.77199
2.63125
2.69547
2.69967
2.68962
2.80808
2.6357
2.6622
2.61572
2.65514
2.63261
2.70056
2.73449
2.6977
2.67333
2.67492
2.68124
2.66837
2.60774
2.65706
2.66181
2.71675
2.72429
2.75008
2.74765
2.75142
2.75496
2.69438
2.67314
2.66016
2.68807
2.68538
2.68549
2.69683
2.63223
2.64369
2.63431
2.62846
2.62793
2.62873
2.60822
2.79929
2.7307
2.74302
2.72471
2.73371
2.6096
2.60845
2.65168
2.65252
2.7165
2.71609
2.64907
2.6542
2.65554
2.65409
2.65865
2.6692
2.68473
2.67878
2.67519
2.69142
2.69104
2.74349
2.71567
2.69169
2.69979
2.70471
2.70308
2.7069
2.7198
2.69327
2.6981
2.7689
2.7964
2.70095
2.67484
2.67671
2.62563
2.61146
2.63617
2.64498
2.70459
2.74138
2.74152
2.60766
2.66616
2.65628
2.65712
2.70984
2.68622
2.63944
2.79362
2.70566
2.69976
2.69839
2.79265
2.77871
2.76611
2.65241
2.72397
2.66335
2.66687
2.76865
2.79039
2.81809
2.65153
2.68427
2.67366
2.72251
2.74388
2.75448
2.75411
2.73438
2.74347
2.74486
2.73431
2.7131
2.71312
2.66044
2.65648
2.68342
2.64488
2.78885
2.78699
2.66781
2.77445
2.63649
2.66818
2.74761
2.7011
2.65442
2.70371
2.68214
2.69446
2.68406
2.6934
2.70873
2.72837
2.66091
2.77401
2.68154
2.76631
2.79336
2.67483
2.67901
2.77335
2.69
2.67718
2.66732
2.64599
2.67308
2.63828
2.65787
2.69498
2.70018
2.60369
2.60727
2.60211
2.64105
2.64111
2.74506
2.75165
2.70814
2.72564
2.67485
2.65286
2.68777
2.62619
2.6333
2.78544
2.78697
2.82648
2.7149
2.70146
2.71565
2.70619
2.70954
2.70805
2.61947
2.70818
2.67655
2.70209
2.69335
2.78272
2.77461
2.78102
2.77265
2.63203
2.64841
2.70204
2.70534
2.70497
2.65436
2.75188
2.73377
2.65854
2.6376
2.74524
2.61745
2.6152
2.60635
2.63645
2.62233
2.68938
2.68298
2.68836
2.70562
2.68848
2.62286
2.62029
2.69071
2.73849
2.63231
2.6193
2.69183
2.75676
2.75454
2.68431
2.66685
2.67254
2.74392
2.65721
2.7068
2.74955
2.74804
2.63068
2.70811
2.61666
2.69753
2.64957
2.64263
2.66561
2.67068
2.64962
2.63636
2.69588
2.68353
2.64913
2.7171
2.78022
2.72199
2.67548
2.67367
2.67553
2.67649
2.60904
2.72213
2.71236
2.72011
2.71496
2.69675
2.66233
2.7856
2.63314
2.65664
2.65352
2.64248
2.71129
2.7073
2.71134
2.72493
2.64214
2.6445
2.7556
2.69684
2.69971
2.71399
2.74529
2.63294
2.62311
2.61885
2.72995
2.73791
2.7232
2.71162
2.71279
2.77557
2.79075
2.62552
2.68309
2.70314
2.707
2.63668
2.66035
2.66124
2.67143
2.66989
2.75362
2.75293
2.66619
2.60192
2.69615
2.79981
2.69263
2.70549
2.70384
2.68181
2.70172
2.65039
2.64213
2.6452
2.60899
2.71718
2.64452
2.69892
2.7277
2.74712
2.71868
2.73425
2.66175
2.66183
2.66488
2.64911
2.65239
2.63883
2.71723
2.6982
2.69057
2.74532
2.73698
2.71392
2.71699
2.69604
2.70189
2.68015
2.69949
2.80757
2.79034
2.71601
2.74298
2.71164
2.71321
2.7101
2.63985
2.74593
2.6224
2.61934
2.6516
2.64207
2.68892
2.69138
2.67579
2.6922
2.75127
2.74194
2.72167
2.7248
2.78827
2.77971
2.76704
2.70835
2.63919
2.71666
2.72083
2.66257
2.62554
2.6284
2.60522
2.74141
2.69218
2.66973
2.65472
2.78186
2.714
2.69525
2.69557
2.733
2.6862
2.65441
2.63649
2.68905
2.73122
2.77
2.65033
2.69795
2.69577
2.67857
2.70188
2.68926
2.6923
2.70222
2.72091
2.73782
2.70416
2.73771
2.6894
2.712
2.6931
2.72413
2.70416
2.69695
2.69699
2.67898
2.68788
2.67002
2.64998
2.7375
2.76145
2.74121
2.75903
2.77108
2.6122
2.69792
2.691
2.69929
2.6871
2.6689
2.62924
2.6392
2.66061
2.67444
2.63144
2.66029
2.66464
2.61411
2.61906
2.65856
2.62082
2.63462
2.62611
2.63232
2.61182
2.60912
2.61811
2.62125
2.67938
2.65247
2.63769
2.7477
2.7112
2.78817
2.76738
2.71712
2.64594
2.67581
2.69263
2.68233
2.67965
2.6887
2.6431
2.66297
2.7152
2.71496
2.69413
2.7052
2.74584
2.72241
2.76504
2.71041
2.7457
2.77184
2.75041
2.7325
2.73834
2.77273
2.76207
2.7357
2.77937
2.77804
2.77974
2.78405
2.7592
2.71511
2.70892
2.7297
2.73116
2.71001
2.73597
2.70356
2.70646
2.72538
2.70008
2.73759
2.70446
2.72041
2.70846
2.71976
2.69457
2.70494
2.76096
2.7433
2.72974
2.67441
2.66881
2.68213
2.68041
2.66715
2.63057
2.67031
2.64862
2.6885
2.6623
2.66616
2.71128
2.63467
2.64228
2.67865
2.65084
2.63957
2.6436
2.66098
2.66113
2.64184
2.64292
2.65948
2.65367
2.64788
2.62913
2.63956
2.64669
2.64669
2.64859
2.68766
2.6932
2.66587
2.68351
2.6988
2.6651
2.72571
2.73083
2.72763
2.69821
2.77645
2.74274
2.75886
2.74293
2.76641
2.76379
2.74636
2.701
2.69611
2.69904
2.70249
2.70761
2.69845
2.64102
2.64612
2.63392
2.63817
2.64002
2.76517
2.76784
2.78385
2.77958
2.77488
2.7784
2.71321
2.61093
2.60705
2.6134
2.72095
2.7066
2.72647
2.71193
2.71999
2.71716
2.66133
2.6346
2.63098
2.63403
2.62391
2.6619
2.65525
2.63534
2.61946
2.62583
2.621
2.62931
2.63078
2.62125
2.61667
2.61333
2.61544
2.61282
2.61307
2.61044
2.61572
2.64947
2.73906
2.73362
2.62582
2.62939
2.7002
2.68884
2.69755
2.69476
2.6614
2.6679
2.66996
2.66246
2.66387
2.66706
2.66882
2.6606
2.6607
2.65788
2.66634
2.7941
2.8087
2.71175
2.71666
2.69154
2.7218
2.68747
2.71604
2.7078
2.71861
2.70876
2.76118
2.76487
2.77391
2.77994
2.69252
2.72171
2.68759
2.70898
2.69527
2.70297
2.70435
2.78569
2.80815
2.80688
2.80323
2.80696
2.71045
2.70291
2.69703
2.69626
2.70054
2.70113
2.698
2.75137
2.71485
2.74497
2.72033
2.70707
2.70353
2.70615
2.72602
2.72636
2.70361
2.66089
2.65967
2.67033
2.72045
2.70929
2.71899
2.70854
2.70765
2.70049
2.71133
2.67905
2.66105
2.67516
2.66222
2.6626
2.66481
2.66592
2.63364
2.63842
2.63016
2.62855
2.63595
2.64001
2.63137
2.63423
2.63898
2.61604
2.63264
2.63143
2.63079
2.63017
2.68462
2.66348
2.68225
2.67156
2.68206
2.68239
2.676
2.70646
2.73338
2.73429
2.78299
2.77316
2.79803
2.79409
2.77662
2.73991
2.76541
2.73094
2.7127
2.71846
2.61454
2.61859
2.61589
2.62213
2.62333
2.62257
2.63345
2.64024
2.64284
2.63307
2.63016
2.62008
2.72155
2.71399
2.66313
2.67097
2.66548
2.709
2.69002
2.69013
2.68369
2.69332
2.69064
2.69208
2.70267
2.61562
2.64121
2.67633
2.67764
2.67062
2.66248
2.65018
2.66728
2.71104
2.72607
2.69352
2.71494
2.72002
2.693
2.69613
2.70311
2.71017
2.70166
2.69105
2.68878
2.70513
2.71447
2.6925
2.69851
2.70034
2.69406
2.69342
2.70488
2.73684
2.71554
2.71474
2.71469
2.73441
2.7266
2.7185
2.6898
2.70636
2.70932
2.70962
2.69479
2.69245
2.70731
2.70293
2.73381
2.71039
2.71804
2.70736
2.71535
2.70549
2.73254
2.71584
2.68868
2.70697
2.71886
2.7136
2.70742
2.73457
2.7339
2.77442
2.7433
2.7511
2.75108
2.74709
2.68277
2.70524
2.68407
2.69904
2.68655
2.69124
2.69361
2.69928
2.7006
2.70583
2.70327
2.69452
2.69505
2.70492
2.70614
2.69178
2.69955
2.70168
2.70318
2.69872
2.70491
2.70386
2.72643
2.72906
2.71436
2.7245
2.72737
2.71224
2.69433
2.69467
2.718
2.70789
2.70426
2.69975
2.70886
2.71454
2.701
2.71477
2.70394
2.71271
2.70584
2.71047
2.68336
2.67317
2.70908
2.70189
2.68751
2.68081
2.70503
2.67116
2.674
2.66131
2.66703
2.67745
2.681
2.66027
2.64297
2.65442
2.67637
2.65024
2.64819
2.66906
2.69145
2.68294
2.675
2.69716
2.67986
2.67296
2.64926
2.67532
2.66259
2.66383
2.66274
2.66503
2.64699
2.66765
2.67726
2.68564
2.80765
2.83168
2.80279
2.80706
2.82313
2.7275
2.71425
2.71402
2.71885
2.71089
2.75951
2.7477
2.75446
2.70389
2.73151
2.72704
2.7389
2.74018
2.71218
2.72439
2.72657
2.79712
2.80296
2.78666
2.79981
2.78216
2.77563
2.72255
2.72408
2.76969
2.75988
2.77366
2.78228
2.75316
2.79378
2.76851
2.80496
2.78528
2.79509
2.78801
2.7357
2.74274
2.79323
2.75135
2.7766
2.7535
2.76639
2.7498
2.78039
2.80544
2.80167
2.81309
2.71899
2.70366
2.71819
2.73077
2.71228
2.60809
2.61295
2.67685
2.71477
2.71967
2.68934
2.70827
2.69421
2.72334
2.70388
2.70735
2.68562
2.69967
2.69795
2.7024
2.72356
2.69994
2.72058
2.70297
2.70484
2.71018
2.68041
2.68082
2.66295
2.66555
2.69448
2.68485
2.70056
2.69976
2.69808
2.69211
2.69
2.6625
2.70168
2.68236
2.68976
2.68301
2.69911
2.65322
2.65656
2.6452
2.63919
2.64131
2.63067
2.66044
2.64423
2.64424
2.65508
2.67252
2.65964
2.68709
2.68228
2.67864
2.63607
2.66194
2.65516
2.64091
2.63289
2.652
2.65614
2.65358
2.68144
2.66582
2.60945
2.61717
2.61037
2.6089
2.61592
2.60787
2.6167
2.61101
2.60698
2.60238
2.61058
2.68123
2.70253
2.69434
2.70738
2.69581
2.70098
2.63897
2.63692
2.62762
2.63153
2.63659
2.64278
2.62526
2.69222
2.65696
2.64397
2.64099
2.65894
2.64982
2.65126
2.66643
2.67634
2.66458
2.67844
2.68705
2.68729
2.68051
2.65884
2.63294
2.65742
2.65517
2.64715
2.63969
2.66487
2.67019
2.68379
2.66914
2.68535
2.60746
2.61193
2.61372
2.64409
2.61533
2.62302
2.63537
2.62816
2.61783
2.63143
2.61844
2.62281
2.66585
2.65505
2.6954
2.66872
2.68132
2.67251
2.67571
2.63407
2.62224
2.63982
2.63309
2.63424
2.62902
2.63283
2.61611
2.63216
2.65697
2.63234
2.63314
2.6318
2.6317
2.61684
2.62291
2.62147
2.63038
2.61594
2.61857
2.62559
2.64994
2.64335
2.65046
2.63514
2.65788
2.6525
2.63858
2.60861
2.61772
2.60828
2.61587
2.61634
2.60572
2.60488
2.60672
2.60755
2.61943
2.61233
2.60782
2.61072
2.61464
2.60605
2.63889
2.62091
2.61441
2.62623
2.62015
2.62073
2.62618
2.67176
2.68265
2.70088
2.676
2.69113
2.69195
2.67587
2.65097
2.64372
2.65728
2.65007
2.62241
2.63392
2.65724
2.6494
2.6347
2.63471
2.64564
2.63489
2.64563
2.63998
2.67245
2.65224
2.64334
2.64675
2.66553
2.65976
2.64968
2.69433
2.6905
2.72688
2.71903
2.73101
2.73295
2.75227
2.74105
2.74928
2.80287
2.79287
2.72853
2.69692
2.70465
2.71476
2.70381
2.79062
2.75494
2.75862
2.76948
2.75664
2.76829
2.71227
2.72578
2.72631
2.71691
2.71608
2.73918
2.70952
2.8068
2.7488
2.79058
2.78041
2.76918
2.76402
2.79073
2.72317
2.73713
2.74309
2.74595
2.71682
2.74786
2.63175
2.68302
2.66587
2.64805
2.65376
2.69725
2.69215
2.68745
2.67796
2.67449
2.67463
2.6388
2.6294
2.65696
2.69449
2.64679
2.64568
2.6674
2.66911
2.68392
2.67284
2.68764
2.6765
2.67976
2.68273
2.68704
2.69771
2.68608
2.68919
2.68708
2.69109
2.68848
2.69574
2.68692
2.69235
2.69377
2.68765
2.67261
2.68044
2.67527
2.67051
2.67303
2.68113
2.68798
2.67439
2.68235
2.67677
2.67452
2.67939
2.69351
2.69472
2.68049
2.68814
2.68867
2.68009
2.66987
2.65329
2.66605
2.67457
2.67495
2.67585
2.67245
2.66675
2.67352
2.68849
2.70415
2.68827
2.67913
2.68119
2.66994
2.67605
2.67347
2.67649
2.67822
2.67531
2.67318
2.67348
2.68333
2.69838
2.68958
2.66637
2.67939
2.678
2.63853
2.64573
2.66577
2.65523
2.65007
2.72667
2.71814
2.71651
2.71172
2.68881
2.69227
2.68287
2.69354
2.7059
2.70947
2.68901
2.72664
2.69901
2.71615
2.71495
2.71933
2.71471
2.74292
2.70429
2.71856
2.72463
2.72634
2.73012
2.70299
2.72356
2.73227
2.73882
2.72467
2.72134
2.73418
2.76734
2.7234
2.73631
2.75441
2.73961
2.73511
2.72688
2.74482
2.70914
2.75709
2.77197
2.76986
2.80349
2.76688
2.77309
2.7818
2.77031
2.77767
2.72621
2.70259
2.7217
2.72627
2.73579
2.72386
2.74299
2.7398
2.71625
2.74306
2.7186
2.72197
2.73955
2.77735
2.74952
2.76184
2.77793
2.77792
2.75917
2.75276
2.74653
2.75888
2.76741
2.76697
2.76572
2.73078
2.71509
2.75494
2.74391
2.73395
2.73148
2.753
2.71646
2.7399
2.70068
2.72095
2.71204
2.71978
2.71508
2.74462
2.72473
2.75566
2.73866
2.73803
2.73725
2.76355
2.76394
2.74771
2.75021
2.72777
2.75083
2.73098
2.7263
2.73991
2.76415
2.75105
2.7539
2.76485
2.76053
2.72309
2.75133
2.74496
2.75504
2.74369
2.73773
2.74067
2.70451
2.73009
2.7189
2.72655
2.72271
2.76329
2.79876
2.78115
2.79032
2.77481
2.78202
2.80346
2.75874
2.7757
2.75085
2.7579
2.77273
2.74531
2.74675
2.76814
2.77069
2.78315
2.76194
2.77481
2.76891
2.77467
2.77537
2.75546
2.7624
2.76081
2.70633
2.71097
2.72835
2.71865
2.71603
2.75282
2.71215
2.71883
2.72742
2.72848
2.72265
2.73343
2.7077
2.71265
2.71616
2.72363
2.70006
2.69923
2.72403
2.75687
2.73904
2.74105
2.74306
2.73311
2.70484
2.73768
2.72662
2.73141
2.72518
2.73866
2.71225
2.72091
2.7674
2.73734
2.73164
2.73408
2.73914
2.71251
2.68696
2.69441
2.6897
2.70719
2.69147
2.69179
2.70998
2.70772
2.70308
2.69439
2.70364
2.76108
2.73434
2.77676
2.7562
2.76407
2.75627
2.76503
2.71234
2.69762
2.72468
2.71388
2.70633
2.69871
2.72068
2.713
2.72014
2.75524
2.72609
2.74293
2.73812
2.73168
2.70831
2.69998
2.71756
2.71172
2.70536
2.69863
2.71696
2.72844
2.72872
2.7557
2.7281
2.74821
2.74566
2.73202
2.68468
2.71267
2.69876
2.72522
2.72167
2.71487
2.73495
2.69808
2.67724
2.68053
2.69961
2.698
2.6787
2.69484
2.69783
2.70148
2.69228
2.69231
2.69585
2.73354
2.71163
2.69477
2.70411
2.70249
2.69632
2.70332
2.69788
2.74153
2.76558
2.78973
2.79822
2.79755
2.78675
2.77058
2.77184
2.79179
2.76686
2.73454
2.76693
2.74887
2.73955
2.7422
2.77667
2.76533
2.76464
2.76377
2.7341
2.75877
2.78632
2.76671
2.75641
2.75379
2.76152
2.67095
2.66982
2.67579
2.68018
2.6883
2.68281
2.68487
2.68493
2.6807
2.67393
2.67479
2.68164
2.68529
2.68094
2.69222
2.68272
2.68517
2.68229
2.67813
2.66363
2.66685
2.67221
2.6666
2.66258
2.68267
2.6806
2.6751
2.67748
2.6825
2.66804
2.6577
2.67356
2.68365
2.67263
2.665
2.66579
2.67428
2.67908
2.68287
2.66829
2.67328
2.62
2.62873
2.62352
2.62533
2.61667
2.62745
2.6144
2.63323
2.62464
2.62617
2.68668
2.70476
2.70761
2.67133
2.63992
2.64417
2.62992
2.63806
2.64736
2.64612
2.63361
2.6935
2.66108
2.67591
2.70729
2.68928
2.68805
2.68874
2.69382
2.6884
2.66851
2.69118
2.68057
2.6944
2.68861
2.66545
2.65188
2.67224
2.66075
2.66074
2.6679
2.67425
2.71382
2.70084
2.69095
2.64753
2.64204
2.6248
2.62948
2.63703
2.63684
2.63056
2.62436
2.63684
2.6292
2.63151
2.63597
2.65833
2.66603
2.70759
2.68102
2.67951
2.67858
2.6844
2.64562
2.64907
2.67
2.65233
2.656
2.65108
2.65423
2.64314
2.63406
2.65068
2.6416
2.63773
2.63499
2.64578
2.64689
2.64613
2.63026
2.64303
2.63733
2.64284
2.64101
2.65878
2.67246
2.65495
2.65148
2.66921
2.67124
2.6509
2.67298
2.65821
2.67278
2.66574
2.66964
2.66721
2.67183
2.65309
2.64887
2.67389
2.64865
2.66683
2.67095
2.67404
2.63659
2.64288
2.64698
2.64586
2.64122
2.646
2.65608
2.66102
2.66867
2.65668
2.66832
2.66509
2.65348
2.64215
2.65557
2.64944
2.64496
2.65365
2.6565
2.65345
2.67182
2.65406
2.65779
2.65902
2.65452
2.65903
2.65199
2.66215
2.65699
2.6626
2.66076
2.6623
2.63669
2.63273
2.63745
2.64128
2.63239
2.64169
2.63746
2.62869
2.64464
2.65306
2.64868
2.65792
2.64651
2.6512
2.65122
2.64802
2.64076
2.62784
2.64793
2.63835
2.63574
2.63763
2.64248
2.64386
2.65549
2.64481
2.64894
2.64477
2.64823
2.64294
2.64649
2.6264
2.64608
2.63561
2.63644
2.64095
2.68421
2.71064
2.70214
2.70805
2.68446
2.68389
2.70843
2.66509
2.69819
2.68185
2.67971
2.6938
2.69655
2.66884
2.69774
2.67881
2.67279
2.67456
2.69249
2.68557
2.67761
2.65318
2.6707
2.66337
2.67146
2.65639
2.65563
2.66723
2.66457
2.69561
2.67472
2.67938
2.67129
2.67837
2.66793
2.69142
2.6741
2.64965
2.66732
2.67723
2.67164
2.66574
2.68363
2.69448
2.69207
2.68968
2.75602
2.75037
2.75247
2.75344
2.75011
2.75413
2.74918
2.71605
2.70592
2.71109
2.70781
2.71156
2.70553
2.71278
2.64447
2.64451
2.64061
2.64334
2.64596
2.64469
2.64719
2.77546
2.78319
2.78975
2.60879
2.60959
2.6158
2.72572
2.72477
2.67333
2.66152
2.68325
2.66332
2.67054
2.66392
2.66984
2.61166
2.62652
2.62857
2.62112
2.64225
2.6357
2.62359
2.62311
2.62103
2.62275
2.62237
2.62433
2.62437
2.60302
2.60596
2.60697
2.7719
2.74553
2.68596
2.66366
2.62392
2.63014
2.68588
2.69252
2.68315
2.69103
2.68943
2.69588
2.69125
2.68447
2.65573
2.65786
2.65318
2.65474
2.75664
2.79639
2.74152
2.74189
2.73209
2.74073
2.72329
2.73761
2.72574
2.71024
2.73141
2.71975
2.72643
2.71866
2.72988
2.77905
2.78087
2.78767
2.69444
2.69175
2.70923
2.69437
2.69732
2.69339
2.70144
2.78737
2.80128
2.68978
2.68627
2.69462
2.68687
2.68777
2.69174
2.69068
2.70878
2.72137
2.72551
2.72554
2.71998
2.73107
2.71566
2.72839
2.72474
2.7224
2.72197
2.72802
2.65947
2.66098
2.66636
2.66389
2.66669
2.68381
2.6797
2.68716
2.6783
2.6806
2.6809
2.65089
2.65673
2.64964
2.64976
2.6561
2.65433
2.65609
2.63054
2.63562
2.63424
2.62444
2.62679
2.63303
2.62754
2.62721
2.62664
2.62969
2.69202
2.68657
2.6762
2.68183
2.68635
2.68921
2.68272
2.71426
2.73491
2.73301
2.73186
2.72588
2.73104
2.73071
2.76759
2.76426
2.75061
2.76013
2.7623
2.76243
2.759
2.71011
2.70328
2.68653
2.70166
2.71275
2.64845
2.66854
2.65603
2.65677
2.65277
2.66331
2.66508
2.69926
2.69378
2.69528
2.69946
2.69986
2.70527
2.69459
2.70087
2.70245
2.67676
2.66554
2.67375
2.70072
2.67492
2.67264
2.68499
2.68649
2.68193
2.69953
2.70458
2.69334
2.6906
2.69936
2.68982
2.69228
2.69416
2.69251
2.69028
2.70048
2.70244
2.69338
2.69779
2.69424
2.70148
2.70276
2.69099
2.70363
2.70304
2.70556
2.70035
2.7203
2.71766
2.73793
2.72186
2.72531
2.72326
2.73012
2.72653
2.72174
2.74103
2.73398
2.72528
2.72662
2.73814
2.69147
2.7043
2.69454
2.70025
2.69066
2.70241
2.69173
2.7574
2.74009
2.74126
2.73935
2.74846
2.73993
2.74454
2.6916
2.69116
2.69924
2.69206
2.69349
2.69065
2.69314
2.71154
2.71197
2.72576
2.71568
2.71527
2.71357
2.71697
2.69514
2.701
2.69233
2.69581
2.69875
2.697
2.69387
2.72583
2.71319
2.72304
2.72231
2.71968
2.71976
2.72578
2.71615
2.70846
2.71548
2.71086
2.71775
2.71487
2.71596
2.70311
2.70391
2.69408
2.69514
2.70095
2.70184
2.6927
2.70825
2.69995
2.71014
2.69116
2.70239
2.66473
2.68406
2.68505
2.6768
2.68924
2.68756
2.68212
2.70478
2.67752
2.67003
2.66604
2.673
2.67158
2.65876
2.66581
2.665
2.66707
2.66126
2.66306
2.66396
2.65159
2.65461
2.65497
2.65771
2.65443
2.67915
2.68793
2.8066
2.83129
2.71858
2.72239
2.73311
2.73548
2.71863
2.72337
2.72851
2.74993
2.74931
2.75488
2.75629
2.75509
2.75783
2.74263
2.77067
2.73776
2.73787
2.72396
2.7454
2.74272
2.74491
2.73478
2.73957
2.73956
2.74073
2.7909
2.75688
2.78607
2.75622
2.76893
2.8026
2.79258
2.77524
2.80325
2.74092
2.7721
2.76573
2.75544
2.76216
2.75556
2.81052
2.60674
2.60783
2.62093
2.63116
2.62156
2.62232
2.61902
2.6298
2.64101
2.62029
2.61221
2.61219
2.61153
2.69034
2.7077
2.70457
2.68951
2.71007
2.70411
2.71075
2.70247
2.71239
2.68724
2.69954
2.69874
2.6923
2.69298
2.69833
2.68315
2.70445
2.69622
2.69773
2.69107
2.69415
2.68479
2.69611
2.68562
2.69753
2.68728
2.69339
2.68571
2.69354
2.69241
2.69084
2.69537
2.69298
2.69624
2.69275
2.70407
2.69175
2.68801
2.68968
2.69868
2.69323
2.69267
2.69001
2.68575
2.67699
2.67708
2.6839
2.68317
2.67615
2.6241
2.62298
2.62678
2.6272
2.62255
2.62928
2.66263
2.64894
2.64418
2.64339
2.64424
2.64384
2.64723
2.67044
2.66713
2.64778
2.64289
2.65578
2.66888
2.65665
2.65161
2.65981
2.66025
2.66209
2.65784
2.61034
2.68493
2.68734
2.66792
2.67324
2.68086
2.685
2.67405
2.62263
2.61966
2.63283
2.62565
2.62486
2.6179
2.63253
2.6795
2.67119
2.67398
2.67018
2.67605
2.6737
2.66745
2.67696
2.67057
2.66903
2.67203
2.66779
2.66798
2.65753
2.66062
2.64761
2.66067
2.66026
2.656
2.70011
2.68181
2.68733
2.6836
2.68748
2.6785
2.68884
2.60363
2.61634
2.62582
2.61594
2.61819
2.62134
2.62296
2.61206
2.62272
2.62358
2.6261
2.62233
2.62422
2.61926
2.62475
2.67794
2.66491
2.66176
2.66174
2.67111
2.66491
2.66532
2.63001
2.62795
2.62084
2.62071
2.62663
2.62559
2.62454
2.64956
2.63355
2.64416
2.6379
2.63897
2.63951
2.64077
2.62437
2.62746
2.63455
2.63105
2.63234
2.62958
2.6369
2.63462
2.63049
2.62224
2.62882
2.63064
2.6346
2.62769
2.62028
2.61706
2.61717
2.61669
2.62011
2.61723
2.6176
2.61443
2.60684
2.6131
2.61034
2.61182
2.60736
2.61142
2.61562
2.61086
2.61709
2.61293
2.6097
2.60816
2.61295
2.6193
2.63113
2.62196
2.62157
2.61472
2.62162
2.61644
2.68803
2.67173
2.67512
2.67694
2.67964
2.67795
2.68034
2.63558
2.63811
2.6229
2.62785
2.63201
2.63491
2.62622
2.66362
2.65165
2.66979
2.65686
2.66399
2.65755
2.66836
2.65292
2.65196
2.67075
2.65825
2.6581
2.65594
2.66396
2.63365
2.63778
2.6251
2.63261
2.63306
2.63729
2.62971
2.68211
2.73018
2.71761
2.74233
2.79945
2.8011
2.7934
2.79407
2.79124
2.70438
2.70948
2.7058
2.708
2.70065
2.70643
2.70039
2.72885
2.74464
2.73309
2.74822
2.73709
2.74549
2.73868
2.72856
2.71506
2.72267
2.7204
2.72244
2.74071
2.73976
2.72162
2.74537
2.78703
2.80738
2.79531
2.79099
2.7885
2.81082
2.71771
2.71634
2.78422
2.78806
2.78179
2.7768
2.78284
2.78515
2.73066
2.72442
2.72613
2.7238
2.6342
2.64211
2.64789
2.64848
2.68221
2.66709
2.65652
2.64962
2.68347
2.68661
2.70259
2.68207
2.69207
2.6577
2.66574
2.66745
2.65635
2.63319
2.64596
2.63686
2.64221
2.6427
2.63569
2.63414
2.63549
2.65318
2.65471
2.65088
2.65969
2.658
2.65314
2.66975
2.6639
2.66084
2.68509
2.6816
2.68547
2.68213
2.68858
2.68358
2.68325
2.69764
2.6941
2.69309
2.69524
2.69661
2.69317
2.69508
2.67941
2.67788
2.68193
2.68523
2.68341
2.681
2.68069
2.67803
2.68068
2.68385
2.68697
2.68662
2.68114
2.68059
2.685
2.68256
2.68421
2.68533
2.68668
2.68404
2.65438
2.65329
2.67741
2.67773
2.68085
2.67633
2.67713
2.68167
2.6798
2.67576
2.68408
2.67572
2.66785
2.67667
2.6874
2.67231
2.68074
2.64198
2.64054
2.6514
2.64212
2.66065
2.71045
2.70429
2.70213
2.71076
2.70827
2.71112
2.71095
2.72749
2.70874
2.71649
2.72203
2.72114
2.72013
2.70551
2.70799
2.696
2.70022
2.73234
2.74435
2.74675
2.71436
2.73228
2.71794
2.71554
2.71662
2.71816
2.72404
2.78865
2.74267
2.76038
2.74684
2.76259
2.75166
2.75931
2.75039
2.6972
2.71354
2.69691
2.71001
2.70247
2.71523
2.7027
2.7336
2.74949
2.752
2.74442
2.7409
2.74135
2.74465
2.74587
2.7585
2.75953
2.76303
2.75228
2.75945
2.75736
2.76695
2.7547
2.75412
2.75544
2.76276
2.75439
2.75812
2.75224
2.7479
2.74949
2.74473
2.75376
2.74746
2.74697
2.71659
2.72325
2.73931
2.72378
2.72218
2.7348
2.73976
2.75021
2.75372
2.74456
2.75798
2.75962
2.76065
2.75847
2.76621
2.75919
2.76
2.72652
2.7543
2.75221
2.75057
2.73785
2.74844
2.7493
2.7628
2.74846
2.7539
2.75245
2.7174
2.73209
2.73148
2.73616
2.72411
2.72792
2.72962
2.78064
2.79918
2.7858
2.79391
2.7871
2.76561
2.77463
2.7664
2.77548
2.77034
2.7666
2.76759
2.77523
2.7711
2.79036
2.78227
2.77495
2.75598
2.76596
2.7621
2.7689
2.76005
2.74695
2.76224
2.69613
2.69806
2.70045
2.70835
2.70079
2.70306
2.70072
2.71225
2.7259
2.70529
2.71231
2.71315
2.71965
2.7079
2.73146
2.73518
2.74533
2.73178
2.73551
2.73174
2.73503
2.73325
2.7232
2.72567
2.73236
2.73093
2.72754
2.7287
2.72755
2.71493
2.71535
2.72891
2.72324
2.71397
2.7531
2.73776
2.74894
2.74255
2.75117
2.73957
2.74818
2.73348
2.68628
2.6931
2.69653
2.68452
2.77831
2.76223
2.77568
2.7528
2.77231
2.77653
2.73999
2.71776
2.74904
2.69084
2.69685
2.70015
2.69736
2.69699
2.69721
2.69194
2.75847
2.75307
2.74145
2.74288
2.75361
2.7507
2.74316
2.72021
2.7188
2.70532
2.71892
2.71487
2.71304
2.73823
2.72268
2.72484
2.71807
2.73261
2.72467
2.72704
2.71689
2.7186
2.71992
2.71172
2.71931
2.71425
2.71181
2.73413
2.71659
2.72529
2.7299
2.73032
2.73104
2.68917
2.69781
2.70077
2.72278
2.72575
2.7228
2.7522
2.68023
2.6807
2.68772
2.68729
2.68042
2.68673
2.68216
2.71162
2.70324
2.72828
2.69428
2.69585
2.68935
2.71063
2.71493
2.71382
2.71486
2.77344
2.75903
2.75869
2.74774
2.7654
2.76637
2.75917
2.75525
2.75675
2.75713
2.73894
2.72945
2.7372
2.72715
2.73949
2.72092
2.77892
2.76872
2.77748
2.76411
2.73968
2.73407
2.69031
2.6854
2.68456
2.68486
2.686
2.68687
2.68292
2.66678
2.67243
2.67253
2.66806
2.66912
2.67107
2.67101
2.66668
2.68152
2.67135
2.68248
2.682
2.68272
2.67889
2.68084
2.68483
2.67485
2.68706
2.67452
2.68188
2.6733
2.68223
2.6674
2.67072
2.66812
2.67002
2.66572
2.66758
2.61928
2.61484
2.69248
2.67235
2.64639
2.67372
2.67692
2.65059
2.63737
2.65441
2.64918
2.64833
2.64824
2.65277
2.73032
2.70349
2.71631
2.70462
2.68607
2.70065
2.69535
2.70777
2.69566
2.70192
2.67515
2.68262
2.65789
2.665
2.66818
2.6716
2.66711
2.66558
2.66638
2.66376
2.69185
2.70676
2.70898
2.69693
2.70687
2.70726
2.62774
2.63216
2.62643
2.63076
2.62776
2.63009
2.62553
2.64282
2.64391
2.64064
2.64508
2.64709
2.63841
2.69945
2.68082
2.69207
2.68495
2.69345
2.68604
2.69123
2.65974
2.64998
2.65265
2.65069
2.65441
2.65109
2.65453
2.65061
2.64911
2.64734
2.63644
2.64621
2.64349
2.64024
2.63632
2.64443
2.64545
2.64565
2.63807
2.63899
2.64082
2.65283
2.65059
2.65284
2.65759
2.65226
2.65446
2.65518
2.66833
2.66794
2.66427
2.66333
2.6668
2.66606
2.66126
2.63843
2.64428
2.63843
2.66784
2.66369
2.66648
2.65734
2.66787
2.64526
2.648
2.6474
2.64736
2.64487
2.64732
2.64903
2.66057
2.65373
2.65799
2.65413
2.65469
2.65827
2.6564
2.64943
2.65482
2.6506
2.66205
2.65501
2.65388
2.6521
2.65348
2.65539
2.65458
2.65169
2.65212
2.64656
2.65146
2.65691
2.65372
2.65435
2.62602
2.62844
2.63584
2.6314
2.62669
2.63834
2.64329
2.64263
2.64292
2.64726
2.64506
2.64343
2.64222
2.64149
2.64644
2.64479
2.6444
2.63755
2.64407
2.63866
2.64027
2.63472
2.65385
2.64518
2.65154
2.64544
2.65016
2.64601
2.64896
2.63743
2.64755
2.65222
2.64662
2.64429
2.6458
2.64823
2.69857
2.70574
2.70184
2.69464
2.69892
2.69835
2.69465
2.69184
2.67572
2.68885
2.68894
2.68477
2.68381
2.68827
2.66285
2.66433
2.65503
2.66441
2.66405
2.66637
2.66149
2.67931
2.67832
2.69669
2.68321
2.68484
2.68266
2.68952
2.68802
2.68229
2.70179
2.69493
2.68668
2.68794
2.69911
2.65388
2.66516
2.65725
2.66181
2.65272
2.66272
2.65478
2.73099
2.72985
2.7326
2.72583
2.72373
2.72626
2.73944
2.73704
2.73379
2.7299
2.69264
2.69458
2.69749
2.69735
2.69499
2.72609
2.73717
2.71524
2.77853
2.77928
2.79333
2.78092
2.77764
2.77612
2.78188
2.7449
2.76138
2.74824
2.74746
2.74472
2.74674
2.74395
2.74599
2.74175
2.74153
2.74632
2.74243
2.74217
2.74588
2.76248
2.7469
2.74653
2.74644
2.75509
2.74995
2.74688
2.74609
2.76395
2.76336
2.76953
2.75958
2.76391
2.76011
2.74317
2.74831
2.76071
2.76487
2.75232
2.7505
2.76068
2.76637
2.75015
2.76297
2.75126
2.76272
2.74972
2.75925
2.70553
2.70095
2.70092
2.70035
2.7046
2.70497
2.7076
2.70448
2.70624
2.70348
2.7026
2.69784
2.69691
2.69006
2.6933
2.6946
2.69773
2.6925
2.70453
2.70645
2.70233
2.70345
2.71004
2.70476
2.70468
2.69859
2.70262
2.69672
2.70601
2.70123
2.70346
2.70126
2.7019
2.70922
2.70584
2.70718
2.70646
2.70565
2.70306
2.70133
2.69774
2.6955
2.70282
2.70159
2.69904
2.69806
2.63761
2.63381
2.63289
2.64159
2.64521
2.64337
2.64773
2.64225
2.63096
2.64562
2.63721
2.64576
2.65387
2.64326
2.64832
2.63803
2.64486
2.64571
2.63645
2.64539
2.69766
2.68469
2.68755
2.69725
2.75169
2.76972
2.74913
2.76191
2.75212
2.76828
2.75356
2.75407
2.75629
2.76514
2.76165
2.75994
2.77623
2.80139
2.78213
2.79405
2.79167
2.79149
2.79153
2.78457
2.77134
2.77019
2.75767
2.77065
2.76553
2.76559
2.76125
2.76964
2.76532
2.76563
2.75628
2.76224
2.76528
2.78061
2.7894
2.77959
2.78729
2.78095
2.7927
2.78341
2.74798
2.76258
2.75927
2.71779
2.72209
2.73098
2.7267
2.72576
2.72792
2.70241
2.70555
2.72614
2.72228
2.71514
2.68833
2.70807
2.69742
2.72184
2.61793
2.61636
2.61287
2.61865
2.60637
2.61114
2.61073
2.61695
2.61198
2.61062
2.62006
2.62348
2.61662
2.61641
2.61402
2.60928
2.61418
2.61079
2.61307
2.61745
2.62023
2.61219
2.60204
2.62189
2.71128
2.72425
2.72914
2.69365
2.70562
2.71241
2.70372
2.70078
2.70021
2.70756
2.72563
2.71609
2.72648
2.72036
2.72046
2.719
2.72208
2.72554
2.71682
2.72782
2.72173
2.71407
2.7078
2.71198
2.72067
2.71882
2.71336
2.72137
2.70797
2.71016
2.70729
2.71128
2.71236
2.72362
2.72782
2.72601
2.72137
2.71786
2.72226
2.72245
2.68179
2.67256
2.67093
2.67765
2.67962
2.67548
2.63565
2.64603
2.64286
2.64357
2.63792
2.63202
2.64207
2.63623
2.6336
2.62497
2.62866
2.63028
2.63233
2.62894
2.62633
2.63562
2.63737
2.63385
2.63705
2.63703
2.62289
2.63042
2.62944
2.62242
2.63826
2.60768
2.66577
2.66532
2.67681
2.68245
2.66237
2.67003
2.67372
2.67889
2.6693
2.64418
2.67307
2.66467
2.65599
2.68093
2.6638
2.66111
2.66444
2.66941
2.63714
2.63576
2.64747
2.63841
2.63929
2.63653
2.64131
2.61881
2.62765
2.61929
2.62142
2.62172
2.62153
2.61952
2.62156
2.61882
2.61911
2.6203
2.62206
2.62191
2.62097
2.62842
2.6206
2.62303
2.62076
2.62497
2.62236
2.62545
2.62067
2.63091
2.62884
2.62911
2.62705
2.62953
2.63018
2.62341
2.62255
2.63032
2.6272
2.62263
2.62115
2.62768
2.63002
2.62343
2.62859
2.62181
2.62806
2.62167
2.62835
2.61597
2.61053
2.61879
2.61895
2.61756
2.61662
2.62085
2.6131
2.61388
2.60668
2.61645
2.61376
2.61668
2.61241
2.60963
2.61308
2.61444
2.61719
2.61362
2.61516
2.61189
2.6088
2.60687
2.608
2.60693
2.60888
2.6094
2.6091
2.61595
2.61902
2.61841
2.61669
2.61449
2.61835
2.6164
2.61462