/*--------------------------------*- C++ -*----------------------------------*\
| =========                 |                                                 |
| \\      /  F ield         | OpenFOAM: The Open Source CFD Toolbox           |
|  \\    /   O peration     | Version:  v1612+                                |
|   \\  /    A nd           | Web:      www.OpenFOAM.com                      |
|    \\/     M anipulation  |                                                 |
\*---------------------------------------------------------------------------*/
FoamFile
{
    version     2.0;
    format      ascii;
    class       surfaceScalarField;
    location    "118";
    object      phi;
}
// * * * * * * * * * * * * * * * * * * * * * * * * * * * * * * * * * * * * * //

dimensions      [0 3 -1 0 0 0 0];

internalField   nonuniform List<scalar> 
46184
(
4.73562e-09
-9.46367e-09
4.69946e-09
2.86088e-11
-7.19635e-09
1.25908e-09
7.32852e-09
-1.39122e-09
-4.44955e-09
9.8352e-10
1.12578e-08
-7.79178e-09
-1.4763e-08
1.42754e-08
-3.96196e-09
-3.80913e-09
-6.0429e-09
4.37472e-09
5.47731e-09
-2.58055e-09
-3.16457e-09
5.32864e-09
4.16492e-10
7.50674e-09
4.80008e-09
-8.96075e-09
-3.34608e-09
-3.75748e-09
-4.63079e-09
7.90244e-09
4.85849e-10
-7.72272e-09
4.1359e-09
1.38481e-08
-1.02613e-08
4.50222e-09
1.0194e-09
3.18726e-09
-8.70888e-09
1.47922e-09
-2.39153e-09
8.52281e-10
6.00632e-11
-1.6774e-09
1.20619e-09
8.06659e-10
-3.35459e-10
3.67172e-09
1.49288e-09
-2.78667e-09
-2.37792e-09
-1.39036e-09
1.8602e-10
-8.39041e-09
9.59475e-09
3.92794e-09
-2.63718e-09
-5.36237e-09
4.07176e-09
-3.25904e-09
9.0004e-09
-1.14089e-09
-4.60044e-09
-3.95561e-09
1.6712e-09
5.72423e-09
-3.43987e-09
5.54666e-09
-2.83891e-09
-2.59326e-09
-1.14495e-10
8.4335e-09
-4.66082e-09
-7.53018e-09
6.09096e-09
5.22938e-10
1.81962e-09
3.80303e-09
2.57083e-09
-4.90138e-09
-1.47247e-09
6.69648e-09
-7.12536e-09
6.67157e-10
-2.38277e-10
-1.83142e-09
1.20376e-09
4.88326e-09
-4.2556e-09
-3.74928e-09
5.06592e-09
-1.49053e-09
1.73874e-10
2.92855e-09
3.56882e-09
-8.835e-09
2.33768e-09
-3.71774e-09
1.01149e-08
-7.5119e-09
1.11474e-09
-2.58279e-10
-3.13193e-09
5.47156e-09
-2.08136e-09
4.69879e-09
-4.3021e-09
-5.69945e-09
5.30275e-09
-4.03454e-09
1.04728e-09
3.28856e-09
-3.01279e-10
4.68739e-09
5.44741e-09
-3.59409e-09
-6.54072e-09
2.17881e-09
2.6003e-09
-8.07978e-10
-3.97114e-09
2.5014e-09
3.85326e-09
-1.28228e-09
-5.0724e-09
2.29141e-09
-3.06049e-09
1.26131e-09
-4.92404e-10
-1.34799e-09
-2.56089e-10
-6.96571e-11
6.20634e-10
1.48886e-08
-9.23196e-09
-6.27728e-09
3.02208e-09
-4.15868e-09
3.41972e-09
-2.28313e-09
-3.11425e-09
3.27154e-09
5.50016e-09
-5.65746e-09
-2.04792e-09
2.71589e-09
-7.06745e-10
3.87761e-11
-6.01445e-09
4.10607e-09
1.7055e-09
2.02899e-10
3.51696e-09
6.9843e-09
-1.8052e-09
-8.69604e-09
-2.38951e-09
-2.92026e-09
3.91532e-09
1.39455e-09
4.81003e-09
-1.52524e-09
1.40259e-09
-1.99183e-09
3.55846e-09
1.59567e-09
-3.16229e-09
8.84386e-10
3.52802e-09
-3.96363e-09
-4.48741e-10
3.4451e-09
-2.03477e-09
-2.00173e-09
5.91429e-10
-4.53814e-09
1.37641e-08
-4.8934e-09
-4.33258e-09
9.72523e-10
1.91193e-09
-2.32171e-10
-2.65254e-09
-3.57516e-09
-7.72654e-09
5.44056e-09
5.86111e-09
4.5265e-09
5.64192e-09
-5.51359e-09
-4.65482e-09
2.06494e-09
1.66777e-09
-3.80929e-09
7.6641e-11
4.82729e-09
-5.97835e-09
5.93115e-09
-4.78007e-09
-1.24575e-09
7.48682e-09
-3.268e-09
-2.97301e-09
4.30327e-09
-1.2178e-09
-3.12877e-09
4.33266e-11
2.55384e-09
-2.09574e-09
-2.46105e-09
2.00292e-09
-2.59124e-09
8.28716e-09
-3.53144e-09
-2.16447e-09
3.86779e-09
-1.91075e-09
-2.56685e-09
6.09829e-10
4.95576e-10
1.0309e-08
-6.14951e-09
-4.65507e-09
-1.03143e-08
4.1356e-09
2.06413e-09
4.11462e-09
-3.72759e-09
-2.95266e-09
3.82125e-09
2.85901e-09
-6.09026e-10
6.4452e-09
8.23614e-09
-1.40723e-08
3.02022e-09
-6.06532e-10
-2.27007e-09
-1.43642e-10
1.5023e-09
-7.52733e-09
5.89907e-09
1.25979e-10
-1.18057e-09
2.95837e-09
-1.72696e-09
-5.08712e-11
2.67153e-09
7.86857e-09
-3.47537e-09
-7.06473e-09
-4.95826e-09
-2.81143e-10
1.8862e-09
3.35317e-09
4.52323e-09
-1.86098e-09
-3.90634e-09
1.24409e-09
8.85648e-09
-4.8362e-09
-4.18064e-09
1.60333e-10
2.15288e-09
-3.00806e-09
5.01012e-09
-4.15495e-09
-1.13627e-08
5.66829e-09
5.69125e-09
3.21866e-12
-5.76871e-10
-6.17019e-09
2.81467e-09
3.9324e-09
4.3496e-09
-5.86083e-09
1.40415e-09
1.07108e-10
1.06741e-09
-4.26387e-09
-2.07903e-09
-6.07245e-09
6.68481e-09
-1.41099e-09
7.98604e-10
-2.25608e-09
2.47231e-09
-3.95387e-11
-1.76759e-10
4.36253e-09
-7.32425e-09
3.5316e-10
2.60859e-09
-1.13873e-08
2.40611e-10
5.409e-09
5.73776e-09
2.75502e-09
-8.77942e-09
8.73075e-09
-2.70634e-09
1.11059e-09
-3.05691e-09
-1.71029e-09
3.6566e-09
1.94092e-09
6.1604e-10
-2.37805e-09
-1.78946e-10
6.06571e-09
-2.4201e-09
-2.14161e-10
3.91485e-09
-7.82555e-10
2.93342e-09
-2.68669e-09
8.51508e-09
-6.17403e-09
3.45637e-10
6.09612e-10
-4.22551e-09
3.60874e-09
7.19484e-12
-2.48641e-09
-2.95993e-09
2.90993e-09
2.53638e-09
-3.48779e-10
4.1589e-09
-3.63126e-09
-1.78866e-10
4.9237e-09
5.20984e-09
-4.20603e-09
-5.9275e-09
8.22614e-09
-2.99729e-09
2.36267e-10
-5.46511e-09
7.96339e-09
-2.8295e-09
-1.65279e-09
-3.4811e-09
5.84512e-09
-4.67985e-09
3.37046e-10
4.28076e-09
6.92833e-09
-2.19838e-09
-9.01068e-09
1.19322e-09
-6.01659e-09
2.40929e-09
2.41417e-09
4.92927e-09
-9.44793e-09
2.12918e-09
4.8811e-09
-5.04186e-09
-3.43917e-09
3.59993e-09
4.49786e-09
-8.67567e-09
2.86081e-09
1.31704e-09
1.73486e-09
-5.9478e-09
1.02669e-09
3.18621e-09
2.93831e-09
-2.7969e-09
7.15881e-09
-7.30021e-09
-3.59521e-09
1.79881e-09
4.79925e-09
-3.00285e-09
3.73425e-09
-4.22386e-09
6.57722e-10
-1.68094e-10
-2.98705e-09
9.37417e-10
2.45289e-09
-4.03255e-10
2.21132e-09
1.70957e-09
-1.72159e-09
-2.19933e-09
-1.02704e-08
3.0885e-09
1.18887e-08
-4.70679e-09
-6.15548e-09
5.21246e-09
4.36013e-09
-3.4171e-09
3.60983e-09
7.42154e-10
-5.01095e-09
5.35833e-09
3.38349e-09
4.23132e-09
1.21155e-09
-4.79786e-10
-4.96305e-09
-2.45307e-09
-4.31066e-10
3.07741e-09
-1.93279e-10
7.24725e-09
4.70308e-09
-7.22481e-09
-4.72551e-09
-2.11217e-09
6.65263e-09
-4.64039e-09
9.99383e-11
-4.69287e-09
4.4622e-10
-2.88429e-09
7.13096e-09
6.98073e-09
-2.427e-10
-1.3849e-08
7.11103e-09
2.03538e-09
-7.0603e-09
4.97785e-09
4.70955e-11
1.50833e-09
-6.03828e-09
-2.8824e-09
7.41235e-09
1.11318e-09
3.60894e-09
-7.10204e-09
2.37993e-09
-2.49656e-09
5.75478e-09
3.55586e-10
-3.61378e-09
-4.54131e-09
6.94674e-10
-5.30882e-09
9.15548e-09
1.40918e-09
3.97493e-09
-2.42585e-09
-2.95824e-09
-8.85833e-09
9.20948e-09
-5.04239e-09
4.69125e-09
8.58809e-09
-4.34969e-09
4.23703e-11
3.9435e-09
-4.30796e-09
-8.62698e-09
8.99147e-09
5.47342e-09
2.10283e-09
-7.46566e-09
-1.10572e-10
-1.62834e-09
-1.44367e-09
-3.02773e-09
6.09982e-09
8.3256e-09
-3.48246e-09
-5.4685e-09
6.25392e-10
2.1622e-09
8.41127e-10
-2.8793e-09
-1.24019e-10
3.51097e-09
2.01447e-09
-6.70966e-09
1.18426e-09
3.67764e-09
1.91512e-09
5.47992e-09
-1.10727e-08
-3.81108e-09
-3.11678e-09
6.78949e-09
1.38404e-10
-3.59729e-09
1.15722e-09
1.49887e-10
2.29015e-09
-6.2085e-09
3.10235e-09
6.7255e-10
2.43361e-09
-4.97088e-09
-4.96456e-09
6.61431e-09
3.32115e-09
-3.64573e-09
1.19663e-08
-1.04637e-08
2.14313e-09
4.52867e-09
-9.34543e-09
4.93148e-09
-1.14715e-10
-2.94994e-09
4.8572e-09
-1.75712e-09
-1.50154e-10
-4.5266e-09
1.85737e-09
-2.80738e-10
3.57355e-09
3.26629e-09
-3.23001e-09
4.64765e-09
-9.8874e-10
-8.00098e-09
4.34208e-09
6.63299e-09
-5.46049e-09
-4.19126e-09
3.01876e-09
-2.19897e-09
2.83754e-10
2.09166e-09
-1.76441e-10
3.50717e-09
2.68651e-09
-6.99222e-09
7.98554e-10
3.43754e-09
-1.05307e-08
5.34495e-09
1.74819e-09
-2.70599e-09
-1.59752e-09
6.20428e-09
-1.90079e-09
-3.45802e-09
1.48518e-09
-3.27067e-10
2.29989e-09
-5.91123e-09
-1.58551e-10
2.91627e-09
3.15351e-09
3.92803e-09
-2.49707e-09
-4.13295e-09
2.70201e-09
-1.22096e-09
3.777e-09
1.37198e-09
-3.83703e-09
9.13566e-09
-6.42868e-09
1.13008e-09
2.83296e-09
-5.78516e-09
3.26632e-09
-3.14149e-10
-3.81643e-09
-4.55554e-09
-7.95224e-10
9.1672e-09
3.26384e-09
3.26862e-09
-6.53765e-09
5.23826e-12
-1.74108e-09
-1.65884e-09
2.00517e-10
6.01827e-09
-5.32134e-09
-4.2774e-09
3.58048e-09
-9.92993e-09
8.03046e-09
2.9058e-09
-1.00633e-09
6.7438e-09
-1.75594e-09
-7.90806e-09
-3.57152e-09
-6.48691e-09
6.37471e-09
3.68373e-09
-9.69543e-09
-1.5753e-09
4.60068e-09
6.67006e-09
4.67631e-09
3.27879e-09
-7.87312e-09
-8.19841e-11
-6.78398e-09
-1.29656e-09
1.29079e-08
-2.55896e-09
6.74437e-09
-4.41764e-09
2.32232e-10
4.45691e-09
-1.29191e-08
2.32394e-09
6.13823e-09
5.58893e-09
1.13671e-09
-4.46992e-09
-2.25574e-09
2.8521e-09
-1.67611e-09
-1.06741e-09
-1.08582e-10
2.18188e-09
5.21382e-09
-5.13499e-09
-2.26071e-09
8.15626e-09
-3.20885e-09
-1.28616e-09
-3.66124e-09
-3.11655e-09
4.06495e-09
-6.11516e-10
-3.36903e-10
4.54875e-09
9.78679e-10
-1.09043e-09
-4.43701e-09
6.70483e-10
-4.37386e-09
2.37363e-09
1.32973e-09
-3.64452e-09
3.52738e-09
3.50673e-10
-2.33559e-10
-5.68265e-10
-6.71158e-10
1.30637e-09
-6.69791e-11
-8.50166e-10
-8.18354e-10
1.72435e-09
-5.58248e-11
1.49211e-09
-7.01144e-10
-7.31115e-10
-5.98453e-11
-1.90758e-09
-8.35852e-10
2.73962e-09
3.78534e-12
-5.2709e-09
8.66178e-09
-3.67343e-09
2.82578e-10
7.83967e-09
-3.63688e-09
-4.47018e-09
2.67403e-10
3.05232e-09
-1.17813e-09
1.90754e-10
-4.20562e-09
-1.98917e-09
-5.49847e-09
1.16933e-08
1.7414e-09
-8.72771e-09
6.94947e-09
3.68212e-11
-3.93602e-09
-4.94267e-09
8.44935e-09
4.29348e-10
-5.75406e-09
7.65983e-09
-5.46943e-09
3.56369e-09
7.79474e-10
-1.57539e-09
2.91701e-09
-2.12112e-09
-1.63914e-09
-3.64798e-09
-4.52807e-10
5.73992e-09
4.88381e-10
-5.17225e-10
9.52629e-10
-9.23786e-10
4.04935e-09
-1.65731e-09
3.16562e-09
-5.55764e-09
-1.86102e-09
-3.89713e-09
3.66886e-09
2.08931e-09
-2.10193e-09
-4.74803e-09
2.91396e-09
-7.05609e-09
3.36299e-09
3.58023e-09
1.12872e-10
2.75396e-09
2.18113e-09
-1.80053e-09
-3.13458e-09
1.11136e-08
-7.97222e-09
4.47549e-09
-7.61682e-09
3.33744e-09
-8.51253e-09
-3.30383e-09
-6.3121e-09
1.03488e-08
-8.59573e-09
4.55908e-09
-4.35504e-09
5.51089e-10
3.80364e-09
3.24299e-13
-2.05671e-09
4.55444e-09
-2.72278e-09
2.2508e-10
-2.67928e-09
-4.26379e-09
8.42735e-09
-1.48428e-09
3.06171e-09
-2.48581e-10
-2.58626e-09
-2.26875e-10
-4.15637e-09
1.31061e-09
2.18972e-09
6.55955e-10
-3.83114e-09
-2.08654e-09
2.59102e-09
3.32668e-09
-2.14653e-09
-2.40528e-09
4.24641e-09
3.05394e-10
-9.74066e-09
-4.62673e-10
6.11032e-09
4.09303e-09
3.73934e-09
6.52082e-09
-4.24187e-09
2.11798e-09
3.67665e-09
-5.82235e-09
2.77333e-11
-5.20202e-09
5.02476e-09
-5.05765e-09
5.23494e-09
-5.319e-09
-1.16943e-10
2.33946e-10
5.65081e-09
1.65582e-09
6.5676e-10
-9.72976e-10
7.03346e-09
-2.48693e-09
1.77464e-09
3.21689e-09
-2.73893e-09
-2.25255e-09
-1.44858e-09
2.50791e-09
3.81424e-09
-4.87354e-09
1.56991e-09
4.29716e-09
-2.98936e-09
-2.8777e-09
-3.6312e-09
-2.87229e-09
4.89068e-10
4.10261e-09
7.37622e-10
-1.34026e-09
-3.49995e-09
1.11794e-09
3.43981e-09
-4.41432e-09
-1.43424e-10
5.00023e-10
3.71784e-09
-4.24233e-09
2.44683e-11
-5.03092e-09
1.04499e-09
3.89139e-09
9.45452e-11
1.37972e-09
2.46272e-09
-3.55429e-09
-2.88182e-10
3.24524e-10
4.25134e-09
1.81583e-09
-6.39173e-09
-2.11434e-09
3.54341e-09
-4.93496e-11
8.36108e-09
1.55296e-09
-3.2683e-09
-6.6457e-09
5.07825e-09
-2.23863e-09
1.3917e-09
4.93613e-09
-1.91934e-09
-2.87923e-09
-1.37565e-10
-2.44417e-09
3.22088e-09
-6.88343e-10
-8.84028e-11
3.73473e-09
-2.42285e-09
-4.2531e-09
2.94122e-09
6.35311e-09
-5.5953e-09
2.73468e-09
-3.49245e-09
-4.74862e-09
3.69129e-09
8.53525e-09
-7.47789e-09
-1.48441e-09
-2.1065e-09
3.64983e-10
7.3189e-09
3.27325e-09
-1.23645e-08
1.77232e-09
3.10602e-09
-6.82236e-09
3.59365e-09
1.22715e-10
-5.11299e-09
2.81098e-09
7.13037e-09
-4.82833e-09
2.66867e-09
-6.74338e-09
1.05077e-08
-6.43294e-09
-5.37483e-10
-3.71316e-09
8.29656e-09
-4.04589e-09
-5.95517e-09
1.14782e-08
-6.06054e-09
-4.99542e-09
5.31634e-09
2.51417e-09
-2.83506e-09
-2.07627e-09
-1.83185e-10
-9.55055e-12
2.26899e-09
3.63246e-09
-1.72022e-09
3.63442e-09
-2.53397e-09
1.32245e-09
3.82509e-09
-2.61357e-09
1.63734e-09
7.74108e-10
-2.81759e-09
4.06113e-10
-1.84073e-09
7.55948e-09
3.23725e-09
-8.95599e-09
3.93706e-09
3.17859e-09
-6.97884e-09
-1.36823e-10
4.34908e-09
1.10097e-09
-3.8599e-09
-1.5902e-09
-4.50902e-09
6.31676e-09
-2.34075e-09
5.33001e-10
-5.43779e-09
7.31718e-09
5.10135e-09
-3.06638e-09
-1.73326e-10
1.06554e-09
-2.19808e-09
-3.82568e-09
2.55528e-09
-4.55545e-09
-1.20349e-09
3.20364e-09
-6.77556e-09
4.17003e-09
-1.98306e-09
4.5886e-09
-4.07331e-09
-1.86724e-09
5.02761e-10
-1.18173e-09
-1.23554e-09
-1.16712e-10
8.79094e-10
-3.1196e-10
-4.76768e-09
-5.28178e-09
-5.36079e-09
1.54103e-08
-2.83249e-09
1.7082e-09
1.11217e-09
1.21878e-11
3.87534e-09
-6.97059e-09
2.46599e-09
6.29253e-10
2.57137e-10
1.95726e-09
2.87585e-09
-5.09026e-09
2.37147e-09
1.14456e-09
-3.27881e-09
-2.37198e-10
1.31315e-09
-3.12474e-09
-6.32564e-10
-3.55873e-09
-2.6545e-09
5.82169e-09
3.91552e-10
-5.76573e-09
1.50638e-09
4.55189e-09
-2.92552e-10
-2.59805e-09
-2.09889e-09
4.75813e-09
-6.11989e-11
-5.71016e-09
2.26509e-10
-1.44997e-09
2.58942e-10
-2.36825e-09
3.60143e-09
7.30549e-09
-2.38568e-09
-4.02907e-09
-8.90749e-10
4.0143e-09
1.73811e-09
-5.92051e-09
1.68168e-10
5.53606e-09
6.48025e-09
-8.0921e-09
-3.9242e-09
2.52326e-09
9.84593e-10
-3.48465e-09
-2.31804e-11
3.24412e-09
-1.33267e-09
2.33424e-09
-4.24569e-09
4.02068e-09
-4.0529e-09
3.11525e-10
-2.7931e-10
5.84407e-09
1.85139e-09
-3.61187e-09
-4.08358e-09
-2.58231e-09
5.94484e-09
-1.02045e-08
6.84195e-09
-8.47843e-09
2.64528e-09
-2.00362e-09
7.83673e-09
3.80419e-09
-5.08861e-09
1.49309e-09
-2.08667e-10
-4.98403e-10
-6.04991e-09
1.12933e-08
-4.74498e-09
3.65778e-09
-9.09361e-09
1.67651e-09
3.75934e-09
-4.92523e-09
-2.7814e-09
2.88097e-09
4.82567e-09
4.12236e-10
-3.45477e-09
2.8893e-09
1.5327e-10
5.14806e-09
-5.52912e-09
7.93309e-10
-5.91314e-10
-4.08231e-09
9.76896e-09
-5.09529e-09
2.69089e-09
8.14576e-09
-6.51899e-09
-4.31764e-09
2.79458e-09
-6.80367e-09
3.82631e-09
1.82818e-10
-4.62757e-09
2.55765e-09
-1.04073e-09
3.11066e-09
5.12015e-09
-2.98064e-09
-2.98967e-09
1.80552e-09
-1.45568e-10
-2.32779e-09
6.67749e-10
-2.16614e-09
5.12528e-09
-2.79805e-09
-1.61125e-10
-2.89159e-09
-5.37866e-09
6.07127e-09
-1.9195e-09
-3.99218e-09
1.77719e-09
4.13448e-09
1.86778e-09
1.78339e-09
-6.13519e-10
-3.03767e-09
1.53856e-09
-2.87144e-09
1.63256e-09
-2.9971e-10
1.10596e-09
-2.78102e-09
2.0014e-09
-3.26369e-10
2.31209e-09
-1.19406e-09
-9.15923e-10
-2.02124e-10
1.1523e-09
-2.06316e-09
1.49891e-09
-5.88088e-10
-5.87149e-09
4.15342e-10
4e-09
1.45615e-09
3.03634e-09
-3.94081e-10
-1.79588e-10
-7.98108e-09
4.99761e-09
8.06667e-10
2.17685e-09
4.59224e-09
-2.6945e-09
-2.07574e-09
1.77997e-10
3.5237e-09
8.15638e-09
-1.00123e-08
9.25932e-09
-9.16597e-09
-2.28631e-09
2.19298e-09
3.39839e-09
-2.06135e-09
-1.74282e-09
4.05785e-10
2.67628e-09
1.80061e-09
-5.18851e-09
7.11617e-10
-2.43897e-09
1.41686e-09
1.21038e-09
-1.88334e-10
-3.07926e-09
2.75941e-09
5.6997e-10
-2.50122e-10
1.75138e-09
2.05983e-09
-6.89045e-09
3.65477e-09
-5.94126e-09
2.30997e-09
-2.34751e-11
-6.81479e-09
3.68682e-09
4.61768e-09
-1.4897e-09
4.50062e-09
-9.30883e-09
5.87671e-09
-1.06851e-09
-3.12758e-09
5.77491e-10
2.75337e-09
-2.03288e-10
-2.21198e-09
-3.63573e-10
2.5394e-09
3.61526e-11
3.36881e-09
-3.48093e-09
3.04175e-09
-2.92964e-09
6.36162e-10
-2.59239e-09
-2.5575e-10
-3.91291e-09
1.09366e-09
3.09766e-09
-2.7843e-10
-3.61697e-09
6.5453e-10
-1.97121e-09
4.93367e-09
4.36041e-09
-2.31355e-09
4.32728e-09
-6.37412e-09
-7.20797e-09
-2.58273e-09
1.43786e-09
8.35285e-09
1.77175e-09
2.88659e-09
-1.5947e-09
-3.06364e-09
-4.66766e-09
1.36758e-10
2.98415e-09
2.79134e-09
-5.62346e-09
-1.5201e-10
4.03965e-09
-5.51392e-09
7.10609e-09
-5.63182e-09
-1.09887e-08
6.98416e-09
-2.89784e-09
1.20952e-09
-6.47345e-09
-7.83364e-10
6.04732e-09
-5.51957e-09
4.90091e-09
3.42426e-10
2.76229e-10
-1.27832e-08
7.12189e-09
9.81877e-09
-4.15738e-09
-3.79866e-09
-7.83828e-09
1.1487e-08
1.49919e-10
1.30491e-09
-9.481e-09
3.21846e-09
4.95765e-09
-7.10476e-09
2.23962e-09
-6.18655e-09
-8.28519e-09
-2.44942e-09
1.0061e-09
3.63438e-09
-8.80407e-10
-3.76005e-09
-3.29729e-09
7.8175e-09
5.04563e-10
-2.00538e-09
-4.25254e-09
6.82407e-10
5.5755e-09
-3.05446e-09
-3.57973e-10
-2.7478e-09
6.16026e-09
2.89189e-09
-4.19276e-09
-5.97193e-09
4.71792e-10
2.04914e-09
-2.12952e-09
-3.91396e-10
1.65499e-09
-1.67496e-09
-2.65781e-09
2.67777e-09
1.70752e-09
1.62757e-09
5.18735e-10
-3.85378e-09
-1.48857e-10
-4.02742e-09
-3.42262e-09
7.59886e-09
3.89295e-09
-4.22742e-09
-4.39892e-09
4.73339e-09
2.89789e-09
6.38681e-09
-3.4197e-09
-5.86499e-09
-5.15564e-09
2.59761e-09
2.47817e-09
7.98785e-11
-2.69854e-09
-2.7435e-10
-1.50371e-10
-3.20338e-09
3.65261e-09
-7.98015e-10
2.3225e-09
-3.15904e-09
1.03866e-09
-2.02112e-10
2.64157e-09
-6.61976e-10
-4.38733e-09
2.40774e-09
2.72893e-09
-4.20825e-09
1.54605e-09
-6.67223e-11
-6.72429e-09
4.67681e-09
-6.46928e-11
1.8701e-09
-2.08478e-09
2.52374e-10
-3.76717e-11
4.64565e-09
-6.48807e-09
8.14964e-09
-6.30723e-09
6.67625e-09
-3.79827e-09
-3.22737e-09
3.49385e-10
-6.07339e-10
-9.85719e-10
4.73662e-09
-3.14356e-09
-4.95753e-09
2.7019e-10
-8.13193e-09
9.26974e-09
-4.22597e-09
3.08817e-09
8.19373e-10
-5.85837e-09
1.93083e-09
3.1082e-09
1.87199e-09
-5.98376e-09
5.70159e-09
-1.58988e-09
3.14201e-09
-1.37058e-09
-2.16067e-09
3.89222e-10
-1.95775e-09
-1.51107e-09
3.14387e-09
3.24877e-10
4.08951e-09
-4.37687e-09
-5.59201e-09
5.87938e-09
-2.79967e-09
-2.93932e-10
5.73e-09
-2.63643e-09
2.06819e-09
-1.74823e-09
4.47144e-09
-4.79136e-09
2.68214e-09
-1.75475e-09
3.71821e-09
4.57103e-09
-3.39669e-09
-6.09608e-09
4.92175e-09
4.08178e-09
-5.74772e-10
-3.6863e-09
1.79297e-10
3.02908e-09
-6.30169e-09
-3.97603e-09
7.24865e-09
8.35788e-09
-3.93869e-10
-3.8745e-09
-2.32734e-09
8.1554e-09
2.47167e-09
-8.29971e-09
3.15018e-09
5.85064e-09
-3.53433e-09
-5.46646e-09
5.99023e-09
3.75065e-09
-4.92905e-09
-4.81181e-09
3.4179e-09
-5.73668e-09
2.09038e-09
2.28458e-10
2.6203e-09
-3.34405e-09
4.4014e-09
4.42686e-10
7.65491e-09
-4.03873e-09
-4.05881e-09
4.63314e-09
5.29535e-10
-9.95848e-09
4.79586e-09
6.4438e-09
-2.38728e-09
2.62637e-09
-6.68287e-09
-3.68585e-09
5.92609e-09
-2.21816e-09
-2.20405e-11
6.13878e-09
-2.22372e-09
-4.40981e-09
4.94774e-10
3.82238e-09
-5.09889e-09
1.60326e-09
-3.26786e-10
2.65707e-09
2.307e-09
3.1717e-09
-3.15665e-09
-6.2863e-09
6.27128e-09
4.27222e-09
-6.40779e-09
5.94014e-09
-3.80457e-09
-2.22108e-11
-6.40668e-09
6.07309e-09
3.55777e-10
4.85602e-09
-5.15849e-09
2.8027e-10
1.19894e-09
-1.92139e-10
-4.21021e-09
-3.22285e-09
-4.06675e-10
3.47017e-09
1.59375e-10
-4.90083e-09
1.59341e-09
3.62386e-09
-3.16441e-10
2.80295e-09
2.53621e-09
-4.92366e-09
-4.15495e-10
7.46647e-09
1.12388e-09
-1.49024e-08
4.06616e-09
-1.87128e-09
-2.58765e-09
3.92763e-10
-3.24619e-09
2.02063e-09
1.41835e-09
-1.92786e-10
4.41892e-09
4.16564e-09
-9.30165e-09
7.17131e-10
6.51877e-09
1.32583e-09
-4.67287e-09
3.27565e-09
2.50261e-09
-5.25254e-09
-5.25735e-10
-5.40178e-09
3.13728e-09
2.58035e-09
-3.15863e-10
2.23834e-09
2.69794e-09
-4.58264e-09
-3.53646e-10
6.60008e-09
5.77264e-10
-3.31235e-09
-3.86495e-09
3.72672e-09
-2.28103e-09
-2.20578e-09
7.6011e-10
7.26759e-10
-3.61358e-09
4.23311e-09
-1.3463e-09
-9.59496e-09
-3.64805e-09
6.96402e-09
6.27899e-09
1.05475e-09
-2.52984e-09
4.71918e-09
3.40752e-09
3.68736e-09
-7.2103e-09
1.15433e-10
-3.37776e-11
3.79902e-09
4.50871e-09
-8.27395e-09
4.12823e-09
4.23736e-09
-7.75004e-09
-6.15552e-10
-5.50081e-09
3.09316e-09
3.03163e-09
-6.2397e-10
-8.12924e-09
7.74625e-09
3.51035e-09
-3.12733e-09
4.55142e-09
3.836e-09
4.31524e-10
-8.81894e-09
-6.98493e-10
2.33609e-09
-1.75547e-09
1.17886e-10
-4.61433e-09
6.83852e-10
7.96848e-09
-4.03799e-09
7.10617e-09
7.13084e-11
-3.07488e-09
3.20974e-09
-2.60454e-09
1.32435e-10
-4.15422e-09
-4.0701e-10
1.73043e-09
-2.28568e-09
-1.16612e-09
6.41317e-09
-2.96138e-09
2.20923e-09
2.21089e-09
-3.88316e-09
-5.37048e-10
-1.2191e-09
-3.22341e-09
4.68315e-09
-2.40638e-10
-1.13001e-09
-1.56316e-09
2.92438e-09
-2.31245e-10
-2.73944e-09
1.92174e-09
-3.12349e-10
2.66099e-09
3.0079e-10
-6.86789e-10
-2.27506e-09
2.5428e-09
-6.70776e-10
-3.99199e-09
2.11994e-09
-4.41236e-09
2.2733e-09
-5.66946e-10
6.86645e-09
5.626e-09
-9.75738e-09
-2.73507e-09
3.08978e-09
-5.71162e-09
2.66499e-09
-4.31332e-11
-4.01489e-09
3.13692e-09
1.22059e-09
-3.42603e-10
5.63659e-09
-2.97204e-09
3.07654e-09
-5.74108e-09
-5.23257e-09
-1.12815e-09
1.2866e-09
5.07413e-09
4.60659e-09
-9.2402e-10
-4.13024e-09
4.47666e-10
1.59585e-09
-2.54625e-09
-2.7056e-10
8.24188e-10
-8.41288e-10
2.22841e-09
-1.35049e-09
2.56038e-09
-1.03929e-10
-5.23706e-09
2.04298e-09
-2.31897e-09
5.51308e-09
1.21209e-09
-8.23821e-09
1.78908e-09
2.14188e-10
-5.65827e-09
5.19683e-09
2.47247e-10
-4.75258e-09
5.14335e-09
3.47271e-09
-3.86346e-09
4.96304e-09
-4.96514e-09
-1.63706e-09
-4.52528e-09
2.54697e-09
2.43606e-09
-4.57753e-10
-4.27238e-09
3.3409e-09
-2.27531e-09
3.2068e-09
-1.19844e-09
-8.23154e-10
2.13748e-09
-1.1588e-10
-2.84133e-09
-2.41846e-09
4.06136e-09
-1.56894e-09
4.238e-09
-2.60445e-09
-6.46266e-11
8.34922e-09
-4.22316e-09
-4.37114e-09
2.45072e-10
3.78709e-09
-2.18462e-10
-9.7241e-09
-2.43057e-09
2.76888e-09
1.60621e-09
-1.94451e-09
-7.78947e-09
-3.58409e-09
1.67813e-09
5.78496e-10
2.79029e-09
-3.49997e-09
1.31163e-10
6.98033e-09
7.59369e-10
5.50212e-10
-8.28988e-09
3.17669e-09
-1.13761e-09
-2.34562e-09
3.06543e-10
-2.03619e-09
5.61795e-09
3.39857e-09
3.26161e-09
-1.57283e-09
-1.50243e-10
1.91436e-09
5.16295e-09
-3.14455e-09
-3.93275e-09
6.3216e-09
-3.00689e-09
-3.52895e-09
2.14266e-10
-6.38831e-09
-8.11392e-11
2.97553e-09
3.49394e-09
-8.48527e-09
-1.70171e-09
1.08086e-08
-1.22478e-08
-3.07237e-09
4.51163e-09
-3.54441e-09
4.2603e-09
-6.92688e-09
6.21103e-09
-5.87966e-09
-3.64863e-09
1.01489e-08
4.19386e-09
3.12583e-09
-6.11184e-09
-1.20781e-09
1.80159e-10
1.57936e-09
-5.1992e-11
-7.64408e-09
6.0059e-09
3.99069e-09
-2.35249e-09
4.08139e-09
-4.2506e-09
7.02265e-10
-5.33067e-10
-5.04121e-09
2.97178e-09
2.34887e-09
-2.79472e-10
-3.38716e-09
-3.24396e-09
-1.87761e-10
2.29333e-09
-5.49814e-10
-1.67922e-09
-6.43221e-11
-5.7397e-10
1.39676e-09
-7.81037e-10
-4.18272e-11
2.12371e-09
3.42065e-09
-5.20546e-09
-3.38882e-10
7.96886e-09
-3.35624e-09
-4.88796e-09
2.75344e-10
3.07508e-09
2.38729e-09
1.26345e-09
-6.72582e-09
-5.00627e-09
4.15209e-10
2.47575e-09
-8.07052e-10
-1.94684e-09
2.78145e-10
1.97939e-09
-3.25349e-09
-2.94872e-10
1.55907e-09
-4.03378e-09
4.45409e-09
3.64166e-09
-2.22327e-09
-1.52204e-09
1.03667e-10
-3.20197e-09
3.87361e-09
-3.3509e-09
3.83783e-09
-3.87843e-09
2.33201e-09
1.77938e-09
-2.05964e-10
-1.5167e-09
-5.67216e-11
-3.61438e-09
-4.79e-09
-3.74095e-09
5.20738e-09
-1.73497e-09
2.68549e-10
4.11774e-09
-3.71835e-09
8.14824e-09
-8.54761e-09
-1.20275e-09
4.68539e-09
2.35216e-10
-7.76985e-10
2.70223e-09
-3.54897e-09
1.62373e-09
4.47829e-09
9.15267e-09
-6.45636e-09
-7.17459e-09
-5.13746e-09
2.49304e-09
2.58551e-09
5.89457e-11
1.7688e-09
-8.73948e-10
-8.67246e-10
-2.7629e-11
8.49265e-09
-7.86507e-09
-1.10453e-11
-6.16535e-10
-5.82911e-09
-1.55637e-09
3.34592e-09
-2.00489e-09
2.15316e-10
-5.71628e-10
1.29817e-09
1.56677e-09
-2.128e-09
-1.18898e-09
3.27942e-09
3.75741e-11
1.43571e-10
-4.43646e-10
2.42986e-09
-2.12982e-09
4.6415e-09
2.52209e-09
2.6054e-09
-9.76899e-09
5.35995e-09
-1.7934e-09
2.37643e-10
-7.89832e-09
6.08434e-09
7.17393e-09
-2.65715e-09
-4.67984e-10
-2.4477e-12
-2.03181e-09
-6.10991e-10
2.73353e-09
-9.07494e-11
1.02196e-09
2.01352e-09
-2.80784e-09
-2.27632e-10
2.03963e-09
-2.99765e-09
1.72969e-09
-7.71678e-10
1.87499e-09
-4.45632e-09
3.02379e-09
-4.42469e-10
-1.38957e-09
3.12957e-09
-1.44152e-10
1.59879e-09
-1.61883e-09
9.58084e-10
-9.38046e-10
-3.65796e-09
-2.15827e-09
5.26799e-09
5.48232e-10
3.76847e-09
3.39782e-09
-2.24256e-09
-2.56801e-09
-2.39648e-09
4.7714e-09
1.93111e-10
-1.94104e-09
-1.14719e-09
3.3779e-11
-1.0898e-08
1.06858e-08
-1.89363e-09
2.10593e-09
1.09746e-09
2.52175e-09
-3.73898e-09
1.19789e-10
8.62441e-10
1.89056e-09
3.94346e-09
-3.90679e-09
-2.57265e-09
-1.99902e-09
-4.60806e-09
6.26613e-09
3.77322e-10
2.33025e-09
-7.63237e-09
7.24195e-09
-1.93979e-09
-1.55414e-09
-2.43617e-09
4.10769e-09
-1.17387e-10
6.53994e-09
-3.08987e-09
-5.0042e-09
5.9414e-09
1.67942e-09
-5.41163e-09
-1.38348e-09
-3.95635e-09
1.53419e-09
3.80567e-09
3.83133e-09
-2.45033e-09
2.38749e-09
-3.92108e-09
3.2176e-10
-2.27211e-09
2.74132e-09
2.50505e-10
-7.5461e-09
4.55428e-09
2.53633e-09
1.23008e-09
-3.34196e-09
-4.24466e-10
3.88665e-09
5.64672e-09
-4.73739e-09
-4.79597e-09
2.82576e-09
-1.01788e-09
-1.97211e-09
1.64231e-10
1.63553e-09
-2.84928e-09
3.94268e-09
4.52876e-09
-5.91052e-09
4.26888e-09
-2.88711e-09
-1.75955e-09
-2.7099e-09
2.61214e-10
-9.7469e-10
-1.15205e-09
2.19502e-09
-6.82858e-11
-8.72793e-10
1.79335e-09
-1.41091e-10
6.36756e-09
1.15241e-09
-6.90911e-10
2.00595e-09
-1.19648e-09
-1.18572e-10
8.50059e-10
-2.46968e-09
-2.99878e-10
-1.11045e-09
-1.11995e-09
2.3663e-09
-1.359e-10
1.65003e-09
1.98232e-09
-3.6585e-09
2.61696e-11
2.009e-09
-7.39181e-09
-2.27009e-09
7.65293e-09
2.49805e-09
3.24653e-09
-6.27195e-09
5.27357e-10
3.87064e-09
-7.45313e-09
8.07017e-09
-4.48767e-09
-1.62518e-09
-2.66757e-09
4.02945e-09
2.63333e-10
2.40568e-09
-4.1175e-09
8.66591e-11
-3.8422e-09
-2.55403e-09
5.95249e-09
4.43755e-10
6.10874e-09
-9.58733e-09
4.94865e-09
-1.47004e-09
1.18683e-09
-3.41909e-09
2.31811e-09
-8.58248e-11
-1.24683e-09
-2.59988e-09
3.71199e-09
1.34736e-10
2.57347e-09
5.69606e-09
-1.90437e-09
5.73661e-09
3.86875e-09
1.63686e-10
-9.76906e-09
1.21653e-08
-4.77596e-09
-1.1107e-08
3.80479e-09
-9.73101e-09
-2.09086e-09
8.01709e-09
3.29573e-09
2.69262e-09
-5.70865e-09
-2.79687e-10
1.57542e-09
-1.72479e-09
4.93311e-10
-3.43967e-10
9.24742e-10
-3.59465e-09
-1.78831e-09
4.45821e-09
1.34543e-09
-2.50685e-09
-2.22054e-10
-2.46477e-10
-4.05002e-09
-1.69805e-10
4.4663e-09
-2.95662e-09
6.00321e-09
3.25252e-10
-3.37185e-09
-5.37105e-09
2.91091e-09
2.4921e-09
-3.19468e-11
4.86687e-09
2.92254e-09
1.41728e-09
-9.20666e-09
-1.70611e-09
-7.06779e-09
3.11797e-09
5.65593e-09
4.26312e-10
-7.53784e-10
-2.01539e-09
-3.77941e-09
4.27333e-09
-4.01323e-09
3.51933e-09
-2.23687e-09
2.47905e-09
-6.73024e-09
-7.37557e-10
-2.18372e-09
2.87076e-09
5.05112e-11
1.64092e-09
-5.24111e-09
3.83764e-09
-2.37449e-10
-8.49132e-10
-1.61128e-09
2.98474e-11
-4.95403e-09
-3.44145e-09
2.11881e-09
6.27669e-09
3.09173e-09
-4.42758e-09
-1.40683e-09
2.7427e-09
2.65747e-09
-5.61274e-09
1.43134e-09
1.52393e-09
3.85757e-09
1.41778e-09
-3.17833e-09
-2.09701e-09
5.37551e-09
-2.60508e-09
-2.52758e-09
-2.42865e-10
-1.29964e-09
-4.18351e-09
-1.89321e-10
-2.93544e-09
-5.41478e-09
-5.08078e-10
1.23147e-09
-4.10673e-09
-1.28112e-09
-2.69013e-09
5.74332e-09
2.4256e-10
-4.112e-09
3.88001e-09
3.86994e-09
-3.63794e-09
3.20561e-09
-3.78471e-09
6.56934e-09
-4.85387e-09
3.58643e-09
-2.52685e-09
1.5981e-09
1.32867e-09
-3.9991e-10
-2.53171e-09
4.43275e-09
-3.92712e-10
-1.9493e-09
1.24879e-09
-1.89755e-09
8.95069e-10
-1.95653e-09
-8.87829e-10
-1.39032e-09
-1.54626e-09
2.97508e-09
-3.85302e-11
1.80064e-09
-3.11042e-09
1.07521e-09
2.34546e-10
5.51571e-09
-5.21362e-09
-3.76012e-09
2.86772e-09
-9.85057e-11
1.09761e-09
1.7945e-09
-6.63347e-11
1.85858e-09
5.99216e-09
-4.61644e-09
-3.23431e-09
-2.83389e-09
-3.56097e-09
6.18414e-09
2.10733e-10
-6.39526e-09
-2.8818e-09
6.5314e-09
2.74566e-09
-2.74791e-09
1.62958e-09
-1.60827e-09
2.72661e-09
4.88561e-09
-2.50223e-09
2.14311e-09
3.34606e-09
-4.93999e-09
1.66328e-09
-6.93299e-11
3.46799e-09
-5.00856e-09
1.5244e-09
1.6181e-11
9.35679e-09
-3.27339e-09
-1.38302e-09
-4.70037e-09
-3.95544e-09
2.10972e-09
2.10299e-09
-2.57265e-10
5.69666e-09
-6.71471e-09
-2.30256e-09
3.32062e-09
-4.85263e-09
6.162e-10
2.57872e-09
1.65769e-09
3.54665e-09
-1.9939e-09
-1.05709e-10
5.19251e-09
-1.02067e-08
1.8363e-09
3.17797e-09
-3.8768e-09
1.87312e-09
1.42735e-10
4.63679e-09
-9.31059e-09
4.52278e-09
1.51067e-10
-5.01156e-09
2.42875e-09
7.21964e-09
-1.81286e-09
1.90209e-09
9.09476e-11
5.20319e-09
-5.20996e-09
2.24598e-09
-2.2392e-09
3.76966e-09
-5.01604e-10
5.63682e-09
-8.90488e-09
8.10167e-09
2.54593e-09
-4.80914e-09
-5.83846e-09
-2.54883e-09
1.66653e-09
-2.98285e-10
1.55872e-09
1.97546e-09
-5.75843e-10
-5.20188e-09
-2.5336e-09
2.09457e-09
2.17388e-09
-2.06118e-09
6.77835e-09
-4.65521e-09
-6.1951e-11
1.23067e-09
2.40501e-09
-3.69765e-09
6.19923e-11
-4.1673e-09
-4.30348e-09
8.32189e-09
1.48906e-10
-2.96196e-09
5.80915e-09
1.36974e-10
-2.59794e-09
1.8977e-09
4.07411e-09
-3.37384e-09
1.9395e-09
7.93307e-09
-6.0594e-09
-3.81317e-09
-1.72434e-09
1.30639e-08
1.01183e-09
9.88023e-12
-3.67248e-09
2.6508e-09
-4.16372e-09
7.66117e-09
5.44746e-09
-8.94489e-09
-8.99051e-10
6.92152e-09
2.63436e-09
-4.60237e-09
9.40428e-10
4.33464e-09
-6.72712e-10
2.25155e-09
-4.42245e-09
2.03233e-09
1.38571e-10
2.1505e-09
-7.24067e-10
-1.63114e-09
2.04694e-10
-1.92989e-09
-5.04231e-09
-6.06506e-09
-3.49127e-09
2.74404e-09
4.62256e-09
4.09106e-09
-8.4942e-09
5.44923e-09
-1.04614e-09
2.51806e-09
3.53775e-09
-3.81268e-09
-2.24318e-09
-7.94832e-09
-6.911e-09
7.46229e-09
7.39705e-09
1.64194e-09
-2.49728e-09
-4.17907e-09
5.03436e-09
8.07452e-10
-5.22045e-09
5.31225e-09
-8.9926e-10
-2.54616e-09
5.86391e-09
-5.79092e-09
2.47311e-09
3.265e-09
2.05318e-09
-6.88717e-10
1.19971e-08
-7.30643e-09
-4.00197e-09
-1.18484e-08
-9.47482e-10
4.88192e-09
7.91403e-09
3.2054e-09
6.61716e-09
9.83571e-10
-1.08061e-08
-7.49681e-09
8.03896e-09
5.07816e-09
-5.6203e-09
-8.04213e-09
1.33868e-08
-7.34749e-09
2.00283e-09
-4.85473e-09
-3.86312e-09
-1.98178e-09
1.06996e-08
-6.32428e-09
3.31343e-09
3.39919e-09
-3.88329e-10
4.21801e-09
-5.28431e-09
-6.58526e-09
7.65158e-09
-4.53074e-09
3.739e-09
8.62058e-09
-7.82881e-09
-8.16312e-09
9.21082e-09
3.8535e-09
-4.90117e-09
-8.02448e-09
-1.0415e-08
6.13614e-09
1.23033e-08
2.57631e-09
-4.13393e-09
-1.13248e-09
-1.30677e-09
-1.2216e-09
2.62325e-09
-9.48912e-11
4.99034e-09
-5.46689e-09
1.7674e-09
-1.29084e-09
-2.40293e-09
5.02865e-09
3.27065e-09
-5.89637e-09
-6.27873e-09
2.91662e-09
-2.6444e-09
6.00648e-09
5.89875e-09
5.60749e-09
-6.51668e-09
-4.98957e-09
1.0047e-08
-7.01841e-09
4.54847e-10
-3.48343e-09
-1.31903e-08
-1.373e-09
8.58129e-09
5.98203e-09
-1.31842e-08
7.80152e-09
1.13815e-09
4.2446e-09
-4.97148e-10
1.15466e-08