/*--------------------------------*- C++ -*----------------------------------*\
| =========                 |                                                 |
| \\      /  F ield         | OpenFOAM: The Open Source CFD Toolbox           |
|  \\    /   O peration     | Version:  v1612+                                |
|   \\  /    A nd           | Web:      www.OpenFOAM.com                      |
|    \\/     M anipulation  |                                                 |
\*---------------------------------------------------------------------------*/
FoamFile
{
    version     2.0;
    format      ascii;
    class       volVectorField;
    location    "118";
    object      U;
}
// * * * * * * * * * * * * * * * * * * * * * * * * * * * * * * * * * * * * * //

dimensions      [0 1 -1 0 0 0 0];

internalField   nonuniform List<vector> 
21396
(
(-0.697627 -0.0752471 -0.514044)
(-0.730095 -0.0029988 -0.524192)
(-0.742129 0.0412515 -0.614253)
(-0.795864 0.0980191 -0.649607)
(-0.723141 0.00282057 -0.537669)
(-0.663651 0.0124297 -0.612245)
(-0.439518 0.116973 -0.325093)
(-0.700042 0.023121 -0.578619)
(-0.759969 -0.0443938 -0.541283)
(-0.82342 -0.0176201 -0.550959)
(-0.602772 0.151798 -0.582566)
(-0.424988 -0.053324 -0.39864)
(-0.69172 -0.0433334 -0.552898)
(-0.780049 -0.00816723 -0.641508)
(-0.711846 0.0716934 -0.571897)
(-0.674331 -0.0999566 -0.543407)
(-0.702521 0.0531469 -0.544973)
(-0.357457 0.0576475 -0.415936)
(-0.710032 0.0472016 -0.588119)
(-0.725589 0.0398227 -0.581581)
(-0.5692 -0.0483467 -0.521441)
(-0.491098 0.00538808 -0.4989)
(-0.748033 -0.0567546 -0.521613)
(-0.661378 0.0649552 -0.558055)
(-0.717951 0.0624076 -0.616757)
(-0.750155 -0.112574 -0.569267)
(-0.686183 0.163948 -0.614011)
(-0.681985 0.171584 -0.633669)
(-0.539117 0.00437388 -0.531311)
(-0.367405 0.0394131 -0.286851)
(-0.677868 0.00500624 -0.532557)
(-0.751662 0.0297368 -0.548568)
(-0.33432 0.0199861 -0.20617)
(-0.343622 -0.00637363 -0.208925)
(-0.815492 0.10105 -0.617949)
(-0.710116 0.0907135 -0.523951)
(-0.4354 0.059556 -0.24401)
(-0.656914 -0.072859 -0.456259)
(-0.63457 0.10182 -0.61395)
(-0.655005 0.0709455 -0.651939)
(-0.718207 -0.159614 -0.498587)
(-0.385512 0.0436443 -0.318879)
(-0.641602 -0.00442524 -0.543772)
(-0.673626 -0.194476 -0.378151)
(-0.606648 -0.0584966 -0.483032)
(-0.701593 0.0419913 -0.595594)
(-0.612532 0.00275263 -0.347793)
(-0.705504 0.088547 -0.47931)
(-0.758344 0.0466571 -0.528407)
(-0.625893 -0.0297918 -0.545797)
(-0.726078 0.0246436 -0.555232)
(-0.712588 -0.0272486 -0.465434)
(-0.673496 -0.0805848 -0.414641)
(-0.376271 0.0947612 -0.248399)
(-0.581304 0.0398201 -0.588979)
(-0.621413 0.0278824 -0.608801)
(-0.713205 0.0866682 -0.674754)
(-0.691556 0.0751985 -0.654952)
(-0.680916 -0.135481 -0.375671)
(-0.76367 0.049644 -0.556948)
(-0.533047 0.00237157 -0.269456)
(-0.647537 0.175467 -0.575595)
(-0.419621 -0.0208203 -0.419348)
(-0.532131 0.102682 -0.326577)
(-0.54421 0.0973516 -0.326211)
(-0.711441 0.0139779 -0.474312)
(-0.660035 0.0413511 -0.643357)
(-0.471219 0.000724725 -0.479899)
(-0.737539 0.104317 -0.558394)
(-0.596761 0.0572011 -0.332373)
(-0.73473 -0.0840197 -0.401698)
(-0.708681 -0.0919147 -0.534574)
(-0.699392 0.225236 -0.615288)
(-0.462907 -0.00268896 -0.211355)
(-0.746159 -0.168699 -0.442388)
(-0.74955 -0.127199 -0.561642)
(-0.7119 0.192518 -0.590335)
(-0.318857 0.0849345 -0.349695)
(-0.274498 0.0739941 -0.215599)
(-0.729763 0.219515 -0.733027)
(-0.737695 0.214613 -0.729962)
(-0.636831 0.145926 -0.651934)
(-0.58283 0.0292752 -0.574612)
(-0.357541 0.0524218 -0.233548)
(-0.466789 0.0523535 -0.25971)
(-0.712837 0.155236 -0.643924)
(-0.731613 0.130238 -0.625654)
(-0.733787 0.179096 -0.625648)
(-0.654044 0.183178 -0.596383)
(-0.68727 0.00557123 -0.608076)
(-0.760548 -0.130453 -0.488792)
(-0.757299 -0.151921 -0.50668)
(-0.723711 0.0477388 -0.503541)
(-0.751972 0.0933773 -0.566893)
(-0.385279 0.112638 -0.26695)
(-0.757211 0.205749 -0.71666)
(-0.696661 0.0451012 -0.60513)
(-0.612981 -0.091806 -0.322809)
(-0.471611 0.0140677 -0.526879)
(-0.378827 0.0106631 -0.318337)
(-0.675154 -0.101751 -0.535133)
(-0.734463 -0.0390909 -0.547706)
(-0.70135 0.197493 -0.712534)
(-0.638512 0.171019 -0.674326)
(-0.534293 0.0787119 -0.304834)
(-0.497377 -0.0071561 -0.233886)
(-0.742533 -0.0552865 -0.557191)
(-0.698605 -0.0572722 -0.457338)
(-0.716847 -0.0233495 -0.496649)
(-0.769916 -0.0106155 -0.504956)
(-0.68139 -0.017035 -0.445569)
(-0.443107 0.0259502 -0.476223)
(-0.414434 0.0393025 -0.43028)
(-0.749086 0.0312115 -0.512202)
(-0.765343 0.0417454 -0.55194)
(-0.732802 -0.0725851 -0.423408)
(-0.701391 -0.0123068 -0.544295)
(-0.683988 -0.00585526 -0.592838)
(-0.670653 -0.0241677 -0.537157)
(-0.661985 -0.0398023 -0.492689)
(-0.664214 -0.000489173 -0.530288)
(-0.73206 0.0471915 -0.551548)
(-0.296698 0.0720105 -0.243682)
(-0.711992 -0.131791 -0.481181)
(-0.697292 -0.00951752 -0.614947)
(-0.648322 -0.117123 -0.50794)
(-0.390871 0.0137407 -0.242824)
(-0.341192 0.0637026 -0.253411)
(-0.678516 -0.102691 -0.539888)
(-0.669433 -0.0854461 -0.543596)
(-0.654601 -0.0846476 -0.53477)
(-0.565101 0.0423436 -0.312645)
(-0.596983 0.0457937 -0.352865)
(-0.723354 0.204541 -0.722994)
(-0.76653 -0.0175503 -0.52259)
(-0.387392 0.0475492 -0.429971)
(-0.36094 0.0195399 -0.414412)
(-0.690266 -0.0204086 -0.515495)
(-0.701521 -0.0289798 -0.547958)
(-0.559416 0.00697567 -0.294253)
(-0.589949 0.00578309 -0.295027)
(-0.467179 0.0876103 -0.282581)
(-0.424743 0.104305 -0.272329)
(-0.413495 0.0928545 -0.263367)
(-0.69431 -0.12763 -0.500525)
(-0.550981 -0.11238 -0.448115)
(-0.757696 0.0600911 -0.542245)
(-0.652844 -0.102698 -0.493535)
(-0.666519 -0.112207 -0.490762)
(-0.760679 0.14874 -0.603306)
(-0.771496 -0.112905 -0.443394)
(-0.691397 -0.157965 -0.483432)
(-0.699976 0.0263905 -0.538056)
(-0.705815 -0.0246987 -0.533524)
(-0.705302 -0.0336912 -0.533774)
(-0.713791 0.0260085 -0.53153)
(-0.698776 -0.00344616 -0.546109)
(-0.789568 -0.0170429 -0.50538)
(-0.445013 0.0445478 -0.241116)
(-0.281616 0.0635577 -0.287509)
(-0.363459 0.0600101 -0.427652)
(-0.796614 -0.0744063 -0.505177)
(-0.554352 -0.0298932 -0.24638)
(-0.597862 0.0100126 -0.305718)
(-0.593906 -0.0225844 -0.287583)
(-0.580303 -0.0265672 -0.292175)
(-0.311204 -0.000888796 -0.174345)
(-0.298577 0.0389228 -0.210308)
(-0.279367 0.0371779 -0.223037)
(-0.282227 0.0551419 -0.24354)
(-0.65381 -0.105207 -0.524949)
(-0.645281 -0.0321581 -0.550551)
(-0.568617 -0.0501523 -0.503221)
(-0.679464 -0.00508306 -0.590399)
(-0.661559 0.0802946 -0.61064)
(-0.661349 0.105442 -0.621885)
(-0.689203 0.104923 -0.677273)
(-0.347564 0.00485439 -0.331755)
(-0.609879 0.0710303 -0.373221)
(-0.280785 0.0802463 -0.283231)
(-0.675434 -0.137126 -0.496348)
(-0.668067 -0.0902654 -0.521861)
(-0.671633 0.118445 -0.620041)
(-0.653355 -0.0795831 -0.503543)
(-0.365962 0.0182696 -0.272438)
(-0.795663 -0.0796022 -0.5019)
(-0.75784 -0.0509496 -0.525292)
(-0.674708 -0.00394671 -0.607066)
(-0.647249 -0.0476951 -0.567055)
(-0.628407 -0.0015826 -0.544266)
(-0.66785 -0.0214431 -0.584779)
(-0.496159 0.0205117 -0.241949)
(-0.371324 0.0444856 -0.254671)
(-0.65827 0.0219763 -0.515971)
(-0.598354 0.00521548 -0.533946)
(-0.761435 0.158248 -0.60759)
(-0.760948 0.144428 -0.597849)
(-0.671529 0.139668 -0.573681)
(-0.719299 0.16135 -0.600325)
(-0.692835 0.156234 -0.571174)
(-0.742044 0.184605 -0.641923)
(-0.702921 0.201464 -0.70554)
(-0.706952 0.173295 -0.715306)
(-0.660805 0.129435 -0.63707)
(-0.643051 0.171289 -0.62719)
(-0.642601 0.114005 -0.628358)
(-0.747762 -0.120544 -0.405993)
(-0.638106 -0.0842329 -0.36311)
(-0.710907 -0.0724196 -0.397752)
(-0.726522 -0.0530601 -0.409774)
(-0.348109 0.000212867 -0.255142)
(-0.419854 0.00582537 -0.333719)
(-0.353362 -0.00483954 -0.244729)
(-0.735697 0.0260187 -0.569668)
(-0.493468 0.0621263 -0.269241)
(-0.4491 0.0522408 -0.246671)
(-0.604935 -0.0170945 -0.326545)
(-0.675906 0.042207 -0.490607)
(-0.675851 0.0374427 -0.571322)
(-0.749395 0.0400106 -0.525216)
(-0.70541 -0.0571054 -0.401463)
(-0.808315 -0.0162359 -0.61855)
(-0.688369 -0.0441912 -0.525443)
(-0.745965 -0.0446156 -0.575832)
(-0.786331 -0.0300388 -0.614338)
(-0.717733 -0.0312345 -0.534097)
(-0.780593 -0.0166788 -0.588617)
(-0.718732 -0.0575401 -0.536058)
(-0.338671 0.083158 -0.391358)
(-0.358911 0.0738907 -0.422287)
(-0.347654 0.0619757 -0.382278)
(-0.389955 0.0186092 -0.347424)
(-0.712406 -0.0499968 -0.554674)
(-0.608156 -0.0577482 -0.271366)
(-0.508878 -0.0239445 -0.232104)
(-0.713973 0.0086324 -0.492062)
(-0.734502 -0.0257796 -0.46566)
(-0.465683 0.0829035 -0.278225)
(-0.52191 0.089043 -0.303095)
(-0.649016 0.0821215 -0.40987)
(-0.753573 -0.0204368 -0.468151)
(-0.69348 -0.0317785 -0.423424)
(-0.308343 0.0555482 -0.33241)
(-0.536605 -0.0113728 -0.263392)
(-0.71801 0.221111 -0.647612)
(-0.684842 0.10375 -0.504725)
(-0.66034 -0.112485 -0.316254)
(-0.691805 -0.00315163 -0.441261)
(-0.620393 -0.042076 -0.39191)
(-0.614671 -0.0165422 -0.351623)
(-0.65726 0.14493 -0.623344)
(-0.60534 -0.127361 -0.433253)
(-0.342112 0.0363063 -0.325334)
(-0.677718 -0.113765 -0.31517)
(-0.329743 0.0460863 -0.268088)
(-0.694279 -0.118637 -0.481274)
(-0.67952 -0.119294 -0.522432)
(-0.753885 0.0403991 -0.519842)
(-0.621742 -0.104188 -0.431068)
(-0.659665 -0.0388912 -0.397886)
(-0.575683 0.0133219 -0.302959)
(-0.64182 -0.0273268 -0.372177)
(-0.674829 -0.0451561 -0.391344)
(-0.459556 -0.0514544 -0.39411)
(-0.66475 -0.119409 -0.426133)
(-0.700437 -0.0453803 -0.557697)
(-0.692511 0.0261558 -0.502964)
(-0.685056 0.0064442 -0.497743)
(-0.701228 0.0691705 -0.502953)
(-0.726464 0.064668 -0.528042)
(-0.752949 0.102599 -0.584676)
(-0.735004 0.0830747 -0.555235)
(-0.659964 -0.12841 -0.498628)
(-0.684225 -0.138855 -0.442968)
(-0.353431 0.0529737 -0.249867)
(-0.34081 0.0961911 -0.260818)
(-0.440843 -2.78243e-05 -0.488993)
(-0.417194 0.0341196 -0.481048)
(-0.513721 -0.00545263 -0.534838)
(-0.380099 -0.0130371 -0.362898)
(-0.385642 -0.0187184 -0.370675)
(-0.348447 0.0101345 -0.305713)
(-0.352836 -0.0233404 -0.327578)
(-0.408699 -0.0543221 -0.374481)
(-0.520334 -0.0478126 -0.474681)
(-0.330563 -0.00358645 -0.236918)
(-0.637373 0.118649 -0.635979)
(-0.630875 -0.0648607 -0.534764)
(-0.654901 -0.0145933 -0.575611)
(-0.682584 -0.0406807 -0.579399)
(-0.60933 -0.0674177 -0.52169)
(-0.384332 0.00996348 -0.270598)
(-0.346419 -0.0101076 -0.259626)
(-0.626533 -0.121837 -0.321293)
(-0.675341 -0.109556 -0.352423)
(-0.719328 0.000267852 -0.500296)
(-0.742941 0.0250991 -0.529448)
(-0.660691 -0.045639 -0.357914)
(-0.575231 -0.0547692 -0.278758)
(-0.596871 -0.0739184 -0.289821)
(-0.671536 -0.0768341 -0.362311)
(-0.609716 -0.0803836 -0.314276)
(-0.602375 -0.102908 -0.339741)
(-0.735976 -0.0494202 -0.483603)
(-0.681566 -0.0755005 -0.482704)
(-0.710703 -0.0718598 -0.478194)
(-0.741473 -0.0384734 -0.4649)
(-0.714703 -0.0630613 -0.416604)
(-0.710499 0.0607886 -0.545591)
(-0.751623 0.0457892 -0.594887)
(-0.757611 -0.0453416 -0.46738)
(-0.745727 -0.0499007 -0.445681)
(-0.702846 -0.0382925 -0.430691)
(-0.754242 -0.0236364 -0.484351)
(-0.76188 -0.029479 -0.531792)
(-0.77705 0.0530469 -0.585993)
(-0.717872 -0.11801 -0.542411)
(-0.778282 -0.0562781 -0.561492)
(-0.669656 0.080693 -0.589582)
(-0.713362 0.143025 -0.585171)
(-0.632221 0.0136682 -0.384677)
(-0.676706 -0.160192 -0.490029)
(-0.693196 -0.156635 -0.499697)
(-0.601524 -0.148201 -0.265872)
(-0.457843 -0.0113092 -0.206801)
(-0.664238 -0.173357 -0.340147)
(-0.493197 -0.0318005 -0.483341)
(-0.488742 0.0549882 -0.560749)
(-0.724361 0.0203819 -0.577007)
(-0.683489 0.00536256 -0.55294)
(-0.429421 -0.0178291 -0.187207)
(-0.480058 0.0603888 -0.266581)
(-0.486955 0.0201949 -0.247463)
(-0.529673 0.0408874 -0.278237)
(-0.702541 -0.010745 -0.455227)
(-0.713786 -0.0548828 -0.476863)
(-0.615507 -0.16624 -0.329343)
(-0.680965 0.142175 -0.678162)
(-0.67309 -0.0758062 -0.505098)
(-0.71857 -0.0668209 -0.532666)
(-0.690158 -0.0989591 -0.518683)
(-0.735725 0.172655 -0.586781)
(-0.707771 0.124458 -0.623134)
(-0.683267 0.0735556 -0.573775)
(-0.417305 0.00342781 -0.415927)
(-0.611954 -0.0594823 -0.496112)
(-0.7005 -0.0765141 -0.465015)
(-0.634849 -0.0221981 -0.350903)
(-0.682694 0.0674719 -0.608054)
(-0.670588 0.134034 -0.65826)
(-0.654548 0.192851 -0.659763)
(-0.673863 -0.167321 -0.374548)
(-0.727801 -0.0640895 -0.448858)
(-0.781939 -0.0529932 -0.521157)
(-0.671659 -0.0575292 -0.564701)
(-0.683173 -0.0150956 -0.620315)
(-0.676198 0.023828 -0.640342)
(-0.61557 -0.0109421 -0.581195)
(-0.67456 -0.0441751 -0.59748)
(-0.657207 -0.00268481 -0.600017)
(-0.685052 0.00827417 -0.624736)
(-0.730519 0.0280426 -0.500317)
(-0.612731 -0.0860363 -0.485078)
(-0.629453 -0.0718353 -0.487833)
(-0.552922 -0.0059148 -0.282784)
(-0.51315 0.0339743 -0.277965)
(-0.674317 -0.142043 -0.502032)
(-0.752748 -0.120119 -0.449796)
(-0.668037 0.0972555 -0.61235)
(-0.645044 0.104748 -0.579638)
(-0.491309 0.0611424 -0.278334)
(-0.695353 0.10962 -0.52422)
(-0.535002 -0.0981383 -0.44459)
(-0.403112 0.0139776 -0.42931)
(-0.699146 0.0145042 -0.640468)
(-0.709595 -0.0463955 -0.406183)
(-0.330614 0.0398368 -0.229619)
(-0.726894 -0.0817511 -0.573399)
(-0.694857 -0.125715 -0.525822)
(-0.450723 0.0202717 -0.506738)
(-0.425795 0.0194801 -0.479584)
(-0.383419 0.0366913 -0.44201)
(-0.692158 -0.0915762 -0.556059)
(-0.620047 -0.0855049 -0.519876)
(-0.675145 -0.108941 -0.3964)
(-0.755527 0.140859 -0.576584)
(-0.64397 -0.0593468 -0.380529)
(-0.671522 0.06918 -0.582067)
(-0.741519 0.200435 -0.601991)
(-0.52823 -0.0368295 -0.487624)
(-0.593059 0.00400082 -0.571522)
(-0.763648 0.165931 -0.596498)
(-0.780326 -0.0448828 -0.477093)
(-0.680422 -0.0941171 -0.381765)
(-0.759724 -0.0878896 -0.450866)
(-0.754609 -0.106775 -0.437903)
(-0.718282 -0.114511 -0.394537)
(-0.748333 -0.143783 -0.447653)
(-0.687708 -0.0806611 -0.415324)
(-0.438602 0.0888521 -0.257912)
(-0.444001 0.0814521 -0.253916)
(-0.338186 -0.030527 -0.269594)
(-0.355376 -0.0292506 -0.278245)
(-0.39308 -0.0290363 -0.318268)
(-0.489201 0.0247519 -0.244584)
(-0.53261 0.0218361 -0.272178)
(-0.772962 0.101012 -0.589768)
(-0.717674 0.0716052 -0.50353)
(-0.613918 -0.113211 -0.453695)
(-0.669544 -0.0579161 -0.560294)
(-0.700989 -0.126584 -0.468446)
(-0.657207 -0.113735 -0.363849)
(-0.386406 0.0789036 -0.24019)
(-0.344932 0.00300109 -0.288528)
(-0.333273 0.00596537 -0.284593)
(-0.66595 0.122071 -0.630344)
(-0.696529 0.135961 -0.669253)
(-0.650863 0.206971 -0.617708)
(-0.71619 -0.0567794 -0.54519)
(-0.619194 0.0379664 -0.377727)
(-0.612051 0.0150206 -0.403971)
(-0.628561 0.0117761 -0.401209)
(-0.603973 -0.0156979 -0.386055)
(-0.651122 -0.00851661 -0.430283)
(-0.386726 -0.0479425 -0.349643)
(-0.710546 -0.0137368 -0.51999)
(-0.753667 -0.0270524 -0.576458)
(-0.700673 -0.0243191 -0.498688)
(-0.757504 -0.00492175 -0.580939)
(-0.674772 0.101625 -0.564577)
(-0.743411 0.109832 -0.626123)
(-0.655735 0.0557758 -0.586071)
(-0.71888 0.109527 -0.611471)
(-0.363235 -0.0295138 -0.347225)
(-0.528521 -0.0502034 -0.492825)
(-0.675466 -0.0504491 -0.473998)
(-0.717445 -0.0336681 -0.484061)
(-0.714593 -0.0294898 -0.480317)
(-0.798646 -0.0813125 -0.498066)
(-0.79434 0.104053 -0.621538)
(-0.751326 0.0624325 -0.539369)
(-0.704089 -0.187397 -0.452814)
(-0.617231 -0.180049 -0.307549)
(-0.734199 0.0502878 -0.617757)
(-0.41787 -0.064732 -0.367772)
(-0.481624 -0.0965399 -0.409209)
(-0.475932 -0.0911069 -0.399774)
(-0.377329 0.030016 -0.26111)
(-0.316422 0.00956799 -0.187691)
(-0.638916 -0.0488125 -0.505075)
(-0.745825 -0.0639575 -0.459503)
(-0.585417 0.00718933 -0.565001)
(-0.724584 -0.0534075 -0.487219)
(-0.69194 -0.0712503 -0.395245)
(-0.391021 -0.0417103 -0.353755)
(-0.408348 -0.0402896 -0.368207)
(-0.527605 -0.0488255 -0.500604)
(-0.639876 -0.0125732 -0.579103)
(-0.371936 0.0228684 -0.231576)
(-0.336943 0.00939605 -0.20911)
(-0.748971 -0.085899 -0.55566)
(-0.675814 0.00858874 -0.589899)
(-0.770154 0.130972 -0.58587)
(-0.72618 -0.0842509 -0.400199)
(-0.780052 -0.0735844 -0.475195)
(-0.753615 -0.0838553 -0.473895)
(-0.642052 -0.0213963 -0.55187)
(-0.30382 0.033889 -0.268809)
(-0.491486 0.0212681 -0.541466)
(-0.725219 0.0457354 -0.616353)
(-0.707297 0.0402441 -0.483844)
(-0.358029 0.0188127 -0.242374)
(-0.589812 -0.00781689 -0.36574)
(-0.341109 -0.000582129 -0.272705)
(-0.711554 -0.102335 -0.55834)
(-0.664343 -0.125821 -0.432017)
(-0.706195 -0.110356 -0.473484)
(-0.604776 -0.0455999 -0.303344)
(-0.287854 0.0557455 -0.265493)
(-0.533657 -0.0878028 -0.45336)
(-0.486095 -0.0903855 -0.431355)
(-0.62672 -0.0737202 -0.417719)
(-0.391329 0.0638651 -0.228051)
(-0.539638 -0.0839178 -0.460443)
(-0.628462 -0.0908143 -0.514508)
(-0.71743 0.150213 -0.640879)
(-0.613751 -0.0880839 -0.511707)
(-0.595495 -0.167003 -0.419266)
(-0.70235 -0.165078 -0.488337)
(-0.632729 -0.172313 -0.416219)
(-0.505269 0.000712463 -0.51941)
(-0.475601 -0.0489529 -0.408734)
(-0.694252 -0.0108374 -0.471311)
(-0.737662 -0.0113055 -0.477307)
(-0.637393 0.0526303 -0.405754)
(-0.665185 0.0724053 -0.432989)
(-0.477452 0.0986973 -0.288216)
(-0.336485 0.0556707 -0.306737)
(-0.681881 0.120977 -0.617389)
(-0.524403 -0.0529872 -0.476214)
(-0.623031 -0.0684283 -0.505789)
(-0.59897 -0.10699 -0.462975)
(-0.644741 -0.107407 -0.486505)
(-0.687813 -0.0303553 -0.469339)
(-0.738928 -0.00484966 -0.500339)
(-0.74711 0.0193457 -0.514604)
(-0.724521 0.00203191 -0.486439)
(-0.300261 0.0254973 -0.246575)
(-0.338809 -0.000590258 -0.327152)
(-0.751159 0.0914779 -0.569349)
(-0.442296 -0.00539085 -0.488097)
(-0.487065 -0.0317153 -0.495951)
(-0.575047 -0.00997728 -0.530474)
(-0.605186 -0.0233893 -0.505944)
(-0.679342 -0.124908 -0.514938)
(-0.575701 -0.117594 -0.446751)
(-0.576713 -0.115634 -0.458855)
(-0.592939 -0.0346838 -0.48906)
(-0.605975 -0.0402541 -0.498698)
(-0.716382 0.000398374 -0.447638)
(-0.756274 0.00479543 -0.491151)
(-0.672301 -0.0249179 -0.410466)
(-0.592695 0.0405534 -0.59656)
(-0.73365 0.18205 -0.577346)
(-0.697642 -0.0750716 -0.350398)
(-0.734361 -0.115798 -0.554779)
(-0.682067 -0.102144 -0.529711)
(-0.649239 -0.10584 -0.507456)
(-0.516411 -0.0393993 -0.226734)
(-0.408343 0.0160904 -0.422861)
(-0.31205 0.0421729 -0.288665)
(-0.375303 0.0490882 -0.392813)
(-0.414434 0.0325818 -0.437827)
(-0.618164 -0.0108792 -0.575855)
(-0.693529 0.0161768 -0.622823)
(-0.776554 -0.0744573 -0.501901)
(-0.364426 -0.0123419 -0.242526)
(-0.669228 -0.109365 -0.499906)
(-0.635754 0.116517 -0.642643)
(-0.654097 -0.0575243 -0.420273)
(-0.714974 -0.026022 -0.46588)
(-0.655196 -0.0352918 -0.453329)
(-0.718111 -0.0720271 -0.493151)
(-0.707956 -0.00444282 -0.557636)
(-0.565657 -0.0520077 -0.517131)
(-0.5431 -0.0764264 -0.48282)
(-0.461399 -0.0452433 -0.437024)
(-0.542589 -0.057376 -0.231902)
(-0.717068 0.00102379 -0.545152)
(-0.364237 0.0355394 -0.246008)
(-0.641806 -0.120726 -0.499186)
(-0.726137 -0.0366336 -0.583854)
(-0.692965 0.0194348 -0.637956)
(-0.686179 0.0174751 -0.491398)
(-0.609632 -0.0299367 -0.463347)
(-0.34281 0.0197248 -0.365712)
(-0.356366 0.0435738 -0.341819)
(-0.370836 0.0543039 -0.363501)
(-0.340123 0.00408958 -0.330622)
(-0.398418 0.0205725 -0.39338)
(-0.584109 0.0010933 -0.294571)
(-0.710328 -0.0073751 -0.475317)
(-0.673606 -0.0408259 -0.443817)
(-0.769696 -0.0468778 -0.471688)
(-0.735847 0.0681323 -0.539564)
(-0.771374 0.096457 -0.581887)
(-0.74917 0.00781513 -0.480455)
(-0.781603 0.0382108 -0.549901)
(-0.705066 -0.0364419 -0.432298)
(-0.729073 -0.0362969 -0.446523)
(-0.675724 -0.0193456 -0.560351)
(-0.664428 -0.0280939 -0.494246)
(-0.683382 0.161678 -0.67412)
(-0.682137 0.137742 -0.671379)
(-0.580127 0.0199082 -0.371909)
(-0.72277 0.0170827 -0.611467)
(-0.64396 -0.0834379 -0.507879)
(-0.673261 -0.0770403 -0.538462)
(-0.685952 -0.076405 -0.542078)
(-0.62151 -0.173487 -0.32776)
(-0.684195 0.0200923 -0.59768)
(-0.699869 -0.145372 -0.489568)
(-0.651241 -0.129798 -0.485723)
(-0.384574 -0.017332 -0.384271)
(-0.398915 -0.0303655 -0.396269)
(-0.424185 0.0911498 -0.256701)
(-0.32742 0.0903412 -0.237579)
(-0.651371 -0.103752 -0.433282)
(-0.619817 -0.128783 -0.428788)
(-0.706724 0.0891763 -0.535367)
(-0.708113 0.0639042 -0.535086)
(-0.726812 0.0376421 -0.554395)
(-0.725679 0.0424671 -0.555407)
(-0.757724 0.198015 -0.612448)
(-0.617929 0.0760815 -0.619672)
(-0.810786 0.197001 -0.678279)
(-0.54515 0.236457 -0.452145)
(-0.665746 -0.0714795 -0.342627)
(-0.634211 -0.0895564 -0.513141)
(-0.647939 -0.0421296 -0.456605)
(-0.849768 -0.0604505 -0.627785)
(-0.665519 -0.102331 -0.324808)
(-0.539437 0.0690855 -0.426374)
(-0.412598 -0.00302325 -0.304378)
(-0.694758 0.0328213 -0.530622)
(-0.417514 0.14565 -0.334781)
(-0.611327 -0.00491295 -0.33048)
(-0.533708 0.0732572 -0.31563)
(-0.640741 0.0931436 -0.632418)
(-0.714691 0.193516 -0.636753)
(-0.727274 0.156477 -0.620164)
(-0.667978 0.19129 -0.551471)
(-0.771863 0.136137 -0.710251)
(-0.867179 0.0387169 -0.650387)
(-0.699738 0.0659237 -0.497089)
(-0.451104 -0.0391046 -0.421221)
(-0.716408 0.135015 -0.616257)
(-0.741073 0.229052 -0.658922)
(-0.802167 0.241976 -0.676691)
(-0.744344 -0.107065 -0.484031)
(-0.672919 -0.117951 -0.525393)
(-0.295804 0.0651986 -0.334492)
(-0.723807 -0.0580551 -0.503974)
(-0.703626 -0.00213806 -0.549043)
(-0.524167 0.191162 -0.47856)
(-0.702149 0.0410564 -0.620865)
(-0.594884 0.212057 -0.541638)
(-0.826644 0.152513 -0.669795)
(-0.809095 0.200297 -0.683623)
(-0.685833 0.185126 -0.624641)
(-0.676399 0.265517 -0.616909)
(-0.510915 0.193445 -0.469424)
(-0.692254 0.211548 -0.63071)
(-0.455735 0.185088 -0.427479)
(-0.607333 0.250357 -0.579091)
(-0.5635 0.236683 -0.508607)
(-0.494141 0.189263 -0.517542)
(-0.672679 -0.122646 -0.517483)
(-0.738343 -0.0563071 -0.532707)
(-0.700313 -0.11929 -0.516407)
(-0.797623 -0.00510426 -0.612095)
(-0.767607 -0.0109938 -0.501741)
(-0.781557 0.108327 -0.606781)
(-0.730949 0.10909 -0.544102)
(-0.817621 0.149336 -0.639456)
(-0.715291 0.0938707 -0.522074)
(-0.70998 0.0997971 -0.51884)
(-0.642845 -0.0701993 -0.300386)
(-0.781808 -0.0285024 -0.496767)
(-0.714316 -0.0937791 -0.539625)
(-0.76792 -0.0647553 -0.593828)
(-0.852834 -0.0215615 -0.629139)
(-0.818903 -0.060134 -0.620245)
(-0.770913 -0.128942 -0.459519)
(-0.74227 -0.0890974 -0.43171)
(-0.649499 -0.145041 -0.376882)
(-0.865877 0.0339487 -0.643764)
(-0.83335 -0.031186 -0.600536)
(-0.883925 -0.0301102 -0.58978)
(-0.849694 -0.0238672 -0.574259)
(-0.750363 -0.0645456 -0.431881)
(-0.572814 0.00588755 -0.293641)
(-0.76212 0.0656906 -0.608532)
(-0.584832 0.0577083 -0.436056)
(-0.770471 -0.0511145 -0.490896)
(-0.702465 0.0262731 -0.450763)
(-0.685515 0.0544736 -0.550404)
(-0.365716 0.000433857 -0.168677)
(-0.525826 0.0216562 -0.395946)
(-0.587089 0.0381486 -0.395187)
(-0.788784 -0.0181215 -0.599013)
(-0.852322 -0.0229599 -0.644237)
(-0.886933 -0.0226718 -0.61489)
(-0.781234 0.0101754 -0.597)
(-0.688363 0.275634 -0.660222)
(-0.403883 0.199631 -0.408668)
(-0.726154 0.19633 -0.716528)
(-0.740718 0.186516 -0.732337)
(-0.703542 0.218564 -0.604132)
(-0.574709 -0.105219 -0.459034)
(-0.459325 0.131459 -0.349341)
(-0.447012 0.143075 -0.508325)
(-0.334375 0.0851717 -0.269129)
(-0.456383 0.125392 -0.467879)
(-0.435511 0.16416 -0.418976)
(-0.486644 0.00844979 -0.23637)
(-0.5076 0.0271802 -0.255393)
(-0.758362 -0.0100313 -0.647091)
(-0.75809 -0.0171566 -0.644321)
(-0.735065 -0.0761517 -0.564803)
(-0.656665 -0.0971388 -0.49825)
(-0.63619 0.0215925 -0.482444)
(-0.739769 0.0154332 -0.49429)
(-0.792369 0.189992 -0.714338)
(-0.831108 0.127142 -0.665131)
(-0.800176 0.160547 -0.708739)
(-0.751606 0.14029 -0.604106)
(-0.813243 0.191068 -0.691847)
(-0.819156 0.144065 -0.694557)
(-0.74986 0.0436871 -0.667301)
(-0.65655 0.0334118 -0.571763)
(-0.671525 0.055436 -0.587039)
(-0.78331 0.16093 -0.712196)
(-0.68173 0.143839 -0.605037)
(-0.673937 0.100616 -0.588546)
(-0.651389 0.0859326 -0.644641)
(-0.614068 0.0794017 -0.592696)
(-0.768574 0.0994091 -0.617273)
(-0.841125 0.111166 -0.655427)
(-0.822241 0.0925715 -0.68178)
(-0.820168 0.14054 -0.693706)
(-0.801454 0.064763 -0.597907)
(-0.851207 0.108623 -0.66166)
(-0.811821 0.102952 -0.694819)
(-0.662088 -0.0537189 -0.458936)
(-0.616566 -0.105311 -0.461251)
(-0.688965 0.0128463 -0.531435)
(-0.640062 0.134207 -0.421992)
(-0.724326 0.233982 -0.679332)
(-0.750395 0.0722764 -0.577803)
(-0.716757 0.200377 -0.623997)
(-0.632217 0.224025 -0.548837)
(-0.759846 0.0950825 -0.66188)
(-0.621205 -0.0623736 -0.405368)
(-0.603351 0.0638111 -0.364326)
(-0.759362 0.184865 -0.727049)
(-0.674029 -0.0172802 -0.617112)
(-0.746941 0.0716256 -0.654762)
(-0.752573 0.0847391 -0.643851)
(-0.479281 0.13023 -0.445854)
(-0.646147 0.161934 -0.604355)
(-0.504152 0.130973 -0.513135)
(-0.460846 0.0199767 -0.484745)
(-0.319764 0.0166203 -0.215274)
(-0.790012 -0.0192239 -0.58228)
(-0.815155 0.037369 -0.635582)
(-0.863199 0.0490364 -0.641925)
(-0.765989 -0.0817365 -0.492446)
(-0.839805 -0.030337 -0.580738)
(-0.792077 0.0205167 -0.539205)
(-0.479059 0.0584051 -0.380196)
(-0.567967 0.0306848 -0.31504)
(-0.785366 0.053904 -0.640976)
(-0.575539 0.111277 -0.434884)
(-0.694278 0.0461952 -0.478773)
(-0.735344 0.0206449 -0.47784)
(-0.62239 0.12664 -0.515585)
(-0.44847 0.10362 -0.403498)
(-0.315303 0.0169477 -0.288188)
(-0.51216 0.0460741 -0.48053)
(-0.494438 0.0375753 -0.505891)
(-0.674914 0.0723006 -0.59903)
(-0.589452 0.0905972 -0.386425)
(-0.488049 0.0405812 -0.274493)
(-0.477873 0.0740086 -0.395491)
(-0.394441 0.0451722 -0.237491)
(-0.464863 0.0470338 -0.425925)
(-0.706444 0.0906408 -0.593845)
(-0.795158 0.0832374 -0.657209)
(-0.831656 0.109541 -0.662109)
(-0.630951 0.127967 -0.535352)
(-0.849179 0.0745512 -0.653401)
(-0.831412 0.100759 -0.665536)
(-0.664197 0.117785 -0.583127)
(-0.641288 -0.0267459 -0.494951)
(-0.702135 -0.00906391 -0.545666)
(-0.663868 -0.0168063 -0.481672)
(-0.33872 0.107564 -0.256577)
(-0.78185 0.225111 -0.717511)
(-0.754252 0.242637 -0.663023)
(-0.781488 0.225064 -0.714633)
(-0.770994 0.235539 -0.680136)
(-0.796611 0.218586 -0.699119)
(-0.805862 0.211922 -0.687827)
(-0.768817 0.238255 -0.682216)
(-0.39461 0.165742 -0.361919)
(-0.500235 0.144126 -0.333404)
(-0.427749 0.183423 -0.379474)
(-0.496091 0.190564 -0.366246)
(-0.479822 0.210282 -0.398172)
(-0.433088 0.168437 -0.360839)
(-0.544033 -0.0150792 -0.253024)
(-0.591216 -0.085814 -0.290592)
(-0.608035 -0.063106 -0.289783)
(-0.685118 -0.0698833 -0.359312)
(-0.562213 -0.0161622 -0.264981)
(-0.804887 0.242345 -0.688366)
(-0.799758 0.188479 -0.652274)
(-0.786395 0.234115 -0.679985)
(-0.696845 0.160539 -0.569396)
(-0.791403 0.181113 -0.628079)
(-0.787871 0.199651 -0.660813)
(-0.606473 -0.101137 -0.503615)
(-0.545034 -0.111514 -0.444019)
(-0.558508 -0.142306 -0.427286)
(-0.508202 -0.0994058 -0.430293)
(-0.762962 0.00670705 -0.532646)
(-0.830502 -0.00655194 -0.608795)
(-0.754289 -0.00567249 -0.563435)
(-0.777167 -0.0151825 -0.575031)
(-0.737661 -0.0187322 -0.509199)
(-0.791658 -0.00390225 -0.59541)
(-0.79479 -0.131135 -0.570543)
(-0.668976 -0.0610923 -0.347263)
(-0.591494 -0.103646 -0.259729)
(-0.695509 -0.106211 -0.369291)
(-0.632829 -0.0532695 -0.296057)
(-0.750152 -0.107278 -0.4047)
(-0.775298 -0.107316 -0.463245)
(-0.714257 0.0550221 -0.594119)
(-0.606823 0.0453202 -0.504486)
(-0.66496 0.0130221 -0.571145)
(-0.576087 0.0390796 -0.481831)
(-0.596051 0.0757225 -0.506331)
(-0.579167 0.0666747 -0.478033)
(-0.600995 0.036455 -0.51498)
(-0.460245 0.0283462 -0.366606)
(-0.575064 0.0389288 -0.479861)
(-0.504874 0.00565335 -0.442909)
(-0.556393 0.0104191 -0.469191)
(-0.461579 0.0113432 -0.345068)
(-0.462004 0.0145064 -0.346778)
(-0.550483 0.00227884 -0.469992)
(-0.835351 -0.0957869 -0.605127)
(-0.684262 0.00234205 -0.516153)
(-0.786274 0.0333118 -0.608151)
(-0.378388 -0.0192561 -0.336189)
(-0.418747 -0.0635737 -0.386971)
(-0.335642 0.126622 -0.309124)
(-0.314624 0.090414 -0.256833)
(-0.355228 0.123581 -0.314482)
(-0.374676 0.12802 -0.311864)
(-0.664996 0.0360867 -0.387278)
(-0.709637 0.0740497 -0.469984)
(-0.593942 0.0396784 -0.321907)
(-0.624222 -0.00541541 -0.333546)
(-0.640035 0.0728751 -0.382639)
(-0.476677 0.116995 -0.357351)
(-0.574716 0.137522 -0.421414)
(-0.551188 0.0740216 -0.33421)
(-0.482166 0.0944864 -0.313747)
(-0.475628 0.0705953 -0.283029)
(-0.580703 0.0894898 -0.371706)
(-0.690577 0.163955 -0.662442)
(-0.630352 0.11364 -0.614625)
(-0.798709 0.016571 -0.554001)
(-0.71835 -0.0106533 -0.469119)
(-0.651106 0.171179 -0.572284)
(-0.781944 0.149856 -0.689389)
(-0.623616 0.174315 -0.552793)
(-0.755705 0.167595 -0.67164)
(-0.721647 0.178448 -0.632548)
(-0.751441 0.185182 -0.654155)
(-0.72657 0.164822 -0.64692)
(-0.687044 0.0467866 -0.596889)
(-0.680876 0.0806719 -0.601125)
(-0.649862 0.0854009 -0.544421)
(-0.675275 0.0886001 -0.59588)
(-0.753241 0.120551 -0.6419)
(-0.78749 0.145828 -0.692959)
(-0.718507 0.138346 -0.609997)
(-0.756474 0.156463 -0.658721)
(-0.739581 0.140173 -0.635931)
(-0.756863 0.14287 -0.651011)
(-0.748162 0.150679 -0.649505)
(-0.668999 0.134744 -0.658051)
(-0.667884 0.154931 -0.648953)
(-0.627429 0.129973 -0.641999)
(-0.613648 0.108581 -0.616579)
(-0.655977 0.167271 -0.661722)
(-0.717045 0.1882 -0.644024)
(-0.766058 0.0658892 -0.610531)
(-0.711927 0.169476 -0.615099)
(-0.75235 0.109439 -0.595387)
(-0.699799 0.187424 -0.603515)
(-0.70111 0.180932 -0.597006)
(-0.755015 0.108656 -0.607796)
(-0.643573 0.00437626 -0.549293)
(-0.739664 0.0207782 -0.571755)
(-0.616416 -0.0267569 -0.486544)
(-0.757988 0.0307573 -0.652067)
(-0.767117 0.0593395 -0.617778)
(-0.773629 0.0853434 -0.655068)
(-0.758544 0.106145 -0.644357)
(-0.760763 0.0716862 -0.677557)
(-0.756773 0.0672852 -0.674409)
(-0.766108 0.0937755 -0.640042)
(-0.368725 0.0155231 -0.370027)
(-0.383907 -0.00629591 -0.396309)
(-0.354586 0.0285597 -0.375665)
(-0.780322 0.0127226 -0.562208)
(-0.847385 0.059645 -0.654615)
(-0.787438 0.0186439 -0.602234)
(-0.853957 0.0517446 -0.65776)
(-0.859243 0.0269889 -0.628057)
(-0.864927 0.0384622 -0.628365)
(-0.84383 0.0444293 -0.647836)
(-0.725403 0.109708 -0.608221)
(-0.549147 0.133193 -0.462548)
(-0.693651 0.124511 -0.573638)
(-0.598804 0.127932 -0.478133)
(-0.720908 0.0973759 -0.555478)
(-0.712557 0.0878049 -0.541186)
(-0.631713 0.137147 -0.500658)
(-0.641511 -0.0667652 -0.549487)
(-0.581009 0.048784 -0.533426)
(-0.604727 -0.0597427 -0.529907)
(-0.532513 0.00931974 -0.50044)
(-0.55742 -0.038692 -0.515198)
(-0.550654 -0.0225164 -0.514274)
(-0.569768 -0.00323584 -0.524686)
(-0.452709 -0.0175989 -0.426749)
(-0.551213 0.0531193 -0.500996)