/*--------------------------------*- C++ -*----------------------------------*\
| =========                 |                                                 |
| \\      /  F ield         | OpenFOAM: The Open Source CFD Toolbox           |
|  \\    /   O peration     | Version:  v1612+                                |
|   \\  /    A nd           | Web:      www.OpenFOAM.com                      |
|    \\/     M anipulation  |                                                 |
\*---------------------------------------------------------------------------*/
FoamFile
{
    version     2.0;
    format      ascii;
    class       volVectorField;
    location    "118";
    object      wallShearStress;
}
// * * * * * * * * * * * * * * * * * * * * * * * * * * * * * * * * * * * * * //

dimensions      [0 2 -2 0 0 0 0];

internalField   uniform (0 0 0);

boundaryField
{
    WALL
    {
        type            calculated;
        value           nonuniform List<vector> 
1541
(
(0.0157622 0.00181847 0.0135989)
(0.0156293 0.00285617 0.0142288)
(0.00903045 0.00115822 0.00665274)
(0.00958098 0.00192937 0.00758747)
(0.0136763 0.00429589 0.0143038)
(0.0149525 0.0050653 0.0160136)
(0.0168855 0.00628687 0.0109454)
(0.0164993 0.00563467 0.00881834)
(0.00960838 -0.00061376 0.00880621)
(0.00902301 -0.000336344 0.00816896)
(0.00890075 -0.000765526 0.00756714)
(0.00857505 -0.00101268 0.00734844)
(0.00920409 -0.000368139 0.007889)
(0.0088651 0.000117999 0.00780387)
(0.0138746 0.00353876 0.0147003)
(0.0134114 0.00285585 0.0155442)
(0.0130865 0.00189361 0.0039933)
(0.0126955 0.00155676 0.00426049)
(0.0208291 0.00529549 0.00913376)
(0.0195205 0.0055746 0.00891155)
(0.0183789 0.00632269 0.00950545)
(0.0180369 0.00714336 0.00950279)
(0.0201463 0.00329914 0.00597551)
(0.0209952 0.00326804 0.00986331)
(0.0216245 0.00285633 0.0099825)
(0.020068 0.00302556 0.00734159)
(0.0197392 0.00242629 0.00714534)
(0.0201833 0.00534777 0.00701443)
(0.0198045 0.00604549 0.00729211)
(0.0164442 0.00715799 0.0101252)
(0.0186429 0.00698153 0.0107312)
(0.0149695 -0.00159638 0.0169024)
(0.0137199 -5.8412e-05 0.0165499)
(0.0167475 0.00420432 0.00897663)
(0.0158525 0.00288411 0.00672081)
(0.0173207 0.00404661 0.00872298)
(0.0141563 0.00115755 0.0141263)
(0.0142991 0.00201783 0.0145397)
(0.0141336 0.00460004 0.0129712)
(0.0138796 0.00496841 0.0130426)
(0.0147613 0.00375786 0.00454069)
(0.0146645 0.00409569 0.00455395)
(0.016063 0.00845458 0.00418653)
(0.0161651 0.00937088 0.00683621)
(0.0168936 0.00887214 0.00503337)
(0.0149189 0.00281419 0.00506372)
(0.0135171 0.00349469 0.0141213)
(0.0143012 0.00177353 0.0152592)
(0.0139694 0.00328524 0.0149533)
(0.0134688 0.00781189 0.00847279)
(0.0144372 0.00848247 0.00774807)
(0.0179514 0.00846778 0.00629562)
(0.0176441 0.00894314 0.00666397)
(0.00950847 0.000866842 0.00882887)
(0.0107865 0.00202653 0.0104051)
(0.00950026 3.53606e-05 0.010117)
(0.00905273 -0.000132437 0.00976377)
(0.0105975 0.00177487 0.0114809)
(0.00976848 -0.00125714 0.00535716)
(0.00880429 -0.00152365 0.00564781)
(0.0158687 0.00973947 0.00899441)
(0.0158128 0.00816848 0.00785527)
(0.00780294 -0.000984225 0.00871252)
(0.0214722 0.00291358 0.0107139)
(0.020892 0.00432737 0.0106759)
(0.020364 0.00522202 0.0111989)
(0.0199717 0.00483434 0.0101135)
(0.021522 -0.000590945 0.0102094)
(0.00923983 0.000680167 0.00896588)
(0.00949908 0.00113325 0.0089269)
(0.0138768 0.0014487 0.0163676)
(0.0142696 0.00287006 0.0169298)
(0.0183881 0.0064428 0.00844373)
(0.0188709 0.00662865 0.0100799)
(0.0180771 0.00578009 0.0087903)
(0.0193371 0.00658623 0.0090322)
(0.0193021 0.00599619 0.00842248)
(0.0200496 0.004835 0.008506)
(0.0161711 0.00115314 0.0112611)
(0.0168872 0.0015424 0.0115735)
(0.0161419 0.00168437 0.0119335)
(0.0167883 0.00110641 0.0110974)
(0.016734 0.00125092 0.0108094)
(0.0160617 0.00166259 0.0119268)
(0.0201818 0.00541057 0.00527024)
(0.0196667 0.00601889 0.00483379)
(0.0204466 0.00540676 0.00536751)
(0.0200739 0.0061655 0.00518232)
(0.0199776 0.00449557 0.00567634)
(0.0200831 0.00451715 0.0057854)
(0.0172875 -0.00272056 0.012928)
(0.0182929 -0.00367971 0.0129146)
(0.0172078 -0.00294612 0.0137917)
(0.0181804 -0.00319258 0.0119156)
(0.0181636 -0.00290563 0.0119933)
(0.016776 -0.00299338 0.0137336)
(0.0199117 0.00101965 0.00867652)
(0.019998 0.00110923 0.00841962)
(0.0190067 -0.000172908 0.00874046)
(0.0202424 0.000543203 0.00870203)
(0.019457 0.000350427 0.0084472)
(0.0194887 -0.000108427 0.00890975)
(0.0169769 -0.000857779 0.0117993)
(0.0159131 -0.000985294 0.0120971)
(0.0164917 -0.00100118 0.0111127)
(0.0170713 -0.000477691 0.0123351)
(0.0157766 -0.000472617 0.0127061)
(0.0152631 -0.000314655 0.0124273)
(0.0155651 0.0051063 0.00626598)
(0.01569 0.00415324 0.00619648)
(0.0157759 0.0038874 0.00612838)
(0.0155683 0.00553337 0.006788)
(0.016726 0.00575088 0.00739706)
(0.0154121 0.0049346 0.00633546)
(0.011901 0.000249747 0.00488254)
(0.00987279 -0.00051589 0.00520634)
(0.00989045 -0.000871315 0.00534558)
(0.0106252 -0.000473326 0.00503521)
(0.0111736 -0.000223024 0.00521209)
(0.0120475 -9.10687e-05 0.00513024)
(0.0140357 0.00118201 0.016595)
(0.0143369 0.00189848 0.0166503)
(0.0136973 0.00175902 0.0162125)
(0.0135584 0.00208299 0.0155457)
(0.0130872 0.00364109 0.0139318)
(0.0139121 0.00435813 0.0142962)
(0.0133136 0.0040119 0.0141716)
(0.0130334 0.00411377 0.0131789)
(0.0100983 0.000722007 0.00419072)
(0.0110929 0.000993633 0.00410022)
(0.00938844 0.000809966 0.00807644)
(0.00944687 0.000148049 0.00790301)
(0.00932369 0.000699529 0.00786069)
(0.00946466 0.000942364 0.00842649)
(0.00923475 0.000335881 0.00784275)
(0.00923009 0.000291778 0.00745903)
(0.0103353 -0.000477904 0.0060354)
(0.0091598 -0.000397361 0.0049907)
(0.00901777 -0.000473537 0.00577473)
(0.00893439 -0.000416298 0.0055168)
(0.00874056 -0.000501236 0.00557253)
(0.00904788 -0.000263415 0.0097158)
(0.00823193 -0.000419448 0.00882319)
(0.00882791 -0.000393319 0.00951987)
(0.00920189 0.000292269 0.00969023)
(0.0102408 0.00116837 0.0110963)
(0.00987622 -0.000304492 0.0107015)
(0.00795675 -0.00149269 0.0067829)
(0.00766475 -0.0015281 0.00643702)
(0.0079442 -0.00153616 0.00633879)
(0.0075864 -0.00142604 0.00581341)
(0.00776857 -0.00137061 0.00635108)
(0.00801549 -0.00145375 0.0062031)
(0.0147896 0.00721117 0.011069)
(0.0136186 0.00897832 0.0127539)
(0.0131222 0.00656505 0.0113093)
(0.0162608 0.0082243 0.012572)
(0.014612 0.01004 0.0107152)
(0.0144997 0.00756328 0.0126531)
(0.0152067 0.00898299 0.00952166)
(0.0163863 0.00951172 0.00931582)
(0.0148666 0.00926786 0.00905244)
(0.0159298 0.0107891 0.0076898)
(0.0158718 0.0104677 0.00764429)
(0.0159747 0.0101815 0.0089375)
(0.0146244 -0.00227771 0.0163219)
(0.0154014 -0.00268816 0.0160993)
(0.0151341 -0.00320368 0.0158593)
(0.0161043 -0.0033991 0.0153157)
(0.0160799 -0.00349824 0.0155346)
(0.0153467 -0.00263478 0.0167983)
(0.022289 0.00209697 0.0111121)
(0.0216798 0.00106161 0.0100255)
(0.0221088 0.00188523 0.0104331)
(0.0214634 0.00227358 0.0105537)
(0.0222226 0.00102379 0.010784)
(0.0216096 0.00116769 0.0104654)
(0.0213021 0.00172205 0.00979035)
(0.0217135 -0.00039227 0.010378)
(0.0210745 -0.000163258 0.0100685)
(0.022132 0.00105316 0.0105029)
(0.0219867 0.000166503 0.0104428)
(0.0205474 0.00415137 0.0122285)
(0.0205283 0.0036726 0.011107)
(0.0190909 0.00481158 0.0118203)
(0.0214304 0.00363567 0.011696)
(0.00951754 0.000296223 0.0109348)
(0.0092947 0.000916793 0.011058)
(0.00899758 -3.48542e-05 0.0101922)
(0.0091971 0.00139616 0.0110562)
(0.0100476 0.00147447 0.0116529)
(0.0192738 0.0059962 0.0110941)
(0.0171598 0.00602335 0.0108677)
(0.0182549 0.00604301 0.0112377)
(0.0189745 0.00523991 0.0116081)
(0.0196078 0.00415449 0.0100248)
(0.0193669 0.00488605 0.0105552)
(0.0191098 0.00532594 0.0103892)
(0.0197023 0.00527237 0.00997123)
(0.0197652 0.00465344 0.00934432)
(0.0205411 0.00436989 0.00999282)
(0.0198138 0.0059034 0.0108263)
(0.0189266 0.00454628 0.00960622)
(0.0156454 0.00868251 0.0073566)
(0.0167986 0.00841736 0.00676405)
(0.0157515 0.0102852 0.00731974)
(0.0160595 0.010051 0.00707751)
(0.0161552 0.00876478 0.0067369)
(0.0160247 0.0104457 0.00758721)
(0.0143868 0.00822025 0.0103839)
(0.0135898 0.00819332 0.00925363)
(0.0146493 0.0101483 0.00992655)
(0.0142631 0.00993173 0.00997437)
(0.016356 0.00910668 0.00992142)
(0.0159423 0.00878222 0.0104329)
(0.0154604 0.00895399 0.00831987)
(0.0155385 0.00858415 0.010387)
(0.0152167 0.00937653 0.00709858)
(0.0162582 0.00995644 0.00774762)
(0.0164888 0.010449 0.00821501)
(0.0172504 0.00932488 0.0103568)
(0.0160063 0.00922519 0.00749881)
(0.0167219 0.00827101 0.00726668)
(0.0161737 0.00787344 0.00582792)
(0.015809 0.00764184 0.00732861)
(0.0157682 0.00713001 0.00596666)
(0.0150788 0.00859175 0.00708048)
(0.00968176 -0.00121429 0.00573116)
(0.00804192 -0.001259 0.00562931)
(0.00879094 -0.00109679 0.00540786)
(0.00840942 -0.00116562 0.00490145)
(0.00944936 -0.000859756 0.00501066)
(0.00862371 -0.00135304 0.00607619)
(0.00810775 -0.00104487 0.00555701)
(0.0086487 -0.000934767 0.00852972)
(0.00807812 -0.0012825 0.00703091)
(0.00837119 -0.00121529 0.00803839)
(0.00808267 -0.00130321 0.00747013)
(0.0085464 -0.000917847 0.00849716)
(0.00819757 -0.00133299 0.00774178)
(0.0134857 0.00567105 0.011357)
(0.0133525 0.00688362 0.0108618)
(0.0157375 0.0063319 0.0119828)
(0.015444 0.00659918 0.0110308)
(0.0137603 0.00596907 0.0107751)
(0.0124299 0.0046049 0.0103553)
(0.0111779 0.000295022 0.00489226)
(0.0105008 -0.000182693 0.00532893)
(0.0118856 0.000598626 0.00492147)
(0.0100124 0.000104494 0.00468908)
(0.0108261 0.000283308 0.00489499)
(0.0118413 0.000758426 0.00456983)
(0.00991306 -0.000456496 0.00495431)
(0.00995512 -0.000312669 0.00538234)
(0.0100941 -0.000196095 0.00491766)
(0.0102188 -0.000227312 0.00470932)
(0.00829192 -0.000517164 0.00469681)
(0.00848446 -0.00114146 0.00594988)
(0.00836795 -0.000786439 0.00593458)
(0.00906472 -0.000964907 0.00581052)
(0.00827786 -0.00100767 0.00569273)
(0.0089101 -0.000831638 0.00541798)
(0.00881083 -0.00105658 0.00562361)
(0.00871301 -0.000383042 0.00587151)
(0.00893863 -0.000198587 0.006886)
(0.00891461 -0.000223242 0.00643318)
(0.00878125 -0.000469365 0.00601537)
(0.00886092 -0.000444704 0.00643169)
(0.00913151 -0.000364067 0.00616003)
(0.00883036 0.00166364 0.00704876)
(0.0102508 0.00329962 0.00842792)
(0.0104687 0.0044714 0.00898683)
(0.0109861 0.00265137 0.00889352)
(0.00903035 0.00240576 0.00758728)
(0.0107494 0.00294152 0.00896297)
(0.0110947 0.00331522 0.0101527)
(0.0132171 0.00565511 0.0112473)
(0.0121827 0.00462241 0.0109131)
(0.0118601 0.00380247 0.0105241)
(0.0105678 0.00384118 0.0100949)
(0.0127346 0.00458553 0.010294)
(0.0107323 0.00332188 0.00970039)
(0.0112711 0.00375495 0.0101871)
(0.0102059 0.00200092 0.00919424)
(0.0104287 0.00203572 0.00968987)
(0.0109667 0.00280918 0.00983981)
(0.0102857 0.00242499 0.00915571)
(0.0106195 0.00434011 0.00952129)
(0.0101554 0.00302366 0.00867656)
(0.0109037 0.00358826 0.00903934)
(0.013363 0.00484726 0.0112594)
(0.0106358 0.00509765 0.00976062)
(0.0131096 0.00510454 0.0102048)
(0.00982275 0.000336784 0.00524225)
(0.00952709 0.000161349 0.0046279)
(0.00916219 0.000313978 0.005102)
(0.00926982 0.000284856 0.00514908)
(0.00910405 0.000252204 0.00520397)
(0.00913848 0.00036257 0.00571828)
(0.00877985 0.000418923 0.00577618)
(0.00906647 0.0006297 0.00614002)
(0.00892431 0.000544421 0.00551958)
(0.020045 0.00639151 0.00680948)
(0.0190957 0.00703209 0.00655598)
(0.0195602 0.00419604 0.00649025)
(0.0195526 0.00606714 0.00661807)
(0.0195402 0.0072087 0.00707352)
(0.0196017 0.00528641 0.0063952)
(0.0171565 0.0073184 0.00816832)
(0.0178271 0.00768073 0.00755964)
(0.0170687 0.00836303 0.00846347)
(0.0176598 0.00837856 0.00787902)
(0.0171752 0.00782407 0.00696703)
(0.0171992 0.00793239 0.00916682)
(0.017013 0.00819503 0.00855327)
(0.0153214 0.00907715 0.00820289)
(0.0150378 0.00839799 0.00757164)
(0.0169565 0.0082897 0.00778995)
(0.0157601 0.0092924 0.00816887)
(0.0175636 0.00833777 0.00759823)
(0.0174027 0.00855265 0.00806765)
(0.0189403 0.00808 0.00621733)
(0.0179368 0.00898015 0.00620401)
(0.0161412 0.00780147 0.00630513)
(0.0179853 0.00873421 0.0058686)
(0.00942531 -1.66797e-05 0.005027)
(0.0101738 0.000223291 0.00445398)
(0.00925143 0.000227947 0.00516893)
(0.00955722 0.000100905 0.00513739)
(0.0100316 9.93205e-05 0.00568896)
(0.00980252 0.000460393 0.00464658)
(0.00974911 0.000313633 0.00493855)
(0.0126699 0.0066428 0.00988575)
(0.0127485 0.00732091 0.0097387)
(0.0133139 0.00580983 0.0100881)
(0.0131055 0.00480584 0.010458)
(0.0133436 0.00474473 0.01141)
(0.0118502 0.00482452 0.0095173)
(0.0150841 0.00633782 0.0099983)
(0.0137904 0.00583711 0.0104383)
(0.0139974 0.00663038 0.00892744)
(0.0152213 0.00662662 0.0110285)
(0.0130716 0.00729816 0.0102377)
(0.0166271 0.00839402 0.00876339)
(0.0149416 0.00675985 0.00925707)
(0.0155088 0.00798841 0.0096847)
(0.0170336 0.00750335 0.00964149)
(0.0158038 0.00779037 0.00907698)
(0.0155164 0.00773098 0.00908417)
(0.0154056 0.00849742 0.00906838)
(0.0130288 0.0060577 0.00954438)
(0.0126523 0.00758788 0.0092813)
(0.0150885 0.00725203 0.0103134)
(0.0144257 0.00733075 0.00852827)
(0.0151671 0.0070418 0.00998117)
(0.0140128 0.00626766 0.012925)
(0.0145127 0.00541819 0.0143132)
(0.0147417 0.00571497 0.0143298)
(0.0141931 0.00718609 0.0139844)
(0.0137407 0.00711927 0.0122953)
(0.0140305 0.00708017 0.0132454)
(0.0143814 0.00244583 0.0151533)
(0.0148308 0.00364974 0.0151265)
(0.0137299 0.00512666 0.014744)
(0.01278 0.00274078 0.0139502)
(0.0141353 0.00450449 0.0152416)
(0.0158077 0.0064317 0.0155089)
(0.0149872 0.00593707 0.0152361)
(0.0145745 0.00708621 0.0126109)
(0.0147234 0.00616056 0.0130928)
(0.0136226 0.00650709 0.0114094)
(0.0137586 0.00527588 0.0154329)
(0.0152253 0.00612006 0.0145312)
(0.0144853 0.00771021 0.0140238)
(0.015326 0.00681776 0.0145861)
(0.0148504 0.0058231 0.0140179)
(0.0143794 0.00463511 0.0138503)
(0.0133146 0.00474533 0.0127779)
(0.0149513 0.00463255 0.0142321)
(0.0156558 0.00666703 0.0142361)
(0.0155953 -0.00141669 0.013199)
(0.0162232 -0.00149701 0.0129578)
(0.0158054 -0.00187574 0.0124623)
(0.0161818 -0.00158867 0.0136317)
(0.0165691 -0.00185214 0.0125953)
(0.0171619 -0.00191965 0.0123211)
(0.0163222 0.00588986 0.00670859)
(0.015376 0.00701798 0.00651433)
(0.01615 0.00743721 0.00840766)
(0.0160526 0.00703004 0.00709087)
(0.0157297 0.00614301 0.00648369)
(0.016767 0.00720841 0.00850508)
(0.0132511 0.00134276 0.004776)
(0.0127938 0.000876306 0.00502978)
(0.014534 0.002349 0.00506546)
(0.0147721 0.00299632 0.00481245)
(0.0138095 0.00166973 0.00526156)
(0.014393 0.0074571 0.0129288)
(0.0169364 0.00633512 0.0135327)
(0.0156964 0.00623777 0.0128246)
(0.0143375 0.00773853 0.0125733)
(0.0142426 0.00575789 0.0125472)
(0.0149627 0.00689761 0.0140191)
(0.0154778 0.00604332 0.00422335)
(0.0162749 0.00585734 0.00447121)
(0.0162031 0.00773548 0.00507858)
(0.0155683 0.00652758 0.00424532)
(0.0165585 0.00741678 0.00518252)
(0.0155114 0.00727358 0.00405837)
(0.0137464 0.00227906 0.00423578)
(0.0145305 0.00317232 0.00430429)
(0.0152665 0.00434403 0.00507075)
(0.0147957 0.00339264 0.00467638)
(0.0142252 0.00267005 0.00439638)
(0.0140975 0.00207055 0.00455391)
(0.0142303 0.00758524 0.013125)
(0.014201 0.00877706 0.0123067)
(0.0137028 0.00788529 0.0121494)
(0.0135457 0.00790203 0.0121759)
(0.0146016 0.00645631 0.0128969)
(0.0134329 0.00698345 0.0113744)
(0.0154933 0.00877253 0.0122341)
(0.0151862 0.0092698 0.0113402)
(0.0144675 0.00822612 0.012049)
(0.0146453 0.00933877 0.0102527)
(0.0142769 0.00921198 0.00945522)
(0.014418 0.00802915 0.010123)
(0.0152997 -0.000746591 0.0129989)
(0.0149586 -0.000589265 0.0136634)
(0.0147844 0.000103545 0.014174)
(0.0155344 4.38137e-05 0.0145934)
(0.0161177 -0.000951812 0.0133875)
(0.0152322 -0.000184492 0.0137064)
(0.0164282 0.00896272 0.00493965)
(0.0152841 0.00823472 0.00387403)
(0.0165377 0.00532696 0.00798412)
(0.0156826 0.00476728 0.00765333)
(0.0163412 0.00416274 0.0075327)
(0.0156881 0.00374287 0.00659655)
(0.0158922 0.0032023 0.00702443)
(0.0161257 0.00393912 0.00784519)
(0.0151212 0.00639257 0.0103879)
(0.0161087 0.00678342 0.00997667)
(0.016587 0.0063134 0.00953095)
(0.0156377 0.00699064 0.0106772)
(0.0166245 0.00647755 0.00970784)
(0.0163217 0.00588456 0.0109173)
(0.016291 0.00597614 0.00820134)
(0.0172217 0.00577347 0.00997302)
(0.0157246 0.00293514 0.00637546)
(0.015119 0.00203177 0.00621732)
(0.0159437 0.00304414 0.00746261)
(0.0147607 0.00208702 0.00593492)
(0.016052 0.00371663 0.00688233)
(0.0153263 0.00481742 0.0164584)
(0.0148972 0.00624202 0.0146393)
(0.0139051 0.00654417 0.0146736)
(0.0151142 0.00461818 0.016677)
(0.0144379 0.00668574 0.0137474)
(0.0150479 0.00573897 0.0151525)
(0.0139632 0.000411369 0.0174371)
(0.0144035 -0.00122084 0.0171372)
(0.0142247 0.000605743 0.0180385)
(0.0136726 -0.000421562 0.0171758)
(0.0135058 0.000584881 0.0169474)
(0.0141243 0.00362593 0.0173648)
(0.0140763 0.00479698 0.0164851)
(0.0099964 -0.00124109 0.00539824)
(0.0106626 -0.00100324 0.00520766)
(0.0114335 -0.00067627 0.00536686)
(0.0104727 -0.000844763 0.00516493)
(0.00952263 -0.00110589 0.00498551)
(0.0111163 -0.000505827 0.00486168)
(0.0207191 0.00280062 0.00919991)
(0.0207769 0.00231068 0.00898302)
(0.0210828 0.00157305 0.0095087)
(0.0216604 0.000976181 0.0100261)
(0.0208384 0.00104282 0.00925908)
(0.0199863 0.00290741 0.00680944)
(0.019766 0.0026831 0.0066734)
(0.0194395 0.00175259 0.00715821)
(0.0202301 0.0020208 0.00752625)
(0.0203194 0.00357905 0.00703553)
(0.0195176 0.00361786 0.00620952)
(0.0200473 0.00508162 0.00824182)
(0.019069 0.00584308 0.00833199)
(0.0191169 0.00670702 0.00762463)
(0.0200156 0.00565372 0.00810282)
(0.0202049 0.0047148 0.00759395)
(0.0191756 0.00447689 0.00709394)
(0.0199017 0.00205903 0.00769241)
(0.0204598 0.00317224 0.00740649)
(0.0198904 0.00166819 0.00779228)
(0.0204246 0.0039961 0.00761848)
(0.0196806 0.00148759 0.00787112)
(0.0205265 0.0024471 0.00787825)
(0.0199276 -0.00104927 0.00984051)
(0.020932 -0.000798771 0.0107152)
(0.019383 -0.00182011 0.0105701)
(0.0203 -0.000841776 0.0100608)
(0.0197167 -0.00215487 0.011196)
(0.0188473 -0.00212141 0.0104119)
(0.021 -0.00244391 0.0111817)
(0.0207108 -0.00228343 0.0107917)
(0.0222122 -0.00120647 0.0108585)
(0.0215576 -0.00178459 0.0112357)
(0.0213831 -0.00116568 0.0107524)
(0.0215253 -0.00279918 0.011611)
(0.0165772 -0.00365046 0.0133352)
(0.0169388 -0.00392147 0.0144373)
(0.0177302 -0.00376912 0.0136246)
(0.0178947 -0.0039013 0.0123653)
(0.0171547 -0.00405114 0.0141295)
(0.0178516 -0.00440042 0.0135442)
(0.0195063 -0.00441901 0.0127041)
(0.0203438 -0.003742 0.0115056)
(0.0148905 -0.000687845 0.0164236)
(0.0160253 -0.000965475 0.016721)
(0.0160822 -0.00229015 0.0153365)
(0.0166768 -0.00245957 0.0153861)
(0.015512 -0.00196107 0.0156513)
(0.0148803 -0.00101158 0.0153822)
(0.0170292 -0.00251776 0.0137738)
(0.0153455 -0.00143568 0.0139938)
(0.01573 -0.00138863 0.0155521)
(0.0156124 -0.00203693 0.0138265)
(0.0158017 -0.00197062 0.0144087)
(0.0155471 -0.000725806 0.015813)
(0.0154133 -0.00112953 0.0150461)
(0.0178844 -0.0031924 0.0118764)
(0.0198979 -0.00293023 0.0123946)
(0.0197318 -0.00255395 0.0108239)
(0.0191724 -0.00352409 0.012286)
(0.0200348 -0.00311759 0.0118128)
(0.0199776 0.00228059 0.00752004)
(0.0203169 0.00466759 0.00582943)
(0.0200065 0.00343572 0.00642981)
(0.0198365 0.00458045 0.00549969)
(0.0208844 0.00397654 0.00633448)
(0.0166934 0.00141936 0.0103402)
(0.0176078 0.00140731 0.0103944)
(0.0167727 0.00158812 0.0104476)
(0.0171499 0.00156556 0.0110474)
(0.0176935 0.00139518 0.00961418)
(0.0175973 0.00171471 0.0104883)
(0.015182 0.00290532 0.0129782)
(0.0149791 0.00265692 0.0122771)
(0.0147045 0.0049914 0.012945)
(0.0147881 0.00321025 0.0130982)
(0.0145834 0.00406627 0.012971)
(0.0155393 0.0038821 0.0131927)
(0.0165402 0.00218925 0.0118738)
(0.015951 0.00241682 0.0123557)
(0.0164746 0.00224774 0.0118102)
(0.0155731 0.00334037 0.0126666)
(0.0162795 0.00319369 0.0127138)
(0.0163193 0.00340076 0.0130727)
(0.0153335 0.00488421 0.0132038)
(0.0149701 0.00650754 0.0131901)
(0.014174 0.00537118 0.0125581)
(0.0144166 0.00552435 0.0124993)
(0.0150086 0.00505502 0.0131894)
(0.0141245 0.00555384 0.0124412)
(0.0122833 -9.32826e-06 0.00513083)
(0.0122136 -0.000117938 0.00529171)
(0.0131313 0.000539422 0.00529262)
(0.0134903 0.000343889 0.00581705)
(0.0118003 -0.000943953 0.00581634)
(0.0110002 -0.000603007 0.00518605)
(0.0168127 0.0055012 0.0150115)
(0.0146881 0.00537101 0.0154096)
(0.0143355 0.0057931 0.0144346)
(0.014521 0.00419114 0.0145459)
(0.0160793 0.00605079 0.0145168)
(0.0151203 0.00631803 0.014492)
(0.0151012 0.00554409 0.0116028)
(0.0156821 0.00703041 0.0114989)
(0.0158395 0.00626476 0.0135764)
(0.0150337 0.00571132 0.0108325)
(0.0154102 0.00706203 0.0118677)
(0.0167883 0.0061294 0.0140786)
(0.0171563 0.00630968 0.0107728)
(0.0152659 0.00548519 0.011737)
(0.0174377 0.00536455 0.0115461)
(0.0158544 0.00665076 0.0124472)
(0.0173175 0.00613639 0.0119005)
(0.0167358 0.00528705 0.0128752)
(0.01525 0.00303631 0.0141932)
(0.0148293 0.00197615 0.0135579)
(0.0158936 0.00163745 0.0135439)
(0.015863 0.00303408 0.014545)
(0.0154319 0.00142123 0.0129523)
(0.0164787 0.000156781 0.0113116)
(0.0175064 0.000193414 0.0114727)
(0.0154691 0.00040672 0.0117102)
(0.0174733 0.000449864 0.011982)
(0.0161191 0.000986509 0.0126781)
(0.0159701 0.000339147 0.0119022)
(0.0138851 0.00333337 0.0036196)
(0.0137017 0.00265492 0.00383598)
(0.0146145 0.0044425 0.00362013)
(0.0150681 0.00434681 0.00382691)
(0.0142622 0.00366717 0.0035544)
(0.0134527 0.00287086 0.00354766)
(0.0117375 0.00105357 0.00442421)
(0.0123487 0.00162488 0.00400708)
(0.0117743 0.00167918 0.00379176)
(0.0105432 0.000726045 0.00398602)
(0.0120684 0.00108832 0.00444765)
(0.00852543 -0.000831162 0.00711255)
(0.00885102 -0.00074717 0.00733038)
(0.00889761 -0.000637254 0.00786301)
(0.00862316 -0.0009366 0.00679466)
(0.00840805 -0.000839329 0.00650618)
(0.0087636 -0.000715309 0.00705504)
(0.00837572 0.00156817 0.00880506)
(0.00899786 0.000617482 0.00857689)
(0.00922349 -0.00039795 0.00839044)
(0.00864997 -0.000130211 0.00798488)
(0.00924211 -0.000697217 0.00750617)
(0.00905374 0.000155163 0.0080465)
(0.00939296 -0.000194904 0.00933959)
(0.00881364 -0.000527459 0.00840052)
(0.00837551 -0.00135753 0.00681053)
(0.00890719 -0.00120742 0.00777627)
(0.00862635 -0.0006441 0.00620631)
(0.00858883 -0.000642576 0.00652174)
(0.00857879 -0.000769004 0.00622372)
(0.00878002 -0.000905776 0.00632471)
(0.00848345 -0.00124128 0.00661032)
(0.00823415 -0.00119448 0.00667943)
(0.00834223 -0.0010476 0.00626615)
(0.00923165 -0.000599924 0.00809821)
(0.00922676 0.000336175 0.00911399)
(0.00923235 -0.000957386 0.00790979)
(0.00868053 -0.000935351 0.0076039)
(0.00895835 -0.000435808 0.00729642)
(0.00872601 -0.000623075 0.00677205)
(0.00888715 -0.000441939 0.00692561)
(0.00896293 -0.000511594 0.00674757)
(0.0095243 -0.000128759 0.00822514)
(0.00888155 -0.000245719 0.0076082)
(0.0132295 0.0052431 0.013847)
(0.0142783 0.00513479 0.0153753)
(0.0135151 0.00567721 0.0137434)
(0.0141398 0.00578073 0.0146215)
(0.0128301 0.0022508 0.00374451)
(0.0150251 0.00494889 0.00360326)
(0.0156457 0.0048485 0.00447415)
(0.0155328 0.00533242 0.00417274)
(0.015195 0.00465299 0.00389942)
(0.0129012 0.00145514 0.00457004)
(0.0144187 0.0027565 0.00427487)
(0.01508 0.00399833 0.00395941)
(0.01493 0.0042172 0.00373871)
(0.0145134 0.00429034 0.0132071)
(0.0149841 0.00369851 0.0139309)
(0.0142061 0.00463718 0.0129368)
(0.014281 0.00543001 0.0136353)
(0.0151521 0.0035546 0.0138539)
(0.016 0.00193872 0.0126683)
(0.0149288 0.00252474 0.0128722)
(0.0157603 0.00112441 0.0117637)
(0.0162787 0.00115341 0.0125884)
(0.0157641 0.00186943 0.0133563)
(0.0162157 0.00074344 0.0122774)
(0.0158026 0.00065616 0.0128661)
(0.0148746 0.00389638 0.0139437)
(0.0143409 0.00413461 0.0134831)
(0.0156504 0.00332639 0.0138586)
(0.0148567 0.00219733 0.0140467)
(0.0141587 0.00298106 0.0143195)
(0.013729 0.00361616 0.0136573)
(0.0136652 0.00387971 0.013422)
(0.0153672 0.00119995 0.0138778)
(0.0159432 0.000909528 0.0131992)
(0.0166698 -7.61939e-05 0.0115344)
(0.0155496 0.000171421 0.0121805)
(0.0154723 0.0054347 0.0127066)
(0.0150009 0.00673798 0.0124359)
(0.0179675 0.0070137 0.00986025)
(0.0172126 0.00604998 0.00827661)
(0.0190563 0.0011549 0.00817637)
(0.0185547 0.000816087 0.00846843)
(0.0180033 0.000780635 0.00869471)
(0.0177567 0.000761294 0.00901323)
(0.0176676 0.000768899 0.00977698)
(0.0175062 0.000903221 0.0100251)
(0.0184575 0.00175274 0.00747924)
(0.0178463 0.0011424 0.00784931)
(0.0187751 0.00134654 0.00829497)
(0.0186156 0.00127807 0.00932785)
(0.0172325 0.00114027 0.00928171)
(0.0194443 0.00147555 0.00784685)
(0.0190939 0.00180551 0.00739703)
(0.0190422 0.00247386 0.00624366)
(0.0186974 0.00163226 0.00708018)
(0.0193008 0.00206238 0.00669643)
(0.0194458 0.00273935 0.00624813)
(0.0202393 0.00300088 0.00655041)
(0.015308 0.00416313 0.0125956)
(0.0174881 0.000444765 0.00934852)
(0.0167019 0.000551155 0.0109424)
(0.015456 0.00387781 0.0130632)
(0.0173959 0.00194953 0.0112345)
(0.0187478 -0.000339136 0.00896702)
(0.0180504 -0.000921363 0.00998419)
(0.0189515 0.000149913 0.00797378)
(0.0190736 -6.38886e-05 0.00942125)
(0.0196912 0.000355262 0.00855609)
(0.0170785 -0.00219398 0.0102796)
(0.0179525 -0.00186119 0.00966583)
(0.015892 -0.00238438 0.0140218)
(0.0160337 -0.00283396 0.0151837)
(0.0160779 -0.00217715 0.015805)
(0.015102 -0.00151753 0.0163213)
(0.0176582 -0.00495612 0.0146501)
(0.0165328 -0.0046543 0.0147439)
(0.018009 -0.0045828 0.0129533)
(0.018115 -0.00418357 0.0118963)
(0.0187228 -0.00464907 0.0149481)
(0.0189051 -0.00461509 0.014088)
(0.0173127 -0.00348659 0.0149698)
(0.0211566 0.000613316 0.00969028)
(0.0211641 -0.000709693 0.0104167)
(0.0215428 0.000482054 0.0101957)
(0.0211398 -0.001058 0.0103418)
(0.0211812 -0.00197401 0.0111058)
(0.0209757 -0.00400487 0.0131448)
(0.0207093 -0.00332998 0.0113031)
(0.0196859 -0.00407869 0.0127045)
(0.0193209 -0.00401251 0.0127584)
(0.0209324 -0.00299724 0.0119622)
(0.0190682 -0.00379548 0.0123818)
(0.0185764 -0.0036471 0.0120411)
(0.0203063 -0.00314957 0.0118356)
(0.0209567 -0.00225236 0.0113343)
(0.0200319 -0.00291902 0.0115617)
(0.0203246 -0.0029403 0.0113834)
(0.020324 -0.0021136 0.0108361)
(0.021292 -0.000323604 0.0105714)
(0.0208363 -0.000127343 0.00981757)
(0.0204545 -0.0010599 0.0103957)
(0.0215975 -0.00189206 0.0114678)
(0.018495 -0.00183087 0.00987923)
(0.0182961 -0.00203878 0.0103901)
(0.0179716 0.00716044 0.00820942)
(0.0179232 0.00719896 0.00922521)
(0.0191556 0.000814496 0.00784823)
(0.019794 0.00173798 0.00758369)
(0.018528 0.000484499 0.0074578)
(0.0201255 0.000914253 0.00851755)
(0.0200878 0.00331215 0.00720119)
(0.0194141 0.000495777 0.00846362)
(0.0179521 0.00690502 0.00746992)
(0.0188584 0.00679943 0.00820746)
(0.019068 0.000383225 0.00805262)
(0.0197086 0.00144594 0.00757688)
(0.019612 0.000622273 0.00837023)
(0.0201989 0.00270736 0.00735197)
(0.0199716 0.00117732 0.00807019)
(0.0188686 0.0010296 0.00746968)
(0.0191877 0.00160608 0.00711635)
(0.0194805 -0.00084305 0.00955888)
(0.0192639 -0.000875382 0.0094146)
(0.0197618 0.000499127 0.00883492)
(0.0201791 0.000174141 0.00937469)
(0.018452 -0.00123555 0.00939603)
(0.0202625 0.00141909 0.00862271)
(0.0197566 0.00160542 0.00829438)
(0.0207555 0.00255678 0.00866358)
(0.0203885 0.0019591 0.00833047)
(0.0207389 0.00267307 0.00836187)
(0.0209729 0.00357452 0.00862861)
(0.020203 0.00354069 0.00768147)
(0.0202172 0.00418589 0.00820309)
(0.0190236 -0.000721999 0.00927507)
(0.0181948 -0.00126707 0.00931769)
(0.0187158 -0.000608112 0.0102893)
(0.0190113 -0.000673705 0.009056)
(0.0188246 -0.00130885 0.0105046)
(0.0170081 -0.00132778 0.00944692)
(0.0182199 -0.00022736 0.00762253)
(0.0186588 -0.000960809 0.00956618)
(0.0189041 -0.0005057 0.00992455)
(0.0201014 0.000533279 0.00913814)
(0.02073 0.000505455 0.00941979)
(0.0206935 0.00186923 0.00878961)
(0.0210547 0.00182933 0.00941112)
(0.0184845 0.00702697 0.00881866)
(0.0160821 0.00782546 0.00961879)
(0.018074 0.00704701 0.0103872)
(0.0167913 0.00724426 0.0102163)
(0.020639 0.00307426 0.00859418)
(0.0209713 0.00449977 0.00849443)
(0.0203337 0.003311 0.00806628)
(0.0206727 0.00472881 0.00923513)
(0.0205744 0.00359145 0.00887542)
(0.0202937 0.00244038 0.00865623)
(0.0213099 0.00382557 0.00926196)
(0.0205838 0.0039183 0.00947903)
(0.0201427 0.00440652 0.00872851)
(0.019348 0.00544076 0.00875798)
(0.0199925 0.00506975 0.00941502)
(0.0181722 0.00752099 0.0100006)
(0.0192755 0.0059701 0.00932272)
(0.0106595 -0.00101613 0.00553242)
(0.00989809 -0.000718294 0.00483433)
(0.00818699 -0.00138793 0.00852109)
(0.00769218 -0.00160694 0.00789133)
(0.00795408 -0.00182122 0.00771907)
(0.0141194 0.000858028 0.0178191)
(0.0146877 0.005352 0.0136427)
(0.0140239 0.00454428 0.014701)
(0.0138067 0.00270883 0.0176565)
(0.01478 0.00157633 0.0174232)
(0.0132658 0.00298912 0.0151347)
(0.0137697 0.00286805 0.0161457)
(0.0136564 0.000280153 0.0164354)
(0.0138436 0.00165814 0.0170127)
(0.0163871 0.00569322 0.0117439)
(0.0167167 0.00546684 0.0102337)
(0.0142802 0.00136563 0.00579831)
(0.0137762 0.00125725 0.00562197)
(0.0120626 -2.87305e-05 0.00491603)
(0.0141807 0.00127956 0.00564482)
(0.0124009 3.4029e-06 0.0051924)
(0.0155547 0.00449676 0.00798766)
(0.0167939 0.00391575 0.00805855)
(0.0148778 0.00648675 0.0118966)
(0.0138137 0.00804362 0.0114385)
(0.016652 0.000130398 0.0102418)
(0.0174648 0.000613861 0.00974034)
(0.0176339 0.000318354 0.0108907)
(0.0181251 0.000376062 0.00904477)
(0.0169672 -0.00026679 0.00999266)
(0.0191744 0.00023966 0.00926855)
(0.0181592 -0.000434764 0.0100224)
(0.0186951 -0.000181919 0.0100487)
(0.0165486 -0.000488033 0.0109173)
(0.0177161 -8.43192e-05 0.0107136)
(0.0142514 0.00122568 0.0144205)
(0.015723 0.00111045 0.0138178)
(0.014417 0.00230458 0.0150369)
(0.0152753 0.000529588 0.0138944)
(0.0133237 0.00594407 0.0129028)
(0.014172 0.00742159 0.0118979)
(0.0157265 0.0072558 0.0136789)
(0.0144551 0.0106429 0.00970943)
(0.015618 0.00865889 0.0113465)
(0.0131318 0.00699853 0.0108184)
(0.0142192 0.0105605 0.00981681)
(0.0135244 0.00947321 0.0119893)
(0.0133497 0.00739567 0.0113866)
(0.0155605 0.00651039 0.013846)
(0.0120201 0.000783635 0.00471665)
(0.0119705 0.000957092 0.00436888)