/*--------------------------------*- C++ -*----------------------------------*\
| =========                 |                                                 |
| \\      /  F ield         | OpenFOAM: The Open Source CFD Toolbox           |
|  \\    /   O peration     | Version:  v1612+                                |
|   \\  /    A nd           | Web:      www.OpenFOAM.com                      |
|    \\/     M anipulation  |                                                 |
\*---------------------------------------------------------------------------*/
FoamFile
{
    version     2.0;
    format      ascii;
    class       volScalarField;
    location    "200";
    object      p;
}
// * * * * * * * * * * * * * * * * * * * * * * * * * * * * * * * * * * * * * //

dimensions      [0 2 -2 0 0 0 0];

internalField   nonuniform List<scalar> 
18793
(
3.45634
3.36078
3.46821
3.32541
3.33096
3.33511
3.3319
3.31933
3.32639
3.34333
3.33468
3.34113
3.32664
3.34607
3.33883
3.36415
3.37349
3.35103
3.35697
3.37784
3.36657
3.35832
3.35093
3.37034
3.34318
3.35365
3.37748
3.37924
3.36888
3.38149
3.38599
3.36446
3.35757
3.37187
3.37467
3.37609
3.38257
3.55572
3.55979
3.55869
3.56082
3.55184
3.53447
3.54846
3.53813
3.54971
3.55624
3.56026
3.55455
3.55661
3.34338
3.34227
3.34045
3.34237
3.34217
3.34761
3.34328
3.33445
3.33955
3.33562
3.34604
3.34359
3.33625
3.34257
3.33817
3.33899
3.50931
3.51354
3.51288
3.50951
3.51402
3.49278
3.51766
3.51797
3.52099
3.51131
3.52334
3.5188
3.51156
3.52115
3.51292
3.52156
3.52114
3.52727
3.37724
3.38063
3.37038
3.37926
3.38008
3.39047
3.39525
3.3912
3.39042
3.37527
3.37135
3.36196
3.3852
3.37041
3.39028
3.39923
3.39983
3.41037
3.40522
3.41179
3.38972
3.40327
3.41676
3.39289
3.40342
3.40195
3.40588
3.37781
3.37369
3.41249
3.40738
3.38498
3.39012
3.37801
3.37027
3.40934
3.3939
3.40235
3.39489
3.44463
3.44115
3.45253
3.45979
3.44752
3.45376
3.45076
3.47809
3.47708
3.47379
3.45434
3.47623
3.46849
3.47128
3.47332
3.46364
3.46659
3.45954
3.4774
3.48216
3.4852
3.47138
3.46121
3.46309
3.48483
3.47292
3.4819
3.47752
3.46296
3.45482
3.45347
3.4811
3.46746
3.46067
3.4602
3.47158
3.38308
3.38905
3.37114
3.37997
3.38857
3.37862
3.37719
3.36174
3.36917
3.36405
3.3575
3.40978
3.39829
3.44474
3.43268
3.41932
3.41697
3.39835
3.40905
3.39746
3.40553
3.42334
3.43229
3.43288
3.42533
3.43927
3.43753
3.43546
3.41732
3.42393
3.43147
3.32446
3.3222
3.32127
3.32027
3.32468
3.32213
3.33118
3.32992
3.32224
3.31982
3.32168
3.32426
3.3318
3.32233
3.32852
3.33077
3.32992
3.32549
3.32342
3.32479
3.3216
3.32059
3.32146
3.32386
3.31988
3.32713
3.3218
3.3278
3.32369
3.32507
3.32942
3.32354
3.32101
3.32696
3.32879
3.3268
3.3323
3.42442
3.42319
3.41516
3.42404
3.4348
3.41372
3.41049
3.42087
3.42344
3.41047
3.41399
3.40981
3.4046
3.40454
3.42378
3.41748
3.41036
3.41286
3.32413
3.31682
3.31106
3.3235
3.31656
3.30953
3.30892
3.30911
3.30853
3.31667
3.30622
3.30367
3.30881
3.30769
3.29481
3.30403
3.30288
3.30761
3.31196
3.34777
3.34373
3.36699
3.37516
3.348
3.34569
3.35159
3.36215
3.37708
3.36386
3.35895
3.3517
3.3643
3.36787
3.3799
3.35103
3.37796
3.37146
3.37362
3.36539
3.37513
3.38094
3.37782
3.3869
3.39623
3.37179
3.36791
3.3579
3.36551
3.36754
3.3858
3.38089
3.38555
3.37519
3.39018
3.37521
3.28947
3.29648
3.29136
3.29369
3.29306
3.29425
3.29586
3.294
3.29001
3.29682
3.29118
3.49838
3.50091
3.50948
3.50724
3.52393
3.51909
3.4977
3.50222
3.51433
3.50302
3.51037
3.51358
3.50694
3.50809
3.51354
3.51341
3.52064
3.52185
3.51273
3.51851
3.45567
3.45097
3.45582
3.45529
3.45677
3.45346
3.4525
3.4717
3.46083
3.45578
3.47333
3.46551
3.46021
3.45428
3.46465
3.46436
3.46919
3.46957
3.4633
3.3694
3.36849
3.38209
3.36975
3.37614
3.36188
3.38079
3.40414
3.40179
3.39492
3.39231
3.38194
3.39401
3.38709
3.37389
3.38433
3.37852
3.40172
3.28441
3.28492
3.2845
3.28642
3.28114
3.27901
3.28005
3.27991
3.2758
3.27647
3.27511
3.27974
3.27877
3.28016
3.27706
3.27792
3.38555
3.40116
3.37573
3.38632
3.37058
3.37186
3.38296
3.37183
3.37835
3.39498
3.39064
3.37644
3.37515
3.37787
3.31297
3.31507
3.32218
3.31508
3.30865
3.30473
3.3092
3.30689
3.30715
3.31488
3.316
3.31339
3.31268
3.30634
3.31017
3.31656
3.31415
3.30584
3.30951
3.28414
3.28555
3.28597
3.28994
3.29601
3.28706
3.29285
3.28722
3.28837
3.29084
3.4592
3.47285
3.44873
3.45414
3.46616
3.46683
3.45763
3.46268
3.47211
3.46798
3.47299
3.44718
3.45251
3.47374
3.45533
3.45853
3.45999
3.46283
3.45444
3.44094
3.43893
3.42635
3.42839
3.42403
3.43419
3.43692
3.42735
3.43375
3.41903
3.42031
3.42482
3.41684
3.42325
3.41674
3.42801
3.43843
3.44494
3.42743
3.43593
3.42432
3.41904
3.36594
3.38052
3.38602
3.39483
3.39825
3.40951
3.38734
3.40847
3.35982
3.37416
3.38131
3.37626
3.35275
3.36585
3.38816
3.3863
3.3768
3.40302
3.36081
3.3605
3.34406
3.34679
3.34036
3.33964
3.36226
3.36078
3.36864
3.3599
3.34282
3.34176
3.35049
3.35073
3.36482
3.37975
3.36591
3.3474
3.35736
3.35419
3.36802
3.37929
3.3726
3.41405
3.40111
3.40849
3.38943
3.39565
3.42775
3.41655
3.41689
3.41368
3.39372
3.32463
3.31853
3.31754
3.31199
3.31509
3.31609
3.30828
3.31421
3.33906
3.33043
3.3241
3.3261
3.34114
3.32753
3.33526
3.3184
3.33667
3.32197
3.32896
3.47188
3.47944
3.47772
3.48838
3.45753
3.47272
3.45196
3.44638
3.4597
3.46512
3.44877
3.46098
3.47549
3.46624
3.48044
3.47714
3.35582
3.35475
3.34629
3.35151
3.33749
3.33914
3.34128
3.33564
3.34064
3.33977
3.34368
3.34431
3.34345
3.34214
3.33746
3.338
3.35082
3.33817
3.33627
3.33338
3.45922
3.45678
3.44258
3.45393
3.44549
3.45168
3.45033
3.45028
3.45862
3.45953
3.4664
3.44898
3.45406
3.44168
3.44914
3.44443
3.52103
3.51851
3.50697
3.50438
3.49382
3.49933
3.5271
3.51904
3.52149
3.51691
3.51966
3.50929
3.52515
3.51924
3.50638
3.56339
3.53554
3.55974
3.55106
3.55941
3.52963
3.5356
3.54011
3.54381
3.53983
3.54088
3.54858
3.54577
3.5509
3.53843
3.53729
3.53906
3.33228
3.33978
3.33314
3.34586
3.34597
3.34921
3.32924
3.33685
3.32925
3.33155
3.34915
3.34659
3.33899
3.32778
3.32323
3.3274
3.31958
3.32214
3.32533
3.33161
3.32667
3.32713
3.31816
3.31243
3.32313
3.32408
3.31413
3.32178
3.31294
3.29038
3.28858
3.2933
3.28955
3.28881
3.28384
3.28977
3.29199
3.2879
3.29368
3.2907
3.29091
3.29003
3.30304
3.30003
3.2947
3.29482
3.30484
3.29296
3.30311
3.30548
3.30174
3.29554
3.30105
3.29464
3.29788
3.53496
3.53957
3.53082
3.53427
3.54151
3.55185
3.54672
3.5487
3.54725
3.53005
3.55452
3.55734
3.54473
3.55126
3.55814
3.5591
3.5541
3.55961
3.55772
3.54353
3.48493
3.49639
3.49899
3.49626
3.49355
3.48721
3.49954
3.50879
3.4871
3.48367
3.47243
3.36494
3.36423
3.37732
3.37412
3.37073
3.36387
3.37703
3.35975
3.36027
3.3929
3.40145
3.38829
3.38889
3.3747
3.37892
3.3836
3.39741
3.39726
3.38477
3.35477
3.3566
3.36372
3.37237
3.37927
3.35374
3.35779
3.36919
3.43199
3.42917
3.43391
3.40769
3.41787
3.42296
3.42635
3.41268
3.38662
3.39183
3.39117
3.39408
3.40618
3.39902
3.41833
3.3935
3.39061
3.39162
3.38739
3.40346
3.33426
3.33131
3.33625
3.3339
3.33376
3.33437
3.32855
3.33075
3.3327
3.33549
3.33859
3.47039
3.46634
3.47193
3.47924
3.48946
3.48545
3.48482
3.46997
3.49005
3.47616
3.4734
3.47549
3.48093
3.4823
3.48359
3.48845
3.48691
3.4861
3.48859
3.46844
3.46961
3.45983
3.4505
3.46439
3.44538
3.44028
3.43817
3.44503
3.43834
3.43336
3.45196
3.44013
3.43997
3.45291
3.36026
3.35107
3.36307
3.3576
3.35779
3.34776
3.35721
3.35207
3.34902
3.34507
3.35642
3.35637
3.36578
3.36292
3.35579
3.34609
3.34543
3.34715
3.35067
3.36598
3.35715
3.41875
3.41176
3.42003
3.39985
3.38688
3.4099
3.40671
3.39568
3.38359
3.40274
3.4143
3.40557
3.39443
3.3863
3.40813
3.39757
3.41519
3.40978
3.41215
3.34462
3.34039
3.33836
3.34594
3.33766
3.34365
3.3374
3.34053
3.33629
3.34506
3.33749
3.33383
3.3395
3.33477
3.34644
3.33822
3.33422
3.351
3.34795
3.33344
3.33426
3.47245
3.46755
3.47326
3.48176
3.4842
3.47704
3.47869
3.47024
3.4747
3.46493
3.48289
3.46453
3.4542
3.46797
3.4741
3.46417
3.45636
3.47296
3.46478
3.47085
3.3562
3.35425
3.35167
3.36735
3.35775
3.3507
3.34426
3.35571
3.34979
3.35591
3.36127
3.36569
3.36584
3.3611
3.3714
3.36782
3.37379
3.37899
3.3698
3.37055
3.42373
3.434
3.43488
3.4331
3.43134
3.4307
3.42973
3.42831
3.42508
3.4228
3.44129
3.42681
3.42376
3.43212
3.44059
3.42569
3.42267
3.43664
3.40617
3.40503
3.43401
3.42471
3.4353
3.42615
3.42954
3.41223
3.41798
3.40931
3.41413
3.41916
3.41877
3.38265
3.38209
3.41164
3.4097
3.40137
3.40366
3.38845
3.39787
3.38274
3.38878
3.39595
3.3888
3.40303
3.39207
3.39699
3.40197
3.39217
3.40206
3.39686
3.51562
3.51304
3.50627
3.50577
3.51032
3.51612
3.52452
3.49955
3.50741
3.51996
3.51499
3.51139
3.49726
3.50333
3.51292
3.5045
3.4253
3.43733
3.42238
3.43118
3.43744
3.41458
3.42054
3.42017
3.41249
3.41124
3.42976
3.43622
3.43821
3.43591
3.43638
3.41475
3.41959
3.43758
3.42002
3.45298
3.45032
3.43509
3.43253
3.44799
3.4488
3.44446
3.43054
3.44611
3.44352
3.43572
3.44925
3.46022
3.44255
3.43283
3.42721
3.43306
3.437
3.43501
3.44198
3.43215
3.43024
3.34579
3.34906
3.32202
3.32951
3.34724
3.34314
3.32622
3.32112
3.3394
3.33722
3.33029
3.32286
3.31837
3.34612
3.32549
3.32758
3.32553
3.40705
3.42117
3.41562
3.41266
3.4136
3.40436
3.40842
3.41627
3.39095
3.3995
3.33236
3.33193
3.33117
3.3336
3.33133
3.33558
3.335
3.3327
3.33065
3.32855
3.34688
3.35534
3.34525
3.35065
3.33838
3.33775
3.34665
3.34435
3.27397
3.26687
3.27521
3.3513
3.35867
3.35456
3.28938
3.29099
3.32596
3.32362
3.33123
3.30099
3.29936
3.30454
3.31743
3.31282
3.31141
3.28546
3.28333
3.285
3.39278
3.39454
3.3537
3.35275
3.30314
3.30172
3.28278
3.28085
3.28122
3.41788
3.41613
3.42302
3.29282
3.29403
3.34906
3.34299
3.34687
3.34858
3.40784
3.41077
3.31149
3.31312
3.30805
3.30051
3.30116
3.43395
3.43395
3.28947
3.29519
3.29522
3.41187
3.4017
3.40604
3.32431
3.32476
3.31579
3.31483
3.41212
3.41637
3.41719
3.39101
3.39589
3.44683
3.44049
3.44234
3.30027
3.30181
3.3703
3.35493
3.36734
3.35846
3.30451
3.30571
3.30804
3.33337
3.33799
3.44924
3.44511
3.4524
3.42038
3.39852
3.40937
3.40787
3.42822
3.42346
3.45495
3.45565
3.39207
3.38492
3.39504
3.31566
3.31474
3.31816
3.3108
3.30985
3.44668
3.44359
3.45335
3.45254
3.33998
3.34224
3.33396
3.44473
3.44767
3.45252
3.47334
3.47434
3.31024
3.31813
3.31607
3.42207
3.42211
3.32196
3.32415
3.3186
3.32116
3.31482
3.34365
3.34137
3.34536
3.40994
3.40991
3.36336
3.35862
3.47995
3.4816
3.33641
3.34488
3.34485
3.49638
3.49058
3.48961
3.46246
3.46162
3.37204
3.37245
3.3294
3.32675
3.32843
3.32749
3.32439
3.32319
3.32417
3.32414
3.46425
3.46587
3.46202
3.39034
3.37557
3.37863
3.50145
3.4986
3.50213
3.42315
3.42619
3.49952
3.50087
3.34327
3.33503
3.33791
3.33286
3.33208
3.46683
3.41591
3.41353
3.34521
3.34718
3.51711
3.51854
3.52079
3.51171
3.5117
3.50436
3.33365
3.33547
3.50737
3.5078
3.50724
3.3694
3.36924
3.35424
3.47967
3.4616
3.46277
3.4547
3.45996
3.33973
3.34435
3.34485
3.34333
3.33972
3.52677
3.52739
3.53287
3.38218
3.38149
3.46421
3.45759
3.49867
3.50113
3.34049
3.33881
3.53447
3.53387
3.54897
3.53783
3.54025
3.54416
3.35925
3.36246
3.35185
3.43615
3.44723
3.44021
3.44667
3.41087
3.40333
3.39981
3.34477
3.34822
3.36617
3.36088
3.35985
3.41317
3.41089
3.51798
3.52086
3.55221
3.55485
3.56093
3.34958
3.34898
3.35305
3.50662
3.5106
3.39822
3.40235
3.38211
3.38453
3.49566
3.49262
3.50026
3.48375
3.48982
3.35725
3.35684
3.56283
3.55616
3.55463
3.54874
3.55014
3.53923
3.5678
3.56205
3.55947
3.53658
3.54476
3.54132
3.51457
3.51535
3.53867
3.53479
3.55543
3.55258
3.54946
3.55864
3.55398
3.55064
3.53128
3.52568
3.53039
3.53504
3.53741
3.52996
3.54516
3.54331
3.53763
3.55517
3.55514
3.54536
3.55352
3.53333
3.54793
3.5404
3.53201
3.53861
3.53038
3.55092
3.54489
3.54039
3.53471
3.54119
3.54587
3.54597
3.54513
3.5382
3.54555
3.53793
3.54654
3.54264
3.54857
3.54732
3.54947
3.4639
3.47377
3.46829
3.4701
3.46127
3.44469
3.45044
3.46458
3.47169
3.43552
3.4605
3.45004
3.42344
3.4429
3.45466
3.48494
3.49248
3.50012
3.50077
3.40879
3.40807
3.35589
3.35209
3.35438
3.34998
3.35734
3.50465
3.50577
3.52245
3.51628
3.50776
3.50541
3.48063
3.46698
3.46885
3.48624
3.48631
3.46864
3.49091
3.49731
3.49529
3.49392
3.49481
3.36385
3.36227
3.36294
3.36618
3.3765
3.36056
3.37783
3.34202
3.34518
3.35085
3.34868
3.3504
3.35721
3.35059
3.354
3.34545
3.35077
3.35224
3.35373
3.35422
3.54488
3.5457
3.55502
3.55745
3.54054
3.5501
3.55168
3.55891
3.55604
3.55174
3.53979
3.55206
3.54211
3.54408
3.55142
3.54742
3.54273
3.5431
3.55572
3.54914
3.55056
3.55309
3.54974
3.54331
3.55959
3.55231
3.55036
3.54595
3.55307
3.54818
3.54232
3.54849
3.4827
3.48285
3.49967
3.49855
3.48697
3.48861
3.48606
3.50303
3.50418
3.50476
3.50618
3.50885
3.50167
3.49386
3.52104
3.49733
3.51654
3.50462
3.50307
3.51721
3.52992
3.53973
3.53684
3.5046
3.51115
3.5193
3.5257
3.51696
3.42505
3.42437
3.44832
3.44988
3.45521
3.35394
3.3508
3.35827
3.35554
3.35452
3.36141
3.35507
3.34682
3.34744
3.35625
3.34856
3.34865
3.36657
3.36518
3.36324
3.42381
3.40058
3.39817
3.39355
3.41245
3.40134
3.34361
3.3432
3.52599
3.52983
3.53041
3.52524
3.51949
3.51478
3.53089
3.52681
3.52411
3.52469
3.52625
3.53464
3.53095
3.52627
3.51513
3.53755
3.53062
3.52272
3.52073
3.5255
3.53455
3.53019
3.53163
3.52639
3.53864
3.5276
3.52204
3.52856
3.52562
3.51504
3.52639
3.52008
3.52075
3.51627
3.52569
3.52515
3.52396
3.52199
3.52016
3.52893
3.5345
3.51977
3.52922
3.5291
3.33515
3.33728
3.34189
3.34485
3.33524
3.33909
3.34151
3.34278
3.34512
3.47354
3.4724
3.48815
3.4929
3.48983
3.46462
3.45841
3.4749
3.47508
3.49121
3.49216
3.48554
3.49444
3.49635
3.4847
3.48313
3.48044
3.48421
3.49995
3.49375
3.42711
3.43397
3.44112
3.37073
3.37785
3.37508
3.37208
3.36516
3.36728
3.37368
3.37931
3.36102
3.36357
3.51519
3.51476
3.5289
3.53991
3.54513
3.53939
3.53809
3.53013
3.53269
3.52573
3.52993
3.52625
3.52269
3.53088
3.35218
3.34752
3.35192
3.35131
3.35068
3.34282
3.34736
3.34233
3.34472
3.34361
3.34517
3.34769
3.34842
3.33002
3.3402
3.33934
3.33743
3.33789
3.35246
3.34759
3.34456
3.34432
3.3437
3.35216
3.35782
3.40462
3.40838
3.41254
3.47783
3.47081
3.46567
3.49006
3.47956
3.48942
3.3666
3.37237
3.36537
3.3884
3.36432
3.37798
3.39676
3.50196
3.50215
3.50749
3.50128
3.51768
3.50875
3.50466
3.52093
3.50898
3.50299
3.51499
3.50672
3.50857
3.51062
3.34015
3.34156
3.33873
3.33807
3.33665
3.33941
3.33189
3.33433
3.3367
3.32919
3.33359
3.34035
3.3384
3.338
3.34246
3.33907
3.48959
3.50059
3.49673
3.50774
3.49618
3.49451
3.5116
3.50319
3.51285
3.50998
3.50779
3.5189
3.5186
3.50834
3.49624
3.5087
3.51092
3.51526
3.50589
3.51821
3.52075
3.51774
3.5118
3.51128
3.5133
3.52128
3.52912
3.52107
3.51789
3.33791
3.34321
3.34342
3.33703
3.3394
3.33651
3.34335
3.3423
3.34196
3.37747
3.37958
3.37294
3.36405
3.34478
3.34592
3.35191
3.34993
3.35519
3.36483
3.38207
3.36242
3.35671
3.35961
3.35832
3.37373
3.36041
3.36347
3.35274
3.35842
3.35748
3.37668
3.39578
3.43263
3.43719
3.42623
3.42111
3.45655
3.45105
3.43189
3.42603
3.42712
3.43833
3.45143
3.44195
3.45231
3.43758
3.44937
3.45851
3.32927
3.32597
3.33063
3.33095
3.3286
3.33333
3.32964
3.33592
3.32866
3.3321
3.33984
3.33837
3.33448
3.337
3.33623
3.33383
3.33911
3.32792
3.3412
3.3345
3.3345
3.33254
3.33233
3.33899
3.33542
3.34012
3.35182
3.34537
3.36047
3.35933
3.35529
3.4939
3.49641
3.45896
3.45213
3.44869
3.42984
3.42558
3.48147
3.49412
3.49345
3.48528
3.48274
3.49251
3.49123
3.49323
3.48823
3.5045
3.51085
3.49938
3.49664
3.4905
3.49201
3.4997
3.49625
3.51296
3.50834
3.50223
3.50494
3.51324
3.51015
3.49782
3.50275
3.51869
3.50686
3.51996
3.5114
3.50488
3.50221
3.34685
3.34663
3.35875
3.35881
3.36003
3.36993
3.40369
3.40019
3.4116
3.39711
3.38994
3.35358
3.36794
3.3531
3.35906
3.36245
3.36163
3.35591
3.36432
3.3736
3.37678
3.36805
3.35022
3.34558
3.3456
3.34522
3.34496
3.45853
3.45179
3.44675
3.45232
3.4494
3.487
3.4817
3.46774
3.48596
3.48121
3.48527
3.48812
3.48486
3.31796
3.32382
3.3213
3.32441
3.33314
3.33301
3.32663
3.32397
3.33023
3.32515
3.32597
3.32372
3.32717
3.3271
3.32878
3.33457
3.33046
3.33056
3.33468
3.32177
3.32252
3.3258
3.32211
3.32437
3.31797
3.32226
3.32345
3.32563
3.3172
3.32287
3.32333
3.32152
3.32633
3.32601
3.32357
3.32351
3.32438
3.3297
3.3371
3.33709
3.33194
3.33335
3.33832
3.33295
3.3318
3.33478
3.33121
3.33298
3.32557
3.32708
3.32676
3.32595
3.32772
3.33071
3.3337
3.33036
3.33191
3.32533
3.32485
3.32508
3.32497
3.41081
3.40897
3.41369
3.34074
3.35107
3.35515
3.34521
3.35658
3.36493
3.45413
3.46531
3.46503
3.4746
3.47791
3.4749
3.47666
3.48612
3.48662
3.48189
3.48721
3.48146
3.47252
3.46245
3.4738
3.48542
3.48447
3.4816
3.49027
3.48598
3.48294
3.48726
3.4784
3.4809
3.47835
3.47743
3.46653
3.48609
3.46515
3.48218
3.48204
3.5005
3.51008
3.49135
3.49747
3.48867
3.50663
3.50106
3.3452
3.34013
3.3386
3.33586
3.34101
3.34752
3.34535
3.34729
3.46949
3.47241
3.47419
3.4715
3.46691
3.46115
3.47243
3.46932
3.47896
3.47813
3.4708
3.49432
3.48494
3.50387
3.47836
3.48606
3.49252
3.48385
3.46904
3.47578
3.48709
3.48037
3.48007
3.48403
3.47747
3.48133
3.47887
3.36988
3.3684
3.37246
3.39441
3.37543
3.38378
3.39025
3.39508
3.38766
3.38546
3.38004
3.37039
3.37026
3.37505
3.3632
3.36686
3.40981
3.42002
3.41742
3.42691
3.4259
3.42975
3.41349
3.43083
3.44462
3.40026
3.40649
3.42532
3.41453
3.43963
3.38004
3.37876
3.37136
3.32267
3.33466
3.34785
3.33708
3.33646
3.33904
3.34797
3.3998
3.37146
3.36963
3.38317
3.36833
3.36578
3.36583
3.35699
3.35559
3.36246
3.31393
3.31629
3.31855
3.32166
3.31721
3.31594
3.31549
3.31795
3.32113
3.32297
3.32433
3.32619
3.33314
3.39264
3.40322
3.392
3.40483
3.41494
3.39884
3.38322
3.44006
3.44034
3.44521
3.45255
3.4538
3.40378
3.44146
3.419
3.30857
3.31279
3.31458
3.31161
3.31477
3.32438
3.32001
3.31681
3.31816
3.32611
3.46767
3.46701
3.4577
3.46547
3.46363
3.46486
3.46925
3.46958
3.45312
3.47237
3.4673
3.46914
3.4633
3.47236
3.47789
3.47852
3.47738
3.47251
3.46724
3.46021
3.46649
3.47897
3.47199
3.47228
3.4637
3.47539
3.47114
3.4639
3.46582
3.45935
3.47086
3.46058
3.45185
3.44935
3.45029
3.44389
3.45791
3.44883
3.44245
3.43953
3.42526
3.31618
3.32392
3.31794
3.3276
3.37447
3.37702
3.33796
3.33279
3.33459
3.3462
3.33905
3.33327
3.33201
3.34659
3.34263
3.34931
3.45854
3.46408
3.46098
3.46962
3.44288
3.43779
3.42135
3.44438
3.43653
3.30286
3.30589
3.30694
3.30798
3.30668
3.30769
3.30931
3.31095
3.31477
3.30813
3.30908
3.30854
3.31029
3.31671
3.31503
3.31833
3.31362
3.31615
3.3135
3.31472
3.31395
3.31526
3.31081
3.31348
3.31432
3.31515
3.34636
3.34766
3.35328
3.41846
3.41617
3.40715
3.40437
3.42598
3.43742
3.4407
3.44348
3.45382
3.44894
3.45398
3.44064
3.44928
3.45415
3.44865
3.45129
3.45017
3.44911
3.43845
3.45764
3.4298
3.43529
3.46404
3.45401
3.4682
3.43082
3.43667
3.42447
3.42757
3.41858
3.41038
3.42268
3.41459
3.41518
3.40441
3.415
3.41837
3.36311
3.37873
3.37332
3.37607
3.36671
3.3836
3.39224
3.38675
3.39796
3.39186
3.39429
3.37687
3.36409
3.40353
3.39416
3.43964
3.43696
3.4252
3.43853
3.43744
3.45373
3.45526
3.45299
3.44714
3.46862
3.46228
3.47059
3.4605
3.46449
3.46546
3.45445
3.45355
3.44666
3.45073
3.4467
3.4547
3.43845
3.43843
3.45119
3.44724
3.31723
3.31585
3.32816
3.32705
3.33036
3.32869
3.31782
3.33161
3.32275
3.32188
3.32187
3.31991
3.33008
3.33178
3.33711
3.33507
3.33357
3.32861
3.3008
3.30176
3.30471
3.30958
3.30396
3.30305
3.30435
3.30589
3.30911
3.31009
3.30873
3.30825
3.31441
3.3091
3.31374
3.31421
3.30807
3.30869
3.32219
3.32622
3.34227
3.34877
3.3441
3.33998
3.29699
3.30222
3.30187
3.30178
3.3116
3.31176
3.30511
3.30596
3.30814
3.30526
3.30994
3.30945
3.3035
3.30807
3.31213
3.31634
3.31386
3.31347
3.31298
3.31087
3.29772
3.29938
3.30228
3.29527
3.30205
3.30337
3.43398
3.44173
3.43394
3.44009
3.44566
3.44468
3.43587
3.44397
3.45189
3.43476
3.43965
3.44795
3.43866
3.4467
3.44448
3.44184
3.44691
3.4492
3.4419
3.438
3.44235
3.44885
3.44125
3.4385
3.44915
3.43925
3.45856
3.44778
3.45089
3.44728
3.39615
3.3959
3.38428
3.38029
3.39799
3.38876
3.38219
3.38274
3.40595
3.41068
3.40031
3.42074
3.42564
3.42072
3.42552
3.40985
3.41634
3.4026
3.43043
3.42052
3.42815
3.43028
3.35301
3.37615
3.35017
3.3608
3.36458
3.35299
3.36801
3.34884
3.3698
3.36802
3.35224
3.38119
3.38035
3.43423
3.42983
3.43377
3.42233
3.41077
3.4166
3.40579
3.40631
3.40346
3.39158
3.39305
3.38409
3.40162
3.4039
3.42779
3.4174
3.42684
3.40848
3.43339
3.42961
3.31394
3.31259
3.3112
3.314
3.31712
3.31699
3.3182
3.30666
3.31142
3.30681
3.30405
3.31285
3.31079
3.31001
3.31252
3.3122
3.31747
3.30976
3.3089
3.31041
3.30881
3.31447
3.31554
3.31999
3.3271
3.32838
3.339
3.33264
3.32872
3.32754
3.32535
3.32728
3.33661
3.3425
3.33178
3.32699
3.3294
3.33445
3.3289
3.34946
3.34036
3.41234
3.40445
3.42039
3.42901
3.41683
3.41535
3.40502
3.29164
3.29516
3.29238
3.29234
3.28689
3.28817
3.29614
3.29781
3.29792
3.43099
3.42005
3.43034
3.29608
3.29517
3.29384
3.29932
3.31057
3.30801
3.29945
3.30335
3.30543
3.29178
3.28534
3.28777
3.38366
3.38487
3.38622
3.38015
3.38548
3.4009
3.39968
3.39738
3.39133
3.405
3.40174
3.3969
3.4099
3.41351
3.38813
3.39137
3.40757
3.39961
3.3561
3.36293
3.35865
3.34668
3.35036
3.38433
3.37458
3.35741
3.3759
3.36508
3.35516
3.33249
3.33234
3.33731
3.31994
3.32331
3.33354
3.31475
3.32715
3.32936
3.3336
3.34006
3.34499
3.34784
3.34003
3.36033
3.35107
3.3622
3.36901
3.28832
3.29107
3.29069
3.29107
3.29166
3.29603
3.29287
3.29135
3.2927
3.294
3.29151
3.2966
3.30014
3.29523
3.29717
3.28816
3.28712
3.29087
3.28966
3.28853
3.29001
3.40767
3.41222
3.40626
3.39299
3.41057
3.4076
3.40501
3.40842
3.41371
3.40682
3.42413
3.41702
3.4301
3.42386
3.40552
3.40809
3.41233
3.27913
3.28226
3.27889
3.28759
3.27283
3.27991
3.27984
3.27657
3.28829
3.2926
3.29368
3.28599
3.29062
3.28839
3.29128
3.31245
3.31315
3.3223
3.37204
3.38027
3.38153
3.38348
3.37406
3.36864
3.35661
3.36329
3.36756
3.36808
3.36048
3.37719
3.37876
3.3818
3.38186
3.38276
3.37432
3.37902
3.38871
3.39779
3.38633
3.37859
3.38378
3.3776
3.27985
3.28354
3.28152
3.27895
3.28086
3.27875
3.28198
3.28218
3.28112
3.31759
3.31259
3.31153
3.30427
3.27375
3.27369
3.28259
3.28157
3.28816
3.28728
3.29606
3.30155
3.30015
3.30612
3.28837
3.29559
3.29305
3.29244
3.31327
3.29849
3.29846
3.29122
3.30275
3.31036
3.30383
3.30778
3.31021
3.30669
3.31022
3.31225
3.31802
3.31786
3.32479
3.32523
3.32067
3.33274
3.33482
3.33474
3.32382
3.33794
3.33761
3.39887
3.34598
3.3401
3.34301
3.27669
3.27761
3.27354
3.27711
3.2725
3.27372
3.27222
3.2739
3.27692
3.27849
3.27557
3.27632
3.27863
3.27755
3.27742
3.27801
3.36883
3.34932
3.36719
3.36212
3.36336
3.3566
3.36135
3.36978
3.37115
3.28362
3.28607
3.29309
3.29218
3.29091
3.30144
3.29857
3.29595
3.30958
3.31266
3.30035
3.31928
3.31365
3.27993
3.28332
3.27704
3.27601
3.27403
3.27569
3.39182
3.37278
3.39333
3.38711
3.38972
3.29233
3.2955
3.29643
3.29482
3.36986
3.37225
3.36775
3.30034
3.29691
3.29998
3.29357
3.29074
3.29508
3.29085
3.29198
3.28753
3.2956
3.2757
3.27612
3.27098
3.26799
3.27307
3.26919
3.27368
3.27434
3.27501
3.27865
3.27554
3.27495
3.27767
3.27822
3.27267
3.2755
3.42502
3.41937
3.40694
3.39868
3.38196
3.40164
3.40361
3.39917
3.40147
3.39314
3.38352
3.39135
3.40236
3.39436
3.28567
3.28675
3.28648
3.286
3.28771
3.29125
3.28978
3.29003
3.29146
3.28738
3.28857
3.30872
3.30678
3.30668
3.30517
3.30909
3.30652
3.30278
3.3009
3.30291
3.29897
3.3266
3.31978
3.31291
3.32699
3.31692
3.31656
3.31467
3.32042
3.31414
3.30666
3.30822
3.31586
3.36154
3.3624
3.35427
3.37344
3.37236
3.36468
3.36626
3.37261
3.36848
3.38411
3.38937
3.38039
3.38961
3.39147
3.38088
3.3733
3.36661
3.372
3.42103
3.40933
3.42889
3.42813
3.40289
3.41614
3.41138
3.40569
3.41389
3.42281
3.41117
3.41093
3.40346
3.37182
3.35924
3.38595
3.3793
3.3744
3.36986
3.36619
3.35879
3.38659
3.38904
3.38476
3.3019
3.30346
3.30385
3.29972
3.30158
3.29975
3.29995
3.30514
3.30544
3.27727
3.28075
3.28129
3.28233
3.27984
3.27902
3.28393
3.2807
3.28371
3.28627
3.32097
3.31574
3.32352
3.33132
3.32617
3.33332
3.33105
3.33396
3.33094
3.31867
3.31738
3.32099
3.31905
3.31651
3.31899
3.31661
3.44019
3.43774
3.43541
3.42576
3.4265
3.44121
3.45034
3.42798
3.42702
3.41922
3.43784
3.43073
3.45151
3.44084
3.37466
3.3737
3.37537
3.36502
3.37548
3.37503
3.36154
3.35154
3.42707
3.41926
3.41555
3.4101
3.4236
3.41695
3.42579
3.35126
3.33666
3.36517
3.36109
3.36048
3.34399
3.33084
3.36707
3.3659
3.34749
3.3494
3.44724
3.46322
3.45623
3.46039
3.44929
3.31744
3.31506
3.33663
3.32811
3.33533
3.3438
3.33407
3.32999
3.33623
3.38189
3.39586
3.40131
3.37994
3.39672
3.38588
3.40146
3.40255
3.38287
3.37295
3.39654
3.39376
3.3954
3.39776
3.39455
3.39416
3.37563
3.3727
3.47476
3.46007
3.47196
3.47122
3.47999
3.47884
3.47045
3.46238
3.47568
3.46886
3.32543
3.31942
3.31719
3.32349
3.32359
3.32021
3.32336
3.31802
3.31984
3.33294
3.3218
3.32053
3.32597
3.3229
3.33283
3.3357
3.32849
3.32393
3.31947
3.32436
3.3288
3.44918
3.44701
3.45059
3.46221
3.46639
3.46408
3.45688
3.45443
3.45773
3.46438
3.45958
3.46935
3.46757
3.49492
3.49736
3.48754
3.50264
3.49346
3.50159
3.50132
3.49371
3.5101
3.31668
3.32114
3.32149
3.32181
3.31663
3.31861
3.31769
3.31598
3.32371
3.32345
3.32505
3.32075
3.32252
3.42075
3.43725
3.43811
3.43776
3.42746
3.4156
3.44103
3.43821
3.49094
3.48882
3.4855
3.4887
3.48804
3.48654
3.48694
3.49426
3.49086
3.48793
3.48702
3.49005
3.47684
3.47715
3.46909
3.45985
3.4769
3.46446
3.46316
3.46386
3.4732
3.46723
3.46752
3.47355
3.47119
3.47047
3.47553
3.46902
3.48352
3.48052
3.4795
3.47645
3.47674
3.46324
3.47836
3.48033
3.46114
3.46828
3.4653
3.47623
3.4769
3.47602
3.45584
3.45891
3.48071
3.48122
3.48042
3.47529
3.47556
3.46867
3.46933
3.47236
3.33237
3.33196
3.32944
3.33416
3.32836
3.32879
3.32968
3.50398
3.49839
3.51616
3.5112
3.5051
3.50291
3.5004
3.49779
3.51477
3.50726
3.50696
3.51686
3.50932
3.50669
3.5156
3.5131
3.50739
3.51063
3.3613
3.37146
3.3822
3.37535
3.37383
3.37248
3.37678
3.38928
3.3717
3.38212
3.38572
3.37043
3.50257
3.49419
3.49502
3.48549
3.49325
3.47739
3.4549
3.44115
3.46603
3.46894
3.4698
3.47406
3.47746
3.46775
3.45202
3.54638
3.55139
3.54342
3.53207
3.5282
3.53437
3.5391
3.54354
3.53983
3.51387
3.5081
3.51727
3.52212
3.51776
3.51136
3.50948
3.50818
3.50976
3.52339
3.51982
3.53146
3.53239
3.53332
3.53037
3.51785
3.5348
3.53279
3.46792
3.472
3.48731
3.48578
3.47599
3.46551
3.49212
3.49045
3.50875
3.51766
3.50984
3.50145
3.51
3.51002
3.50319
3.50001
3.4958
3.49526
3.47103
3.48007
3.45976
3.45368
3.44717
3.44043
3.45958
3.45644
3.45273
3.44695
3.5398
3.54254
3.5497
3.5498
3.54621
3.55629
3.55293
3.36638
3.3653
3.3737
3.36577
3.53291
3.51208
3.50198
3.48815
3.48135
3.49157
3.49974
3.49364
3.42914
3.42899
3.42438
3.43085
3.43197
3.421
3.40738
3.42126
3.40679
3.42808
3.41524
3.41015
3.31464
3.30615
3.30637
3.30599
3.30433
3.31585
3.31746
3.32033
3.31848
3.31841
3.39773
3.40242
3.39875
3.40547
3.40922
3.39533
3.39095
3.41563
3.41038
3.416
3.41686
3.41296
3.41982
3.41731
3.33905
3.34471
3.33754
3.34155
3.34269
3.34318
3.34412
3.34506
3.34149
3.33801
3.34251
3.36597
3.36725
3.387
3.38784
3.39031
3.45098
3.46151
3.45979
3.43735
3.44056
3.43077
3.43817
3.44453
3.43319
3.43485
3.427
3.42036
3.41076
3.38437
3.37755
3.39334
3.39121
3.38562
3.39926
3.40324
3.40157
3.4155
3.36427
3.35955
3.35114
3.53156
3.52725
3.513
3.53013
3.52987
3.53604
3.52798
3.52588
3.53022
3.53207
3.52678
3.5231
3.51752
3.53049
3.53724
3.46786
3.46076
3.44994
3.42236
3.41146
3.44178
3.42424
3.42218
3.36768
3.35953
3.36207
3.34703
3.35161
3.35698
3.35514
3.35637
3.39811
3.35956
3.35565
3.354
3.51157
3.51683
3.51197
3.5194
3.52602
3.52853
3.52997
3.52999
3.53115
3.52574
3.51893
3.52212
3.53611
3.53448
3.52826
3.544
3.54066
3.52493
3.53074
3.52944
3.3567
3.35758
3.36447
3.36087
3.36752
3.36072
3.35926
3.35181
3.35249
3.36016
3.35389
3.35397
3.36468
3.35574
3.35483
3.35071
3.35302
3.3572
3.34726
3.34949
3.35426
3.51229
3.49553
3.50293
3.50915
3.51796
3.51409
3.51262
3.51287
3.50722
3.5202
3.34851
3.34708
3.34415
3.35098
3.35444
3.34819
3.35175
3.3426
3.34528
3.47227
3.48911
3.48375
3.47727
3.48105
3.49462
3.50343
3.49358
3.50192
3.49356
3.48661
3.48827
3.47687
3.43844
3.43863
3.4499
3.44531
3.42942
3.42756
3.45425
3.45539
3.47326
3.46918
3.47265
3.46025
3.45776
3.36607
3.36147
3.35768
3.35437
3.35
3.36195
3.53295
3.34571
3.34662
3.35112
3.35049
3.34834
3.35592
3.34692
3.34706
3.34679
3.3494
3.34603
3.35551
3.43109
3.4176
3.42696
3.43949
3.4204
3.411
3.43963
3.43203
3.42491
3.42024
3.37514
3.40526
3.40782
3.38377
3.38322
3.37959
3.39078
3.45442
3.43401
3.44199
3.43419
3.442
3.43871
3.4579
3.46183
3.43784
3.44696
3.45097
3.35556
3.34936
3.3583
3.35249
3.35319
3.36117
3.36198
3.3538
3.36121
3.35776
3.50823
3.50305
3.50496
3.50697
3.50567
3.50343
3.49953
3.49178
3.51014
3.50774
3.49938
3.49996
3.50401
3.33672
3.33579
3.33271
3.33412
3.33909
3.3412
3.3392
3.33851
3.33871
3.3355
3.3389
3.51049
3.5011
3.50206
3.51161
3.51497
3.51811
3.51212
3.50857
3.5082
3.50753
3.50135
3.52725
3.52682
3.517
3.52361
3.52109
3.52241
3.52146
3.52359
3.34059
3.34958
3.34701
3.43195
3.3643
3.38477
3.39697
3.37826
3.37405
3.37571
3.37589
3.39924
3.40198
3.35398
3.35112
3.34375
3.36637
3.34939
3.35012
3.34556
3.3459
3.34171
3.33963
3.34116
3.33991
3.34826
3.48134
3.49593
3.49398
3.48354
3.49046
3.49325
3.4941
3.50187
3.49868
3.49227
3.49501
3.499
3.42727
3.40071
3.41954
3.40358
3.41581
3.41744
3.41577
3.42619
3.45765
3.47004
3.47133
3.46129
3.46266
3.47216
3.47369
3.45852
3.33094
3.32312
3.32732
3.32293
3.32529
3.32566
3.32305
3.32395
3.32172
3.32148
3.32203
3.32088
3.32211
3.3282
3.3254
3.32482
3.32574
3.32495
3.32279
3.32595
3.32415
3.32616
3.3232
3.32195
3.33212
3.32779
3.3269
3.33587
3.33338
3.33467
3.33015
3.33482
3.33784
3.33985
3.34115
3.33783
3.33764
3.34489
3.34497
3.33453
3.33473
3.32934
3.32993
3.33199
3.32853
3.32738
3.32349
3.32875
3.44146
3.44367
3.44284
3.43112
3.41985
3.43771
3.43029
3.43183
3.43443
3.42578
3.41189
3.42802
3.41967
3.41726
3.47084
3.49841
3.49422
3.49664
3.50281
3.5046
3.4993
3.50409
3.50442
3.49571
3.48198
3.48278
3.38555
3.3753
3.3988
3.40727
3.41159
3.41645
3.43538
3.42996
3.44103
3.45185
3.4377
3.44424
3.40899
3.41715
3.41391
3.39364
3.39302
3.39522
3.38433
3.41045
3.4144
3.38811
3.38313
3.38256
3.3854
3.38138
3.3259
3.32264
3.32263
3.32406
3.32412
3.31937
3.32422
3.32428
3.31911
3.32449
3.31904
3.31834
3.31848
3.31847
3.32501
3.32256
3.3159
3.32226
3.32067
3.32289
3.32368
3.33303
3.33175
3.32779
3.32961
3.33691
3.33038
3.33047
3.33004
3.33289
3.33064
3.3309
3.41039
3.40565
3.42074
3.42193
3.40887
3.42565
3.42882
3.29501