/*--------------------------------*- C++ -*----------------------------------*\
| =========                 |                                                 |
| \\      /  F ield         | OpenFOAM: The Open Source CFD Toolbox           |
|  \\    /   O peration     | Version:  v1612+                                |
|   \\  /    A nd           | Web:      www.OpenFOAM.com                      |
|    \\/     M anipulation  |                                                 |
\*---------------------------------------------------------------------------*/
FoamFile
{
    version     2.0;
    format      ascii;
    class       surfaceScalarField;
    location    "200";
    object      phi;
}
// * * * * * * * * * * * * * * * * * * * * * * * * * * * * * * * * * * * * * //

dimensions      [0 3 -1 0 0 0 0];

internalField   nonuniform List<scalar> 
41343
(
-6.33223e-09
1.05901e-09
4.81505e-09
4.58124e-10
-5.28691e-09
-1.71261e-09
-9.12254e-10
7.91177e-09
-8.90594e-09
5.14509e-09
8.69309e-09
-4.93228e-09
6.38911e-09
-1.74905e-08
1.027e-08
8.3141e-10
-7.92067e-09
1.52613e-08
-9.51709e-10
4.94069e-09
2.89141e-09
-1.12404e-08
3.40819e-09
9.37401e-09
-3.01719e-09
-1.41631e-09
-5.00156e-09
-1.9529e-10
1.44326e-08
-9.23589e-09
-1.39135e-08
-8.57863e-09
-8.56717e-10
-1.02035e-08
1.61031e-08
-5.04309e-09
-5.39616e-09
8.50304e-09
-1.58151e-08
-2.74513e-09
2.34959e-10
8.73285e-09
-6.22287e-09
-7.26475e-09
1.54472e-08
-1.50675e-09
7.98977e-09
2.22161e-08
-1.05393e-08
-1.96667e-08
-5.50498e-09
1.99873e-08
-6.49249e-09
2.17659e-08
7.59217e-09
-7.14199e-09
2.36678e-08
-5.04899e-09
3.14713e-09
-1.45961e-09
4.79469e-09
-8.84011e-09
6.73348e-09
-1.87325e-08
-6.57015e-09
-1.24669e-09
3.14845e-08
-2.37025e-08
-6.43514e-09
2.35674e-08
1.74799e-08
-2.54159e-09
-1.60835e-08
-2.6906e-11
5.53528e-09
-1.48853e-08
-5.41329e-09
9.16531e-09
1.67838e-09
-5.43048e-09
1.43773e-08
-1.49959e-08
-6.03903e-09
-1.87892e-08
2.35815e-08
-5.48185e-09
1.53912e-08
-7.44089e-10
1.65319e-08
-7.63662e-09
1.47591e-08
-7.54547e-09
3.25395e-10
7.99846e-09
-1.28814e-08
7.16775e-09
-3.26066e-09
1.95135e-09
-1.30348e-08
1.55445e-08
2.36411e-10
2.25865e-09
3.85446e-09
-2.33682e-09
-3.77629e-09
5.64179e-09
-1.73874e-09
-1.64441e-09
-2.06366e-09
2.43904e-09
5.26641e-09
2.45895e-09
-6.68151e-10
2.26617e-09
-6.55237e-09
1.94938e-09
8.95779e-09
4.5343e-09
-9.02369e-09
-4.46842e-09
2.19357e-09
-1.8414e-09
8.60562e-09
7.02791e-09
-4.04633e-09
-4.69122e-09
1.70963e-09
1.82637e-09
6.51016e-09
-1.30862e-09
2.74181e-09
-4.52197e-09
3.15343e-09
6.84907e-11
-4.80107e-10
3.98738e-09
9.9242e-10
2.91846e-09
-3.91004e-10
-8.48886e-10
3.33299e-09
3.36468e-09
-5.84875e-09
1.05258e-09
1.72796e-09
-3.62939e-09
1.00611e-09
2.04514e-09
-1.99862e-09
-1.44281e-10
4.32143e-09
-8.44138e-10
2.01023e-09
-4.26571e-10
2.91009e-09
8.65197e-09
-8.19723e-09
7.06827e-09
-3.15206e-09
-3.73331e-09
1.02272e-09
1.06914e-09
1.64166e-09
1.22183e-09
-2.90996e-09
-1.21539e-09
2.95773e-09
-5.20512e-10
3.81822e-09
7.03305e-10
4.13053e-09
2.87748e-09
8.00901e-09
1.44456e-09
-6.49674e-10
2.83259e-09
2.19223e-09
1.14113e-09
2.75939e-09
1.76737e-09
2.50982e-09
-9.3667e-09
4.84998e-09
-4.01371e-09
8.53053e-09
-1.5639e-09
-1.948e-09
-5.85477e-09
1.07142e-08
-3.50496e-09
-8.77311e-09
1.52747e-09
1.1597e-08
-2.41023e-09
-6.36433e-09
1.60009e-09
9.61422e-09
1.35088e-08
-6.45798e-09
-2.84238e-09
-4.20842e-09
5.52354e-09
-1.90076e-09
-5.57076e-09
4.29299e-09
-3.54593e-10
-7.44333e-09
5.72204e-09
2.34345e-09
-3.77249e-09
7.24235e-09
7.18426e-12
7.44197e-10
-1.58498e-09
-1.38705e-09
-2.61597e-09
5.60313e-09
-3.96939e-09
4.32665e-09
-1.74425e-09
2.49014e-09
-4.74549e-09
-2.70351e-09
5.97646e-09
-5.10168e-10
1.50124e-10
-1.88661e-09
1.48361e-11
9.33637e-11
-4.29408e-09
-2.90737e-09
1.86859e-09
5.33283e-09
-2.53732e-09
-1.95095e-09
1.94103e-10
-8.99092e-09
-3.1344e-10
6.39693e-09
-7.79378e-09
-3.73453e-09
3.38979e-10
-5.09619e-09
6.62574e-09
-8.47479e-09
-3.19644e-09
1.20101e-08
2.3716e-09
-7.74072e-09
-3.1058e-09
-3.03497e-09
3.10293e-10
-5.1458e-09
1.59765e-10
1.79109e-09
-8.66489e-10
-8.71851e-09
1.22284e-08
-1.14472e-08
1.00983e-09
4.21533e-09
7.69959e-09
6.60858e-10
-6.67321e-09
1.47993e-08
-1.37804e-08
9.05216e-09
-9.97703e-09
1.58563e-09
2.06804e-09
-7.56662e-10
-1.95337e-09
2.32425e-08
-7.73467e-09
-1.35545e-08
-9.2805e-09
1.3514e-08
-6.18677e-09
7.9162e-09
8.62309e-09
-2.21409e-08
5.60168e-09
9.04966e-09
-1.04141e-08
1.24375e-08
9.70195e-09
1.10304e-09
3.7378e-09
1.18201e-08
-6.93489e-09
1.39973e-08
-1.20978e-09
1.56572e-08
1.18181e-08
-1.56552e-08
4.58321e-09
1.01588e-08
9.15136e-10
-8.20266e-09
1.31641e-08
7.47597e-09
4.12277e-09
1.18834e-09
-1.49584e-08
2.01291e-08
4.53129e-09
1.40929e-08
-1.36111e-08
-1.54401e-08
8.37137e-09
8.49687e-09
-2.87105e-09
1.39511e-09
1.15594e-08
8.67622e-09
-1.10638e-09
4.24843e-09
1.17431e-08
7.09199e-09
-7.10556e-09
7.36799e-09
1.98666e-08
5.88093e-09
1.04391e-08
2.18049e-09
1.17961e-09
1.93523e-08
7.58219e-09
2.85543e-09
1.44291e-12
-3.24407e-09
1.20058e-08
-1.20546e-08
1.05596e-08
-1.80757e-08
1.95707e-08
2.62131e-09
-2.50778e-08
1.0402e-08
3.06538e-09
-7.17312e-09
1.46672e-08
-6.78277e-09
1.47331e-08
-4.88493e-09
-1.20026e-08
7.84119e-09
-9.26734e-09
-6.91071e-09
-1.89774e-09
-2.29246e-08
-1.14206e-08
1.24926e-09
-1.33211e-08
1.06762e-08
1.39558e-09
-1.1608e-08
2.23251e-09
1.06247e-08
-1.11407e-08
6.3679e-09
-8.54827e-09
3.2956e-09
1.23944e-09
-1.17083e-08
-3.8649e-09
-3.85015e-09
-3.89301e-09
-6.254e-09
-8.75161e-09
-4.98179e-09
6.88329e-09
8.77472e-09
7.55656e-10
6.30431e-10
-5.71201e-09
-5.76839e-09
7.63016e-09
-1.4083e-08
2.11695e-09
-1.09482e-08
-2.98651e-10
4.29779e-09
2.77581e-09
-1.36749e-08
6.60117e-09
-7.06998e-09
3.95246e-09
7.41529e-09
1.53978e-09
-9.89717e-09
1.28733e-09
1.34117e-09
-5.9458e-09
8.55703e-09
5.30976e-09
-1.2108e-08
9.57401e-09
-8.06993e-09
1.47209e-08
6.3866e-09
-6.6398e-09
1.79292e-09
-1.14835e-09
-5.55458e-10
-1.19711e-08
-1.43189e-09
-9.61369e-09
-1.2963e-09
1.73711e-09
-4.19123e-09
-6.07937e-09
2.20067e-09
-7.83294e-09
-1.40544e-08
9.77945e-09
-1.12195e-08
-8.04708e-10
-9.59062e-10
-7.11266e-09
-8.03207e-09
6.56371e-10
-1.24101e-09
-1.33689e-08
-3.63306e-10
-1.20972e-08
-9.35447e-09
-3.41605e-09
7.70311e-09
6.23676e-09
-1.0524e-08
9.59249e-09
-1.47346e-08
1.72587e-09
-4.75761e-09
-7.01741e-09
1.94779e-08
-1.06371e-08
1.54719e-08
5.28599e-09
-8.81896e-09
-1.12017e-08
-5.16818e-09
-1.8299e-10
2.28803e-09
-2.31656e-08
1.20584e-08
-6.7101e-09
-1.19841e-08
1.16766e-08
-1.09002e-08
-9.78143e-10
1.29321e-08
-2.15445e-08
1.10008e-09
-1.52223e-10
-8.04891e-09
-3.22234e-09
1.26877e-08
-1.41643e-09
-6.8194e-09
-6.96277e-09
5.73323e-09
6.73372e-10
-1.46582e-08
1.07319e-08
3.25285e-09
8.4212e-09
-1.05768e-08
2.82892e-09
-1.03216e-08
-3.18123e-09
1.02805e-08
-2.49777e-09
5.97321e-10
-2.45394e-09
1.1363e-08
-9.74821e-09
8.39119e-10
8.54867e-09
-9.24352e-09
-1.75914e-09
1.4327e-10
4.40028e-09
-9.11868e-10
8.08026e-09
-1.61463e-08
-1.17301e-09
9.23893e-09
-4.97331e-09
8.56536e-09
4.48806e-09
-4.24749e-09
7.5063e-10
-1.11614e-08
-2.33397e-09
-1.24904e-08
-1.9305e-08
-2.04342e-10
1.45359e-08
-5.64035e-09
-1.29141e-08
7.34633e-09
-5.72067e-10
3.53374e-09
-1.271e-08
-1.21496e-08
-1.82529e-08
-2.43072e-09
3.06733e-09
-2.50374e-09
1.86693e-09
4.63339e-09
-5.45241e-09
-1.61181e-09
-6.15793e-09
1.73425e-09
7.49097e-09
-1.32232e-09
-2.02203e-10
6.07347e-09
-4.50952e-09
-4.73049e-09
3.16658e-09
-1.69841e-09
9.50619e-09
-5.36454e-09
-1.11243e-08
1.47905e-08
-8.00681e-10
6.70717e-09
-1.12711e-08
-7.55793e-09
4.25346e-09
-5.21138e-09
-6.20439e-10
-4.03287e-09
6.85073e-10
-4.21023e-09
-2.10284e-09
-7.38235e-09
-2.15042e-09
2.58794e-09
-1.15619e-08
-6.94528e-11
2.86345e-09
-4.89686e-09
5.29266e-09
-9.15012e-09
3.78809e-09
-6.73595e-09
-1.44962e-10
1.42505e-09
-2.86826e-09
-9.22861e-10
1.59739e-10
-5.13953e-09
7.85822e-10
4.19389e-09
-8.51327e-09
5.09707e-09
-9.39502e-11
3.51013e-09
1.60971e-09
-4.90937e-09
-5.21362e-09
-3.55902e-09
-4.54581e-09
6.06458e-09
2.04018e-09
-4.1978e-09
7.98502e-10
-5.09117e-09
5.64239e-09
-1.51676e-09
-1.96471e-09
6.52916e-09
-6.38262e-09
5.40154e-10
-6.86608e-10
-5.07901e-09
6.46865e-09
4.13446e-09
-3.59089e-09
-6.92614e-09
8.42332e-11
-1.02871e-09
-5.19127e-09
-6.18844e-09
7.56977e-09
3.81009e-09
8.93624e-09
-4.14836e-09
-9.69719e-09
3.65099e-09
-3.6055e-09
-2.10902e-09
-5.67606e-09
2.77532e-11
2.86146e-09
-3.47919e-11
-6.41749e-09
-6.59798e-10
-9.85918e-09
-7.99725e-12
1.19684e-09
6.15144e-09
-7.34043e-09
7.17654e-09
1.26088e-09
-8.44548e-09
2.83006e-10
6.94327e-09
-6.02942e-09
-3.87941e-11
6.75599e-09
4.59339e-10
5.73556e-09
3.7703e-10
1.77537e-09
8.74862e-09
-9.26292e-09
1.14941e-08
-9.43578e-09
4.43176e-09
8.98628e-09
-6.47481e-09
5.44637e-09
-1.49585e-09
4.8121e-10
6.18331e-09
6.32742e-10
1.93269e-09
-6.09121e-09
2.50421e-09
9.03355e-09
-1.91977e-09
4.81486e-09
-5.78171e-09
3.86404e-09
8.10105e-09
3.79254e-09
4.02578e-09
2.13919e-10
5.37961e-09
2.00914e-09
-3.08904e-09
9.45727e-09
6.31633e-09
1.03414e-08
-1.08458e-10
-5.33315e-09
-4.89982e-09
-3.54324e-09
4.21116e-09
9.67352e-09
-1.16079e-08
-6.48976e-09
1.23144e-08
5.78323e-09
-6.72028e-09
-4.99608e-09
5.42899e-09
-4.49445e-09
-6.26767e-09
2.21922e-09
-3.33465e-10
-1.12004e-08
-3.48653e-09
8.19708e-09
-8.56684e-09
-9.35384e-09
2.92124e-09
7.63728e-09
-1.4045e-08
2.1514e-09
-8.64483e-09
1.99895e-09
2.65105e-09
-7.96566e-09
8.78427e-09
-3.46966e-09
5.41257e-09
-2.58136e-09
-1.80161e-10
3.4644e-09
5.14815e-09
-6.46113e-09
-5.66297e-09
1.16172e-09
-5.25067e-09
-2.43138e-09
8.14363e-09
-4.61536e-10
-2.91192e-09
-1.19506e-10
-4.80928e-09
7.79046e-09
6.89623e-09
-3.45132e-10
-1.94584e-08
1.99403e-09
5.11279e-09
1.23511e-08
-5.18675e-09
-1.29833e-08
-1.28844e-09
-1.68371e-08
-1.17756e-09
-4.7046e-09
2.2719e-08
7.84715e-10
1.85449e-09
-1.94766e-08
-1.23477e-08
4.52142e-09
9.82019e-09
-1.2139e-08
-5.3955e-09
5.58347e-09
-1.67191e-08
1.62483e-08
1.3312e-08
-1.4973e-08
3.65749e-09
-1.99667e-09
1.53409e-08
-1.74084e-08
2.85191e-09
1.97468e-08
1.31287e-08
2.72791e-09
-2.68249e-09
-1.30287e-08
-6.39606e-10
-1.33518e-08
2.94997e-09
-1.30702e-08
-4.85277e-09
-1.83343e-08
-2.87577e-09
2.41601e-08
-5.14642e-10
-1.43069e-08
-2.14671e-09
2.96715e-09
-1.91547e-08
-1.57315e-08
-1.50809e-08
3.84173e-09
-1.07754e-08
1.70188e-08
-1.00851e-08
1.47284e-08
-5.97259e-09
-4.91409e-09
2.16879e-08
-3.4208e-09
-1.64533e-08
-1.81382e-09
8.38897e-10
1.17006e-08
9.14834e-09
9.04724e-09
6.20707e-09
-1.44156e-08
1.26676e-08
7.93105e-10
-5.59269e-09
-7.86822e-09
4.18156e-09
-8.27748e-10
-1.41291e-08
-1.79015e-08
1.86623e-08
4.18893e-09
7.71675e-09
5.1131e-09
8.15901e-09
1.07583e-08
3.76633e-09
2.05533e-08
-1.26191e-08
9.28823e-09
1.24266e-08
-1.06036e-08
9.34244e-09
-4.71155e-09
-1.43929e-08
2.96147e-09
-6.02785e-09
1.90823e-08
1.09627e-08
3.0376e-09
-4.65798e-09
1.30938e-08
-4.87902e-09
1.75716e-09
-1.84839e-09
-5.02096e-09
-1.16533e-09
-1.37218e-09
7.55845e-09
-5.22621e-09
6.9433e-09
-6.22525e-09
3.68527e-09
2.15655e-09
-2.75646e-09
-3.08543e-09
-2.00726e-09
-7.16778e-11
-5.56825e-09
-1.6652e-09
-1.91468e-09
-8.67459e-09
-2.76063e-09
-8.43747e-10
-4.07594e-09
-1.96841e-09
2.43206e-09
-7.10323e-09
-4.40453e-09
6.42196e-09
-3.03894e-09
-4.37637e-09
9.93345e-10
-3.02751e-09
8.78599e-10
8.57084e-09
1.34776e-09
-8.8778e-09
1.08241e-08
-3.29401e-09
1.13239e-08
-8.41272e-09
-1.56334e-09
-9.25157e-09
5.58805e-10
-1.85014e-10
1.98684e-09
-1.15129e-08
2.74552e-10
1.06271e-08
-8.63094e-09
-5.03509e-09
2.14547e-10
7.38496e-09
-9.04027e-10
4.43988e-09
7.2882e-09
6.04348e-09
-2.16795e-09
-3.09549e-09
6.14199e-09
1.57948e-09
-8.00535e-09
-6.65512e-09
4.7017e-09
-9.72084e-10
-6.07937e-09
7.01088e-09
-6.75584e-09
-1.22713e-09
-6.9307e-09
-4.89911e-09
5.17468e-09
5.13134e-09
-5.05116e-09
2.69314e-11
2.05253e-10
-4.55548e-09
5.89988e-09
-4.60935e-09
8.0806e-11
1.45775e-09
1.40872e-09
6.65337e-09
-9.51984e-09
-2.17124e-09
-1.42218e-09
-5.82266e-09
9.41595e-09
-1.42156e-09
-6.17741e-09
-3.90221e-09
1.15011e-08
-5.37473e-09
7.84714e-09
-3.8941e-09
-6.08823e-09
-9.85461e-09
9.84117e-09
-8.25732e-09
8.7333e-09
-7.86128e-09
-8.36807e-09
5.0199e-09
1.12095e-08
-3.17165e-09
-7.89192e-10
-3.90045e-09
8.55803e-09
-9.44784e-09
-3.01239e-09
-9.60693e-09
1.08159e-09
1.57288e-10
-6.04801e-09
-6.73057e-09
-6.28189e-09
1.50002e-09
-3.47541e-09
-1.18608e-08
-3.94089e-09
-4.1272e-09
-4.2373e-09
7.57526e-09
-5.28469e-09
-4.41514e-09
1.11999e-08
-8.70156e-09
-2.63112e-09
1.15258e-09
1.05264e-08
-9.76965e-09
-1.90933e-09
-5.92406e-09
-4.29136e-09
2.84366e-09
-3.30984e-09
-1.52654e-08
-4.46743e-09
2.45832e-09
-9.58046e-10
-1.82552e-09
-1.63712e-08
-1.85866e-09
-1.47341e-08
1.21253e-08
-9.42572e-09
1.11811e-09
6.44892e-09
-3.72107e-09
-1.57092e-08
4.6959e-09
-1.37506e-08
6.03792e-10
-9.4765e-09
1.4545e-08
-3.4096e-09
-1.65888e-09
1.00172e-08
-1.14714e-08
-8.0224e-09
1.42978e-08
-1.26343e-08
-2.62163e-09
-4.3612e-09
1.57833e-08
-1.52804e-08
1.20374e-08
-1.13728e-08
1.06373e-08
4.0137e-09
-5.36935e-09
2.91446e-09
-7.54144e-09
-1.10823e-08
-6.82252e-09
-1.1101e-08
6.19272e-09
-2.63324e-09
-2.83875e-09
-1.3205e-08
3.77567e-09
-2.59833e-10
2.79963e-09
-6.31544e-09
4.56386e-09
4.43058e-09
-5.21876e-09
4.07416e-09
3.0828e-09
-7.4168e-09
3.59103e-09
2.73977e-09
-2.25664e-09
-5.16131e-10
3.49259e-09
6.14602e-10
-4.13828e-09
2.97541e-09
6.46747e-10
1.28891e-09
-4.82668e-09
7.03041e-09
-3.92991e-09
-2.46984e-09
7.68867e-09
-3.7373e-10
-5.95265e-09
1.49972e-09
-4.46811e-09
1.64491e-10
1.35101e-09
-2.01646e-09
1.97895e-09
1.13336e-09
-3.50191e-10
2.27357e-09
-3.32905e-09
-3.65863e-09
4.16421e-09
-2.51701e-10
1.09796e-08
7.37468e-09
-2.94728e-09
-1.5407e-08
5.06626e-09
4.11723e-09
1.79612e-09
9.96736e-09
-3.99167e-10
-2.19356e-09
5.24321e-09
9.79041e-09
5.09955e-09
-3.93311e-09
3.76688e-09
-4.93333e-09
5.36127e-09
-6.60905e-10
4.19281e-09
-1.10732e-08
-4.23962e-09
4.45939e-09
5.1415e-09
-3.68389e-10
-1.04368e-10
-5.24078e-09
5.36259e-09
3.99547e-09
4.14001e-09
-5.18799e-09
-1.24102e-09
1.09436e-08
4.01562e-09
-2.43981e-10
8.13719e-09
5.81012e-09
5.43185e-09
-9.92387e-09
-1.31792e-09
3.71228e-09
1.01166e-08
-7.98378e-09
-5.8449e-09
-5.02912e-09
1.22576e-08
-3.51602e-09
9.17821e-09
-8.39714e-09
3.94322e-09
-1.24563e-08
3.7755e-09
4.73765e-09
-7.90104e-09
4.628e-09
7.21633e-09
-8.59845e-09
-6.32907e-09
2.47135e-09
-7.94607e-09
-8.55339e-09
7.92935e-10
6.34407e-09
-1.70511e-09
-9.15463e-10
-6.23759e-09
6.0016e-09
-2.21399e-09
-1.15223e-09
5.6112e-09
7.7987e-09
3.2373e-09
4.78871e-09
5.02378e-09
-2.24955e-09
1.85381e-09
-3.63634e-10
-4.61934e-09
1.00068e-08
-4.53808e-09
7.94997e-09
7.07475e-09
5.50476e-09
-1.4102e-09
4.12273e-09
-4.73694e-09
1.84355e-10
2.18233e-09
-6.35294e-09
-5.66388e-10
-6.39182e-09
2.18772e-09
6.3864e-09
-2.71706e-09
-2.56506e-09
-1.07081e-09
-3.60608e-09
-8.51391e-09
1.07478e-08
-4.24876e-09
-4.86012e-09
-1.08428e-09
-3.4492e-09
8.65807e-09
-1.81068e-09
-1.04535e-08
8.5192e-09
-1.66742e-09
1.8062e-09
-7.14373e-09
-7.49226e-09
4.81225e-09
4.63027e-09
-1.95032e-09
-5.1404e-10
-8.08939e-09
1.11104e-09
-2.39344e-09
-2.04974e-09
7.95308e-09
-3.50979e-09
-4.57592e-09
9.88616e-09
-7.70368e-09
7.18157e-09
-1.75997e-09
-9.99749e-09
-1.42772e-09
7.66543e-09
9.43882e-10
8.14323e-09
-5.38074e-09
-4.36598e-09
5.23925e-09
7.27001e-09
5.51058e-10
-5.13216e-09
2.15105e-10
5.52264e-09
-9.52577e-09
2.24314e-09
4.73623e-09
-6.41264e-10
3.43808e-09
-6.19241e-10
5.1343e-09
2.06802e-09
1.12563e-08
4.89153e-09
3.9575e-10
-6.46154e-09
-1.09582e-09
9.62533e-09
-4.35231e-10
1.63906e-09
-4.06153e-09
-1.85312e-09
4.8188e-09
3.94849e-10
2.76692e-09
1.14008e-09
-6.21029e-10
6.56641e-09
-7.08541e-09
6.7553e-10
2.56631e-09
-2.10175e-09
-8.90493e-09
8.47276e-09
-1.2042e-09
1.63657e-09
2.87095e-10
-1.48415e-09
-7.70778e-09
6.81274e-09
-1.25708e-10
1.78608e-09
5.06782e-09
-4.10515e-09
4.00338e-09
-1.39752e-10
-3.90253e-09
3.34656e-09
7.36875e-09
-6.04551e-10
7.05445e-10
-1.18084e-08
9.79978e-09
1.88305e-09
-8.5706e-09
-5.85334e-10
-2.65208e-09
-7.16259e-10
-9.33839e-09
6.81719e-09
-1.01396e-08
1.31223e-08
-4.94707e-09
1.51107e-08
-7.08935e-09
9.19278e-09
-2.68845e-09
-8.42657e-09
3.31288e-09
6.95676e-09
-3.70323e-09
5.3855e-09
4.936e-10
-3.92633e-09
-8.37049e-09
7.34971e-09
8.54722e-10
-5.21122e-10
-8.92493e-10
-1.46786e-09
1.74775e-09
1.48898e-08
8.33357e-09
-2.49713e-08
-2.34478e-08
1.3983e-08
1.12125e-08
3.52769e-08
-1.81472e-08
-1.64634e-08
-6.66545e-10
-1.39749e-08
2.5804e-08
2.26751e-08
-1.24027e-08
-2.84196e-08
6.05908e-09
2.641e-09
-3.26364e-09
2.17989e-08
-2.03609e-08
-2.04753e-08
1.91301e-08
-1.91836e-09
6.73335e-10
-7.21766e-09
2.14341e-08
-6.7571e-09
2.14134e-08
-3.55015e-09
-2.36967e-08
2.04896e-08
3.16771e-09
-1.70873e-08
4.91874e-09
-5.96241e-09
1.81306e-08
-8.24819e-09
-2.68146e-08
1.79754e-08
8.85839e-09
-2.95094e-08
1.91184e-08
-3.07355e-08
8.66464e-09
-9.90714e-09
1.49241e-09
-1.74018e-08
-3.81842e-09
2.1026e-08
2.79311e-09
-1.23249e-08
-1.14944e-08
1.23341e-09
4.09214e-09
1.57005e-08
-1.42147e-08
4.23121e-09
1.12168e-08
-4.23034e-09
-7.19127e-09
2.02698e-08
-9.52e-09
-2.30748e-08
5.4715e-09
1.88903e-08
1.23066e-08
-5.02926e-09
3.94999e-09
-1.12275e-08
-1.9933e-09
1.40653e-08
2.34539e-10
-1.33898e-08
4.74749e-09
1.28734e-08
-8.86391e-09
-8.75623e-09
-8.7636e-09
-2.09349e-09
-1.17568e-09
-1.26171e-08
-1.64978e-08
5.80212e-09
1.27764e-08
1.32544e-09
-1.01519e-08
2.33551e-08
3.48654e-09
1.66862e-09
-1.1345e-08
1.44239e-08
-1.03528e-08
-2.57171e-09
1.4593e-08
-1.47342e-08
-6.96357e-09
1.77009e-08
-1.48011e-08
1.31412e-08
-9.55724e-09
-2.2585e-09
2.17621e-08
-6.83659e-09
1.27575e-08
-1.00864e-08
4.16542e-09
1.80443e-08
-2.0006e-08
-4.87486e-09
-8.10714e-09
6.27475e-10
2.02372e-08
-5.59404e-09
1.55311e-08
-1.23708e-08
3.67047e-09
-8.98216e-09
1.47218e-08
1.39702e-08
-3.03159e-09
9.36252e-09
-2.30221e-09
8.77713e-09
-5.16011e-09
1.3543e-08
-7.75546e-09
6.20607e-09
-1.69603e-08
-7.04411e-09
-1.21504e-08
-9.1118e-10
2.01056e-08
-5.4421e-09
6.21542e-09
-7.81747e-09
1.4108e-08
7.17625e-10
-6.62856e-09
-1.06577e-09
9.73158e-09
7.81423e-09
8.70243e-09
-6.98757e-09
-9.52913e-09
-8.30075e-09
1.85722e-08
-2.45737e-09
2.15038e-08
-1.20839e-08
7.12901e-09
1.3309e-08
-1.19684e-08
1.46899e-08
7.39465e-09
-1.01162e-08
3.6353e-10
9.80161e-09
-2.21335e-08
8.71873e-09
-1.53428e-08
9.22869e-09
-8.81082e-09
-9.40092e-09
9.26735e-09
1.48233e-08
-6.22787e-09
-5.56509e-09
8.6397e-09
-1.52251e-08
7.85941e-09
1.78418e-08
1.94787e-08
-2.85552e-09
-1.13337e-08
1.82818e-08
2.57988e-09
1.47273e-08
-1.24125e-08
7.61765e-09
-9.93249e-09
-3.08594e-09
1.44625e-08
3.35075e-09
1.03733e-08
-2.30217e-08
2.35924e-10
8.4045e-09
-1.11728e-09
6.14695e-09
-1.84039e-08
7.87092e-09
4.38617e-09
1.5416e-09
-7.98261e-09
1.25879e-08
-2.33961e-09
-8.44665e-09
7.53621e-09
-1.31156e-08
1.34503e-08
-6.9043e-09
1.59821e-08
2.06417e-09
-1.73995e-08
1.14346e-08
3.90083e-09
6.73517e-09
-1.77866e-08
-6.23315e-10
-4.92696e-09
-1.18493e-08
-6.68317e-09
1.3163e-08
-2.86127e-09
7.39154e-09
1.32027e-08
-5.42161e-09
3.65831e-09
-1.69416e-08
5.36821e-10
-4.86092e-10
1.68911e-08
-3.59691e-09
-9.62686e-09
-3.71771e-09
-1.37284e-08
-1.23014e-10
1.43883e-08
-5.82358e-09
-1.15018e-08
-1.68226e-10
8.13675e-09
-8.45452e-09
1.13903e-08
-5.963e-09
-1.14033e-08
5.97607e-09
2.30981e-09
3.62145e-09
5.45912e-09
-2.0694e-10
-4.3995e-09
4.43827e-09
-6.85662e-09
6.52667e-09
4.61206e-09
-4.52005e-09
1.42024e-09
-1.5122e-09
4.21463e-09
2.70725e-09
-1.00133e-09
-9.48173e-09
6.7025e-10
-4.06134e-09
-2.43249e-09
7.60455e-09
-4.35594e-09
-2.57834e-09
-4.24475e-09
4.0599e-09
-3.99432e-09
4.74227e-09
3.42408e-09
-8.48672e-09
4.97219e-09
-5.90405e-09
-1.94649e-09
-8.78003e-10
-9.6861e-10
-4.39899e-09
6.46615e-10
4.46367e-09
-7.11207e-10
1.71225e-09
-7.86623e-09
1.75509e-09
-4.33026e-09
-2.56527e-09
-3.80921e-10
7.27626e-09
-3.82674e-09
-7.50443e-10
2.4685e-10
-7.95358e-09
-4.18917e-09
9.57742e-09
-6.43474e-09
-5.34553e-09
-2.68925e-09
-3.53462e-09
-2.10771e-10
6.02066e-09
-3.35959e-10
-5.03796e-09
3.53686e-09
-4.51382e-09
1.40846e-09
4.34971e-09
-1.29449e-09
4.56346e-09
3.8182e-10
-3.72781e-09
-2.74788e-09
6.09472e-09
8.51924e-11
-6.46272e-10
5.80492e-09
-9.34753e-09
-2.33018e-09
3.9322e-09
3.0442e-09
5.81415e-09
9.37736e-09
-5.94856e-09
-1.93212e-09
1.04089e-08
-2.66267e-09
-9.2078e-09
1.19593e-08
-4.68356e-09
1.55077e-08
-1.55618e-09
-1.30883e-08
1.08937e-08
1.41539e-08
1.26824e-08
9.63746e-09
6.2046e-10
-8.80551e-10
7.92261e-09
1.21238e-08
7.86569e-09
-6.50762e-09
-7.37598e-10
-9.64379e-09
7.59208e-09
9.9174e-09
8.32274e-09
-8.80625e-10
4.0903e-09
9.47274e-09
1.19247e-08
1.40029e-09
1.84868e-08
-2.97218e-09
-8.40569e-10
4.52732e-09
-3.977e-09
2.90247e-10
3.92857e-09
1.37028e-09
-5.8248e-09
5.25956e-10
4.16331e-09
-6.92025e-10
-4.31186e-09
-7.19188e-11
3.15673e-09
1.16765e-09
-4.25247e-09
3.29036e-09
1.16504e-09
-4.71638e-09
4.74811e-09
8.78276e-09
-8.81451e-09
4.1492e-10
9.30966e-10
-6.06226e-09
-4.19513e-09
4.14866e-09
4.61374e-10
3.92729e-09
-3.95911e-09
2.91608e-09
-5.26051e-10
7.66702e-10
-3.0386e-09
2.23651e-09
3.71816e-09
-2.90545e-10
5.42296e-10
-3.07766e-09
3.17286e-09
4.05345e-09
5.59087e-10
2.99624e-09
4.06275e-10
-1.82315e-09
7.23253e-09
5.92119e-09
-4.36897e-09
7.75362e-09
1.18764e-08
8.476e-09
1.2678e-08
-2.55231e-08
-5.08066e-09
9.19921e-09
-1.23694e-09
-2.88175e-09
1.58199e-08
-1.24246e-08
1.55521e-08
-1.63908e-08
1.35167e-08
7.24603e-09
1.29403e-08
-4.3665e-09
3.43358e-09
1.30116e-08
-1.18745e-09
1.33714e-08
1.02437e-08
-2.24278e-08
9.81694e-09
6.53539e-09
-1.75399e-08
1.15574e-08
-5.04075e-09
-1.48995e-11
1.44578e-08
1.1091e-09
4.72862e-11
1.28781e-08
9.97878e-09
1.78504e-08
-1.32043e-08
4.01408e-09
1.41401e-08
-4.95009e-09
-4.56525e-09
1.17769e-09
1.89307e-08
-4.93785e-09
-4.07636e-09
1.10683e-08
2.02654e-08
-7.68122e-09
-1.14543e-09
-1.14388e-08
-3.57893e-10
8.99682e-09
1.16263e-08
2.02022e-08
-1.9429e-08
-8.45449e-09
1.10334e-08
-9.65029e-09
2.48594e-09
-8.17831e-09
-1.44446e-08
9.13635e-09
1.43051e-08
-8.51531e-09
-8.94404e-09
6.0592e-09
-6.76539e-09
-1.72041e-08
6.04612e-09
-1.67964e-08
1.2005e-08
-8.26584e-09
1.46289e-08
-4.27774e-09
3.81524e-09
3.7026e-09
-3.24008e-09
-4.40818e-09
5.21344e-10
-3.90847e-10
-4.25716e-10
-3.81918e-09
-1.63203e-10
-8.24164e-11
-2.96148e-09
2.71695e-09
3.26976e-10
-2.45237e-09
3.1837e-09
-2.09964e-10
6.64584e-09
-3.90143e-09
-6.79091e-09
-1.06283e-09
-4.9438e-10
3.75426e-09
-3.68557e-09
-5.03075e-09
8.81941e-11
-2.06915e-10
5.51226e-09
-6.2945e-09
9.89149e-10
3.93621e-09
-4.63751e-09
1.65755e-10
-1.26031e-09
-1.4657e-09
-5.22568e-09
5.33581e-09
4.21605e-10
-5.3179e-10
2.99294e-09
-8.8505e-09
6.31828e-10
-3.54588e-09
9.89983e-11
-5.22769e-09
-7.6007e-09
-3.04843e-09
-4.07464e-10
-4.84695e-09
1.05902e-08
6.88166e-09
-3.47481e-09
-3.81435e-09
9.05109e-09
4.30473e-09
-1.03629e-08
9.44465e-09
2.80588e-11
1.12891e-08
-6.88532e-09
1.89556e-09
1.90066e-09
2.60782e-09
7.01622e-09
-3.72204e-09
-6.21194e-09
8.33041e-09
-7.19247e-09
-1.11086e-08
5.3212e-09
1.29799e-08
-7.02673e-09
-2.04849e-10
3.91176e-11
-9.5671e-09
-3.54336e-10
-1.18715e-09
-5.07681e-09
-1.1517e-08
-5.58548e-09
4.74415e-10
1.04323e-08
-3.74229e-09
4.17111e-09
-4.45534e-09
4.02651e-09
-3.82151e-09
-1.2565e-10
-4.35488e-09
-1.26788e-09
7.83958e-09
-2.21682e-09
-2.34352e-10
-5.35604e-09
-5.83767e-10
-5.50032e-09
4.27211e-09
-5.00213e-09
6.23033e-09
-2.16969e-10
-5.31836e-09
3.50055e-11
8.91762e-09
4.77533e-09
-4.11631e-09
-4.48053e-09
1.03009e-10
-3.89546e-09
6.37052e-09
-3.74296e-09
-8.24613e-09
4.61935e-09
-3.5672e-09
-2.12152e-09
3.62019e-10
-3.09571e-10
2.68413e-09
-9.39304e-09
7.01869e-09
4.85266e-09
-6.66802e-09
1.50585e-09
4.96077e-10
-2.49371e-09
8.63754e-09
-6.63987e-09
5.97514e-09
-4.22573e-09
-1.25333e-09
2.39684e-09
3.22705e-09
3.5136e-10
9.93469e-10
-7.89789e-09
9.58871e-09
-1.2919e-09
1.91888e-09
-5.51839e-09
7.66109e-09
-1.14916e-09
-2.22124e-10
5.62111e-09
-3.0021e-09
9.67437e-09
-3.77398e-09
-6.12247e-09
4.28789e-09
-9.14489e-09
6.87391e-09
-2.0167e-09
1.07321e-08
-2.08881e-09
1.2246e-09
-9.86787e-09
-1.95051e-09
1.18871e-09
1.14939e-08
1.18217e-08
-1.1286e-09
-1.24463e-08
1.75318e-09
2.91356e-09
1.284e-08
-3.93186e-09
1.08244e-08
-4.03504e-10
-1.25098e-08
9.87839e-09
-1.00444e-09
-1.52203e-09
-1.34892e-08
1.62359e-08
-1.30924e-08
3.8554e-09
8.89886e-09
3.38197e-10
2.37272e-09
-5.58676e-09
1.71327e-08
-2.61808e-09
-1.60367e-08
1.32699e-08
4.61502e-09
-7.52231e-10
-1.32917e-09
-1.3571e-08
1.78138e-08
-4.86279e-09
-1.54594e-08
1.89931e-08
-1.77872e-08
1.67798e-08
-1.0364e-08
-5.05044e-09
1.18773e-08
-1.48989e-08
-1.45172e-09
-1.36189e-08
-3.88804e-10
-1.75275e-09
-1.21056e-08
-2.81994e-10
5.18757e-09
2.17943e-09
1.28282e-09
4.14175e-09
-1.8042e-09
-6.95457e-09
1.0742e-08
-1.98326e-09
-3.81782e-09
7.60787e-09
6.91428e-09
6.75829e-09
4.43235e-09
-6.25259e-09
5.73119e-09
3.70585e-09
5.78563e-09
-1.93108e-08
9.5124e-09
1.16506e-08
-1.85236e-09
5.83946e-09
-7.03541e-09
-1.09665e-08
1.21623e-08
-6.23727e-09
-7.23406e-09
1.89065e-09
6.33978e-09
-9.80427e-09
1.57378e-09
-2.29476e-09
4.78297e-09
-8.72553e-09
1.35811e-09
-1.06883e-08
-8.28487e-10
-7.54083e-09
7.01814e-10
7.66744e-09
6.24267e-09
-7.08734e-09
1.61647e-11
-6.48605e-09
2.52381e-09
5.85286e-09
-3.4425e-10
1.00849e-10
-5.89647e-09
8.16996e-09
-7.02759e-09
4.75407e-09
-6.26459e-09
2.38663e-11
-9.90214e-09
-9.02584e-10
1.21239e-08
-1.31924e-09
-1.21153e-08
-1.27295e-09
3.48604e-09
4.22225e-09
-1.0405e-08
3.56457e-09
-6.42966e-09
9.79119e-09
-2.58553e-09
-8.44558e-10
-3.59751e-09
-5.28554e-09
-8.17685e-09
2.91835e-09
1.86438e-09
-5.96889e-10
-4.18583e-09
4.22317e-10
2.83188e-09
-3.35827e-10
3.45496e-09
-2.46856e-09
1.20627e-09
2.68607e-09
-4.37363e-10
-2.55649e-09
2.85166e-09
1.27162e-10
-4.66558e-09
3.89415e-09
7.93096e-10
-1.83558e-09
1.37565e-09
3.04978e-09
-5.31283e-10
-5.09069e-10
5.77525e-09
-4.46259e-09
5.32918e-09
-9.62234e-10
8.45217e-09
-6.65486e-09
1.30041e-09
-3.09774e-09
-8.68904e-10
6.51255e-10
1.28737e-08
-1.26561e-08
1.84402e-10
7.39884e-09
-8.39267e-09
-8.17148e-10
2.55498e-09
2.01311e-09
-8.17327e-09
-8.14495e-09
5.69866e-09
1.62915e-09
4.45815e-10
-6.57762e-09
-2.80108e-10
-7.04679e-09
7.97815e-09
6.00932e-09
-8.17683e-10
-4.74583e-09
1.09582e-09
-6.47319e-09
5.56172e-09
-5.43443e-09
6.25015e-09
-1.29379e-09
1.13029e-09
-3.7734e-09
-6.03891e-09
4.37785e-09
-6.40173e-09
1.3345e-09
-5.29097e-09
4.5164e-09
6.12029e-10
1.06333e-10
7.21394e-09
-6.63605e-09
5.54258e-09
-4.73037e-09
1.15683e-10
1.16755e-09
5.88494e-09
-6.48055e-09
-5.71907e-10
8.11162e-09
3.25985e-10
5.27026e-09
5.60833e-09
3.289e-09
-1.50726e-09
-3.43074e-10
-5.36554e-09
9.95643e-09
5.43481e-10
3.82489e-09
1.07179e-09
-9.16335e-09
4.2666e-09
-1.41088e-08
1.25682e-08
-6.02269e-09
3.618e-09
3.47651e-09
1.19701e-08
-1.18666e-08
-9.26699e-09
-6.19389e-09
4.05517e-09
-6.3424e-09
-1.1876e-09
6.4814e-09
-2.96703e-09
-1.53809e-08
-3.22225e-09
-1.12598e-08
-3.36685e-09
-1.50835e-09
5.89546e-09
-1.02023e-09
-2.2603e-09
2.94428e-09
-2.03674e-09
-2.29139e-09
2.8198e-09
1.00073e-09
-2.76974e-09
3.66061e-09
5.00474e-09
6.49993e-10
-4.75429e-10
1.4324e-08
-2.11301e-09
-1.46895e-09
2.16759e-09
2.47691e-09
-3.64378e-09
4.86161e-09
-1.10342e-09
-3.90007e-09
1.41855e-10
-1.08698e-10
-8.68103e-10
5.83846e-09
-8.89009e-09
-7.72853e-10
9.55427e-09
-1.10258e-08
-2.0907e-09
4.22636e-09
-4.04086e-09
7.33909e-09
6.37081e-09
1.18647e-09
-1.15981e-08
3.1593e-09
-3.41701e-10
-2.61011e-09
-9.13601e-10
2.65572e-09
-5.54223e-10
6.58705e-09
-6.22318e-09
5.96254e-10
-4.60814e-10
6.05892e-09
2.2864e-09
-4.71705e-09
1.15171e-10
-7.84931e-09
1.24511e-08
-1.24347e-08
-3.45666e-09
7.32468e-09
8.56665e-09
-4.96304e-09
-1.21888e-08
-5.16093e-09
-4.12726e-09
8.90985e-09
3.7828e-10
1.01008e-08
-8.32939e-09
-6.93232e-09
9.79477e-09
-1.40708e-10
-1.46172e-08
2.21081e-09
-9.04831e-09
5.31033e-09
1.26478e-08
3.87728e-10
6.64691e-10
-6.74644e-09
1.47894e-09
1.04861e-08
-5.21869e-09
-6.20072e-10
-8.57307e-09
2.44668e-09
3.12308e-09
-1.15932e-08
-9.90863e-09
1.66979e-08
6.96481e-09
-7.19438e-09
6.17262e-10
6.7213e-09
-9.46214e-09
2.12072e-09
3.77746e-09
-2.60067e-09
-5.85724e-09
3.28489e-09
-7.3562e-09
-8.77792e-09
-7.74121e-10
5.46543e-09
-6.78455e-09
6.94948e-09
-7.73696e-09
1.33517e-11
-1.20328e-08
-3.85782e-09
1.35936e-08
2.29717e-09
-6.70709e-09
-1.23048e-08
6.97916e-09
-1.05174e-08
5.22555e-09
1.43431e-09
8.75383e-09
-5.73645e-10
-1.48872e-08
5.8797e-09
-7.6432e-09
1.05598e-09
-2.42853e-09
8.3222e-09
-2.23485e-09
6.70023e-09
1.07118e-08
-3.81839e-09
-6.73552e-09
7.84975e-09
4.11142e-09
5.437e-10
-1.39946e-09
-1.00902e-09
5.47452e-09
-7.94941e-09
4.51186e-09
5.57094e-09
-9.66997e-09
3.5254e-09
7.36766e-09
-1.2529e-09
-5.09793e-09
4.99836e-09
-1.12233e-08
-8.17834e-09
-9.39625e-09
3.08613e-09
-4.91324e-09
3.06518e-09
-7.95445e-10
1.8047e-09
-6.47638e-09
6.73224e-09
-3.70211e-09
-7.50567e-10
-2.27969e-09
4.97814e-09
-7.15181e-09
-7.67157e-09
-3.37774e-09
7.34724e-09
7.91759e-09
-1.85479e-09
-1.54158e-09
-4.52122e-09
-1.31979e-09
4.52557e-09
4.71182e-09
1.17066e-08
-5.6934e-09
-7.86804e-09
4.60325e-09
5.7836e-09
8.54313e-09
-8.87219e-09
9.59532e-10
6.56485e-09
6.58157e-09
-4.96293e-09
1.13157e-08
-1.37469e-09
-3.84985e-09
-5.36327e-09
-5.48393e-09
-9.75877e-10
-6.57077e-09
1.30306e-08
-4.97763e-09
1.11012e-08
-1.10866e-08
-5.42669e-09
-5.49828e-09
5.44108e-09
-5.45965e-09
-9.10595e-09
1.82322e-08
-8.36558e-09
-1.08425e-08
1.07954e-08
2.45923e-09
-2.2306e-09
-7.04595e-09
-6.3948e-09
-1.57865e-08
1.38156e-08
-1.40851e-08
-1.30032e-08
-3.1944e-09
6.1877e-10
1.55788e-08
-1.10121e-08
2.12012e-09
-4.11119e-09
2.46269e-09
-1.02108e-08
-3.26405e-09
-1.42099e-08
-4.0568e-10
1.14211e-08
-1.13051e-08
-7.84675e-10
-9.47534e-09
-2.90432e-09
1.29984e-08
-8.02568e-09
1.01303e-09
5.78936e-09
-2.62733e-09
8.55169e-09
-1.17137e-08
-3.33011e-09
-1.09128e-09
-7.45794e-09
-2.65102e-09
7.20459e-09
5.10557e-09
-8.08e-09
-5.05128e-09
-2.55641e-09
2.04021e-10
5.57289e-09
5.8549e-09
-1.40551e-08
-5.83723e-09
8.18556e-09
5.332e-09
-7.66269e-09
5.65966e-09
-3.05321e-11
-9.07133e-09
8.73655e-09
5.99441e-09
-8.79875e-10
-2.85944e-09
-3.63331e-09
5.67983e-09
-1.29348e-09
-7.17222e-09
9.12444e-09
-6.58645e-10
4.78128e-09
-9.69074e-09
1.05977e-08
-5.68813e-09
6.26281e-09
-1.86326e-09
3.81766e-10
2.5555e-10