/*--------------------------------*- C++ -*----------------------------------*\
| =========                 |                                                 |
| \\      /  F ield         | OpenFOAM: The Open Source CFD Toolbox           |
|  \\    /   O peration     | Version:  v1612+                                |
|   \\  /    A nd           | Web:      www.OpenFOAM.com                      |
|    \\/     M anipulation  |                                                 |
\*---------------------------------------------------------------------------*/
FoamFile
{
    version     2.0;
    format      ascii;
    class       volScalarField;
    location    "239";
    object      p;
}
// * * * * * * * * * * * * * * * * * * * * * * * * * * * * * * * * * * * * * //

dimensions      [0 2 -2 0 0 0 0];

internalField   nonuniform List<scalar> 
16880
(
3.77299
3.82495
3.8344
3.8296
3.79276
3.79601
3.77679
3.77706
3.77882
3.78381
3.77972
3.78168
3.77145
3.77219
3.77524
3.77294
3.77937
3.77101
3.77513
3.77381
3.77465
3.77447
3.77272
3.77253
3.77089
3.774
3.77501
3.76085
3.76392
3.7647
3.77454
3.76767
3.76555
3.76505
3.76398
3.76962
3.76557
3.76734
3.82484
3.82424
3.82181
3.81699
3.83074
3.82842
3.82916
3.82206
3.82005
3.81996
3.8286
3.82669
3.82768
3.8223
3.82285
3.82563
3.82731
3.76691
3.76504
3.77097
3.76822
3.77171
3.76547
3.7677
3.76639
3.7699
3.76815
3.76711
3.76489
3.77063
3.76554
3.76436
3.76508
3.8385
3.83638
3.83899
3.84014
3.83475
3.84127
3.83219
3.83506
3.83723
3.83392
3.83482
3.75727
3.76429
3.76573
3.76031
3.76922
3.76678
3.76469
3.7634
3.76324
3.76691
3.76829
3.77012
3.76929
3.76639
3.76557
3.76564
3.76621
3.76501
3.76903
3.77314
3.83
3.82638
3.82891
3.82819
3.83247
3.8316
3.82941
3.82582
3.82321
3.82678
3.83036
3.82878
3.82459
3.82883
3.82185
3.82104
3.82657
3.82565
3.82272
3.82144
3.82277
3.83116
3.82974
3.82748
3.82589
3.82478
3.82939
3.82731
3.82661
3.82347
3.82446
3.82265
3.83055
3.82259
3.82564
3.82767
3.82843
3.82594
3.82692
3.8247
3.82415
3.82901
3.78852
3.78856
3.78726
3.78132
3.78438
3.79081
3.78757
3.78526
3.78969
3.78989
3.7883
3.78398
3.78789
3.78729
3.78484
3.7973
3.80577
3.80292
3.79955
3.80381
3.80196
3.80666
3.79757
3.80615
3.79931
3.79736
3.79763
3.79731
3.79576
3.79316
3.7986
3.79932
3.799
3.79656
3.83291
3.83595
3.83579
3.83409
3.83331
3.83393
3.83435
3.83342
3.83762
3.83219
3.82973
3.83582
3.79873
3.80392
3.80032
3.79576
3.79941
3.79857
3.79949
3.79745
3.79684
3.79326
3.79359
3.79538
3.79504
3.80658
3.81243
3.81202
3.80982
3.81682
3.81255
3.81363
3.8189
3.80652
3.80893
3.81126
3.81579
3.81586
3.81184
3.81502
3.8111
3.81453
3.81152
3.81587
3.82068
3.8169
3.81496
3.81781
3.82024
3.81782
3.82138
3.81761
3.81821
3.81437
3.81294
3.81143
3.81282
3.81823
3.81753
3.81767
3.82296
3.81057
3.82177
3.82132
3.81616
3.83471
3.83753
3.83116
3.83493
3.82771
3.82619
3.83406
3.83305
3.82692
3.83032
3.83419
3.83121
3.83183
3.8292
3.82869
3.83566
3.8295
3.82809
3.83068
3.77675
3.77856
3.77681
3.77457
3.77994
3.77712
3.77687
3.77242
3.77822
3.77757
3.7803
3.77908
3.77011
3.77364
3.77218
3.77846
3.77968
3.7791
3.77312
3.77409
3.78009
3.77761
3.77082
3.77469
3.7812
3.78267
3.78708
3.77778
3.78931
3.78003
3.78031
3.78442
3.78221
3.78863
3.78528
3.78821
3.78656
3.78197
3.78064
3.78312
3.78244
3.78245
3.77762
3.7804
3.78765
3.782
3.78221
3.77475
3.82705
3.82743
3.82727
3.82785
3.82527
3.82935
3.82917
3.82653
3.83112
3.82141
3.82762
3.81929
3.82229
3.82025
3.82632
3.82444
3.78103
3.77658
3.78191
3.77886
3.77574
3.77407
3.77813
3.78492
3.77456
3.77888
3.77412
3.77798
3.78211
3.78147
3.78233
3.77753
3.77996
3.77872
3.78007
3.78027
3.77345
3.81132
3.81575
3.81384
3.81581
3.81584
3.8136
3.8055
3.81306
3.8148
3.8153
3.81263
3.81416
3.81192
3.81303
3.80683
3.81299
3.79559
3.7958
3.79412
3.79704
3.79355
3.79991
3.7927
3.7933
3.7947
3.79201
3.78878
3.79447
3.79361
3.7966
3.79011
3.79602
3.79133
3.79491
3.7958
3.80143
3.79125
3.79607
3.80163
3.79812
3.79893
3.80296
3.80933
3.80481
3.80168
3.80334
3.80126
3.79829
3.7933
3.79318
3.80424
3.8028
3.80228
3.80816
3.80666
3.80462
3.80219
3.8043
3.80479
3.79873
3.80148
3.8019
3.80345
3.80252
3.8012
3.8034
3.80285
3.7994
3.80017
3.79187
3.79871
3.79182
3.79518
3.79717
3.79816
3.79597
3.79921
3.79838
3.79414
3.79628
3.7939
3.79099
3.79503
3.79271
3.79976
3.79469
3.76544
3.77606
3.76849
3.77651
3.77579
3.77608
3.77834
3.77066
3.76902
3.77774
3.77624
3.77851
3.76771
3.77579
3.77312
3.77174
3.77189
3.7646
3.76397
3.76683
3.76802
3.76957
3.76086
3.76434
3.76596
3.7646
3.76416
3.76139
3.75752
3.76462
3.76209
3.76454
3.76696
3.76696
3.76012
3.75992
3.76247
3.76338
3.75654
3.76286
3.7584
3.7661
3.76496
3.7664
3.75774
3.7613
3.76664
3.75932
3.76233
3.76058
3.75469
3.76354
3.75989
3.76418
3.76204
3.76207
3.76443
3.76362
3.76612
3.76067
3.76149
3.76853
3.77192
3.76788
3.76173
3.76415
3.7649
3.76721
3.76648
3.7662
3.76861
3.76719
3.76484
3.77756
3.77721
3.77999
3.77908
3.77353
3.77868
3.77681
3.77842
3.77363
3.77431
3.77124
3.77787
3.77567
3.77406
3.77662
3.77993
3.77566
3.77131
3.772
3.77583
3.7881
3.78612
3.78026
3.78024
3.77186
3.78475
3.78314
3.78037
3.78003
3.78087
3.78959
3.78358
3.78352
3.78101
3.78446
3.77853
3.77905
3.81517
3.81318
3.81209
3.80863
3.81866
3.815
3.81999
3.82045
3.82113
3.82019
3.81416
3.81543
3.81525
3.81355
3.8186
3.82005
3.81889
3.81754
3.81811
3.81774
3.76691
3.76629
3.76683
3.76563
3.76321
3.76832
3.76636
3.76876
3.76628
3.76674
3.76564
3.76893
3.77071
3.77337
3.77238
3.76977
3.77275
3.77095
3.77287
3.77157
3.77419
3.77415
3.77047
3.77242
3.77318
3.77733
3.7725
3.77751
3.77684
3.83578
3.82822
3.82668
3.82856
3.82801
3.83195
3.8323
3.82972
3.82591
3.82961
3.83607
3.83663
3.83097
3.82605
3.83158
3.83044
3.82468
3.82755
3.83235
3.83229
3.82819
3.82987
3.82846
3.82885
3.83543
3.83282
3.83201
3.83292
3.83452
3.83417
3.835
3.83569
3.77818
3.77926
3.77705
3.77601
3.78108
3.78351
3.78233
3.77942
3.78012
3.77776
3.78238
3.77983
3.78216
3.78005
3.78837
3.7889
3.78347
3.78278
3.78555
3.77273
3.77529
3.7729
3.77596
3.77464
3.77549
3.77219
3.77499
3.77603
3.76901
3.76929
3.77168
3.76892
3.77829
3.77401
3.77221
3.77861
3.76933
3.7676
3.77317
3.77871
3.78175
3.77637
3.77413
3.77627
3.77854
3.77797
3.77511
3.77124
3.77232
3.77662
3.778
3.77742
3.77373
3.77246
3.77373
3.77142
3.77614
3.77263
3.77142
3.80755
3.80573
3.79859
3.80579
3.80395
3.79375
3.8041
3.79796
3.80799
3.80634
3.80878
3.80926
3.80679
3.8019
3.80655
3.78632
3.78795
3.79452
3.78654
3.79052
3.78747
3.78808
3.78976
3.78782
3.78823
3.79249
3.7899
3.78682
3.79016
3.78586
3.7845
3.7871
3.78377
3.78652
3.7584
3.75936
3.75994
3.75733
3.76077
3.75857
3.83163
3.82754
3.83106
3.83447
3.82734
3.82358
3.82776
3.82502
3.83024
3.82615
3.83295
3.83218
3.83152
3.83441
3.82921
3.82846
3.83267
3.83089
3.80652
3.80298
3.80015
3.81093
3.80707
3.80204
3.80414
3.80405
3.80477
3.80491
3.7726
3.77637
3.77697
3.77474
3.76848
3.77467
3.77678
3.77622
3.77839
3.77382
3.77647
3.77573
3.77509
3.77743
3.77771
3.78017
3.77667
3.77597
3.78429
3.77588
3.77087
3.77306
3.77584
3.78204
3.77402
3.77362
3.77709
3.78501
3.78547
3.79668
3.79648
3.79536
3.79397
3.7936
3.79431
3.79639
3.79515
3.792
3.79892
3.79887
3.7903
3.79811
3.79838
3.80202
3.79948
3.80533
3.80903
3.80743
3.80991
3.80802
3.80884
3.80823
3.81107
3.81346
3.80973
3.81151
3.8091
3.81066
3.81163
3.81488
3.81302
3.81373
3.81414
3.824
3.82095
3.82115
3.82422
3.82095
3.8232
3.82817
3.82935
3.8246
3.82527
3.82754
3.82541
3.82499
3.82611
3.82457
3.82376
3.82298
3.82595
3.82737
3.83061
3.82828
3.80717
3.80074
3.79714
3.80264
3.79645
3.80569
3.79971
3.80126
3.80735
3.81067
3.79928
3.80069
3.80371
3.80376
3.80947
3.8098
3.80317
3.80582
3.81227
3.81802
3.81456
3.81553
3.81256
3.81362
3.81512
3.81174
3.81025
3.81457
3.80997
3.81237
3.81504
3.80921
3.80736
3.81455
3.81134
3.81134
3.81366
3.80755
3.80996
3.80915
3.80598
3.81061
3.81041
3.81022
3.80202
3.80782
3.80465
3.81247
3.80877
3.8088
3.81124
3.80702
3.81261
3.81204
3.82019
3.82281
3.8187
3.82209
3.82481
3.82218
3.81804
3.82161
3.8198
3.81783
3.8262
3.82407
3.82747
3.82245
3.82239
3.82213
3.82505
3.82352
3.82486
3.82607
3.82396
3.82972
3.82645
3.82772
3.82778
3.82845
3.8255
3.82728
3.83042
3.83073
3.82826
3.82799
3.82411
3.82572
3.82924
3.83445
3.82768
3.82876
3.82677
3.83018
3.82779
3.82865
3.83442
3.83141
3.82799
3.82819
3.82583
3.82335
3.82602
3.82923
3.83741
3.8322
3.82342
3.8235
3.82101
3.82315
3.82674
3.82634
3.82875
3.82882
3.83059
3.82294
3.80543
3.79719
3.80806
3.80681
3.80373
3.80177
3.80277
3.80262
3.80584
3.80608
3.80515
3.80471
3.80208
3.76721
3.76724
3.76596
3.76628
3.76348
3.76018
3.76432
3.76078
3.79081
3.78821
3.78362
3.79303
3.7911
3.78794
3.78598
3.78813
3.78882
3.78743
3.78558
3.79176
3.78588
3.79041
3.78438
3.79367
3.81126
3.81013
3.81136
3.80537
3.81102
3.80837
3.81357
3.80603
3.80226
3.80153
3.80644
3.80822
3.80838
3.80512
3.80812
3.77676
3.77734
3.77863
3.77573
3.77945
3.78231
3.78135
3.78711
3.78758
3.78146
3.78672
3.78094
3.78209
3.7806
3.78935
3.77818
3.78228
3.78226
3.78273
3.78272
3.7776
3.7825
3.78194
3.78446
3.78591
3.78516
3.7872
3.79214
3.7931
3.79001
3.78938
3.79446
3.79018
3.79155
3.79659
3.79644
3.79828
3.79468
3.79477
3.78566
3.78899
3.79505
3.79406
3.79199
3.79262
3.79312
3.79426
3.77285
3.77428
3.77617
3.77105
3.76917
3.77644
3.76925
3.77443
3.77118
3.77218
3.77001
3.77962
3.7824
3.77155
3.77483
3.79317
3.79074
3.78654
3.79196
3.79674
3.79182
3.79012
3.79331
3.79139
3.79318
3.79716
3.79212
3.79446
3.77866
3.77637
3.77638
3.77754
3.77715
3.77535
3.77435
3.78062
3.77705
3.77746
3.77931
3.75731
3.75822
3.75961
3.75979
3.75912
3.75807
3.76096
3.76327
3.75705
3.75905
3.75519
3.75617
3.75733
3.75542
3.76394
3.75506
3.75449
3.75809
3.75529
3.75882
3.75552
3.75998
3.76142
3.76274
3.75782
3.76439
3.7655
3.76176
3.7619
3.76953
3.76494
3.76116
3.76701
3.76727
3.77087
3.76731
3.76784
3.77107
3.76483
3.77083
3.77176
3.7739
3.7681
3.77299
3.77143
3.7729
3.77262
3.76718
3.76601
3.78135
3.77902
3.77664
3.7748
3.77527
3.78038
3.77436
3.7746
3.77993
3.7758
3.77716
3.78292
3.78236
3.77752
3.77709
3.77769
3.78234
3.78312
3.77928
3.77936
3.79046
3.78834
3.78655
3.78775
3.78951
3.78241
3.78622
3.78838
3.78845
3.79258
3.78326
3.78408
3.78937
3.78663
3.79606
3.79186
3.79119
3.79466
3.80288
3.8009
3.79532
3.78965
3.78767
3.78928
3.79166
3.7944
3.79746
3.79976
3.79254
3.79655
3.80141
3.8014
3.80009
3.79778
3.80315
3.79648
3.79612
3.79917
3.79422
3.80216
3.80037
3.79706
3.80458
3.80129
3.7984
3.80365
3.80151
3.81006
3.80942
3.81022
3.80499
3.80652
3.80403
3.80416
3.80717
3.80104
3.81111
3.81258
3.80483
3.80839
3.80928
3.81493
3.81304
3.81131
3.80902
3.80626
3.81526
3.80928
3.80975
3.81559
3.80941
3.81541
3.80871
3.81254
3.81177
3.81364
3.80908
3.81398
3.81521
3.81716
3.80737
3.8199
3.81935
3.8134
3.81605
3.82313
3.82414
3.81841
3.81814
3.82169
3.82039
3.8178
3.81652
3.82211
3.82474
3.82241
3.82177
3.82194
3.81927
3.81851
3.82349
3.8241
3.82281
3.82629
3.82877
3.82428
3.8301
3.83021
3.83496
3.82973
3.82766
3.83029
3.82579
3.82367
3.8266
3.83008
3.83304
3.83261
3.83305
3.82565
3.83228
3.83142
3.83246
3.83312
3.83867
3.84067
3.83655
3.83508
3.83629
3.83678
3.83825
3.83284
3.83341
3.83481
3.83426
3.84334
3.84395
3.83877
3.83843
3.8457
3.83978
3.84474
3.84024
3.83541
3.84001
3.83505
3.8369
3.84738
3.84455
3.84152
3.84244
3.85229
3.84446
3.84796
3.83766
3.8455
3.8368
3.83872
3.83816
3.84363
3.84836
3.84202
3.84204
3.84416
3.83785
3.84536
3.83969
3.84078
3.84078
3.84086
3.84261
3.85404
3.84842
3.8431
3.84914
3.84508
3.84456
3.84154
3.84921
3.83519
3.84952
3.84578
3.83418
3.83645
3.83611
3.8348
3.83793
3.83935
3.8391
3.84784
3.83769
3.83581
3.83499
3.82712
3.83481
3.83349
3.82817
3.83888
3.83667
3.83777
3.83558
3.84186
3.8359
3.84203
3.8347
3.83983
3.83961
3.83777
3.83947
3.83296
3.8313
3.83111
3.83703
3.83625
3.83107
3.83493
3.83976
3.83726
3.83539
3.82723
3.83294
3.83347
3.82825
3.83416
3.83156
3.83303
3.82541
3.83057
3.83273
3.83001
3.8275
3.83425
3.82983
3.82917
3.83062
3.83467
3.83956
3.83986
3.83176
3.83166
3.83216
3.8404
3.83695
3.83051
3.83071
3.83099
3.82854
3.83322
3.82887
3.837
3.83291
3.8382
3.83412
3.83488
3.83255
3.83257
3.82839
3.83564
3.8335
3.83346
3.82878
3.83754
3.83225
3.83613
3.83155
3.82817
3.83744
3.83411
3.83237
3.83886
3.83359
3.83531
3.82949
3.83065
3.83246
3.83073
3.83553
3.83442
3.83765
3.83437
3.83808
3.83965
3.8344
3.84145
3.83536
3.83558
3.83602
3.83915
3.83137
3.83148
3.83538
3.82866
3.83388
3.8258
3.8305
3.83485
3.83207
3.83076
3.82905
3.83287
3.83098
3.82989
3.83092
3.83178
3.83811
3.83802
3.83967
3.83497
3.8356
3.82982
3.83015
3.83075
3.82132
3.83052
3.83389
3.82968
3.833
3.82538
3.83049
3.82985
3.83091
3.8283
3.83092
3.82864
3.83673
3.83228
3.83415
3.83122
3.83098
3.83035
3.83525
3.82247
3.82847
3.82372
3.82957
3.82366
3.82214
3.82577
3.82916
3.82735
3.82303
3.82497
3.8169
3.82677
3.82301
3.82243
3.82568
3.83004
3.82945
3.81487
3.82457
3.8232
3.82846
3.82297
3.82651
3.82265
3.82952
3.82215
3.82253
3.82512
3.82323
3.82107
3.83332
3.83273
3.82323
3.82473
3.82695
3.82232
3.82721
3.83419
3.81887
3.82419
3.8243
3.8273
3.81996
3.81761
3.82838
3.82946
3.83042
3.82449
3.82588
3.8201
3.82173
3.82711
3.82634
3.82974
3.83497
3.83483
3.83152
3.82961
3.82598
3.82689
3.82525
3.82004
3.82544
3.82231
3.82399
3.82199
3.82337
3.82937
3.82099
3.83527
3.83354
3.82757
3.82905
3.83268
3.83143
3.83274
3.82434
3.82692
3.82488
3.82599
3.82727
3.81631
3.81315
3.81677
3.8239
3.82466
3.82098
3.82162
3.81697
3.81546
3.82213
3.82251
3.8187
3.82459
3.82495
3.81668
3.81393
3.82027
3.82257
3.81874
3.8189
3.82078
3.82156
3.82297
3.82127
3.82361
3.82942
3.82494
3.82448
3.80794
3.81685
3.8218
3.81616
3.81713
3.81371
3.80996
3.81922
3.82044
3.81254
3.82067
3.81708
3.81612
3.81747
3.82387
3.81865
3.8184
3.82038
3.82852
3.82632
3.82202
3.8193
3.82035
3.82069
3.81933
3.82326
3.81591
3.81774
3.82313
3.81356
3.81332
3.82149
3.81864
3.81694
3.8104
3.81983
3.81681
3.81909
3.81711
3.82033
3.81715
3.82025
3.82184
3.8179
3.83327
3.82507
3.82175
3.82486
3.8257
3.82736
3.81758
3.82494
3.82713
3.81331
3.81584
3.8186
3.81197
3.81138
3.8137
3.81702
3.81292
3.81584
3.81323
3.81672
3.81925
3.81555
3.82281
3.81937
3.8185
3.80911
3.81154
3.81658
3.81482
3.81414
3.8107
3.81083
3.81442
3.8128
3.81769
3.80811
3.80913
3.80941
3.81545
3.81456
3.8212
3.82347
3.81389
3.82067
3.81559
3.81322
3.81255
3.81263
3.81961
3.82564
3.82951
3.82747
3.82608
3.8226
3.81761
3.82119
3.81065
3.81937
3.81381
3.81184
3.81801
3.81408
3.82524
3.83001
3.82181
3.8223
3.82176
3.82205
3.81083
3.80986
3.818
3.8146
3.81106
3.81213
3.81958
3.81535
3.82219
3.81916
3.81321
3.82133
3.82067
3.82246
3.8181
3.80915
3.81248
3.80604
3.81713
3.81147
3.80986
3.81462
3.81188
3.81253
3.81536
3.81731
3.81175
3.81169
3.81245
3.82007
3.81655
3.82109
3.81819
3.81724
3.81525
3.81778
3.8182
3.80626
3.79869
3.80286
3.81199
3.80923
3.81095
3.8135
3.81935
3.81983
3.81522
3.81106
3.81058
3.7998
3.80193
3.8125
3.81052
3.80866
3.8058
3.80798
3.80679
3.81082
3.81651
3.80458
3.80348
3.81244
3.80489
3.8037
3.80813
3.8088
3.8066
3.80988
3.80863
3.80585
3.81113
3.80836
3.80897
3.80762
3.80131
3.80956
3.81772
3.8127
3.82185
3.8173
3.81899
3.81079
3.81941
3.80955
3.81061
3.81114
3.81202
3.81559
3.81179
3.80385
3.80347
3.80726
3.80695
3.80519
3.80923
3.80525
3.81342
3.81093
3.81136
3.80989
3.8054
3.80966
3.80711
3.8136
3.81084
3.80768
3.80407
3.80664
3.80408
3.80378
3.80451
3.80859
3.81284
3.80829
3.8061
3.81214
3.80786
3.81002
3.81451
3.81405
3.80975
3.80914
3.80865
3.81045
3.81212
3.80099
3.80016
3.80098
3.81103
3.80909
3.80634
3.8003
3.80677
3.8136
3.80484
3.81678
3.81557
3.81192
3.80826
3.7986
3.8017
3.80873
3.80761
3.79971
3.80529
3.80075
3.79906
3.80062
3.8071
3.81438
3.81208
3.79753
3.79362
3.79615
3.8033
3.80031
3.80559
3.8002
3.79341
3.79637
3.79553
3.80194
3.79794
3.8124
3.79793
3.80231
3.80714
3.80491
3.80332
3.80582
3.80207
3.79993
3.80439
3.80695
3.80317
3.80388
3.80795
3.80673
3.80186
3.79964
3.8053
3.80278
3.80041
3.79669
3.80578
3.80291
3.80159
3.80699
3.80505
3.80988
3.815
3.81119
3.81197
3.80792
3.8096
3.81022
3.79342
3.7963
3.80041
3.79135
3.79923
3.80655
3.79416
3.79734
3.79393
3.79406
3.79832
3.80142
3.79699
3.79833
3.80307
3.7995
3.7918
3.79188
3.80248
3.80261
3.80186
3.80246
3.81197
3.80952
3.79793
3.80538
3.80389
3.80428
3.8094
3.80509
3.80703
3.80544
3.8065
3.80312
3.80307
3.80455
3.80284
3.803
3.80675
3.79577
3.79503
3.80188
3.79646
3.8033
3.79752
3.79822
3.79612
3.80299
3.79982
3.79694
3.79364
3.79946
3.79269
3.79868
3.80369
3.80089
3.81193
3.80777
3.80501
3.80926
3.79478
3.80181
3.79967
3.79841
3.79984
3.79114
3.79911
3.79023
3.79666
3.79137
3.79496
3.78869
3.7914
3.79856
3.79878
3.79039
3.78618
3.80311
3.79835
3.79935
3.80026
3.79732
3.80062
3.78475
3.7912
3.78846
3.79301
3.80168
3.79679
3.79991
3.80291
3.79056
3.7957
3.78994
3.79011
3.7897
3.79263
3.79074
3.7969
3.7916
3.79401
3.7955
3.79112
3.79182
3.80431
3.79677
3.79952
3.80062
3.79852
3.79266
3.79282
3.79737
3.79336
3.79656
3.79177
3.80565
3.80112
3.79798
3.79841
3.79687
3.79872
3.7909
3.79071
3.78731
3.79391
3.78789
3.79565
3.78785
3.78954
3.79015
3.78937
3.78754
3.79291
3.78944
3.79425
3.78664
3.78979
3.78978
3.7948
3.79535
3.78823
3.79252
3.79336
3.79216
3.79524
3.79258
3.78977
3.80127
3.79552
3.80473
3.79493
3.79304
3.80062
3.79543
3.78426
3.79308
3.79042
3.78334
3.79474
3.79422
3.79292
3.78965
3.79035
3.79783
3.79708
3.78985
3.79153
3.79202
3.78231
3.78488
3.78989
3.78335
3.78415
3.79231
3.7883
3.78487
3.78777
3.78642
3.78548
3.79316
3.77824
3.78525
3.78609
3.78485
3.78613
3.78009
3.78183
3.7885
3.78269
3.78194
3.78634
3.78627
3.77655
3.78327
3.78589
3.78282
3.78235
3.78628
3.7866
3.78801
3.79207
3.78651
3.78605
3.78504
3.78187
3.79042
3.7843
3.78503
3.78269
3.7788
3.77804
3.78469
3.78253
3.78967
3.7919
3.79214
3.79732
3.79673
3.79133
3.78771
3.79577
3.79434
3.78794
3.78633
3.78597
3.78239
3.79102
3.78561
3.78166
3.78464
3.78834
3.78914
3.78887
3.7913
3.79491
3.79045
3.79258
3.79517
3.79397
3.78747
3.79019
3.79201
3.78677
3.79007
3.78906
3.78596
3.77961
3.77705
3.78391
3.78326
3.77845
3.78616
3.79032
3.7916
3.78141
3.78517
3.78663
3.78998
3.78341
3.782
3.78536
3.78512
3.79371
3.7874
3.78778
3.78711
3.78486
3.7936
3.78815
3.78774
3.78677
3.78813
3.78471
3.77724
3.78423
3.77841
3.78101
3.78958
3.78686
3.79527
3.7954
3.79517
3.79328
3.78772
3.7837
3.78161
3.78543
3.78177
3.78032
3.7838
3.78623
3.78931
3.7887
3.78871
3.7906
3.78842
3.78226
3.78718
3.78764
3.79003
3.78916
3.78082
3.79402
3.78588
3.78814
3.79605
3.77571
3.7786
3.78318
3.77173
3.78002
3.77767
3.77816
3.76711
3.77869
3.78085
3.77712
3.77644
3.77398
3.77492
3.77642
3.7825
3.77975
3.78018
3.77954
3.77794
3.78229
3.77712
3.77635
3.78603
3.78583
3.78941
3.78532
3.77641
3.78014
3.78428
3.78397
3.78781
3.78374
3.78923
3.77995
3.77933
3.78159
3.78181
3.78167
3.77997
3.78025
3.77483
3.77331
3.78053
3.78337
3.77326
3.77492
3.77911
3.77987
3.78265
3.79182
3.78691
3.78454
3.77138
3.77871
3.78175
3.78175
3.77828
3.77611
3.78303
3.77887
3.78217
3.7796
3.78345
3.78273
3.76906
3.77937
3.78062
3.77802
3.77624
3.76903
3.76896
3.77635
3.77282
3.77879
3.77483
3.78423
3.78471
3.78175
3.7708
3.78171
3.78077
3.77635
3.77792
3.77879
3.77855
3.78438
3.78279
3.78247
3.77853
3.78752
3.78743
3.7819
3.78477
3.78361
3.77776
3.78132
3.76887
3.77222
3.77646
3.77669
3.77525
3.77563
3.77668
3.77492
3.77157
3.76739
3.77722
3.77885
3.7759
3.77479
3.77289
3.77704
3.78009
3.77501
3.77346
3.77321
3.77619
3.77659
3.76917
3.77488
3.76767
3.78227
3.77806
3.77637
3.78014
3.7788
3.78274
3.78225
3.77308
3.77597
3.77362
3.76945
3.77317
3.77229
3.77541
3.76885
3.77316
3.76331
3.77344
3.76499
3.76939
3.76961
3.77625
3.76824
3.77235
3.77224
3.77262
3.77393
3.76924
3.77306
3.77704
3.77658
3.78206
3.7844
3.7863
3.78213
3.77945
3.78422
3.77914
3.77566
3.78121
3.77739
3.77982
3.78172
3.78082
3.76664
3.77121
3.77476
3.76329
3.76942
3.7626
3.76725
3.77261
3.76988
3.77305
3.77125
3.77297
3.77041
3.77153
3.76665
3.77716
3.77359
3.77943
3.77452
3.77451
3.76215
3.76705
3.76532
3.76692
3.77017
3.77117
3.77478
3.77278
3.7698
3.77067
3.76722
3.76783
3.77334
3.76159
3.7685
3.76681
3.76466
3.77042
3.7708
3.76941
3.77324
3.77347
3.76962
3.77995
3.77351
3.76442
3.76869
3.76389
3.77011
3.76672
3.77496
3.76206
3.76128
3.76342
3.76499
3.76669
3.76069
3.7612
3.76379
3.76979
3.76752
3.769
3.77243
3.76794
3.76438
3.75595
3.76385
3.7619
3.76781
3.76395
3.7679
3.76045
3.76607
3.76414
3.76441
3.76416
3.76497
3.76186
3.75856
3.77381
3.77456
3.76675
3.76966
3.77666
3.77241
3.76263
3.76639
3.76606
3.76833
3.76622
3.76416
3.76522
3.75329
3.75364
3.76162
3.75766
3.7583
3.75704
3.76253
3.7595
3.75463
3.75998
3.76394
3.76275
3.76207
3.7596
3.75866
3.75597
3.75717
3.75882
3.75463
3.75724
3.75659
3.76306
3.76038
3.76111
3.75936
3.7582
3.75612
3.76505
3.76349
3.75953
3.77018
3.77368
3.76884
3.76593
3.76619
3.76775
3.76396
3.75943
3.76412
3.76196
3.75966
3.76696
3.7625
3.76983
3.76552
3.76189
3.76368
3.76287
3.7554
3.76138
3.76403
3.76243
3.76399
3.76527
3.76497
3.76268
3.7686
3.76391
3.76727
3.76495
3.75884
3.76519
3.7674
3.76711
3.77218
3.76575
3.76413
3.76637
3.76584
3.77028
3.76467
3.76466
3.76583
3.76343
3.76042
3.76379
3.76321
3.75968
3.77037
3.76626
3.76792
3.76239
3.75594
3.75625
3.7633
3.76377
3.75546
3.76304
3.76502
3.76173
3.76271
3.76408
3.76171
3.7523
3.75494
3.75143
3.75891
3.78263
3.77454
3.77858
3.77833
3.77596
3.77281
3.78166
3.78262
3.76941
3.77844
3.77596
3.7712
3.76955
3.76903
3.77367
3.76913
3.77211
3.77257
3.77986
3.77723
3.77818
3.78268
3.78082
3.77787
3.77768
3.77531
3.77301
3.77368
3.77405
3.77162
3.77327
3.77396
3.77472
3.77714
3.77274
3.78001
3.77601
3.77142
3.7694
3.77818
3.77305
3.77517
3.77391
3.77161
3.7716
3.7677
3.76292
3.77042
3.76595
3.77981
3.77847
3.77603
3.78499
3.77967
3.78085
3.77286
3.77549
3.76904
3.77138
3.76671
3.77032
3.76967
3.76839
3.77687
3.77368
3.77734
3.77336
3.77062
3.77062
3.77419
3.77597
3.77789
3.77499
3.7727
3.77484
3.76924
3.7716
3.77192
3.77709
3.77446
3.7692
3.7676
3.77331
3.77272
3.77089
3.77448
3.77861
3.77837
3.7738
3.78212
3.78497
3.76979
3.77229
3.76952
3.7675
3.78083
3.78151
3.77277
3.77159
3.77969
3.77401
3.774
3.777
3.77671
3.77532
3.77743
3.77409
3.77137
3.77809
3.77975
3.77472
3.77888
3.77257
3.77203
3.77431
3.77489
3.77551
3.77561
3.77182
3.76938
3.77008
3.78828
3.79131
3.78838
3.79549
3.78902
3.79255
3.78975
3.79024
3.78795
3.77848
3.77772
3.78151
3.77693
3.78551
3.786
3.7837
3.78141
3.77622
3.78469
3.78449
3.78271
3.78695
3.77966
3.77584
3.7776
3.78314
3.78314
3.78518
3.78497
3.78118
3.77741
3.78565
3.78475
3.78146
3.80169
3.79557
3.79699
3.80032
3.79516
3.79643
3.78972
3.79214
3.7885
3.79288
3.78599
3.79389
3.78789
3.79714
3.79048
3.7862
3.79486
3.7948
3.78924
3.79363
3.79256
3.78611
3.78017
3.77734
3.77817
3.78725
3.78582
3.78592
3.78578
3.77968
3.78689
3.78848
3.7817
3.78583
3.78772
3.77923
3.78097
3.78244
3.78439
3.78982
3.7866
3.7903
3.78507
3.78457
3.78241
3.78496
3.79424
3.79108
3.78775
3.78591
3.78661
3.78289
3.78964
3.78474
3.78911
3.78612
3.78722
3.79207
3.79149
3.8052
3.79612
3.80207
3.7954
3.7979
3.79999
3.80127
3.80239
3.79424
3.79396
3.80103
3.80249
3.79915
3.7962
3.79287
3.79115
3.7992
3.79581
3.79073
3.79946
3.79686
3.79552
3.79962
3.79671
3.79558
3.79557
3.79405
3.79846
3.80212
3.79895
3.80186
3.80121
3.80277
3.80305
3.8001
3.80077
3.79612
3.79316
3.79983
3.79853
3.7998
3.79903
3.80033
3.79953
3.79986
3.79992
3.8094
3.8049
3.80651
3.80506
3.80955
3.812
3.80562
3.80083
3.80688
3.80263
3.79271
3.79513
3.79416
3.79587
3.7956
3.7953
3.79878
3.79124
3.78964
3.79539
3.7915
3.79011
3.79019
3.7881
3.79023
3.78975
3.79251
3.7928
3.80663
3.80197
3.80599
3.8039
3.79582
3.80716
3.80123
3.80813
3.80013
3.79692
3.80126
3.79793
3.80435
3.80396
3.79991
3.79847
3.80009
3.79528
3.8046
3.79702
3.80453
3.80705
3.80507
3.80798
3.80316
3.80265
3.79791
3.80249
3.80294
3.80738
3.80771
3.80904
3.80154
3.8087
3.81028
3.80674
3.81492
3.81233
3.80798
3.80662
3.81593
3.81681
3.81807
3.81489
3.82231
3.82382
3.81964
3.81951
3.81459
3.82211
3.82013
3.8189
3.80124
3.80109
3.80849
3.8072
3.80567
3.8011
3.80255
3.7961
3.80401
3.80604
3.8018
3.79993
3.8003
3.8022
3.80218
3.80032
3.80084
3.80975
3.80019
3.8064
3.80736
3.803
3.81013
3.80265
3.80534
3.8038
3.81082
3.81175
3.80273
3.81389
3.81151
3.80702
3.80969
3.81039
3.80713
3.81022
3.8163
3.81879
3.82151
3.81782
3.81557
3.81162
3.82113
3.81806
3.8278
3.82838
3.8278
3.82602
3.82452
3.81056
3.80784
3.8111
3.80976
3.81143
3.80799
3.81664
3.81043
3.81635
3.80652
3.81096
3.81133
3.80972
3.80485
3.80741
3.81769
3.81098
3.8068
3.81763
3.81415
3.80832
3.81403
3.80925
3.8108
3.80984
3.81209
3.82232
3.82048
3.82196
3.81871
3.82077
3.81755
3.82103
3.8144
3.81401
3.80543
3.81638
3.80959
3.80999
3.80596
3.81473
3.81109
3.80988
3.81076
3.81646
3.81199
3.80975
3.80743
3.81034
3.81161
3.82972
3.82698
3.82138
3.82269
3.82005
3.81977
3.82451
3.81957
3.82731
3.82658
3.82556
3.82342
3.81732
3.81777
3.8156
3.81455
3.8183
3.81563
3.81016
3.81267
3.81658
3.80626
3.8078
3.81547
3.81392
3.82057
3.82075
3.81704
3.8205
3.81907
3.82617
3.8219
3.81923
3.82578
3.82571
3.82245
3.82049
3.82105
3.82467
3.82419
3.82307
3.81648
3.81755
3.821
3.81517
3.82026
3.82274
3.81781
3.8192
3.82123
3.81561
3.81821
3.81732
3.82293
3.81909
3.81556
3.81409
3.80831
3.81781
3.81542
3.81825
3.81633
3.82972
3.83706
3.82856
3.82799
3.83063
3.83214
3.82988
3.82502
3.83304
3.83723
3.83564
3.83431
3.83317
3.84101
3.83323
3.83377
3.83496
3.83373
3.83411
3.82824
3.83679
3.83754
3.81829
3.81896
3.82096
3.82381
3.82265
3.82182
3.83375
3.83441
3.83053
3.81273
3.82274
3.8226
3.82805
3.8231
3.82447
3.82376
3.82385
3.81904
3.81893
3.82451
3.82442
3.81938
3.82042
3.81574
3.81218
3.81737
3.81452
3.82727
3.82645
3.8259
3.82793
3.82939
3.82383
3.82724
3.81623
3.81815
3.81988
3.81998
3.82229
3.8201
3.82129
3.81728
3.81913
3.81767
3.81881
3.83524
3.83339
3.8369
3.83416
3.83169
3.84192
3.83708
3.83056
3.8316
3.83482
3.83232
3.84206
3.83988
3.82277
3.82359
3.82734
3.82926
3.83387
3.8306
3.82688
3.82515
3.82211
3.83252
3.82869
3.83239
3.83735
3.83515
3.82355
3.82813
3.82596
3.82817
3.82774
3.82727
3.82542
3.82745
3.83026
3.83128
3.83272
3.82436
3.82216
3.82591
3.82625
3.82758
3.83588
3.83294
3.82823
3.82657
3.82948
3.83246
3.83558
3.83248
3.83226
3.82896
3.82966
3.82753
3.83592
3.83963
3.83649
3.83389
3.83562
3.83366
3.83917
3.83407
3.83594
3.83732
3.8278
3.82874
3.83168
3.83154
3.83601
3.8382
3.83512
3.84089
3.83969
3.8396
3.84151
3.83327
3.83699
3.80027
3.79284
3.79319
3.79255
3.79327
3.79122
3.78996
3.80025
3.7969
3.79544
3.79567
3.79177
3.79144
3.7967
3.80029
3.79164
3.79654
3.79799
3.8126
3.8126
3.81298
3.81655
3.81414
3.81346
3.81313
3.80712
3.81326
3.80945
3.81655
3.80625
3.76625
3.76316
3.7579
3.76033
3.76374
3.76
3.76264
3.75925
3.7751
3.77536
3.77454
3.7721
3.7767
3.77806
3.7779
3.77762
3.78265
3.77999
3.77973
3.77928
3.8403
3.83025
3.84352
3.83638
3.84695
3.84239
3.83954
3.8402
3.83514
3.83321
3.84494
3.84444
3.84047
3.84842
3.83115
3.84068
3.83748
3.83227
3.84028
3.8338
3.84486
3.8438
3.84076
3.84763
3.84636
3.83434
3.83743
3.83265
3.83462
3.83387
3.83244
3.84154
3.8423
3.84031
3.84714
3.84745
3.83477
3.83887
3.8287
3.82886
3.83001
3.83101
3.83229
3.83465
3.83268
3.83242
3.83114
3.83343
3.83862
3.84168
3.84277
3.83584
3.8335
3.83788
3.8278
3.83695
3.83257
3.82972
3.82727
3.82342
3.82528
3.82507
3.83023
3.82942
3.82856
3.82191
3.826
3.83266
3.82413
3.82407
3.82764
3.82565
3.82632
3.8274
3.81666
3.82537
3.82603
3.82334
3.80925
3.81372
3.81404
3.80422
3.80864
3.80907
3.82154
3.81933
3.81744
3.8149
3.81658
3.81424
3.81526
3.83339
3.83515
3.83303
3.82513
3.82772
3.83185
3.83256
3.80507
3.8101
3.81123
3.81653
3.81404
3.81791
3.81268
3.81007
3.81667
3.81427
3.81557
3.81442
3.81288
3.81365
3.8163
3.82261
3.81873
3.81916
3.81945
3.81923
3.81117
3.81675
3.82111
3.82039
3.82048
3.81683
3.81724
3.82166
3.81604
3.82188
3.82371
3.82582
3.81769
3.8211
3.81266
3.81481
3.8234
3.82971
3.81947
3.81973
3.8183
3.81909
3.81715
3.80965
3.80851
3.80759
3.80812
3.81083
3.80012
3.8051
3.80721
3.80669
3.80302
3.80906
3.80163
3.80946
3.80584
3.8126
3.81587
3.81015
3.81247
3.81464
3.81245
3.8165
3.81544
3.81298
3.81583
3.80291
3.80357
3.80781
3.80479
3.80725
3.80576
3.80563
3.81323
3.81178
3.80967
3.80867
3.81661
3.81578
3.81573
3.81255
3.82215
3.82085
3.82226
3.81916
3.79815
3.79567
3.79719
3.79673
3.80462
3.80104
3.80026
3.8007
3.80146
3.80492
3.80622
3.80812
3.80885
3.80853
3.80973
3.81006
3.80913
3.80321
3.80433
3.80672
3.81152
3.80365
3.79627
3.80246
3.79701
3.80427
3.79543
3.79781
3.80685
3.80273
3.80281
3.79803
3.81296
3.80958
3.80519
3.81572
3.79869
3.80017
3.80744
3.80435
3.80034
3.80199
3.80379
3.80252
3.80478
3.79749
3.79956
3.79931
3.80367
3.81009
3.80274
3.80762
3.80439
3.80263
3.8036
3.80689
3.80546
3.8036
3.80468
3.80261
3.80264
3.80162
3.8017
3.79472
3.79917
3.79569
3.79599
3.79553
3.80061
3.80262
3.79455
3.79429
3.78717
3.79322
3.79563
3.804
3.79902
3.79366
3.79345
3.79836
3.78948
3.79031
3.79553
3.7993
3.79636
3.80107
3.79225
3.79282
3.79991
3.79525
3.79237
3.79093
3.80024
3.79619
3.78603
3.78191
3.78862
3.79227
3.79198
3.78817
3.79046
3.79103
3.78917
3.79346
3.791
3.79091
3.79853
3.79827
3.79455
3.79171
3.79412
3.79452
3.8023
3.79927
3.79771
3.7927
3.79743
3.78908
3.79599
3.79457
3.79385
3.79097
3.79452
3.79107
3.79582
3.79082
3.79058
3.79323
3.79478
3.79126
3.79373
3.79248
3.78814
3.78694
3.7933
3.79632
3.77819
3.78582
3.77559
3.77956
3.78072
3.78233
3.78464
3.78602
3.78043
3.78711
3.78422
3.78156
3.77896
3.78062
3.78372
3.78859
3.77887
3.77788
3.77865
3.78654
3.78384
3.78876
3.78489
3.78937
3.78971
3.78578
3.78775
3.78966
3.79025
3.78717
3.77678
3.78236
3.78017
3.78676
3.76212
3.76249
3.77318
3.77018
3.76776
3.77272
3.7681
3.77622
3.77473
3.77143
3.77291
3.77306
3.77146
3.77013
3.77258
3.77338
3.76649
3.76864
3.76941
3.77303
3.77547
3.77746
3.77703
3.77379
3.76908
3.77659
3.76979
3.77761
3.77694
3.77797
3.77951
3.78259
3.77025
3.76758
3.77047
3.7723
3.77389
3.77563
3.77702
3.77318
3.77499
3.77213
3.77165
3.77186
3.77391
3.76808
3.76892
3.76743
3.77215
3.77066
3.76635
3.76095
3.7646
3.76391
3.76152
3.76475
3.76245
3.77545
3.78124
3.77773
3.77349
3.78207
3.78107
3.7819
3.78527
3.76063
3.7608
3.76318
3.76617
3.76655
3.7684
3.76682
3.76637