/*--------------------------------*- C++ -*----------------------------------*\
| =========                 |                                                 |
| \\      /  F ield         | OpenFOAM: The Open Source CFD Toolbox           |
|  \\    /   O peration     | Version:  v1612+                                |
|   \\  /    A nd           | Web:      www.OpenFOAM.com                      |
|    \\/     M anipulation  |                                                 |
\*---------------------------------------------------------------------------*/
FoamFile
{
    version     2.0;
    format      ascii;
    class       volVectorField;
    location    "239";
    object      U;
}
// * * * * * * * * * * * * * * * * * * * * * * * * * * * * * * * * * * * * * //

dimensions      [0 1 -1 0 0 0 0];

internalField   nonuniform List<vector> 
16762
(
(-0.0833954 0.380926 -0.226276)
(-0.191999 0.826807 -0.49399)
(-0.189967 0.808981 -0.485647)
(-0.175881 0.82766 -0.505931)
(-0.167906 0.855184 -0.51719)
(-0.163596 0.859303 -0.518111)
(-0.155836 0.840305 -0.525069)
(-0.165038 0.833737 -0.516713)
(-0.174739 0.863644 -0.50782)
(-0.171802 0.890456 -0.509702)
(-0.160864 0.882638 -0.514815)
(-0.172467 0.826118 -0.516981)
(-0.158389 0.88477 -0.516304)
(-0.171279 0.885259 -0.511424)
(-0.169985 0.893063 -0.514081)
(-0.174401 0.87112 -0.512788)
(-0.186074 0.830324 -0.496014)
(-0.187421 0.864287 -0.505383)
(-0.167727 0.552486 -0.412395)
(-0.169332 0.581606 -0.419598)
(-0.145403 0.511517 -0.373831)
(-0.15544 0.560718 -0.404617)
(-0.145526 0.51856 -0.373691)
(-0.146746 0.434634 -0.330573)
(-0.166564 0.514483 -0.390885)
(-0.170707 0.560687 -0.416056)
(-0.14887 0.450291 -0.348969)
(-0.150721 0.463186 -0.350112)
(-0.15291 0.494029 -0.371624)
(-0.142937 0.461956 -0.344157)
(-0.140777 0.442127 -0.336003)
(-0.134422 0.471578 -0.346668)
(-0.143839 0.455511 -0.336529)
(-0.161899 0.596532 -0.418181)
(-0.151186 0.546293 -0.383029)
(-0.148055 0.487338 -0.362217)
(-0.160267 0.584608 -0.410053)
(-0.156884 0.543847 -0.394781)
(-0.110802 0.591334 -0.443824)
(-0.0911178 0.598741 -0.457056)
(-0.114718 0.646957 -0.484031)
(-0.122968 0.641954 -0.474746)
(-0.107511 0.620695 -0.465633)
(-0.11496 0.657445 -0.479718)
(-0.113789 0.643087 -0.47758)
(-0.132372 0.658558 -0.493801)
(-0.123294 0.699601 -0.509674)
(-0.138937 0.727183 -0.526181)
(-0.147388 0.730202 -0.525223)
(-0.145108 0.738756 -0.532781)
(-0.151949 0.72484 -0.522678)
(-0.112394 0.682685 -0.502236)
(-0.107555 0.673335 -0.495726)
(-0.117493 0.73051 -0.523097)
(-0.104338 0.645103 -0.468631)
(-0.105043 0.668135 -0.483017)
(-0.145172 0.750935 -0.536689)
(-0.109034 0.650842 -0.482602)
(-0.138221 0.776143 -0.538139)
(-0.137544 0.758038 -0.539229)
(-0.224644 0.772116 -0.5707)
(-0.238037 0.79076 -0.596575)
(-0.225631 0.800636 -0.589916)
(-0.235352 0.832493 -0.617847)
(-0.238817 0.840444 -0.632912)
(-0.176163 0.812089 -0.520642)
(-0.164965 0.717526 -0.483899)
(-0.178479 0.791769 -0.521452)
(-0.18419 0.826643 -0.532517)
(-0.174562 0.803723 -0.530182)
(-0.155304 0.694797 -0.481827)
(-0.19906 0.863077 -0.558666)
(-0.186919 0.820956 -0.547982)
(-0.185691 0.83445 -0.563236)
(-0.191728 0.854418 -0.596294)
(-0.203312 0.867853 -0.604517)
(-0.174136 0.801903 -0.574259)
(-0.159972 0.764677 -0.541015)
(-0.164094 0.782106 -0.561404)
(-0.152633 0.738382 -0.534243)
(-0.195747 0.84977 -0.604345)
(-0.177549 0.790414 -0.572437)
(-0.177104 0.828721 -0.574735)
(-0.1509 0.742932 -0.535611)
(-0.139586 0.696886 -0.511536)
(-0.158853 0.769732 -0.548259)
(-0.13892 0.703507 -0.503213)
(-0.147225 0.716204 -0.52121)
(-0.119795 0.646793 -0.479653)
(-0.133082 0.713512 -0.511905)
(-0.0659036 0.405024 -0.43109)
(-0.065657 0.387587 -0.441917)
(-0.0617527 0.364038 -0.424731)
(-0.102354 0.496658 -0.497553)
(-0.087923 0.494853 -0.500222)
(-0.10179 0.505264 -0.490469)
(-0.0906638 0.507533 -0.506417)
(-0.0490559 0.341667 -0.394114)
(-0.0566293 0.372122 -0.404405)
(-0.0492668 0.329926 -0.375198)
(-0.0515752 0.39491 -0.423033)
(-0.0680823 0.440996 -0.455549)
(-0.0789945 0.400688 -0.453799)
(-0.0809602 0.418562 -0.439332)
(-0.0963328 0.804044 -0.484459)
(-0.107095 0.844167 -0.501006)
(-0.105244 0.822771 -0.509802)
(-0.107595 0.835724 -0.511138)
(-0.102073 0.840169 -0.500019)
(-0.13552 0.872005 -0.523815)
(-0.142698 0.86803 -0.529165)
(-0.112141 0.852162 -0.524794)
(-0.124878 0.841655 -0.526742)
(-0.12095 0.845538 -0.512051)
(-0.148087 0.875381 -0.534777)
(-0.125731 0.854023 -0.524298)
(-0.13024 0.864939 -0.518647)
(-0.141566 0.880037 -0.525135)
(-0.133807 0.869388 -0.516649)
(-0.133174 0.860889 -0.534129)
(-0.0722532 0.361612 -0.43077)
(-0.0656552 0.344639 -0.420377)
(-0.0720864 0.416715 -0.435677)
(-0.0564982 0.379374 -0.417599)
(-0.0693785 0.353544 -0.415169)
(-0.119111 0.463723 -0.470998)
(-0.127474 0.504293 -0.498059)
(-0.0918499 0.388652 -0.437648)
(-0.0916194 0.3728 -0.421248)
(-0.0805481 0.442582 -0.445056)
(-0.124356 0.492005 -0.486913)
(-0.123319 0.523144 -0.502391)
(-0.118094 0.46316 -0.477284)
(-0.1371 0.579632 -0.546581)
(-0.110319 0.535357 -0.50702)
(-0.116631 0.540478 -0.526238)
(-0.165202 0.541037 -0.407332)
(-0.175024 0.547187 -0.420726)
(-0.17159 0.501305 -0.396711)
(-0.179028 0.617011 -0.44727)
(-0.172903 0.571543 -0.418683)
(-0.181626 0.611796 -0.457862)
(-0.181598 0.556274 -0.439263)
(-0.15781 0.499831 -0.382097)
(-0.16458 0.510421 -0.39547)
(-0.165529 0.499161 -0.396168)
(-0.169277 0.577037 -0.428424)
(-0.191629 0.639958 -0.469671)
(-0.173155 0.513664 -0.42052)
(-0.175539 0.560311 -0.434393)
(-0.183713 0.600439 -0.44611)
(-0.15363 0.847114 -0.533959)
(-0.142118 0.859186 -0.533925)
(-0.171206 0.878391 -0.51092)
(-0.17479 0.885199 -0.515314)
(-0.157477 0.881551 -0.523023)
(-0.150155 0.879437 -0.519475)
(-0.149735 0.860647 -0.534344)
(-0.175064 0.88267 -0.507195)
(-0.184761 0.845538 -0.4905)
(-0.176226 0.868719 -0.503406)
(-0.149751 0.8698 -0.524429)
(-0.159384 0.885747 -0.52044)
(-0.171687 0.830945 -0.508359)
(-0.187945 0.85108 -0.491075)
(-0.193936 0.895445 -0.514914)
(-0.201361 0.906146 -0.517992)
(-0.19749 0.90172 -0.518109)
(-0.200394 0.906246 -0.515622)
(-0.19781 0.90388 -0.519106)
(-0.17738 0.910424 -0.522908)
(-0.186509 0.909972 -0.522535)
(-0.205391 0.907564 -0.521986)
(-0.20172 0.871289 -0.496322)
(-0.200261 0.847675 -0.489089)
(-0.193865 0.868333 -0.500981)
(-0.194654 0.867856 -0.508426)
(-0.203957 0.86115 -0.496805)
(-0.201727 0.85553 -0.497604)
(-0.192044 0.910651 -0.518893)
(-0.181871 0.910555 -0.514795)
(-0.171345 0.918325 -0.518531)
(-0.175856 0.906058 -0.516595)
(-0.17537 0.889986 -0.513013)
(-0.205834 0.915078 -0.51953)
(-0.228855 0.801574 -0.559496)
(-0.215633 0.74687 -0.523104)
(-0.216989 0.726996 -0.514156)
(-0.221467 0.770669 -0.540833)
(-0.233497 0.777199 -0.565119)
(-0.226635 0.73956 -0.537071)
(-0.232536 0.790033 -0.560211)
(-0.231059 0.774948 -0.551101)
(-0.222242 0.777843 -0.549924)
(-0.223329 0.780914 -0.533244)
(-0.220306 0.738013 -0.517023)
(-0.231798 0.825134 -0.568706)
(-0.233504 0.835061 -0.577287)
(-0.233651 0.799384 -0.563271)
(-0.240349 0.829828 -0.571812)
(-0.227743 0.793277 -0.543881)
(-0.230827 0.836323 -0.558121)
(-0.230671 0.818587 -0.560726)
(-0.231407 0.846343 -0.579227)
(-0.218037 0.71842 -0.51484)
(-0.227522 0.789873 -0.549991)
(-0.239759 0.833973 -0.572506)
(-0.237639 0.825735 -0.556892)
(-0.236688 0.83746 -0.566744)
(-0.192542 0.732381 -0.483208)
(-0.193653 0.710229 -0.465201)
(-0.173493 0.743955 -0.510016)
(-0.193175 0.750178 -0.493629)
(-0.179499 0.79855 -0.50984)
(-0.187847 0.735877 -0.501495)
(-0.189589 0.773465 -0.519604)
(-0.186002 0.750026 -0.518908)
(-0.203156 0.760674 -0.463509)
(-0.177711 0.806316 -0.507123)
(-0.209697 0.746207 -0.448717)
(-0.203422 0.718599 -0.462577)
(-0.17388 0.811858 -0.513597)
(-0.195594 0.760335 -0.488213)
(-0.195318 0.747607 -0.48612)
(-0.193092 0.786108 -0.475588)
(-0.207074 0.756895 -0.453997)
(-0.203875 0.721465 -0.44701)
(-0.185569 0.789733 -0.479635)
(-0.201812 0.774518 -0.461781)
(-0.227008 0.801411 -0.463536)
(-0.231839 0.850056 -0.485711)
(-0.23571 0.883937 -0.504588)
(-0.215519 0.803383 -0.460088)
(-0.205899 0.789529 -0.460446)
(-0.223366 0.846353 -0.483562)
(-0.228042 0.875048 -0.491328)
(-0.230018 0.855959 -0.48451)
(-0.203377 0.824959 -0.475645)
(-0.220774 0.873068 -0.493791)
(-0.213499 0.877759 -0.497748)
(-0.211412 0.876117 -0.499321)
(-0.0884993 0.4209 -0.250299)
(-0.0809042 0.390098 -0.228181)
(-0.0872841 0.417318 -0.240239)
(-0.0948227 0.42752 -0.259032)
(-0.0872189 0.466674 -0.26649)
(-0.0770616 0.411822 -0.23258)
(-0.0723595 0.381368 -0.222044)
(-0.0965712 0.482422 -0.27892)
(-0.0884631 0.434684 -0.248787)
(-0.100363 0.442505 -0.259131)
(-0.116005 0.475949 -0.296613)
(-0.121145 0.498852 -0.301074)
(-0.0852911 0.411007 -0.237875)
(-0.0961097 0.429714 -0.254879)
(-0.138529 0.546109 -0.328625)
(-0.090595 0.459669 -0.260455)
(-0.124033 0.537716 -0.31364)
(-0.127263 0.510147 -0.311483)
(-0.13971 0.550114 -0.329288)
(-0.117608 0.491383 -0.299708)
(-0.120299 0.514886 -0.306748)
(-0.133707 0.555354 -0.327356)
(-0.143354 0.777517 -0.516816)
(-0.15274 0.796486 -0.534681)
(-0.144706 0.774499 -0.513586)
(-0.154445 0.798553 -0.527453)
(-0.155773 0.789455 -0.524169)
(-0.143484 0.742884 -0.499544)
(-0.143964 0.774776 -0.522379)
(-0.133499 0.741015 -0.49969)
(-0.178672 0.855552 -0.562341)
(-0.190486 0.870992 -0.566703)
(-0.170838 0.831555 -0.556253)
(-0.17971 0.85529 -0.573298)
(-0.163558 0.803109 -0.545598)
(-0.196279 0.891387 -0.577508)
(-0.160924 0.791654 -0.529797)
(-0.170307 0.828632 -0.554832)
(-0.191226 0.865528 -0.573261)
(-0.192935 0.882861 -0.575992)
(-0.189817 0.876344 -0.579185)
(-0.164097 0.787989 -0.542102)
(-0.156534 0.680891 -0.500292)
(-0.135994 0.614215 -0.451041)
(-0.126253 0.561279 -0.410617)
(-0.151862 0.659064 -0.47763)
(-0.1382 0.607494 -0.442365)
(-0.097779 0.51635 -0.390925)
(-0.115725 0.586114 -0.443128)
(-0.153397 0.669086 -0.482084)
(-0.125923 0.573854 -0.435712)
(-0.115104 0.498401 -0.388304)
(-0.154457 0.678978 -0.485748)
(-0.11105 0.593599 -0.445852)
(-0.143802 0.631531 -0.461411)
(-0.102938 0.509139 -0.390252)
(-0.0968368 0.486384 -0.364544)
(-0.133697 0.577012 -0.423854)
(-0.0890809 0.804725 -0.506053)
(-0.0674026 0.721517 -0.437566)
(-0.0661087 0.735732 -0.441668)
(-0.0704416 0.739621 -0.43589)
(-0.0668985 0.734411 -0.449388)
(-0.093187 0.824281 -0.517924)
(-0.0978783 0.826582 -0.493024)
(-0.0945913 0.819122 -0.503018)
(-0.105737 0.838361 -0.509241)
(-0.102137 0.508108 -0.396073)
(-0.0979536 0.489805 -0.389806)
(-0.0902254 0.498772 -0.386052)
(-0.125776 0.577453 -0.439172)
(-0.124716 0.667495 -0.494452)
(-0.140171 0.665246 -0.495327)
(-0.132433 0.570643 -0.442442)
(-0.143418 0.626955 -0.472727)
(-0.118124 0.588084 -0.453377)
(-0.118469 0.622645 -0.476071)
(-0.103905 0.565477 -0.43682)
(-0.120027 0.615236 -0.469167)
(-0.144508 0.672294 -0.498754)
(-0.130989 0.598451 -0.452734)
(-0.113601 0.587021 -0.448774)
(-0.154403 0.794473 -0.544186)
(-0.156556 0.807755 -0.55395)
(-0.139071 0.72814 -0.509007)
(-0.151412 0.754308 -0.530976)
(-0.174937 0.827444 -0.563825)
(-0.178402 0.833389 -0.574761)
(-0.188365 0.859061 -0.582861)
(-0.194357 0.867961 -0.583153)
(-0.151543 0.760633 -0.541918)
(-0.126336 0.673689 -0.476487)
(-0.144378 0.76411 -0.52415)
(-0.148297 0.76736 -0.525095)
(-0.140172 0.755833 -0.516583)
(-0.167296 0.812461 -0.553696)
(-0.162113 0.785071 -0.542314)
(-0.176954 0.833009 -0.572884)
(-0.188596 0.859594 -0.579952)
(-0.141373 0.750964 -0.516197)
(-0.131596 0.699774 -0.485797)
(-0.158921 0.807788 -0.547719)
(-0.148623 0.740341 -0.52201)
(-0.143837 0.721786 -0.506832)
(-0.146847 0.61581 -0.557787)
(-0.138792 0.621592 -0.546813)
(-0.125337 0.513367 -0.492317)
(-0.142642 0.616959 -0.538224)
(-0.116779 0.513795 -0.489811)
(-0.079343 0.463414 -0.451204)
(-0.0830022 0.441709 -0.441204)
(-0.114239 0.564128 -0.522723)
(-0.151314 0.757948 -0.515401)
(-0.153282 0.754554 -0.515378)
(-0.192044 0.855475 -0.586441)
(-0.19073 0.859485 -0.586017)
(-0.148075 0.749183 -0.516359)
(-0.180341 0.829783 -0.571468)
(-0.166775 0.805073 -0.559474)
(-0.15372 0.760279 -0.525968)
(-0.127688 0.66767 -0.471126)
(-0.145894 0.731318 -0.507331)
(-0.129929 0.698136 -0.48787)
(-0.132729 0.672734 -0.472582)
(-0.152147 0.793501 -0.498236)
(-0.186555 0.894295 -0.559195)
(-0.165786 0.82029 -0.515658)
(-0.18427 0.884001 -0.56038)
(-0.151688 0.76521 -0.490719)
(-0.151432 0.780637 -0.493662)
(-0.154589 0.785876 -0.500958)
(-0.15776 0.840863 -0.529903)
(-0.18616 0.880566 -0.554588)
(-0.180059 0.87674 -0.564412)
(-0.180003 0.886997 -0.55881)
(-0.183003 0.879686 -0.559509)
(-0.164282 0.823689 -0.527051)
(-0.152843 0.832771 -0.527628)
(-0.14664 0.789813 -0.503295)
(-0.168697 0.869588 -0.546139)
(-0.166709 0.869472 -0.547424)
(-0.169871 0.864524 -0.556821)
(-0.15989 0.850039 -0.540038)
(-0.157536 0.817764 -0.526735)
(-0.20155 0.833355 -0.479748)
(-0.208435 0.777222 -0.460828)
(-0.196832 0.77885 -0.472999)
(-0.18741 0.808436 -0.503473)
(-0.209966 0.811864 -0.47453)
(-0.211364 0.829306 -0.482391)
(-0.198854 0.793563 -0.482979)
(-0.205921 0.780852 -0.473864)
(-0.212465 0.806724 -0.470257)
(-0.124502 0.501361 -0.367705)
(-0.112474 0.450269 -0.320505)
(-0.0982238 0.403281 -0.290614)
(-0.101044 0.431591 -0.312237)
(-0.0933358 0.390503 -0.303714)
(-0.108169 0.438941 -0.335982)
(-0.107757 0.417156 -0.301574)
(-0.0901887 0.361395 -0.271325)
(-0.130452 0.513229 -0.398551)
(-0.0773587 0.349246 -0.269976)
(-0.12922 0.538572 -0.399767)
(-0.118991 0.519983 -0.391488)
(-0.104551 0.406992 -0.303639)
(-0.131921 0.537196 -0.394062)
(-0.135685 0.541697 -0.399575)
(-0.102507 0.419901 -0.312203)
(-0.215938 0.856568 -0.528564)
(-0.215684 0.852916 -0.524261)
(-0.207642 0.8274 -0.514125)
(-0.219506 0.825574 -0.505978)
(-0.198038 0.853544 -0.528973)
(-0.19895 0.873842 -0.531404)
(-0.208765 0.896897 -0.53795)
(-0.209562 0.877042 -0.530276)
(-0.208057 0.827249 -0.519456)
(-0.206923 0.836811 -0.509738)
(-0.195539 0.820181 -0.519792)
(-0.1888 0.870999 -0.521821)
(-0.200674 0.864957 -0.515147)
(-0.190235 0.867293 -0.523649)
(-0.188903 0.857511 -0.529561)
(-0.201614 0.861262 -0.512755)
(-0.195203 0.866652 -0.518884)
(-0.088431 0.741858 -0.494429)
(-0.0756673 0.721735 -0.479338)
(-0.0926681 0.752204 -0.507217)
(-0.0970393 0.751328 -0.508436)
(-0.135916 0.84169 -0.530236)
(-0.130646 0.861404 -0.528078)
(-0.087309 0.763736 -0.508224)
(-0.0785561 0.717877 -0.469841)
(-0.130825 0.818636 -0.535756)
(-0.123129 0.801194 -0.531521)
(-0.131819 0.852303 -0.535327)
(-0.12522 0.852436 -0.528044)
(-0.133154 0.861139 -0.536731)
(-0.125284 0.851985 -0.529416)
(-0.084167 0.764314 -0.489322)
(-0.0894566 0.76156 -0.498431)
(-0.117676 0.807451 -0.524579)
(-0.0835277 0.755784 -0.486202)
(-0.0986544 0.782175 -0.513213)
(-0.101112 0.807647 -0.503219)
(-0.101982 0.817256 -0.507359)
(-0.12194 0.818003 -0.527813)
(-0.109947 0.581257 -0.439019)
(-0.0914581 0.585539 -0.442061)
(-0.0900746 0.540314 -0.411168)
(-0.135022 0.644928 -0.477471)
(-0.136471 0.643083 -0.482856)
(-0.078911 0.495996 -0.373212)
(-0.0829755 0.484229 -0.366008)
(-0.126881 0.652884 -0.488639)
(-0.111847 0.673511 -0.501392)
(-0.126951 0.621875 -0.466479)
(-0.102355 0.537311 -0.40602)
(-0.136472 0.668178 -0.493357)
(-0.160643 0.696837 -0.501158)
(-0.121195 0.602617 -0.447862)
(-0.157155 0.656393 -0.479243)
(-0.133428 0.589367 -0.449724)
(-0.135513 0.614753 -0.446755)
(-0.218912 0.750838 -0.548949)
(-0.220818 0.735044 -0.552591)
(-0.231465 0.751608 -0.548768)
(-0.208805 0.800288 -0.566337)
(-0.211077 0.77395 -0.547831)
(-0.218524 0.727029 -0.553697)
(-0.214597 0.739868 -0.549412)
(-0.227238 0.741534 -0.551676)
(-0.216158 0.744415 -0.575821)
(-0.21418 0.782544 -0.570886)
(-0.226917 0.740055 -0.564597)
(-0.231223 0.763718 -0.577433)
(-0.213724 0.799131 -0.575295)
(-0.225291 0.789789 -0.5639)
(-0.178611 0.889235 -0.549907)
(-0.174768 0.885405 -0.543479)
(-0.165334 0.858934 -0.53186)
(-0.166089 0.876524 -0.544902)
(-0.157517 0.852317 -0.536604)
(-0.197195 0.880514 -0.559637)
(-0.199296 0.870208 -0.559167)
(-0.195191 0.880467 -0.553217)
(-0.176576 0.877927 -0.547538)
(-0.16151 0.874258 -0.557122)
(-0.157213 0.862606 -0.546627)
(-0.191565 0.877013 -0.546934)
(-0.19188 0.873964 -0.551658)
(-0.16454 0.864747 -0.554528)
(-0.167364 0.841766 -0.567196)
(-0.179332 0.817765 -0.564297)
(-0.143862 0.823909 -0.577751)
(-0.144518 0.831593 -0.568104)
(-0.172719 0.863109 -0.565819)
(-0.185609 0.845619 -0.570093)
(-0.170496 0.82512 -0.57369)
(-0.152772 0.840884 -0.558797)
(-0.138653 0.823733 -0.554949)
(-0.143731 0.825902 -0.572978)
(-0.182059 0.822256 -0.579041)
(-0.192621 0.839679 -0.583099)
(-0.17281 0.8217 -0.577666)
(-0.162621 0.859612 -0.558452)
(-0.165097 0.848767 -0.565505)
(-0.183257 0.844263 -0.572179)
(-0.170862 0.855418 -0.571339)
(-0.246841 0.848154 -0.635197)
(-0.247645 0.848558 -0.629519)
(-0.24668 0.879047 -0.649544)
(-0.244103 0.854458 -0.638319)
(-0.235795 0.880614 -0.660554)
(-0.239574 0.870035 -0.661818)
(-0.237632 0.865111 -0.666283)
(-0.228457 0.855013 -0.665417)
(-0.249092 0.875548 -0.655073)
(-0.229634 0.864688 -0.653525)
(-0.225311 0.850153 -0.664182)
(-0.184282 0.806596 -0.479072)
(-0.196053 0.854801 -0.512247)
(-0.210942 0.859955 -0.504152)
(-0.207964 0.832189 -0.4891)
(-0.173184 0.829775 -0.506124)
(-0.212601 0.88121 -0.518947)
(-0.198641 0.794372 -0.464868)
(-0.167571 0.786329 -0.46551)
(-0.17378 0.814399 -0.484259)
(-0.153652 0.774156 -0.454888)
(-0.164185 0.807302 -0.482612)
(-0.192713 0.853162 -0.519134)
(-0.169214 0.759363 -0.447904)
(-0.174486 0.832381 -0.501318)
(-0.15248 0.802478 -0.480276)
(-0.217301 0.882863 -0.635249)
(-0.224399 0.882858 -0.634939)
(-0.219605 0.8766 -0.640011)
(-0.206022 0.859194 -0.626742)
(-0.206016 0.866583 -0.635932)
(-0.229594 0.889146 -0.627138)
(-0.232148 0.886013 -0.6317)
(-0.198549 0.836296 -0.628425)
(-0.213587 0.877565 -0.631485)
(-0.236573 0.882628 -0.649481)
(-0.221304 0.880736 -0.647872)
(-0.23032 0.876032 -0.656825)
(-0.216974 0.867312 -0.64765)
(-0.226895 0.87968 -0.63915)
(-0.207417 0.860924 -0.640117)
(-0.233086 0.902596 -0.640084)
(-0.238335 0.887518 -0.635503)
(-0.231128 0.887859 -0.634506)
(-0.237361 0.886824 -0.638726)
(-0.125018 0.713428 -0.484564)
(-0.124156 0.684757 -0.473439)
(-0.116293 0.675454 -0.460402)
(-0.119651 0.65821 -0.444894)
(-0.160953 0.832502 -0.579412)
(-0.155879 0.833789 -0.565795)
(-0.148295 0.812996 -0.561178)
(-0.15094 0.818294 -0.567788)
(-0.12622 0.6756 -0.469798)
(-0.129152 0.688543 -0.466729)
(-0.152767 0.841267 -0.5594)
(-0.136566 0.805958 -0.527111)
(-0.151825 0.827885 -0.562976)
(-0.165766 0.848066 -0.566846)
(-0.158651 0.848797 -0.572803)
(-0.145766 0.782126 -0.540286)
(-0.126808 0.776759 -0.542037)
(-0.125774 0.728366 -0.49203)
(-0.151522 0.794776 -0.533797)
(-0.13523 0.79913 -0.546667)
(-0.155412 0.828092 -0.562806)
(-0.128924 0.788245 -0.540369)
(-0.188655 0.664642 -0.397728)
(-0.173875 0.659476 -0.382635)
(-0.18571 0.676956 -0.394201)
(-0.193859 0.67657 -0.401167)
(-0.18233 0.648615 -0.389128)
(-0.180908 0.637494 -0.391828)
(-0.17571 0.589803 -0.367873)
(-0.169014 0.592669 -0.36996)
(-0.17439 0.643508 -0.384927)
(-0.166005 0.586376 -0.362274)
(-0.145453 0.565412 -0.337027)
(-0.142931 0.553181 -0.331671)
(-0.145673 0.585311 -0.339302)
(-0.13765 0.56511 -0.330448)
(-0.140721 0.596015 -0.350965)
(-0.133447 0.559903 -0.327068)
(-0.138178 0.54715 -0.315627)
(-0.140954 0.55137 -0.325807)
(-0.162392 0.818195 -0.571309)
(-0.161774 0.801383 -0.560454)
(-0.168012 0.825493 -0.579539)
(-0.181547 0.833742 -0.57493)
(-0.171 0.768802 -0.546986)
(-0.179999 0.83957 -0.575189)
(-0.200155 0.862694 -0.603313)
(-0.196199 0.849502 -0.60082)
(-0.176729 0.795397 -0.567334)
(-0.174519 0.817679 -0.585008)
(-0.182502 0.842239 -0.594881)
(-0.176939 0.749125 -0.554965)
(-0.103386 0.771543 -0.422716)
(-0.121222 0.810053 -0.44557)
(-0.133176 0.872909 -0.481765)
(-0.131811 0.877987 -0.502663)
(-0.123171 0.855915 -0.489353)
(-0.105514 0.780018 -0.424412)
(-0.0871523 0.748924 -0.401794)
(-0.0950879 0.786785 -0.437694)
(-0.129452 0.870692 -0.481328)
(-0.143709 0.887825 -0.494499)
(-0.0873482 0.768764 -0.432919)
(-0.0792171 0.72303 -0.396355)
(-0.0855877 0.767066 -0.417964)
(-0.0854021 0.766791 -0.429723)
(-0.110203 0.816463 -0.444299)
(-0.209486 0.927152 -0.52738)
(-0.198757 0.918615 -0.517485)
(-0.171514 0.82027 -0.483422)
(-0.168823 0.835231 -0.483696)
(-0.177583 0.839936 -0.489036)
(-0.163054 0.798488 -0.46398)
(-0.207273 0.925601 -0.529929)
(-0.19623 0.911033 -0.51875)
(-0.202868 0.926836 -0.537112)
(-0.19676 0.910148 -0.521824)
(-0.179079 0.841722 -0.503994)
(-0.182929 0.852345 -0.495444)
(-0.173957 0.826617 -0.474166)
(-0.203158 0.90365 -0.528599)
(-0.202503 0.913625 -0.530447)
(-0.168236 0.828082 -0.469742)
(-0.166336 0.824204 -0.472828)
(-0.172966 0.830645 -0.466997)
(-0.205382 0.902327 -0.553666)
(-0.198488 0.893664 -0.549922)
(-0.199208 0.920997 -0.5538)
(-0.194227 0.912423 -0.547413)
(-0.162534 0.774289 -0.481805)
(-0.174031 0.812677 -0.501967)
(-0.187801 0.902971 -0.536696)
(-0.185271 0.897031 -0.542887)
(-0.193384 0.913626 -0.555235)
(-0.174644 0.88373 -0.529522)
(-0.17264 0.875929 -0.52472)
(-0.166826 0.782324 -0.486832)
(-0.153177 0.738241 -0.461685)
(-0.161855 0.794848 -0.481051)
(-0.180127 0.883904 -0.536901)
(-0.154883 0.796257 -0.479648)
(-0.158256 0.799097 -0.490887)
(-0.175778 0.848602 -0.507649)
(-0.152186 0.453015 -0.355108)
(-0.14561 0.417352 -0.337998)
(-0.154306 0.450728 -0.36312)
(-0.14764 0.419254 -0.338017)
(-0.143888 0.382518 -0.317931)
(-0.15261 0.416785 -0.351934)
(-0.144653 0.37467 -0.326319)
(-0.158252 0.445672 -0.366645)
(-0.162458 0.482105 -0.40357)
(-0.15083 0.403434 -0.348008)
(-0.157122 0.428176 -0.367042)
(-0.157919 0.793101 -0.508898)
(-0.148123 0.756364 -0.483377)
(-0.149253 0.742702 -0.476096)
(-0.141629 0.745974 -0.466349)
(-0.146122 0.76026 -0.476898)
(-0.152879 0.733545 -0.479121)
(-0.152202 0.707975 -0.470696)
(-0.140187 0.731647 -0.477658)
(-0.139533 0.672691 -0.443066)
(-0.148325 0.760206 -0.471526)
(-0.154995 0.737881 -0.468487)
(-0.131647 0.694068 -0.449332)
(-0.131614 0.635295 -0.413932)
(-0.133979 0.674595 -0.433114)
(-0.137134 0.719724 -0.459344)
(-0.147124 0.727135 -0.491897)
(-0.140435 0.71235 -0.489361)
(-0.146748 0.681327 -0.465792)
(-0.154318 0.746761 -0.517043)
(-0.153189 0.789968 -0.526029)
(-0.162669 0.793117 -0.536057)
(-0.152498 0.715583 -0.484901)
(-0.14208 0.646574 -0.446802)
(-0.147367 0.716086 -0.479322)
(-0.134424 0.640656 -0.435087)
(-0.176555 0.853058 -0.55431)
(-0.136029 0.69013 -0.453905)
(-0.139177 0.748596 -0.487875)
(-0.161046 0.820956 -0.539863)
(-0.156382 0.76773 -0.513109)
(-0.16407 0.810399 -0.525753)
(-0.14761 0.742718 -0.496811)
(-0.159936 0.799417 -0.523286)
(-0.145101 0.478476 -0.420575)
(-0.137645 0.471726 -0.421433)
(-0.125625 0.384526 -0.363813)
(-0.116403 0.344874 -0.345192)
(-0.144082 0.516933 -0.455249)
(-0.154572 0.530206 -0.455959)
(-0.122201 0.374502 -0.361971)
(-0.131272 0.389445 -0.376898)
(-0.15476 0.503201 -0.433339)
(-0.127538 0.418557 -0.383259)
(-0.123839 0.411577 -0.379279)
(-0.10784 0.339264 -0.341857)
(-0.145673 0.46447 -0.419028)
(-0.143204 0.469392 -0.424867)
(-0.142402 0.480869 -0.446105)
(-0.151253 0.507466 -0.454568)
(-0.130345 0.389867 -0.389922)
(-0.129996 0.391208 -0.380266)
(-0.15198 0.484436 -0.426674)
(-0.115279 0.381035 -0.363223)
(-0.114744 0.369696 -0.372704)
(-0.119245 0.401492 -0.386415)
(-0.172103 0.760138 -0.561096)
(-0.154559 0.679663 -0.514195)
(-0.210573 0.889842 -0.620902)
(-0.207067 0.868435 -0.608803)
(-0.175273 0.763259 -0.551717)
(-0.157505 0.684554 -0.517546)
(-0.190326 0.815732 -0.612509)
(-0.174878 0.743354 -0.558255)
(-0.186693 0.809097 -0.580893)
(-0.207899 0.866639 -0.62533)
(-0.221456 0.887399 -0.624031)
(-0.219715 0.880889 -0.619381)
(-0.17464 0.750709 -0.562672)
(-0.190816 0.795842 -0.5804)
(-0.21589 0.883004 -0.626039)
(-0.183489 0.761505 -0.567179)
(-0.210181 0.864058 -0.615328)
(-0.211472 0.865451 -0.62112)
(-0.10974 0.363593 -0.428831)
(-0.100831 0.29699 -0.364122)
(-0.143337 0.46901 -0.481717)
(-0.150311 0.490936 -0.487864)
(-0.1574 0.545258 -0.500173)
(-0.164731 0.526117 -0.506877)
(-0.163783 0.534043 -0.496833)
(-0.164685 0.521104 -0.509055)
(-0.122795 0.335008 -0.389066)
(-0.104755 0.297832 -0.364217)
(-0.120429 0.350866 -0.414118)
(-0.107966 0.34428 -0.3892)
(-0.108606 0.402236 -0.436826)
(-0.133271 0.441615 -0.462317)
(-0.161283 0.495175 -0.491836)
(-0.140452 0.382805 -0.426318)
(-0.124581 0.35119 -0.385958)
(-0.136527 0.385038 -0.407873)
(-0.142449 0.480401 -0.470055)
(-0.1643 0.492152 -0.472069)
(-0.153998 0.445324 -0.453393)
(-0.146624 0.452406 -0.445624)
(-0.118852 0.701724 -0.45286)
(-0.12655 0.707931 -0.460815)
(-0.136413 0.730599 -0.467969)
(-0.118222 0.713592 -0.451514)
(-0.115765 0.662056 -0.426599)
(-0.135649 0.754892 -0.499571)
(-0.109874 0.666519 -0.436195)
(-0.186449 0.86005 -0.537221)
(-0.187405 0.845759 -0.529132)
(-0.141879 0.772883 -0.513122)
(-0.171672 0.790347 -0.497325)
(-0.177759 0.811874 -0.514523)
(-0.156727 0.808069 -0.53355)
(-0.128299 0.728709 -0.471417)
(-0.164492 0.800992 -0.498385)
(-0.168984 0.812797 -0.507845)
(-0.170946 0.861001 -0.548096)
(-0.192871 0.883933 -0.553062)
(-0.16619 0.837493 -0.536648)
(-0.135523 0.744392 -0.469269)
(-0.15146 0.470868 -0.417853)
(-0.139252 0.375626 -0.355136)
(-0.143662 0.41013 -0.380427)
(-0.142376 0.386114 -0.371607)
(-0.170415 0.503808 -0.441416)
(-0.168623 0.51717 -0.45537)
(-0.158916 0.515375 -0.452965)
(-0.155438 0.466858 -0.407049)
(-0.157424 0.497079 -0.413233)
(-0.150558 0.476579 -0.410245)
(-0.185261 0.574511 -0.482838)
(-0.18908 0.592561 -0.490192)
(-0.17024 0.520186 -0.441127)
(-0.159229 0.523987 -0.448789)
(-0.163216 0.537754 -0.447208)
(-0.153495 0.479177 -0.41497)
(-0.189689 0.612049 -0.480242)
(-0.184758 0.617196 -0.478255)
(-0.183655 0.590003 -0.480193)
(-0.170346 0.502384 -0.425755)
(-0.172871 0.526116 -0.432009)
(-0.161541 0.751924 -0.565958)
(-0.157218 0.738123 -0.562036)
(-0.150887 0.708958 -0.547989)
(-0.150065 0.754108 -0.560224)
(-0.136502 0.729751 -0.540789)
(-0.161583 0.759613 -0.557111)
(-0.113592 0.631144 -0.498943)
(-0.1081 0.62989 -0.492228)
(-0.114593 0.647015 -0.511052)
(-0.130459 0.64831 -0.517348)
(-0.150198 0.684635 -0.53229)
(-0.142568 0.733603 -0.552998)
(-0.142131 0.739539 -0.544761)
(-0.134201 0.708679 -0.534754)
(-0.136375 0.672402 -0.529647)
(-0.148356 0.698816 -0.540041)
(-0.087206 0.591817 -0.460893)
(-0.101316 0.572223 -0.457801)
(-0.120731 0.635124 -0.515312)
(-0.101907 0.614649 -0.482904)
(-0.100699 0.645976 -0.500256)
(-0.227174 0.895117 -0.622259)
(-0.228306 0.889239 -0.621492)
(-0.226891 0.891618 -0.617459)
(-0.222333 0.901111 -0.616431)
(-0.228579 0.900577 -0.628621)
(-0.206122 0.868024 -0.623706)
(-0.200267 0.855859 -0.622492)
(-0.219599 0.90465 -0.634062)
(-0.213957 0.873655 -0.619351)
(-0.195456 0.861626 -0.60911)
(-0.2052 0.868101 -0.623817)
(-0.209535 0.834225 -0.494001)
(-0.18103 0.803202 -0.481066)
(-0.153309 0.750876 -0.447601)
(-0.200066 0.799299 -0.467953)
(-0.175611 0.782804 -0.46225)
(-0.159392 0.751007 -0.439245)
(-0.155902 0.67431 -0.583895)
(-0.168639 0.642465 -0.56174)
(-0.156863 0.62448 -0.575203)
(-0.166552 0.651964 -0.540877)
(-0.174881 0.651495 -0.538619)
(-0.155546 0.626849 -0.531066)
(-0.159878 0.65407 -0.544463)
(-0.0848271 0.308729 -0.385388)
(-0.0978655 0.308642 -0.405544)
(-0.144456 0.631448 -0.478989)
(-0.139599 0.65484 -0.497059)
(-0.11856 0.592414 -0.455019)
(-0.102534 0.591818 -0.44092)
(-0.128669 0.587782 -0.452249)
(-0.165021 0.68889 -0.516572)
(-0.167795 0.670696 -0.513864)
(-0.0507878 0.485488 -0.39865)
(-0.0387851 0.468796 -0.392226)
(-0.155938 0.725879 -0.552119)
(-0.163466 0.717513 -0.547621)
(-0.151246 0.682957 -0.539971)
(-0.159938 0.690268 -0.543933)
(-0.125546 0.327638 -0.354534)
(-0.114192 0.327741 -0.352506)
(-0.132573 0.332593 -0.359344)
(-0.16996 0.731539 -0.536717)
(-0.154931 0.691467 -0.513526)
(-0.144122 0.668462 -0.487642)
(-0.0556071 0.383163 -0.386771)
(-0.0564267 0.355758 -0.382991)
(-0.167897 0.7286 -0.48693)
(-0.168475 0.748071 -0.506443)
(-0.128759 0.580991 -0.406886)
(-0.140957 0.615691 -0.430339)
(-0.150407 0.748791 -0.51988)
(-0.147083 0.719668 -0.509174)
(-0.158711 0.745987 -0.527031)
(-0.0415435 0.476433 -0.353409)
(-0.0460048 0.488106 -0.358869)
(-0.0508755 0.507257 -0.359351)
(-0.158738 0.769918 -0.521486)
(-0.155591 0.742152 -0.502225)
(-0.15374 0.744067 -0.514067)
(-0.0599924 0.361989 -0.328383)
(-0.0690582 0.376409 -0.330075)
(-0.0567932 0.390901 -0.338155)
(-0.140235 0.715057 -0.425539)
(-0.145665 0.760328 -0.451721)
(-0.135098 0.747559 -0.442252)
(-0.121407 0.709342 -0.475724)
(-0.11723 0.662151 -0.447203)
(-0.124321 0.678547 -0.437754)
(-0.163168 0.758285 -0.485571)
(-0.164066 0.755616 -0.481091)
(-0.0896495 0.362187 -0.29655)
(-0.100882 0.373335 -0.293874)
(-0.0977802 0.402975 -0.325969)
(-0.139711 0.78493 -0.443499)
(-0.139344 0.739557 -0.423166)
(-0.14071 0.758264 -0.433859)
(-0.0489756 0.599662 -0.383283)
(-0.0566479 0.64286 -0.398199)
(-0.0471654 0.590204 -0.347841)
(-0.0455528 0.561511 -0.33898)
(-0.092432 0.484639 -0.291058)
(-0.0912108 0.475693 -0.292749)
(-0.101809 0.644963 -0.404653)
(-0.0936911 0.607392 -0.380208)
(-0.152488 0.769799 -0.48105)
(-0.151965 0.766208 -0.483484)
(-0.156725 0.771149 -0.47875)
(-0.0588915 0.459278 -0.35519)
(-0.0507909 0.437865 -0.346884)
(-0.0566424 0.432088 -0.337436)
(-0.13665 0.777695 -0.440755)
(-0.12847 0.74842 -0.408697)
(-0.142406 0.764141 -0.431736)
(-0.150352 0.802514 -0.457991)
(-0.0736258 0.368411 -0.296881)
(-0.076358 0.400155 -0.317822)
(-0.0856161 0.402259 -0.322608)
(-0.0629102 0.526365 -0.385846)
(-0.0331214 0.443253 -0.332521)
(-0.0443042 0.498498 -0.359347)
(-0.0519189 0.484892 -0.366776)
(-0.0898972 0.372499 -0.258916)
(-0.0924678 0.360818 -0.252801)
(-0.0900583 0.365864 -0.256171)
(-0.0854569 0.346524 -0.246469)
(-0.117695 0.726578 -0.46821)
(-0.111731 0.698941 -0.445318)
(-0.043902 0.608479 -0.393948)
(-0.0371535 0.583738 -0.362511)
(-0.0432017 0.597881 -0.375266)
(-0.0425562 0.603328 -0.37636)
(-0.160013 0.796409 -0.477506)
(-0.161794 0.790424 -0.465454)
(-0.154179 0.751003 -0.449166)
(-0.0860724 0.492121 -0.370098)
(-0.0692035 0.464024 -0.344615)
(-0.0590868 0.435973 -0.341097)
(-0.0840494 0.514156 -0.292637)