/*--------------------------------*- C++ -*----------------------------------*\
| =========                 |                                                 |
| \\      /  F ield         | OpenFOAM: The Open Source CFD Toolbox           |
|  \\    /   O peration     | Version:  v1612+                                |
|   \\  /    A nd           | Web:      www.OpenFOAM.com                      |
|    \\/     M anipulation  |                                                 |
\*---------------------------------------------------------------------------*/
FoamFile
{
    version     2.0;
    format      ascii;
    class       volVectorField;
    location    "100";
    object      wallShearStress;
}
// * * * * * * * * * * * * * * * * * * * * * * * * * * * * * * * * * * * * * //

dimensions      [0 2 -2 0 0 0 0];

internalField   uniform (0 0 0);

boundaryField
{
    WALL
    {
        type            calculated;
        value           nonuniform List<vector> 
1686
(
(-0.0096043 -0.0103979 0.00548054)
(-0.0088712 -0.00951613 0.00467341)
(-0.0206833 -0.0152963 0.00290523)
(-0.0165744 -0.0184042 0.00250221)
(-0.0208952 -0.00913691 0.0257198)
(-0.0180602 -0.00908993 0.0264783)
(-0.0134036 -0.00760875 0.00583461)
(-0.0136353 -0.00651973 0.00397965)
(-0.0159904 -0.00669164 0.00837368)
(-0.0148567 -0.00564598 0.00531637)
(-0.0150676 -0.00821041 0.0203647)
(-0.0155566 -0.00838836 0.015427)
(-0.014867 -0.00552133 0.0162585)
(-0.0150693 -0.0072527 0.0209173)
(-0.013206 -0.00428418 0.0111127)
(-0.0148981 -0.00598434 0.0142093)
(-0.00527533 -0.0185263 0.021359)
(-0.0056609 -0.0164348 0.0248445)
(-0.00742219 -0.0108239 -0.00138038)
(-0.0151876 -0.0120351 0.0163939)
(-0.0136051 -0.0139833 0.0186393)
(-0.0121438 -0.0182169 0.00868767)
(-0.00890508 -0.0172157 0.0088051)
(-0.0132175 -0.0287777 0.0261628)
(-0.0117939 -0.0304768 0.0281704)
(-0.00723209 -0.027848 0.0274429)
(-0.00675338 -0.030326 0.0244581)
(-0.0178142 -0.034207 0.0129989)
(-0.0222463 -0.0339546 0.012358)
(-0.0108673 -0.0324798 0.0232197)
(-0.00997211 -0.031599 0.0265503)
(-0.0143152 -0.0336599 0.0247783)
(-0.0163167 -0.0352658 0.0221431)
(-0.00340503 -0.00819531 0.00594709)
(-0.00398902 -0.00920405 0.00885421)
(-0.00200519 -0.0101093 0.00376607)
(-0.00266661 -0.0103638 0.00437898)
(-0.00277033 -0.00900183 0.00158318)
(-0.0021013 -0.0111182 0.00161763)
(-0.00292286 -0.00617399 0.00228109)
(-0.00317235 -0.00547912 0.00197609)
(-0.0324963 -0.0114232 0.0255407)
(-0.0295891 -0.0100838 0.0257178)
(-0.0207816 -0.0330294 0.0102938)
(-0.0154195 -0.0292555 0.009584)
(-0.0218795 -0.0319968 0.00944199)
(-0.0184829 -0.0312758 0.00921161)
(-0.0160642 -0.0335246 0.0129515)
(-0.0177057 -0.0326307 0.011924)
(-0.016032 -0.0345521 0.0135401)
(-0.0321627 -0.00786685 0.0191119)
(-0.0324388 -0.00909068 0.0224618)
(-0.0347668 -0.0107629 0.0210007)
(-0.0325704 -0.00824088 0.022574)
(-0.0332431 -0.0105233 0.0175333)
(-0.0339565 -0.00943685 0.0180799)
(-0.0159387 -0.00800994 0.00856085)
(-0.0166428 -0.00598431 0.00849654)
(-0.0171046 -0.00596143 0.0068401)
(-0.0148082 -0.00738233 0.00825687)
(-0.0155916 -0.00547345 0.00672803)
(-0.0152222 -0.00482228 0.00597315)
(-0.0159666 -0.00546076 0.00965055)
(-0.0141232 -0.0131534 0.0154747)
(-0.0156908 -0.0133409 0.0145592)
(-0.0137284 -0.0144458 0.0164993)
(-0.0141226 -0.0135915 0.0173415)
(-0.0156355 -0.0122903 0.0144977)
(-0.0107524 -0.0251815 0.0284069)
(-0.0105142 -0.0247245 0.0291076)
(-0.0153492 -0.02791 0.029409)
(-0.0151737 -0.032053 0.0270887)
(-0.0125827 -0.0161038 0.0316953)
(-0.014076 -0.0119695 0.0289417)
(-0.0144163 -0.0118318 0.0283184)
(-0.0128485 -0.012801 0.029542)
(-0.0121283 -0.0148942 0.0307983)
(-0.0138889 -0.01458 0.0310913)
(-0.0329032 -0.024638 0.0120307)
(-0.0319959 -0.027804 0.0123496)
(-0.0319573 -0.0231477 0.0121422)
(-0.0347007 -0.0234239 0.0145294)
(-0.0338511 -0.0250738 0.0134478)
(-0.00315594 -0.00482458 0.00222661)
(-0.00330934 -0.00437766 0.00183285)
(-0.00355601 -0.00445279 0.00176695)
(-0.00323777 -0.00453718 0.00200203)
(-0.0146684 -0.00831525 0.00921173)
(-0.0138401 -0.00763896 0.00736525)
(-0.0135795 -0.0066863 0.00760849)
(-0.0143068 -0.00768654 0.0110116)
(-0.016133 -0.00845369 0.0121727)
(-0.0142035 -0.00728537 0.00925717)
(-0.00690565 -0.0150657 0.0149831)
(-0.00605613 -0.0146157 0.0140574)
(-0.00595089 -0.0133767 0.0140834)
(-0.00825865 -0.0128183 0.0165783)
(-0.00707507 -0.0129999 0.0158324)
(-0.00849213 -0.0147528 0.0167185)
(-0.00184364 -0.0200164 0.0092068)
(-0.000853747 -0.0175453 0.00756404)
(-0.000157989 -0.0185979 0.0103198)
(-0.00194498 -0.0185325 0.00680554)
(-0.000242182 -0.018591 0.0124786)
(0.000165391 -0.0185636 0.0125775)
(-0.00131328 -0.0169585 0.0128982)
(-0.00269413 -0.0182406 0.0139122)
(-0.00305503 -0.0179579 0.0172286)
(-0.00129693 -0.0180964 0.0131969)
(-0.00353803 -0.0170608 0.0161938)
(-0.00183135 -0.0180941 0.0157609)
(-0.0173491 -0.00761676 0.0162786)
(-0.0197374 -0.00433214 0.0151612)
(-0.0193579 -0.00651892 0.0164392)
(-0.0174265 -0.00614289 0.0132402)
(-0.0197982 -0.00537613 0.0140114)
(-0.0165004 -0.0084849 0.0139212)
(-0.0230225 -0.00326145 0.00906571)
(-0.0216484 -0.00238696 0.00999691)
(-0.023263 -0.00267677 0.00993567)
(-0.0223755 -0.00386352 0.012841)
(-0.0225137 -0.00404823 0.0121003)
(-0.0232162 -0.00277417 0.0117107)
(-0.000268883 -0.0178476 0.0145804)
(-0.00131454 -0.0182993 0.0108061)
(-0.000371781 -0.017507 0.0108912)
(-0.000715268 -0.017986 0.00998726)
(-0.00127558 -0.0201621 0.0135867)
(-0.00427253 -0.0276503 0.0243088)
(-0.00581643 -0.0281554 0.0260304)
(-0.00737699 -0.0310183 0.0191747)
(-0.00801247 -0.0328106 0.0217744)
(-0.00824868 -0.0324864 0.0261502)
(-0.0118997 -0.0106158 0.02098)
(-0.0119908 -0.0104047 0.0207118)
(-0.0137968 -0.0105757 0.0222574)
(-0.0169971 -0.0117919 0.0223704)
(-0.0149109 -0.0119156 0.0213677)
(-0.0179169 -0.0121779 0.0251124)
(-0.00263575 -0.00742536 0.00128603)
(-0.00306127 -0.00683503 0.000800515)
(-0.0028633 -0.00649289 0.00137567)
(-0.0025037 -0.00726965 0.00157444)
(-0.00352431 -0.00588861 0.000749709)
(-0.00313993 -0.00581958 0.00102948)
(-0.00335263 -0.00453734 0.00142513)
(-0.0035772 -0.00465519 0.00156564)
(-0.00368019 -0.00434139 0.00146911)
(-0.00378401 -0.00428126 0.0014677)
(-0.00336561 -0.00514129 0.0015795)
(-0.00317387 -0.00451599 0.00137924)
(-0.0070336 -0.00476113 0.00334414)
(-0.00796512 -0.00505414 0.00402706)
(-0.0061911 -0.00470297 0.00279208)
(-0.00787502 -0.00506798 0.0037722)
(-0.00638283 -0.00473201 0.00270447)
(-0.00703394 -0.00470507 0.00299618)
(-0.00461224 -0.00436315 0.00216682)
(-0.00450598 -0.00439629 0.00198445)
(-0.00438327 -0.00431774 0.00205592)
(-0.00423727 -0.00442433 0.00203795)
(-0.00401208 -0.00397944 0.0018323)
(-0.00333854 -0.00647329 0.00362054)
(-0.00344017 -0.00666456 0.0043264)
(-0.00327396 -0.00701265 0.00419367)
(-0.00349288 -0.0076041 0.00515118)
(-0.00362868 -0.00737441 0.00513211)
(-0.00332644 -0.00610158 0.00343793)
(-0.00307256 -0.00571472 0.00206191)
(-0.00304281 -0.00668511 0.00270536)
(-0.00304844 -0.00541367 0.00163706)
(-0.00277744 -0.00568361 0.00177875)
(-0.00283315 -0.00607012 0.00209201)
(-0.00319039 -0.00522566 0.0016715)
(-0.00273199 -0.0209064 -0.00428744)
(-0.00192728 -0.0217922 -0.00399905)
(-0.00416403 -0.0211173 -0.0063005)
(-0.00407598 -0.0190016 -0.00360844)
(-0.00380704 -0.0199106 -0.00446844)
(-0.00576934 -0.0195066 -0.00583559)
(-0.00571091 -0.0170068 -0.00435724)
(-0.00471261 -0.01741 -0.00346236)
(-0.00455684 -0.0189207 -0.00540544)
(-0.00471494 -0.0173037 0.00987783)
(-0.00504665 -0.016929 0.0107347)
(-0.00621271 -0.0163088 0.011926)
(-0.00513706 -0.0163692 0.0104798)
(-0.00591266 -0.0166383 0.0124595)
(-0.00650468 -0.0161679 0.0130171)
(-0.00301072 -0.00816481 0.00444363)
(-0.00256502 -0.00724721 0.0033193)
(-0.00253772 -0.00793453 0.00389594)
(-0.00289611 -0.00753091 0.00375164)
(-0.00259501 -0.00696516 0.0031999)
(-0.00285262 -0.00889188 0.00470655)
(-0.00228548 -0.00882809 0.00263572)
(-0.00204204 -0.011887 0.00306318)
(-0.00236385 -0.0117261 0.00429479)
(-0.00219457 -0.01234 0.00376553)
(-0.0027066 -0.0138661 0.00715172)
(-0.00266898 -0.0146311 0.00798649)
(-0.00282877 -0.014931 0.00632551)
(-0.00198993 -0.0132581 0.00566274)
(-0.00177639 -0.0129524 0.00630479)
(-0.00285402 -0.0137767 0.0078379)
(-0.00670003 -0.00496719 0.00164087)
(-0.00542324 -0.00526051 0.00130999)
(-0.00703782 -0.00496401 0.00232719)
(-0.00790705 -0.00493634 0.00267389)
(-0.00838617 -0.00530332 0.00254236)
(-0.00570048 -0.00488771 0.00167577)
(-0.00793061 -0.00490633 0.00310692)
(-0.0102362 -0.00558614 0.0048568)
(-0.010375 -0.0054315 0.00529021)
(-0.00909515 -0.00479255 0.00378527)
(-0.00890368 -0.00503373 0.00432227)
(-0.00727572 -0.00501555 0.00321943)
(-0.00206229 -0.0197922 0.00247501)
(-0.00259538 -0.0177408 0.00405271)
(-0.00279439 -0.0199819 0.000868584)
(-0.00318094 -0.0168163 0.00261457)
(-0.00281961 -0.0175757 0.00175059)
(-0.00263166 -0.0197698 0.00364353)
(-0.0044463 -0.0186455 0.00680523)
(-0.00476087 -0.017495 0.00796681)
(-0.00374817 -0.0172328 0.00808557)
(-0.0036327 -0.0198595 0.00526196)
(-0.00358369 -0.0187147 0.00559285)
(-0.00376833 -0.0185545 0.00606978)
(-0.0030125 -0.0159555 0.00207322)
(-0.00269384 -0.0165373 0.00126535)
(-0.00701302 -0.0158317 0.0117784)
(-0.00618602 -0.0174677 0.00923396)
(-0.00594667 -0.0167853 0.0105292)
(-0.00698424 -0.0151887 0.010154)
(-0.00786516 -0.0149414 0.0119029)
(-0.00813843 -0.0153638 0.0110682)
(-0.0139007 -0.0103057 0.0228353)
(-0.0158278 -0.0100674 0.02255)
(-0.0136089 -0.011048 0.0210585)
(-0.0116327 -0.0115835 0.0212101)
(-0.0154967 -0.00891966 0.0229358)
(-0.0117586 -0.012743 0.0199555)
(-0.00363828 -0.0125827 0.00869182)
(-0.00393559 -0.0123523 0.0102373)
(-0.00358679 -0.0134517 0.00829437)
(-0.00436955 -0.0138947 0.0110503)
(-0.00438486 -0.0128968 0.0111893)
(-0.00384282 -0.0137296 0.00927231)
(-0.00563412 -0.0112626 0.0136609)
(-0.00646941 -0.0125801 0.0152953)
(-0.00491604 -0.0113332 0.0116439)
(-0.00533427 -0.0125165 0.0131513)
(-0.00654018 -0.0117054 0.0156319)
(-0.00482356 -0.0121012 0.0116533)
(-0.00916004 -0.00482299 0.00517696)
(-0.0108121 -0.00480826 0.00729035)
(-0.0102811 -0.00488739 0.00651126)
(-0.00922408 -0.00474159 0.0053859)
(-0.00834167 -0.00486679 0.00451697)
(-0.010091 -0.00487809 0.00663527)
(-0.00473411 -0.00771956 -0.000130204)
(-0.00608567 -0.00602657 0.000781978)
(-0.00726999 -0.00684396 0.000433217)
(-0.00420082 -0.00681673 0.000407839)
(-0.00578631 -0.00722531 4.0349e-05)
(-0.00444422 -0.00577694 0.000508478)
(-0.0115699 -0.00520622 0.00793545)
(-0.0103666 -0.00540917 0.00597488)
(-0.0110999 -0.00520433 0.00682347)
(-0.0115498 -0.00541778 0.00787844)
(-0.0127642 -0.00506208 0.00926089)
(-0.00975079 -0.00528717 0.00597565)
(-0.00419975 -0.00736049 0.00660342)
(-0.00401156 -0.00690953 0.00519672)
(-0.00362568 -0.00621297 0.00444836)
(-0.00551712 -0.00869178 0.0110393)
(-0.00588667 -0.00934869 0.0111938)
(-0.00815451 -0.00985487 0.0156389)
(-0.00788043 -0.00992353 0.0155808)
(-0.00540642 -0.00870053 0.00997232)
(-0.00753519 -0.0103595 0.0132437)
(-0.00655569 -0.00928311 0.0127065)
(-0.00198981 -0.0132163 0.000101466)
(-0.00111824 -0.0127506 0.00186212)
(-0.00158117 -0.0129478 -0.00089335)
(-0.00192557 -0.010616 -0.00112218)
(-0.00128919 -0.0123493 0.000640875)
(-0.00149888 -0.0107978 -0.0010553)
(-0.00475537 -0.0072309 -0.00386884)
(-0.00549658 -0.00592186 -0.00366509)
(-0.00432431 -0.00595742 -0.0029308)
(-0.00345105 -0.00736987 -0.00294777)
(-0.00540338 -0.00573678 -0.00351237)
(-0.00352437 -0.00738349 -0.00288902)
(-0.00354092 -0.00875947 -0.00426328)
(-0.00311883 -0.00843643 -0.00304025)
(-0.00383299 -0.00721627 -0.00405602)
(-0.00333204 -0.00717874 -0.00336184)
(-0.00261759 -0.00914501 -0.00285381)
(-0.00260956 -0.00927906 -0.00289847)
(-0.0047382 -0.00623399 -0.00390032)
(-0.00658514 -0.00600275 -0.00408729)
(-0.00544675 -0.00609689 -0.00410244)
(-0.00585089 -0.00585448 -0.00433313)
(-0.00745767 -0.00574948 -0.00417163)
(-0.00707208 -0.00558829 -0.00403237)
(-0.0125413 -0.0345858 0.0208741)
(-0.0130317 -0.0347089 0.0189653)
(-0.0139961 -0.0333295 0.017648)
(-0.0155784 -0.0358314 0.0209737)
(-0.0118682 -0.0334692 0.0231977)
(-0.0243678 -0.0376008 0.0181597)
(-0.0241074 -0.0362412 0.0170475)
(-0.021227 -0.0372088 0.0197963)
(-0.0213461 -0.0389561 0.0229532)
(-0.0253246 -0.0374309 0.0164028)
(-0.0256933 -0.0339375 0.0146822)
(-0.0274971 -0.0369536 0.0159796)
(-0.0295083 -0.0353965 0.0151644)
(-0.0287969 -0.0349195 0.0148563)
(-0.0250419 -0.0337138 0.0141604)
(-0.0292828 -0.0335533 0.0151906)
(-0.0325344 -0.0311907 0.0159897)
(-0.0282692 -0.030345 0.0138753)
(-0.0283855 -0.0332555 0.0148611)
(-0.0329504 -0.0274087 0.0145569)
(-0.0344106 -0.0293647 0.017152)
(-0.0346482 -0.0244941 0.017335)
(-0.032853 -0.0237293 0.0145281)
(-0.0343395 -0.0228027 0.016658)
(-0.0320951 -0.0288071 0.0146683)
(-0.025926 -0.0292049 0.00960501)
(-0.0300196 -0.0274221 0.00952805)
(-0.027754 -0.0279015 0.0104139)
(-0.0237207 -0.0315148 0.00998686)
(-0.0297964 -0.0274421 0.0102503)
(-0.0247041 -0.02812 0.0085887)
(-0.015474 -0.0106364 0.0227618)
(-0.0212387 -0.0117142 0.0280292)
(-0.0224157 -0.0121728 0.0275831)
(-0.0171471 -0.00922434 0.0266765)
(-0.0164304 -0.0117303 0.0254534)
(-0.0184566 -0.00971385 0.02596)
(-0.00674963 -0.0284415 0.0131339)
(-0.009031 -0.0236346 0.0068248)
(-0.00865364 -0.0270342 0.0100543)
(-0.00718727 -0.0238624 0.00777984)
(-0.00576981 -0.0230688 0.00865485)
(-0.00575799 -0.0246741 0.0117944)
(-0.0175926 -0.0184248 0.00273317)
(-0.0143985 -0.0224777 0.00371983)
(-0.013421 -0.0221731 0.00389935)
(-0.013808 -0.0174768 0.00191534)
(-0.0158664 -0.0204042 0.00327755)
(-0.00137209 -0.0135909 0.00330077)
(-0.00204108 -0.0153222 0.00353436)
(-0.00153231 -0.0126927 0.00240963)
(-0.00226142 -0.0156143 0.00607939)
(-0.00162388 -0.0146117 0.00544565)
(-0.00259211 -0.0150032 0.00626693)
(-0.000870744 -0.0124379 0.00363794)
(-0.00087013 -0.010879 0.00201712)
(-0.00108324 -0.0126415 0.00273444)
(-0.00111274 -0.0107943 0.00185928)
(-0.000502981 -0.0128342 0.00552192)
(-0.000879003 -0.0128197 0.00463366)
(-0.00145175 -0.00863253 -0.000119117)
(-0.00191772 -0.0108662 -0.00132073)
(-0.0011742 -0.00977364 0.000373993)
(-0.00205357 -0.0091326 -0.00161576)
(-0.00184092 -0.00877495 -0.001447)
(-0.0012146 -0.0104388 0.00019543)
(-0.00207108 -0.00899669 -0.000531475)
(-0.00264555 -0.00709105 -0.00166526)
(-0.00242678 -0.00825782 -0.000753937)
(-0.00351286 -0.00668306 -0.0022069)
(-0.00212277 -0.00970635 -0.000175982)
(-0.003257 -0.00743361 -0.00202334)
(-0.0102878 -0.0197865 0.0317658)
(-0.010155 -0.0223128 0.0305574)
(-0.00919739 -0.0209249 0.0315109)
(-0.00991875 -0.0188756 0.0316279)
(-0.00893763 -0.0239112 0.0296859)
(-0.00938781 -0.0242886 0.0319771)
(-0.0147763 -0.00994432 0.0251566)
(-0.0150244 -0.0128917 0.028288)
(-0.0142854 -0.0106723 0.0271224)
(-0.0144333 -0.0135767 0.0296972)
(-0.0151716 -0.0100899 0.0248842)
(-0.0139686 -0.0141849 0.02914)
(-0.011958 -0.0236567 0.0286014)
(-0.0116259 -0.0202854 0.0289966)
(-0.0124227 -0.0202962 0.0312135)
(-0.0128718 -0.0247804 0.032559)
(-0.0131605 -0.0184488 0.0317743)
(-0.0128264 -0.018718 0.0306404)
(-0.0143846 -0.0161071 -0.00267212)
(-0.0152735 -0.017037 -0.00253703)
(-0.013682 -0.0175979 -0.00441232)
(-0.0120338 -0.0164867 -0.00534013)
(-0.00520333 -0.0130611 -0.00214528)
(-0.0042652 -0.0123512 -0.000810946)
(-0.00515967 -0.0140194 -0.00202289)
(-0.00428789 -0.0102357 -0.000606259)
(-0.00642194 -0.0120569 -0.00155681)
(-0.00572684 -0.00971547 -0.000842022)
(-0.00570285 -0.0200128 -0.00752749)
(-0.00679072 -0.0195099 -0.00749868)
(-0.00439771 -0.0183724 0.0142455)
(-0.00493434 -0.015653 0.0144785)
(-0.00752514 -0.0179007 0.0151715)
(-0.00445067 -0.0168571 0.012942)
(-0.00534832 -0.0169766 0.0166145)
(-0.00724037 -0.017591 0.0167868)
(-0.0156105 -0.0171575 0.000998904)
(-0.0157968 -0.0151605 0.00286858)
(-0.015708 -0.0172308 0.00257022)
(-0.0160611 -0.0169637 3.19281e-05)
(-0.0155687 -0.0150264 0.00158263)
(-0.0160679 -0.017208 -0.000298947)
(-0.0138228 -0.0167129 0.00691297)
(-0.0132334 -0.016649 0.00813649)
(-0.0138687 -0.0148376 0.00896776)
(-0.016057 -0.0162441 0.00800536)
(-0.0149246 -0.0164291 0.00590548)
(-0.0156051 -0.0154387 0.00626756)
(-0.0121352 -0.0169075 0.0074415)
(-0.0109518 -0.0178054 0.0062657)
(-0.00904738 -0.0170144 0.00652379)
(-0.00944811 -0.0163471 0.00885137)
(-0.00824493 -0.0167247 0.00727622)
(-0.0125506 -0.0172446 0.00964742)
(-0.0154478 -0.0103606 0.0153482)
(-0.0158177 -0.0108092 0.0127975)
(-0.0156827 -0.00834035 0.0112553)
(-0.0150132 -0.00964697 0.0146292)
(-0.0166958 -0.0099945 0.0135689)
(-0.0155199 -0.00969858 0.0110469)
(-0.0125815 -0.0152868 0.0156313)
(-0.0101822 -0.0174412 0.0160428)
(-0.0102116 -0.0148541 0.0154876)
(-0.0121875 -0.0160188 0.0149921)
(-0.0115041 -0.0158099 0.0164621)
(-0.0103979 -0.0166407 0.0165787)
(-0.0133627 -0.0137248 -0.000366164)
(-0.0150136 -0.0136688 0.00141728)
(-0.0162135 -0.0167729 -0.000315257)
(-0.0158039 -0.0151159 0.00158532)
(-0.0154462 -0.0154607 -0.00223018)
(-0.0136639 -0.0163643 -0.00273457)
(-0.0155661 -0.014497 -0.000795254)
(-0.0108758 -0.0130461 -0.00140714)
(-0.00871725 -0.0134381 -0.0026949)
(-0.00982553 -0.0142033 -0.00328525)
(-0.01164 -0.0139209 -0.00257276)
(-0.0112056 -0.00783181 0.00222024)
(-0.00963723 -0.00625817 0.00182638)
(-0.00779905 -0.0066078 0.000850361)
(-0.0100938 -0.00832146 0.00110725)
(-0.0110499 -0.00719023 0.00252449)
(-0.0088111 -0.00776103 0.000507801)
(-0.0165934 -0.0142104 0.00751778)
(-0.0160128 -0.0133024 0.00733351)
(-0.016277 -0.0122313 0.00469922)
(-0.017307 -0.0144779 0.00522157)
(-0.0165288 -0.0155847 0.00497331)
(-0.0149492 -0.00896108 0.00773001)
(-0.0133886 -0.00820391 0.00482906)
(-0.0142442 -0.00819164 0.00735741)
(-0.0140353 -0.00811853 0.00605463)
(-0.0143168 -0.00903296 0.00596838)
(-0.012662 -0.00727819 0.00460824)
(-0.0064395 -0.0161614 0.00955712)
(-0.00587425 -0.0160311 0.00813045)
(-0.00511127 -0.0169647 0.00795451)
(-0.00714868 -0.0158028 0.00986577)
(-0.00462374 -0.0154959 0.00885789)
(-0.00375039 -0.0201724 0.0268815)
(-0.00376666 -0.0233677 0.024499)
(-0.00176917 -0.020969 0.0223046)
(-0.00296348 -0.0214613 0.0236805)
(-0.00190924 -0.0225471 0.0229089)
(-0.00396599 -0.0211526 0.0263352)
(-0.00813999 -0.0167227 0.0244661)
(-0.00783927 -0.0177325 0.0264901)
(-0.00549056 -0.0184937 0.0232691)
(-0.00371174 -0.018309 0.02538)
(-0.00570699 -0.0179157 0.026213)
(-0.0142096 -0.00580163 0.0123798)
(-0.0137694 -0.00559092 0.0126112)
(-0.0128506 -0.00540507 0.00973352)
(-0.0155948 -0.00627647 0.015695)
(-0.0139784 -0.00615119 0.0144587)
(-0.0129837 -0.00485313 0.0106794)
(-0.0151181 -0.00666664 0.0173758)
(-0.0154907 -0.00507095 0.0174245)
(-0.0146163 -0.00551054 0.0148908)
(-0.0133479 -0.00503859 0.0128427)
(-0.0152278 -0.00656953 0.0184203)
(-0.0138999 -0.00578718 0.0127571)
(-0.0160416 -0.00786299 0.0203592)
(-0.0149563 -0.00779906 0.0215696)
(-0.0148171 -0.00819501 0.0178311)
(-0.0147943 -0.00659818 0.0224713)
(-0.0148449 -0.00638259 0.0164615)
(-0.014407 -0.00710871 0.0150962)
(-0.010785 -0.0147239 0.0256014)
(-0.0132617 -0.0119288 0.022515)
(-0.0112248 -0.0151643 0.0251095)
(-0.0123744 -0.0132933 0.0253059)
(-0.011737 -0.0129517 0.0234819)
(-0.0139085 -0.0132343 0.0226701)
(-0.0157765 -0.0102631 0.0232146)
(-0.0138592 -0.010498 0.0246613)
(-0.0146375 -0.0102191 0.0216177)
(-0.0139617 -0.0111241 0.0245329)
(-0.0150137 -0.00911833 0.0196012)
(-0.00490502 -0.00696858 -0.00245775)
(-0.00514503 -0.00608555 -0.0022615)
(-0.00377149 -0.00786622 -0.00146172)
(-0.00334841 -0.00738888 -0.00144121)
(-0.00619409 -0.00481684 -0.0028644)
(-0.000499175 -0.0104494 0.00250233)
(-0.00106557 -0.0105394 0.00157886)
(-0.00153009 -0.0101608 0.000643084)
(-0.000360649 -0.0109282 0.00325662)
(-0.00064219 -0.0110266 0.00300039)
(-0.00131578 -0.00934542 0.000780606)
(-0.014031 -0.00319637 0.000725837)
(-0.0119334 -0.00319156 -0.00160243)
(-0.0146988 -0.00240851 0.000523593)
(-0.0135638 -0.00305513 -0.000145601)
(-0.0116287 -0.00352321 -0.00190977)
(-0.0138162 -0.00291073 -0.00106926)
(-0.00420697 -0.0165343 0.00306504)
(-0.00898643 -0.0136611 -6.22751e-05)
(-0.00555916 -0.0174228 0.00255164)
(-0.00703086 -0.0149402 0.00033852)
(-0.0082311 -0.012576 -0.000261901)
(-0.00702831 -0.0153689 0.00141235)
(-0.00887643 -0.00998698 -0.00155439)
(-0.0101736 -0.00905563 -0.00194723)
(-0.00778087 -0.00828234 -0.00188698)
(-0.00737648 -0.0104597 -0.00139868)
(-0.00777943 -0.0107713 -0.00119323)
(-0.0109238 -0.0081314 -0.00243552)
(-0.0162604 -0.00348608 0.00564453)
(-0.0173465 -0.00197484 0.00444989)
(-0.0161642 -0.00415975 0.00419385)
(-0.0171872 -0.00379542 0.00528319)
(-0.0166453 -0.00294841 0.00286663)
(-0.0155438 -0.00314426 0.00314929)
(-0.0255367 -0.00228716 0.0120864)
(-0.0292708 -0.00225219 0.0118678)
(-0.026338 -0.000351022 0.0106486)
(-0.0270853 -0.00228136 0.00789548)
(-0.0255988 -0.00181207 0.00783378)
(-0.026072 -0.00106312 0.0125965)
(-0.0258999 -0.00610201 0.00567349)
(-0.0245266 -0.00824912 0.00416413)
(-0.0268477 -0.00476251 0.00873976)
(-0.0232522 -0.00403263 0.0038504)
(-0.0293457 -0.00493216 0.00859553)
(-0.0290788 -0.0106819 0.00667563)
(-0.0219008 -0.00512005 0.0183063)
(-0.0229069 -0.00547467 0.0186623)
(-0.0225611 -0.00332162 0.0168064)
(-0.0245255 -0.00363624 0.0188203)
(-0.0237102 -0.00399248 0.0152815)
(-0.025677 -0.0035381 0.0176015)
(-0.0148391 -0.00955286 0.0183846)
(-0.0161404 -0.00825464 0.0181032)
(-0.0168865 -0.00876194 0.0204917)
(-0.018436 -0.00744744 0.0188675)
(-0.0180012 -0.0063252 0.0200069)
(-0.0142285 -0.00880219 0.0193897)
(-0.00799888 -0.0145517 0.0137754)
(-0.0104793 -0.0140206 0.0157504)
(-0.00934215 -0.0136779 0.0156394)
(-0.00894063 -0.0143126 0.0135833)
(-0.00868393 -0.0151931 0.0145761)
(-0.00975087 -0.0113038 0.0205787)
(-0.0111919 -0.0110861 0.0217435)
(-0.0122295 -0.010761 0.023046)
(-0.00889663 -0.0124716 0.0183683)
(-0.00900656 -0.0115171 0.0185652)
(-0.0128968 -0.0118252 0.0236239)
(-0.0242621 -0.00745621 0.027323)
(-0.0181963 -0.00934121 0.025768)
(-0.0252074 -0.00813011 0.0288179)
(-0.0225563 -0.00939655 0.0277776)
(-0.0196553 -0.0097027 0.0273791)
(-0.0241055 -0.0183408 0.0047595)
(-0.0204762 -0.01794 0.00329877)
(-0.0265141 -0.0179355 0.0056701)
(-0.0216737 -0.0199386 0.00403346)
(-0.0263648 -0.014329 0.00545507)
(-0.0232837 -0.00564796 0.0293061)
(-0.022249 -0.00644001 0.0269989)
(-0.0261553 -0.00772043 0.0274505)
(-0.0275448 -0.00644917 0.0250632)
(-0.0290805 -0.00618385 0.0269878)
(-0.0281875 -0.0101162 0.0287347)
(-0.0345211 -0.0160027 0.01765)
(-0.0338614 -0.0174441 0.0137168)
(-0.0344925 -0.0135101 0.0182246)
(-0.0334755 -0.0180304 0.0131799)
(-0.0337049 -0.0177087 0.0155549)
(-0.0348385 -0.0160575 0.0158486)
(-0.0318499 -0.00945657 0.024975)
(-0.0350153 -0.0118417 0.0236499)
(-0.0309239 -0.00895577 0.0271168)
(-0.0309917 -0.0103982 0.0248587)
(-0.0282492 -0.00988501 0.0273968)
(-0.0337186 -0.0132989 0.0228213)
(-0.0117683 -0.00421939 -0.00101171)
(-0.0118372 -0.00421682 -0.000657916)
(-0.0112559 -0.00450374 -0.00123956)
(-0.00457296 -0.0128477 0.00305578)
(-0.00556577 -0.0139865 0.00376863)
(-0.00480427 -0.0138812 0.00409078)
(-0.00421797 -0.0144904 0.00270344)
(-0.0041279 -0.0136148 0.00279103)
(-0.00410045 -0.0148442 0.00195591)
(-0.00556994 -0.0140334 0.00430626)
(-0.0103873 -0.00903302 0.0057089)
(-0.00973521 -0.00918844 0.00453014)
(-0.0111246 -0.0081248 0.00337717)
(-0.011294 -0.00799932 0.00468654)
(-0.00841399 -0.00990868 0.00502316)
(-0.0108018 -0.00911003 0.00495571)
(-0.0139928 -0.00853138 0.0103084)
(-0.0125758 -0.0100426 0.0100857)
(-0.0122608 -0.0101042 0.0114643)
(-0.0137015 -0.0103142 0.0112796)
(-0.0131809 -0.00848587 0.00932239)
(-0.0144054 -0.00847687 0.00949565)
(-0.012903 -0.0114175 0.0131702)
(-0.0101269 -0.0133012 0.0123554)
(-0.00994505 -0.0132463 0.0133066)
(-0.0112986 -0.0118836 0.0124343)
(-0.0115396 -0.0127534 0.0144656)
(-0.0122915 -0.0111281 0.0139078)
(-0.00782685 -0.0116963 0.00598414)
(-0.00741214 -0.0125984 0.00710934)
(-0.00691274 -0.0124596 0.00526852)
(-0.00638447 -0.0124387 0.00625058)
(-0.00871059 -0.0115627 0.00677122)
(-0.00824845 -0.0115403 0.00739339)
(-0.012129 -0.00715584 0.00339554)
(-0.0120845 -0.00818159 0.00438319)
(-0.0126021 -0.00733952 0.00520513)
(-0.0126458 -0.00682757 0.00323888)
(-0.0123331 -0.00816332 0.00527638)
(-0.0132675 -0.00557984 0.00282351)
(-0.0134099 -0.00518576 0.00243056)
(-0.0132207 -0.004559 0.00125752)
(-0.0126679 -0.00497126 0.00115329)
(-0.0130468 -0.00575105 0.00197767)
(-0.012728 -0.00503706 0.000417219)
(-0.00792154 -0.00383201 -0.00277195)
(-0.0066617 -0.00466513 -0.00328702)
(-0.00562367 -0.00538055 -0.00300055)
(-0.00872641 -0.00435728 -0.00319076)
(-0.00742239 -0.00452961 -0.00307511)
(-0.00619077 -0.00569317 -0.00310858)
(-0.0145862 -0.0178854 0.00392763)
(-0.0138938 -0.0174346 0.00556141)
(-0.0094552 -0.0047632 -0.00268589)
(-0.00932426 -0.00456603 -0.00288519)
(-0.00829158 -0.00331431 -0.00286676)
(-0.0121359 -0.00532358 0.000192542)
(-0.01196 -0.00552501 0.00055206)
(-0.0123527 -0.00633727 0.00134736)
(-0.012214 -0.00640502 0.00191076)
(-0.0129139 -0.00598389 0.00247425)
(-0.00902202 -0.0139177 0.0116817)
(-0.00638281 -0.0146152 0.00718762)
(-0.00723044 -0.0148044 0.00963423)
(-0.00574561 -0.0140496 0.00759722)
(-0.00696557 -0.0127588 0.00801381)
(-0.0117351 -0.0123373 0.0117046)
(-0.0138476 -0.010288 0.0125616)
(-0.0110941 -0.0106629 0.00777392)
(-0.00944613 -0.0102195 0.00700613)
(-0.00535013 -0.0134847 0.00624989)
(-0.00605946 -0.0130749 0.00617957)
(-0.00373995 -0.015503 0.00126847)
(-0.0116876 -0.00648413 0.000887896)
(-0.0122585 -0.00708209 0.00272146)
(-0.0116814 -0.00720451 0.00284391)
(-0.0131284 -0.00428485 0.000680799)
(-0.010393 -0.00430189 -0.00217193)
(-0.0119474 -0.004575 -0.000731476)
(-0.0117094 -0.00448706 -0.000333197)
(-0.0111741 -0.00473731 -0.00111975)
(-0.00968384 -0.00466287 -0.00246031)
(-0.010381 -0.00422623 -0.00187777)
(-0.029463 -0.00856942 0.0103575)
(-0.0312042 -0.0113377 0.00958096)
(-0.0349809 -0.0134419 0.0134581)
(-0.0296674 -0.0121592 0.00914806)
(-0.0337097 -0.0168354 0.0135315)
(-0.0336959 -0.0166572 0.0125782)
(-0.0341597 -0.0208104 0.0110483)
(-0.0293374 -0.010763 0.0289788)
(-0.0140434 -0.0106321 0.0244899)
(-0.0229868 -0.00990935 0.0294635)
(-0.0104261 -0.0106487 0.0208051)
(-0.0106995 -0.0100857 0.0209173)
(-0.0266562 -0.00464019 0.0256667)
(-0.0266032 -0.00746881 0.0281851)
(-0.0222693 -0.00662904 0.027435)
(-0.0137061 -0.00988968 0.0235842)
(-0.0170728 -0.00976919 0.0259542)
(-0.00884593 -0.0115259 0.019631)
(-0.00709544 -0.0103904 0.0173808)
(-0.00974762 -0.00989792 0.0204327)
(-0.0306338 -0.00412541 0.02226)
(-0.0310709 -0.00534225 0.0168667)
(-0.0313996 -0.00434818 0.0199322)
(-0.0210231 -0.00694143 0.0254596)
(-0.0181527 -0.00706658 0.0251977)
(-0.0180662 -0.00777139 0.023873)
(-0.0271805 -0.00429175 0.0224022)
(-0.0223733 -0.00418586 0.0244156)
(-0.0252746 -0.00452231 0.0241902)
(-0.00904451 -0.0142097 0.0133138)
(-0.0174178 -0.0082155 0.0224381)
(-0.0290955 -0.00387199 0.0189044)
(-0.0271738 -0.00371293 0.0228169)
(-0.0277176 -0.00177307 0.0210437)
(-0.0253605 -0.00164587 0.0188881)
(-0.0315029 -0.00713482 0.0113434)
(-0.0300596 -0.00482938 0.0129194)
(-0.0287982 -0.01352 0.00683482)
(-0.0261963 -0.00267813 0.0155714)
(-0.0272617 -0.00225158 0.0167571)
(-0.0238629 -0.00357781 0.00548897)
(-0.00842756 -0.017366 0.00258938)
(-0.0083162 -0.0207434 0.00518334)
(-0.0209471 -0.00805934 0.00130634)
(-0.0193567 -0.00825213 0.000867543)
(-0.0169383 -0.0108115 -9.31795e-05)
(-0.0140675 -0.0107291 -0.000477641)
(-0.0159458 -0.0139313 0.000811972)
(-0.0129371 -0.0149456 0.000837052)
(-0.0120705 -0.0181056 0.00199118)
(-0.0234488 -0.0242742 0.0062351)
(-0.0216537 -0.0223021 0.00481091)
(-0.019194 -0.0187614 0.00377055)
(-0.0193925 -0.0260347 0.00596874)
(-0.0180085 -0.029811 0.00838993)
(-0.016463 -0.0224282 0.00455284)
(-0.0178913 -0.0203118 0.0032999)
(-0.0127343 -0.0245102 0.0062038)
(-0.0146047 -0.0053235 0.00292223)
(-0.0134521 -0.00480979 0.00119271)
(-0.0139293 -0.00371387 0.00217471)
(-0.0132133 -0.00437962 0.00102213)
(-0.0128527 -0.00930503 0.00815842)
(-0.0126331 -0.00929246 0.00711213)
(-0.0114169 -0.00871857 0.00600801)
(-0.011321 -0.00872008 0.00726555)
(-0.012492 -0.00745995 0.00611984)
(-0.0146045 -0.00708327 0.00712744)
(-0.0138382 -0.00716588 0.00764968)
(-0.0133989 -0.00837706 0.00827029)
(-0.0136153 -0.00632229 0.00483711)
(-0.0128374 -0.00642266 0.00437979)
(-0.0140258 -0.00485106 0.0036266)
(-0.0143383 -0.0056136 0.00478871)
(-0.0189283 -0.00524929 0.0106857)
(-0.0180247 -0.00302915 0.00680867)
(-0.0183807 -0.00252428 0.00898226)
(-0.0184765 -0.00373942 0.00807929)
(-0.0132798 -0.00664763 -0.0026199)
(-0.0065402 -0.0174527 0.00324338)
(-0.00450063 -0.018141 0.00471324)
(-0.0115166 -0.012909 -0.000369487)
(-0.013064 -0.0121182 -0.000512533)
(-0.0111457 -0.0142096 0.000220877)
(-0.00849325 -0.015917 0.00132366)
(-0.00340483 -0.0181982 0.00517767)
(-0.00904635 -0.0106463 -0.00100699)
(-0.0215648 -0.00727771 0.00166449)
(-0.0227981 -0.00428228 0.00297991)
(-0.0140717 -0.0112277 -0.000995283)
(-0.0167668 -0.00952336 -0.000853857)
(-0.0184213 -0.00788699 -0.000566891)
(-0.0119049 -0.0105553 -0.0012385)
(-0.0131669 -0.00710789 -0.00192889)
(-0.0166788 -0.00309285 -0.000388011)
(-0.0146788 -0.00359274 -0.00139658)
(-0.0191249 -0.00493804 -0.000348873)
(-0.0164556 -0.00631661 -0.00177416)
(-0.0196126 -0.00344311 0.000784376)
(-0.0181453 -0.00167955 0.00120574)
(-0.0234976 -0.00141228 0.00509334)
(-0.0212193 -0.00372479 0.00299134)
(-0.0232878 -0.00111637 0.00909983)
(-0.0232789 -0.00204335 0.00639101)
(-0.0221488 -0.00328912 0.00533396)
(-0.0192714 -0.00197945 0.00255264)
(-0.00894917 -0.00262798 -0.00262309)
(-0.0160704 -0.00150205 0.00205249)
(-0.0145918 -0.00335001 0.00193738)
(-0.01019 -0.00310313 -0.00190398)
(-0.0104297 -0.00282064 -0.00149093)
(-0.0125217 -0.00312817 0.000295498)
(-0.00998864 -0.00371081 -0.00230019)
(-0.0108781 -0.00368575 -0.00262051)
(-0.00720928 -0.00518312 -0.00303273)
(-0.00893227 -0.0037776 -0.00280069)
(-0.0105852 -0.00554077 -0.00208998)
(-0.011811 -0.00345049 -0.00216122)
(-0.00875141 -0.00370061 -0.00272125)
(-0.0147427 -0.0112837 0.020904)