/*--------------------------------*- C++ -*----------------------------------*\
| =========                 |                                                 |
| \\      /  F ield         | OpenFOAM: The Open Source CFD Toolbox           |
|  \\    /   O peration     | Version:  v1612+                                |
|   \\  /    A nd           | Web:      www.OpenFOAM.com                      |
|    \\/     M anipulation  |                                                 |
\*---------------------------------------------------------------------------*/
FoamFile
{
    version     2.0;
    format      ascii;
    class       surfaceScalarField;
    location    "150";
    object      phi;
}
// * * * * * * * * * * * * * * * * * * * * * * * * * * * * * * * * * * * * * //

dimensions      [0 3 -1 0 0 0 0];

internalField   nonuniform List<scalar> 
37527
(
2.28902e-09
5.10762e-10
-2.82377e-09
1.91933e-11
-1.15625e-08
1.90211e-08
-1.97699e-08
1.23113e-08
-4.22332e-09
1.73468e-09
1.33763e-08
-1.08874e-08
-2.04798e-09
7.74299e-09
-9.91826e-09
-3.23097e-09
3.20382e-09
1.23727e-08
-1.23459e-08
9.54569e-09
-1.48248e-08
1.37249e-08
-8.78646e-09
-1.11476e-09
1.13358e-08
3.5039e-09
-1.32497e-08
1.04636e-08
1.67151e-09
-1.735e-09
1.86171e-09
6.48604e-09
-4.77939e-10
-1.86334e-10
1.01209e-08
2.43791e-09
1.22899e-08
7.48122e-09
-1.02256e-08
9.29552e-09
2.80809e-09
4.98261e-10
6.17614e-09
4.66136e-09
5.89797e-09
4.72124e-09
-6.25244e-09
7.4678e-09
8.08018e-09
1.18082e-09
4.80865e-11
-5.23518e-09
-7.32503e-10
1.36164e-08
-7.64862e-09
1.14046e-08
1.26333e-08
-1.60403e-09
1.241e-08
5.98693e-10
1.26609e-08
-6.48411e-10
1.81983e-11
-1.02681e-09
5.35531e-09
-1.15655e-08
7.23726e-09
4.25054e-09
-1.19767e-08
6.69952e-09
-8.322e-09
5.30551e-09
8.2212e-09
-5.20445e-09
1.22883e-08
-2.38323e-09
-1.09459e-08
1.04104e-09
8.71405e-09
-4.74757e-09
9.04994e-10
9.75601e-09
-3.98694e-09
9.14256e-09
2.91321e-10
-3.14265e-09
1.3307e-08
-1.28265e-08
2.35019e-09
-2.83061e-09
5.16945e-09
8.4643e-09
-3.2666e-10
-1.41484e-08
-7.80043e-09
9.97234e-09
-1.17709e-08
-2.08617e-09
5.27984e-09
7.82633e-09
-7.93671e-09
6.35741e-09
-1.05803e-08
-7.54786e-09
-1.59615e-09
1.53185e-10
-5.89797e-09
7.19089e-09
-5.81899e-10
-1.23817e-08
5.91983e-09
-7.51826e-09
1.01657e-09
7.88608e-09
-1.13176e-09
-8.34488e-10
3.91973e-10
8.92866e-09
5.15657e-09
-6.02054e-09
-8.06475e-09
8.38853e-09
2.35094e-09
-1.81086e-09
1.03602e-08
9.6986e-10
-4.97607e-09
-6.35393e-09
2.39503e-09
8.53266e-09
-5.67479e-10
-4.24934e-09
4.94011e-09
7.69776e-09
7.01981e-10
2.05279e-10
9.05005e-09
8.17502e-09
-1.39247e-08
-3.3005e-09
6.00351e-09
1.28287e-08
-9.78223e-09
-2.17092e-10
-9.62133e-09
3.81774e-09
-4.5649e-09
-1.23517e-08
1.39607e-09
1.55204e-08
1.19135e-08
-4.49083e-09
2.16757e-10
6.50166e-09
-1.12837e-08
-9.80881e-09
8.45737e-09
-5.00249e-09
-7.79801e-09
-2.71275e-09
1.48323e-08
-8.29288e-09
-3.82676e-09
-3.66195e-09
-1.26307e-08
1.1699e-08
4.5937e-09
-8.84242e-09
5.82466e-09
-6.4426e-10
-9.77826e-09
-1.17823e-09
-1.67427e-09
-7.49862e-09
-1.11221e-08
3.89107e-09
4.27499e-09
1.879e-09
-1.00452e-08
-8.29394e-09
1.61897e-08
3.80321e-09
1.42175e-09
2.69854e-10
-8.21184e-09
4.43346e-10
-8.72003e-09
8.38732e-09
6.02509e-10
5.31574e-10
3.6023e-10
-9.32264e-09
8.43086e-09
-9.76819e-09
1.30748e-08
-7.15858e-09
3.85199e-09
1.19114e-09
-1.04278e-08
6.01254e-10
1.66284e-09
-1.40144e-09
-8.58704e-10
5.17835e-11
8.38487e-10
-2.88718e-10
4.05202e-10
9.61997e-12
-3.59334e-10
-6.99513e-10
7.32909e-10
8.13912e-10
3.91745e-09
-2.84656e-09
5.93812e-10
2.15964e-09
1.05934e-09
2.40013e-09
-2.75834e-09
-2.48562e-09
-2.76072e-10
1.16365e-09
-1.21647e-09
3.40194e-10
3.53703e-10
-5.1833e-10
-1.05219e-10
9.97528e-10
5.62911e-10
-9.05745e-10
-6.48852e-10
3.1515e-09
2.46111e-10
2.07209e-10
3.20749e-11
1.22349e-10
5.16454e-10
8.64445e-10
2.31743e-10
-3.41245e-10
-4.1971e-10
8.06892e-10
4.50706e-09
5.5661e-10
2.18174e-10
1.88351e-09
1.31428e-08
1.37983e-08
-8.4564e-09
-1.84851e-08
1.49336e-08
8.26544e-12
-1.79947e-09
-7.43088e-09
1.04285e-08
1.1936e-08
5.07111e-09
1.29626e-09
-2.33279e-09
-2.15194e-09
-4.86782e-09
9.3531e-09
-3.03308e-09
-1.47296e-08
1.54301e-08
-3.2986e-09
1.32055e-08
-1.20586e-08
-2.72515e-08
2.09199e-08
-5.05353e-09
1.08265e-08
3.80235e-09
-9.57575e-09
3.99484e-09
-1.75051e-08
1.15361e-08
-7.01361e-10
-8.01924e-09
1.358e-08
-8.98206e-09
-6.76395e-10
-1.36725e-08
-8.34369e-09
-5.23517e-09
-1.95619e-09
-3.04134e-09
8.79974e-09
8.30326e-09
-6.26469e-09
1.53475e-09
1.98236e-09
-1.43513e-08
-4.76233e-09
1.64145e-08
-3.7009e-09
-7.95139e-09
-1.05398e-08
-1.47262e-09
1.48429e-08
-2.83019e-09
-1.93711e-09
-1.07304e-08
2.12765e-09
1.34262e-08
-1.09068e-08
-7.2819e-09
-5.17221e-09
2.01141e-08
-1.11607e-08
-7.63756e-10
7.01039e-09
4.91409e-09
-1.20447e-08
-8.94793e-09
9.83199e-09
7.49024e-09
6.34728e-09
-5.81196e-09
-4.19092e-09
3.65561e-09
-6.46925e-09
-9.65026e-10
-2.7018e-10
7.70451e-09
-5.07044e-09
4.94845e-09
5.99277e-09
8.48208e-09
-1.2866e-09
-1.31883e-08
-4.61263e-09
4.2891e-11
-5.00708e-10
5.43182e-10
6.88282e-10
-1.07645e-08
9.53316e-09
-9.74987e-09
7.65785e-10
9.52732e-09
9.62021e-09
-9.89694e-09
7.53098e-09
-5.41747e-09
3.87928e-09
5.76911e-11
8.70754e-09
-2.83125e-10
4.593e-09
-4.49353e-09
-4.17671e-11
2.53482e-09
-3.57714e-09
-6.98676e-10
5.0886e-09
-5.84259e-09
-1.06788e-08
7.23252e-09
9.28918e-09
4.91684e-09
-1.29266e-08
2.16735e-09
-9.91162e-09
-2.83435e-10
-4.83246e-10
-7.00691e-10
2.07174e-09
-1.12828e-08
9.1911e-09
-6.44044e-09
5.71485e-10
-3.32171e-09
1.28749e-09
3.42037e-10
7.56168e-09
-6.11204e-09
4.58887e-09
8.62799e-09
-1.21641e-10
-9.2066e-09
7.76423e-09
5.80414e-10
7.17649e-09
3.68472e-10
-7.66666e-09
6.39661e-09
8.4117e-10
-6.12438e-11
6.39055e-11
8.45622e-09
9.58148e-10
-1.1813e-08
2.02172e-10
7.75371e-09
-1.91529e-10
6.51162e-09
8.72279e-11
1.08208e-08
-6.84171e-09
-3.40751e-09
2.3832e-09
8.7797e-09
-2.0503e-11
-5.13332e-09
-7.19636e-09
1.19597e-09
-6.84835e-09
-2.27379e-09
1.00915e-08
6.62112e-09
1.44602e-08
-1.70199e-08
7.22115e-09
-1.46256e-08
1.64529e-08
1.42291e-08
-1.60564e-08
4.91889e-09
-5.08417e-09
1.08862e-08
-4.5281e-09
-6.39386e-09
3.59068e-11
-9.33925e-09
9.82942e-09
1.03959e-08
-8.59828e-09
2.29875e-08
2.06364e-09
-4.83411e-09
1.15477e-09
1.47346e-08
-1.45444e-09
-6.19302e-10
-1.24168e-10
8.86375e-10
1.18712e-08
1.1796e-08
-6.30244e-09
-1.16893e-08
6.19569e-09
7.22321e-09
3.5277e-10
1.01671e-08
-9.97387e-09
7.03687e-10
8.15388e-09
1.34293e-08
2.98432e-09
-2.45676e-08
1.28651e-08
-1.00624e-08
5.35117e-09
5.03469e-09
-5.42078e-09
1.38152e-08
1.04e-08
8.01438e-09
6.77297e-09
1.97547e-08
-1.37572e-08
-1.27704e-08
1.55127e-08
-5.93125e-09
-2.80846e-09
-3.90356e-09
1.03222e-08
9.0939e-09
8.40171e-09
7.44946e-09
7.39291e-10
-1.28447e-08
1.47862e-08
-2.68048e-09
1.47449e-08
-9.22938e-09
7.44962e-09
-1.29649e-08
-2.59771e-09
9.53149e-09
1.42343e-08
1.20027e-09
-1.33019e-08
1.26285e-08
9.07517e-09
-8.1575e-10
1.24633e-09
-1.37324e-08
-2.14712e-10
1.36333e-08
-1.35337e-08
-5.20985e-09
-2.00042e-09
9.15552e-11
-1.16253e-08
-3.62186e-10
-1.14721e-08
7.60619e-09
-7.39216e-09
-9.91196e-09
-1.00561e-09
-3.0642e-09
-1.58147e-09
1.08367e-08
-9.16395e-09
-9.3359e-09
-4.41984e-09
8.52585e-09
7.11991e-09
-2.34774e-08
7.83296e-09
4.21842e-09
1.80863e-08
-1.37787e-08
4.63341e-09
-1.32829e-08
1.59281e-08
-7.27736e-09
-1.44018e-08
-6.86126e-10
1.9722e-08
9.16862e-09
-1.7266e-09
-2.0724e-08
3.21443e-09
-8.44699e-09
9.56825e-09
-1.4063e-08
1.16144e-08
-8.47432e-09
2.22613e-08
1.32632e-09
-8.87512e-09
6.54915e-09
1.12705e-08
-1.95457e-08
4.85135e-09
1.03743e-08
-8.67599e-09
1.22253e-08
-4.15888e-09
8.37673e-09
9.95751e-09
-7.95942e-09
-6.70409e-09
1.46466e-08
4.34424e-10
-8.48201e-09
-4.25451e-09
-3.91472e-09
3.321e-09
1.41152e-09
7.49373e-09
1.12299e-08
2.04951e-09
1.74024e-08
1.11809e-08
3.29613e-09
-6.51536e-09
-7.96177e-09
7.29436e-09
-4.23039e-09
8.11714e-09
-1.29005e-08
3.51173e-09
1.66833e-08
-3.07731e-09
-6.52713e-09
-8.77469e-09
5.81403e-09
4.96712e-09
-2.00723e-09
-4.73876e-09
-7.11311e-09
4.23524e-10
-1.42971e-08
9.13483e-09
5.14237e-09
-2.8912e-09
-8.76664e-09
2.62957e-10
6.48927e-10
-7.11847e-10
1.00383e-08
-6.31275e-09
3.84524e-09
4.10921e-09
2.17602e-09
-4.82438e-09
-1.45965e-09
-2.30287e-09
5.7003e-09
1.20789e-09
-3.24711e-09
6.43541e-09
9.23467e-09
-1.54762e-08
-1.93104e-10
3.09353e-09
-4.89393e-09
8.23634e-09
3.8606e-10
1.19424e-08
2.59529e-09
1.23508e-08
1.89376e-09
-1.68396e-08
8.2131e-09
3.97172e-09
-9.58942e-09
-8.17986e-09
-1.73588e-09
1.03021e-08
-7.98304e-09
4.27558e-10
-6.24165e-10
-1.2229e-08
-6.47025e-09
3.2233e-09
-4.41994e-10
5.64058e-10
-2.11824e-10
1.52626e-08
-2.73988e-09
-1.19953e-08
-5.27068e-10
1.36501e-08
1.33728e-08
-1.17601e-08
-5.15288e-09
1.00867e-08
-7.43655e-09
2.50298e-09
8.28148e-09
-9.46261e-09
-8.46851e-09
-2.99103e-09
9.72396e-09
-7.19927e-09
-8.41546e-10
-1.60252e-09
1.10637e-08
6.25813e-10
-5.20263e-10
1.3392e-08
-1.4238e-08
1.12357e-08
-4.31376e-09
-3.92406e-09
1.0266e-08
-1.64519e-09
9.71804e-09
8.0809e-09
-1.83427e-08
5.00518e-09
1.82689e-09
1.15085e-08
2.90452e-09
-1.18706e-08
-9.3784e-09
-1.55573e-08
5.3182e-09
1.52435e-08
-8.8256e-09
-3.82768e-09
5.35493e-09
1.31261e-08
-1.66548e-08
-1.02126e-08
-1.50276e-08
1.33699e-08
6.91781e-09
4.41666e-09
6.57904e-09
7.00861e-09
1.3591e-08
-3.28096e-09
-4.38008e-09
6.947e-09
2.28449e-09
4.35921e-09
-1.30026e-09
-7.94745e-09
1.45657e-08
-8.55533e-09
1.26097e-08
-1.04097e-08
9.4091e-09
-6.66266e-09
-7.02792e-09
-1.10719e-08
1.26757e-08
6.40484e-09
-1.43877e-08
8.87767e-09
4.75928e-09
7.51071e-10
1.7048e-09
9.38439e-10
-1.70311e-08
1.2196e-08
2.34615e-09
-1.28372e-08
1.17049e-08
9.36878e-09
1.20199e-08
1.6822e-09
-1.27635e-08
5.83333e-09
1.56203e-11
-4.74821e-10
1.21643e-08
-1.16883e-08
-1.12255e-09
-2.54002e-09
-1.21947e-08
2.35323e-09
-9.78256e-09
-2.75627e-10
-8.73607e-11
-1.0425e-08
-1.39967e-09
-8.47015e-09
1.24776e-08
-1.15311e-08
-9.09967e-09
9.88895e-09
-1.40614e-09
1.1429e-08
-1.16373e-08
1.61444e-09
6.62464e-09
-7.91552e-09
-1.15286e-10
2.46115e-09
5.56483e-10
8.41148e-09
-8.24708e-09
2.58797e-09
8.1203e-09
-1.15215e-09
-4.70195e-10
-1.34807e-08
-7.97194e-09
1.04715e-08
1.09811e-08
1.81456e-09
-5.95463e-09
-9.34059e-09
2.46764e-09
-3.24166e-09
-7.14149e-09
-7.35508e-09
-1.0744e-08
3.00693e-09
-2.34862e-10
-2.45267e-09
-1.42459e-08
2.47015e-09
8.55786e-09
-8.36559e-09
-6.67349e-10
1.16209e-08
-6.03856e-09
7.86441e-09
1.18097e-09
2.18751e-10
-8.70994e-09
-7.1312e-09
-8.86198e-09
7.62761e-09
-7.73916e-09
-5.44231e-10
-8.08904e-09
9.89181e-09
7.56471e-09
-1.05876e-08
-8.18671e-09
-5.51655e-10
-1.23654e-10
-8.36116e-09
-7.7633e-10
1.28686e-09
5.66371e-09
4.96282e-09
1.85645e-08
-3.30407e-09
-7.08539e-09
7.95482e-09
-1.58924e-08
9.2244e-09
-1.12519e-09
-1.21904e-08
2.12704e-08
-9.51356e-09
6.44988e-09
1.36755e-08
-4.62466e-09
-1.0464e-08
1.59376e-08
-6.59876e-09
-9.57549e-09
1.10605e-08
-1.18679e-08
-9.10958e-09
1.05135e-08
-9.23904e-09
-2.33867e-10
1.46814e-09
-1.06852e-09
-9.9752e-09
6.19002e-09
-6.97169e-09
-1.45146e-09
3.07288e-10
1.43468e-08
-8.94977e-09
-5.70442e-09
1.36761e-08
-8.87133e-09
-4.49778e-09
-6.69098e-09
7.92252e-09
1.31152e-08
2.52851e-09
4.45669e-09
5.2863e-09
-4.68312e-09
7.31916e-09
-3.99653e-09
-4.58038e-09
1.38632e-08
-7.26112e-09
4.06249e-09
-5.75119e-09
5.9832e-09
1.09664e-09
-1.43413e-08
4.15212e-09
-7.04028e-09
-4.38417e-09
4.04749e-09
5.92549e-09
-5.58923e-09
4.21419e-09
-7.50188e-09
-7.01617e-09
5.54843e-09
-7.29182e-09
-5.80933e-09
8.52038e-09
-1.0591e-08
-1.38402e-09
-4.71078e-09
-1.81775e-09
9.75622e-09
-1.55635e-09
-2.4582e-09
1.01078e-08
-1.72447e-09
-2.95481e-09
-1.45858e-09
4.19855e-09
2.83995e-09
-6.74296e-09
1.77872e-09
5.11899e-09
-1.54543e-10
-2.48384e-09
-8.34885e-09
4.09049e-09
5.72062e-09
-3.79823e-09
1.92816e-09
-3.85e-09
6.61947e-09
8.80353e-10
1.00905e-09
-7.29082e-09
5.21759e-09
5.756e-09
-5.85419e-09
-4.45832e-09
8.73284e-10
6.04396e-10
2.98097e-09
-4.78617e-10
-2.05112e-09
1.76433e-09
5.72863e-09
-1.92502e-09
1.38286e-09
2.05611e-09
-1.5111e-09
2.70506e-09
-3.62072e-09
1.67627e-09
2.14546e-09
-1.11256e-09
3.04048e-09
2.11954e-11
-2.90902e-09
7.58767e-10
2.7571e-09
-1.24207e-09
-7.89032e-10
7.77182e-09
3.61369e-09
-1.31879e-09
-2.3704e-10
1.04984e-09
2.75266e-09
3.87469e-09
3.59066e-09
-4.62934e-09
7.98646e-09
-6.94678e-09
-3.2828e-09
7.3168e-09
-4.40863e-10
5.32589e-10
5.31612e-09
-1.04771e-08
3.60616e-09
-6.35568e-09
1.81374e-09
-5.65857e-09
1.82134e-10
3.66588e-09
-2.00647e-09
2.21158e-09
7.67518e-09
-4.56993e-09
5.43757e-09
7.69013e-09
-9.52177e-09
9.7803e-09
-2.13083e-09
-5.77172e-09
8.6817e-09
6.87045e-09
3.17598e-09
-1.25737e-09
5.62879e-09
1.89334e-09
4.61141e-09
-6.5292e-09
-1.93208e-09
5.66299e-09
-1.70957e-10
3.12738e-10
-1.38524e-08
1.53254e-08
1.21032e-09
-2.68325e-09
1.40328e-08
-5.8077e-09
-2.20777e-08
1.22399e-08
-1.07172e-09
2.86473e-09
9.64039e-09
1.79249e-08
-8.66387e-09
-2.22244e-10
-1.02109e-08
1.9097e-08
-2.97101e-09
-1.20654e-08
6.37253e-09
7.14058e-09
6.20288e-09
-1.91512e-08
8.3489e-09
-1.23428e-08
1.02289e-09
1.7767e-08
-1.32973e-09
1.25127e-09
-1.01324e-08
-1.23404e-08
-1.05477e-09
9.97455e-09
8.46727e-09
-1.13013e-08
1.27325e-08
-1.54763e-09
7.95257e-09
-9.87466e-09
8.12488e-09
-7.58892e-09
7.9786e-09
3.34563e-09
-2.4674e-09
-1.04227e-09
2.84157e-10
3.73504e-10
-6.62279e-10
9.41437e-12
-9.8274e-10
9.08281e-10
3.60128e-10
8.98648e-10
-1.35616e-10
-3.87816e-10
2.70487e-10
2.21173e-10
4.08322e-10
7.02923e-10
-5.34169e-10
-3.00581e-10
6.26836e-10
2.59858e-10
-1.83216e-10
7.66878e-10
-6.4649e-10
-1.09769e-09
2.74311e-10
-1.69374e-10
8.76808e-11
1.09518e-09
5.36108e-10
3.13996e-10
-6.35811e-10
1.60062e-10
7.43263e-10
-5.64098e-12
-1.59405e-10
-4.6774e-10
-2.61885e-10
8.74145e-10
-1.74028e-09
2.28365e-10
1.3507e-10
8.32445e-10
3.5849e-10
6.1311e-10
-8.04415e-10
-1.53131e-10
8.02822e-10
-3.0879e-10
-7.4173e-10
1.07085e-09
1.69101e-09
-2.01448e-09
6.44922e-10
-3.6024e-09
2.21685e-09
5.56568e-11
-4.23163e-10
1.4404e-09
1.15263e-09
-1.90452e-09
-9.00282e-11
1.30035e-09
3.17421e-10
1.28455e-09
-2.821e-10
-1.31181e-09
4.84515e-10
3.83081e-10
-5.42549e-10
-3.45236e-10
-2.53735e-09
-7.15716e-10
-9.60061e-10
4.66076e-10
-1.48165e-10
-1.2265e-09
9.15709e-10
1.84826e-09
-1.30623e-09
-1.42111e-09
8.80973e-10
5.88602e-10
-1.91965e-10
3.00095e-10
-9.90731e-10
4.98014e-11
-3.07621e-10
7.27958e-10
2.11542e-08
-4.18201e-09
-3.23501e-09
-1.37372e-08
2.22558e-09
8.08464e-09
1.0844e-08
-2.17294e-08
9.88769e-09
1.40671e-08
-6.08142e-09
-1.983e-08
-5.85534e-09
1.20476e-08
-9.42721e-09
1.21353e-08
1.39664e-09
-1.96134e-08
2.11021e-08
-1.22709e-08
9.65208e-09
6.8252e-09
-1.66002e-08
1.21415e-08
-1.29929e-08
8.99268e-09
1.20849e-08
1.76989e-09
-2.71528e-09
1.86451e-08
-3.20256e-09
4.3749e-09
1.70734e-10
3.5712e-09
7.11925e-09
-5.28366e-09
2.53965e-09
-6.85372e-09
6.3152e-09
5.00617e-09
-4.46794e-09
1.00003e-08
1.09259e-08
9.113e-09
1.41322e-08
3.10964e-09
2.94828e-09
-4.7467e-09
5.36958e-09
-4.77658e-09
7.64327e-09
6.24999e-09
9.03453e-09
3.22152e-10
7.02607e-11
1.18965e-08
-4.32249e-09
1.1725e-08
-4.53568e-09
9.87326e-09
-1.91873e-09
-1.97686e-09
1.17389e-08
2.13465e-09
1.06659e-08
-9.17823e-10
-9.6977e-10
3.6082e-09
7.23519e-09
3.26786e-09
5.4939e-09
-9.73148e-09
4.03717e-09
9.89662e-09
-1.00231e-09
1.67783e-08
1.16403e-08
-6.91005e-09
3.17052e-09
1.00374e-09
2.73492e-09
1.79613e-10
-2.86693e-09
-4.22351e-09
-7.58872e-09
3.70026e-09
7.05849e-09
-3.03061e-09
-4.3788e-09
-6.93099e-11
2.16492e-09
-2.36438e-09
2.69387e-10
-2.94169e-09
2.67549e-09
1.9669e-10
-8.45181e-10
-2.95871e-09
5.122e-09
-1.31775e-09
-1.33063e-09
-3.31901e-09
3.80429e-09
-4.51293e-10
-3.53273e-09
2.65352e-09
1.24452e-09
4.71843e-10
-3.52976e-09
2.2884e-09
2.2451e-09
-1.71877e-09
-4.67833e-09
-1.01959e-10
-3.74783e-09
5.30273e-10
6.38987e-10
-1.36217e-09
2.84387e-09
-4.51282e-09
-2.65846e-09
1.66027e-09
-1.94434e-09
-1.85614e-09
-3.16735e-09
-2.67784e-09
1.82023e-09
-4.93748e-09
2.31051e-10
-1.13539e-09
-7.8687e-10
1.80544e-09
8.10294e-09
-6.45184e-09
-3.45666e-09
5.55078e-09
-3.80455e-09
5.9104e-11
7.48166e-09
3.84799e-09
-3.22736e-09
4.62992e-09
8.40212e-09
-1.64948e-09
6.04586e-09
3.25106e-09
-7.64778e-09
2.79688e-09
-1.08797e-08
6.43323e-09
1.90893e-09
3.32425e-10
3.80925e-09
-4.27808e-09
4.31536e-09
-3.12788e-09
1.15669e-08
-1.68039e-09
-1.52069e-09
-5.53093e-09
6.64695e-09
6.89345e-09
-2.9844e-09
-5.39212e-09
7.2892e-10
-2.99493e-09
-5.69177e-09
-5.01146e-09
7.57561e-09
-4.42564e-09
6.429e-10
8.33235e-09
-6.32489e-09
2.47434e-10
3.07336e-09
2.61567e-09
-1.11475e-08
1.24075e-08
2.83605e-09
8.27384e-09
-5.58809e-09
-5.32268e-09
1.52701e-08
2.45756e-09
-1.86266e-08
1.65904e-08
-3.28828e-09
-5.62897e-09
1.29371e-08
1.0564e-08
-9.64421e-09
-3.28007e-09
5.02044e-09
6.24914e-09
8.20713e-09
-2.10365e-09
1.04863e-08
-8.9945e-09
3.24376e-09
1.39563e-08
4.53035e-10
5.82125e-09
1.73362e-08
-1.03228e-08
3.55006e-09
1.50307e-08
1.19366e-08
4.0295e-10
1.21117e-08
4.21411e-10
1.67716e-08
9.66855e-10
-8.26197e-09
7.68246e-09
-1.03945e-08
1.09727e-08
4.30263e-09
-1.26049e-08
4.89745e-09
5.60324e-09
-3.31814e-09
1.4244e-08
1.07924e-08
-6.0846e-09
3.95789e-09
-4.6262e-09
4.56851e-09
1.80861e-09
-1.13035e-08
1.28829e-08
1.4331e-08
4.19136e-10
7.59621e-09
-4.93127e-09
-1.92265e-09
-3.72335e-09
1.05772e-08
-4.8539e-09
-7.65347e-09
7.57607e-09
-4.63864e-09
-5.49585e-09
-4.42626e-09
4.11037e-09
-4.53807e-09
-9.761e-09
4.21247e-09
1.1222e-09
2.1156e-09
8.05611e-09
-6.06141e-09
-1.65967e-09
-2.85361e-09
-4.20675e-09
-4.04493e-09
-6.94064e-09
3.63408e-09
7.35164e-09
-8.40825e-09
3.76486e-10
3.98706e-09
1.37661e-09
9.41875e-09
-8.65363e-10
-9.92991e-09
1.0027e-08
-4.35797e-10
-8.21455e-09
5.91933e-09
-6.74853e-09
-7.57893e-09
-7.28713e-10
-2.92483e-10
-7.7463e-09
4.48377e-09
3.63936e-09
-1.51478e-09
3.18751e-09
7.60429e-09
9.08085e-10
4.9523e-10
-8.10917e-09
6.1247e-09
-6.06524e-09
1.33704e-09
-7.53573e-09
1.06827e-08
-6.62244e-09
1.15936e-08
-6.18471e-09
-7.09288e-09
6.65539e-09
-6.56606e-09
-3.47323e-10
-7.4221e-09
4.26321e-10
-9.69122e-11
-7.86347e-09
4.95009e-10
-1.33473e-09
-1.53519e-08
5.97438e-09
1.07123e-08
-1.31591e-08
8.34066e-09
3.48372e-09
1.1437e-09
-5.35558e-09
-1.11401e-08
-3.74673e-09
-8.26867e-09
-1.28417e-09
-2.68918e-09
8.13174e-09
-4.15831e-09
-5.20488e-09
9.89514e-09
-4.1512e-09
-5.59705e-09
6.0015e-09
6.93099e-09
7.76667e-09
-7.05328e-09
-7.6445e-09
1.22938e-09
5.50673e-09
1.948e-10
-5.65742e-09
-4.12667e-09
7.09495e-09
-6.42832e-09
9.6038e-10
-1.89504e-10
5.54193e-09
-4.09671e-09
-5.59649e-09
3.42959e-10
1.01052e-08
-1.83354e-09
-5.05054e-10
8.67435e-09
6.93759e-09
-1.30155e-09
-1.34872e-08
9.43303e-09
-1.24516e-08
7.69351e-10
5.52492e-09
-1.14992e-08
5.31704e-09
-2.43096e-09
-3.34055e-09
2.34838e-09
3.42297e-09
1.61683e-09
-6.64848e-09
2.60084e-09
4.64493e-09
-8.49674e-09
5.46856e-09
-4.40627e-09
-7.87704e-10
1.85267e-09
-7.63116e-09
-3.42358e-09
1.36082e-09
2.37683e-09
-4.52586e-09
2.79469e-09
-3.58993e-09
1.20875e-09
-4.13175e-10
-4.04218e-09
2.02196e-09
-1.96719e-09
3.9878e-09
-1.2562e-09
9.08866e-12
1.91243e-09
-4.87987e-09
7.61302e-09
6.28278e-09
4.1304e-09
5.58409e-09
-3.69776e-09
-6.01664e-09
9.42405e-10
3.69322e-09
-5.05353e-10
2.32408e-09
-1.30919e-09
1.77836e-09
-2.79323e-09
-3.23512e-10
3.35641e-09
-1.93951e-09
-2.08263e-10
-5.10351e-09
-1.03274e-09
-4.91572e-09
3.50541e-09
1.51551e-09
-8.47162e-10
7.79764e-09
-1.32091e-09
1.69396e-09
-8.17075e-09
8.16091e-10
-6.32789e-09
5.106e-10
-2.95467e-09
4.22247e-09
-5.42654e-09
9.82683e-09
9.50858e-10
-1.05143e-08
-2.63109e-10
4.92681e-09
-6.47423e-09
1.13747e-08
-1.7009e-08
9.72794e-09
9.90622e-09
-2.62507e-09
-2.14076e-09
-1.25449e-08
-2.32323e-09
-6.56425e-09
-7.13199e-10
1.22042e-08
-5.62763e-09
1.41628e-11
-3.04381e-09
-1.39063e-08
1.04762e-08
9.82263e-09
-3.10968e-09
-8.85336e-09
7.92864e-09
1.16219e-08
-9.71527e-09
6.80165e-09
-2.7141e-09
-3.78455e-09
-1.05159e-08
4.58529e-09
-4.35989e-09
1.15753e-08
-1.64439e-08
9.0406e-09
-5.95373e-09
-2.38456e-09
-5.56771e-09
-7.1787e-09
-1.00491e-08
-8.77921e-09
1.98362e-10
-1.11612e-08
-1.29605e-08
2.87069e-10
8.16569e-09
-1.06551e-08
2.20189e-09
8.88386e-09
-1.07995e-08
2.20307e-09
9.41568e-09
-9.00682e-09
7.85523e-09
-8.26409e-09
1.11697e-08
-1.4623e-09
-2.92365e-10
3.53014e-09
-2.24793e-09
6.88202e-09
-7.37085e-09
-1.28413e-09
1.21848e-08
-7.39287e-09
8.90592e-09
1.63083e-09
-1.31171e-09
-1.09745e-08
4.53422e-10
-9.62185e-09
8.04912e-09
-4.62568e-10
-7.13325e-09
5.87818e-11
5.97622e-10
-1.00526e-09
-8.46456e-09
-7.263e-09
8.69577e-09
9.73658e-09
6.50969e-10
-3.41429e-09
1.08251e-08
-1.01192e-08
4.45628e-09
-8.65575e-09
-2.92608e-09
-6.21376e-09
-9.94467e-09
1.54993e-08
6.59276e-10
9.12691e-09
-9.43931e-09
-5.90127e-09
-7.76897e-09
6.41955e-09
-6.55088e-09
7.90037e-09
-1.11698e-09
-6.71485e-09
6.28861e-11
-6.44911e-09
4.45009e-09
-4.2363e-09
6.23542e-09
-7.54543e-09
-2.06164e-11
-7.65951e-09
7.10993e-09
-9.39505e-09
4.45162e-09
3.73532e-10
4.30206e-09
1.50416e-08
4.90944e-09
-2.46704e-09
2.87499e-10
-7.25976e-09
1.96644e-10
-1.03233e-08
1.13282e-08
-4.5854e-10
-6.93494e-09
-1.01043e-10
4.85274e-10
-6.91572e-09
-6.73407e-09
-2.44716e-10
7.25371e-09
6.6473e-09
-7.58175e-09
-6.61092e-09
2.78466e-09
1.41479e-09
-8.13382e-09
-5.87945e-09
-6.52276e-09
-1.07767e-08
1.8361e-09
1.54624e-08
-5.70244e-09
-7.17405e-09
6.352e-09
-1.29817e-08
-3.49741e-09
9.08497e-09
1.41105e-08
-1.42761e-08
-8.91934e-09
9.28826e-09
-3.86377e-09
3.66067e-09
1.33481e-08
-5.71183e-10
3.18544e-09
-1.59631e-08
-1.98849e-09
2.35609e-09
6.97103e-09
-1.68402e-10
7.30772e-09
4.28863e-09
1.19708e-08
-1.44396e-08
7.09607e-09
1.37932e-08
2.552e-09
-1.69157e-08
1.10749e-08
7.29975e-10
1.5182e-08
3.17172e-09
-1.58012e-08
6.7218e-09
4.59647e-09
-3.32641e-10
-1.0772e-08
-1.15869e-08
-7.78686e-09
1.39115e-08
1.00099e-08
2.03779e-09
1.37443e-09
-4.45303e-09
1.04291e-09
-9.46568e-10
3.68579e-10
2.6146e-09
-1.79836e-09
-1.75953e-10
1.02247e-09
-6.8539e-10
7.69425e-10
-1.88206e-09
-3.43701e-09
1.07398e-09
2.73402e-09
-2.2621e-09
2.01336e-10
-6.94084e-11
-5.9534e-11
-4.81482e-11
-4.66368e-10
9.06155e-11
-3.02676e-10
-2.93232e-10
-2.34536e-10
-1.40329e-09
-2.27813e-09
-9.06822e-10
1.62489e-09
3.58624e-10
1.46906e-10
4.51558e-10
6.18251e-12
-6.07901e-10
6.75982e-10
-4.96756e-10
-2.86923e-11
4.93324e-10
-1.0929e-10
-1.66708e-09
1.44123e-10
6.16297e-10
-2.16814e-09
-1.75318e-09
3.55213e-10
-3.90782e-10
5.37459e-10
2.33275e-10
2.16766e-10
-9.2571e-10
-2.64191e-09
-2.63372e-10
3.25675e-10
5.79958e-10
-1.27013e-09
4.58655e-10
9.67555e-09
4.29085e-09
-1.8637e-08
4.67048e-09
1.05559e-08
-1.97331e-09
1.09294e-09
1.11135e-08
3.86823e-09
-6.88887e-09
-8.0927e-09
1.17456e-08
1.0322e-08
-1.09542e-08
-4.38429e-09
1.26354e-08
-4.38295e-09
1.271e-08
-1.28029e-08
-2.87651e-09
7.66211e-10
-1.48063e-08
1.69165e-08
-6.73242e-11
9.82628e-09
1.90784e-09
-8.64038e-09
6.66512e-09
-7.68439e-09
1.03585e-08
4.05881e-09
-9.53588e-10
-1.08447e-08
1.08443e-08
4.05929e-09
1.58668e-09
-3.68287e-09
1.00038e-08
-1.02927e-08
-1.31969e-08
1.63568e-08
-1.60645e-09
-2.67593e-09
1.15478e-09
1.81749e-08
-1.6654e-08
-1.81574e-09
1.11224e-08
-1.19828e-08
1.71975e-08
-1.5953e-08
-1.39249e-09
1.47932e-10
-1.33772e-09
1.96898e-08
-5.05095e-10
-1.00032e-08
-5.44467e-09
1.55673e-08
-1.01911e-08
-5.88143e-09
9.26649e-09
4.96935e-10
-8.57224e-09
-2.12406e-09
1.11169e-08
2.73573e-10
-1.00415e-09
-1.21868e-08
1.36879e-08
-2.34968e-09
1.65793e-08
-9.14701e-10
-1.00927e-08
-1.07455e-08
-1.23997e-09
1.21907e-08
9.87065e-09
-5.6953e-10
1.29008e-08
-1.32812e-08
-1.96932e-09
1.72896e-08
3.15191e-09
-1.49268e-08
-5.51477e-09
1.40983e-08
-1.0039e-08
1.32307e-08
4.167e-09
2.7142e-09
7.21735e-09
-9.42439e-09
4.56524e-09
9.02666e-09
2.87138e-09
-1.07771e-08
-1.51834e-09
8.45918e-10
-7.94658e-09
9.81526e-09
-7.48447e-09
1.2896e-08
-6.90149e-09
2.28893e-09
-1.52886e-08
1.55785e-08
-1.8707e-09
1.3862e-08
-1.72865e-09
-8.90963e-09
5.8216e-09
7.84753e-09
7.21584e-09
-5.93054e-09
-1.62117e-08
1.58331e-08
-1.85087e-09
-6.76596e-09
4.66055e-09
1.1338e-09
1.20189e-08
-5.03305e-09
-8.71427e-09
1.09392e-08
-3.21322e-09
7.06209e-09
-5.69944e-09
-1.34577e-08
-8.81458e-09
2.69819e-09
-6.78548e-09
-1.38514e-08
3.76559e-09
9.63458e-09
4.51781e-10
-3.41419e-09
-1.45112e-09
-8.98623e-09
8.36247e-09
-3.92199e-09
-7.8544e-09
6.61635e-09
1.09357e-09
6.52926e-10
3.83503e-09
-2.56703e-09
-3.69761e-09
-7.58711e-09
9.83394e-09
3.6886e-09
6.69341e-09
-5.48713e-09
5.9799e-09
6.00904e-10
6.59855e-09
5.01763e-10
-1.10224e-08
-5.73691e-09
-6.91714e-09
7.19828e-09
-8.32913e-09
2.58713e-10
-2.26728e-09
-4.83189e-09
-1.00073e-08
1.71029e-08
-5.18299e-09
-7.46571e-09
1.03802e-08
-3.21798e-09
1.1448e-08
3.47925e-09
7.39034e-09
1.01682e-08
2.28856e-09
-1.76351e-09
1.42874e-09
-5.78898e-10
-6.56626e-09
1.12689e-09
6.01824e-09
-7.74693e-09
6.76986e-09
3.98294e-10
-5.96505e-09
-8.99971e-09
1.40575e-08
9.07327e-10
7.80201e-10
-9.74222e-09
2.39586e-09
-1.24188e-08
5.58786e-09
6.54219e-09
2.88675e-10
4.11471e-10
-1.4788e-09
-1.13516e-08
-1.26214e-08
7.43974e-09
-7.83293e-10
-1.09655e-08
2.74601e-09
5.79622e-11
-7.54417e-09
-2.60759e-10
7.25461e-09
-1.04588e-08
-8.65288e-09
1.18573e-08
7.53306e-09
-2.20347e-10
1.1006e-08
-1.03028e-09
-9.56409e-09
3.97245e-09
1.09987e-08
-1.26668e-09
-1.12108e-08
6.57539e-09
-7.66764e-11
-7.25686e-09
-2.10581e-10
-9.55835e-09
-2.60498e-10
-5.72415e-10
-1.02526e-08
5.1032e-10
-8.33959e-09
-1.09787e-08
1.26665e-08
-3.45628e-09
-2.68615e-09
-6.52317e-09
5.98469e-09
3.84183e-09
2.84004e-09
-2.51917e-10
-8.12428e-09
4.9203e-09
8.07409e-09
-2.91749e-09
-7.84245e-09
-8.42626e-09
4.9103e-09
9.50092e-09
-6.95184e-10
3.43148e-10
5.90614e-09
6.1496e-09
-8.2138e-09
-6.01452e-09
5.6742e-09
-5.99339e-09
6.33389e-09
-6.95165e-09
2.42125e-10
5.14187e-09
-8.31115e-09
-1.53834e-09
1.21227e-08
6.79802e-09
-2.23339e-10
-1.55887e-09
-5.0156e-09
1.11659e-08
-5.50462e-09
-7.11926e-10
-7.31435e-09
-2.36573e-10
3.4071e-10
-9.54033e-11
7.30168e-11
1.27854e-10
-4.36305e-10
-1.13913e-10
1.1431e-10
-6.87404e-11
2.89889e-11
-1.99818e-10
-6.99199e-10
-8.7144e-10
1.77027e-09
4.69116e-10
-2.38938e-10
-4.30693e-10
-5.86359e-10
1.09452e-09
-9.22287e-10
-1.84207e-10
-4.02945e-09
-3.57208e-09
2.06536e-09
5.53816e-09
-4.641e-09
-1.31338e-09
1.92655e-09
6.48046e-10
-3.01201e-09
-4.05229e-09
5.97659e-11
-2.22744e-09
4.88741e-09
-4.23025e-09
1.60472e-10
2.22068e-09
-1.63654e-09
-4.63499e-09
-3.29231e-09
4.7968e-09
9.13539e-10
-9.237e-10
-2.90198e-11
-2.77051e-09
-1.429e-09
-1.95163e-09
-1.13041e-09
3.0565e-09
-1.2358e-10
-2.78437e-09
-4.53042e-09
4.91091e-09
1.29819e-09
-9.01384e-09
2.80484e-09
2.80672e-09
-3.872e-09
5.97615e-09
4.13573e-09
-6.30065e-09
3.46331e-09
-1.71982e-09
8.66231e-09
-4.59017e-09
7.801e-09
1.33212e-09
-4.54304e-09
4.38582e-09
-9.01676e-09
4.07281e-11
2.91353e-09
-6.94431e-09
-4.98312e-09
-8.66698e-10
-9.18236e-11
-4.81505e-09
-3.09438e-09
6.18961e-09
-8.33265e-10
6.93562e-09
1.69865e-09
3.78702e-09
-2.34479e-10
9.06362e-09
-2.69488e-09
-5.03669e-09
-2.29658e-10
2.35027e-09
2.53331e-09
-1.74092e-10
-5.35534e-09
6.55184e-09
-2.47602e-09
1.27951e-09
7.35188e-09
-3.75346e-09
-8.95379e-09
-5.88357e-09
6.29922e-09
6.13618e-09
1.49013e-09
-2.1857e-11
6.73593e-09
-7.67777e-09
1.05827e-09
-1.16433e-10
5.18918e-09
7.84595e-09
-2.39901e-09
1.00135e-08
-1.23447e-08
4.73017e-09
6.30106e-09
-1.24536e-08
-6.41191e-09
2.24234e-10
7.14564e-09
-7.64938e-09
1.562e-09
-4.27472e-09
1.66095e-08
-8.07786e-09
1.26814e-08
-8.87823e-09
3.13913e-09
-1.2035e-09
6.90959e-09
-7.02045e-09
2.39933e-09
-5.24451e-10
6.99059e-09
1.76933e-11
-6.4839e-09
8.36227e-09
-6.12718e-10
-8.27414e-09
1.90849e-09
-7.76338e-09
-1.56085e-09
7.41579e-09
1.11986e-08
-9.07706e-09
-2.13209e-10
-1.22677e-09
1.12133e-08
1.21207e-09
-1.02818e-08
3.05808e-09
-1.85337e-09
2.68053e-10
7.41032e-11
-1.0624e-08
1.83444e-09
-6.22719e-11
-1.11199e-08
9.34749e-09
-8.18065e-09
1.67278e-09
8.34226e-09
8.37773e-10
7.67662e-09
-1.52254e-10
7.29247e-09
5.35847e-10
-7.47759e-09
-1.03706e-08
9.08145e-09
-8.15607e-09
8.43465e-10
2.69918e-10
-8.35203e-09
6.2454e-09
-1.01806e-08
-7.18469e-09
-1.93129e-09
-3.99647e-12
-7.64408e-09
9.4141e-09
-9.73106e-11
-5.95797e-09
5.60632e-09
-2.12663e-10
-1.05235e-08
9.29046e-09
1.15549e-08
2.14239e-09
5.27324e-09
7.73761e-09
-3.72035e-09
1.2623e-08
1.1119e-08
-1.21872e-08
3.65038e-09
3.8968e-09
-1.45406e-08
1.04088e-08
-1.23955e-08
3.60556e-09
1.26866e-08
-1.65951e-09
6.87165e-10
6.49866e-10
-4.07164e-09
-8.36588e-09
-3.37991e-09
-7.96375e-09
1.27502e-08
6.65862e-09
1.39593e-10
-8.45813e-09
-6.28954e-09
1.02629e-08
-1.23394e-08
7.45426e-09
-1.86928e-08
4.94902e-09
8.95771e-09
2.63854e-09
1.48467e-10
4.99586e-09
-7.78296e-09
2.40191e-09
7.57538e-09
-7.33878e-09
-2.3414e-09
-2.663e-09
4.41207e-09
-6.60503e-09
-1.12386e-09
1.37053e-09
-2.66223e-10
-9.09878e-09
-2.29277e-09
5.6014e-09
-1.05173e-08
7.20913e-09
3.64934e-09
4.34049e-09
-1.02822e-08
2.11498e-09
-2.56637e-09
6.05295e-09
-3.61398e-09
-2.14257e-09
7.87181e-09
-5.86323e-09
4.84387e-09
-1.19515e-09
2.21477e-09
7.00308e-11
-2.92608e-09
-7.66112e-09
-4.74857e-09
4.78408e-09
2.72235e-09
4.26067e-09
-1.06259e-08
3.64314e-09
7.30867e-09
-1.04495e-08
2.27991e-09
-8.08198e-09
3.23592e-09
-5.43055e-09
5.56804e-09
7.45878e-09
-4.52148e-09
-2.86692e-09
-5.88553e-09
5.26243e-09
-8.76429e-09
8.44997e-09
5.15829e-09
3.88098e-09
-5.33644e-09
7.33582e-09
-7.59651e-09
2.34666e-09
-8.96083e-10
3.888e-09
-1.86531e-10
6.75454e-09
-5.26751e-10
5.21206e-09
-1.20769e-08
1.17781e-08
-1.00245e-08
-4.45308e-10
-1.21065e-08
-1.52107e-09
1.85158e-09
1.57936e-08
-3.599e-09
-1.48155e-08
2.62084e-09
-2.88913e-09
1.1423e-08
-6.9672e-09
-5.60004e-09
6.68785e-09
-8.59356e-09
1.05315e-10
-1.56532e-08
4.3654e-09
8.39871e-09
-1.83517e-08
-9.0054e-10
-2.27573e-10
-1.50334e-08
6.84545e-09
-6.97815e-09
-9.89765e-10
-2.3984e-09
6.50309e-10
-1.91975e-08
6.18151e-10
7.46036e-09
-1.01009e-08
2.42172e-10
6.22574e-09
1.09299e-09
6.78958e-09
-7.83971e-09
-4.28698e-11
7.74527e-09
-6.70991e-09
5.76609e-11
2.04455e-09
5.91218e-09
-7.75802e-09
-1.98778e-10
8.99003e-09
-6.92734e-09
-1.81503e-11
-2.03758e-11
7.13758e-09
-6.93929e-09
-1.77942e-10
8.91652e-09
-8.65536e-09
-2.81546e-10
-1.65693e-09
-1.59304e-10
1.26524e-09
-8.1604e-09
7.12913e-09
-2.34068e-10
8.31617e-09