/*--------------------------------*- C++ -*----------------------------------*\
| =========                 |                                                 |
| \\      /  F ield         | OpenFOAM: The Open Source CFD Toolbox           |
|  \\    /   O peration     | Version:  v1612+                                |
|   \\  /    A nd           | Web:      www.OpenFOAM.com                      |
|    \\/     M anipulation  |                                                 |
\*---------------------------------------------------------------------------*/
FoamFile
{
    version     2.0;
    format      ascii;
    class       volScalarField;
    location    "150";
    object      p;
}
// * * * * * * * * * * * * * * * * * * * * * * * * * * * * * * * * * * * * * //

dimensions      [0 2 -2 0 0 0 0];

internalField   nonuniform List<scalar> 
17049
(
0.104463
0.0769422
0.0765326
0.100169
0.164323
0.165663
0.166919
0.168548
0.163518
0.1583
0.159213
0.163373
0.1656
0.167459
0.167828
0.16393
0.167078
0.164438
0.166762
0.0797566
0.0817253
0.0822068
0.0852858
0.0813806
0.0815527
0.0861714
0.0860771
0.082892
0.0827297
0.0860795
0.0886215
0.0839447
0.085706
0.087934
0.0899459
0.0901907
0.153384
0.150127
0.147723
0.151517
0.149351
0.152266
0.14595
0.153137
0.152224
0.148688
0.150644
0.154017
0.151853
0.153786
0.151155
0.151919
0.152673
0.151062
0.155603
0.15172
0.163173
0.160125
0.167933
0.169612
0.167264
0.170098
0.165173
0.163048
0.168036
0.170811
0.167758
0.118845
0.118289
0.125049
0.119259
0.125078
0.120742
0.121426
0.121873
0.128827
0.121897
0.123143
0.121141
0.12905
0.125016
0.124446
0.12712
0.128786
0.124529
0.124517
0.129705
0.0763226
0.0744979
0.079668
0.0824018
0.076419
0.0722396
0.0787059
0.0746025
0.0771165
0.0695406
0.0737676
0.0745391
0.0774241
0.0750303
0.0744726
0.072191
0.0741987
0.0718043
0.0806032
0.072555
0.0709819
0.0731152
0.0732647
0.063607
0.069243
0.071784
0.071296
0.0733154
0.0796091
0.0833797
0.078689
0.0785094
0.0796396
0.080157
0.0817646
0.0837557
0.0780927
0.0769816
0.0810824
0.0799522
0.0763971
0.0747078
0.0739889
0.0743036
0.0750218
0.0745058
0.0768677
0.0795217
0.105874
0.1102
0.106266
0.104881
0.106553
0.0977056
0.101022
0.101981
0.102616
0.102637
0.102638
0.102939
0.102394
0.101394
0.100639
0.0843275
0.0827039
0.0798019
0.0717234
0.0800325
0.083864
0.0841065
0.0783167
0.0857382
0.083471
0.0864067
0.0804989
0.0783818
0.0797422
0.0813477
0.0808214
0.0743189
0.0716775
0.0807846
0.0826595
0.0799554
0.100501
0.100155
0.10372
0.106532
0.106876
0.0975817
0.0976705
0.0988258
0.105838
0.102436
0.103648
0.10432
0.097708
0.101107
0.101941
0.0927993
0.0941305
0.0984501
0.0976014
0.0978483
0.0975533
0.0925874
0.0969885
0.0951033
0.0976812
0.097175
0.0946713
0.100809
0.104912
0.0794527
0.0816086
0.0794278
0.0782106
0.0803107
0.0826151
0.0847316
0.0858139
0.0848013
0.0833162
0.0813169
0.0813705
0.0879233
0.0830318
0.08182
0.0862779
0.0768438
0.0834761
0.0838344
0.0826276
0.125729
0.128823
0.127196
0.126313
0.128153
0.126807
0.129218
0.123335
0.129687
0.126409
0.123657
0.127489
0.12959
0.131054
0.127732
0.12954
0.115273
0.120229
0.127901
0.0752644
0.0807424
0.0842924
0.0805901
0.0794806
0.0751402
0.0774117
0.0783848
0.0799848
0.0843797
0.0754696
0.145668
0.146715
0.142002
0.133899
0.137747
0.149323
0.146819
0.145916
0.146186
0.137874
0.141577
0.140219
0.141942
0.138217
0.13836
0.0915233
0.0929982
0.0911303
0.0893727
0.0905895
0.094279
0.0895802
0.0873791
0.0921013
0.0913913
0.0935515
0.0931519
0.0915373
0.0891029
0.0915788
0.0887521
0.0811587
0.0839786
0.093983
0.0927396
0.0869756
0.089326
0.0931554
0.0960303
0.134424
0.132105
0.144623
0.14449
0.149798
0.146295
0.133663
0.143912
0.134534
0.14997
0.141357
0.143556
0.133098
0.129836
0.139437
0.137411
0.140952
0.142967
0.136618
0.123468
0.124172
0.119349
0.123798
0.126749
0.12048
0.122508
0.124054
0.12163
0.122852
0.124024
0.157128
0.161151
0.164987
0.163624
0.166677
0.162332
0.159124
0.167027
0.164585
0.158345
0.160123
0.156279
0.162803
0.172656
0.16673
0.160364
0.168939
0.167901
0.160231
0.160966
0.115658
0.109308
0.109245
0.112576
0.113478
0.114634
0.110973
0.109847
0.111037
0.111976
0.11706
0.116223
0.114445
0.115565
0.111673
0.113347
0.108364
0.110788
0.108801
0.111663
0.113919
0.106146
0.106138
0.10358
0.104388
0.101701
0.106241
0.107112
0.111533
0.110748
0.105043
0.107669
0.108953
0.0918024
0.0858194
0.0915095
0.0910109
0.102074
0.0971784
0.0968773
0.101306
0.089535
0.0895637
0.0902483
0.0892166
0.09506
0.0924837
0.0939214
0.121115
0.12283
0.115759
0.117803
0.120846
0.118239
0.118804
0.121637
0.122496
0.116646
0.120718
0.118737
0.126372
0.130112
0.121614
0.126464
0.11712
0.123889
0.11987
0.119239
0.125101
0.119988
0.121172
0.123812
0.119441
0.121398
0.121297
0.122588
0.121612
0.123255
0.110127
0.103561
0.109497
0.109407
0.10698
0.105514
0.110379
0.111601
0.107447
0.109148
0.115212
0.111361
0.108609
0.101029
0.0958675
0.105379
0.106643
0.119227
0.119584
0.114354
0.116121
0.115004
0.12259
0.118559
0.110237
0.119841
0.115526
0.115841
0.120067
0.115244
0.105433
0.119959
0.158891
0.157648
0.157043
0.158637
0.157537
0.145169
0.149346
0.157435
0.153501
0.149679
0.155229
0.162536
0.154616
0.149789
0.151132
0.155877
0.151007
0.15198
0.150376
0.1528
0.119983
0.119366
0.114604
0.119643
0.114508
0.117494
0.12017
0.113575
0.115836
0.118445
0.117274
0.120727
0.120704
0.11711
0.111903
0.117059
0.116927
0.116299
0.117319
0.116231
0.118916
0.120502
0.112799
0.118165
0.117961
0.0818008
0.0841918
0.0791814
0.0722981
0.079834
0.0800112
0.0800911
0.077694
0.0764353
0.0771365
0.07612
0.077418
0.0753942
0.0771977
0.0798927
0.0752269
0.0741359
0.0767999
0.0818887
0.0820244
0.0773159
0.0739032
0.0815478
0.0780215
0.078724
0.0722021
0.0725408
0.076291
0.082501
0.0750711
0.0754041
0.0723005
0.0780941
0.0784461
0.077736
0.0733555
0.158211
0.157182
0.150362
0.147269
0.154948
0.152528
0.152987
0.147227
0.152634
0.153025
0.153397
0.156288
0.154966
0.158787
0.159267
0.160333
0.156553
0.158928
0.15779
0.160903
0.160703
0.143374
0.144563
0.139375
0.143813
0.139418
0.142198
0.143856
0.145135
0.146016
0.13851
0.144522
0.138536
0.143365
0.145085
0.14643
0.144784
0.143131
0.148623
0.0963425
0.0922117
0.094567
0.0984783
0.100106
0.0993599
0.0964369
0.0952591
0.100747
0.0979684
0.100507
0.100362
0.0960865
0.0997247
0.100423
0.0910034
0.0943399
0.0966458
0.144511
0.1453
0.149464
0.144152
0.150427
0.149154
0.145653
0.143889
0.147765
0.145636
0.143267
0.135937
0.153379
0.150268
0.142099
0.147193
0.14451
0.149866
0.140955
0.144261
0.149304
0.144964
0.147831
0.145368
0.159945
0.159064
0.1605
0.160053
0.165013
0.16487
0.165951
0.162418
0.166781
0.163615
0.165483
0.165289
0.124376
0.129739
0.128771
0.129999
0.12898
0.121645
0.122301
0.124642
0.127121
0.130478
0.134535
0.130938
0.129189
0.126356
0.129577
0.130958
0.124157
0.0796436
0.0721581
0.0733884
0.0739164
0.0703655
0.0754258
0.0727381
0.0704917
0.0773949
0.0776677
0.0727753
0.123408
0.122086
0.122882
0.126129
0.128258
0.122441
0.128246
0.127121
0.125065
0.120849
0.124833
0.128375
0.123019
0.127442
0.128066
0.122565
0.122479
0.125687
0.126046
0.128561
0.112331
0.116029
0.105133
0.104872
0.115763
0.115872
0.112838
0.112855
0.113364
0.107381
0.107564
0.112028
0.111625
0.112671
0.114116
0.117495
0.11457
0.112189
0.116626
0.114264
0.115604
0.110472
0.111644
0.103888
0.104723
0.10448
0.112971
0.112493
0.105084
0.11213
0.109862
0.10489
0.10825
0.111008
0.111727
0.110058
0.109108
0.107185
0.109975
0.114142
0.114116
0.0842077
0.0766707
0.080929
0.0757402
0.0752102
0.0786911
0.0745608
0.0773967
0.0761959
0.0776571
0.0831091
0.085913
0.0810563
0.0783963
0.0876963
0.0766034
0.077068
0.0782815
0.0773799
0.0775318
0.0805176
0.0837106
0.0852441
0.0843623
0.0859476
0.0751516
0.0798791
0.083313
0.0861067
0.0891524
0.0874437
0.0781956
0.0872409
0.0813495
0.0827485
0.0827975
0.0820102
0.0790034
0.0821311
0.0864358
0.118559
0.112123
0.111724
0.114106
0.116657
0.11777
0.113081
0.110456
0.118676
0.112796
0.11642
0.11736
0.106984
0.109046
0.114057
0.114274
0.121878
0.12098
0.121718
0.124359
0.122303
0.127657
0.120312
0.127653
0.132269
0.128956
0.129987
0.122411
0.128122
0.125708
0.122433
0.122265
0.127916
0.130503
0.131727
0.12623
0.132014
0.128373
0.162948
0.15906
0.159047
0.158747
0.162207
0.159852
0.15959
0.162692
0.160802
0.16163
0.164379
0.156676
0.154226
0.163318
0.167835
0.164613
0.161726
0.169846
0.168049
0.165456
0.162643
0.161122
0.162245
0.164768
0.161985
0.164492
0.164108
0.159594
0.161537
0.118158
0.115362
0.11342
0.1122
0.118019
0.113196
0.115211
0.123421
0.115874
0.118045
0.116181
0.121082
0.119423
0.118432
0.114436
0.116146
0.110764
0.110303
0.114623
0.107549
0.112723
0.112479
0.11936
0.118948
0.109789
0.106897
0.109231
0.113064
0.108517
0.109766
0.114693
0.11313
0.10513
0.109546
0.109195
0.106512
0.104414
0.10048
0.104402
0.108833
0.108338
0.108177
0.105088
0.10605
0.106355
0.108412
0.108765
0.109952
0.106041
0.106466
0.110815
0.104088
0.108265
0.100186
0.102999
0.106495
0.137647
0.138123
0.138235
0.14015
0.137934
0.135437
0.140647
0.139632
0.141309
0.139832
0.145928
0.145705
0.146674
0.141577
0.141968
0.143762
0.145203
0.13776
0.145059
0.140286
0.145037
0.135341
0.137985
0.145176
0.149772
0.137118
0.135
0.141315
0.143711
0.136219
0.163288
0.1649
0.160963
0.169113
0.168164
0.166685
0.168185
0.156175
0.165376
0.168436
0.163481
0.166007
0.163934
0.166792
0.164897
0.168984
0.167846
0.150436
0.149432
0.151966
0.147394
0.152792
0.153541
0.14768
0.148073
0.148008
0.152792
0.155542
0.151274
0.153501
0.152732
0.149583
0.12709
0.127306
0.123564
0.137308
0.133901
0.179429
0.174819
0.0929659
0.0893215
0.0791347
0.0805317
0.0976532
0.101056
0.157816
0.158972
0.149242
0.152472
0.140056
0.101263
0.10585
0.117995
0.123482
0.120753
0.135498
0.131929
0.136466
0.104548
0.122145
0.118785
0.136701
0.145147
0.140799
0.149435
0.132116
0.124911
0.120373
0.147059
0.143438
0.130681
0.124978
0.106582
0.110494
0.114057
0.0794859
0.0856163
0.0832544
0.0867754
0.173856
0.170731
0.159075
0.0881688
0.092967
0.0909947
0.0987815
0.0893245
0.0902489
0.0965008
0.157471
0.1552
0.15098
0.114114
0.113594
0.138911
0.144779
0.144756
0.148404
0.0864397
0.0934405
0.0931417
0.101489
0.103277
0.0986565
0.105183
0.103724
0.0839823
0.0827607
0.0911066
0.165214
0.161311
0.163141
0.153335
0.15171
0.132832
0.133968
0.135556
0.138886
0.133194
0.138142
0.102743
0.108054
0.106512
0.145357
0.139929
0.144617
0.10318
0.106768
0.111307
0.153897
0.149609
0.155705
0.161144
0.168637
0.167203
0.159198
0.173394
0.12611
0.1233
0.11721
0.160962
0.158772
0.151976
0.119152
0.118569
0.085384
0.0855382
0.0926323
0.0978089
0.105089
0.106928
0.104409
0.112129
0.112171
0.116416
0.11129
0.115597
0.0951675
0.0916217
0.090199
0.11693
0.114906
0.143978
0.145709
0.15091
0.0934724
0.0943384
0.126049
0.122114
0.0958959
0.09505
0.146569
0.141566
0.142264
0.10974
0.10724
0.107752
0.110091
0.0803924
0.084531
0.0818975
0.0866145
0.0910447
0.0962617
0.0780356
0.0909317
0.0824992
0.0878786
0.096608
0.10095
0.09212
0.103159
0.0970324
0.0943428
0.0888454
0.0921733
0.0881766
0.0974549
0.0919315
0.0937741
0.0930474
0.099417
0.0948694
0.0836641
0.0905677
0.0903274
0.0891818
0.0912893
0.087661
0.0813316
0.0838264
0.0770275
0.0825589
0.0777518
0.0776444
0.0908702
0.0883884
0.0791011
0.0879279
0.0938019
0.0840787
0.0825463
0.0795507
0.0868476
0.0806794
0.0804425
0.0808479
0.101255
0.107066
0.102671
0.105342
0.114764
0.111359
0.098714
0.107217
0.10326
0.111988
0.121171
0.114861
0.108129
0.108541
0.107323
0.109755
0.109021
0.112811
0.110198
0.114754
0.111168
0.110925
0.110061
0.113486
0.110003
0.107177
0.109285
0.106015
0.106757
0.105236
0.0961392
0.0963333
0.102284
0.103751
0.0935121
0.107472
0.10522
0.103825
0.104965
0.145696
0.143503
0.144536
0.1387
0.145575
0.13872
0.145291
0.142855
0.137908
0.135427
0.14162
0.144812
0.141565
0.140242
0.149187
0.147653
0.146991
0.151682
0.145393
0.147205
0.137546
0.142194
0.139346
0.140189
0.139847
0.139184
0.146909
0.142258
0.139485
0.151671
0.143083
0.146788
0.144275
0.145266
0.142455
0.0881914
0.0898898
0.0862224
0.0910737
0.0849099
0.0835134
0.0913817
0.0897922
0.0928789
0.0919587
0.0823855
0.0884189
0.0979565
0.0968355
0.0924703
0.0883285
0.0887925
0.0990523
0.0876917
0.0880974
0.0964712
0.0936427
0.095243
0.0965458
0.0941811
0.0921676
0.104027
0.102386
0.0933297
0.091629
0.0988478
0.0955321
0.0947329
0.123409
0.129732
0.125895
0.123312
0.118628
0.129053
0.136568
0.133528
0.131277
0.131649
0.120346
0.124083
0.130968
0.135348
0.127606
0.128312
0.119916
0.131567
0.13004
0.12176
0.12549
0.122394
0.119857
0.122907
0.123614
0.124711
0.130818
0.10371
0.10001
0.0992496
0.0840098
0.0846142
0.0942919
0.0992051
0.08955
0.0943598
0.0980384
0.0951034
0.0993293
0.10627
0.0912622
0.0968634
0.100998
0.0925564
0.0943529
0.0983221
0.101157
0.0867001
0.093919
0.0895714
0.0930741
0.0868633
0.0872094
0.0969769
0.0973569
0.0960726
0.099378
0.0940503
0.0974915
0.0934289
0.0892923
0.0950054
0.0956942
0.0962438
0.0888804
0.0909346
0.0902189
0.0892395
0.0875846
0.0958437
0.0970364
0.0921348
0.0932939
0.0950561
0.156854
0.152265
0.147764
0.152207
0.143505
0.146976
0.1365
0.144033
0.140776
0.144006
0.142477
0.151457
0.145192
0.146362
0.148872
0.13818
0.145792
0.144229
0.134788
0.144408
0.143491
0.138047
0.142656
0.142212
0.142371
0.141867
0.137528
0.136557
0.141595
0.137943
0.138115
0.141678
0.116272
0.102469
0.116524
0.112659
0.113773
0.111553
0.119925
0.111881
0.117276
0.114589
0.112642
0.115133
0.117505
0.112574
0.111322
0.111053
0.113025
0.122505
0.114468
0.11593
0.113036
0.114429
0.113003
0.110528
0.123045
0.115394
0.109881
0.111903
0.119259
0.120989
0.101915
0.0984699
0.0963395
0.0929422
0.09435
0.0837042
0.0828694
0.0886799
0.0801075
0.0891301
0.0928421
0.0943314
0.0935335
0.0985378
0.093049
0.094529
0.0930724
0.0935762
0.0975927
0.0951701
0.0881456
0.0909421
0.123901
0.119184
0.122437
0.11375
0.113137
0.103208
0.118227
0.118357
0.121483
0.117797
0.111436
0.121796
0.121205
0.117626
0.114626
0.118491
0.116843
0.115958
0.113205
0.107154
0.111671
0.112892
0.112931
0.111404
0.109228
0.117596
0.16656
0.163981
0.164559
0.169105
0.165932
0.165611
0.168587
0.159043
0.0787978
0.113119
0.109358
0.109618
0.110711
0.114266
0.108791
0.120185
0.108831
0.11211
0.118306
0.111017
0.112201
0.0986585
0.109731
0.108265
0.0984258
0.0978356
0.108312
0.109269
0.105604
0.106184
0.0996062
0.102994
0.0985143
0.0930289
0.0903525
0.0957993
0.0943342
0.0982287
0.0999662
0.0962423
0.0941259
0.0980196
0.099661
0.0824865
0.0851636
0.130707
0.128101
0.12619
0.122883
0.120363
0.119861
0.123589
0.122121
0.114884
0.113758
0.149836
0.155813
0.15303
0.168273
0.160337
0.152809
0.154041
0.155089
0.158199
0.168993
0.1682
0.159275
0.16299
0.15523
0.159263
0.15849
0.12029
0.127069
0.120886
0.113431
0.113501
0.122916
0.113957
0.115173
0.116738
0.121883
0.113859
0.115673
0.116321
0.131128
0.125846
0.12264
0.1225
0.124163
0.125141
0.130696
0.12482
0.122109
0.12244
0.160939
0.169732
0.170162
0.166983
0.171326
0.163122
0.170895
0.161334
0.16134
0.162529
0.156246
0.173957
0.168838
0.167356
0.145224
0.159915
0.15797
0.159466
0.164184
0.15051
0.16048
0.1686
0.166443
0.165901
0.167242
0.168605
0.170796
0.161073
0.157772
0.155934
0.175307
0.174123
0.171384
0.166157
0.162964
0.161842
0.164032
0.156211
0.166582
0.157159
0.152277
0.158118
0.155693
0.158851
0.163076
0.154323
0.158155
0.159808
0.169599
0.161349
0.15781
0.153651
0.156895
0.155292
0.156972
0.161388
0.154698
0.155637
0.159374
0.154824
0.155111
0.1579
0.156994
0.144989
0.155858
0.098041
0.100844
0.0999823
0.106293
0.117029
0.112052
0.113583
0.105293
0.105723
0.108843
0.107574
0.103875
0.101961
0.107256
0.105318
0.108658
0.105325
0.104116
0.103736
0.101872
0.103883
0.105662
0.103734
0.104417
0.112405
0.108694
0.107298
0.110083
0.106702
0.101273
0.108175
0.104655
0.100512
0.103659
0.10204
0.104246
0.143736
0.146173
0.134051
0.13187
0.13511
0.137306
0.128587
0.134616
0.135297
0.153767
0.151355
0.153074
0.142911
0.144818
0.143236
0.144612
0.140964
0.145256
0.132219
0.141983
0.14057
0.135801
0.132244
0.137453
0.13962
0.073214
0.0764989
0.0708133
0.0686111
0.115273
0.108398
0.104551
0.116781
0.112169
0.110232
0.109109
0.100669
0.102585
0.102817
0.104135
0.0996419
0.102592
0.0983924
0.10281
0.104197
0.110152
0.109266
0.100391
0.101788
0.101065
0.0976016
0.0863684
0.0787901
0.0769488
0.0728908
0.139716
0.137574
0.135294
0.146334
0.145506
0.135488
0.138562
0.145591
0.140683
0.141248
0.138412
0.136768
0.134904
0.14297
0.1389
0.130978
0.133934
0.134183
0.143098
0.138572
0.139443
0.136456
0.139219
0.13594
0.128732
0.129956
0.127896
0.133878
0.134788
0.133964
0.135213
0.138787
0.127306
0.132335
0.130001
0.130133
0.12613
0.128271
0.124025
0.140449
0.144115
0.134775
0.131528
0.134726
0.130228
0.136731
0.129188
0.123173
0.132278
0.134297
0.161673
0.163095
0.158189
0.150809
0.154997
0.152319
0.153132
0.156942
0.154823
0.155624
0.159364
0.157633
0.153349
0.156625
0.155184
0.155158
0.155123
0.153828
0.157388
0.157153
0.149992
0.146641
0.144739
0.147488
0.145594
0.151365
0.153349
0.149385
0.152696
0.152664
0.152173
0.14726
0.149133
0.150085
0.149161
0.148405
0.149692
0.149195
0.145418
0.152617
0.151682
0.15339
0.151703
0.149317
0.150996
0.152519
0.162785
0.148715
0.160373
0.155796
0.161987
0.150937
0.153489
0.156537
0.158377
0.158687
0.162913
0.153934
0.15371
0.162749
0.161931
0.0818441
0.0812958
0.0776798
0.0740187
0.072955
0.0747218
0.0745585
0.0748294
0.0725008
0.0728925
0.0763452
0.0702469
0.07263
0.0728686
0.0787395
0.0766853
0.0948281
0.0852829
0.0844801
0.0888445
0.0874326
0.0920058
0.0909032
0.0815664
0.0836711
0.0859941
0.0919547
0.0894765
0.0786194
0.0816362
0.0822208
0.072758
0.0774134
0.0832654
0.0802897
0.0826805
0.0824954
0.0864108
0.0860118
0.0833101
0.0815183
0.0815175
0.0825812
0.0854402
0.109088
0.105387
0.104367
0.102698
0.10755
0.0979937
0.102993
0.101708
0.107802
0.105529
0.105579
0.108678
0.109551
0.0887112
0.100167
0.101869
0.102744
0.0989353
0.0995031
0.0981349
0.0994287
0.0972588
0.0965775
0.100654
0.101024
0.0957593
0.0934361
0.103269
0.105015
0.109794
0.107574
0.10621
0.103878
0.0930484
0.0906781
0.0924975
0.0965972
0.100728
0.103871
0.0955149
0.092886
0.0995231
0.0992652
0.101798
0.0985462
0.0856555
0.0932958
0.0897718
0.0844028
0.0828019
0.0842124
0.0958324
0.0926041
0.0902873
0.0954457
0.0952093
0.101603
0.0971372
0.0975717
0.101304
0.0957428
0.101453
0.0992693
0.0909721
0.0887286
0.0865529
0.0916479
0.0887581
0.0951935
0.0916534
0.0912718
0.0935938
0.0912585
0.0973188
0.153169
0.144789
0.146608
0.146859
0.143914
0.146178
0.144337
0.133896
0.149387
0.150164
0.140154
0.140713
0.144261
0.138652
0.137297
0.136
0.139725
0.142571
0.137407
0.141054
0.135642
0.1433
0.151123
0.142333
0.139299
0.154579
0.148502
0.147823
0.145544
0.125824
0.122077
0.11997
0.121239
0.118548
0.121476
0.118821
0.11785
0.121415
0.116537
0.113929
0.120254
0.114759
0.115292
0.118034
0.158945
0.158461
0.155337
0.154418
0.157838
0.15997
0.154967
0.153261
0.155084
0.146082
0.149473
0.146334
0.150826
0.148709
0.148553
0.153694
0.152907
0.145543
0.143848
0.147852
0.148129
0.148552
0.146206
0.145573
0.0970673
0.0925616
0.100138
0.0989273
0.101899
0.0923982
0.0952696
0.0967839
0.097906
0.0945018
0.101146
0.0900712
0.0901521
0.0879273
0.0879821
0.0905917
0.0895832
0.0833125
0.0794981
0.0849998
0.0870377
0.0872029
0.0861756
0.0867845
0.177603
0.175096
0.173122
0.169414
0.168613
0.169429
0.172629
0.172574
0.17721
0.172961
0.164984
0.163799
0.172616
0.0786229
0.0805507
0.0834784
0.0837459
0.0895207
0.0953738
0.0817727
0.0848098
0.084757
0.0767823
0.0796986
0.0777684
0.081055
0.0762272
0.079917
0.0822964
0.119994
0.111464
0.109401
0.117787
0.100224
0.109257
0.101784
0.0978538
0.104222
0.0979066
0.108618
0.101486
0.107253
0.111046
0.111066
0.103235
0.106234
0.109558
0.13213
0.125392
0.125451
0.138102
0.132218
0.137129
0.123299
0.133571
0.128183
0.132041
0.131816
0.125827
0.128532
0.131194
0.131547
0.139122
0.135013
0.135204
0.13179
0.129499
0.132432
0.1505
0.151323
0.158769
0.149032
0.154223
0.149835
0.150367
0.144047
0.147734
0.156035
0.149538
0.151069
0.158256
0.150074
0.152774
0.147402
0.153564
0.156032
0.151801
0.152025
0.140658
0.139731
0.152777
0.149412
0.117577
0.120877
0.120752
0.122116
0.126272
0.122539
0.124069
0.123417
0.125023
0.151032
0.148903
0.148553
0.145805
0.139576
0.137462
0.130294
0.121713
0.128813
0.131675
0.130459
0.135884
0.133629
0.13775
0.134602
0.132999
0.138061
0.145233
0.14465
0.136041
0.13578
0.136334
0.135929
0.130627
0.131405
0.13222
0.131376
0.128718
0.117391
0.120333
0.126034
0.120386
0.123036
0.124893
0.125996
0.115923
0.117381
0.124027
0.12219
0.116084
0.118498
0.113671
0.117673
0.118203
0.118114
0.116614
0.114012
0.104591
0.0961215
0.106048
0.111188
0.111893
0.109821
0.107821
0.10829
0.102325
0.111035
0.107702
0.111007
0.110768
0.107947
0.105462
0.105205
0.101077
0.0979817
0.105921
0.104147
0.105754
0.152689
0.161894
0.153519
0.151812
0.148954
0.140032
0.146999
0.143598
0.142125
0.13896
0.138222
0.13819
0.138287
0.151716
0.146896
0.146781
0.14544
0.145917
0.151938
0.145302
0.173063
0.169117
0.162544
0.165711
0.160176
0.169785
0.161311
0.15435
0.153784
0.159885
0.153748
0.153471
0.152402
0.156582
0.165432
0.162395
0.157035
0.15684
0.158322
0.160586
0.161079
0.165464
0.163209
0.151622
0.15573
0.150086
0.157789
0.161648
0.0987574
0.107615
0.105462
0.10045
0.0975307
0.111361
0.106934
0.108948
0.110606
0.164305
0.16742
0.164288
0.168217
0.166585
0.165649
0.0771779
0.0690107
0.0875441
0.0863616
0.088628
0.0778838
0.0741426
0.0792577
0.0822119
0.0762857
0.0731577
0.0782758
0.0786898
0.0807181
0.0801036
0.0927789
0.086035
0.0916102
0.0903794
0.0981971
0.0940886
0.0909007
0.0913923
0.0874176
0.0931287
0.0932675
0.171281
0.172824
0.176818
0.161754
0.161468
0.164619
0.165527
0.177334
0.171584
0.175197
0.174553
0.169272
0.162004
0.160781
0.160064
0.174889
0.170785
0.1733
0.171632
0.168741
0.168984
0.131306
0.128022
0.135828
0.12718
0.134071
0.12221
0.133286
0.13278
0.130414
0.129229
0.130752
0.140266
0.13376
0.13056
0.129281
0.127522
0.13679
0.128118
0.132689
0.135774
0.136061
0.144361
0.13582
0.130578
0.138233
0.134656
0.133691
0.139601
0.137117
0.133632
0.138028
0.134411
0.129733
0.13365
0.132218
0.136728
0.139704
0.141005
0.138991
0.134206
0.137073
0.120293
0.121557
0.120353
0.12691
0.125723
0.124377
0.117783
0.0783057
0.0847266
0.0740945
0.0757228
0.0741037
0.0788022
0.110262
0.112602
0.114034
0.121429
0.121791
0.117113
0.119133
0.119649
0.121192
0.116783
0.113747
0.11749
0.119004
0.116644
0.112343
0.111464
0.124785
0.123227
0.12105
0.132643
0.137562
0.128049
0.127473
0.171604
0.16603
0.16229
0.165007
0.173186
0.168474
0.167079
0.16296
0.161069
0.164008
0.167225
0.164685
0.166098
0.162557
0.167043
0.100479
0.102252
0.098787
0.0973435
0.0932569
0.099139
0.0982833
0.100119
0.0962423
0.102348
0.0896581
0.0878066
0.0771376
0.0800862
0.0849585
0.0795635
0.0794874
0.0867547
0.0822856
0.0812148
0.0742663
0.158536
0.163723
0.161063
0.161582
0.162863
0.162613
0.16426
0.17458
0.168417
0.166751
0.162259
0.173326
0.172813
0.170927
0.166547
0.132962
0.133201
0.136706
0.134571
0.132077
0.134026
0.135689
0.1327
0.136626
0.133603
0.130481
0.135595
0.130489
0.133342
0.1298
0.130983
0.128005
0.133964
0.131471
0.127556
0.1289
0.129051
0.132183
0.132697
0.135936
0.130643
0.129958
0.133315
0.131141
0.131662
0.131392
0.143005
0.139683
0.136788
0.142359
0.141714
0.13706
0.138417
0.13823
0.138169
0.135667
0.135476
0.163129
0.157919
0.156233
0.156901
0.158404
0.165325
0.162868
0.16305
0.162356
0.156971
0.159431
0.155083
0.152027
0.16189
0.153085
0.156675
0.153863
0.150964
0.135939
0.142424
0.134703
0.133256
0.138149
0.142723
0.150505
0.149528
0.141993
0.144593
0.150062
0.14846
0.147567
0.14123
0.138816
0.12069
0.120035
0.11679
0.116932
0.127968
0.121992
0.121477
0.127312
0.134929
0.133095
0.129004
0.130368
0.129836
0.127925
0.125776
0.129207
0.120566
0.116373
0.123171
0.120433
0.125536
0.125461
0.1239
0.122729
0.122607
0.127106
0.121188
0.112444
0.116467
0.114873
0.110169
0.110933
0.105055
0.105195
0.109429
0.111889
0.104597
0.107037
0.126869
0.126155
0.111249
0.120699
0.120909
0.127182
0.124312
0.125013
0.127537
0.122021
0.117519
0.115371
0.120542
0.0757406
0.0742211
0.0753311
0.0795064
0.0782499
0.0840165
0.173306
0.167195
0.165554
0.165428
0.167303
0.173053
0.163069
0.15121
0.159378
0.163014
0.169777
0.16762
0.163421
0.0784895
0.0947575
0.0938876
0.0859688
0.0811854
0.0804722
0.088656
0.0905135
0.0826384
0.0835582
0.0874333
0.0853266
0.0862326
0.159984
0.163433
0.163524
0.161063
0.158921
0.1499
0.150974
0.143867
0.14978
0.147049
0.143272
0.140659
0.140751
0.136662
0.143875
0.140156
0.136955
0.132431
0.158312
0.150995
0.155289
0.150009
0.156756
0.0975334
0.0959317
0.0964096
0.0955394
0.0958709
0.102249
0.100194
0.100768
0.102289
0.0996679
0.102564
0.0770802
0.0781171
0.0780511
0.0804478
0.077979
0.0718416
0.0791194
0.081089
0.156133
0.164111
0.158653
0.157879
0.161531
0.159379
0.160191
0.161688
0.144397
0.146021
0.126003
0.128011
0.135933
0.135273
0.128789
0.130255
0.128713
0.130036
0.132452
0.131604
0.133895
0.136204
0.137685
0.13807
0.132803
0.134708
0.0807641
0.0891965
0.0835662
0.0854536
0.0830128
0.11346
0.110503
0.108307
0.104315
0.114859
0.109421
0.111585
0.1052
0.107281
0.108119
0.112196
0.11009
0.107587
0.108361
0.108738
0.106559
0.103987
0.110789
0.110642
0.077086
0.073273
0.0704645
0.0753493
0.0726959
0.06956
0.0714945
0.0749384
0.0743153
0.0728678
0.0746376
0.080201
0.0753338
0.0799093
0.0784853
0.0771667
0.078202
0.0761473
0.0773222
0.135825
0.141062
0.135966
0.139597
0.13941
0.133197
0.139471
0.134482
0.134248
0.135998
0.138035
0.149296
0.14758
0.150472
0.145583
0.145469
0.144059
0.147393
0.147019
0.149516
0.147753
0.131252
0.131125
0.131294
0.131266
0.128865
0.126124
0.129805
0.127412
0.130249
0.12984
0.130877
0.130193
0.135347
0.135189
0.13532
0.141587
0.136497
0.146123
0.143452
0.149934
0.145624
0.142097
0.147226
0.15152
0.14714
0.147641
0.142513
0.14552
0.113549
0.112187
0.114942
0.109089
0.107699
0.109818
0.109093
0.104699
0.112147
0.11508
0.11075
0.150781
0.146103
0.145556
0.149379
0.152443
0.155491
0.153467
0.162237
0.155702
0.156541
0.156901
0.157614
0.160853
0.161656
0.157386
0.155013
0.157569
0.159831
0.159415
0.159429
0.157801
0.162759
0.162965
0.16386
0.163004
0.149206
0.154557
0.144249
0.147879
0.152798
0.150976
0.152238
0.157061
0.151242
0.149464
0.151036
0.158179
0.162205
0.168806
0.170429
0.167916
0.165632
0.169237
0.162683
0.166631
0.153123
0.163261
0.160129
0.155001
0.1576
0.16003
0.153422
0.161801
0.164817
0.156677
0.155397
0.152694
0.157663
0.160337
0.158636
0.15943
0.124135
0.118211
0.120165
0.118318
0.119979
0.119481
0.116119
0.112989
0.122137
0.120081
0.116082
0.118715
0.144458
0.148248
0.155062
0.146189
0.147546
0.149073
0.149361
0.151815
0.142913
0.0823944
0.0810903
0.162782
0.163297
0.158148
0.157555
0.15628
0.150715
0.155616
0.160658
0.162146
0.157211
0.156243
0.111565
0.121699
0.114309
0.11635
0.113026
0.116087
0.115512
0.120032
0.112678
0.086693
0.0883833
0.0894989
0.0902314
0.0837748
0.0851313
0.0925854
0.0870015
0.0818642
0.0745525
0.0753864
0.0793589
0.0781119
0.0793332
0.124309
0.1228
0.117862
0.13865
0.141576
0.141174
0.146177
0.137689
0.137997
0.14381
0.144588
0.149766
0.142562
0.144332
0.140266
0.143464
0.146346
0.141248
0.140534
0.140017
0.155606
0.153351
0.145315
0.149612
0.155171
0.152545
0.146572
0.153658
0.16848
0.158579
0.148425
0.161115
0.162728
0.15581
0.152891
0.152027
0.161158
0.154151
0.0846838
0.0882976
0.0837314
0.0867399
0.0807657
0.0850812
0.0802333
0.0802103
0.0806624
0.0988555
0.0933108
0.0946109
0.104095
0.106932
0.103171
0.102322
0.0992163
0.100479
0.0990198
0.119304
0.126811
0.117371
0.120257
0.124076
0.117046
0.112671
0.116522
0.118745
0.120569
0.113929
0.128777
0.127771
0.125493
0.133049
0.131879
0.132784
0.130196
0.139282
0.139906
0.13227
0.135959
0.135027
0.135672
0.130949
0.136959
0.133235
0.17035
0.167266
0.167454
0.171381
0.170333
0.0990527
0.102244
0.100615
0.0992096
0.0955244
0.0935442
0.0953536
0.0964012
0.097466
0.0984149
0.102838
0.107446
0.106564
0.100261
0.0989885
0.102147
0.0984039
0.100714
0.106422
0.106291
0.10378
0.104123
0.106458
0.103556
0.0937012
0.0980944
0.0955858
0.0986646
0.102271
0.10271
0.102896
0.0965001
0.0970292
0.0951098
0.0994829
0.0960124
0.0812921
0.0814032
0.0784459
0.0837592
0.0767912
0.0782301
0.0814912
0.0825817
0.0871269
0.0888654
0.0907067
0.0823292
0.0804335
0.0820257
0.0831957
0.083912
0.0820199
0.0825543
0.0888207
0.0870671
0.0900972
0.0881182
0.0907088
0.0770202
0.0779263
0.0740408
0.0858402
0.080466
0.0784266
0.0820082
0.0760594
0.0791616
0.0784401
0.0797681
0.0774248
0.0811118
0.0804966
0.0881191
0.0850547
0.0805507
0.0747715
0.0728613
0.0738844
0.0750579
0.0831195
0.0827341
0.0818013
0.079299
0.074363
0.0735375
0.0735607
0.0769835
0.075527
0.0759711
0.0722149
0.0712439
0.0736848
0.077558
0.0739256
0.0798836
0.0775091
0.0790902
0.0767592
0.0889735
0.0884571
0.0850822
0.0916078
0.0859422
0.0882766
0.0906042
0.0875912
0.0917959
0.0908748
0.165892
0.170148
0.172056
0.168937
0.168639
0.16197
0.163918
0.165862
0.168147
0.16749
0.166675
0.122533
0.121584
0.122137
0.123839
0.120915
0.129632
0.127119
0.124366
0.125583
0.123448
0.12691
0.0786283
0.0826378
0.0752236
0.0781427
0.0802026
0.0807735
0.164207
0.16532
0.165703
0.167735
0.161223
0.162964
0.165271
0.153815
0.161952
0.164104
0.15061
0.145873
0.145002
0.145544
0.145648
0.149747
0.13957
0.143804
0.144366
0.134757
0.131013
0.137447
0.134382
0.133272
0.129317
0.133326
0.128193
0.136022
0.13665
0.129847
0.13142
0.154193
0.157165
0.156744
0.15424
0.155164
0.159354
0.156481
0.159464
0.154962
0.157129
0.157674
0.157673
0.159125
0.158114
0.157188
0.15936
0.159546
0.175783
0.177683
0.171495
0.165125
0.177162
0.177984
0.171848
0.164255
0.172553
0.174416
0.0723769
0.068789
0.0757918
0.0744483
0.0763795
0.0655969
0.067917
0.0788339
0.0756638
0.0760949
0.0722359
0.0886863
0.087791
0.0829063
0.0817377
0.0872035
0.0855265
0.0861363
0.0911379
0.0892796
0.0873655
0.0888368
0.0876547
0.102396
0.101801
0.109618
0.104583
0.101062
0.107417
0.100254
0.113795
0.109528
0.107452
0.108832
0.10921
0.104097
0.103857
0.103476
0.11079
0.108994
0.104417
0.110242
0.108718
0.107266
0.109125
0.108693
0.0924537
0.0945921