/*--------------------------------*- C++ -*----------------------------------*\
| =========                 |                                                 |
| \\      /  F ield         | OpenFOAM: The Open Source CFD Toolbox           |
|  \\    /   O peration     | Version:  v1612+                                |
|   \\  /    A nd           | Web:      www.OpenFOAM.com                      |
|    \\/     M anipulation  |                                                 |
\*---------------------------------------------------------------------------*/
FoamFile
{
    version     2.0;
    format      ascii;
    class       surfaceScalarField;
    location    "150";
    object      phi;
}
// * * * * * * * * * * * * * * * * * * * * * * * * * * * * * * * * * * * * * //

dimensions      [0 3 -1 0 0 0 0];

internalField   nonuniform List<scalar> 
37506
(
-8.37825e-09
4.52939e-09
8.92379e-09
-5.07492e-09
1.13495e-09
-1.44994e-09
-5.32142e-09
-5.41324e-09
1.36872e-09
4.944e-09
-8.99477e-10
-1.12382e-08
-3.4973e-09
1.24546e-08
2.28082e-09
1.16735e-09
2.19712e-09
-4.72032e-09
1.35581e-09
-5.96404e-09
3.47494e-09
3.65647e-09
3.59657e-09
5.80975e-09
-4.54928e-10
3.7008e-09
2.7963e-09
-3.33691e-09
2.73776e-09
-1.6252e-09
7.89644e-09
7.48119e-09
-5.17266e-09
3.50124e-09
-5.90602e-09
1.1762e-08
7.97212e-09
-7.86146e-09
-5.28329e-09
-3.20594e-10
2.3867e-09
5.27292e-10
-1.48674e-09
-4.76768e-09
1.11018e-09
2.41676e-09
3.20219e-09
-2.28293e-09
5.90749e-10
-1.03819e-09
-1.04622e-08
-1.4362e-08
2.46291e-08
1.9508e-10
-2.07391e-08
-4.89859e-11
1.03259e-08
2.68378e-09
1.43699e-08
-1.54746e-08
-1.57903e-09
-1.8262e-08
2.0664e-10
-1.85748e-08
9.24878e-09
9.27711e-09
-1.38691e-08
1.38771e-08
-1.01278e-08
2.12382e-09
-1.02579e-08
2.40178e-08
-1.39664e-08
-1.63423e-08
6.29086e-09
7.08605e-09
1.44888e-09
1.5483e-08
-2.53079e-09
-2.92168e-09
-1.17518e-08
1.72043e-08
8.65608e-09
-5.52384e-09
-1.32601e-08
-1.26032e-10
-6.69252e-09
-8.02354e-09
-8.42748e-09
-1.24698e-08
-3.93007e-09
-7.09086e-09
-5.50497e-09
2.83766e-09
-1.54524e-08
-8.6154e-09
-1.33746e-08
5.82343e-09
-9.58438e-10
-7.99475e-09
3.12976e-09
-5.97707e-09
1.70949e-09
1.0091e-08
-3.37644e-09
3.22019e-09
-4.55516e-09
4.71142e-09
-6.49795e-09
2.16306e-09
-8.08605e-09
-5.22931e-09
7.33832e-09
-1.14273e-08
-4.65351e-09
-2.89921e-09
7.8289e-09
2.28283e-09
-5.82975e-09
-2.95102e-09
-2.37783e-09
1.05505e-10
2.15401e-09
-2.44005e-09
-1.11412e-08
-1.0766e-08
4.86192e-10
5.05057e-09
-9.05329e-10
-7.70668e-09
-7.76821e-09
4.40754e-09
3.84686e-09
3.56048e-09
-6.36727e-09
-4.9614e-09
-4.71843e-09
6.22678e-09
-1.27423e-09
1.16286e-10
4.17199e-10
-8.687e-09
-1.63867e-09
-5.63392e-09
-3.56467e-09
-8.73708e-11
-4.78613e-09
-1.77561e-09
-2.12153e-09
3.20915e-09
6.87994e-10
-2.49252e-09
8.42262e-10
-1.25303e-10
-4.9296e-10
3.56154e-09
1.93093e-09
4.09157e-10
-7.67384e-10
3.40197e-09
9.26938e-10
1.22491e-09
-6.13759e-11
2.63624e-09
-3.72811e-09
1.54988e-09
3.28843e-09
2.8738e-09
-3.50283e-09
-1.35749e-09
8.98806e-11
-2.21179e-09
-3.34139e-09
-6.80887e-10
9.62192e-09
-5.59964e-09
5.30622e-09
-3.40205e-09
-5.24557e-09
5.07805e-09
6.12839e-11
-8.67205e-09
3.53272e-09
-8.48271e-09
1.28799e-08
1.09587e-09
4.18689e-09
2.34719e-11
1.16947e-09
9.54833e-09
-7.31066e-09
8.17208e-09
-9.34413e-09
-5.70873e-09
2.36796e-09
6.38294e-09
-1.31707e-09
-1.09899e-08
5.92404e-09
-2.97001e-10
-6.30716e-10
1.27616e-09
-5.32189e-09
-1.663e-09
-3.67647e-09
-2.92955e-10
5.21817e-09
3.15652e-09
-9.69175e-09
-3.56189e-09
-2.34949e-09
5.89497e-10
5.54811e-09
3.86522e-09
-4.19517e-09
5.79242e-09
-5.41303e-10
5.06612e-09
-5.4715e-09
-5.62613e-09
5.8189e-09
-1.66653e-09
-9.43897e-11
-2.76872e-10
-2.25982e-09
-1.50018e-08
4.42041e-09
1.28413e-08
1.30033e-08
-2.28533e-09
2.45282e-09
-1.31708e-08
2.00007e-08
1.25873e-08
-5.94663e-09
-2.66413e-08
-2.98423e-08
-2.08147e-08
3.08891e-08
1.97681e-08
-5.47176e-09
1.67733e-08
8.69922e-09
6.7077e-09
5.53142e-10
-9.52063e-09
8.22212e-09
-1.24387e-09
-2.70554e-10
9.14904e-09
9.51179e-10
-1.5572e-08
1.51615e-08
4.44142e-09
-6.59958e-09
1.68152e-08
1.09335e-08
-1.91379e-09
4.06861e-09
3.60694e-09
6.51412e-09
-9.413e-09
-7.89666e-09
1.07955e-08
-2.12456e-09
-3.62182e-10
9.00087e-09
-9.67079e-09
-5.75923e-10
-6.98519e-09
6.46345e-09
-8.87621e-10
5.53482e-09
-7.267e-09
5.63248e-10
-1.31133e-08
-5.10298e-09
-9.35729e-10
-7.99426e-09
-4.02932e-09
-1.08976e-09
-1.04868e-08
-3.22063e-09
-1.12516e-08
-7.22946e-09
7.62164e-09
-6.50243e-09
-5.14854e-09
-3.34443e-09
2.09545e-09
3.09301e-09
-8.40909e-09
-7.05281e-09
-8.19257e-09
-1.92147e-09
3.61162e-09
7.22563e-09
-1.23015e-08
-3.11666e-09
4.94812e-09
3.56028e-10
-2.05524e-10
-1.89916e-09
-1.87037e-09
8.44286e-09
-2.48053e-10
-6.32438e-09
9.19976e-09
-2.05419e-09
-9.01596e-09
-7.32181e-10
1.0756e-09
3.93148e-10
7.35367e-09
3.24408e-10
-9.73224e-09
-5.59646e-09
-6.81688e-09
-4.86209e-09
-4.91842e-09
2.10545e-09
7.60722e-09
-9.38822e-09
-6.73636e-09
8.59375e-09
-8.66869e-09
-1.38924e-08
-1.65263e-08
8.88336e-09
-4.65078e-09
-2.23592e-08
-4.31324e-09
-5.92606e-09
1.93244e-08
-1.28949e-08
-1.96075e-08
-3.03869e-09
6.94537e-09
-2.4491e-08
-1.12603e-08
3.55986e-09
-8.94039e-09
1.9548e-09
3.42573e-09
3.07976e-09
-3.23383e-09
1.63289e-10
-9.23152e-12
4.21895e-09
5.15418e-09
-5.81325e-09
2.45086e-09
3.77561e-10
1.21758e-09
-4.04599e-09
2.3273e-09
3.3194e-09
-3.19584e-09
-1.98499e-09
5.7506e-09
4.53337e-10
4.4297e-09
-1.91875e-09
-4.49595e-09
-1.21388e-09
4.19978e-09
1.44379e-09
1.92462e-09
-5.87412e-11
1.28395e-09
3.20204e-09
-2.86223e-10
-2.21444e-09
4.0282e-09
-5.29818e-10
3.77403e-09
1.7577e-09
1.37023e-09
-2.12041e-09
6.50078e-09
6.66663e-10
4.4776e-09
2.03748e-09
2.53756e-09
7.69549e-09
-8.55244e-09
-1.68061e-09
9.15321e-09
-6.64022e-09
2.45626e-11
2.85891e-09
1.75707e-09
4.53723e-09
4.71647e-09
5.83793e-09
-2.51953e-09
1.18452e-08
-4.87654e-09
-4.44915e-09
1.45378e-08
-1.02453e-08
-6.81204e-09
8.70895e-09
1.3158e-08
-1.00217e-08
-2.58299e-09
1.17225e-08
-4.3054e-10
3.90732e-09
-8.66415e-09
-1.19703e-10
-1.00565e-08
-1.07895e-09
3.44729e-09
-9.59644e-09
9.07815e-10
-4.10075e-09
-9.66569e-09
5.32362e-09
6.09914e-09
5.17572e-09
-2.21998e-09
1.02023e-08
2.64703e-09
1.42512e-08
-3.4184e-09
-5.33948e-09
6.15178e-10
-3.80118e-09
8.50961e-09
7.97868e-09
3.10513e-09
9.21269e-09
8.9611e-09
-6.8063e-09
-5.57319e-09
8.26505e-09
1.32151e-08
-1.18739e-09
-1.26853e-09
-1.07592e-08
3.70807e-09
-2.91364e-09
1.24207e-08
-5.36458e-09
1.30271e-09
5.81958e-09
4.46992e-10
-5.93411e-09
1.22577e-10
-6.4113e-10
-6.47486e-09
8.41873e-09
-2.58655e-09
-7.40612e-10
-6.98108e-09
1.03083e-08
-2.55687e-10
5.05061e-09
-7.38144e-09
-1.02915e-08
1.3259e-08
-8.96157e-09
-2.51731e-09
5.55664e-09
-8.72595e-09
7.4852e-09
-7.15986e-09
1.21639e-10
-6.51726e-09
-6.37538e-10
6.7947e-10
6.47533e-09
-7.59161e-09
4.7305e-09
-4.11995e-09
-1.10536e-09
-2.58173e-09
-2.36693e-09
-6.72589e-09
-7.21406e-09
1.63068e-08
-8.72136e-09
1.32893e-08
-6.93495e-09
1.22327e-08
2.39039e-09
2.68109e-09
-1.73042e-08
-1.76862e-08
2.31929e-08
-7.04691e-09
2.41167e-09
-2.57884e-09
-9.80172e-09
3.47075e-09
-5.92591e-09
4.31055e-09
-1.60708e-08
1.13096e-09
-4.59167e-09
-8.02559e-09
1.14863e-08
-3.49619e-09
-6.38741e-09
1.10146e-08
-3.86106e-09
5.80652e-09
-6.40585e-09
4.46044e-09
4.69069e-09
-1.94484e-08
1.08967e-08
-1.08673e-08
-2.10549e-09
-7.49138e-09
-1.07683e-08
8.36675e-09
6.80684e-09
-6.56721e-09
-8.60639e-09
-5.85801e-10
2.4459e-09
6.50669e-09
-5.97292e-10
-4.26825e-09
1.03413e-09
3.83144e-09
-5.42856e-09
4.24548e-09
-1.22024e-08
1.49366e-09
1.31546e-08
-2.55775e-09
-2.83779e-09
3.84382e-10
-3.30274e-09
-3.6489e-09
5.44252e-09
-2.65311e-09
-2.40503e-09
2.68038e-09
-2.66641e-09
-1.74657e-09
1.58706e-10
-6.50204e-09
-1.30135e-10
8.12586e-09
-5.53174e-09
-3.52805e-09
-2.79083e-11
3.69701e-09
-6.97186e-09
2.85955e-09
-5.54059e-09
2.71216e-09
4.36654e-09
-4.21915e-09
-5.30793e-10
4.6966e-09
-1.45365e-09
-4.38348e-09
5.28749e-09
-2.36552e-09
-2.69032e-09
3.00345e-09
-7.03394e-11
-1.68512e-08
3.33702e-08
-2.49092e-08
8.39012e-09
2.10002e-08
-2.73847e-08
-1.04666e-08
1.18378e-09
1.51532e-08
1.70332e-08
1.0525e-08
1.1659e-08
-1.78145e-08
-6.11403e-09
2.40201e-10
2.36883e-08
2.31804e-08
-1.93444e-08
-2.16504e-08
1.47343e-09
1.04117e-08
1.12952e-08
-1.33268e-08
-2.06942e-08
2.6141e-08
7.87999e-09
4.42324e-09
-1.01174e-08
-2.16905e-08
-5.76457e-09
-1.47214e-08
8.81524e-10
1.94342e-08
-9.79077e-09
-8.56451e-09
-7.66692e-09
1.22833e-08
-1.38984e-08
2.77939e-08
-2.61788e-08
2.83181e-08
-3.4632e-08
6.72313e-09
-2.57518e-08
-3.12443e-08
2.80868e-08
3.14756e-08
-2.33171e-09
-1.11871e-09
-1.90449e-08
-1.28984e-08
3.67611e-09
5.25049e-09
-1.59034e-08
6.97684e-09
6.78287e-09
6.47704e-09
-9.58382e-09
3.11461e-09
2.23995e-08
-1.22518e-08
-1.32624e-08
1.54603e-08
-5.56278e-09
2.00762e-09
-4.74911e-10
4.94432e-09
-5.21737e-09
1.24692e-08
-6.68855e-09
-4.47881e-09
2.46231e-09
1.39415e-08
3.5264e-09
2.00248e-09
1.37975e-08
-1.23271e-08
2.33935e-12
7.29799e-11
1.07266e-08
3.28469e-09
1.47813e-09
-1.36363e-09
-3.39921e-09
-1.22993e-09
4.37275e-09
1.41868e-10
-3.39655e-09
4.70488e-09
1.69789e-10
-2.26439e-09
-5.85893e-11
7.1095e-09
-4.78654e-09
-2.19875e-09
3.80797e-09
-3.87362e-09
4.63681e-09
-1.04433e-09
-4.95613e-09
3.37851e-09
2.83506e-11
7.03605e-09
8.7074e-10
-8.95114e-09
6.01177e-09
4.40279e-09
2.36629e-09
8.01856e-09
-9.51413e-09
4.99156e-09
-4.58367e-09
1.95837e-09
8.43788e-09
4.57224e-09
-3.09747e-09
1.00175e-08
-6.97861e-09
9.61591e-10
2.85141e-09
6.30199e-09
8.47074e-09
-4.66098e-09
5.32336e-09
-9.13314e-09
-2.8744e-09
1.25562e-08
-1.21109e-09
1.5139e-08
-8.47363e-09
1.00308e-08
-1.66962e-08
1.45567e-08
-2.29212e-09
-4.86808e-09
6.3497e-11
-3.66912e-09
5.61376e-10
-1.00904e-08
8.00634e-09
7.97416e-10
-3.48042e-09
9.57768e-09
1.09849e-08
5.21221e-09
-5.06912e-11
4.86933e-09
5.06212e-09
1.47068e-08
3.68136e-09
3.78811e-09
-6.90812e-09
6.37787e-09
-2.63302e-09
-1.95728e-09
5.34769e-09
-2.59299e-09
5.12894e-09
-3.00209e-09
-4.08412e-09
-4.18762e-09
6.05221e-09
3.48308e-09
1.04655e-09
-1.05228e-10
-3.25228e-09
1.15234e-10
9.18925e-09
-4.9354e-09
-3.3379e-09
5.02102e-09
1.4755e-08
5.43133e-09
-4.64532e-09
-3.93925e-09
5.03913e-11
-6.65256e-09
3.26396e-09
-1.55399e-09
1.2793e-09
-6.191e-11
-3.51112e-09
-4.25561e-09
9.12446e-09
-1.35778e-09
-5.5411e-09
1.63855e-09
3.91379e-10
6.96042e-09
-3.41815e-09
3.13499e-09
-6.67727e-09
1.97318e-09
5.15177e-09
-1.64534e-10
6.17916e-09
-4.49825e-10
-9.14748e-09
1.7408e-09
6.41153e-09
-4.2531e-09
-6.59674e-09
6.59422e-09
9.36385e-09
-9.76143e-10
-5.25273e-09
-3.24056e-09
5.56391e-09
6.47534e-09
-8.79871e-09
8.2051e-09
4.44836e-09
-1.31033e-08
-1.07164e-08
1.3537e-09
9.73696e-09
-3.74272e-10
-1.63043e-08
1.3793e-08
-2.20586e-09
2.00874e-09
-5.34399e-09
-6.33102e-09
-1.27939e-10
-9.9029e-09
-4.49079e-09
7.79695e-09
1.03663e-09
-1.57569e-09
-1.42623e-10
1.09372e-08
-7.46498e-09
3.20584e-09
-3.06576e-09
5.95055e-09
-6.74867e-09
3.86388e-09
8.37532e-10
-3.80225e-09
-1.01036e-10
-1.57798e-09
-1.74522e-09
9.27375e-09
3.82972e-09
-1.43175e-09
-4.74747e-09
2.67831e-09
-5.11597e-10
-3.5701e-09
4.36009e-09
-5.42655e-11
5.95747e-09
-4.87541e-09
-4.8843e-09
-4.37702e-10
-3.53486e-10
-1.22584e-09
1.02999e-08
-9.51175e-09
-8.38512e-09
2.07795e-09
-1.40064e-09
8.4441e-09
3.5148e-09
-1.05583e-08
-4.06545e-09
-1.76089e-09
1.03127e-09
4.79508e-09
1.66667e-09
-5.60937e-09
-1.22746e-10
-1.16469e-08
-1.39891e-09
1.12849e-08
-1.83854e-08
1.3513e-08
3.47173e-09
-4.96302e-09
-1.17866e-08
-1.63578e-09
5.39863e-09
-2.34642e-09
-7.05071e-09
3.99851e-09
3.40503e-09
1.96513e-09
2.84598e-11
1.02919e-10
-1.94065e-09
1.02818e-08
-4.96865e-09
6.10283e-09
1.03042e-10
-6.97854e-09
-6.84242e-10
-3.98409e-09
1.61009e-09
-6.36372e-09
-2.22492e-09
-3.99217e-09
-7.11467e-12
1.31017e-09
-1.658e-08
1.38709e-08
1.28825e-08
-1.04511e-08
-6.8131e-09
-7.50584e-10
-5.58802e-09
2.92449e-09
-1.00388e-08
-1.24897e-08
3.76303e-09
-5.28495e-10
-4.05294e-09
8.18416e-10
-3.98884e-09
3.21693e-09
4.53492e-09
5.2016e-09
-4.41282e-09
-1.73008e-09
9.41303e-10
6.64387e-10
-2.96786e-09
7.50505e-09
-5.47516e-09
5.33887e-10
2.41954e-09
-4.11702e-09
-2.35545e-09
-1.64462e-09
7.53106e-11
-2.07472e-09
5.95602e-09
6.81811e-09
-6.23632e-09
-2.3119e-09
-4.0232e-11
3.89048e-09
-6.14056e-10
2.72309e-09
-7.58416e-09
1.79966e-09
-6.53074e-09
2.13993e-09
4.28325e-09
-4.62351e-09
4.97384e-09
-4.78762e-12
-2.82913e-09
-2.7281e-09
4.59633e-09
3.1056e-09
-8.94723e-11
2.48136e-09
-3.51802e-09
1.72654e-08
-1.67571e-08
2.71578e-09
-3.22416e-09
7.27411e-09
9.45324e-09
-4.08958e-09
-1.26378e-08
1.50435e-08
4.03011e-09
-1.17995e-08
-4.95088e-09
-1.78479e-08
1.45457e-09
2.13442e-08
1.46069e-08
-4.5143e-09
-3.17298e-09
1.76371e-08
1.42829e-10
3.58781e-09
-1.57618e-08
9.64582e-10
1.12094e-08
-1.36165e-08
1.40313e-08
1.57924e-09
-1.19316e-08
-5.40939e-09
-2.58398e-09
-2.70061e-09
3.19161e-09
-1.24227e-08
1.3274e-08
-1.39785e-10
-1.58349e-08
1.25164e-08
-1.30989e-08
-1.89015e-08
1.48479e-08
5.01807e-09
6.88897e-09
-9.6548e-10
4.11456e-09
-7.89143e-09
4.74239e-09
-2.04632e-09
8.59148e-09
-2.29663e-09
-4.24854e-09
2.20247e-09
-3.49654e-09
-1.01861e-08
1.14802e-08
-6.68213e-09
1.11391e-08
-2.25451e-09
-5.5674e-09
-4.39195e-10
5.55303e-09
4.53547e-10
-1.65827e-09
-7.40567e-09
4.39885e-09
-7.79283e-09
1.7357e-09
4.04036e-09
-8.07102e-11
2.69021e-09
-6.23848e-09
2.58281e-09
-4.00015e-09
4.64405e-09
2.56819e-09
-3.39367e-09
6.3785e-09
-2.20928e-09
4.68559e-09
9.18552e-11
2.12428e-09
-3.5015e-09
-4.86126e-09
-1.92772e-09
5.18531e-11
-9.66483e-11
3.4598e-09
1.07794e-09
2.62421e-09
-7.16198e-09
7.19873e-09
6.5167e-09
-1.02556e-08
6.35563e-09
-1.00342e-08
3.96158e-09
-2.83013e-10
9.96505e-10
1.25579e-08
-3.88502e-09
8.75202e-09
-3.87051e-09
-5.00214e-09
-4.42437e-09
5.54148e-09
-1.6789e-09
-3.41424e-09
9.09747e-11
-5.47982e-09
3.74994e-09
5.09659e-11
6.60376e-09
-6.9348e-09
5.32728e-09
-4.99624e-09
-5.90093e-09
2.47053e-09
5.97421e-09
-6.18982e-09
-3.19863e-09
2.62777e-09
1.72707e-09
-6.23231e-09
-2.13698e-09
6.6422e-09
-3.79809e-09
4.53259e-11
-5.86172e-09
-6.27153e-09
3.51657e-09
-5.12568e-09
-2.18897e-09
-5.14969e-09
2.47644e-09
-8.13321e-10
-5.1398e-09
3.719e-09
2.23409e-09
2.93464e-09
-4.80833e-09
1.06036e-09
-4.42134e-09
2.79857e-09
4.55741e-09
3.01205e-09
-3.73737e-09
-4.08301e-09
-1.35972e-09
-4.9569e-11
-3.04584e-09
6.72638e-09
-8.82034e-09
1.85191e-09
3.70386e-09
-8.60162e-09
2.77444e-09
2.84105e-09
-9.25822e-09
3.64271e-09
-2.44259e-09
1.47966e-09
1.09006e-09
5.25315e-09
6.5164e-09
4.35651e-09
-6.66515e-09
-2.01833e-10
2.42487e-08
-2.23161e-08
-2.84923e-09
9.16502e-10
-8.66395e-09
7.59851e-09
2.53142e-08
1.28659e-08
-1.78297e-08
-1.73524e-08
6.72027e-09
-2.51833e-09
1.53309e-08
-1.59578e-08
-2.2224e-09
2.4167e-08
-1.23754e-09
3.24105e-09
1.06682e-08
6.74233e-09
-2.06515e-08
1.51545e-08
8.64087e-09
-2.05542e-08
5.19882e-09
-6.00213e-09
1.05142e-08
1.52485e-08
-1.50945e-08
1.87538e-08
-3.04081e-09
-5.71067e-09
-3.47811e-09
1.32986e-08
-1.2267e-08
-1.64938e-08
2.16297e-08
1.36179e-08
1.22741e-09
-2.4727e-09
-9.27506e-10
1.54535e-08
-7.49335e-09
-2.14535e-08
8.39274e-09
2.21051e-08
-8.74186e-09
-1.66111e-08
3.24796e-09
-1.75309e-08
3.61578e-08
-1.78749e-08
1.63973e-09
5.49817e-09
-3.29747e-09
-2.36542e-08
2.70579e-09
-1.78591e-08
2.8971e-08
-5.30073e-09
-2.31687e-10
-2.34386e-08
3.92068e-09
1.11117e-08
1.39386e-08
-3.18192e-08
1.77745e-08
1.79654e-08
-7.39995e-09
-2.972e-08
1.97356e-08
-2.85836e-08
-7.76306e-09
1.99792e-08
9.60697e-10
-2.21331e-08
1.39922e-08
-1.15181e-08
1.28369e-08
-3.50229e-08
8.06806e-09
-1.97324e-08
1.82763e-08
-6.6119e-09
-1.89792e-08
3.86475e-09
2.31825e-08
1.32551e-08
-1.00022e-08
-2.29853e-08
-1.03647e-09
-4.68762e-09
-1.65322e-09
2.5696e-09
1.73599e-08
-1.12955e-08
-2.37041e-09
2.63117e-08
-1.26457e-08
-1.01564e-08
6.76007e-09
-7.89926e-09
-1.11843e-08
1.47622e-08
-4.61439e-09
1.42579e-08
-5.19854e-09
-1.70108e-08
7.95143e-09
-1.19306e-08
2.3818e-08
8.76263e-09
7.5801e-09
-2.63449e-08
5.73909e-09
-8.16072e-09
1.64244e-08
-2.17522e-08
1.29305e-10
-1.59515e-09
6.08897e-09
3.01066e-09
-1.95579e-08
8.93953e-10
1.54872e-08
-2.7465e-08
-5.25871e-10
-1.78597e-08
4.67552e-09
1.92732e-08
-2.4263e-08
6.53261e-09
8.3809e-09
-1.37995e-09
-3.16711e-09
-3.83384e-09
2.4625e-09
1.1864e-09
4.73199e-09
4.11339e-09
1.22383e-08
-1.38892e-08
2.78656e-09
-5.79227e-09
4.19209e-09
-6.293e-09
6.86258e-10
8.39329e-09
1.82745e-10
8.44011e-10
-6.81903e-09
-7.42305e-09
1.31279e-09
-9.5465e-09
1.43461e-08
-4.61549e-10
-1.34726e-09
-5.61423e-09
7.8882e-09
-1.74393e-08
3.44617e-10
9.20644e-09
-2.11983e-09
7.94602e-09
-1.20042e-08
5.91003e-09
5.6999e-09
1.41226e-08
-1.18765e-08
-5.53691e-09
1.83071e-08
-7.07035e-09
1.23716e-09
6.12596e-09
-8.46508e-10
5.32239e-09
-5.99663e-09
1.91134e-09
-7.11007e-10
1.21594e-08
9.88909e-09
-8.69963e-09
6.31268e-09
2.39203e-09
9.60243e-09
1.44387e-08
-1.07086e-08
6.70723e-09
6.39335e-09
6.18058e-09
-7.00006e-09
-4.78993e-09
9.33207e-09
-9.25357e-09
1.11709e-08
-8.38906e-10
2.10183e-09
8.46914e-09
-1.44347e-09
-9.12746e-09
-8.08009e-09
9.23863e-09
9.43292e-10
4.37449e-09
-1.31651e-08
-7.81442e-09
1.6605e-08
-5.89379e-09
1.09617e-08
-6.93413e-10
4.66556e-09
-1.36881e-08
9.42433e-10
1.89705e-09
1.44781e-09
7.08078e-09
3.28541e-09
-2.26177e-08
-1.86949e-10
6.27839e-09
-2.25303e-09
-7.33548e-09
-1.30292e-08
9.47173e-09
-1.79713e-08
-2.23562e-08
1.58923e-08
6.27689e-09
-1.51375e-08
4.85517e-10
-7.33373e-09
-1.26986e-08
6.17252e-09
-1.35111e-08
5.02357e-09
-4.21113e-09
-1.46236e-08
-6.22299e-09
-1.02022e-08
1.9022e-09
-1.44538e-08
2.33979e-08
-6.56949e-09
-2.37452e-09
-1.68264e-08
1.16214e-08
-6.99104e-09
2.31666e-08
2.61589e-09
-1.87915e-08
-1.96594e-08
1.63767e-08
-3.70828e-09
1.20985e-08
2.65334e-08
-1.40027e-08
5.07418e-09
-3.5693e-09
-7.62952e-09
-1.82765e-09
-3.78061e-09
1.36908e-08
6.05357e-09
6.54249e-09
1.19091e-08
2.25274e-08
1.48023e-09
-1.48862e-08
7.68822e-09
-7.91519e-09
3.35018e-08
-2.7e-09
-2.28866e-08
3.11948e-08
-1.25766e-08
-1.10487e-08
-1.66307e-08
9.70359e-09
-3.40749e-09
-1.56163e-09
1.61257e-08
1.53402e-08
-9.45609e-09
8.49202e-09
-4.81619e-09
5.78027e-09
1.24434e-08
-1.3718e-08
-8.18142e-09
9.13706e-09
1.58872e-09
-1.2965e-08
2.23924e-09
-5.1997e-09
3.31758e-09
1.10192e-08
-9.52085e-09
9.10607e-09
-4.78491e-09
-4.13995e-09
-2.84861e-09
-2.53228e-09
1.24656e-08
-1.54675e-08
4.59062e-09
-4.11288e-09
1.9896e-08
1.62059e-08
-4.63923e-09
8.76696e-10
2.0585e-08
-9.58421e-09
-6.37515e-09
1.18194e-08
-1.10317e-08
-4.78198e-09
-1.68904e-08
-3.21632e-09
-1.35166e-08
8.28474e-09
4.15655e-10
-4.16694e-09
-3.81246e-09
-5.53713e-09
-5.37128e-09
-8.37985e-09
1.63092e-09
-4.78107e-09
-7.88147e-09
-6.90577e-09
-8.35368e-09
-8.63229e-09
-8.8982e-09
3.19648e-10
-1.0472e-08
-1.52184e-08
-2.86726e-09
6.20159e-09
-6.83098e-09
3.49665e-09
2.2835e-09
-4.95813e-09
-1.92647e-10
-4.26097e-09
2.51315e-09
-5.61283e-10
2.30911e-09
-2.04653e-09
6.90554e-11
-6.63354e-10
-7.27517e-10
3.90403e-09
7.74848e-09
-2.21023e-09
6.29906e-09
1.71824e-09
1.64338e-09
-9.66067e-09
1.11162e-10
-6.43077e-10
2.43808e-09
-5.67797e-09
-5.55974e-09
2.59918e-09
2.39928e-09
-5.33197e-09
-2.27429e-09
-2.24183e-09
4.11351e-09
7.10865e-09
-5.93357e-10
-8.75713e-09
-8.16635e-09
9.27202e-09
-9.945e-10
4.62224e-09
-1.11452e-08
-3.26692e-09
3.73024e-10
-3.493e-09
3.35888e-09
9.40613e-09
-2.71736e-09
3.84658e-09
-7.48053e-09
4.0737e-09
-1.13129e-08
1.47197e-08
-1.43172e-08
9.23712e-09
-2.40048e-09
-7.08573e-09
1.68776e-08
-5.71817e-09
-8.70431e-09
-1.78233e-08
2.07623e-08
5.76533e-09
1.0402e-08
-6.82037e-09
-1.22859e-08
1.72087e-08
-6.00263e-09
-8.04078e-10
4.66687e-09
-1.77537e-09
-9.73157e-09
3.08551e-09
1.10605e-08
-1.39531e-10
-1.77413e-08
9.72054e-09
-4.66273e-09
1.04029e-08
-9.16086e-09
8.89077e-09
-1.01328e-08
2.06898e-08
-5.66335e-10
8.85054e-09
9.668e-09
5.17968e-09
-2.36982e-08
-1.46885e-08
5.38813e-09
7.01003e-09
3.94816e-09
-1.49537e-08
1.67185e-08
-2.20474e-08
1.41037e-08
-8.44654e-09
-4.71008e-09
2.67279e-08
-1.66009e-08
5.60851e-10
-1.0688e-08
3.29671e-09
1.14349e-08
1.19963e-08
9.735e-09
-1.07069e-08
-1.56289e-08
-6.92565e-10
1.30375e-08
-2.60991e-09
-1.13162e-09
9.71963e-09
4.93577e-09
-1.35238e-08
5.29623e-09
-1.71347e-08
-1.53353e-08
-1.25631e-08
1.71397e-08
1.07588e-08
-3.30041e-08
5.56172e-09
1.2107e-08
1.19459e-08
-2.91881e-09
8.77239e-09
7.56177e-09
9.04757e-09
-5.62001e-09
5.34481e-09
-7.84777e-09
1.81216e-08
-1.22621e-09
2.70308e-09
1.43107e-08
-1.2078e-08
1.63738e-08
-8.37448e-09
-2.05831e-08
-1.18601e-08
7.25063e-09
1.60503e-08
-8.9902e-09
-2.48821e-09
1.05419e-08
-8.03116e-10
1.07397e-08
-1.28203e-09
-5.75593e-09
-7.89836e-09
5.80651e-09
-6.36287e-10
-1.95304e-08
-1.80593e-09
8.77324e-09
-2.37398e-08
7.25946e-09
6.98486e-09
9.90303e-09
2.10941e-09
1.16595e-08
3.82986e-09
-1.75987e-08
-1.63882e-08
1.42363e-08
4.26138e-09
-1.73269e-08
1.73312e-08
-4.80704e-09
4.80277e-09
1.15353e-08
-1.43124e-08
-1.45498e-08
-9.8641e-09
1.24119e-08
1.47835e-08
3.30557e-09
-1.63434e-09
-1.24676e-08
5.55677e-09
-9.47743e-09
2.0205e-08
-8.78121e-09
2.93033e-09
-1.32108e-09
1.42694e-08
1.53972e-09
-1.4488e-08
-3.01532e-09
-6.96084e-09
1.32817e-08
1.49349e-08
1.00917e-08
-2.49519e-09
-9.73263e-09
1.84262e-08
-6.19834e-09
-9.14155e-09
-8.44019e-09
5.18265e-09
1.23991e-08
-1.5552e-08
-5.54205e-09
1.19524e-08
1.26384e-08
-8.02802e-09
9.98544e-09
-1.45959e-08
1.85113e-08
1.09412e-10
-5.98227e-09
-9.11093e-09
1.8001e-08
-1.13853e-08
-1.31049e-08
2.85863e-09
1.13539e-09
-1.69389e-08
7.94966e-09
-7.43386e-10
-6.12826e-09
1.30924e-09
-3.62121e-09
1.4015e-08
-5.24371e-09
-1.48996e-08
-2.21171e-09
6.74768e-10
4.00902e-09
-1.72807e-08
7.56069e-09
2.13041e-10
1.2967e-08
-8.47773e-09
-7.15195e-09
1.46249e-08
-1.90936e-08
-5.86667e-09
2.0601e-08
6.71128e-09
-1.64005e-09
-3.23077e-09
-1.84046e-09
6.044e-09
-3.65456e-09
9.01482e-09
-3.21871e-09
-7.43617e-09
5.24732e-09
4.54756e-09
-3.80145e-09
-3.97688e-09
1.0643e-09
-1.71308e-10
-1.97254e-09
-5.11798e-09
1.49879e-09
-5.93742e-09
6.37186e-10
-3.37339e-09
5.05736e-11
-3.84713e-09
5.06005e-09
9.91773e-10
-4.92918e-09
-1.12264e-09
-4.09227e-09
4.93491e-09
4.21741e-09
-8.01466e-09
-2.56186e-09
1.11598e-09
9.46055e-09
-5.36054e-09
-1.66235e-09
1.29387e-08
-8.23514e-09
-1.00641e-08
-1.25886e-09
1.16357e-08
2.89394e-09
-4.44765e-09
-3.37548e-09
-1.30721e-09
1.08877e-10
4.28811e-11
7.04005e-09
-6.90746e-09
-1.75485e-10
-3.61558e-09
3.76437e-09
-1.05916e-10
4.88825e-09
-4.97128e-10
1.35132e-09
-5.74245e-09
-3.45522e-11
-8.50642e-10
6.90155e-09
-1.09252e-09
1.07354e-09
-8.21616e-09
-6.03728e-09
1.64308e-09
-9.92603e-10
6.38957e-09
4.5568e-09
8.62039e-10
-6.41818e-09
-1.03795e-08
8.12805e-09
-8.44395e-09
-1.63438e-08
4.43542e-09
-4.17352e-09
1.60819e-08
3.2633e-09
-1.94822e-08
-1.24856e-10
-5.59135e-09
-8.43808e-09
1.80595e-08
-5.76639e-09
-9.81092e-09
9.98596e-09
2.37726e-08
3.2167e-09
-2.3726e-08
-1.58495e-09
9.93689e-09
1.54206e-08
-3.43569e-09
-7.83093e-09
5.5002e-09
-1.63006e-08
8.77535e-09
-1.71293e-09
-1.01523e-08
-2.11756e-09
-1.00225e-08
3.70199e-09
-1.19597e-08
3.1175e-11
2.23457e-08
4.80018e-10
-1.9609e-08
1.25647e-08
8.19613e-09
6.36658e-09
-1.22975e-08
-1.90005e-09
-1.42018e-08
1.65335e-08
-5.65112e-09
3.3194e-09
-1.416e-09
-1.23058e-08
-6.63662e-09
1.0435e-09
1.90757e-08
2.30266e-09
-1.29904e-08
-1.60977e-09
1.2231e-08
-1.13443e-08
-5.67468e-11
3.04668e-09
1.86838e-08
-2.13944e-08
-3.36069e-10
1.45627e-08
-1.42966e-08
2.78051e-09
2.33755e-09
7.8944e-09
4.33078e-09
-1.21544e-08
3.13533e-09
-1.02537e-08
1.92728e-08
8.8669e-09
7.94622e-09
-1.19455e-08
-1.73951e-08
-2.99152e-09
-3.35886e-09
-3.07359e-09
1.41033e-08
3.23918e-08
-8.29574e-09
-3.14863e-09
-2.09475e-08
9.07815e-09
3.03061e-09
2.0283e-08
3.23786e-08
-9.63548e-09
-3.10388e-08
3.1203e-08
8.86124e-09
-9.1638e-09
-2.68898e-09
1.19297e-08
-6.93143e-09
3.86297e-09
1.87147e-08
-7.70624e-09
-1.41571e-08
8.0953e-09
1.365e-08
1.69514e-08
-2.54587e-11
-2.15555e-08
7.35556e-09
-1.65448e-08
-7.28213e-09
-5.36995e-10
-6.15767e-09
9.0407e-09
-2.34601e-09
-5.70301e-09
9.63033e-09
-4.46431e-09
-1.86575e-08
6.79685e-09
1.33752e-08
1.69686e-08
-2.07134e-08
-4.74497e-10
1.13506e-08
2.49914e-09
1.21213e-08
-9.81693e-09
1.47516e-09
-1.06183e-08
1.11749e-08
-1.84415e-10
5.97816e-09
4.2708e-09
7.66605e-09
1.53505e-09
6.25087e-09
-5.99056e-09
-1.79543e-09
5.6967e-09
-4.11371e-09
-4.79802e-11
-1.04186e-08
5.41585e-10
2.98394e-09
6.89302e-09
-1.47286e-09
-2.69486e-09
1.34579e-08
-9.53467e-09
-5.39605e-09
-4.50334e-09
4.70068e-09
2.78658e-09
1.36557e-09
-1.72236e-10
-6.10661e-09
-6.00074e-09
5.82549e-09
6.28184e-09
-4.73206e-09
-8.9878e-12
-3.10814e-09
3.0667e-09
-4.0723e-09
1.90029e-10
-9.28875e-09
-4.66145e-09
1.00031e-09
-5.92268e-09
-5.22957e-09
-1.53353e-08
-1.45742e-08
-8.27382e-09
1.79815e-09
-8.39727e-09
-4.60861e-09
-4.33027e-09
-7.87026e-09
5.48691e-10
3.74853e-09
3.57302e-09
7.31454e-09
-5.32033e-09
-9.86449e-09
-9.25016e-09
5.06697e-09
4.73186e-09
3.90335e-09
-5.83898e-09
-1.32963e-08
5.95713e-09
2.01879e-09
3.77486e-09
5.19299e-09
-5.21934e-09
8.50042e-09
-3.05462e-09
-1.54247e-09
4.53555e-09
9.03183e-09
7.17566e-09
1.29247e-09
-1.79538e-09
-6.67278e-09
-2.97555e-09
1.1286e-08
-7.42294e-09
1.1623e-08
-2.59159e-09
-7.88598e-09
8.55461e-09
9.25502e-09
-5.45904e-09
-1.23506e-08
9.05883e-09
-1.12833e-09
6.24118e-10
-5.07783e-09
6.37765e-09
7.75902e-09
3.79911e-09
3.78108e-10
5.10637e-09
2.0948e-09
-1.26602e-08
4.63199e-09
-6.53944e-10
-3.09641e-10
1.37956e-09
5.30774e-09
-6.43746e-09
5.73645e-10
5.55418e-09
8.19244e-09
5.43875e-09
-1.15364e-08
5.53131e-09
7.64993e-09
-4.9888e-09
-1.52724e-09
-2.78235e-10
7.73233e-09
1.5981e-09
-6.35656e-09
1.03665e-08
3.72239e-09
-8.14451e-09
-1.61958e-09
3.40752e-09
5.75533e-09
-1.84381e-09
5.26075e-09
-4.23045e-09
-1.95838e-08
8.97761e-09
1.48367e-08
1.94831e-08
8.87968e-09
-6.06193e-09
-2.23008e-08
2.43666e-09
1.2816e-08
-1.49906e-08
2.09206e-09
4.54911e-09
8.3495e-09
-5.91359e-09
-2.3823e-08
1.01529e-08
-2.32255e-08
2.32127e-09
-2.13452e-08
1.68043e-08
6.97756e-09
3.44506e-09
-1.59105e-08
-2.97642e-08
-7.67458e-10
7.30617e-09
3.22407e-09
6.07039e-09
-3.90587e-08
-1.54238e-08
1.37742e-08
8.84788e-09
-7.19825e-09
-2.12457e-09
-1.1017e-08
-2.28224e-09
8.86457e-09
-1.83034e-08
3.37693e-09
1.18669e-08
1.07718e-08
-8.16374e-09
1.93028e-08
7.27863e-10
-1.30261e-08
6.95446e-09
7.58618e-09
-2.81851e-08
1.99719e-08
-2.01199e-08
6.21838e-09
1.46816e-08
4.52284e-09
-6.51985e-09
-1.39081e-08
-2.12345e-08
8.70727e-09
-7.05175e-09
1.91502e-08
-1.30111e-09
-2.77399e-09
-1.50751e-08
-1.20381e-09
7.37401e-09
1.298e-08
1.41173e-08
-3.12008e-09
-1.22983e-08
8.65944e-09
4.254e-09
-1.06947e-08
1.35568e-08
4.51196e-09
-2.58272e-09
-1.0886e-08
-7.89218e-09
-3.5529e-09
4.05623e-09
7.38886e-09
-2.28492e-09
-8.72735e-09
-7.86619e-10
-7.89463e-09
6.09853e-09
6.74498e-09
-9.81652e-09
3.33982e-09
-1.47737e-10
-4.97641e-09
8.79222e-09
-2.48743e-09
-1.32837e-09
-1.77157e-09
1.3497e-10
1.53377e-08
-6.64416e-09
-1.40639e-08
5.37041e-09
-1.04686e-09
1.29448e-08
3.43974e-09
-1.2864e-08
2.12391e-08
2.45312e-08
-3.29064e-08
1.52152e-08
-4.91893e-09
-1.69404e-08
1.12013e-08
2.96701e-09
1.47006e-08
1.67738e-09
5.07196e-09
1.42035e-08
-4.5749e-09
1.83485e-08
-2.47945e-08
8.12329e-09
7.49956e-09
-9.28013e-12
1.08582e-08
1.31009e-08
-1.81745e-08
1.80184e-08
3.99845e-09
1.16405e-08
-2.85029e-08
3.57148e-09
2.51672e-08
1.49044e-08
1.36886e-09
5.72622e-09
8.46803e-09
-4.5662e-09
2.12385e-08
1.60644e-08
-4.2494e-09
-3.66314e-09
6.53259e-09
5.87754e-10
-3.08369e-09
2.61069e-09
-1.14809e-10
-2.81592e-09
-6.26296e-10
6.11118e-09
-2.66897e-09
-2.21918e-09
-8.98109e-12
5.75585e-09
-5.66563e-09
7.53782e-10
4.10233e-09
-3.31234e-09
4.96585e-09
-2.76353e-09
-4.56956e-09
8.95959e-10
-3.00954e-09
-1.05606e-10
7.66813e-09
2.36827e-09
-3.34665e-09
-4.68726e-09
-4.81102e-11
-5.02164e-09
-7.51421e-10
1.11546e-08
1.09351e-08
-6.5598e-09
-1.553e-08
1.65397e-08
6.92988e-09
-1.23149e-08
-6.55397e-09
2.15828e-08
1.51084e-09
7.79619e-09
-3.41504e-09
2.10861e-08
-2.0948e-08
1.0962e-08
-1.11e-08
1.1276e-08
-2.94286e-09
1.2753e-08
-8.18726e-09
-5.83088e-09
-1.06779e-08
4.9345e-09
1.70194e-08
4.73362e-09
-4.44952e-09
8.3747e-09
1.02653e-08
2.4993e-09
6.1406e-09
-1.51997e-08
-1.3824e-08
8.13606e-09
5.28055e-09
-7.09586e-09
8.66458e-09
-6.84924e-09
-5.73553e-09
1.59506e-08
-1.04792e-08
6.6479e-09
1.2206e-08
-2.56682e-09
-1.16148e-10
-1.71856e-09
2.63098e-09
-8.72931e-09
-8.51115e-11
5.50253e-09
-1.92873e-09
-2.31525e-09
-9.11518e-10
-1.0381e-08
1.87058e-09
-9.84451e-10
9.49479e-09
-6.49543e-09
-9.95489e-10
-2.8901e-09
4.613e-09
-7.62e-09
-3.48848e-09
7.6379e-09
-3.82503e-09
8.00067e-10
9.65525e-10
8.5429e-09
7.70173e-09
-5.61014e-09
-3.0871e-09
6.13664e-10
6.1036e-09
-4.99178e-09
2.45359e-09
-3.07197e-09
-1.8334e-10
-2.8641e-10
-4.52207e-09
1.33774e-09
-5.57128e-09
5.73441e-09
-1.50091e-09
-2.45416e-09
3.83132e-09
-3.94503e-11
-5.45515e-09
8.37598e-10
-9.53758e-10
3.8856e-10
-1.48818e-10
-5.69492e-09
3.4927e-09
-3.2875e-09
1.16432e-09
-1.258e-10
-3.85613e-10
-7.52083e-09
6.26056e-09
-8.02216e-09
-2.06348e-09
-2.62089e-10
7.48815e-09
7.16844e-09
-7.70289e-09
-1.61243e-11
3.57989e-09
3.80048e-11
-1.24002e-09
6.71229e-09
-9.87567e-10
3.57884e-09
3.20598e-09
1.11346e-09
-5.09177e-09
2.36393e-09
1.61443e-09
-3.2662e-09
3.27439e-09
1.10529e-09
-1.85164e-09
-4.32847e-09
2.91388e-09
-1.79794e-09
3.39651e-11
-8.77001e-11
1.1656e-11
8.64552e-10
3.02784e-09
-2.43644e-09
1.97939e-09
4.68706e-10
-3.63797e-09
2.82477e-10
-9.72963e-10
-3.03663e-09
-9.33725e-11
-6.95776e-10
8.56688e-09
5.76472e-09
-1.07674e-08
-3.56421e-09
7.38477e-09
5.69111e-10
6.13002e-10
-8.73473e-09
1.01083e-08
6.01113e-09
-1.05071e-08
1.89233e-09
-1.19931e-10
1.01067e-08
5.74077e-10
-1.01117e-08
1.07052e-08
6.30796e-09
-1.2385e-08
-4.62823e-09
1.6694e-08
6.11626e-09
-1.2105e-08
1.44453e-08
-3.65579e-09
-2.29176e-09
-8.49777e-09
9.54607e-09
1.4837e-09
3.41548e-09
-8.39821e-09
1.00358e-08
1.40264e-09
-2.44838e-09
4.69809e-09
7.78607e-09
3.36699e-09
4.29299e-09
-1.48922e-08
1.12533e-08
5.12254e-09
-1.0876e-08
2.41474e-09
-8.02728e-09
8.97954e-09
-7.2606e-09
1.43734e-08
8.0193e-09
1.02853e-08
-1.61066e-09
1.00988e-08
1.42781e-08
-1.28379e-08
2.2168e-09
-1.06738e-08
2.12949e-08
-2.70139e-08
-7.52102e-09
2.13783e-08