/*--------------------------------*- C++ -*----------------------------------*\
| =========                 |                                                 |
| \\      /  F ield         | OpenFOAM: The Open Source CFD Toolbox           |
|  \\    /   O peration     | Version:  v1612+                                |
|   \\  /    A nd           | Web:      www.OpenFOAM.com                      |
|    \\/     M anipulation  |                                                 |
\*---------------------------------------------------------------------------*/
FoamFile
{
    version     2.0;
    format      ascii;
    class       volVectorField;
    location    "150";
    object      U;
}
// * * * * * * * * * * * * * * * * * * * * * * * * * * * * * * * * * * * * * //

dimensions      [0 1 -1 0 0 0 0];

internalField   nonuniform List<vector> 
17049
(
(0.224153 0.646901 0.0154819)
(0.25547 0.656586 0.0288822)
(0.242595 0.631832 0.035275)
(0.366077 0.922272 0.0304392)
(0.224509 0.654951 -0.00546004)
(0.252111 0.707936 -0.011374)
(0.273375 0.781377 -0.0176459)
(0.247398 0.713419 -0.0130385)
(0.232093 0.692125 0.00164033)
(0.244256 0.694616 -0.00679821)
(0.277238 0.799408 -0.0114814)
(0.26136 0.788156 -0.000865924)
(0.274523 0.811382 0.00774334)
(0.264202 0.797802 0.00771281)
(0.220691 0.650721 -0.00184172)
(0.229517 0.69163 0.00652517)
(0.242901 0.725283 0.00333249)
(0.264171 0.771553 0.00225428)
(0.224945 0.671239 -0.00226095)
(0.400828 1.03688 0.0359613)
(0.393982 1.02464 0.0276557)
(0.38304 0.996758 0.0353675)
(0.378162 0.989799 0.0332292)
(0.407315 1.05551 0.0253727)
(0.413868 1.05643 0.0318942)
(0.390146 1.01757 0.0337855)
(0.429555 1.09141 0.014031)
(0.435982 1.109 0.0140001)
(0.4327 1.09481 0.0231025)
(0.400906 1.03776 0.0303508)
(0.408789 1.0509 0.0329117)
(0.408336 1.05699 0.0253905)
(0.424232 1.06579 0.0278334)
(0.42038 1.068 0.0274933)
(0.424021 1.086 0.0270517)
(0.42532 1.08051 0.0119357)
(0.304607 0.699908 0.0694611)
(0.310919 0.724691 0.0666006)
(0.24886 0.564684 0.0667893)
(0.26636 0.601742 0.0705245)
(0.326688 0.754467 0.0708874)
(0.316488 0.735967 0.0677092)
(0.271819 0.634684 0.0742749)
(0.255911 0.56858 0.0662831)
(0.236252 0.540061 0.0691104)
(0.306546 0.695485 0.0733395)
(0.320514 0.774584 0.082706)
(0.324717 0.781319 0.082191)
(0.281672 0.699952 0.0838644)
(0.256815 0.647873 0.0855571)
(0.255434 0.634678 0.0814395)
(0.226753 0.557718 0.0704069)
(0.276049 0.629131 0.074094)
(0.272998 0.671663 0.0813838)
(0.240663 0.558596 0.0736736)
(0.257714 0.601573 0.0768123)
(0.196618 0.578682 0.00292518)
(0.1758 0.52486 0.00326518)
(0.200036 0.589984 -0.00416308)
(0.198295 0.572424 0.00201378)
(0.182722 0.542743 -0.00178409)
(0.179012 0.524217 0.00159097)
(0.200954 0.599486 -0.00314231)
(0.209453 0.64 0.010467)
(0.203786 0.61848 0.0089919)
(0.180185 0.540881 0.00444935)
(0.191906 0.59163 0.0108743)
(0.256546 0.708094 0.0380967)
(0.235255 0.649859 0.029811)
(0.294308 0.818579 0.0352846)
(0.294861 0.817916 0.031661)
(0.228341 0.641848 0.0283141)
(0.240733 0.669794 0.035546)
(0.319301 0.863382 0.0347602)
(0.252228 0.694858 0.0310492)
(0.309824 0.8397 0.0406899)
(0.304006 0.808917 0.0427077)
(0.227111 0.644463 0.029901)
(0.222473 0.618894 0.0333459)
(0.262538 0.735661 0.0332845)
(0.247426 0.690161 0.0349281)
(0.253656 0.686303 0.0330137)
(0.275877 0.748914 0.0382203)
(0.252688 0.686818 0.0318974)
(0.254473 0.681521 0.0366858)
(0.232457 0.622257 0.0233586)
(0.24127 0.665663 0.0306333)
(0.356246 0.904515 0.0201895)
(0.370242 0.925049 0.0100046)
(0.411706 1.02257 0.0133215)
(0.423631 1.07135 0.0215906)
(0.396275 0.988866 0.0180479)
(0.335891 0.845538 0.0120603)
(0.333359 0.831891 0.0198878)
(0.35028 0.886619 0.0210677)
(0.379328 0.963335 0.0107759)
(0.390004 0.980726 0.0168542)
(0.392317 0.96899 0.013503)
(0.39731 0.98972 0.0175152)
(0.349812 0.870061 0.0130714)
(0.324824 0.812377 0.0102393)
(0.35453 0.872466 0.014649)
(0.327703 0.820423 0.0170761)
(0.322047 0.791767 0.0130732)
(0.340065 0.844412 0.01778)
(0.347213 0.893684 0.0119383)
(0.364073 0.924932 0.0204994)
(0.378206 0.944528 0.0198541)
(0.374522 0.954631 0.0310744)
(0.38856 0.988814 0.0307444)
(0.331562 0.834322 0.0272863)
(0.333491 0.841133 0.0205401)
(0.333737 0.852786 0.0280688)
(0.315306 0.813699 0.0154616)
(0.33526 0.838252 0.0150676)
(0.318145 0.8381 0.0077281)
(0.327661 0.825032 0.0200824)
(0.306791 0.804946 0.00817204)
(0.330282 0.780773 0.0456719)
(0.318216 0.766651 0.0530848)
(0.329475 0.781575 0.0505509)
(0.318737 0.768526 0.0523006)
(0.345433 0.848604 0.0510704)
(0.323367 0.797399 0.0428326)
(0.392497 0.946418 0.0434782)
(0.367717 0.89914 0.0526139)
(0.362373 0.869305 0.051567)
(0.3825 0.935538 0.049911)
(0.398889 0.975036 0.00493867)
(0.409027 1.05991 0.0112932)
(0.414219 1.0508 0.00112107)
(0.378121 0.974787 0.00375678)
(0.367578 0.966482 0.00773689)
(0.385297 0.992389 0.00619824)
(0.403265 1.00745 0.00163766)
(0.261003 0.601211 0.0471049)
(0.235979 0.543627 0.0418239)
(0.311724 0.711505 0.0437157)
(0.257592 0.566372 0.0412737)
(0.237432 0.542344 0.040864)
(0.286024 0.664119 0.0377215)
(0.262014 0.609953 0.0433566)
(0.245175 0.561633 0.0454227)
(0.225072 0.524134 0.0418151)
(0.257532 0.60813 0.0395196)
(0.257616 0.60603 0.0435665)
(0.300948 0.680726 0.0419139)
(0.296834 0.716858 0.0447751)
(0.303422 0.705338 0.0454293)
(0.234556 0.533883 0.0375964)
(0.268555 0.702444 0.0326177)
(0.252925 0.645126 0.0212858)
(0.254338 0.659697 0.0224175)
(0.251758 0.683696 0.0238283)
(0.317883 0.853289 0.0312017)
(0.354208 0.920848 0.0340775)
(0.331748 0.890438 0.0263708)
(0.292102 0.809965 0.026651)
(0.310332 0.841918 0.0281492)
(0.268457 0.71237 0.0254719)
(0.280075 0.743518 0.025419)
(0.24901 0.655225 0.0234933)
(0.267881 0.694526 0.0307189)
(0.329992 0.89175 0.0214124)
(0.320321 0.855635 0.0272719)
(0.277712 0.715664 0.0343644)
(0.289379 0.767486 0.0279276)
(0.271806 0.73062 0.0239046)
(0.357603 0.934442 0.0324587)
(0.313115 0.812961 0.0321945)
(0.334432 0.869793 0.0297248)
(0.346412 0.776927 0.0158968)
(0.347059 0.777185 0.0244058)
(0.309569 0.705419 0.0412533)
(0.323099 0.743631 0.0434547)
(0.308471 0.677267 0.0373274)
(0.322053 0.738467 0.0355009)
(0.313326 0.690972 0.0262121)
(0.356677 0.827679 0.0388841)
(0.361259 0.843305 0.0407097)
(0.341239 0.753188 0.0152827)
(0.352477 0.796843 0.0320489)
(0.311483 0.679141 0.0223925)
(0.310755 0.707655 0.0396962)
(0.322068 0.749816 0.0395454)
(0.354263 0.80011 0.0318537)
(0.355724 0.906954 0.0128821)
(0.357692 0.912841 0.0137919)
(0.401607 1.04272 0.0126125)
(0.404294 1.02338 0.012623)
(0.35703 0.897847 0.016926)
(0.376919 0.966714 0.0163406)
(0.38937 0.984479 0.017908)
(0.316914 0.803192 0.00750615)
(0.314455 0.803626 0.00808177)
(0.365013 0.953362 0.0171935)
(0.373145 0.960675 0.0163887)
(0.361386 0.926858 0.014582)
(0.356064 0.917689 0.0171451)
(0.368431 0.934212 0.0129758)
(0.314611 0.708189 0.035207)
(0.302995 0.683747 0.0315812)
(0.231665 0.530115 0.0305207)
(0.252466 0.565409 0.0383837)
(0.320523 0.736093 0.0394724)
(0.332187 0.766227 0.0383699)
(0.301699 0.677895 0.0449067)
(0.255591 0.592958 0.0306308)
(0.242928 0.55149 0.0391471)
(0.217137 0.498781 0.0376508)
(0.318786 0.727173 0.0411705)
(0.320947 0.739959 0.0454932)
(0.313547 0.70806 0.0434828)
(0.25974 0.593416 0.037168)
(0.238091 0.549412 0.0336224)
(0.264175 0.631425 0.0389162)
(0.257016 0.599125 0.0408617)
(0.308022 0.710598 0.0432333)
(0.248569 0.578806 0.0418431)
(0.216223 0.491676 0.0316112)
(0.434888 1.08571 -0.00936764)
(0.439951 1.10154 -0.00325369)
(0.43047 1.07303 -0.0104267)
(0.443038 1.1177 0.000484062)
(0.444213 1.08773 -0.00123747)
(0.432564 1.06235 -0.0228526)
(0.437002 1.0668 -0.0266331)
(0.402716 0.955636 -0.0346249)
(0.444225 1.09659 -0.00716076)
(0.421174 1.03409 -0.0125059)
(0.451235 1.10066 -0.00918426)
(0.439568 1.05442 -0.0179321)
(0.412714 0.99933 -0.0325691)
(0.439232 1.095 -0.0132257)
(0.42563 1.03452 -0.0271876)
(0.427785 1.02289 -0.0399651)
(0.422532 1.0317 -0.0179188)
(0.398729 0.956859 -0.0363956)
(0.403145 0.974239 -0.0298643)
(0.344588 0.853457 0.014323)
(0.343197 0.843665 0.0203558)
(0.395208 0.992138 0.0157381)
(0.360319 0.889125 0.0169558)
(0.332924 0.82008 0.0192745)
(0.342204 0.849987 0.0113648)
(0.351965 0.875163 0.0125425)
(0.349788 0.856902 0.015853)
(0.415686 1.02663 0.0167893)
(0.415471 1.03754 0.0224515)
(0.367338 0.903543 0.0223018)
(0.20124 0.577975 -0.00161617)
(0.200768 0.569871 -0.0061284)
(0.221086 0.626418 0.00384124)
(0.20947 0.614116 0.0014845)
(0.206128 0.589948 -0.00446676)
(0.200097 0.601102 -0.00407514)
(0.196691 0.569317 -0.00108563)
(0.202891 0.605616 0.00195671)
(0.203868 0.59695 0.00221072)
(0.249757 0.708779 -0.00780118)
(0.259284 0.769332 -0.00517996)
(0.255698 0.746544 -0.0019796)
(0.257604 0.754689 0.00169435)
(0.210443 0.613506 -0.00414334)
(0.237835 0.702832 -0.0022136)
(0.318941 0.769364 0.0501868)
(0.344595 0.848234 0.0569427)
(0.329241 0.84042 0.0538157)
(0.341379 0.863035 0.0547489)
(0.315798 0.7772 0.0474894)
(0.317539 0.787193 0.0493468)
(0.305567 0.723942 0.0430564)
(0.325817 0.787516 0.0490975)
(0.321866 0.82751 0.0519106)
(0.333173 0.84635 0.049789)
(0.269792 0.673587 0.0466919)
(0.268493 0.693981 0.0485179)
(0.266232 0.646864 0.051155)
(0.241447 0.591183 0.0496055)
(0.254793 0.61439 0.0391648)
(0.223545 0.548299 0.0423217)
(0.257632 0.628252 0.0444096)
(0.250603 0.630647 0.0522347)
(0.328818 0.803116 0.0530718)
(0.245831 0.623572 0.041079)
(0.217275 0.551577 0.0424821)
(0.275279 0.702419 0.0410737)
(0.257955 0.647379 0.0436213)
(0.244485 0.618633 0.0467313)
(0.35684 0.849831 0.00597262)
(0.326062 0.795144 0.00879423)
(0.334873 0.802563 0.0131442)
(0.314798 0.75853 0.00853181)
(0.352154 0.837122 0.0125212)
(0.332456 0.7949 0.0104015)
(0.34661 0.832629 0.00750101)
(0.353235 0.878502 0.000740326)
(0.412467 1.00557 0.0167271)
(0.419576 1.00033 0.00674457)
(0.406533 0.979174 0.00987947)
(0.420633 1.0138 0.0121535)
(0.320438 0.784103 0.0110182)
(0.294713 0.723273 0.00924499)
(0.367202 0.904654 0.00274567)
(0.318012 0.781665 0.00222723)
(0.315867 0.779462 0.00593432)
(0.395221 0.976664 -0.00103236)
(0.403425 0.99706 0.00173948)
(0.221911 0.635824 0.0102242)
(0.207098 0.582301 0.0111449)
(0.229179 0.664777 0.0156605)
(0.219175 0.633476 0.0263887)
(0.207838 0.605061 0.0247254)
(0.221023 0.620981 0.0259786)
(0.195187 0.551886 0.0201923)
(0.224976 0.634475 0.0119582)
(0.230362 0.661687 0.0151886)
(0.260957 0.745579 0.0193312)
(0.226603 0.651234 0.0143532)
(0.342669 0.816342 0.0284069)
(0.338351 0.801921 0.0125747)
(0.319465 0.778607 0.00767324)
(0.365361 0.876189 0.0111465)
(0.423792 0.997257 0.0188987)
(0.419783 0.999302 0.0244056)
(0.344289 0.792441 0.0228819)
(0.326209 0.768482 0.0256429)
(0.375843 0.878379 0.0249924)
(0.332632 0.775012 0.0176171)
(0.306699 0.729767 0.0177616)
(0.336506 0.8377 0.0140895)
(0.334068 0.830276 0.0138997)
(0.330535 0.823004 0.0170119)
(0.433317 1.02045 0.0122639)
(0.420393 0.984562 0.0179483)
(0.424534 1.01084 0.00863406)
(0.352834 0.835944 0.00759864)
(0.357698 0.852447 0.007915)
(0.416363 0.997076 0.0159116)
(0.254764 0.561456 0.0314655)
(0.228024 0.513072 0.0253539)
(0.298138 0.650914 0.0333849)
(0.304081 0.662105 0.0391377)
(0.288333 0.629549 0.03498)
(0.231508 0.507785 0.0299477)
(0.207944 0.460471 0.0347043)
(0.251201 0.570054 0.0306995)
(0.30782 0.694841 0.039485)
(0.297087 0.673249 0.0398671)
(0.289409 0.638408 0.0393135)
(0.253913 0.553109 0.0329919)
(0.235201 0.524652 0.0353998)
(0.252736 0.580223 0.0377368)
(0.239692 0.540586 0.0402314)
(0.216551 0.481569 0.0337099)
(0.250934 0.566551 0.0383145)
(0.284964 0.64472 0.0352684)
(0.405912 1.03028 0.0284931)
(0.386198 1.02802 0.034385)
(0.408837 1.07358 0.0345038)
(0.41715 1.07847 0.0140454)
(0.396733 1.0493 0.0340158)
(0.403254 1.05531 0.0329557)
(0.399717 1.01738 0.0333754)
(0.380414 1.00011 0.0416305)
(0.394569 1.00279 0.0398133)
(0.376736 1.0052 0.0432244)
(0.396092 1.01184 0.0356278)
(0.404021 1.01404 0.0284878)
(0.418621 1.06767 0.00936878)
(0.414717 1.06031 0.0269884)
(0.413529 1.0422 0.0169429)
(0.312256 0.82936 0.0141278)
(0.264688 0.706422 0.00998682)
(0.315282 0.855622 0.0149461)
(0.324944 0.862137 0.0124492)
(0.266187 0.719264 0.0129379)
(0.273325 0.715785 0.0131568)
(0.259032 0.686826 0.0158769)
(0.249499 0.668845 0.0103154)
(0.2646 0.712175 0.0199589)
(0.245838 0.657646 0.0150575)
(0.267461 0.701333 0.00884638)
(0.24351 0.634942 0.0125393)
(0.257434 0.694169 0.0176484)
(0.228128 0.618445 0.0127949)
(0.233485 0.628346 0.00730303)
(0.355395 0.855403 0.0126589)
(0.388775 0.947857 0.0181418)
(0.342436 0.852302 0.0059659)
(0.361219 0.895374 0.0123198)
(0.316126 0.778792 0.0139659)
(0.290881 0.703555 0.0130179)
(0.273643 0.651656 0.0184271)
(0.294742 0.6902 0.0115509)
(0.379246 0.952409 0.00841156)
(0.356254 0.895855 0.00681731)
(0.28704 0.689734 0.0179798)
(0.301627 0.739868 0.0147262)
(0.301681 0.743403 0.0161259)
(0.300308 0.730205 0.0190847)
(0.31471 0.76973 0.0144027)
(0.314701 0.74351 0.0168875)
(0.301069 0.725361 0.0194471)
(0.364516 0.869425 0.028704)
(0.311748 0.753027 0.0251456)
(0.288212 0.701522 0.0151281)
(0.300769 0.728926 0.0205044)
(0.271358 0.651476 0.0136411)
(0.382277 0.9098 0.0201214)
(0.399421 0.95394 0.0231308)
(0.321807 0.772181 0.0246551)
(0.31433 0.767878 0.0209249)
(0.358692 0.849743 0.0222911)
(0.312096 0.760392 0.0129789)
(0.294672 0.720663 0.0109424)
(0.272741 0.667766 0.0100476)
(0.42324 1.04752 -0.0076226)
(0.417548 1.02426 -0.0120793)
(0.41731 1.01953 -0.0175659)
(0.410086 0.99687 -0.0181475)
(0.415139 1.00388 -0.0283593)
(0.422261 1.0215 -0.0171595)
(0.391158 0.910423 -0.0467745)
(0.411148 0.986275 -0.0356968)
(0.413365 0.996498 -0.0311479)
(0.369306 0.894872 -0.0449908)
(0.425037 1.06077 -0.0371134)
(0.394354 0.94205 -0.031123)
(0.393098 0.925601 -0.0351916)
(0.379199 0.931737 -0.0338979)
(0.340866 0.778292 -0.0338387)
(0.395242 0.923246 -0.0247556)
(0.403881 0.979297 -0.0340791)
(0.432664 1.05846 -0.012045)
(0.428527 1.05735 -0.0122146)
(0.402567 0.981379 -0.0223547)
(0.401798 0.973407 -0.0486517)
(0.37811 0.897932 -0.0464407)
(0.398513 0.959095 -0.0113914)
(0.424878 1.02329 -0.00962401)
(0.411099 1.01357 -0.00233904)
(0.416251 1.04417 -0.00136563)
(0.440919 1.09377 -0.00796548)
(0.431093 1.08417 -0.0108167)
(0.405365 0.989769 -0.0376941)
(0.378639 0.896313 -0.0340116)
(0.398796 0.91886 -0.0238425)
(0.430917 1.06377 -0.0151223)
(0.40169 1.02824 -0.0259745)
(0.406508 1.04632 -0.0231745)
(0.406829 1.04043 -0.0299797)
(0.399971 1.03823 -0.0159878)
(0.39693 1.01047 -0.031734)
(0.417399 1.06663 -0.0244268)
(0.421039 1.06394 -0.00993343)
(0.421601 1.05637 -0.0201456)
(0.430599 1.01672 -0.047767)
(0.432384 1.04981 -0.0378389)
(0.411968 1.02347 -0.0466802)
(0.421808 1.04848 -0.0227441)
(0.433116 1.04449 -0.0287208)
(0.42761 1.04909 -0.0191357)
(0.425806 1.06323 -0.0197897)
(0.417187 0.997082 -0.0554768)
(0.425103 1.01689 -0.0475447)
(0.424344 1.03013 -0.026663)
(0.444229 1.08297 -0.0193411)
(0.453555 1.09321 -0.00693677)
(0.253639 0.721542 0.0113372)
(0.265666 0.758795 0.0158394)
(0.282124 0.809671 0.00187424)
(0.269559 0.767675 0.0190681)
(0.274917 0.817415 0.0278205)
(0.253889 0.734839 0.021556)
(0.293143 0.834552 0.0314852)
(0.303073 0.851789 0.0135553)
(0.300651 0.844966 0.0230138)
(0.300047 0.843632 0.0104905)
(0.331941 0.918642 0.010419)
(0.403856 0.978221 0.0307068)
(0.433284 1.04891 0.0170752)
(0.415635 1.01636 0.0243578)
(0.374605 0.93784 0.0183)
(0.410526 1.01278 0.0192656)
(0.392391 0.975218 0.0131557)
(0.379943 0.932596 0.0293845)
(0.409585 1.00111 0.0234049)
(0.425431 1.03935 0.0226233)
(0.386765 0.954457 0.0289073)
(0.372232 0.916576 0.0246856)
(0.35988 0.872358 0.023693)
(0.367329 0.900001 0.0280176)
(0.349524 0.849812 0.0324899)
(0.305787 0.709503 -0.0022999)
(0.325458 0.742448 0.0125728)
(0.362464 0.836478 0.025674)
(0.327402 0.75289 0.0104554)
(0.335034 0.76443 0.00472566)
(0.327526 0.759351 0.00477877)
(0.323498 0.737553 0.00575694)
(0.385595 0.933273 0.00755733)
(0.380451 0.92846 0.000223561)
(0.373194 0.860429 0.00619689)
(0.391629 0.95084 0.0139894)
(0.386466 0.934271 0.0195197)
(0.352427 0.829664 0.0183872)
(0.35605 0.863634 -0.00669051)
(0.337331 0.822175 -0.0106235)
(0.349704 0.825659 -0.00532374)
(0.344723 0.81954 0.00167333)
(0.326912 0.745386 -0.00540311)
(0.417409 1.08377 0.0192752)
(0.39891 1.04986 0.0214195)
(0.373745 0.980494 0.0272075)
(0.341477 0.916435 0.024904)
(0.412466 1.04879 0.0272797)
(0.400494 1.05209 0.0206806)
(0.352701 0.947652 0.0271877)
(0.367733 0.971685 0.0196689)
(0.340358 0.919447 0.0215621)
(0.362467 0.945471 0.0315922)
(0.388705 1.01233 0.0331082)
(0.372696 0.977551 0.0306026)
(0.431906 1.0895 0.0218767)
(0.402348 1.02251 0.0318878)
(0.401941 1.01924 0.0317652)
(0.385768 0.981514 0.0324797)
(0.409481 1.03821 0.0254558)
(0.427247 1.07519 0.0238874)
(0.356933 1.01254 0.0231185)
(0.370389 1.03262 0.0144303)
(0.354197 0.997285 0.0453141)
(0.340305 0.966523 0.0502152)
(0.284648 0.862891 0.0495163)
(0.292037 0.86744 0.0453586)
(0.373485 1.00886 0.0203194)
(0.35701 1.00149 0.0302922)
(0.364023 1.00977 0.014988)
(0.371485 1.03586 0.0164927)
(0.283893 0.864566 0.0324459)
(0.33811 0.974126 0.0527634)
(0.358848 0.987064 0.0115037)
(0.316393 0.919747 0.0305237)
(0.322423 0.942972 0.0223868)
(0.317757 0.954515 0.0381654)
(0.340848 0.993745 0.042022)
(0.362223 1.00866 0.0203404)
(0.35782 1.01614 0.0144386)
(0.346818 1.01031 0.0333558)
(0.362024 1.04598 0.0141198)
(0.190268 0.525715 -0.00922851)
(0.166294 0.460935 -0.0101666)
(0.174856 0.462237 -0.011659)
(0.166136 0.45172 -0.00796902)
(0.198208 0.529784 -0.0113762)
(0.217129 0.590471 -0.00803434)
(0.197614 0.553418 -0.0136897)
(0.211969 0.597782 -0.00972922)
(0.180813 0.495474 -0.0119147)
(0.188875 0.48263 -0.0160089)
(0.183813 0.476134 -0.00728389)
(0.209447 0.546109 -0.0144798)
(0.235066 0.625283 -0.0168243)
(0.232978 0.658465 -0.0131541)
(0.231933 0.637428 -0.0170885)
(0.1881 0.488174 -0.0119302)
(0.243213 0.66024 -0.0176848)
(0.248917 0.654545 -0.0191379)
(0.380716 1.00649 0.0322138)
(0.386404 1.02063 0.0286048)
(0.392102 1.01923 0.0262361)
(0.414314 1.06469 0.0211184)
(0.399471 1.04754 0.0274427)
(0.386664 1.01299 0.0308142)
(0.387089 1.01013 0.0345096)
(0.361706 0.960216 0.0303581)
(0.388792 1.02232 0.0279048)
(0.366625 0.963794 0.0301924)
(0.352775 0.978175 0.0310858)
(0.355625 0.9536 0.0312257)
(0.38349 0.992059 -0.000375672)
(0.374973 0.993939 0.0262209)
(0.355908 0.957225 0.0351242)
(0.361372 0.973729 0.00977719)
(0.347939 0.963117 0.0199767)
(0.356013 0.960118 0.0137224)
(0.372741 0.993781 -0.000253779)
(0.363606 1.00021 0.0056493)
(0.355936 0.977689 -0.00454807)
(0.322226 0.905082 -0.00433519)
(0.334827 0.927279 -0.0150075)
(0.352629 0.959671 -0.0159279)
(0.370255 0.944296 -0.0337081)
(0.372513 0.94796 -0.0302626)
(0.319207 0.884768 -0.00562193)
(0.343692 0.946724 0.00168709)
(0.330374 0.935234 0.00117954)
(0.319372 0.898 -0.0163046)
(0.325042 0.879349 -0.0333755)
(0.348027 0.946968 -0.0286281)
(0.369024 0.95807 -0.0310323)
(0.308616 0.821178 -0.0319428)
(0.291985 0.821771 -0.0229801)
(0.318667 0.887169 -0.00908169)
(0.315234 0.853569 -0.0224311)
(0.311023 0.873761 -0.00891222)
(0.343608 0.89724 -0.0451462)
(0.356168 0.914031 -0.0414855)
(0.317352 0.841072 -0.029855)
(0.306124 0.834738 -0.0224413)
(0.360531 0.845953 -0.06358)
(0.38918 0.92558 -0.0506207)
(0.384353 0.988667 -0.013749)
(0.389576 1.01927 -0.0143861)
(0.392892 1.02324 -0.0150484)
(0.383548 1.01293 -0.0152598)
(0.398449 0.96352 -0.036363)
(0.401067 0.98212 -0.0360087)
(0.408972 1.00791 -0.0249774)
(0.350713 0.866194 -0.0541133)
(0.345814 0.912976 -0.0294797)
(0.368413 0.891807 -0.0524235)
(0.343388 0.893539 -0.0242873)
(0.310679 0.815481 -0.0336216)
(0.299046 0.8168 -0.0197961)
(0.32761 0.899173 -0.00857986)
(0.344982 0.944636 0.00225411)
(0.346267 0.919684 -0.0175874)
(0.333452 0.910419 -0.00373649)
(0.355068 0.897164 -0.0347755)
(0.30871 0.801277 -0.0332339)
(0.306985 0.829787 -0.0218912)
(0.31504 0.852716 -0.0201716)
(0.332083 0.908661 -0.0148726)
(0.319138 0.861146 -0.0128988)
(0.335986 0.910339 -0.00544121)
(0.344834 0.868353 -0.0367267)
(0.362493 0.946835 -0.0322864)
(0.363074 0.950652 -0.0230703)
(0.279008 0.71515 0.0218735)
(0.251577 0.651867 0.0138916)
(0.301651 0.776514 0.0199993)
(0.325127 0.833635 0.0259508)
(0.284101 0.724522 0.0208546)
(0.240814 0.631475 0.018952)
(0.218067 0.575868 0.0182624)
(0.25033 0.665958 0.0200079)
(0.267315 0.694383 0.0187533)
(0.239934 0.597484 0.0143245)
(0.248155 0.623118 0.00859413)
(0.252386 0.56289 0.0432512)
(0.243009 0.542962 0.0437582)
(0.303907 0.677571 0.0430803)
(0.298256 0.66059 0.0400552)
(0.319988 0.720149 0.0456916)
(0.324989 0.730675 0.048374)
(0.247155 0.552533 0.0466566)
(0.226892 0.520335 0.0461994)
(0.25457 0.594553 0.0527719)
(0.220798 0.51027 0.0419561)
(0.234826 0.552445 0.0557153)
(0.233432 0.532041 0.0482069)
(0.257122 0.582468 0.045751)
(0.307598 0.699136 0.0610814)
(0.260656 0.58927 0.0489078)
(0.267234 0.622428 0.0545875)
(0.236356 0.56044 0.0478943)
(0.27371 0.633876 0.0546807)
(0.314912 0.734126 0.0594112)
(0.312792 0.73357 0.0604019)
(0.388097 1.02125 0.0336582)
(0.39498 1.03892 0.0276846)
(0.358484 0.964665 0.0298312)
(0.332248 0.897892 0.0261709)
(0.402891 1.05879 0.0241175)
(0.405601 1.07024 0.0251487)
(0.351616 0.959863 0.0329797)
(0.370367 0.987324 0.0409559)
(0.361832 0.966918 0.0427334)
(0.353798 0.97335 0.0261237)
(0.322963 0.889367 0.0316976)
(0.381608 1.02057 0.0211631)
(0.395696 1.03946 0.0234724)
(0.322843 0.900547 0.0372497)
(0.346959 0.946241 0.0193724)
(0.373283 0.998597 0.0199239)
(0.329345 0.906797 0.0303891)
(0.371223 0.994962 0.0195547)
(0.351871 0.959812 0.034894)
(0.338848 0.930435 0.0239371)
(0.32633 0.900846 0.0261788)
(0.400493 1.03442 0.0332801)
(0.38304 0.988369 0.0376445)
(0.381582 0.985211 0.0328378)
(0.400571 1.03472 0.0333572)
(0.388527 1.01451 0.0332917)
(0.396527 1.01842 0.0323184)
(0.376392 0.961778 0.0382576)
(0.399217 1.02633 0.0344351)
(0.435727 1.08889 0.0121053)
(0.43549 1.08651 0.0154151)
(0.41328 1.05704 0.010333)
(0.431364 1.08498 0.0160945)
(0.38977 0.975727 0.040966)
(0.400028 1.00608 0.0386285)
(0.410973 1.03511 0.0287171)
(0.413284 1.04657 0.0197261)
(0.410432 1.03423 0.0359504)
(0.400548 1.03601 0.0281888)
(0.416036 1.05529 0.035266)
(0.409961 1.05669 0.0295866)
(0.403132 0.958548 0.0434129)
(0.395033 0.929139 0.0401384)
(0.391288 0.954854 0.0472591)
(0.419208 1.01616 0.0329851)
(0.413531 1.00814 0.0350054)
(0.37669 0.89102 0.0435785)
(0.387308 0.951275 0.0446848)
(0.416585 1.0041 0.0342558)
(0.417398 1.01858 0.0341445)
(0.383646 0.915024 0.0420094)
(0.256881 0.665562 0.0124167)
(0.262339 0.663506 0.015961)
(0.281976 0.719244 0.00819947)
(0.268624 0.685513 0.0120341)
(0.34328 0.863058 0.0115108)
(0.33515 0.844718 0.0101567)
(0.269903 0.655873 0.0120337)
(0.245921 0.61437 0.0101059)
(0.27282 0.66767 0.00996786)
(0.250444 0.606421 0.00880608)
(0.269824 0.673056 0.0106084)
(0.280149 0.715826 0.0129271)
(0.34782 0.846507 0.0160658)
(0.35708 0.885085 0.0143105)
(0.327976 0.814803 0.00854875)
(0.295959 0.703859 0.00854954)
(0.276864 0.670662 0.00719068)
(0.297503 0.722818 0.00650056)
(0.299267 0.721926 0.0209674)
(0.303676 0.729978 0.0247008)
(0.268693 0.657752 0.0209458)
(0.273666 0.649545 0.0200973)
(0.325771 0.824131 0.0217517)
(0.326975 0.805529 0.0267125)
(0.299838 0.730597 0.0241061)
(0.277779 0.682415 0.0233842)
(0.361644 0.90941 0.0285367)
(0.324481 0.80849 0.0264019)
(0.351498 0.887496 0.0289058)
(0.343602 0.876506 0.0315357)
(0.33989 0.855096 0.0632686)
(0.320489 0.812427 0.0665903)
(0.3372 0.851273 0.0588547)
(0.354063 0.889659 0.0562996)
(0.320263 0.78644 0.0605797)
(0.312901 0.77613 0.056851)
(0.33111 0.833363 0.055558)
(0.298918 0.746504 0.0549335)
(0.332434 0.806477 0.0583423)
(0.346026 0.807257 0.0582251)
(0.302291 0.7457 0.0553039)
(0.368112 0.896927 0.0584286)
(0.331993 0.810848 0.0588075)
(0.329663 0.77219 0.0549965)
(0.306317 0.729398 0.055988)
(0.326825 0.78883 0.0573658)
(0.409292 1.034 0.0144806)
(0.418756 1.05083 0.0277025)
(0.412317 1.03033 0.035415)
(0.408372 1.01885 -0.00725437)
(0.404599 1.04491 -0.00938635)
(0.401998 1.01619 -0.0118106)
(0.427152 1.05793 0.0316)
(0.429898 1.07048 0.0242062)
(0.399826 1.01554 -0.000224631)
(0.397749 1.00917 -0.0111164)
(0.347343 0.915472 0.0313158)
(0.340299 0.887544 0.0432412)
(0.384914 0.979708 0.0443709)
(0.350781 0.925731 0.0377513)
(0.391179 1.01401 0.0268169)
(0.391891 1.02202 0.0118108)
(0.416862 1.04824 0.00670388)
(0.373624 0.996958 0.0134497)
(0.389024 1.02275 0.0052151)
(0.37892 0.967381 0.0366744)
(0.428562 1.05921 0.0235514)
(0.378814 1.00676 0.0220812)
(0.401846 1.00065 0.035126)
(0.3894 0.983853 0.044582)
(0.369751 0.944882 0.0421719)
(0.375779 0.958816 0.040167)
(0.392659 0.978587 0.0447063)
(0.38004 0.941194 0.0469583)
(0.295106 0.752072 0.0498628)
(0.319492 0.826898 0.0458467)
(0.329635 0.819248 0.043065)
(0.303561 0.762329 0.0512564)
(0.289278 0.739381 0.037204)
(0.315165 0.791149 0.0377122)
(0.26621 0.666942 0.0404687)
(0.418469 1.04023 -0.0169477)
(0.403221 1.03095 -0.00471832)
(0.410072 1.00325 -0.045224)
(0.403059 1.03912 -0.0125703)
(0.407264 1.04753 -0.00488523)
(0.407856 1.0835 -0.0237541)
(0.39637 1.05967 -0.0154651)
(0.404989 1.02987 -0.0293528)
(0.408278 1.05445 -0.0229109)
(0.433257 1.06225 -0.0103441)
(0.438679 1.06994 -0.0304942)
(0.407655 1.02242 -0.035383)
(0.396154 1.03681 -0.00707774)
(0.405376 1.0801 -0.0194165)
(0.420314 1.05246 -0.015481)
(0.403919 1.05909 -0.0139637)
(0.221351 0.64262 0.00813718)
(0.188495 0.545214 0.00753515)
(0.216094 0.62169 0.0141028)
(0.179513 0.522781 0.0114344)
(0.236585 0.685091 0.0287985)
(0.217564 0.622399 0.0252169)
(0.198973 0.597847 0.0115385)
(0.206836 0.58757 0.0143164)
(0.243142 0.693356 0.0235615)
(0.217992 0.614799 0.0182152)
(0.19905 0.555627 0.0103673)
(0.219384 0.618986 0.0152653)
(0.329899 0.73245 0.015036)
(0.334234 0.736008 -0.0125813)
(0.318491 0.706038 -0.00395005)
(0.320183 0.701324 0.00952878)
(0.358659 0.823617 -0.010737)
(0.354421 0.79997 -0.00951791)
(0.364907 0.787015 0.00515646)
(0.36613 0.827062 -0.00125211)
(0.381045 0.860162 0.000532709)
(0.338478 0.739918 -0.00333786)
(0.358322 0.789711 0.0196426)
(0.378849 0.859618 0.0123709)
(0.373047 0.834069 0.0291381)
(0.355179 0.79 0.0178522)
(0.328305 0.724895 0.0126702)
(0.323068 0.716175 0.0241969)
(0.336021 0.735988 0.0156783)
(0.351386 0.780312 0.0336691)
(0.344245 0.765773 0.0247064)
(0.355289 0.799275 0.0296629)
(0.252454 0.576812 0.00301109)
(0.262211 0.592797 -0.00170649)
(0.273663 0.593652 -0.000420346)
(0.28228 0.624542 0.00517059)
(0.27722 0.606276 0.00445654)
(0.214148 0.476924 -0.00105137)
(0.216543 0.479629 0.00338619)
(0.218238 0.476951 0.00740298)
(0.214283 0.487661 0.00569655)
(0.234679 0.506825 0.0177571)
(0.199501 0.442874 0.0147355)
(0.239757 0.520093 0.02027)
(0.237144 0.513016 0.0187294)
(0.206974 0.455319 0.012266)
(0.193006 0.424617 0.0051211)
(0.262862 0.579132 0.00820692)
(0.279097 0.610854 0.013941)
(0.272601 0.599092 0.0145533)
(0.277085 0.602782 0.0117357)
(0.266992 0.590484 0.0120271)
(0.193055 0.428631 0.0115819)
(0.235127 0.501885 0.0147887)
(0.209816 0.463986 0.00711555)
(0.200295 0.451132 0.00666226)
(0.212304 0.55078 -0.0110698)
(0.190871 0.491156 -0.0084383)
(0.171434 0.43348 -0.00885014)
(0.15797 0.403018 -0.0114096)
(0.181286 0.499749 -0.0088583)
(0.160154 0.422088 -0.00823354)
(0.183349 0.459193 -0.00965285)
(0.174489 0.439436 -0.0109005)
(0.160678 0.41541 -0.0144447)
(0.211938 0.554154 -0.0137789)
(0.306144 0.870571 0.0305329)
(0.31086 0.893654 0.0379689)
(0.295291 0.844203 0.0337288)
(0.269078 0.776123 0.0311507)
(0.331392 0.927869 0.0409631)
(0.383023 1.05115 0.0239209)
(0.367997 1.03923 0.0321553)
(0.313969 0.886705 0.0267279)
(0.314664 0.890357 0.0264446)
(0.29618 0.843487 0.0345389)
(0.298991 0.874798 0.0276963)
(0.293493 0.855092 0.0434924)
(0.306527 0.838141 0.0389624)
(0.368978 1.01222 0.0137965)
(0.382549 1.03779 0.0174923)
(0.346284 0.948197 0.0375387)
(0.348618 0.96462 0.0339345)
(0.380227 1.03823 0.0360165)
(0.359773 1.007 0.0408181)
(0.38437 1.05391 0.0296214)
(0.44453 1.07259 -6.02331e-05)
(0.439302 1.06162 -0.0202085)
(0.443439 1.07409 -0.016308)
(0.444406 1.08462 0.0065321)
(0.447075 1.0685 -0.0124516)
(0.458377 1.08824 -0.0279777)
(0.443857 1.07481 -0.00859451)
(0.448206 1.06722 -0.0242244)
(0.441347 1.04926 -0.0337569)
(0.439801 1.05615 0.0125611)
(0.427153 1.03053 0.00987004)
(0.435108 1.0462 -0.0315077)
(0.453272 1.08842 -0.00646739)
(0.448053 1.06871 -0.024836)
(0.452181 1.07462 0.00673419)
(0.448437 1.0715 0.00113328)
(0.445355 1.07454 -0.0195679)
(0.199975 0.558555 -0.00665045)
(0.197793 0.540437 -0.0121808)
(0.192278 0.509203 -0.0119009)
(0.201971 0.559988 -0.0135562)
(0.228148 0.628803 -0.0183421)
(0.224946 0.593516 -0.0175434)
(0.179775 0.450089 -0.0105963)
(0.155121 0.40544 -0.0063655)
(0.224034 0.594683 -0.0120177)
(0.16583 0.445789 -0.00795562)
(0.162109 0.430269 -0.0119165)
(0.214023 0.548327 -0.0170799)
(0.215825 0.544228 -0.0170136)
(0.172816 0.439472 -0.0126391)
(0.18853 0.482462 -0.0157519)
(0.182616 0.506583 -0.00608879)
(0.172328 0.462569 -0.0106882)
(0.163768 0.450315 -0.00547865)
(0.241548 0.647628 0.0326903)
(0.232747 0.621206 0.0275909)
(0.347868 0.881355 -0.0118192)
(0.344001 0.842405 -0.00389625)
(0.199456 0.587694 0.0280262)
(0.203013 0.572231 0.0225831)
(0.243836 0.606222 0.0136488)
(0.24772 0.613792 0.0189334)
(0.240213 0.654017 0.0127462)
(0.258679 0.686157 0.00518783)
(0.317649 0.765948 0.0290956)
(0.328665 0.773579 0.0355164)
(0.309657 0.808578 -0.00767349)
(0.325833 0.828387 0.00623991)
(0.310674 0.772058 0.00911279)
(0.215389 0.5475 0.0419364)
(0.232506 0.580731 0.0416632)
(0.229883 0.541216 0.0427933)
(0.232126 0.534583 0.0443808)
(0.227136 0.518387 0.0453275)
(0.218027 0.464839 0.0253119)
(0.191809 0.418587 0.022312)
(0.199388 0.423539 0.0190445)
(0.277598 0.706678 0.0056384)
(0.294436 0.760292 0.00201857)
(0.276484 0.721546 0.00621735)
(0.273893 0.744449 0.0145641)
(0.28728 0.783517 0.0194008)
(0.281232 0.804195 0.0115914)
(0.301142 0.845658 0.0323191)
(0.273288 0.75208 0.0201149)
(0.242342 0.693408 0.0164582)
(0.25573 0.706666 0.0166432)
(0.306048 0.720166 0.017923)
(0.292471 0.699249 0.0223006)