/*--------------------------------*- C++ -*----------------------------------*\
| =========                 |                                                 |
| \\      /  F ield         | OpenFOAM: The Open Source CFD Toolbox           |
|  \\    /   O peration     | Version:  v1612+                                |
|   \\  /    A nd           | Web:      www.OpenFOAM.com                      |
|    \\/     M anipulation  |                                                 |
\*---------------------------------------------------------------------------*/
FoamFile
{
    version     2.0;
    format      ascii;
    class       volScalarField;
    location    "200";
    object      p;
}
// * * * * * * * * * * * * * * * * * * * * * * * * * * * * * * * * * * * * * //

dimensions      [0 2 -2 0 0 0 0];

internalField   nonuniform List<scalar> 
19064
(
2.29359
2.30798
2.31094
2.31368
2.31658
2.31305
2.31118
2.31067
2.31267
2.31271
2.31308
2.31142
2.31284
2.31019
2.312
2.30687
2.31263
2.3145
2.31562
2.25639
2.25409
2.25552
2.25225
2.25263
2.24947
2.25389
2.24468
2.24905
2.25159
2.24996
2.26773
2.2649
2.27328
2.27362
2.25998
2.26611
2.26516
2.26344
2.36404
2.36391
2.36377
2.36602
2.36613
2.35636
2.35781
2.37211
2.37123
2.37273
2.36213
2.3591
2.36185
2.37438
2.36689
2.36744
2.35791
2.36711
2.39515
2.39787
2.40906
2.40904
2.4029
2.39537
2.39182
2.39939
2.39791
2.41419
2.41849
2.41103
2.40945
2.40066
2.39504
2.4021
2.41981
2.42408
2.41727
2.41493
2.4171
2.4183
2.40626
2.40816
2.39865
2.40097
2.30275
2.31089
2.30575
2.30479
2.30573
2.30512
2.30283
2.3007
2.30701
2.30512
2.30549
2.30408
2.30864
2.30873
2.28887
2.29007
2.28987
2.28572
2.28946
2.28756
2.28826
2.28767
2.28924
2.29077
2.28515
2.28916
2.28738
2.42116
2.41488
2.41671
2.4187
2.40976
2.4013
2.40258
2.40821
2.42263
2.41034
2.41404
2.42257
2.40509
2.41159
2.42187
2.4186
2.41067
2.41872
2.41238
2.40634
2.28179
2.28658
2.28521
2.28396
2.29123
2.28827
2.28366
2.28063
2.28311
2.28163
2.29019
2.28293
2.28757
2.29157
2.28914
2.28485
2.28748
2.2883
2.29236
2.2992
2.2929
2.2931
2.30133
2.29965
2.29865
2.29898
2.29764
2.3007
2.29916
2.29963
2.29829
2.29329
2.29372
2.2995
2.30284
2.30352
2.30089
2.29254
2.29784
2.29381
2.30217
2.29666
2.29416
2.39157
2.38119
2.39228
2.39949
2.38456
2.38954
2.38624
2.39241
2.39115
2.38674
2.37453
2.37584
2.37613
2.4012
2.39284
2.39687
2.39467
2.38393
2.37945
2.38195
2.38704
2.39603
2.40289
2.34119
2.34372
2.34353
2.3427
2.33959
2.33497
2.34074
2.33805
2.33458
2.3368
2.33608
2.35618
2.35918
2.35535
2.35307
2.34359
2.34522
2.3454
2.34715
2.35494
2.34513
2.34886
2.35201
2.34288
2.26847
2.27002
2.27207
2.27347
2.26208
2.26757
2.27428
2.26401
2.26666
2.2612
2.36905
2.36051
2.3637
2.3691
2.36473
2.37099
2.36767
2.36612
2.36064
2.3611
2.36304
2.36107
2.3344
2.33688
2.33115
2.32984
2.33201
2.33039
2.33966
2.33778
2.33315
2.32718
2.32605
2.32712
2.33837
2.3352
2.32994
2.33116
2.32917
2.3301
2.32329
2.32155
2.31969
2.31397
2.3239
2.3216
2.31571
2.31833
2.31831
2.32466
2.31773
2.31957
2.32043
2.31971
2.32096
2.31933
2.32306
2.3664
2.3674
2.37374
2.37166
2.36526
2.36503
2.36343
2.37019
2.3726
2.37616
2.37281
2.3795
2.36547
2.3643
2.37071
2.38133
2.3688
2.37216
2.39564
2.39204
2.39711
2.39826
2.3998
2.4014
2.39779
2.39112
2.39742
2.40553
2.41084
2.39958
2.40817
2.40732
2.41016
2.3169
2.31448
2.31122
2.31718
2.31869
2.32195
2.32268
2.31689
2.31036
2.3122
2.31238
2.31615
2.31265
2.32329
2.31558
2.31513
2.31341
2.31074
2.31676
2.28887
2.28943
2.28507
2.28332
2.28702
2.2884
2.29019
2.28801
2.28506
2.2909
2.29009
2.28687
2.29358
2.28866
2.30603
2.29947
2.30508
2.30721
2.30884
2.30851
2.30683
2.30861
2.30908
2.30733
2.30461
2.29719
2.30313
2.30295
2.3184
2.31898
2.317
2.31901
2.31946
2.31809
2.31714
2.3185
2.31512
2.31769
2.31779
2.31453
2.31669
2.31905
2.31567
2.31164
2.31274
2.31533
2.32047
2.31811
2.31348
2.31378
2.2726
2.27097
2.27159
2.27036
2.27087
2.27313
2.2725
2.26447
2.27037
2.27205
2.26822
2.26366
2.26441
2.26629
2.27072
2.26797
2.26685
2.26634
2.27107
2.26601
2.27239
2.27011
2.28452
2.28827
2.2861
2.28855
2.27206
2.26859
2.27401
2.27928
2.28308
2.28138
2.28407
2.28266
2.27268
2.28316
2.29265
2.28558
2.28653
2.29137
2.31511
2.31802
2.31369
2.32084
2.32591
2.32385
2.32137
2.3164
2.32394
2.32635
2.32972
2.3265
2.3256
2.32398
2.3269
2.32775
2.3223
2.32017
2.31721
2.36125
2.36096
2.35176
2.34843
2.34584
2.35116
2.3627
2.35908
2.36872
2.35603
2.35315
2.356
2.35575
2.35375
2.35725
2.36395
2.36271
2.36331
2.36975
2.3522
2.3551
2.35533
2.35041
2.35896
2.34846
2.34781
2.34346
2.34565
2.34462
2.34028
2.34602
2.35104
2.35199
2.3339
2.33633
2.34054
2.33255
2.34169
2.34475
2.34265
2.34304
2.33919
2.33538
2.33311
2.33981
2.33439
2.4079
2.41498
2.39509
2.40791
2.41506
2.39174
2.409
2.40097
2.40881
2.39977
2.39401
2.39504
2.39216
2.27223
2.29003
2.27986
2.28086
2.28092
2.27886
2.27816
2.27332
2.276
2.2664
2.26855
2.27724
2.27941
2.27718
2.2702
2.2672
2.31025
2.30841
2.30935
2.30898
2.3105
2.30899
2.31976
2.31873
2.30923
2.31671
2.31428
2.31069
2.31257
2.30988
2.31027
2.30594
2.30383
2.2997
2.30403
2.30419
2.3058
2.30765
2.30701
2.30744
2.29921
2.2974
2.29685
2.30744
2.29758
2.30432
2.30031
2.3062
2.30791
2.29562
2.29603
2.31089
2.30634
2.29786
2.38832
2.38705
2.39371
2.3829
2.38271
2.38411
2.38953
2.38613
2.39159
2.39387
2.38136
2.37904
2.38095
2.38198
2.39348
2.39801
2.39557
2.39017
2.39197
2.39261
2.43585
2.42755
2.42698
2.37859
2.38342
2.37859
2.38227
2.37604
2.39167
2.38739
2.38265
2.38416
2.37572
2.38305
2.38569
2.39185
2.38743
2.39144
2.39138
2.31471
2.31168
2.31768
2.31809
2.31485
2.31632
2.31566
2.31228
2.30392
2.30542
2.30285
2.30455
2.30108
2.30058
2.29899
2.30092
2.30532
2.29881
2.30495
2.30686
2.29996
2.30074
2.30068
2.29494
2.2943
2.29146
2.29071
2.2951
2.29298
2.29768
2.2956
2.29665
2.29088
2.29399
2.29217
2.29544
2.29022
2.29541
2.2902
2.3734
2.37489
2.37687
2.38177
2.37198
2.37492
2.38804
2.38327
2.38338
2.37396
2.37607
2.37587
2.37869
2.31575
2.31394
2.31467
2.31291
2.30886
2.30423
2.30609
2.31278
2.30052
2.29936
2.29433
2.29956
2.30364
2.29724
2.30435
2.33172
2.33553
2.33116
2.32486
2.32968
2.33567
2.33286
2.3377
2.32937
2.32763
2.33901
2.32861
2.32842
2.33025
2.34068
2.34018
2.33348
2.32685
2.33002
2.32765
2.33062
2.32536
2.34025
2.33992
2.34346
2.33531
2.33916
2.33285
2.33739
2.34574
2.34445
2.34046
2.33705
2.33697
2.3428
2.34152
2.33336
2.3421
2.33488
2.33218
2.33668
2.32963
2.32745
2.32858
2.32621
2.32785
2.32597
2.32991
2.3219
2.32712
2.32721
2.3305
2.32224
2.32877
2.32753
2.31954
2.32181
2.32308
2.32726
2.3237
2.33583
2.3381
2.33808
2.33892
2.3385
2.34556
2.34042
2.33989
2.33199
2.3396
2.34116
2.33879
2.34626
2.34565
2.34018
2.34444
2.34319
2.36381
2.36481
2.36298
2.36206
2.35768
2.36077
2.35286
2.35685
2.35788
2.32445
2.32584
2.32394
2.32561
2.32241
2.32696
2.32402
2.32744
2.32748
2.32772
2.32431
2.3246
2.32536
2.32259
2.33106
2.32711
2.32864
2.33019
2.35168
2.34681
2.34685
2.34297
2.34731
2.35653
2.34497
2.34619
2.3627
2.35306
2.34828
2.35856
2.35347
2.32638
2.32412
2.32064
2.31599
2.32095
2.3263
2.32107
2.31647
2.32278
2.31412
2.32023
2.32196
2.32561
2.32745
2.31872
2.31958
2.40223
2.40214
2.40623
2.41268
2.41696
2.42296
2.40648
2.41412
2.36101
2.36167
2.35946
2.36185
2.36043
2.36599
2.3797
2.37443
2.36384
2.36332
2.37315
2.37693
2.37333
2.37243
2.367
2.36727
2.34164
2.34362
2.33376
2.32827
2.33453
2.34063
2.33762
2.33042
2.33433
2.33574
2.34654
2.34259
2.336
2.34244
2.40881
2.4178
2.42334
2.40976
2.41513
2.41398
2.41185
2.41789
2.41516
2.42576
2.42481
2.42256
2.42766
2.40313
2.4083
2.41895
2.40646
2.41649
2.42092
2.40509
2.40242
2.36295
2.36985
2.35928
2.36242
2.375
2.37031
2.35703
2.35634
2.37144
2.36986
2.38059
2.36149
2.35523
2.37387
2.37901
2.37524
2.36853
2.37414
2.36239
2.36635
2.30899
2.30569
2.29619
2.29982
2.30152
2.30928
2.30783
2.307
2.30499
2.31049
2.30656
2.30021
2.31263
2.30934
2.31215
2.30817
2.30577
2.31063
2.37531
2.38191
2.37415
2.37761
2.3682
2.36808
2.3723
2.37315
2.37195
2.38456
2.37003
2.36537
2.36231
2.37045
2.37604
2.38019
2.3719
2.36748
2.3625
2.36496
2.27286
2.27391
2.27769
2.27727
2.27645
2.28232
2.28266
2.27192
2.28553
2.28023
2.28846
2.27723
2.28686
2.28975
2.28459
2.31958
2.32233
2.31923
2.32298
2.31984
2.32229
2.32633
2.31495
2.32498
2.31799
2.31377
2.31928
2.29791
2.29622
2.293
2.29012
2.29396
2.29707
2.30086
2.29191
2.29286
2.29469
2.29942
2.28919
2.2886
2.30174
2.30027
2.29356
2.27931
2.28067
2.28339
2.2817
2.27607
2.28181
2.28025
2.2868
2.28399
2.2869
2.28762
2.28775
2.28642
2.28091
2.31129
2.30877
2.31347
2.30226
2.31661
2.32103
2.31497
2.31902
2.31658
2.3176
2.3017
2.31817
2.31743
2.31022
2.379
2.37468
2.38222
2.37835
2.38449
2.38733
2.39055
2.39413
2.39353
2.27267
2.26884
2.26951
2.26396
2.27324
2.28036
2.26665
2.27028
2.27591
2.25716
2.26483
2.28011
2.26601
2.26836
2.27138
2.26452
2.2685
2.26413
2.26064
2.20922
2.19918
2.19728
2.21214
2.20495
2.21151
2.21546
2.21171
2.22808
2.2288
2.27284
2.26983
2.27174
2.26746
2.28011
2.27213
2.27338
2.26692
2.23795
2.24667
2.24606
2.30386
2.29697
2.29892
2.25947
2.24006
2.23786
2.27585
2.27295
2.27448
2.27052
2.27179
2.24351
2.24287
2.28591
2.28814
2.30054
2.29951
2.30739
2.27813
2.28028
2.28455
2.28201
2.28489
2.28152
2.26605
2.26268
2.26003
2.30983
2.30648
2.30573
2.31062
2.30885
2.31729
2.29172
2.29215
2.27627
2.26547
2.26475
2.28587
2.28724
2.28564
2.2844
2.33613
2.33063
2.33481
2.3327
2.29545
2.29826
2.29629
2.31441
2.32091
2.31308
2.30622
2.30196
2.29939
2.2754
2.28054
2.27591
2.29376
2.31098
2.31114
2.30894
2.30336
2.29917
2.29165
2.29073
2.29786
2.29641
2.29452
2.35368
2.35647
2.34775
2.34736
2.32982
2.32782
2.3263
2.30297
2.30443
2.30087
2.32995
2.32989
2.32466
2.30566
2.30316
2.31598
2.33098
2.33459
2.30555
2.30426
2.36912
2.37449
2.37029
2.37692
2.30578
2.30837
2.30443
2.30792
2.30807
2.30559
2.36431
2.36034
2.36019
2.32519
2.32516
2.31623
2.31334
2.3148
2.3382
2.33558
2.34577
2.31298
2.31592
2.31914
2.39629
2.38991
2.39446
2.3228
2.32124
2.36152
2.36247
2.33416
2.33093
2.3279
2.32341
2.32787
2.3262
2.3292
2.32507
2.36805
2.36972
2.32625
2.32853
2.32626
2.40436
2.40511
2.35927
2.3539
2.34975
2.346
2.34604
2.33542
2.33351
2.33596
2.403
2.40591
2.3381
2.33474
2.33759
2.32558
2.35083
2.3504
2.34632
2.40655
2.40813
2.37829
2.38049
2.42936
2.43419
2.43499
2.33858
2.33634
2.33622
2.34584
2.34808
2.36103
2.36301
2.34673
2.435
2.42284
2.42438
2.43104
2.39469
2.39056
2.38939
2.45282
2.45546
2.45018
2.39707
2.38636
2.38838
2.3484
2.34777
2.34962
2.35215
2.42695
2.42947
2.38466
2.37702
2.37909
2.45238
2.45234
2.42231
2.42513
2.40043
2.39123
2.39212
2.39653
2.35199
2.35132
2.35871
2.35479
2.36347
2.35882
2.36303
2.35974
2.3705
2.36858
2.41779
2.38819
2.37758
2.39094
2.38888
2.37761
2.37221
2.37979
2.37411
2.37313
2.36437
2.36376
2.37584
2.38202
2.38295
2.37802
2.35025
2.3475
2.3492
2.35286
2.3499
2.34766
2.35864
2.3537
2.39778
2.40379
2.41067
2.41732
2.41948
2.45536
2.45511
2.46073
2.44222
2.45371
2.4517
2.4237
2.42494
2.43076
2.42462
2.4443
2.44356
2.44819
2.43808
2.43508
2.42409
2.43762
2.43611
2.42692
2.42686
2.43615
2.43946
2.36167
2.3601
2.36767
2.3544
2.35712
2.35865
2.35733
2.37781
2.38651
2.39333
2.38151
2.37904
2.38735
2.38239
2.39072
2.39346
2.37376
2.36338
2.37421
2.37557
2.37555
2.41466
2.4148
2.42203
2.41675
2.42688
2.42242
2.39688
2.4007
2.41328
2.41656
2.41629
2.40062
2.41606
2.41567
2.34751
2.34479
2.35111
2.34249
2.34549
2.34723
2.3442
2.34406
2.34856
2.35325
2.34603
2.34793
2.34502
2.34788
2.3422
2.34428
2.34218
2.33883
2.33706
2.34454
2.34123
2.34341
2.34906
2.3518
2.35047
2.3511
2.35382
2.40114
2.39046
2.40013
2.38197
2.38349
2.39075
2.38883
2.36153
2.36165
2.37685
2.37604
2.36273
2.37431
2.37974
2.44011
2.43033
2.44246
2.43496
2.42802
2.45054
2.4398
2.45041
2.4552
2.44808
2.45278
2.45232
2.45778
2.44815
2.4529
2.45495
2.44682
2.44717
2.36327
2.37191
2.40264
2.40843
2.41576
2.40396
2.40141
2.3969
2.39949
2.39226
2.4021
2.40629
2.4066
2.39396
2.39021
2.41147
2.40218
2.41424
2.41741
2.41033
2.41683
2.41475
2.44212
2.4438
2.43744
2.43348
2.4274
2.43361
2.43419
2.43768
2.42676
2.4305
2.42849
2.33523
2.33678
2.34511
2.34711
2.34484
2.33277
2.34203
2.34634
2.3439
2.3364
2.34424
2.34055
2.34428
2.34473
2.33981
2.33728
2.33791
2.34459
2.34296
2.34276
2.34212
2.34332
2.34495
2.33813
2.34104
2.34559
2.34417
2.35809
2.35603
2.3538
2.35626
2.35285
2.35099
2.33176
2.33284
2.33901
2.33568
2.33676
2.33816
2.3388
2.33181
2.33745
2.33797
2.33751
2.33983
2.3382
2.3415
2.34063
2.33847
2.34323
2.33891
2.35077
2.34475
2.34044
2.34574
2.34827
2.43188
2.42652
2.43079
2.427
2.43055
2.41814
2.4207
2.41543
2.42037
2.36494
2.3739
2.36269
2.36085
2.36841
2.38059
2.37585
2.3559
2.35963
2.35517
2.35093
2.36609
2.37086
2.3676
2.3666
2.36923
2.37011
2.39553
2.3994
2.38291
2.38773
2.38544
2.38176
2.39029
2.38755
2.40265
2.39913
2.38826
2.41641
2.41785
2.42086
2.41853
2.41942
2.42016
2.41872
2.41665
2.41374
2.41125
2.40184
2.40293
2.41307
2.40575
2.41879
2.40723
2.4129
2.40936
2.4205
2.42216
2.33908
2.34155
2.34229
2.3416
2.33836
2.33794
2.34138
2.34399
2.34819
2.34823
2.34242
2.34335
2.35255
2.35114
2.35593
2.35367
2.35511
2.35902
2.35632
2.35496
2.35124
2.35685
2.34871
2.34854
2.3279
2.32507
2.33167
2.40827
2.41047
2.40531
2.38255
2.39288
2.38964
2.40835
2.39298
2.39407
2.39981
2.38614
2.38678
2.32901
2.33235
2.33094
2.32656
2.33039
2.3274
2.33222
2.33189
2.33101
2.3315
2.3283
2.33137
2.32733
2.33095
2.33374
2.33943
2.34407
2.334
2.33327
2.33996
2.34372
2.3493
2.34187
2.34297
2.34078
2.33931
2.33859
2.34147
2.36974
2.3677
2.36498
2.34743
2.34201
2.34507
2.3458
2.33536
2.33512
2.34294
2.34208
2.33835
2.33109
2.34274
2.34187
2.34206
2.34374
2.34444
2.35143
2.34556
2.34675
2.34215
2.34983
2.3485
2.34222
2.35001
2.34216
2.33598
2.35344
2.35297
2.34363
2.39439
2.40226
2.39618
2.39846
2.3976
2.39
2.40051
2.39974
2.39877
2.31825
2.32434
2.31601
2.31904
2.32307
2.32205
2.32074
2.32204
2.3255
2.32516
2.31917
2.31839
2.34923
2.34668
2.36208
2.35961
2.34304
2.34884
2.3569
2.3572
2.35521
2.34852
2.33741
2.35851
2.36018
2.3665
2.37051
2.36637
2.35751
2.35434
2.35341
2.35375
2.315
2.31731
2.32299
2.3211
2.32387
2.32473
2.31828
2.32014
2.32319
2.32453
2.32501
2.31923
2.3222
2.32187
2.32954
2.3352
2.33164
2.32773
2.32603
2.33466
2.33774
2.33582
2.33049
2.38305
2.37999
2.38399
2.37702
2.34563
2.34414
2.33911
2.34852
2.36085
2.36628
2.36487
2.35746
2.34713
2.35018
2.35682
2.34314
2.34877
2.35388
2.36681
2.35916
2.37245
2.35823
2.37115
2.36258
2.31037
2.31655
2.31358
2.32256
2.32941
2.31926
2.3155
2.31259
2.31291
2.31711
2.31971
2.32685
2.33318
2.32354
2.32588
2.32017
2.32184
2.38167
2.38231
2.38587
2.37991
2.38374
2.37339
2.38687
2.36931
2.3703
2.37969
2.37857
2.382
2.38422
2.38173
2.31841
2.31933
2.3098
2.31299
2.31316
2.31285
2.32082
2.32412
2.32041
2.34302
2.33869
2.34801
2.34162
2.33861
2.33514
2.33144
2.32547
2.32548
2.32711
2.32807
2.33566
2.33908
2.33731
2.3315
2.32942
2.33806
2.33576
2.34161
2.33876
2.32236
2.32393
2.32169
2.30982
2.31268
2.3125
2.31338
2.31456
2.31633
2.31681
2.31241
2.31647
2.31429
2.32425
2.31053
2.31884
2.32007
2.32073
2.32101
2.3207
2.31897
2.32175
2.3244
2.33161
2.32944
2.33531
2.32743
2.32547
2.3542
2.35841
2.35279
2.35725
2.35154
2.37539
2.37104
2.36189
2.37275
2.34668
2.34475
2.34777
2.35172
2.34882
2.29588
2.30287
2.30368
2.30635
2.30881
2.30842
2.30599
2.30618
2.31651
2.30918
2.31582
2.31698
2.30396
2.30439
2.29989
2.30401
2.30375
2.30407
2.30827
2.31772
2.32286
2.31527
2.30773
2.3035
2.31086
2.31333
2.30947
2.3099
2.31279
2.3103
2.30356
2.30623
2.30181
2.30344
2.30349
2.29898
2.29892
2.30426
2.30469
2.30155
2.30381
2.30168
2.30299
2.30891
2.30808
2.31273
2.31228
2.31025
2.31269
2.31268
2.313
2.30942
2.30815
2.30523
2.30864
2.30333
2.30376
2.30771
2.30758
2.30951
2.35406
2.3603
2.35749
2.34631
2.35855
2.36493
2.36055
2.35589
2.36285
2.35782
2.35953
2.3498
2.36567
2.3611
2.3571
2.35798
2.35902
2.36046
2.35655
2.30368
2.30754
2.30723
2.30586
2.30728
2.30372
2.3124
2.309
2.30538
2.31663
2.31462
2.31538
2.31177
2.30287
2.30938
2.31179
2.30981
2.30848
2.30861
2.31509
2.32806
2.32759
2.32862
2.31529
2.32897
2.32673
2.32505
2.3263
2.34
2.3454
2.34126
2.34363
2.31936
2.31038
2.30517
2.32124
2.31572
2.31419
2.32567
2.31782
2.31163
2.32149
2.32683
2.31777
2.31311
2.31334
2.31122
2.31557
2.30946
2.30356
2.30446
2.30617
2.30876
2.31489
2.29761
2.30885
2.30812
2.3112
2.28471
2.2922
2.2887
2.29399
2.33489
2.33598
2.33131
2.31514
2.31103
2.31992
2.31781
2.34735
2.34862
2.34238
2.34203
2.33665
2.34183
2.35003
2.3371
2.32973
2.29744
2.29471
2.29342
2.29603
2.30143
2.30175
2.30254
2.30025
2.30011
2.29788
2.2962
2.30277
2.30201
2.30398
2.29994
2.30206
2.32993
2.33601
2.33976
2.33067
2.33354
2.30843
2.3202
2.312
2.32109
2.32041
2.31407
2.30883
2.32258
2.32877
2.33041
2.33853
2.33037
2.33632
2.33851
2.32676
2.32793
2.33301
2.34012
2.2925
2.29535
2.28868
2.28898
2.29356
2.29314
2.29163
2.2916
2.2943
2.29402
2.29853
2.29982
2.30243
2.29791
2.29644
2.28177
2.28181
2.28608
2.29341
2.28677
2.28546
2.28805
2.28701
2.28918
2.28893
2.29561
2.30247
2.29946
2.30637
2.29114
2.29476
2.29218
2.29778
2.29793
2.29772
2.29186
2.2923
2.2942
2.29291
2.29608
2.29625
2.29215
2.29359
2.29288
2.29657
2.30202
2.30341
2.29913
2.30453
2.30117
2.30887
2.31231
2.30907
2.30646
2.27648
2.28509
2.2755
2.27688
2.28382
2.28229
2.29126
2.2848
2.28363
2.27302
2.28517
2.28704
2.28105
2.27646
2.27435
2.27985
2.27889
2.27338
2.27854
2.26985
2.26957
2.2729
2.2683
2.2682
2.27084
2.26806
2.2762
2.27484
2.29955
2.30159
2.30765
2.31405
2.31348
2.31049
2.30321
2.30642
2.30767
2.29846
2.29288
2.30018
2.30231
2.29813
2.30147
2.29175
2.29231
2.29733
2.29401
2.31927
2.32388
2.31766
2.31521
2.31619
2.32543
2.30897
2.3071
2.3136
2.3107
2.32234
2.31529
2.31299
2.31467
2.3246
2.32373
2.32001
2.31662
2.31923
2.31585
2.31668
2.31535
2.32827
2.32021
2.28909
2.29198
2.29012
2.28972
2.29371
2.28801
2.29458
2.2918
2.2924
2.29127
2.31118
2.31372
2.31788
2.31868
2.30963
2.32386
2.3201
2.31986
2.31411
2.32451
2.31823
2.32725
2.32548
2.32929
2.3215
2.32324
2.33851
2.33865
2.33373
2.32519
2.32512
2.33348
2.33381
2.27974
2.28134
2.27408
2.27636
2.25448
2.26393
2.27036
2.27054
2.26523
2.26202
2.26858
2.26878
2.30074
2.29166
2.30585
2.30388
2.30882
2.25556
2.25711
2.26643
2.25573
2.25695
2.25983
2.25814
2.26364
2.25405
2.25577
2.26068
2.2608
2.27283
2.26886
2.26879
2.26931
2.26802
2.28355
2.28882
2.2917
2.28995
2.28959
2.28956
2.28832
2.29548
2.29057
2.29394
2.29671
2.29626
2.29729
2.29035
2.29194
2.2898
2.29094
2.30284
2.3032
2.29337
2.2921
2.29172
2.29683
2.29474
2.29429
2.29004
2.28936
2.29082
2.28785
2.3089
2.31191
2.30832
2.31067
2.30876
2.31553
2.31107
2.31116
2.30886
2.30189
2.30999
2.29646
2.30131
2.30113
2.30598
2.30072
2.30704
2.30645
2.30177
2.29845
2.30149
2.30077
2.31807
2.31376
2.31031
2.31806
2.31596
2.31499
2.30721
2.32081
2.31852
2.25206
2.25095
2.25742
2.26071
2.26747
2.27342
2.27551
2.27392
2.26796
2.2718
2.27519
2.2761
2.27944
2.2807
2.27734
2.27685
2.27545
2.28014
2.27993
2.2876
2.28428
2.28491
2.28725
2.28915
2.28116
2.2848
2.28231
2.28117
2.28169
2.28459
2.28305
2.26384
2.26586
2.25825
2.25135
2.27737
2.27261
2.28046
2.2724
2.27037
2.27096
2.27349
2.26824
2.30535
2.30347
2.29454
2.29864
2.30392
2.2995
2.30182
2.29068
2.29677
2.30337
2.30015
2.30602
2.30219
2.27783
2.28223
2.28538
2.2799
2.28189
2.28314
2.28474
2.28688
2.2853
2.29184
2.29326
2.28542
2.28628
2.28778
2.28875
2.28761
2.29067
2.29082
2.28863
2.28553
2.29831
2.28897
2.2891
2.2958
2.28752
2.28823
2.29117
2.2896
2.23464
2.23932
2.24078
2.2486
2.23761
2.24125
2.2362
2.24813
2.23585
2.24116
2.26175
2.26197
2.21928
2.2354
2.2289
2.23523
2.22786
2.22912
2.23725
2.23386
2.23251
2.24181
2.24739
2.23714
2.23354
2.23827
2.23992
2.24762
2.25482
2.24525
2.26877
2.2658
2.26301
2.26719
2.26415
2.26424
2.25859
2.25929
2.25774
2.25561
2.25357
2.25858
2.2914
2.28298
2.28315
2.29162
2.29255
2.28901
2.29985
2.29269
2.28742
2.29862
2.29348
2.23915
2.23466
2.24299
2.24761
2.23051
2.23532
2.22835
2.23733
2.23433
2.27502
2.27328
2.27196
2.27673
2.27743
2.21713
2.20904
2.21364
2.21974
2.22394
2.22129
2.22061
2.22401
2.21959
2.24586
2.25823
2.26276
2.26093
2.2583
2.2571
2.24812
2.26589
2.25002
2.25205
2.27742
2.26998
2.27975
2.27127
2.26503
2.2633
2.26892
2.27037
2.21409
2.21144
2.20794
2.21505
2.21267
2.21816
2.25974
2.25772
2.26317
2.26448
2.21211
2.21099
2.2118
2.22584
2.2195
2.27836
2.27796
2.27696
2.27872
2.27269
2.27504
2.27422
2.27469
2.28888
2.28329
2.27834
2.29227
2.28287
2.27832
2.27921
2.2825
2.28704
2.27825
2.2848
2.28767
2.28316
2.29179
2.29204
2.27694
2.25036
2.24992
2.253
2.25277
2.2488
2.24506
2.24569
2.24324
2.27935
2.27891
2.28028
2.28054
2.28219
2.27821
2.27615
2.27721
2.28039
2.27711
2.27647
2.27627
2.27746
2.27333
2.23471
2.2298
2.22539
2.22454
2.30895
2.3112
2.30718
2.30541
2.30286
2.30879
2.26146
2.26091
2.26182
2.26131
2.26967
2.26682
2.26205
2.26751
2.26776
2.26593
2.26018
2.22893
2.24261
2.23294
2.22976
2.23225
2.2397
2.23456
2.23932
2.26138
2.25755
2.25726
2.2611
2.26457
2.25636
2.26083
2.25846
2.25639
2.25719
2.26049
2.25194
2.24766
2.25573
2.25397
2.25473
2.24814
2.2442
2.25341
2.25549
2.24207
2.24061
2.23347
2.23509
2.23146
2.23741
2.28518
2.28485
2.28168
2.27881
2.28492
2.28587
2.30447
2.30066
2.31432
2.30509
2.3045
2.29923
2.30032
2.2818
2.27802
2.28237
2.29145
2.28803
2.29502
2.28582
2.29071
2.29514
2.28789
2.28796
2.28179
2.24018
2.25305
2.24381
2.2418
2.24504
2.24702
2.25255
2.25261
2.2422
2.23817
2.28856
2.2878
2.28566
2.29019
2.28613
2.28585
2.28374
2.28883
2.28877
2.2901
2.28521
2.28534
2.28587
2.28253
2.28554
2.28528
2.27739
2.27568
2.2789
2.27563
2.27703
2.27556
2.27469
2.27609
2.28056
2.28118
2.26951
2.26867
2.26345
2.26778
2.26881
2.2745
2.2726
2.27557
2.27177
2.27053
2.27148
2.27321
2.27448
2.27503
2.3136
2.31402
2.32101
2.31237
2.31535
2.31312
2.31597
2.30866
2.27423
2.26075
2.25747
2.25633
2.26386
2.26047
2.2609
2.25916
2.30046
2.30427
2.30157
2.30912
2.3137
2.31517
2.30646
2.31314
2.30472
2.32138
2.32112
2.30933
2.30754
2.25591
2.26226
2.24691
2.24837
2.24837
2.24896
2.26281
2.26175
2.25791
2.25643
2.25369
2.25071
2.25162
2.2603
2.25117
2.2644
2.26384
2.26006
2.25087
2.24782
2.25047
2.26362
2.26445
2.27811
2.28318
2.28403
2.27994
2.27976
2.28094
2.28599
2.28378
2.28598
2.28365
2.28214
2.2825
2.28367
2.34426
2.34604
2.33978
2.33196
2.34267
2.34023
2.33947
2.34715
2.33801
2.34317
2.3443
2.3401
2.3406
2.33138
2.34282
2.33605
2.33185
2.33508
2.33145
2.32566
2.31131
2.31265
2.31401
2.32866
2.32657
2.3299
2.32999
2.3183
2.32048
2.32295
2.32227
2.30098
2.2938
2.28824
2.29394
2.29354
2.31182
2.3079
2.30695
2.31723
2.3137
2.31453
2.31202
2.30873
2.30952
2.30799
2.33417
2.32658
2.32805
2.32937
2.32666
2.32473
2.32467
2.30047
2.29795
2.30336
2.30014
2.29444
2.29628
2.30015
2.29282
2.30185
2.30679
2.30294
2.28119
2.28594
2.28464
2.27808
2.2764
2.27766
2.2788
2.2797
2.28049
2.28763
2.28879
2.28784
2.28371
2.28181
2.2876
2.28324
2.30607
2.30499
2.30337
2.30587
2.30032
2.29719
2.31057
2.30693
2.30231
2.30269
2.29861
2.3034
2.30081
2.29758
2.29711
2.29921
2.29574
2.29537
2.30212
2.2987
2.29377
2.30521
2.30407
2.29762
2.29655
2.2912
2.30001
2.29914
2.29655
2.29739
2.30624
2.3052
2.3026
2.30076
2.30246
2.30751
2.30668
2.30173
2.29972
2.29916
2.30202
2.29935
2.29639
2.29967
2.29802
2.29925
2.29562
2.29395
2.29596
2.29462
2.3345
2.32217
2.31965
2.33637
2.33168
2.33099
2.3304
2.33165
2.32925
2.33022
2.30527
2.30645
2.30415
2.30101
2.30862
2.30821
2.30637
2.30051
2.30195
2.30077
2.29859
2.30047
2.30192
2.30204
2.30246
2.29657
2.29943
2.3004
2.29423
2.299
2.29681
2.29693
2.29876
2.29864
2.29933
2.30022
2.29852
2.29895
2.29752
2.35471
2.34856
2.34791
2.3486
2.35067
2.35434
2.34965
2.34695
2.34601
2.33821
2.29683
2.30028
2.30652
2.296
2.29329
2.29675
2.29718
2.29656
2.33626
2.33687
2.3301
2.32499
2.33358
2.32867
2.31547
2.30999
2.30975
2.31746
2.31661
2.32052
2.32036
2.32019
2.32429
2.32296
2.34783
2.34214
2.33456
2.33524
2.34372
2.33834
2.345
2.33955
2.36479
2.36164
2.35359
2.3648
2.35407
2.36143
2.3605
2.30668
2.30551
2.30745
2.30141
2.3096
2.3095
2.30732
2.30651
2.30588
2.30569
2.33803
2.33732
2.33556
2.34622
2.34967
2.35481
2.34194
2.34728
2.3324
2.33103
2.33035
2.34625
2.34327
2.3308
2.33318
2.32734
2.34045
2.33497
2.33754
2.33656
2.33707
2.33432
2.32819
2.32725
2.35031
2.35376
2.35086
2.34836
2.35894
2.35954
2.35526
2.35488
2.35263
2.36404
2.36506
2.37017
2.36131
2.37265
2.3618
2.36624
2.3597
2.37358
2.36946
2.36457
2.38297
2.37961
2.38029
2.36267
2.35973
2.36422
2.37947
2.37165
2.39336
2.38687
2.39047
2.38611
2.37438
2.37848
2.31848
2.32359
2.3207
2.31943
2.32497
2.32668
2.32377
2.32507
2.32322
2.32325
2.31958
2.3214
2.31919
2.31969
2.31247
2.30877
2.30995
2.31278
2.309
2.30416
2.30538
2.30237
2.3051
2.30695
2.30951
2.30528
2.30679
2.3074
2.3067
2.30647
2.30788
2.32539
2.31828
2.31459
2.32578
2.32008
2.31956
2.32137
2.39195
2.37561
2.39425
2.39021
2.38137
2.38988
2.39179
2.38429
2.38157
2.35744
2.35635
2.36515
2.36617
2.37038
2.37395
2.37276
2.36803
2.37039
2.37274
2.37165
2.36757
2.35849
2.36285
2.36346
2.33914
2.31962
2.3339
2.34154
2.33317
2.32566
2.33362
2.3376
2.33133
2.32578
2.33201
2.37159
2.37431
2.3684
2.3699
2.3621
2.37087
2.36813
2.37025
2.37231
2.35608
2.34638
2.35934
2.35151
2.35733
2.34713
2.35157
2.35029
2.39058
2.38184
2.38386
2.3845
2.37661
2.38474
2.37534
2.31896
2.3217
2.31936
2.32185
2.32144
2.32247
2.3226
2.31373
2.31684
2.31307
2.31554
2.31974
2.31679
2.32587
2.32901
2.3275
2.32674
2.32348
2.32965
2.30973
2.31137
2.30817
2.30859
2.31348
2.30917
2.30866
2.30894
2.31104
2.31076
2.35669
2.34702
2.35478
2.3503
2.36088
2.35867
2.35572
2.35805
2.35264
2.35198
2.34956
2.34932
2.36809
2.38012
2.38457
2.37681
2.3729
2.37058
2.34132
2.33753
2.33887
2.33463
2.33252
2.33739
2.33852
2.33826
2.331
2.33283
2.33513
2.33657
2.33501
2.33084
2.32926
2.33772
2.33704
2.33365
2.32879
2.32714
2.33241
2.32982
2.3313
2.32302
2.32292
2.32212
2.32586
2.3265
2.32453
2.32746
2.3256
2.32717
2.32825
2.32784
2.32303
2.32265
2.3791
2.38562
2.38096
2.38569
2.38007
2.39813
2.40137
2.39577
2.38631
2.36902
2.37457
2.36607
2.36198
2.37719
2.38
2.37872
2.36556
2.35901
2.37407
2.37594
2.37933
2.33737
2.33758
2.33767
2.3337
2.32986
2.3387
2.33599
2.34669
2.35289
2.36096
2.35248
2.34911
2.34932
2.34416
2.35509
2.36296
2.35684
2.36065
2.36683
2.36533
2.36606
2.42779
2.43106
2.43678
2.43502
2.42812
2.41231
2.40814
2.40688
2.41
2.4119
2.40206
2.40633
2.42734
2.42914
2.44388
2.43381
2.42114
2.43061
2.42671
2.42553
2.41917
2.34409
2.3432
2.33993
2.34123
2.34761
2.34772
2.35353
2.34486
2.3428
2.34086
2.34041
2.34542
2.34313
2.34505
2.34342
2.34269
2.34653
2.35599
2.34998
2.34756
2.34553
2.3514
2.35188
2.34482
2.35671
2.34948
2.34934
2.34637
2.3489
2.44531
2.43758
2.45085
2.44854
2.44731
2.43491
2.45113
2.44198
2.42889
2.44486
2.43904
2.43723
2.4383
2.43501
2.43424
2.43213
2.44792
2.44791
2.44329
2.45053
2.44123
2.44715
2.44231
2.4412
2.44275
2.44515
2.40318
2.42138
2.41062
2.40425
2.40505
2.39958
2.40184
2.40977
2.41677
2.41183
2.4049
2.33393
2.3387
2.32912
2.33603
2.33438
2.34012
2.34165
2.33756
2.34299
2.33486
2.33712
2.3458
2.3448
2.34587
2.35116
2.348
2.34826
2.34906
2.35276
2.35247
2.35318
2.35011
2.34998
2.35089
2.36517
2.35749
2.35994
2.37045
2.36883
2.37202
2.36859
2.36973
2.44871
2.43868
2.45412
2.44628
2.43935
2.45958
2.447
2.44731
2.4548
2.4546
2.41681
2.41286
2.40818
2.4118
2.38274
2.38828
2.39009
2.38541
2.39039
2.39669
2.39565
2.39559
2.38124
2.38506
2.37377
2.39783
2.38384
2.37949
2.38335
2.38298
2.38812
2.3833
2.39352
2.39663
2.3905
2.3878
2.39323
2.39562
2.37164
2.3806
2.37331
2.38132
2.37636
2.38939
2.38104
2.31545
2.31596
2.32109
2.32315
2.31597
2.31756
2.32243
2.32093
2.32351
2.32703
2.32742
2.32427
2.3223
2.31457
2.31369
2.31476
2.31433
2.31668
2.3174
2.31747
2.31562
2.31798
2.31861
2.31624
2.31341
2.31345
2.33876
2.34786
2.34535
2.35654
2.35681
2.35946
2.29248
2.29213
2.29196
2.29566
2.29515
2.29188
2.29537
2.29103
2.29253
2.29339
2.29562
2.30733
2.30841
2.30758
2.30668
2.31219
2.30889
2.31153
2.34565
2.34869
2.34686
2.34728
2.34759
2.35264
2.34252
2.34735
2.34428
2.34858
2.34197
2.21809
2.2191
2.22181
2.22756
2.23747
2.23839
2.23185
2.23468
2.22973
2.22571
2.22854
2.29155
2.28997
2.29073
2.29358
2.2934
2.28908
2.28733
2.28715
2.34885
2.3491
2.34645
2.34659
2.34431
2.34357
2.34426
2.35257
2.35131
2.34005
2.34153
2.36631
2.37795
2.37005
2.36079
2.35862
2.36024
2.3615
2.36081
2.36664
2.37365
2.43948
2.43878
2.42266
2.44115
2.43721
2.42944
2.43749
2.43063
2.44277
2.42797
2.43615
2.44278
2.4259
2.43101
2.43017
2.44422
2.45102
2.44784
2.44892
2.44921
2.3702
2.36782
2.37934
2.36703
2.37836
2.37963
2.37218
2.37112
2.36621
2.36691
2.36105
2.36302
2.36429
2.3614
2.3615
2.36202
2.3572
2.35776
2.35904
2.35453
2.35523
2.37463
2.36806
2.36667
2.36748
2.3791
2.36936
2.37457
2.37343
2.37515
2.37205
2.40407
2.39392
2.40085
2.38319
2.39178
2.3858
2.38073
2.38458
2.40406
2.40671
2.39109
2.39425
2.35328
2.35287
2.35537
2.3515
2.34638
2.34669
2.3444
2.34811
2.34657
2.34702
2.35306
2.34998
2.34354
2.3802
2.39153
2.39414
2.39831
2.40549
2.40625
2.41431
2.39574
2.39038
2.41614
2.3966
2.38938
2.39971
2.39481
2.41736
2.40586
2.39281
2.39731
2.40094
2.39748
2.42092
2.34157
2.3473
2.33622
2.34053
2.33677
2.34669
2.33581
2.32915
2.3383
2.3432
2.33877
2.34009
2.34672
2.34043
2.3384
2.33266
2.35923
2.35729
2.35726
2.35717
2.35672
2.35502
2.35446
2.35458
2.35622
2.35023
2.34813
2.34981
2.35188
2.35317
2.35447
2.3562
2.358
2.32523
2.32522
2.33141
2.32943
2.32534
2.33347
2.33228
2.32911
2.32709
2.33077
2.3392
2.33696
2.3305
2.33149
2.33308
2.33438
2.33336
2.33668
2.33898
2.33335
2.33491
2.4095
2.41386
2.40674
2.41038
2.35573
2.36396
2.35178
2.35353
2.35477
2.33287
2.33402
2.3305
2.33629
2.33549
2.32483
2.32775
2.32957
2.40368
2.4086
2.41005
2.40632
2.42103
2.41011
2.4014
2.40243
2.37655
2.38707
2.37337
2.37463
2.37222
2.37034
2.38868
2.38454
2.39064
2.3825
2.38134
2.37449
2.37026
2.36611
2.37226
2.37738
2.37086
2.33432
2.33403
2.33274
2.39063
2.39086
2.39627
2.39592
2.3945
2.39465
2.3957
2.39603
2.3516
2.36436
2.35812
2.32783
2.32607
2.3219
2.32611
2.33171
2.33195
2.33558
2.31985
2.31881
2.32158
2.31644
2.31869
2.31426
2.31332
2.31741
2.32207
2.31808
2.3194
2.31627
2.32531
2.3175
2.31918
2.31596
2.32438