/*--------------------------------*- C++ -*----------------------------------*\
| =========                 |                                                 |
| \\      /  F ield         | OpenFOAM: The Open Source CFD Toolbox           |
|  \\    /   O peration     | Version:  v1612+                                |
|   \\  /    A nd           | Web:      www.OpenFOAM.com                      |
|    \\/     M anipulation  |                                                 |
\*---------------------------------------------------------------------------*/
FoamFile
{
    version     2.0;
    format      ascii;
    class       volVectorField;
    location    "200";
    object      U;
}
// * * * * * * * * * * * * * * * * * * * * * * * * * * * * * * * * * * * * * //

dimensions      [0 1 -1 0 0 0 0];

internalField   nonuniform List<vector> 
19064
(
(-0.0995556 0.637256 0.158264)
(-0.123249 0.43413 0.066582)
(-0.134818 0.462665 0.0657834)
(-0.145204 0.547501 0.0807911)
(-0.163442 0.609851 0.0872792)
(-0.160259 0.615168 0.0825387)
(-0.164477 0.551414 0.0750832)
(-0.158235 0.566127 0.0748313)
(-0.153223 0.541513 0.0678153)
(-0.139598 0.50169 0.0809223)
(-0.138636 0.549678 0.0892323)
(-0.12183 0.498114 0.0866979)
(-0.126786 0.43423 0.0624058)
(-0.104651 0.396142 0.0631215)
(-0.124376 0.490477 0.0864432)
(-0.102415 0.408715 0.073165)
(-0.132396 0.483876 0.0651341)
(-0.121594 0.473296 0.077116)
(-0.10918 0.429308 0.0693093)
(-0.173421 0.564359 0.169787)
(-0.154492 0.519368 0.149499)
(-0.159234 0.534651 0.15927)
(-0.201759 0.670807 0.205184)
(-0.191366 0.655483 0.21792)
(-0.177309 0.637115 0.187088)
(-0.199833 0.676247 0.200478)
(-0.144459 0.514667 0.148623)
(-0.173316 0.630856 0.21163)
(-0.187659 0.682327 0.223452)
(-0.202202 0.679756 0.210185)
(-0.226102 1.04478 0.2188)
(-0.222458 1.0416 0.21435)
(-0.246226 1.04586 0.205893)
(-0.245252 0.998341 0.185881)
(-0.223562 1.04671 0.220955)
(-0.214352 1.03298 0.227309)
(-0.233005 1.0147 0.200378)
(-0.237948 1.01441 0.190297)
(-0.271595 0.642121 0.0353377)
(-0.268319 0.63815 0.0538322)
(-0.27872 0.661154 0.0198706)
(-0.285529 0.667013 0.0463119)
(-0.27431 0.655846 0.0597297)
(-0.265381 0.594789 0.0294196)
(-0.263221 0.596249 0.0398285)
(-0.288543 0.661526 0.00951082)
(-0.286489 0.668593 0.0372853)
(-0.273257 0.602058 0.10548)
(-0.264837 0.584356 0.0876292)
(-0.269185 0.592084 0.055989)
(-0.275727 0.636342 0.0811525)
(-0.291115 0.693823 0.0512693)
(-0.267007 0.596945 0.0503869)
(-0.27373 0.610858 0.0804735)
(-0.268279 0.580173 0.0970856)
(-0.282544 0.661707 0.0681665)
(-0.332663 0.974445 0.119829)
(-0.33082 0.97633 0.120911)
(-0.311726 0.979882 0.136449)
(-0.315911 0.985532 0.137705)
(-0.326804 0.978918 0.126321)
(-0.323902 0.983445 0.13647)
(-0.334986 0.991613 0.131835)
(-0.334696 0.982004 0.118644)
(-0.332747 0.966256 0.115474)
(-0.319244 0.969847 0.129761)
(-0.301383 0.942997 0.134461)
(-0.343091 1.00035 0.123278)
(-0.351036 1.00095 0.136127)
(-0.320689 0.984445 0.143351)
(-0.338075 1.00332 0.143914)
(-0.344501 0.995963 0.132058)
(-0.32555 0.963868 0.130776)
(-0.31842 0.961875 0.138528)
(-0.336726 0.981937 0.128567)
(-0.338517 0.986097 0.136111)
(-0.333357 0.968896 0.136389)
(-0.31943 0.935019 0.145152)
(-0.334414 0.974402 0.144045)
(-0.340639 0.986174 0.144663)
(-0.326832 0.982182 0.148016)
(-0.347119 0.998303 0.138308)
(-0.191602 0.716438 0.103872)
(-0.234443 0.824996 0.125297)
(-0.2316 0.71693 0.0853497)
(-0.24391 0.755485 0.0816752)
(-0.202013 0.727178 0.110942)
(-0.214314 0.782606 0.119986)
(-0.246989 0.792845 0.0882746)
(-0.226383 0.776396 0.0995537)
(-0.226319 0.710125 0.0873367)
(-0.220362 0.721816 0.0902622)
(-0.192139 0.680014 0.0952873)
(-0.19815 0.664368 0.0830759)
(-0.214654 0.734858 0.0923865)
(-0.234648 0.764901 0.0894979)
(-0.141437 0.556772 0.0860191)
(-0.133009 0.546336 0.0912247)
(-0.149135 0.577935 0.0940429)
(-0.15019 0.58481 0.0850293)
(-0.129018 0.49903 0.082616)
(-0.114354 0.456972 0.0786119)
(-0.148796 0.505134 0.0768982)
(-0.167154 0.530599 0.086539)
(-0.137968 0.510571 0.0859112)
(-0.123832 0.476064 0.0778434)
(-0.166006 0.58012 0.083511)
(-0.14438 0.54199 0.084239)
(-0.145035 0.494023 0.0835771)
(-0.34788 0.894227 0.0562129)
(-0.34816 0.904722 0.0546936)
(-0.354441 0.875224 0.0366781)
(-0.363491 0.950362 0.0621049)
(-0.357294 0.920342 0.0611197)
(-0.355777 0.911449 0.0606015)
(-0.336325 0.887805 0.0592637)
(-0.335143 0.879442 0.0423496)
(-0.364916 0.969939 0.0760611)
(-0.344718 0.928364 0.0748165)
(-0.346421 0.91472 0.0654781)
(-0.354764 0.929391 0.0616668)
(-0.362854 0.906007 0.0546275)
(-0.360664 0.908339 0.0478278)
(-0.369132 0.971861 0.0655251)
(-0.367418 0.972976 0.072237)
(-0.36227 0.934712 0.0700736)
(-0.363877 0.970242 0.0764835)
(-0.356735 0.965538 0.0774026)
(-0.354151 0.920966 0.0691124)
(-0.275844 0.951154 0.157923)
(-0.276008 0.98257 0.180064)
(-0.281841 0.977903 0.176311)
(-0.280595 0.972113 0.171635)
(-0.289277 0.980753 0.184845)
(-0.29178 0.971372 0.173122)
(-0.27602 0.926794 0.146954)
(-0.268038 0.922338 0.143123)
(-0.263954 0.924024 0.152599)
(-0.2643 0.893579 0.127396)
(-0.285674 0.963185 0.168184)
(-0.281683 0.957395 0.167215)
(-0.294601 0.963534 0.171444)
(-0.271573 0.918031 0.153256)
(-0.271985 0.887434 0.136092)
(-0.26944 0.889571 0.130946)
(-0.27807 0.918581 0.144597)
(-0.272562 0.919071 0.147439)
(-0.288146 0.930952 0.152929)
(-0.306718 0.980007 0.185388)
(-0.291226 0.952255 0.167805)
(-0.290759 0.952827 0.16855)
(-0.211829 0.548786 0.115116)
(-0.203483 0.528741 0.123833)
(-0.225354 0.640207 0.0927456)
(-0.215818 0.63162 0.0784068)
(-0.209146 0.556198 0.122715)
(-0.200079 0.519515 0.114883)
(-0.205679 0.521672 0.122489)
(-0.228898 0.66518 0.107082)
(-0.223924 0.648198 0.0926061)
(-0.215529 0.609598 0.111627)
(-0.217425 0.623731 0.10345)
(-0.221505 0.597721 0.108345)
(-0.217645 0.607135 0.0965019)
(-0.224528 0.611357 0.103445)
(-0.220644 0.604446 0.11384)
(-0.205273 0.554936 0.116757)
(-0.224079 0.641554 0.111682)
(-0.219759 0.619584 0.117952)
(-0.204185 0.552346 0.108829)
(-0.197407 0.544276 0.106939)
(-0.211181 0.55461 0.130614)
(-0.355226 0.959802 0.105842)
(-0.344685 0.924097 0.107039)
(-0.349099 0.914166 0.0841381)
(-0.345398 0.955551 0.0933063)
(-0.347923 0.957781 0.111886)
(-0.35176 0.976248 0.115098)
(-0.336768 0.958266 0.126549)
(-0.339393 0.967432 0.121119)
(-0.336666 0.934611 0.100524)
(-0.330845 0.940047 0.107996)
(-0.331677 0.871224 0.0781076)
(-0.328618 0.876144 0.0890319)
(-0.323179 0.873287 0.0897833)
(-0.351862 0.963351 0.104367)
(-0.338688 0.910543 0.0906313)
(-0.342816 0.92834 0.0862545)
(-0.347744 0.972885 0.11405)
(-0.326618 0.896149 0.0944771)
(-0.319473 0.846801 0.0752332)
(-0.328583 0.874355 0.0751719)
(-0.3216 0.891423 0.0920406)
(-0.338128 0.927143 0.0883258)
(-0.342673 0.961161 0.104299)
(-0.294935 1.01017 0.180991)
(-0.289585 0.998603 0.181079)
(-0.281055 1.00612 0.191046)
(-0.2982 1.02503 0.188789)
(-0.274492 1.02048 0.200893)
(-0.261637 1.00003 0.203848)
(-0.282687 1.00556 0.187718)
(-0.287619 0.993358 0.177965)
(-0.276597 1.01374 0.189491)
(-0.282136 1.01809 0.195805)
(-0.286182 1.00861 0.186341)
(-0.345968 0.969442 0.146017)
(-0.36926 0.989936 0.121793)
(-0.323459 0.953583 0.167661)
(-0.341949 0.9789 0.137339)
(-0.285935 0.914558 0.170827)
(-0.317753 0.954162 0.170438)
(-0.33878 0.955247 0.112912)
(-0.290868 0.930035 0.144448)
(-0.304379 0.944474 0.154399)
(-0.297105 0.927177 0.165715)
(-0.338607 0.972159 0.169438)
(-0.350469 0.980261 0.151297)
(-0.292973 0.934018 0.14579)
(-0.232577 0.94892 0.181676)
(-0.221694 0.927183 0.164333)
(-0.234939 0.903911 0.146333)
(-0.22901 0.914548 0.152956)
(-0.223795 0.955692 0.17803)
(-0.233215 0.983835 0.195323)
(-0.245204 0.942556 0.159394)
(-0.233074 0.932582 0.1506)
(-0.233598 0.901871 0.14247)
(-0.22976 0.973039 0.176891)
(-0.25795 0.568451 0.11536)
(-0.2556 0.564639 0.106585)
(-0.244124 0.53921 0.125639)
(-0.270576 0.602069 0.109133)
(-0.266092 0.649073 0.122804)
(-0.275438 0.677912 0.0984325)
(-0.263815 0.63049 0.12798)
(-0.257705 0.61184 0.147008)
(-0.261789 0.621006 0.103028)
(-0.264009 0.579226 0.0998418)
(-0.241177 0.556841 0.147433)
(-0.256089 0.577711 0.12557)
(-0.273924 0.896929 0.171399)
(-0.283421 0.909791 0.157178)
(-0.219842 0.815554 0.180822)
(-0.201058 0.781212 0.162874)
(-0.264851 0.880192 0.166101)
(-0.20333 0.809221 0.189993)
(-0.212528 0.823382 0.182529)
(-0.196824 0.776252 0.17265)
(-0.2245 0.840176 0.156298)
(-0.224838 0.818822 0.165859)
(-0.17588 0.746185 0.141607)
(-0.162496 0.728964 0.151393)
(-0.234319 0.84797 0.179221)
(-0.216196 0.824414 0.161582)
(-0.185501 0.759812 0.157002)
(-0.160852 0.708171 0.155124)
(-0.202871 0.777623 0.174832)
(-0.16539 0.710059 0.174668)
(-0.227799 0.61615 0.0670557)
(-0.208744 0.598295 0.0669226)
(-0.208801 0.571861 0.0697914)
(-0.193435 0.504085 0.0676772)
(-0.228252 0.605393 0.0608284)
(-0.216267 0.600337 0.0572881)
(-0.20209 0.467512 0.0948037)
(-0.220151 0.562032 0.0912249)
(-0.210725 0.535773 0.0901155)
(-0.231931 0.620385 0.0750636)
(-0.17869 0.4218 0.0800611)
(-0.180911 0.422061 0.0856722)
(-0.20273 0.517993 0.0641887)
(-0.18857 0.482914 0.0573737)
(-0.212641 0.517363 0.0923174)
(-0.182263 0.426279 0.0822755)
(-0.209771 0.497804 0.0746149)
(-0.3365 0.936703 0.221751)
(-0.311564 0.887192 0.218592)
(-0.347792 0.959307 0.205126)
(-0.346649 0.961716 0.201756)
(-0.327906 0.922794 0.211264)
(-0.335318 0.941438 0.207175)
(-0.335979 0.941304 0.209967)
(-0.357054 1.00349 0.180081)
(-0.358673 0.998222 0.171261)
(-0.338662 0.938417 0.199893)
(-0.329163 0.916655 0.215199)
(-0.324886 0.920158 0.217635)
(-0.356996 1.0144 0.184783)
(-0.352478 0.991387 0.18636)
(-0.347023 0.984465 0.174315)
(-0.328243 0.928793 0.203834)
(-0.352602 1.00843 0.176471)
(-0.337786 0.960078 0.1896)
(-0.343615 1.00293 0.144784)
(-0.350212 0.997062 0.135527)
(-0.334526 0.991727 0.15314)
(-0.332409 1.0053 0.152999)
(-0.333741 0.991361 0.155198)
(-0.346255 0.996057 0.139219)
(-0.3488 0.993371 0.132409)
(-0.341052 1.00134 0.138088)
(-0.332731 0.973775 0.155682)
(-0.324642 0.979443 0.148579)
(-0.319913 0.946562 0.14861)
(-0.34169 0.989613 0.152147)
(-0.317036 0.92141 0.157032)
(-0.336696 0.97673 0.148491)
(-0.337892 0.966225 0.152162)
(-0.234715 0.756774 0.147009)
(-0.236701 0.734683 0.159898)
(-0.229031 0.768924 0.217063)
(-0.236993 0.763838 0.192592)
(-0.232807 0.740579 0.169272)
(-0.237801 0.769707 0.150363)
(-0.232182 0.797768 0.215319)
(-0.223082 0.785848 0.232248)
(-0.229824 0.744607 0.171022)
(-0.228698 0.836751 0.199946)
(-0.231426 0.817156 0.198038)
(-0.236654 0.774045 0.14666)
(-0.22961 0.762388 0.162818)
(-0.22742 0.844405 0.225805)
(-0.22737 0.810321 0.22816)
(-0.223953 0.813374 0.237959)
(-0.226954 0.81235 0.226994)
(-0.227606 0.769733 0.210959)
(-0.239773 0.831008 0.182451)
(-0.141297 0.392519 0.0978824)
(-0.149129 0.39596 0.106834)
(-0.145128 0.408674 0.0961288)
(-0.155039 0.423201 0.105448)
(-0.168025 0.442529 0.120763)
(-0.169044 0.441183 0.119013)
(-0.145663 0.408783 0.0969123)
(-0.196711 0.543374 0.128391)
(-0.191519 0.515399 0.128068)
(-0.173706 0.491902 0.101656)
(-0.183255 0.515144 0.103905)
(-0.204379 0.558785 0.120233)
(-0.19782 0.54017 0.109313)
(-0.198183 0.539169 0.102698)
(-0.177763 0.699211 0.116799)
(-0.169237 0.668465 0.107992)
(-0.145728 0.636201 0.104273)
(-0.171526 0.653713 0.105503)
(-0.13358 0.566362 0.101318)
(-0.132263 0.564 0.0993068)
(-0.12306 0.492726 0.0871176)
(-0.118954 0.551093 0.1043)
(-0.191438 0.692743 0.096914)
(-0.169498 0.609543 0.0869539)
(-0.176125 0.606454 0.0864072)
(-0.114542 0.518839 0.0916251)
(-0.156978 0.565667 0.0793432)
(-0.173297 0.622458 0.0899302)
(-0.185437 0.399889 0.13356)
(-0.189258 0.416467 0.128679)
(-0.203313 0.475532 0.119519)
(-0.214532 0.504553 0.124068)
(-0.223848 0.520042 0.130256)
(-0.225437 0.538417 0.128951)
(-0.218767 0.513183 0.1273)
(-0.197288 0.433713 0.137818)
(-0.160071 0.354711 0.130387)
(-0.181199 0.403643 0.141781)
(-0.171188 0.378032 0.142106)
(-0.21039 0.497722 0.153079)
(-0.221102 0.521371 0.1531)
(-0.219181 0.517705 0.157619)
(-0.224226 0.526586 0.144146)
(-0.174752 0.393726 0.133289)
(-0.187718 0.417102 0.131513)
(-0.208691 0.491479 0.133423)
(-0.200166 0.459903 0.159838)
(-0.190322 0.427533 0.158983)
(-0.195434 0.449888 0.161144)
(-0.19423 0.451803 0.153218)
(-0.088576 0.375231 0.0603866)
(-0.0776583 0.34624 0.0556201)
(-0.0954741 0.39816 0.0644488)
(-0.0867752 0.385697 0.0563955)
(-0.11622 0.447363 0.0755693)
(-0.127148 0.461717 0.0780546)
(-0.104759 0.402481 0.0694688)
(-0.144916 0.480372 0.0971319)
(-0.150472 0.494587 0.105148)
(-0.0784931 0.344145 0.0564095)
(-0.125667 0.474286 0.0793656)
(-0.0986214 0.401523 0.066826)
(-0.0994514 0.38047 0.0734111)
(-0.0728216 0.338771 0.0532547)
(-0.118703 0.421563 0.0820836)
(-0.0920076 0.361123 0.0672836)
(-0.132856 0.430239 0.0911636)
(-0.137012 0.444515 0.0883072)
(-0.0899506 0.359005 0.0693543)
(-0.143894 0.499781 0.0874482)
(-0.14553 0.512689 0.0896596)
(-0.107092 0.390843 0.0733827)
(-0.215794 0.925773 0.264166)
(-0.205968 0.895015 0.257566)
(-0.209768 0.88702 0.254887)
(-0.202862 0.914807 0.27226)
(-0.175465 0.868976 0.283573)
(-0.162041 0.801507 0.284187)
(-0.170716 0.803438 0.295577)
(-0.158034 0.767939 0.28859)
(-0.204172 0.897113 0.263772)
(-0.205073 0.840441 0.27257)
(-0.194564 0.850613 0.287402)
(-0.176569 0.806615 0.292315)
(-0.189026 0.866749 0.275251)
(-0.160464 0.820632 0.2918)
(-0.193124 0.903476 0.280677)
(-0.178887 0.845531 0.291778)
(-0.1669 0.874228 0.2934)
(-0.1638 0.835886 0.288563)
(-0.256085 0.744265 0.0797069)
(-0.264666 0.766966 0.0807818)
(-0.262754 0.778052 0.0844741)
(-0.283263 0.81845 0.0808625)
(-0.301194 0.864877 0.102431)
(-0.290611 0.850501 0.103037)
(-0.261141 0.735226 0.0738565)
(-0.261321 0.772448 0.0806646)
(-0.288418 0.830067 0.0982598)
(-0.274692 0.798913 0.0877674)
(-0.272945 0.808401 0.0971781)
(-0.254224 0.789009 0.101155)
(-0.274276 0.81646 0.112588)
(-0.280792 0.831838 0.107115)
(-0.272956 0.824427 0.102859)
(-0.267778 0.809455 0.100813)
(-0.251261 0.744109 0.0923128)
(-0.264802 0.801321 0.0979133)
(-0.257118 0.76039 0.0910126)
(-0.354466 0.984701 0.160633)
(-0.346392 0.969968 0.158577)
(-0.343885 0.985456 0.174194)
(-0.333035 0.968018 0.18466)
(-0.331122 0.964821 0.176214)
(-0.354734 0.98449 0.166401)
(-0.358551 1.00445 0.170207)
(-0.347464 0.986974 0.16146)
(-0.356328 0.990287 0.173713)
(-0.342014 0.984409 0.183322)
(-0.291461 0.898124 0.210293)
(-0.269843 0.851547 0.210391)
(-0.292005 0.897547 0.208935)
(-0.297396 0.91752 0.213047)
(-0.340277 0.963322 0.171174)
(-0.310701 0.939032 0.200846)
(-0.311083 0.913993 0.205643)
(-0.315262 0.913719 0.199353)
(-0.330906 0.940265 0.198871)
(-0.302488 0.933401 0.215107)
(-0.30612 0.916393 0.218472)
(-0.283671 0.857694 0.212883)
(-0.332978 0.965994 0.182655)
(-0.308524 0.905438 0.212409)
(-0.346461 0.995514 0.189644)
(-0.343259 0.983009 0.201377)
(-0.35004 0.970692 0.149478)
(-0.340082 0.959506 0.152813)
(-0.340316 0.965151 0.158507)
(-0.344986 0.962576 0.149342)
(-0.343351 0.993617 0.190909)
(-0.350951 0.996465 0.19396)
(-0.353232 1.00041 0.188636)
(-0.340987 0.978058 0.173517)
(-0.343794 0.962294 0.160191)
(-0.347608 0.983526 0.176964)
(-0.343616 0.980242 0.170677)
(-0.332142 0.982032 0.206492)
(-0.330809 0.977398 0.208609)
(-0.33427 0.977022 0.211581)
(-0.346815 0.992531 0.207479)
(-0.337214 0.977284 0.196119)
(-0.340465 0.992406 0.200566)
(-0.339401 0.989411 0.181204)
(-0.341393 0.995515 0.212687)
(-0.337262 0.990342 0.197154)
(-0.308665 0.977834 0.148522)
(-0.295866 0.937528 0.140993)
(-0.314303 0.988392 0.145456)
(-0.294682 0.980278 0.151065)
(-0.285375 0.944093 0.138223)
(-0.328653 0.988473 0.133772)
(-0.317567 0.993195 0.134287)
(-0.322505 0.978375 0.121863)
(-0.309215 0.984144 0.137842)
(-0.29907 0.983607 0.142019)
(-0.302211 0.98523 0.14803)
(-0.309643 0.9828 0.137027)
(-0.312892 0.987668 0.132481)
(-0.169872 0.844565 0.282509)
(-0.212273 0.901133 0.233327)
(-0.213481 0.913461 0.239847)
(-0.209489 0.873552 0.265204)
(-0.211149 0.875649 0.22587)
(-0.19239 0.935346 0.264384)
(-0.191935 0.946451 0.266039)
(-0.212213 0.967802 0.253981)
(-0.217897 0.957798 0.236227)
(-0.182555 0.889358 0.281279)
(-0.180285 0.882154 0.290533)
(-0.211625 0.888626 0.256149)
(-0.218031 0.877696 0.227087)
(-0.185049 0.897474 0.28008)
(-0.180521 0.898566 0.279413)
(-0.211792 0.920127 0.252897)
(-0.249333 0.73083 0.0823267)
(-0.232242 0.659385 0.0792884)
(-0.235247 0.704848 0.0986272)
(-0.239391 0.686853 0.10132)
(-0.238278 0.700437 0.0893109)
(-0.240515 0.684345 0.0929932)
(-0.246019 0.742829 0.0985667)
(-0.243722 0.684752 0.0902302)
(-0.240693 0.665668 0.0838155)
(-0.246652 0.699267 0.0678765)
(-0.24009 0.681433 0.0983908)
(-0.24365 0.743974 0.0976275)
(-0.240705 0.691687 0.0873486)
(-0.247821 0.96258 0.195817)
(-0.251202 0.931491 0.181695)
(-0.244535 0.904139 0.165025)
(-0.241863 0.950344 0.190077)
(-0.238052 0.919821 0.180727)
(-0.238383 0.99601 0.216725)
(-0.235161 0.987522 0.218252)
(-0.263313 0.986101 0.190534)
(-0.25316 1.02679 0.210899)
(-0.254561 0.911849 0.172508)
(-0.24525 0.890271 0.153767)
(-0.24239 0.887382 0.151604)
(-0.237919 0.909238 0.176486)
(-0.237406 0.958243 0.196857)
(-0.252802 1.00215 0.204465)
(-0.236261 0.996656 0.220558)
(-0.238281 1.00886 0.224114)
(-0.247651 1.01679 0.213636)
(-0.254229 0.981419 0.185763)
(-0.250248 1.01838 0.211683)
(-0.241466 0.89703 0.158168)
(-0.236687 0.920286 0.175768)
(-0.257719 1.02096 0.208667)
(-0.253706 0.917777 0.158256)
(-0.246245 0.901219 0.162196)
(-0.263748 0.961128 0.166402)
(-0.24474 0.965683 0.170542)
(-0.238071 0.940223 0.166503)
(-0.264756 0.975426 0.165715)
(-0.278185 0.994361 0.164444)
(-0.253024 0.984276 0.167996)
(-0.251767 0.969778 0.163145)
(-0.287474 0.999886 0.16203)
(-0.280573 1.00301 0.167794)
(-0.252359 0.918489 0.163309)
(-0.281112 0.988439 0.162461)
(-0.289495 0.992156 0.153291)
(-0.284248 0.986376 0.152477)
(-0.289705 0.987782 0.154807)
(-0.274977 0.96399 0.159499)
(-0.25135 0.944813 0.164143)
(-0.27115 1.00807 0.171468)
(-0.290158 0.987356 0.147941)
(-0.280033 0.97999 0.158171)
(-0.261507 0.968866 0.159614)
(-0.355607 0.945189 0.0563316)
(-0.361982 0.932449 0.0427355)
(-0.367098 0.946849 0.0508082)
(-0.307924 0.988956 0.15183)
(-0.310341 1.00492 0.160888)
(-0.308439 0.95618 0.13702)
(-0.308988 0.980854 0.144699)
(-0.311886 0.992396 0.15442)
(-0.315176 0.998849 0.14789)
(-0.328953 0.991153 0.136607)
(-0.337169 1.00917 0.152732)
(-0.332796 1.00804 0.15123)
(-0.31714 0.969018 0.138714)
(-0.331972 1.00472 0.153902)
(-0.321351 1.00157 0.162976)
(-0.31698 0.999812 0.152191)
(-0.332681 0.990154 0.13823)
(-0.327675 0.99585 0.151585)
(-0.320426 1.00046 0.156024)
(-0.175489 0.580892 0.0697134)
(-0.140594 0.475391 0.0633885)
(-0.137174 0.505488 0.0668636)
(-0.163531 0.57006 0.0698744)
(-0.169621 0.598107 0.0661783)
(-0.11934 0.461736 0.0743526)
(-0.170591 0.646873 0.0841438)
(-0.138093 0.55539 0.0825009)
(-0.237965 0.723205 0.0899785)
(-0.227496 0.640471 0.125721)
(-0.221904 0.595176 0.114543)
(-0.227355 0.637413 0.127987)
(-0.224138 0.615757 0.122721)
(-0.230365 0.657816 0.132515)
(-0.224953 0.641534 0.129393)
(-0.233659 0.683539 0.103021)
(-0.23961 0.69817 0.0975321)
(-0.2249 0.653368 0.11611)
(-0.231719 0.649912 0.104051)
(-0.231638 0.628063 0.100204)
(-0.221429 0.608538 0.126305)
(-0.217911 0.606088 0.108155)
(-0.215847 0.70625 0.088708)
(-0.203617 0.631029 0.0865152)
(-0.209123 0.6752 0.0842027)
(-0.190432 0.632911 0.0824172)
(-0.198996 0.655729 0.0845827)
(-0.150404 0.53415 0.087543)
(-0.146778 0.497655 0.0808822)
(-0.168219 0.580815 0.0871272)
(-0.162974 0.524426 0.0816383)
(-0.193953 0.649018 0.093303)
(-0.19025 0.597621 0.0872664)
(-0.190119 0.651652 0.0926379)
(-0.141169 0.485153 0.0810976)
(-0.184889 0.556849 0.0824649)
(-0.159156 0.502654 0.0824248)
(-0.172065 0.535844 0.0862112)
(-0.174137 0.539285 0.0826142)
(-0.268266 0.967215 0.160704)
(-0.28588 0.984909 0.159813)
(-0.228734 0.951231 0.188027)
(-0.212905 0.921161 0.186815)
(-0.273539 0.987336 0.169213)
(-0.281762 0.989756 0.161772)
(-0.2338 0.946829 0.174584)
(-0.254638 0.971003 0.175408)
(-0.230242 0.930999 0.180659)
(-0.252457 0.978414 0.179661)
(-0.262199 0.988271 0.174965)
(-0.245416 0.965669 0.179158)
(-0.282636 1.00073 0.16904)
(-0.2728 1.01912 0.201504)
(-0.273514 1.03318 0.206444)
(-0.280569 1.00163 0.190477)
(-0.282045 1.02365 0.200752)
(-0.267597 1.00268 0.191901)
(-0.260731 1.01194 0.19493)
(-0.268462 1.02395 0.198003)
(-0.279467 1.00729 0.185207)
(-0.261904 0.987788 0.191462)
(-0.265261 0.955463 0.175658)
(-0.262318 1.02022 0.200521)
(-0.265661 1.04224 0.21199)
(-0.275697 0.961598 0.173592)
(-0.270719 1.00927 0.19146)
(-0.280312 1.00422 0.190545)
(-0.276899 0.904258 0.239524)
(-0.246498 0.844239 0.238749)
(-0.319501 0.963944 0.190751)
(-0.297981 0.945818 0.197171)
(-0.252503 0.848677 0.242454)
(-0.236986 0.817074 0.23398)
(-0.307485 0.949006 0.221718)
(-0.271136 0.893807 0.237331)
(-0.291691 0.939354 0.208883)
(-0.292876 0.925987 0.217544)
(-0.288203 0.917819 0.232904)
(-0.287907 0.936959 0.206406)
(-0.260952 0.900825 0.208586)
(-0.276165 0.903628 0.230641)
(-0.248963 0.855249 0.23187)
(-0.289397 0.913123 0.235411)
(-0.281936 0.902158 0.241731)
(-0.237104 0.833844 0.224929)
(-0.210602 0.782333 0.241522)
(-0.241436 0.858114 0.214576)
(-0.226089 0.825948 0.228495)
(-0.244295 0.856058 0.232276)
(-0.206348 0.859189 0.240747)
(-0.181349 0.787493 0.250774)
(-0.220337 0.855683 0.222422)
(-0.2473 0.800792 0.153855)
(-0.2511 0.814174 0.157619)
(-0.251176 0.792863 0.161921)
(-0.250274 0.805073 0.137775)
(-0.245424 0.867777 0.186347)
(-0.239979 0.871916 0.201438)
(-0.197058 0.775881 0.256057)
(-0.20615 0.769959 0.2474)
(-0.209818 0.74977 0.233552)
(-0.244569 0.832192 0.187322)
(-0.239255 0.820378 0.169282)
(-0.24526 0.808315 0.149909)
(-0.246865 0.885945 0.192589)
(-0.205281 0.836728 0.249395)
(-0.233351 0.787644 0.229396)
(-0.222329 0.853336 0.213644)
(-0.238227 0.805695 0.199345)
(-0.151861 0.591024 0.0669426)
(-0.140544 0.582016 0.0737525)
(-0.201996 0.698199 0.0666572)
(-0.163887 0.695886 0.120094)
(-0.147992 0.622165 0.114007)
(-0.181481 0.724698 0.122113)
(-0.180088 0.726658 0.11232)
(-0.202729 0.732299 0.0782325)
(-0.222431 0.802204 0.0993329)
(-0.15721 0.651105 0.0851472)
(-0.150995 0.596729 0.0700527)
(-0.243004 0.827434 0.110904)
(-0.226304 0.799208 0.101887)
(-0.154826 0.661498 0.101553)
(-0.137319 0.580646 0.0788687)
(-0.12586 0.555335 0.0906221)
(-0.18494 0.729778 0.111475)
(-0.230107 0.808686 0.1059)
(-0.253551 0.866222 0.101374)
(-0.165048 0.690901 0.0805834)
(-0.15837 0.643163 0.0760839)
(-0.144404 0.602323 0.0655101)
(-0.186423 0.735293 0.070299)
(-0.183823 0.726128 0.0767)
(-0.243069 0.784497 0.0470231)
(-0.250384 0.817141 0.0520455)
(-0.168201 0.66725 0.0634418)
(-0.162602 0.630153 0.0602778)
(-0.235026 0.788679 0.0529186)
(-0.226635 0.790954 0.055967)
(-0.245289 0.817254 0.0584392)
(-0.237446 0.785543 0.055113)
(-0.162469 0.650626 0.0602116)
(-0.19931 0.729239 0.0554089)
(-0.173094 0.647296 0.055054)
(-0.227534 0.579761 0.182739)
(-0.209329 0.554994 0.181768)
(-0.190468 0.510198 0.190276)
(-0.211223 0.546381 0.185113)
(-0.204489 0.532127 0.187575)
(-0.209929 0.531696 0.184923)
(-0.222407 0.531959 0.178982)
(-0.224421 0.54811 0.168782)
(-0.221269 0.530524 0.176183)
(-0.198817 0.592519 0.0579295)
(-0.209054 0.633322 0.0541753)
(-0.197269 0.537876 0.0491985)
(-0.188487 0.549263 0.0571319)
(-0.145874 0.439966 0.0530269)
(-0.149201 0.432516 0.0531622)
(-0.136871 0.407173 0.0579256)
(-0.149509 0.47819 0.0478472)
(-0.146141 0.446426 0.0492512)
(-0.162656 0.485343 0.0484131)
(-0.15875 0.496606 0.0483035)
(-0.186207 0.590603 0.053036)
(-0.193408 0.533413 0.0555605)
(-0.154962 0.485716 0.0461027)
(-0.172197 0.528812 0.0456388)
(-0.193992 0.569863 0.0418907)
(-0.165986 0.462254 0.05162)
(-0.189779 0.539582 0.0454517)
(-0.247339 0.864067 0.19176)
(-0.21971 0.78092 0.203501)
(-0.265735 0.885115 0.181153)
(-0.253609 0.86668 0.187807)
(-0.252235 0.827073 0.200954)
(-0.235276 0.817819 0.204515)
(-0.258102 0.869565 0.187451)
(-0.248678 0.84175 0.206303)
(-0.304453 0.915026 0.194923)
(-0.250726 0.821749 0.210202)
(-0.310696 0.941336 0.182775)
(-0.334453 0.960375 0.174641)
(-0.293743 0.901451 0.197993)
(-0.24349 0.785773 0.140294)
(-0.246411 0.749854 0.109231)
(-0.243321 0.744676 0.11178)
(-0.235925 0.659948 0.122933)
(-0.241228 0.698857 0.101278)
(-0.240393 0.769823 0.145635)
(-0.235128 0.73311 0.155523)
(-0.240949 0.642622 0.120269)
(-0.246352 0.690192 0.0923458)
(-0.238761 0.6926 0.141425)
(-0.234101 0.684343 0.153585)
(-0.239658 0.703252 0.134433)
(-0.242781 0.722964 0.124793)
(-0.248238 0.733312 0.101106)
(-0.240464 0.681502 0.153486)
(-0.240219 0.683255 0.135542)
(-0.292966 0.961889 0.116654)
(-0.28367 0.954484 0.114265)
(-0.292239 0.963581 0.12873)
(-0.293211 0.960359 0.100549)
(-0.310091 0.951831 0.0789792)
(-0.295483 0.950728 0.106215)
(-0.310227 0.958352 0.0890874)
(-0.316129 0.956209 0.083755)
(-0.352113 0.95384 0.119874)
(-0.364095 0.976573 0.118244)
(-0.355809 0.947223 0.0970407)
(-0.349235 0.928216 0.0884938)
(-0.359108 0.938939 0.0906428)
(-0.357516 0.970558 0.129168)
(-0.37274 0.962151 0.0959468)
(-0.368026 0.936499 0.0884459)
(-0.34537 0.88946 0.0890916)
(-0.352737 0.913808 0.0892902)
(-0.361447 0.973649 0.126496)
(-0.365579 0.970698 0.116559)
(-0.363715 0.919377 0.0867545)
(-0.361912 0.915847 0.0958191)
(-0.355467 0.958766 0.115777)
(-0.368308 0.940334 0.0938456)
(-0.346425 0.978411 0.168522)
(-0.341066 0.985857 0.19824)
(-0.323932 0.958721 0.172141)
(-0.322726 0.96397 0.171577)
(-0.327322 0.962113 0.174173)
(-0.330347 0.979184 0.203587)
(-0.296459 0.938656 0.19766)
(-0.302052 0.953258 0.180969)
(-0.274713 0.887424 0.22277)
(-0.272332 0.87637 0.226855)
(-0.309756 0.95711 0.22563)
(-0.296451 0.917759 0.223716)
(-0.30299 0.951993 0.1935)
(-0.297334 0.918885 0.2184)
(-0.360938 0.957041 0.0835347)
(-0.367254 0.986741 0.0912333)
(-0.363536 0.981831 0.0870179)
(-0.381909 1.00752 0.0939912)
(-0.384635 1.00489 0.0908451)
(-0.379108 0.999642 0.101522)
(-0.381098 1.00612 0.106275)
(-0.366989 0.992564 0.110166)
(-0.37099 0.997556 0.107127)
(-0.365833 0.982669 0.102322)
(-0.373931 0.988031 0.0976418)
(-0.369952 0.976552 0.0767989)
(-0.371842 0.982755 0.0840043)
(-0.370901 0.967837 0.0824789)
(-0.369348 0.970209 0.0764287)
(-0.358931 0.979636 0.0948287)
(-0.353204 0.96488 0.0907143)
(-0.371046 0.991513 0.102566)
(-0.373484 0.989054 0.094123)
(-0.365801 0.98099 0.0888947)
(-0.361822 0.938289 0.0828375)
(-0.30271 0.889475 0.110548)
(-0.309229 0.91725 0.116389)
(-0.299877 0.874147 0.112561)
(-0.301311 0.873105 0.106231)
(-0.33336 0.942023 0.120844)
(-0.334887 0.94785 0.121132)
(-0.302327 0.839544 0.093461)
(-0.302724 0.853992 0.100891)
(-0.324314 0.910005 0.10604)
(-0.315558 0.917753 0.109412)
(-0.333857 0.961122 0.127114)
(-0.316056 0.885308 0.114474)
(-0.307072 0.863434 0.101926)
(-0.315704 0.919081 0.116132)
(-0.32617 0.947975 0.131045)
(-0.33033 0.97552 0.145509)
(-0.337045 0.960857 0.138024)
(-0.32445 0.96077 0.135044)
(-0.312675 0.910181 0.127162)
(-0.305585 0.914036 0.122505)
(-0.244446 0.728161 0.0918753)
(-0.242881 0.718397 0.0835196)
(-0.23397 0.695175 0.0950855)
(-0.237882 0.718422 0.0955288)
(-0.229425 0.72596 0.113664)
(-0.24479 0.739401 0.0928193)
(-0.234299 0.739981 0.101593)
(-0.260873 0.783117 0.0847799)
(-0.256505 0.795153 0.0944424)
(-0.264756 0.810515 0.0977353)
(-0.263918 0.821236 0.10697)
(-0.232712 0.732859 0.110349)
(-0.255894 0.801362 0.101504)
(-0.253516 0.771226 0.0919094)
(-0.274757 0.840814 0.112177)
(-0.260131 0.817706 0.104019)
(-0.244084 0.782622 0.106578)
(-0.268809 0.812392 0.102275)
(-0.368642 1.00032 0.150285)
(-0.357916 1.00106 0.165206)
(-0.362569 0.989924 0.162549)
(-0.348059 0.965716 0.193469)
(-0.363196 0.994669 0.159954)
(-0.363687 0.995116 0.154821)
(-0.360816 1.00527 0.163674)
(-0.331827 0.914756 0.202149)
(-0.332667 0.933088 0.198529)
(-0.346463 0.961637 0.188581)
(-0.354641 0.988328 0.175507)
(-0.357576 0.998378 0.175001)
(-0.364042 0.992845 0.173847)
(-0.325372 0.914345 0.204946)
(-0.310277 0.880265 0.205952)
(-0.345937 0.951527 0.195816)
(-0.320895 0.887419 0.202272)
(-0.325636 0.91787 0.207738)
(-0.353921 0.99631 0.182465)
(-0.331511 0.940628 0.208261)
(-0.242074 1.03226 0.205035)
(-0.228349 1.03797 0.213389)
(-0.23129 1.02538 0.210964)
(-0.213292 1.01494 0.229689)
(-0.219385 1.03302 0.230658)
(-0.226827 1.02921 0.223672)
(-0.211189 0.992299 0.210796)
(-0.218605 1.02319 0.228136)
(-0.241822 1.04998 0.21784)
(-0.227765 1.02209 0.21227)
(-0.236304 1.03226 0.219242)
(-0.226586 1.02779 0.216343)
(-0.250314 1.02128 0.203453)
(-0.249746 1.03123 0.208392)
(-0.252476 1.03772 0.204298)
(-0.273481 0.998563 0.190242)
(-0.276008 1.02754 0.198784)
(-0.266881 1.02304 0.203195)
(-0.266214 1.0237 0.20408)
(-0.277101 0.965813 0.17967)
(-0.284309 0.977284 0.17792)
(-0.28997 1.02183 0.194507)
(-0.263018 0.935842 0.168813)
(-0.290644 0.99435 0.183141)
(-0.284535 1.01404 0.201224)
(-0.283548 0.990159 0.177536)
(-0.280401 0.990356 0.178674)
(-0.293795 0.959847 0.188494)
(-0.293311 0.945364 0.172227)
(-0.263658 0.907365 0.147457)
(-0.244362 0.874769 0.13021)
(-0.240316 0.877566 0.199819)
(-0.224833 0.845782 0.171792)
(-0.249697 0.904099 0.171238)
(-0.244107 0.894322 0.16689)
(-0.242454 0.903669 0.195797)
(-0.256889 0.931234 0.158296)
(-0.268978 0.925779 0.170524)
(-0.254269 0.911099 0.165918)
(-0.251144 0.917972 0.186086)
(-0.274775 0.946005 0.214776)
(-0.26825 0.955011 0.218803)
(-0.28824 0.964816 0.199933)
(-0.160785 0.502523 0.0892241)
(-0.140725 0.468164 0.0868715)
(-0.145172 0.513256 0.0760305)
(-0.13674 0.502799 0.0715688)
(-0.160647 0.538818 0.0826141)
(-0.157329 0.49485 0.0941847)
(-0.126121 0.445756 0.0815094)
(-0.139663 0.497342 0.078902)
(-0.127555 0.457222 0.0844043)
(-0.127335 0.461844 0.0750512)
(-0.14295 0.47393 0.082497)
(-0.151217 0.513576 0.0863562)
(-0.158656 0.526632 0.0830308)
(-0.168448 0.513412 0.0849716)
(-0.211405 0.981687 0.235196)
(-0.21385 1.00276 0.24177)
(-0.213419 0.986872 0.228331)
(-0.225819 0.987327 0.226718)
(-0.229521 0.99968 0.227889)
(-0.245666 1.00538 0.220086)
(-0.239233 0.972299 0.207127)
(-0.227392 1.01222 0.231587)
(-0.219621 0.987237 0.230273)
(-0.253116 1.01646 0.213615)
(-0.232747 0.979671 0.224636)
(-0.255727 0.99258 0.19824)