/*--------------------------------*- C++ -*----------------------------------*\
| =========                 |                                                 |
| \\      /  F ield         | OpenFOAM: The Open Source CFD Toolbox           |
|  \\    /   O peration     | Version:  v1612+                                |
|   \\  /    A nd           | Web:      www.OpenFOAM.com                      |
|    \\/     M anipulation  |                                                 |
\*---------------------------------------------------------------------------*/
FoamFile
{
    version     2.0;
    format      ascii;
    class       volVectorField;
    location    "100";
    object      U;
}
// * * * * * * * * * * * * * * * * * * * * * * * * * * * * * * * * * * * * * //

dimensions      [0 1 -1 0 0 0 0];

internalField   nonuniform List<vector> 
19037
(
(0.286818 1.07992 -0.450501)
(0.449677 0.514706 -0.371036)
(-0.0947461 0.907755 -0.37557)
(-0.0843403 0.471887 -0.147714)
(-0.109801 0.49665 -0.160424)
(-0.167391 0.647308 -0.218939)
(-0.162997 0.623344 -0.230279)
(-0.179638 0.62289 -0.227513)
(-0.109312 0.532165 -0.176308)
(-0.0765761 0.468632 -0.134392)
(-0.127787 0.565935 -0.184103)
(-0.0965306 0.490287 -0.143377)
(-0.0587937 0.387648 -0.101576)
(-0.125225 0.513867 -0.179849)
(-0.103415 0.467905 -0.149272)
(-0.073745 0.383741 -0.123902)
(-0.0722314 0.411094 -0.11716)
(-0.067552 0.3778 -0.117443)
(-0.0518091 0.345347 -0.0904589)
(0.0646913 0.932686 -0.494891)
(0.102213 0.6782 -0.455061)
(0.10537 0.642154 -0.433285)
(0.0395739 0.879309 -0.480675)
(0.0585657 0.930025 -0.502634)
(0.0427264 0.75372 -0.456648)
(0.0423761 0.764077 -0.441432)
(0.0895841 0.640859 -0.405781)
(0.154094 1.03461 -0.36134)
(0.105033 1.03493 -0.379464)
(0.197397 0.999382 -0.346924)
(0.167998 1.0215 -0.372661)
(0.207532 1.04929 -0.343825)
(0.143538 1.03684 -0.377037)
(0.154657 1.04001 -0.401938)
(0.104862 1.03696 -0.402341)
(0.129391 1.02013 -0.375365)
(0.174387 1.04731 -0.373887)
(0.186558 1.03695 -0.347482)
(0.121347 1.02334 -0.374163)
(0.220248 1.03361 -0.35813)
(0.206627 1.02771 -0.346542)
(0.138491 1.00971 -0.356195)
(0.167287 0.834919 -0.337753)
(0.185912 0.805732 -0.323569)
(0.270465 0.757679 -0.277519)
(0.304342 0.746387 -0.276007)
(0.167456 0.866398 -0.364902)
(0.333893 0.781142 -0.390032)
(0.251914 0.81188 -0.389396)
(0.32719 0.758263 -0.316713)
(0.257725 0.812864 -0.365311)
(0.250797 0.84275 -0.407816)
(0.340699 0.739126 -0.334385)
(0.328553 0.740836 -0.318458)
(0.301652 0.790396 -0.372394)
(0.362142 0.756691 -0.328006)
(0.0953194 0.375626 -0.0922301)
(0.0767459 0.331096 -0.0961803)
(0.109169 0.351041 -0.0803825)
(0.103958 0.327206 -0.0788162)
(0.0846621 0.229399 -0.0654715)
(0.0950731 0.276064 -0.0663286)
(0.0713595 0.242866 -0.0799215)
(0.0707572 0.237934 -0.0799632)
(0.0982077 0.339411 -0.081804)
(0.103036 0.283504 -0.0571814)
(0.0943226 0.240949 -0.0589005)
(0.0797005 0.2038 -0.0586931)
(0.08098 0.227625 -0.0613986)
(0.10087 0.29437 -0.0529121)
(0.102677 0.264502 -0.0525285)
(0.0903078 0.221772 -0.0527915)
(0.0772282 0.215193 -0.067575)
(0.0830183 0.199856 -0.0519028)
(0.088311 0.227059 -0.0511718)
(0.0915161 0.217474 -0.0507617)
(0.245355 0.890861 -0.343737)
(0.228702 0.942129 -0.354916)
(0.267356 0.839955 -0.334604)
(0.294392 0.831195 -0.343029)
(0.158905 0.845974 -0.342323)
(0.23835 0.841932 -0.331922)
(0.110633 0.816804 -0.329652)
(0.148723 0.885251 -0.342181)
(0.281555 0.817066 -0.336576)
(0.278731 0.788208 -0.339512)
(0.166768 0.77436 -0.3256)
(0.219365 0.76981 -0.330165)
(0.132675 0.81421 -0.333084)
(0.132404 0.815829 -0.309739)
(0.195537 0.718552 -0.334886)
(0.190974 0.813898 -0.337471)
(0.240328 0.805233 -0.353746)
(0.0865379 0.506199 -0.187839)
(0.0845008 0.369566 -0.115964)
(0.0580972 0.377222 -0.138096)
(0.0989996 0.435295 -0.120081)
(0.0629066 0.427475 -0.133849)
(0.126774 0.524076 -0.149264)
(0.120094 0.476679 -0.123025)
(0.198241 0.952979 -0.450514)
(0.17075 0.924485 -0.421276)
(0.249923 1.07622 -0.503535)
(0.239614 1.01309 -0.499087)
(0.148042 0.935022 -0.430806)
(0.147569 0.950035 -0.438881)
(0.178685 0.940797 -0.455711)
(0.22143 1.06528 -0.471081)
(0.303099 1.04293 -0.526295)
(0.301143 1.04155 -0.525724)
(0.258275 0.963411 -0.500591)
(0.288738 0.973105 -0.521517)
(0.182633 1.05835 -0.475449)
(0.221957 1.07226 -0.492386)
(0.148799 0.930387 -0.431303)
(0.153843 0.936323 -0.423785)
(0.187271 1.03871 -0.520764)
(0.245877 1.0873 -0.502929)
(0.228041 0.953898 -0.506862)
(0.261081 0.980606 -0.511434)
(0.265779 1.04533 -0.52627)
(0.186354 0.985585 -0.450858)
(0.204095 0.978127 -0.507033)
(0.234572 1.00854 -0.510625)
(-0.0519238 0.759047 -0.246518)
(-0.123212 0.841773 -0.293654)
(-0.0635457 0.816282 -0.287278)
(-0.0055751 0.788547 -0.280905)
(-0.15399 0.89776 -0.317649)
(-0.181576 0.941414 -0.35667)
(-0.125034 0.897029 -0.334878)
(-0.131851 0.88977 -0.32078)
(-0.0922865 0.826235 -0.300284)
(-0.0530772 0.828475 -0.293186)
(-0.0461813 0.811215 -0.283535)
(-0.0338595 0.814129 -0.286511)
(-0.110426 0.900845 -0.335125)
(-0.11632 0.912315 -0.330525)
(-0.107503 0.858484 -0.289274)
(-0.153897 0.917365 -0.340514)
(-0.0984044 0.85689 -0.309183)
(0.0040427 0.745921 -0.225721)
(-0.0469875 0.846051 -0.305764)
(-0.0339416 0.798429 -0.272291)
(-0.17356 0.78288 -0.292019)
(-0.168578 0.773535 -0.292604)
(-0.180393 0.73636 -0.283122)
(-0.146176 0.674965 -0.253244)
(-0.129818 0.701769 -0.264461)
(-0.244203 0.872872 -0.344768)
(-0.275234 0.905591 -0.369343)
(-0.157411 0.703207 -0.256784)
(-0.200252 0.789253 -0.302823)
(-0.180552 0.721281 -0.286745)
(-0.166801 0.768229 -0.305348)
(-0.162562 0.70832 -0.264275)
(-0.182135 0.745984 -0.303408)
(-0.214326 0.796732 -0.312101)
(-0.137762 0.766739 -0.296238)
(-0.146083 0.833133 -0.325147)
(-0.20673 0.941993 -0.414337)
(-0.208115 0.972638 -0.39477)
(-0.204459 0.920069 -0.395007)
(-0.201574 0.9198 -0.374369)
(-0.160622 0.82647 -0.368986)
(-0.122673 0.628637 -0.301929)
(-0.161125 0.757048 -0.300503)
(-0.118487 0.776385 -0.300185)
(-0.17751 0.908978 -0.362)
(-0.120345 0.684946 -0.305913)
(-0.11628 0.775733 -0.352253)
(-0.161857 0.855682 -0.370161)
(-0.205485 0.868445 -0.39676)
(-0.148024 0.786899 -0.330236)
(-0.1233 0.708296 -0.283478)
(-0.141324 0.705963 -0.308063)
(-0.140075 0.79157 -0.344342)
(-0.075633 0.527313 -0.253553)
(-0.11013 0.793169 -0.376728)
(-0.0637888 0.693264 -0.35158)
(-0.0557427 0.70691 -0.332514)
(-0.0390704 0.647156 -0.307588)
(0.0400508 0.465837 -0.287847)
(0.0715571 0.411593 -0.280244)
(0.0323141 0.45237 -0.284977)
(0.0553265 0.411816 -0.287156)
(-0.0722161 0.732259 -0.365292)
(-0.0382966 0.702554 -0.366368)
(-0.0708447 0.706225 -0.374781)
(0.0198074 0.506472 -0.27387)
(-0.0283493 0.67696 -0.327467)
(0.0580587 0.533624 -0.309755)
(0.0705912 0.470209 -0.299336)
(0.0210307 0.477299 -0.310858)
(-0.016141 0.52869 -0.313779)
(0.0110498 0.54018 -0.33813)
(0.00209016 0.596733 -0.344875)
(-0.0636692 0.692054 -0.342938)
(-0.12213 1.00414 -0.488187)
(-0.161237 1.05856 -0.481112)
(-0.101231 0.955429 -0.460539)
(-0.112532 1.00171 -0.480631)
(-0.166855 1.07693 -0.468496)
(-0.124587 0.9538 -0.454452)
(-0.190626 1.02739 -0.45335)
(-0.190601 1.01182 -0.451565)
(-0.164909 0.948393 -0.452833)
(-0.182567 1.00424 -0.458898)
(-0.18399 1.07534 -0.457972)
(-0.118598 0.812058 -0.39746)
(-0.100207 0.790516 -0.394373)
(-0.000873177 0.647416 -0.368823)
(-0.00235098 0.676307 -0.384888)
(-0.165174 0.863074 -0.396753)
(-0.14742 0.853554 -0.404019)
(-0.131916 0.806278 -0.406084)
(-0.15151 0.853203 -0.423563)
(-0.13671 0.79873 -0.376817)
(-0.158548 0.822079 -0.373926)
(-0.143888 0.825988 -0.386183)
(-0.0889804 0.710113 -0.36486)
(-0.0891223 0.735409 -0.366788)
(-0.13067 0.826361 -0.369501)
(-0.06508 0.777826 -0.396422)
(-0.0307801 0.700787 -0.376808)
(-0.143447 0.858567 -0.406255)
(-0.0206398 0.706147 -0.383861)
(-0.0910042 0.734507 -0.37607)
(-0.0969572 0.771655 -0.372714)
(-0.136125 0.864101 -0.392991)
(0.423841 0.627344 -0.208588)
(0.430959 0.598662 -0.185252)
(0.390402 0.617559 -0.187888)
(0.427075 0.597634 -0.182996)
(0.43929 0.536445 -0.137527)
(0.29529 0.723781 -0.246909)
(0.274631 0.726597 -0.239677)
(0.33739 0.676116 -0.248993)
(0.322943 0.687266 -0.252822)
(0.317526 0.678367 -0.205626)
(0.290663 0.662706 -0.181065)
(0.38545 0.572465 -0.139513)
(0.375684 0.549652 -0.133185)
(0.346292 0.595799 -0.110887)
(0.461174 0.54921 -0.13217)
(0.221389 0.780482 -0.265766)
(0.366029 0.611709 -0.153433)
(0.410935 0.538096 -0.120321)
(0.375909 0.564233 -0.101027)
(0.417542 0.514678 -0.0866188)
(0.354294 0.592764 -0.127136)
(-0.000254464 1.13063 -0.464817)
(-0.00397906 1.13534 -0.440303)
(-0.0083091 1.09059 -0.422344)
(-0.0372363 1.14485 -0.47256)
(-0.0297125 1.10902 -0.429653)
(-0.0251517 1.11844 -0.472994)
(-0.0907315 1.12905 -0.456054)
(-0.0685457 1.13656 -0.469709)
(-0.0635099 1.01387 -0.428994)
(-0.0585531 1.08675 -0.465898)
(-0.0397192 1.1296 -0.470404)
(-0.06178 1.12695 -0.479575)
(-0.0557776 1.1102 -0.472794)
(-0.053714 1.03043 -0.432131)
(-0.0892852 1.02595 -0.455886)
(-0.03371 1.03912 -0.426082)
(-0.0651454 0.653125 -0.332378)
(-0.0703873 0.654612 -0.308508)
(-0.0397892 0.57101 -0.290491)
(-0.101253 0.648155 -0.308316)
(-0.0831025 0.610523 -0.283588)
(-0.0619539 0.581105 -0.288432)
(-0.103546 0.667791 -0.347417)
(-0.103671 0.752185 -0.369126)
(-0.14889 0.86346 -0.410659)
(-0.124179 0.910083 -0.398311)
(-0.0999567 0.714128 -0.322397)
(-0.0728387 0.59003 -0.294545)
(-0.14072 0.800673 -0.354526)
(-0.0167464 0.476686 -0.271701)
(0.00321384 0.429469 -0.272252)
(-0.0978213 0.593497 -0.297384)
(-0.109236 0.595169 -0.300549)
(0.0230664 0.375003 -0.228747)
(0.000527208 0.427478 -0.240425)
(-0.0627094 0.508528 -0.283288)
(-0.116984 0.599205 -0.293796)
(-0.0218414 0.435771 -0.237241)
(-0.0570841 0.440731 -0.235421)
(-0.0169516 0.412204 -0.227516)
(-0.0371791 0.465544 -0.241782)
(-0.128586 0.609288 -0.297222)
(-0.126953 0.597769 -0.290912)
(-0.0524803 0.425193 -0.25747)
(-0.0783092 0.48371 -0.268474)
(-0.0140563 0.378696 -0.232755)
(-0.0442127 0.404213 -0.237917)
(-0.0236658 0.363574 -0.227225)
(-0.0690244 0.475397 -0.257327)
(0.32589 0.725317 -0.361927)
(0.336221 0.639848 -0.343255)
(0.312994 0.739359 -0.354794)
(0.355682 0.729384 -0.369124)
(0.383006 0.715114 -0.362529)
(0.30347 0.605529 -0.375645)
(0.432241 0.552643 -0.38278)
(0.332928 0.655111 -0.374923)
(0.449821 0.552614 -0.398789)
(0.486342 0.581986 -0.345138)
(0.34693 0.59428 -0.369863)
(0.511067 0.521053 -0.344626)
(0.489624 0.592672 -0.349181)
(0.411297 0.515352 -0.392194)
(0.452237 0.517784 -0.372899)
(0.527785 0.545314 -0.344716)
(0.496525 0.474615 -0.344124)
(0.463727 0.490548 -0.383075)
(0.464894 0.449563 -0.356037)
(0.137693 0.345653 -0.262027)
(0.110678 0.269867 -0.202149)
(0.0852898 0.382677 -0.224781)
(0.059651 0.357918 -0.182889)
(0.106342 0.341702 -0.233333)
(0.0896205 0.283524 -0.179028)
(0.0760018 0.292384 -0.167503)
(0.0577961 0.328214 -0.161051)
(0.0762309 0.258185 -0.148071)
(0.0872881 0.251572 -0.156412)
(0.0867145 0.232693 -0.149611)
(0.388266 1.01375 -0.556111)
(0.409875 0.979128 -0.564307)
(0.446134 0.941096 -0.581763)
(0.429986 0.971414 -0.573089)
(0.382673 0.982487 -0.550851)
(0.39645 1.02263 -0.55832)
(0.442658 0.940865 -0.55812)
(0.432792 0.962546 -0.556948)
(0.392055 0.993053 -0.570629)
(0.400405 0.997369 -0.564238)
(0.397471 1.00781 -0.562741)
(0.422551 0.97465 -0.564826)
(0.432402 0.934895 -0.59136)
(0.447514 0.890338 -0.577933)
(0.385569 0.968195 -0.562369)
(0.438737 0.975839 -0.576407)
(0.458358 0.916253 -0.582532)
(0.44717 0.90617 -0.566763)
(0.462944 0.897807 -0.565806)
(0.472286 0.874624 -0.563705)
(0.378984 0.624882 -0.117409)
(0.340292 0.605306 -0.0954143)
(0.299998 0.568287 -0.0832905)
(0.319925 0.563422 -0.0782927)
(0.402806 0.541788 -0.0660148)
(0.42433 0.525514 -0.0775275)
(0.455025 0.579048 -0.0929014)
(0.334576 0.502267 -0.0391955)
(0.366627 0.615029 -0.105351)
(0.380507 0.505817 -0.043943)
(0.441796 0.527113 -0.0758959)
(0.391103 0.47068 -0.0514005)
(0.354818 0.472318 -0.0367202)
(0.355902 0.442426 -0.0292733)
(0.38253 0.467083 -0.04004)
(0.412068 0.552297 -0.0767707)
(0.0503309 0.654243 -0.186572)
(0.0474533 0.687666 -0.190829)
(-0.0260387 0.716227 -0.253716)
(0.011066 0.649406 -0.199647)
(-0.0494045 0.762217 -0.290433)
(-0.0386714 0.726593 -0.264062)
(0.0724351 0.686998 -0.185013)
(0.0572823 0.727304 -0.228424)
(0.047071 0.6899 -0.215408)
(0.0159482 0.69726 -0.205833)
(0.0221148 0.680413 -0.193294)
(-0.0158656 0.745315 -0.266264)
(-0.062006 0.784141 -0.287683)
(-0.0700403 0.799732 -0.292323)
(-0.00676874 0.822539 -0.296104)
(-0.0227507 0.841628 -0.315792)
(-0.078608 0.833928 -0.324906)
(-0.0451453 0.818172 -0.322046)
(-0.061375 0.839468 -0.313504)
(-0.0461514 0.760255 -0.263822)
(0.0563391 0.49073 -0.242496)
(0.0545566 0.474401 -0.22373)
(0.0870373 0.501491 -0.249161)
(0.578866 0.631902 -0.335168)
(0.590728 0.588156 -0.327452)
(0.56062 0.618112 -0.344129)
(0.587944 0.616934 -0.336803)
(0.574938 0.680507 -0.334069)
(0.478925 0.711763 -0.357721)
(0.483866 0.714684 -0.354706)
(0.616684 0.674779 -0.310313)
(0.602542 0.633297 -0.319449)
(0.498599 0.687418 -0.372427)
(0.569613 0.622361 -0.357087)
(0.598984 0.653995 -0.342426)
(0.623426 0.706036 -0.325531)
(0.446903 0.821835 -0.346084)
(0.476244 0.844873 -0.328184)
(0.599892 0.779267 -0.292921)
(0.623894 0.733042 -0.297526)
(0.493586 0.768653 -0.346141)
(0.627919 0.647146 -0.301991)
(0.566605 0.761062 -0.299346)
(0.610441 0.764503 -0.28851)
(0.577794 0.777935 -0.295527)
(0.357274 1.04499 -0.403453)
(0.349317 1.03225 -0.388961)
(0.293099 0.989622 -0.419109)
(0.383412 1.09301 -0.44739)
(0.398136 1.08983 -0.444938)
(0.337327 1.05142 -0.424744)
(0.397605 1.10055 -0.468087)
(0.380794 1.08851 -0.466931)
(0.344723 1.06117 -0.457341)
(0.331243 1.0148 -0.441496)
(0.397157 1.1041 -0.464435)
(0.401491 1.10629 -0.454734)
(0.423465 1.10296 -0.469427)
(0.384193 1.08453 -0.471718)
(0.401853 1.11246 -0.486754)
(0.368543 1.09179 -0.462037)
(0.220091 0.551026 -0.0808577)
(0.217745 0.601559 -0.105078)
(0.101617 0.70887 -0.218502)
(0.137094 0.708614 -0.196234)
(0.183437 0.665029 -0.151695)
(0.266006 0.554307 -0.0792512)
(0.260977 0.495048 -0.0545004)
(0.203818 0.553287 -0.07626)
(0.24117 0.495006 -0.0541339)
(0.147445 0.644688 -0.150761)
(0.173674 0.714887 -0.20751)
(0.198018 0.673546 -0.172574)
(0.292304 0.567906 -0.0894603)
(0.300059 0.61156 -0.109058)
(0.222705 0.523587 -0.0669686)
(0.1842 0.631099 -0.133231)
(0.286832 0.58413 -0.0887549)
(0.241772 0.572875 -0.0755342)
(-0.336654 1.09398 -0.443238)
(-0.321364 1.08558 -0.448063)
(-0.252301 1.02632 -0.409316)
(-0.25762 1.02916 -0.412465)
(-0.314612 1.02666 -0.418236)
(-0.326537 1.02014 -0.407547)
(-0.297428 1.08054 -0.433041)
(-0.317946 1.06808 -0.43794)
(-0.334226 1.12173 -0.446376)
(-0.284748 1.04985 -0.425808)
(-0.305564 1.02924 -0.407808)
(-0.303406 1.05541 -0.416647)
(-0.293706 1.02526 -0.403127)
(-0.265144 1.01205 -0.401426)
(-0.277572 1.02359 -0.425369)
(-0.279014 0.988302 -0.396225)
(-0.290443 1.05181 -0.421727)
(-0.282379 0.992579 -0.39963)
(-0.312352 1.15103 -0.456154)
(-0.335301 1.10828 -0.45171)
(-0.309783 1.13037 -0.458108)
(-0.304641 1.09692 -0.448046)
(-0.30883 1.11785 -0.467423)
(-0.318249 1.09959 -0.450942)
(-0.346699 1.12768 -0.463664)
(-0.331126 1.16096 -0.479842)
(-0.271498 1.05393 -0.437828)
(-0.267217 1.05886 -0.453326)
(-0.287188 1.10084 -0.445848)
(0.115593 1.1271 -0.437519)
(0.0898493 1.14354 -0.441854)
(0.173856 1.07549 -0.397052)
(0.177145 1.08662 -0.384161)
(0.187967 1.03708 -0.366351)
(0.253758 1.04943 -0.365296)
(0.103736 1.13467 -0.444248)
(0.139923 1.11728 -0.438305)
(0.139609 1.15543 -0.462599)
(0.191864 1.06328 -0.408591)
(0.209464 1.0397 -0.375316)
(0.231831 1.04026 -0.365678)
(0.223346 1.0415 -0.364386)
(0.158865 1.08519 -0.41044)
(0.179486 1.07971 -0.392254)
(0.155475 1.13897 -0.422474)
(0.180181 1.06647 -0.417023)
(0.195144 1.05256 -0.386038)
(0.17152 1.10852 -0.436796)
(0.314725 0.570389 -0.20231)
(0.292522 0.61302 -0.220703)
(0.299392 0.555065 -0.203218)
(0.327849 0.51243 -0.180445)
(0.203235 0.734692 -0.290795)
(0.296004 0.624969 -0.249344)
(0.336662 0.575439 -0.255293)
(0.311947 0.622363 -0.273495)
(0.126752 0.768004 -0.311979)
(0.194552 0.743967 -0.324048)
(0.12503 0.785065 -0.316632)
(0.163829 0.771335 -0.315864)
(0.161916 0.742182 -0.319795)
(0.20141 0.751603 -0.316574)
(0.32642 0.574192 -0.268011)
(0.345135 0.528719 -0.22143)
(0.283691 0.602675 -0.218598)
(0.276027 0.60738 -0.266027)
(-0.0285141 0.622751 -0.394374)
(-0.00641053 0.65476 -0.412702)
(-0.0571614 0.778034 -0.433277)
(-0.105237 0.817336 -0.430024)
(-0.0559979 0.718579 -0.401241)
(0.0197429 0.582052 -0.409253)
(0.016279 0.604423 -0.401197)
(0.0290017 0.579765 -0.413393)
(-0.0996066 0.841742 -0.425198)
(0.0364213 0.640697 -0.417702)
(0.0483209 0.621766 -0.422797)
(-0.0204839 0.783519 -0.421088)
(-0.01053 0.796892 -0.432794)
(-0.0934504 0.802328 -0.42531)
(-0.0416132 0.739903 -0.421451)
(-0.184254 0.948773 -0.375654)
(-0.153694 0.931938 -0.361447)
(-0.18128 1.00751 -0.401303)
(-0.163954 0.94217 -0.378532)
(-0.242849 1.03224 -0.404973)
(-0.217241 1.01407 -0.397981)
(-0.214221 1.04776 -0.416734)
(-0.188434 0.995062 -0.401263)
(-0.221491 1.01677 -0.420065)
(-0.223811 0.982626 -0.406504)
(-0.250442 1.04511 -0.422131)
(-0.19839 1.00217 -0.410472)
(-0.219367 0.996409 -0.401807)
(0.303287 0.959479 -0.319988)
(0.34581 0.913628 -0.326987)
(0.261977 1.01241 -0.332861)
(0.31967 0.905711 -0.339413)
(0.34998 0.918234 -0.316875)
(0.397765 0.827558 -0.324081)
(0.292191 0.816573 -0.344635)
(0.391508 0.81312 -0.367826)
(0.297746 0.982835 -0.318935)
(0.24508 0.895139 -0.341309)
(0.298087 0.811663 -0.369764)
(0.222989 0.775977 -0.339437)
(0.323053 0.836355 -0.340943)
(0.326535 0.756843 -0.35714)
(0.251401 0.876505 -0.347376)
(0.248861 0.873907 -0.360015)
(0.192279 0.974085 -0.351201)
(0.173457 0.91615 -0.349955)
(0.187507 0.954435 -0.335207)
(0.128456 0.908309 -0.364174)
(0.213999 0.958621 -0.348368)
(0.188582 0.905498 -0.346965)
(0.417363 0.888109 -0.584327)
(0.376582 0.967083 -0.552217)
(0.415709 0.900922 -0.574605)
(0.449664 0.873458 -0.562117)
(0.413201 0.895416 -0.563478)
(0.353395 0.955958 -0.551936)
(0.360356 0.981657 -0.569267)
(0.431815 0.892413 -0.556119)
(0.423712 0.906151 -0.561683)
(0.359069 1.00326 -0.555706)
(0.333857 1.03635 -0.560058)
(0.427011 0.940218 -0.559695)
(0.378432 0.969098 -0.566272)
(0.40943 0.953814 -0.563984)
(0.395744 0.839379 -0.49791)
(0.346752 0.829933 -0.474882)
(0.41665 0.808433 -0.48422)
(0.512953 0.812749 -0.479592)
(0.467944 0.850357 -0.518893)
(0.342128 0.755551 -0.365327)
(0.333586 0.76555 -0.360189)
(0.479347 0.792677 -0.461696)
(0.410737 0.731641 -0.34928)
(0.442908 0.712072 -0.340462)
(0.460311 0.800834 -0.457111)
(0.381376 0.790045 -0.433477)
(0.484999 0.737664 -0.378804)
(0.516224 0.755596 -0.378044)
(0.495372 0.790745 -0.426669)
(0.532786 0.793047 -0.431848)
(0.445444 0.798727 -0.455294)
(0.495855 0.76698 -0.404344)
(0.50564 0.762196 -0.383944)
(0.048595 0.35552 -0.148853)
(0.048588 0.398936 -0.141983)
(0.0599522 0.337112 -0.159568)
(0.051197 0.347719 -0.170156)
(0.0687022 0.396176 -0.130958)
(0.0542648 0.370132 -0.13386)
(0.0593573 0.246804 -0.0870646)
(0.0636414 0.203294 -0.080633)
(0.0649149 0.364357 -0.112997)
(0.0599578 0.317559 -0.112911)
(0.058378 0.23771 -0.114841)
(0.0650085 0.222187 -0.0855547)
(0.0682421 0.196445 -0.0805808)
(0.0687131 0.21849 -0.0948344)
(0.0561424 0.327788 -0.143909)
(0.0547354 0.341889 -0.161066)
(0.0425699 0.377982 -0.156911)
(0.0554248 0.319285 -0.153726)
(0.0587989 0.289113 -0.129761)
(0.0676785 0.335152 -0.119624)
(0.0555955 0.293433 -0.149044)
(0.0638976 0.347046 -0.121665)
(0.0586912 0.358934 -0.128)
(0.0511917 0.378105 -0.126657)
(0.0569513 0.230602 -0.0819949)
(0.0596022 0.260708 -0.0824428)
(0.0663356 0.288043 -0.0838463)
(0.0515677 0.337348 -0.12411)
(0.057494 0.236209 -0.0838518)
(0.0567077 0.208502 -0.0748317)
(0.0525947 0.228224 -0.0988936)
(0.0569429 0.197418 -0.0792965)
(0.0569942 0.212182 -0.08836)
(0.0538367 0.237205 -0.101985)
(0.0442497 0.352804 -0.149415)
(0.0549829 0.329705 -0.141249)
(0.0514974 0.257392 -0.107092)
(0.420747 0.79298 -0.353555)
(0.414798 0.744176 -0.352174)
(0.433273 0.709383 -0.37446)
(0.461843 0.791331 -0.353786)
(0.549115 0.738673 -0.317329)
(0.583092 0.667267 -0.31606)
(0.591668 0.697222 -0.305953)
(0.594379 0.667927 -0.32164)
(0.596784 0.693975 -0.31492)
(0.610594 0.624819 -0.308455)
(0.592438 0.625239 -0.339944)
(0.579156 0.661049 -0.324448)
(0.491333 0.794607 -0.343093)
(0.466085 0.753111 -0.353494)
(0.548497 0.618151 -0.352849)
(0.56849 0.738481 -0.323524)
(0.108905 0.353718 -0.0893419)
(0.114904 0.332595 -0.0814784)
(0.0766325 0.265777 -0.0914908)
(0.0793933 0.287011 -0.0854266)
(0.0766466 0.198733 -0.0701821)
(0.0768536 0.192128 -0.0654077)
(0.0915587 0.227365 -0.0556328)
(0.0877112 0.205147 -0.0589682)
(0.083434 0.189114 -0.0606279)
(0.0813427 0.222752 -0.0661933)
(0.0772388 0.201793 -0.0729661)
(0.11018 0.302776 -0.0539135)
(0.100309 0.292824 -0.080621)
(0.089604 0.245485 -0.0663598)
(0.075878 0.206999 -0.0779744)
(0.0941326 0.25399 -0.0577242)
(0.0938023 0.234084 -0.0622169)
(0.296317 0.33154 -0.339484)
(0.323155 0.320426 -0.323025)
(0.277838 0.351055 -0.347944)
(0.332565 0.357914 -0.353904)
(0.352782 0.383817 -0.359406)
(0.363018 0.361128 -0.341085)
(0.271607 0.448854 -0.363281)
(0.276734 0.488497 -0.391895)
(0.309601 0.371972 -0.360282)
(0.397461 0.435631 -0.390191)
(0.399959 0.41593 -0.379329)
(0.380671 0.425853 -0.390576)
(0.327459 0.49968 -0.395593)
(0.331933 0.491354 -0.393216)
(0.290552 0.451641 -0.376028)
(0.44013 0.958558 -0.56303)
(0.44178 0.939624 -0.559195)
(0.506998 0.892862 -0.582504)
(0.498279 0.91647 -0.587519)
(0.467923 0.935111 -0.561977)
(0.526485 0.900937 -0.58836)
(0.551639 0.859291 -0.574751)
(0.568429 0.830834 -0.559763)
(0.548336 0.8263 -0.552393)
(0.554861 0.834756 -0.561965)
(0.446706 0.92792 -0.553371)
(0.466297 0.902409 -0.547675)
(0.515773 0.876798 -0.550013)
(0.49159 0.858752 -0.555292)
(0.556758 0.849354 -0.566283)
(0.512758 0.857375 -0.561953)
(0.5446 0.847935 -0.560528)
(0.500099 0.868143 -0.549688)
(0.534786 0.868138 -0.582038)
(0.441184 1.12725 -0.524596)
(0.451829 1.13308 -0.515556)
(0.377638 1.102 -0.480034)
(0.386033 1.10072 -0.475513)
(0.386535 1.0899 -0.519922)
(0.386106 1.10155 -0.513057)
(0.341525 1.06884 -0.472234)
(0.338353 1.06098 -0.484176)
(0.400733 1.09725 -0.485596)
(0.37871 1.1069 -0.50337)
(0.31258 1.02785 -0.480126)
(0.348394 1.06066 -0.486256)
(0.382046 1.1057 -0.511932)
(0.051958 0.655717 -0.387122)
(-0.0224334 0.763883 -0.397506)
(-0.0124641 0.789135 -0.397531)
(0.0630611 0.682341 -0.393625)
(0.0250075 0.739988 -0.391486)
(0.084311 0.686714 -0.372574)
(0.0434518 0.672115 -0.384212)
(0.00320078 0.729504 -0.395549)
(-0.0440036 0.83447 -0.408796)
(0.123315 0.663156 -0.383828)
(-0.0288599 0.82747 -0.401102)
(-0.0150602 0.83613 -0.401385)
(0.0823156 0.615503 -0.372873)
(0.13723 0.603421 -0.378869)
(-0.000569472 0.728008 -0.412627)
(-0.0183961 0.731865 -0.395078)
(-0.0428213 0.819214 -0.401876)
(-0.0652103 0.844093 -0.402756)
(0.0606888 0.741802 -0.379475)
(0.0411971 0.679052 -0.395907)
(0.0783889 0.65508 -0.387275)
(-0.0043182 0.721676 -0.399366)
(-0.229664 0.810352 -0.303529)
(-0.21707 0.79075 -0.309046)
(-0.28688 0.904527 -0.361563)
(-0.262045 0.884295 -0.358081)
(-0.230395 0.773634 -0.285723)
(-0.162248 0.736238 -0.247793)
(-0.185443 0.716466 -0.276634)
(-0.17279 0.81459 -0.298336)
(-0.164233 0.802127 -0.30389)
(-0.225455 0.79827 -0.287207)
(-0.17674 0.775023 -0.266809)
(-0.206154 0.77087 -0.304408)
(-0.231395 0.884196 -0.338023)
(-0.255266 0.901478 -0.351914)
(-0.218278 0.876714 -0.352962)
(-0.201633 0.816835 -0.308258)
(-0.148399 0.690246 -0.241487)
(-0.185122 0.81722 -0.278261)
(-0.14577 0.745753 -0.261936)
(-0.213372 0.80093 -0.290803)
(-0.197764 0.794918 -0.295342)
(0.438923 0.652301 -0.182841)
(0.492093 0.684639 -0.249163)
(0.477975 0.606984 -0.152504)
(0.488112 0.554724 -0.103003)
(0.462566 0.69807 -0.234931)
(0.435027 0.677865 -0.209071)
(0.500937 0.607829 -0.156592)
(0.553487 0.652734 -0.251176)
(0.545629 0.581743 -0.167607)
(0.528557 0.527823 -0.113421)
(0.571697 0.605495 -0.216925)
(0.551756 0.558283 -0.170181)
(0.538097 0.644043 -0.235981)
(0.142225 0.561921 -0.374597)
(0.158447 0.514866 -0.347568)
(-0.0372555 0.828598 -0.399969)
(0.00990226 0.739046 -0.388461)
(0.014136 0.781211 -0.420787)
(0.0137736 0.778922 -0.414908)
(0.0976244 0.528593 -0.358537)
(0.121669 0.491787 -0.360958)
(0.137108 0.628129 -0.398415)
(0.154819 0.472963 -0.348759)
(0.0647852 0.586826 -0.412107)
(0.154165 0.535434 -0.371501)
(0.0311918 0.750961 -0.432794)
(0.111604 0.580897 -0.419609)
(0.102076 0.631072 -0.429381)
(-0.130038 0.788183 -0.351216)
(-0.112147 0.795434 -0.343262)
(-0.142959 0.77581 -0.349014)
(-0.123007 0.766052 -0.34816)
(-0.0821909 0.752952 -0.332684)
(-0.109362 0.77415 -0.327991)
(-0.0953985 0.747048 -0.32858)
(-0.0165295 0.624984 -0.256604)
(-0.00515962 0.566698 -0.245814)
(-0.0997842 0.704801 -0.315254)
(-0.0242162 0.6256 -0.270575)
(-0.0431478 0.650301 -0.287542)
(0.0442211 0.561723 -0.26528)
(0.0145901 0.60446 -0.294249)
(0.0194228 0.579597 -0.249529)
(0.031403 0.525694 -0.223674)
(0.0187427 0.602391 -0.265913)
(-0.0167365 0.611177 -0.280153)
(0.0336156 0.546323 -0.246262)
(0.205485 1.02459 -0.382725)
(0.160954 1.05789 -0.384006)
(0.0882652 0.975202 -0.386606)
(0.0714256 0.984728 -0.406082)
(0.0659159 1.06761 -0.441155)
(0.16632 1.02498 -0.379524)
(0.0720945 1.00817 -0.421061)
(0.104498 1.08875 -0.454316)
(0.0550429 1.09647 -0.447244)
(0.190009 1.06423 -0.392776)
(0.207914 1.06537 -0.408138)
(0.165844 1.1248 -0.431623)
(0.264713 0.621776 -0.245715)
(0.118493 0.741915 -0.321731)
(0.234844 0.619078 -0.27954)
(0.14053 0.771924 -0.302282)
(0.234227 0.696561 -0.266122)
(0.17697 0.802632 -0.296368)
(0.19333 0.777318 -0.316534)
(0.28337 0.726494 -0.270831)
(0.289755 0.679174 -0.243861)
(0.278156 0.666542 -0.237619)
(0.319473 0.592075 -0.21997)
(0.278006 0.585496 -0.245746)
(0.212248 0.654067 -0.303822)
(0.108018 0.765544 -0.360786)
(0.146052 0.745909 -0.346164)
(0.116328 0.819878 -0.327687)
(0.306926 0.621932 -0.253489)
(0.237439 0.603747 -0.29105)
(0.299187 0.548418 -0.249436)
(0.281238 0.586616 -0.285819)
(0.258638 0.643091 -0.321038)
(0.152167 0.737875 -0.347305)
(0.180936 0.714839 -0.203139)
(0.186226 0.723229 -0.230157)
(0.289335 0.582713 -0.134895)
(0.254696 0.634859 -0.164927)
(0.258573 0.583675 -0.121862)
(0.283956 0.51446 -0.0920041)
(0.125412 0.712201 -0.189526)
(0.133636 0.740479 -0.216739)
(0.270157 0.577935 -0.131458)
(0.198169 0.631485 -0.130187)
(0.216508 0.57238 -0.0904012)
(0.184909 0.627691 -0.12554)
(0.207934 0.611304 -0.125418)
(0.257782 0.550531 -0.102304)
(0.204664 0.625084 -0.140484)
(0.250804 0.553091 -0.101895)
(0.0720985 0.76683 -0.246074)
(0.199425 0.563591 -0.0906045)
(0.161491 0.599424 -0.117377)
(0.260423 0.519713 -0.0728116)
(0.347718 0.878405 -0.236501)
(0.352016 0.89139 -0.237572)
(0.24032 0.98664 -0.324711)
(0.307853 0.957816 -0.305421)
(0.355376 0.897026 -0.227975)
(0.252262 0.987184 -0.338089)
(0.305781 0.901562 -0.246173)
(0.284092 0.978481 -0.305053)
(0.272429 0.989851 -0.305809)
(0.208935 1.01944 -0.350548)
(0.204733 1.01074 -0.323093)
(0.217651 1.0202 -0.323641)
(0.208981 0.999789 -0.314791)
(0.351681 0.580034 -0.202223)
(0.345102 0.62585 -0.239683)
(0.358387 0.623215 -0.196934)
(0.337103 0.615457 -0.234509)
(0.31808 0.604317 -0.173103)
(0.328528 0.632192 -0.252804)
(0.160866 0.808064 -0.346885)
(0.219046 0.741776 -0.311745)
(0.276999 0.680576 -0.268295)
(0.27687 0.656704 -0.175685)
(0.264134 0.634744 -0.176884)
(0.14199 0.754336 -0.236484)
(0.193397 0.731839 -0.212304)
(0.212362 0.755983 -0.293213)
(0.125617 0.821912 -0.332447)
(0.182431 0.769241 -0.322698)
(0.205194 0.736592 -0.286483)
(0.197914 0.746926 -0.239127)
(0.122706 0.823072 -0.323643)
(0.154939 0.773872 -0.268158)
(0.149863 0.774875 -0.302508)
(0.152422 0.783891 -0.303524)
(0.108811 0.632609 -0.163429)
(0.0850135 0.640522 -0.179059)
(0.10113 0.53554 -0.119575)
(0.129649 0.53606 -0.107906)
(0.139696 0.453441 -0.0523357)
(0.149149 0.430839 -0.048915)
(0.16415 0.533364 -0.0595088)
(0.158997 0.45382 -0.0510596)
(0.15093 0.620586 -0.136413)
(0.143773 0.64935 -0.167875)
(0.117102 0.620443 -0.152712)
(0.152168 0.452581 -0.0475984)
(0.158572 0.404904 -0.036538)
(0.186723 0.464997 -0.0430743)
(0.235012 0.526344 -0.0627072)
(0.212733 0.462676 -0.0478882)
(0.178943 0.420438 -0.0358717)
(0.161725 0.5029 -0.0559755)
(0.22097 0.541151 -0.0662739)
(0.187273 0.472745 -0.0448763)
(0.0794497 0.388591 -0.0780968)
(0.0758056 0.340374 -0.0740463)
(0.0918237 0.338771 -0.0689372)
(0.0858564 0.306617 -0.0623915)
(0.0607161 0.342211 -0.0842857)
(0.0740664 0.329302 -0.0783934)
(0.103737 0.516747 -0.122507)
(0.0995132 0.534732 -0.130734)
(0.0592471 0.404157 -0.115409)
(0.0980108 0.359128 -0.0639006)
(0.108917 0.500335 -0.107834)
(0.118119 0.459827 -0.0755948)
(0.0623389 0.52432 -0.149254)
(0.0540757 0.385794 -0.121256)
(0.0448656 0.42218 -0.151021)
(0.089716 0.340066 -0.0645559)
(0.0685299 0.334064 -0.0798039)
(0.045874 0.491431 -0.16258)
(0.0952363 0.437874 -0.10195)
(0.241736 0.497345 -0.0385818)
(0.264192 0.508372 -0.0687666)
(0.23383 0.553833 -0.0803873)
(0.202733 0.421257 -0.0257791)
(0.201678 0.356685 -0.0127866)
(0.277074 0.537899 -0.076701)
(0.26241 0.550739 -0.0721874)
(0.231894 0.384426 -0.00952186)
(0.221801 0.541244 -0.0801699)
(0.208168 0.444425 -0.0358531)
(0.206969 0.398072 -0.0281304)
(0.242847 0.482588 -0.0493076)
(0.262779 0.466531 -0.0426112)
(-0.00361778 0.881713 -0.349152)
(-0.0324022 0.928787 -0.371922)
(0.0313024 0.839617 -0.326443)
(0.163789 0.720926 -0.258204)
(0.10119 0.770001 -0.278957)
(0.0326806 0.855438 -0.349081)
(0.1222 0.749161 -0.279957)
(0.0632664 0.786421 -0.306472)
(0.106336 0.78635 -0.322268)
(0.105659 0.767777 -0.31254)
(0.120661 0.76456 -0.302656)
(0.0602049 0.835265 -0.340224)
(0.0285372 0.81384 -0.30151)
(0.0974062 0.786626 -0.312889)
(0.0246437 0.861278 -0.355737)
(0.472314 0.676406 -0.271242)
(0.440126 0.689836 -0.28814)
(0.463544 0.664804 -0.290177)
(0.479752 0.623472 -0.272709)
(0.324643 0.781606 -0.324322)
(0.418557 0.689682 -0.266855)
(0.435536 0.674682 -0.266175)