/*--------------------------------*- C++ -*----------------------------------*\
| =========                 |                                                 |
| \\      /  F ield         | OpenFOAM: The Open Source CFD Toolbox           |
|  \\    /   O peration     | Version:  v1612+                                |
|   \\  /    A nd           | Web:      www.OpenFOAM.com                      |
|    \\/     M anipulation  |                                                 |
\*---------------------------------------------------------------------------*/
FoamFile
{
    version     2.0;
    format      ascii;
    class       volVectorField;
    location    "100";
    object      wallShearStress;
}
// * * * * * * * * * * * * * * * * * * * * * * * * * * * * * * * * * * * * * //

dimensions      [0 2 -2 0 0 0 0];

internalField   uniform (0 0 0);

boundaryField
{
    WALL
    {
        type            calculated;
        value           nonuniform List<vector> 
1705
(
(-0.00564793 -0.00725154 0.00128044)
(-0.00448498 -0.00651846 0.00146131)
(-0.02983 -0.0186875 -0.00167874)
(-0.0306995 -0.0159039 0.00122343)
(-0.0140664 -0.00497445 0.011649)
(-0.0129154 -0.00265339 0.0137164)
(-0.00991415 -0.015213 -0.00115409)
(-0.00972592 -0.0171236 -0.000529734)
(-0.0212548 -0.0224164 -0.00456511)
(-0.0280507 -0.0235723 -0.00337949)
(-0.0263827 -0.026332 -0.0035311)
(-0.0247639 -0.0270028 -0.00189662)
(-0.0115436 -0.0129308 -0.00104325)
(-0.00901005 -0.0125083 -0.00114244)
(-0.00101056 -0.00674812 0.00759208)
(-0.000872136 -0.00834867 0.00382085)
(-0.00578579 -0.0175455 -0.00110225)
(-0.0071317 -0.0200539 -0.000631651)
(-0.00543385 -0.0131528 -0.00404345)
(-0.00704826 -0.0158578 -0.00357263)
(-0.0245902 -0.0309857 0.00379158)
(-0.0263629 -0.0288448 0.00357289)
(-0.0302698 -0.0212918 0.000439128)
(-0.0298632 -0.0179094 0.00221148)
(-0.0237418 -0.0317312 0.00145061)
(-0.0236807 -0.0329925 0.00336365)
(-0.0079373 -0.00859793 -2.95831e-05)
(-0.00899919 -0.00977347 -0.000497327)
(-0.00991419 -0.00917363 0.000475021)
(-0.0106711 -0.00968774 0.000783211)
(-0.0233697 -0.0134373 -0.00225651)
(-0.0244438 -0.0121584 0.000836826)
(-0.0081979 -0.00915019 -0.00321445)
(-0.0111036 -0.0105814 -0.00195581)
(-0.0127594 -0.0108817 -0.00279969)
(-0.0153549 -0.012579 -0.000285171)
(-0.00682886 -0.0148527 0.0150348)
(-0.00660819 -0.0138989 0.0150447)
(-0.00936834 -0.00993493 0.0123903)
(-0.0110326 -0.00969186 0.0123127)
(-0.0142721 -0.0106722 0.00274981)
(-0.013647 -0.0103736 0.00279354)
(-0.00493363 -0.00660698 0.000463471)
(-0.00701106 -0.00822272 0.000584185)
(-0.00439543 -0.00714636 -0.00466073)
(-0.00318736 -0.00617904 -0.00363322)
(-0.000587964 -0.00184268 0.00449349)
(-0.000317503 -0.00229118 0.00441022)
(6.82022e-05 -0.00175477 0.00378963)
(0.000339301 -0.00170526 0.00289641)
(-0.0104608 -0.0109139 0.00761441)
(-0.00956694 -0.0125582 0.00624538)
(-0.00937788 -0.010596 0.00743237)
(-0.00911509 -0.0104647 0.00635899)
(-0.0111224 -0.0129036 0.00600827)
(-0.0111902 -0.0123327 0.00687192)
(-0.0135824 -0.0294146 0.00697429)
(-0.0144821 -0.0311708 0.00469658)
(-0.0143235 -0.0294877 0.00584541)
(-0.0156424 -0.0283078 0.00236703)
(-0.0145983 -0.0294112 0.00387916)
(-0.0163809 -0.031606 0.00440914)
(-0.0148943 -0.0107567 0.0202323)
(-0.019598 -0.0149514 0.0222064)
(-0.0163211 -0.0114338 0.0225445)
(-0.0161608 -0.0104247 0.0208368)
(-0.0192615 -0.00974528 0.020126)
(-0.0243136 -0.0115038 0.0248191)
(-0.0030975 -0.0136229 0.00145538)
(-0.00422304 -0.0158255 0.000110374)
(-0.00235619 -0.0129276 0.000711783)
(-0.00223356 -0.0123586 0.00276915)
(-0.00436022 -0.0140155 -0.0019836)
(-0.0139984 -0.0118625 0.00448168)
(-0.0137009 -0.0117505 0.00402464)
(-0.0206764 -0.0142523 0.00670486)
(-0.0182182 -0.012749 0.00529559)
(-0.0157521 -0.0117243 0.00366877)
(-0.0182559 -0.0151893 0.0072155)
(-0.0270474 -0.0157093 0.0216838)
(-0.0265756 -0.0177947 0.0240729)
(-0.0267042 -0.0148693 0.0226122)
(-0.0263224 -0.0178395 0.0228676)
(-0.0296369 -0.0170299 0.0218482)
(-0.0275654 -0.0172509 0.021533)
(-0.0195254 -0.0185112 -0.00632818)
(-0.0212259 -0.019946 -0.00598613)
(-0.0157303 -0.0200432 -0.00568396)
(-0.0170136 -0.0193503 -0.00622072)
(-0.0184072 -0.0201627 -0.00631841)
(-0.0215038 -0.018121 -0.00584672)
(-0.00446012 -0.00670939 0.00169746)
(-0.0039288 -0.00593924 0.00163061)
(-0.00466828 -0.00641664 0.0016539)
(-0.00630148 -0.0075983 0.00149036)
(-0.00679556 -0.00833949 0.0016721)
(-0.00512351 -0.00690529 0.00108289)
(-0.00565131 -0.00778904 0.00201983)
(-0.00641358 -0.00767102 0.00147146)
(-0.021884 -0.0129668 -0.000532486)
(-0.0230879 -0.0123611 0.000556951)
(-0.02094 -0.0118029 0.00372854)
(-0.0207648 -0.0123468 0.000368796)
(-0.0212409 -0.0122631 0.00217482)
(-0.0227106 -0.0125804 0.00306042)
(-0.00729438 -0.00432851 0.0101001)
(-0.00512719 -0.00384507 0.00918841)
(-0.0053352 -0.00416717 0.0087434)
(-0.00629417 -0.00565537 0.00926586)
(-0.00648509 -0.00337922 0.00992441)
(-0.00749057 -0.0053111 0.00985756)
(-0.00810474 -0.0228941 0.00797845)
(-0.00713252 -0.0216101 0.0112075)
(-0.00784858 -0.0211302 0.0117977)
(-0.00874935 -0.0237802 0.0105735)
(-0.00753514 -0.0205684 0.0127666)
(-0.00706583 -0.021272 0.00877693)
(-0.0216029 -0.0186651 0.0233616)
(-0.0207961 -0.021189 0.0267986)
(-0.0223635 -0.0189504 0.0241448)
(-0.0179909 -0.0208696 0.0230268)
(-0.0202894 -0.0206651 0.0243678)
(-0.0200811 -0.0210625 0.0231443)
(-0.0139362 -0.0280762 0.0176342)
(-0.0150622 -0.0316138 0.0147717)
(-0.0161878 -0.0313754 0.0180525)
(-0.0152904 -0.0281755 0.0189919)
(-0.0153242 -0.0312834 0.0168573)
(-0.015584 -0.0284702 0.0195657)
(-0.013771 -0.0297406 0.0157322)
(-0.013782 -0.0298536 0.0146455)
(-0.013931 -0.0307362 0.0113962)
(-0.0134223 -0.0296137 0.00982694)
(-0.013895 -0.0307753 0.0139464)
(-0.0130419 -0.0284049 0.0153815)
(-0.0104545 -0.0109545 0.0122082)
(-0.00691614 -0.0100845 0.0122326)
(-0.0094656 -0.00893212 0.0120334)
(-0.00648982 -0.00888498 0.0106638)
(-0.00786073 -0.00998026 0.0123226)
(-0.00859766 -0.00867713 0.0118416)
(-0.0200466 -0.0112611 0.00688787)
(-0.0180361 -0.0110539 0.00909317)
(-0.0206328 -0.0127545 0.00723829)
(-0.0189439 -0.0109194 0.0077482)
(-0.018033 -0.0105152 0.00920012)
(-0.0193808 -0.0105026 0.00831305)
(-0.0234973 -0.0145135 0.0059385)
(-0.0253372 -0.0185431 0.00655081)
(-0.00288288 -0.00519717 0.0010764)
(-0.00276234 -0.004964 0.00118115)
(-0.00355449 -0.00573055 0.000901562)
(-0.00279762 -0.00495101 0.00130417)
(-0.00414729 -0.00609653 0.000764036)
(-0.00358428 -0.00583272 0.00118939)
(-0.00739925 -0.00854276 0.0020887)
(-0.0024038 -0.00448368 0.00181229)
(-0.00291254 -0.00507021 0.00166414)
(-0.00328907 -0.00558611 0.00175876)
(-0.00257725 -0.00473831 0.00167793)
(-0.0106771 -0.00976317 0.00217961)
(-0.0078777 -0.00874101 0.00185407)
(-0.00993417 -0.00948214 0.00214392)
(-0.00871615 -0.00901496 0.00182649)
(-0.00860221 -0.00952132 0.00223631)
(-0.00210407 -0.00420262 0.00118985)
(-0.00220327 -0.00438614 0.00107293)
(-0.00176925 -0.00381451 0.00113481)
(-0.0019405 -0.00398146 0.00114504)
(-0.00173035 -0.00362376 0.0013214)
(-0.00169805 -0.00352875 0.00123188)
(-0.00188221 -0.00338609 0.00189956)
(-0.00194517 -0.00333389 0.0021496)
(-0.00173133 -0.00322422 0.0018039)
(-0.00181551 -0.0032127 0.00202054)
(-0.00189526 -0.00341686 0.00210987)
(-0.00188911 -0.00345908 0.00186055)
(-0.00228642 -0.00379337 0.00254555)
(-0.00217379 -0.00347002 0.00231388)
(-0.00189877 -0.0032316 0.00193581)
(-0.0017583 -0.00320139 0.00198238)
(-0.00194887 -0.00344674 0.00225252)
(0.00509885 -0.0231251 0.00980525)
(0.00412965 -0.0240152 0.00730556)
(-0.000897398 -0.0157829 0.0133554)
(-0.000560094 -0.0134239 0.010346)
(0.00117014 -0.0171653 0.0120502)
(-0.00138737 -0.0136604 0.0116353)
(0.00200408 -0.0183402 0.0114949)
(0.00109008 -0.0159894 0.00962522)
(-0.00999895 -0.0128279 0.0119318)
(-0.0114082 -0.0135707 0.00956881)
(-0.0092185 -0.0141555 0.0115499)
(-0.0116339 -0.0127925 0.0098374)
(-0.0113171 -0.0139827 0.0118442)
(-0.0100412 -0.0141714 0.0107608)
(-0.0116164 -0.0136957 0.0132901)
(-0.0109033 -0.0120834 0.0133663)
(-0.00977588 -0.0132961 0.0135349)
(-0.00899939 -0.0139911 0.0149623)
(-0.00960617 -0.0125987 0.0142146)
(-0.0115738 -0.0123944 0.0128174)
(-0.0047559 -0.0126104 0.0128735)
(-0.00458287 -0.0144159 0.0145648)
(-0.00350473 -0.0126451 0.0128934)
(-0.00613705 -0.0125883 0.0132134)
(-0.00336944 -0.0142582 0.013831)
(-0.0099847 -0.0127292 0.00612403)
(-0.00976265 -0.0138239 0.0077672)
(-0.0091617 -0.0134429 0.00855186)
(-0.0126343 -0.0121495 0.00406101)
(-0.0143665 -0.0127194 0.00629084)
(-0.0126892 -0.0132832 0.00726894)
(-0.0130501 -0.012614 0.00729311)
(-0.0142352 -0.0133027 0.00403744)
(-0.0146372 -0.0130783 0.00491409)
(-0.0126905 -0.0119585 0.00522075)
(-0.00909799 -0.0118982 0.00223403)
(-0.0112045 -0.0121789 0.00379379)
(-0.0103355 -0.0110559 0.00141021)
(-0.0107074 -0.0117893 0.00265901)
(-0.0090734 -0.011648 0.00317695)
(-0.000659769 -0.012361 0.00416398)
(5.89309e-05 -0.0162219 0.00403198)
(-0.000489163 -0.0113627 0.00525561)
(-0.000163963 -0.0137405 0.00738419)
(0.00140755 -0.0172402 0.00513231)
(0.00194538 -0.0175991 0.00821554)
(0.0016755 -0.0164788 0.00892329)
(-0.0127062 -0.0115379 -0.000851522)
(-0.0101642 -0.0102092 -0.00142092)
(-0.0110021 -0.011042 -0.000234418)
(-0.0121587 -0.0113061 0.00084486)
(-0.0134252 -0.0119456 0.000428131)
(-0.0106766 -0.0106305 -0.00313854)
(-0.010405 -0.0103797 -0.00475487)
(-0.0133397 -0.0118403 -0.00319727)
(-0.00966489 -0.0093403 -0.00429682)
(-0.0122603 -0.0105987 -0.00435169)
(-0.0119311 -0.011057 -0.00646337)
(-0.0104656 -0.0121463 -0.00752002)
(-0.0122644 -0.0119648 -0.00720833)
(-0.010517 -0.0105479 -0.00681007)
(-0.00840576 -0.00998542 -0.006746)
(-0.00794736 -0.0116949 -0.00622373)
(-0.0217301 -0.015279 -0.00580918)
(-0.0218231 -0.0137957 -0.00319717)
(-0.0198524 -0.0128122 -0.00505076)
(-0.024257 -0.0140672 -0.00330469)
(-0.0231898 -0.0149592 -0.00464146)
(-0.0265848 -0.0124385 0.00466162)
(-0.0266946 -0.0115036 0.00503392)
(-0.0279246 -0.013062 0.0019736)
(-0.0282131 -0.0108916 0.00329171)
(-0.0277661 -0.0119375 0.00220102)
(-0.0286183 -0.0131598 0.000615181)
(-0.0180572 -0.0110371 0.00305669)
(-0.0166956 -0.0115447 0.00259496)
(-0.0142344 -0.0103062 0.00178537)
(-0.0165193 -0.0108762 0.00183286)
(-0.0190011 -0.0116665 0.00293264)
(-0.00171074 -0.00322722 0.00209689)
(-0.00152068 -0.00293153 0.00169463)
(-0.00154641 -0.00310508 0.00159931)
(-0.00173078 -0.00340224 0.00246447)
(-0.0014807 -0.00317213 0.00168615)
(-0.00145746 -0.00306323 0.00190567)
(-0.00261287 -0.00484285 0.000757702)
(-0.00352243 -0.00572401 0.000712376)
(-0.00282157 -0.00510564 0.000858336)
(-0.00373965 -0.00606043 0.000669323)
(-0.00296193 -0.00515847 0.000491611)
(-0.0034861 -0.00579388 0.000492427)
(-0.0192682 -0.0116115 0.00150102)
(-0.0181737 -0.0108725 0.0015759)
(-0.0175523 -0.0114178 0.00148405)
(-0.0223787 -0.0111501 0.00370772)
(-0.0208515 -0.0120419 0.00318099)
(-0.0213238 -0.0119063 0.00329595)
(-0.0130527 -0.00940201 -0.000310309)
(-0.0151418 -0.010246 -0.00015008)
(-0.00940372 -0.0086715 -4.42006e-05)
(-0.0101436 -0.009128 0.000252328)
(-0.0110789 -0.00887544 -0.000358872)
(-0.0130896 -0.0102615 0.000512323)
(-0.0212439 -0.0109444 0.0021551)
(-0.0214033 -0.0110046 0.00228642)
(-0.0190369 -0.0108868 0.00112159)
(-0.0184049 -0.0113156 0.00127924)
(-0.0172648 -0.0112636 0.00075347)
(-0.0229795 -0.0111835 0.00329208)
(-0.0234053 -0.0118103 0.00504447)
(-0.0273928 -0.0119042 0.00925128)
(-0.0261742 -0.0127334 0.00789446)
(-0.0277182 -0.0122546 0.00869526)
(-0.0253741 -0.0114723 0.0062456)
(-0.0236575 -0.0116053 0.00546899)
(-0.0289092 -0.0114177 0.00990037)
(-0.0291596 -0.0103167 0.0116393)
(-0.0274758 -0.0111183 0.00700367)
(-0.0307428 -0.0104319 0.0115007)
(-0.027601 -0.00990496 0.00878833)
(-0.0261975 -0.0108373 0.00649386)
(-0.0145409 -0.0119084 -0.000235981)
(-0.0130981 -0.0121118 -0.000477927)
(-0.0136293 -0.0127735 -0.000530062)
(-0.0125253 -0.0126489 -0.000507512)
(-0.0151325 -0.0130146 0.000225816)
(-0.0158376 -0.0124131 0.000561199)
(-0.00583902 -0.00782045 6.20169e-05)
(-0.00689158 -0.00777174 0.000135212)
(-0.00806609 -0.00846268 1.3995e-05)
(-0.00553495 -0.00687264 3.81926e-05)
(-0.0047543 -0.00678797 0.000576011)
(-0.00756454 -0.00877439 0.000126909)
(-0.0105767 -0.00969339 -1.2061e-05)
(-0.0056794 -0.00776773 0.0002417)
(-0.027347 -0.0131569 0.00453857)
(-0.0275339 -0.0140889 0.00406904)
(-0.0278581 -0.0138855 0.00342324)
(-0.0266143 -0.0128858 0.00535278)
(-0.0254625 -0.0112182 0.0051459)
(-0.0286888 -0.0155008 0.00302162)
(-0.0151664 -0.00791836 0.00723297)
(-0.0173316 -0.00938246 0.00742357)
(-0.0155657 -0.00764827 0.00793497)
(-0.012358 -0.00703018 0.00679327)
(-0.0134463 -0.00753431 0.00770177)
(-0.0169411 -0.008914 0.00757579)
(-0.0288335 -0.0273735 0.000797545)
(-0.0282275 -0.0272311 0.000959228)
(-0.02575 -0.0274816 0.000216143)
(-0.0269126 -0.0294611 0.00207077)
(-0.0281683 -0.0251605 0.000555659)
(-0.025364 -0.0295065 0.00151284)
(-0.0214925 -0.0332684 0.00277515)
(-0.0209936 -0.0310391 0.0019962)
(-0.0238025 -0.0322713 0.00155486)
(-0.0243585 -0.0301849 0.000486291)
(-0.0219778 -0.0323999 0.00301782)
(-0.0283286 -0.0169723 0.0021922)
(-0.0294339 -0.0224766 0.00146181)
(-0.0294084 -0.0202397 -0.000129218)
(-0.0299121 -0.0223281 -0.000181734)
(-0.029926 -0.019669 0.00190868)
(-0.0216053 -0.00900021 0.00922364)
(-0.0228886 -0.00887421 0.00894293)
(-0.0180559 -0.00819309 0.0102532)
(-0.0172159 -0.00757569 0.00896851)
(-0.023602 -0.00927252 0.00840499)
(-0.0200135 -0.00747966 0.00925681)
(-0.0250734 -0.00881398 0.00621344)
(-0.0222058 -0.00912396 0.00732612)
(-0.0240176 -0.00886002 0.00749667)
(-0.0207977 -0.00878179 0.00865743)
(-0.0209168 -0.00825382 0.00815789)
(-0.0260117 -0.00962319 0.00648494)
(-0.0220912 -0.010339 0.00726985)
(-0.0212624 -0.0101488 0.00775725)
(-0.0210572 -0.00912094 0.00728128)
(-0.0190376 -0.00819474 0.00776416)
(-0.0177842 -0.00889184 0.00862122)
(-0.0167869 -0.00862332 0.00767688)
(-0.0231968 -0.0385587 0.00978842)
(-0.0243064 -0.0345152 0.00744535)
(-0.0256858 -0.0382436 0.00922628)
(-0.0233671 -0.0339697 0.00548567)
(-0.0234307 -0.0381439 0.00808247)
(-0.0225544 -0.0386124 0.010085)
(-0.0216963 -0.0406912 0.0147672)
(-0.0207544 -0.040883 0.0185117)
(-0.021752 -0.0422079 0.018693)
(-0.0202223 -0.0399002 0.0166014)
(-0.0224153 -0.0419092 0.0163262)
(-0.0218154 -0.040529 0.014195)
(-0.0226885 -0.0283991 0.0230623)
(-0.0225785 -0.0267775 0.0225359)
(-0.0227214 -0.0299103 0.023483)
(-0.0241693 -0.0297608 0.0263888)
(-0.0207232 -0.0286341 0.0224735)
(-0.023595 -0.0280365 0.0233146)
(-0.0237136 -0.0194771 0.0238623)
(-0.0235094 -0.0221392 0.0251043)
(-0.0248257 -0.0203594 0.0233623)
(-0.025526 -0.0194622 0.0234019)
(-0.0222437 -0.0223903 0.0240462)
(-0.0235049 -0.022311 0.0236474)
(-0.0245832 -0.0222771 0.0236228)
(-0.0246122 -0.0235679 0.0236686)
(-0.0256692 -0.0222301 0.0220444)
(-0.0257326 -0.0211626 0.0212823)
(-0.0249266 -0.0211806 0.0223561)
(-0.0253769 -0.0237087 0.0233764)
(-0.0247751 -0.0181075 0.0110606)
(-0.0217804 -0.0148122 0.00833326)
(-0.0237488 -0.0145251 0.00837689)
(-0.0244327 -0.0160119 0.0116767)
(-0.024077 -0.014138 0.00949498)
(-0.0253456 -0.0155751 0.0118421)
(-0.00780294 -0.00894519 -0.00587474)
(-0.00547285 -0.00811825 -0.00444369)
(-0.00420733 -0.00707329 -0.00486876)
(-0.00614097 -0.00727863 -0.00616742)
(-0.00708506 -0.00806244 -0.00491619)
(-0.000447722 -0.00472732 -0.00153814)
(-0.00211745 -0.00646996 -0.00337574)
(-0.0022795 -0.00605859 -0.00368367)
(-0.00145215 -0.00527534 -0.00313308)
(-0.00122035 -0.00533727 -0.00255423)
(-0.000616129 -0.00501416 -0.00139795)
(-0.00868279 -0.0180302 -0.00308934)
(-0.00862016 -0.0152413 -0.00503791)
(-0.0110001 -0.0171274 -0.00477219)
(-0.0110104 -0.0191896 -0.00372571)
(-0.00266618 -0.0145676 0.00659987)
(-0.00383432 -0.01149 0.0133627)
(-0.00331034 -0.00846948 0.0125807)
(-0.00397746 -0.0146148 0.010977)
(-0.00152985 -0.00983619 0.00903637)
(-0.00185982 -0.0111689 0.00583549)
(-0.00127479 -0.0085829 -0.000483183)
(-0.000222872 -0.00698271 0.000962109)
(-8.83932e-05 -0.00695161 0.00635264)
(-0.000905072 -0.00913963 0.00157134)
(8.55996e-05 -0.00583735 0.00302239)
(-0.000200322 -0.00471384 0.00518762)
(-0.00736264 -0.0184674 -9.60928e-05)
(-0.00504012 -0.0196377 0.000232434)
(-0.00463565 -0.0181016 -0.000175118)
(-0.00677627 -0.0168797 -0.000477262)
(-0.00675315 -0.0197991 -0.000367003)
(-0.00518678 -0.0156182 -0.000240285)
(-0.00230758 -0.00590035 0.000518435)
(-0.00188876 -0.00558258 0.000590719)
(-0.00218662 -0.00578091 0.000592202)
(-0.00257512 -0.00604349 0.000354351)
(-0.00175192 -0.00509871 0.000897139)
(-0.00136805 -0.00400272 0.00223641)
(-0.00116094 -0.0042816 0.00197803)
(-0.00136182 -0.00450619 0.00288802)
(-0.00123611 -0.00468012 0.00149336)
(-0.00128773 -0.00426309 0.00141674)
(-0.00130897 -0.00415451 0.00168558)
(-0.00201444 -0.00952721 0.00128364)
(-0.00153752 -0.0148838 0.00157754)
(-0.00334996 -0.0145127 0.000666215)
(-0.00176349 -0.0124099 0.00198641)
(-0.00313733 -0.0118927 0.00050468)
(-0.00207727 -0.0146762 0.00131547)
(-0.00570303 -0.0102651 -0.000648134)
(-0.00441748 -0.00914555 -0.000347364)
(-0.00374171 -0.00782157 -0.000344379)
(-0.00377573 -0.00728472 -0.000253127)
(-0.00589636 -0.00958113 -0.000688749)
(-0.00491042 -0.00851656 -0.000406598)
(-0.0236042 -0.0139073 0.0253388)
(-0.021735 -0.0129594 0.0221843)
(-0.0243504 -0.0168713 0.0235034)
(-0.0256293 -0.0138973 0.0224024)
(-0.0212922 -0.0146341 0.0234025)
(-0.0236238 -0.0127932 0.0208977)
(-0.0236256 -0.00797901 0.0196799)
(-0.0210886 -0.0101093 0.0209325)
(-0.0220424 -0.00847698 0.0201839)
(-0.0254197 -0.00877238 0.0208122)
(-0.0197215 -0.00870241 0.0208577)
(-0.0166079 -0.0331435 0.00687917)
(-0.0181694 -0.0364434 0.0090243)
(-0.0183366 -0.0333722 0.00446802)
(-0.0160426 -0.0335131 0.0109649)
(-0.0184065 -0.0334334 0.00532021)
(-0.0190957 -0.0334281 0.00412227)
(-0.0217714 -0.0293965 -6.43096e-05)
(-0.0251299 -0.0305378 -0.00151771)
(-0.0201173 -0.0299492 0.000802229)
(-0.0236852 -0.0305702 -0.000679218)
(-0.0208324 -0.033326 0.0027148)
(-0.0211401 -0.0311579 0.00102997)
(-0.0218113 -0.0259633 -0.00236505)
(-0.026672 -0.0240258 -0.00151327)
(-0.0277788 -0.0223408 -0.00218483)
(-0.027233 -0.023777 -0.00270235)
(-0.0259592 -0.0262401 -0.00171134)
(-0.02636 -0.0249397 -0.00303009)
(-0.01299 -0.0234591 -0.00164941)
(-0.0147634 -0.0234429 -0.00321151)
(-0.0173116 -0.023189 -0.00410318)
(-0.0159721 -0.023288 -0.00355513)
(-0.0142172 -0.0236331 -0.00287705)
(-0.0175368 -0.0219591 -0.00388489)
(-0.0292628 -0.0177659 -0.00307327)
(-0.0294771 -0.0164197 0.000465855)
(-0.0290803 -0.0156139 -0.00214095)
(-0.0291283 -0.017204 -0.000407994)
(-0.0271052 -0.0167849 -0.00285174)
(-0.0283282 -0.0199208 -0.0032098)
(-0.0259544 -0.0113033 0.0215397)
(-0.0282948 -0.0110368 0.0185834)
(-0.0281909 -0.0110861 0.0193895)
(-0.0249435 -0.0119122 0.0220135)
(-0.0261259 -0.00932453 0.0195447)
(-0.0263789 -0.00952067 0.0200509)
(-0.026868 -0.00981607 0.00659838)
(-0.0243519 -0.0100987 0.00481383)
(-0.028094 -0.0105117 0.00809237)
(-0.0261995 -0.00917828 0.00919656)
(-0.0289947 -0.00910052 0.00944218)
(-0.027395 -0.00949203 0.00522728)
(-0.00694639 -0.0023136 0.0109214)
(-0.00715819 -7.33755e-05 0.0108293)
(-0.00839103 -0.00244777 0.0106408)
(-0.00599628 -0.00147685 0.0100635)
(-0.00900524 -0.00224125 0.0117206)
(-0.0104361 -0.00185927 0.0119602)
(-0.00514597 0.000763284 0.0110472)
(-0.00410477 -0.00140624 0.0118576)
(-0.00275178 0.000468122 0.00857607)
(-0.00394541 0.000219352 0.00902808)
(-0.00214871 -0.00118203 0.00951046)
(-0.00207195 0.000493447 0.00886942)
(-0.0263109 -0.00661518 0.0126003)
(-0.0270254 -0.00729932 0.0103772)
(-0.0246215 -0.00773142 0.0101307)
(-0.0258899 -0.00825685 0.00834222)
(-0.0249011 -0.00693282 0.0121188)
(-0.0252224 -0.00928318 0.00874236)
(-0.0174351 -0.00929951 0.00886312)
(-0.0157287 -0.00784227 0.0105097)
(-0.0173663 -0.00693898 0.0103697)
(-0.014841 -0.00844812 0.0091613)
(-0.0168053 -0.00974502 0.00773476)
(-0.0153924 -0.0103412 0.00850174)
(-0.00939434 -0.00506887 0.010137)
(-0.0126237 -0.0061359 0.0104987)
(-0.010837 -0.00721239 0.00952)
(-0.0112809 -0.00502434 0.011014)
(-0.00982257 -0.00536276 0.00963775)
(-0.0125267 -0.00687497 0.00966431)
(-0.00359146 -0.00157036 0.00840041)
(-0.00268265 -0.00115382 0.00810972)
(-0.00327517 -0.00239923 0.00791744)
(-0.00408738 -0.00214955 0.00899451)
(-0.0018367 -0.00175082 0.0069463)
(-0.0024158 -0.00180337 0.007309)
(-0.011879 -0.0187256 0.000757835)
(-0.0110375 -0.0194557 0.000843678)
(-0.00837676 -0.0198263 0.00023533)
(-0.00953976 -0.0195053 0.00014546)
(-0.00926566 -0.018769 0.000340133)
(-0.0113895 -0.019373 0.000478195)
(-0.00519502 -0.0222143 0.00150524)
(-0.00300949 -0.0228338 0.0015416)
(-0.00415954 -0.0205133 0.00122532)
(-0.00655607 -0.0207038 0.00113525)
(-0.00276651 -0.023231 0.00246477)
(-0.00620505 -0.0197401 0.000147352)
(-0.00816099 -0.0153879 0.00494183)
(-0.0104635 -0.0170752 0.00469308)
(-0.00924531 -0.0163252 0.00416612)
(-0.00967811 -0.015082 0.00545)
(-0.0108797 -0.0147803 0.00468538)
(-0.0166821 -0.0121962 0.005943)
(-0.0160154 -0.014635 0.00451961)
(-0.0155368 -0.0147457 0.00570439)
(-0.017099 -0.0140852 0.00499065)
(-0.0156958 -0.0127903 0.00696966)
(-0.0152458 -0.0127742 0.00607414)
(-0.0147685 -0.0154129 0.000516309)
(-0.0166482 -0.0151994 0.00254471)
(-0.0158116 -0.0165063 0.00268075)
(-0.0142063 -0.0167746 0.000635023)
(-0.0163263 -0.0159059 0.00163014)
(-0.0146135 -0.0178066 0.00183598)
(-0.00195591 -0.00376805 0.00972465)
(-0.00106767 -0.00475178 0.00845717)
(-0.00256607 -0.00469622 0.0110402)
(-0.00292184 -0.00254082 0.0104672)
(-0.00661037 -0.00710254 0.00771984)
(-0.00744258 -0.00854663 0.00753216)
(-0.000711313 -0.00151402 0.00497418)
(-0.000676799 -0.00130313 0.00522087)
(0.000176359 -0.00198487 0.00384071)
(0.000203982 -0.002357 0.00399149)
(-0.000467676 -0.00170499 0.00455079)
(-0.000124627 -0.00151729 0.00430112)
(0.000330011 -0.00323508 -7.16494e-05)
(0.000553832 -0.00318639 0.000326543)
(0.000458896 -0.00222225 0.000915614)
(-9.26056e-05 -0.00405643 -0.00165934)
(2.8941e-05 -0.0032122 -0.000662778)
(0.000735956 -0.00281378 0.00138473)
(-0.00789193 -0.0233206 0.00504071)
(-0.00960435 -0.0236328 0.00113435)
(-0.00943301 -0.02424 0.0029147)
(-0.00814278 -0.0220361 0.00226461)
(-0.0110787 -0.0250357 0.000466663)
(-0.0112664 -0.023823 -0.000955419)
(-0.00229439 -0.00810192 -0.00275177)
(-0.00127326 -0.00607333 -0.00221028)
(-0.00466901 -0.00722792 -0.00554263)
(-0.00449096 -0.0097277 -0.00469297)
(-0.00182091 -0.00637187 -0.00364847)
(-0.00280985 -0.00652314 -0.00447015)
(-0.0267887 -0.0110831 0.00614835)
(-0.0284015 -0.011792 0.00473969)
(-0.0290967 -0.0140334 0.00233428)
(-0.0268076 -0.0115882 0.00534525)
(-0.0280229 -0.0122447 0.00341779)
(-0.0291914 -0.0139806 0.00336968)
(-0.0020583 -0.00348983 0.0029281)
(-0.00167386 -0.003357 0.00273668)
(-0.00215401 -0.00374282 0.00344323)
(-0.00167486 -0.00315976 0.00237502)
(-0.00154511 -0.00319103 0.00217181)
(-0.00151881 -0.00338712 0.00233772)
(-0.0158468 -0.0136075 0.00903852)
(-0.00811031 -0.0108499 5.21434e-05)
(-0.0126155 -0.0240045 -0.00194768)
(0.000722272 -0.00269124 0.00325159)
(-0.000611983 -0.00210904 0.00502144)
(-0.00119967 -0.00123657 0.00628096)
(-0.00168516 -0.00198836 0.00626832)
(0.000498777 -0.00219236 0.00243798)
(0.000645381 -0.00246597 0.00157599)
(0.000562924 -0.00263933 0.00282971)
(0.000548749 -0.00200811 0.00175327)
(-0.00107551 -0.00229957 0.00521486)
(-0.0138424 -0.00283081 0.0175543)
(-0.0130221 -0.00509344 0.0192499)
(-0.0134065 -0.00310039 0.0173135)
(-0.0114678 -0.00254342 0.017373)
(-0.019749 -0.0127473 0.00413789)
(-0.0200355 -0.0123576 0.00532975)
(-0.0185412 -0.013965 0.00342398)
(-0.0181986 -0.0149067 0.00314547)
(-0.0171684 -0.015701 0.00201322)
(-0.0176476 -0.0139342 0.00428103)
(-0.0180772 -0.0124213 0.0050335)
(-0.0172707 -0.0148567 0.00404682)
(-0.0056727 -0.005355 0.00765397)
(-0.0124788 -0.0148948 0.0039827)
(-0.0122511 -0.0146057 0.00513414)
(-0.00633829 -0.00700742 0.00803455)
(-0.00724912 -0.00750763 0.00848164)
(-0.0138496 -0.013629 0.00587282)
(-0.0132424 -0.0131606 0.00582139)
(-0.0148747 -0.0129044 0.00667838)
(-0.0149888 -0.0105853 0.00740513)
(-0.0139272 -0.0111789 0.00807781)
(-0.0129649 -0.0095844 0.00847226)
(-0.0134066 -0.0114878 0.00714433)
(-0.00925543 -0.00789598 0.00880408)
(-0.0103866 -0.00762901 0.00863004)
(-0.0114981 -0.00970345 0.00860669)
(-0.0119325 -0.0159805 0.00331836)
(-0.00739876 -0.0192804 -0.000477299)
(-0.0132783 -0.0176179 0.00255672)
(-0.0130817 -0.0183175 0.00157221)
(-0.0120774 -0.0177394 0.00250814)
(-0.00839876 -0.0201369 0.000756756)
(-0.0112467 -0.0184435 0.00168002)
(-0.000762265 -0.00121744 0.00581225)
(-0.000191054 -0.00153332 0.0052459)
(7.89089e-05 -0.00152802 0.0043279)
(-0.0184379 -0.0123642 0.00699167)
(-0.017127 -0.0124557 0.00707729)
(-0.0132219 -0.00886211 0.00924332)
(-0.0133714 -0.00662198 0.0193651)
(-0.0170062 -0.00654774 0.020579)
(-0.0212338 -0.0113834 0.0067092)
(-0.0219373 -0.00975839 0.00621722)
(-0.019958 -0.0100945 0.00774868)
(-0.0214474 -0.00859618 0.00737946)
(-0.0201962 -0.0087877 0.00900869)
(-0.0218142 -0.00724493 0.0111846)
(-0.0229729 -0.00828089 0.00978852)
(-0.0220736 -0.00729356 0.0114066)
(-0.00466373 -0.00230324 0.0122295)
(-0.0013534 -0.000663916 0.00733419)
(-0.0021376 -0.000590896 0.00743215)
(-0.00931317 -0.00366298 0.0169489)
(-0.00983718 -0.00622178 0.0181363)
(-0.00595065 -0.00342374 0.0146107)
(-0.00405347 -0.00318258 0.0123116)
(-0.00577943 -0.00231583 0.0135021)
(-0.00653655 0.000358472 0.0114864)
(-0.0050134 -0.000315058 0.00974575)
(-0.0196207 -0.00501166 0.0134683)
(-0.0198983 -0.00472443 0.0120603)
(-0.0178693 -0.00524234 0.0113531)
(-0.0171537 -0.00243009 0.0160525)
(-0.0139151 -0.00256254 0.0165654)
(-0.0181144 -0.00250573 0.0145167)
(-0.0167313 -0.00427808 0.0132164)
(-0.0145567 -0.00580331 0.0110483)
(-0.0130504 -0.00328946 0.0126833)
(-0.0117981 -0.00403508 0.0121432)
(-0.00534349 -0.00611227 0.0140817)
(-0.0061804 -0.0181934 0.0134206)
(0.000423983 -0.00260945 0.00420339)
(0.000259521 -0.00186883 0.00267553)
(-0.000451474 -0.000936497 0.00572001)
(-0.000620029 -0.00138966 0.00751974)
(-0.0190375 -0.0125294 0.0022255)
(-0.0181879 -0.0133077 0.00203958)
(-0.014476 -0.0157282 0.00059431)
(-0.0162952 -0.0153667 0.00126542)
(-0.0164491 -0.0138744 0.00140617)
(-0.0278295 -0.00746265 0.0104841)
(-0.0297006 -0.00848458 0.0136801)
(-0.0288047 -0.00947098 0.0167098)
(-0.0289023 -0.00973319 0.00745641)
(-0.0197487 -0.0224186 -0.00424464)
(-0.023687 -0.0204668 -0.00420701)
(-0.0248693 -0.0200152 -0.00450292)
(-0.029541 -0.0179884 -0.00445023)
(-0.029914 -0.0210417 -0.00146649)
(-0.029896 -0.0240259 -0.00279698)
(-0.0268578 -0.0193179 -0.00462198)
(-0.0221019 -0.0215513 -0.00516611)
(-0.0236256 -0.022926 -0.00274167)
(-0.0191617 -0.0222599 -0.00389179)
(-0.0221726 -0.027025 -0.00247921)
(-0.0176917 -0.0268974 -0.00107472)
(-0.0205219 -0.0253329 -0.0037924)
(-0.0122116 -0.0250947 -0.000308639)
(-0.0149888 -0.0242919 -0.00218042)
(-0.0104209 -0.0239839 0.00179815)
(-0.0126514 -0.0239786 0.000116497)
(-0.0104508 -0.0265273 0.00381694)
(-0.00964566 -0.0254562 0.0053491)
(-0.00891595 -0.0233803 0.00599193)
(-0.0199528 -0.026499 -0.00127949)
(-0.0274241 -0.00712784 0.015058)
(-0.0177507 -0.00788697 0.0209244)
(-0.0156486 -0.00847834 0.0202581)
(-0.0216767 -0.00736904 0.0222966)
(-0.0272784 -0.0092943 0.0177616)
(-0.0239862 -0.0063431 0.0178171)
(-0.0266427 -0.00778617 0.0166648)
(-0.026412 -0.00851778 0.0192174)
(-0.0115791 -0.012816 0.0198534)
(-0.00793478 -0.0181223 0.0172046)
(-0.00915712 -0.0163352 0.0188633)
(-0.0105504 -0.0141101 0.0196951)
(-0.0107424 -0.0153612 0.0197933)
(-0.0268104 -0.0103875 0.0206768)
(-0.00650233 -0.0202946 0.0110711)
(-0.00715511 -0.0225491 0.00694864)
(-0.00492132 -0.00984414 -0.00109441)
(-0.00185301 -0.00597793 0.00483293)
(-0.000673663 -0.0180701 0.00274379)
(-0.00466026 -0.0113436 -0.000644087)
(-0.000476245 -0.0156728 0.00245541)
(-0.00103441 -0.00773966 0.00283434)
(-0.00116398 -0.00985524 0.00252142)
(-0.00108033 -0.00765867 0.00236075)
(-0.00128549 -0.00495184 0.00359461)
(-0.00120367 -0.00566057 0.00285367)
(-0.00133602 -0.00413572 0.00345856)
(-0.00311086 -0.0066456 0.000323941)
(-0.015474 -0.013462 0.000560097)
(-0.0042533 -0.014491 8.45784e-05)
(-0.00509024 -0.013845 -0.000274785)
(-0.00232415 -0.0200184 0.000931228)
(-0.00341924 -0.0201265 0.000749741)
(-0.00196812 -0.0193601 0.00139534)
(-0.00271429 -0.0166388 0.00139635)
(-0.00658442 -0.0110098 -0.00119955)
(-0.00601662 -0.01144 -0.00105373)
(-0.00735162 -0.0106033 -0.000936276)
(-0.00842577 -0.0116147 -0.000801735)
(-0.0101754 -0.0121868 -0.000919434)
(-0.0137484 -0.0147797 -0.000343995)
(-0.0141449 -0.0138435 -0.000164228)
(-0.0130784 -0.0132963 -0.000658104)
(-0.00115591 -0.0221168 0.00176504)
(-0.000423971 -0.0246915 0.00295381)
(-0.00164789 -0.00363786 0.00871555)
(-0.000381558 -0.00302725 0.00641504)
(-0.000754786 -0.00344777 0.00713374)
(0.000118084 -0.00404198 0.00346049)
(0.000393269 -0.00345793 0.00189239)
(-0.00366367 -0.00442558 0.0128241)
(-0.00576358 -0.0164183 0.0138791)
(-0.00115368 -0.00557102 0.00993582)
(-0.00234817 -0.00957233 -0.00165887)
(-0.00658707 -0.0214057 0.00585876)
(-0.00530679 -0.0191469 0.00792659)
(-0.00661496 -0.0210588 0.00397188)
(-0.00466592 -0.0179667 0.00727575)
(-0.00417302 -0.0179454 0.0106028)
(-0.00378849 -0.0102236 -0.003457)
(-0.00895208 -0.0211803 -0.000544636)
(-0.00451496 -0.0187558 0.00516657)
(-0.00600007 -0.0199979 0.00287708)
(-0.00688636 -0.0197893 0.000610565)
(-0.00865125 -0.0200246 -0.00215345)
(-0.0133447 -0.0197364 -0.004961)
(0.000553439 -0.00367772 0.00145332)
(0.000380992 -0.00411622 0.00123623)
(0.00026952 -0.00418767 -0.000328816)
(-5.54219e-06 -0.00392801 -0.000132974)
(-0.000278498 -0.00396277 -0.00126645)
(-0.000846617 -0.00481353 -0.00190062)
(-0.00162567 -0.00474652 -0.00255705)
(-0.000807117 -0.00434572 -0.0019282)
(-0.00110407 -0.00451727 -0.00220696)
(-0.00334224 -0.00640027 -0.0050573)
(-0.00287785 -0.00656165 -0.00242095)
(-0.00225625 -0.005297 -0.00249585)
(-0.00427967 -0.00692653 -0.00292105)