/*--------------------------------*- C++ -*----------------------------------*\
| =========                 |                                                 |
| \\      /  F ield         | OpenFOAM: The Open Source CFD Toolbox           |
|  \\    /   O peration     | Version:  v1612+                                |
|   \\  /    A nd           | Web:      www.OpenFOAM.com                      |
|    \\/     M anipulation  |                                                 |
\*---------------------------------------------------------------------------*/
FoamFile
{
    version     2.0;
    format      ascii;
    class       volScalarField;
    location    "166";
    object      p;
}
// * * * * * * * * * * * * * * * * * * * * * * * * * * * * * * * * * * * * * //

dimensions      [0 2 -2 0 0 0 0];

internalField   nonuniform List<scalar> 
17088
(
2.29694
2.25174
2.38994
2.39692
2.41825
2.41248
2.41163
2.404
2.38646
2.39477
2.40899
2.41066
2.41003
2.4018
2.39878
2.27494
2.27818
2.27974
2.27967
2.27516
2.27798
2.27975
2.28156
2.28237
2.27983
2.27727
2.27584
2.27541
2.28009
2.25994
2.25757
2.25785
2.26039
2.26282
2.26328
2.26733
2.25675
2.26159
2.26983
2.26764
2.27285
2.26049
2.26766
2.26543
2.24729
2.25419
2.25526
2.25762
2.25649
2.2489
2.25534
2.25483
2.25155
2.24826
2.24934
2.25035
2.24929
2.25402
2.25318
2.2486
2.25189
2.35824
2.36315
2.35261
2.35923
2.36738
2.35951
2.3744
2.36751
2.37062
2.37288
2.34777
2.37139
2.36945
2.36165
2.36256
2.30387
2.29907
2.30588
2.30135
2.29524
2.30751
2.30103
2.29812
2.29612
2.30764
2.3134
2.31669
2.30619
2.32885
2.33313
2.33563
2.32871
2.30838
2.31413
2.31879
2.31285
2.31822
2.31611
2.322
2.31745
2.32636
2.32053
2.33307
2.33233
2.25539
2.25443
2.34977
2.35306
2.34399
2.34449
2.33654
2.33894
2.33668
2.34235
2.33237
2.3255
2.34251
2.33996
2.3317
2.32825
2.24718
2.2458
2.24378
2.24785
2.2454
2.25256
2.25419
2.25046
2.25408
2.25076
2.24954
2.2613
2.26058
2.25782
2.25457
2.2595
2.33175
2.33481
2.32433
2.33003
2.33338
2.31976
2.32451
2.32843
2.31646
2.30912
2.31724
2.3223
2.31914
2.31561
2.31054
2.30576
2.31488
2.24451
2.24998
2.24947
2.24977
2.2465
2.24655
2.24846
2.24783
2.25211
2.24819
2.24722
2.24684
2.24827
2.25047
2.24694
2.24826
2.24931
2.24961
2.24874
2.29255
2.28899
2.29198
2.29418
2.28999
2.29265
2.29621
2.30002
2.29664
2.29596
2.30121
2.30112
2.2955
2.30367
2.29838
2.2994
2.30134
2.3057
2.32446
2.32049
2.31841
2.31967
2.3198
2.31879
2.32315
2.32354
2.32017
2.32124
2.31953
2.31636
2.31675
2.32011
2.3216
2.31648
2.32074
2.33755
2.34799
2.34503
2.34312
2.34736
2.32574
2.32964
2.34093
2.34512
2.32289
2.32792
2.33187
2.27287
2.27287
2.29219
2.2872
2.28151
2.28692
2.27579
2.27606
2.28292
2.28629
2.28271
2.28243
2.27272
2.2738
2.27521
2.27246
2.26524
2.25749
2.27009
2.27676
2.27134
2.26313
2.26617
2.27474
2.26472
2.26465
2.26545
2.26143
2.25928
2.26254
2.32307
2.31999
2.32068
2.32406
2.32508
2.32681
2.24497
2.23963
2.2405
2.24405
2.23895
2.2415
2.24085
2.23891
2.24182
2.23653
2.24175
2.23856
2.23732
2.23586
2.23135
2.29746
2.2981
2.29804
2.29357
2.29669
2.29342
2.29688
2.29701
2.29656
2.29368
2.2959
2.29975
2.29684
2.28936
2.29082
2.29274
2.29204
2.29474
2.29048
2.30697
2.32451
2.3108
2.31648
2.30681
2.31215
2.31305
2.32786
2.30888
2.31863
2.29296
2.30674
2.29511
2.3007
2.28948
2.30016
2.29135
2.28685
2.30532
2.30521
2.29157
2.29973
2.30182
2.29194
2.33231
2.32721
2.33489
2.3301
2.33439
2.32835
2.32651
2.32707
2.32183
2.32395
2.32218
2.32159
2.31913
2.32443
2.32017
2.24556
2.24492
2.24418
2.24178
2.24308
2.24445
2.24233
2.24099
2.23837
2.24376
2.2446
2.24364
2.24081
2.24192
2.24285
2.24097
2.28165
2.27925
2.27072
2.29294
2.28557
2.27741
2.27555
2.27882
2.28475
2.27961
2.27768
2.28201
2.28687
2.29286
2.29224
2.28733
2.2841
2.28675
2.38167
2.37652
2.38552
2.37688
2.37694
2.37423
2.37789
2.37407
2.38754
2.38055
2.39325
2.37477
2.374
2.37194
2.3698
2.3871
2.25419
2.24923
2.24552
2.25828
2.25025
2.25158
2.25265
2.2567
2.25351
2.25504
2.25802
2.2633
2.25712
2.24976
2.26384
2.25439
2.34464
2.34848
2.35152
2.34161
2.34044
2.35763
2.35862
2.36213
2.36559
2.36085
2.34579
2.35378
2.34294
2.35914
2.36136
2.34818
2.35434
2.35736
2.28617
2.28839
2.28312
2.28196
2.2952
2.28948
2.28421
2.28915
2.28682
2.30181
2.29297
2.3009
2.2927
2.29518
2.28467
2.28918
2.30093
2.30186
2.30185
2.30126
2.30105
2.30034
2.30057
2.30711
2.30784
2.30726
2.30274
2.30935
2.3072
2.30788
2.31001
2.30672
2.2571
2.25457
2.2578
2.25692
2.25337
2.25354
2.25854
2.25524
2.25666
2.26028
2.2627
2.25214
2.25265
2.25915
2.26419
2.26197
2.25935
2.2616
2.2719
2.27444
2.2715
2.27452
2.27579
2.27691
2.28583
2.28012
2.2771
2.27409
2.28385
2.27806
2.27915
2.28498
2.27895
2.28557
2.28469
2.30734
2.3074
2.29749
2.29796
2.30159
2.30352
2.31705
2.29538
2.31103
2.30421
2.31121
2.31398
2.34154
2.3344
2.34946
2.35295
2.3464
2.34448
2.33706
2.35173
2.33561
2.34741
2.35198
2.35546
2.33998
2.34267
2.34304
2.35178
2.35263
2.34011
2.35597
2.35748
2.35178
2.35166
2.35828
2.35453
2.30339
2.30132
2.29471
2.29314
2.29153
2.2939
2.30225
2.31097
2.29441
2.29774
2.30346
2.31183
2.3047
2.31083
2.30816
2.30563
2.31088
2.30667
2.3091
2.31378
2.30543
2.22204
2.22455
2.22022
2.2216
2.22414
2.22725
2.23237
2.23017
2.22692
2.22334
2.22854
2.22883
2.22924
2.22724
2.22833
2.22538
2.23015
2.23418
2.27457
2.27216
2.27454
2.28127
2.28663
2.27568
2.26645
2.27098
2.2764
2.28544
2.2797
2.27734
2.26852
2.26358
2.27248
2.27018
2.2801
2.27003
2.26513
2.26728
2.27445
2.27705
2.26704
2.2601
2.26052
2.26679
2.2761
2.27797
2.2716
2.26355
2.27659
2.27142
2.26763
2.35911
2.36598
2.35564
2.36726
2.35503
2.36254
2.36503
2.36918
2.37168
2.37879
2.35162
2.35828
2.36088
2.34953
2.34939
2.35971
2.35608
2.37083
2.23824
2.23633
2.23913
2.2428
2.23311
2.23869
2.24191
2.2307
2.22962
2.23645
2.2397
2.24075
2.23026
2.24188
2.23066
2.33602
2.34299
2.34159
2.3315
2.33592
2.34188
2.33243
2.34298
2.332
2.32026
2.34006
2.32838
2.31859
2.30203
2.30166
2.29598
2.3003
2.30355
2.30471
2.30799
2.30456
2.29136
2.30074
2.29564
2.30166
2.30188
2.29874
2.30203
2.29247
2.30559
2.30396
2.30737
2.30512
2.30521
2.31245
2.31529
2.30144
2.31468
2.31069
2.31261
2.30626
2.31704
2.31363
2.31327
2.29549
2.29835
2.2939
2.29659
2.30622
2.30599
2.29354
2.29439
2.29298
2.30207
2.30424
2.29484
2.29453
2.29094
2.30421
2.29455
2.35363
2.3619
2.35505
2.35759
2.33938
2.33759
2.34795
2.34366
2.34746
2.35296
2.34369
2.34191
2.33434
2.33159
2.35345
2.35911
2.33085
2.33562
2.34617
2.34524
2.35409
2.34008
2.33593
2.33877
2.34807
2.35421
2.33864
2.34017
2.34811
2.34219
2.3448
2.33375
2.33383
2.32525
2.32777
2.32758
2.32901
2.3369
2.32082
2.32525
2.32483
2.32344
2.33109
2.3316
2.32814
2.32471
2.33766
2.3207
2.33047
2.3789
2.37451
2.37335
2.36739
2.3848
2.39193
2.38839
2.383
2.38022
2.37773
2.37732
2.37186
2.38742
2.36415
2.36495
2.36599
2.36036
2.37481
2.37081
2.38815
2.37071
2.35883
2.37358
2.36549
2.35406
2.36161
2.34384
2.34578
2.35871
2.36265
2.35685
2.35421
2.35619
2.34996
2.35719
2.34141
2.36009
2.34002
2.34081
2.34169
2.34856
2.35957
2.28947
2.28818
2.29151
2.29088
2.29011
2.28769
2.28771
2.29392
2.2932
2.30435
2.30062
2.30709
2.29596
2.29844
2.2956
2.297
2.3089
2.31018
2.31026
2.30775
2.31168
2.31595
2.30169
2.30624
2.30945
2.3045
2.30153
2.29646
2.30319
2.30788
2.29581
2.29769
2.3064
2.30364
2.24739
2.25283
2.25718
2.2554
2.25566
2.25198
2.24817
2.25419
2.2504
2.25336
2.25047
2.30338
2.29771
2.29559
2.2978
2.29664
2.29811
2.29954
2.29201
2.29167
2.2975
2.29879
2.30007
2.30043
2.30077
2.29984
2.29844
2.29243
2.29192
2.2946
2.29229
2.29785
2.28754
2.29245
2.28877
2.29136
2.29253
2.2885
2.28941
2.31094
2.30145
2.32091
2.32293
2.32231
2.32464
2.31159
2.30181
2.29567
2.32222
2.31815
2.31318
2.29989
2.30539
2.30825
2.30938
2.31443
2.25089
2.2518
2.24891
2.25258
2.24823
2.26744
2.2605
2.26355
2.26154
2.26844
2.27209
2.25488
2.26116
2.26737
2.26233
2.26479
2.26923
2.26643
2.26081
2.26535
2.26586
2.26915
2.2645
2.26132
2.27328
2.26757
2.25498
2.25639
2.25642
2.25408
2.26382
2.25964
2.26557
2.26276
2.26168
2.25965
2.25242
2.26114
2.26206
2.26705
2.26032
2.26722
2.25643
2.26131
2.25925
2.25672
2.26483
2.25497
2.25709
2.26065
2.25226
2.25
2.24847
2.25429
2.2596
2.25726
2.25477
2.25227
2.24917
2.25803
2.25806
2.25575
2.25506
2.29841
2.29458
2.29588
2.2939
2.29669
2.2927
2.2949
2.29281
2.28757
2.29109
2.2919
2.29101
2.29449
2.23304
2.23657
2.23222
2.23114
2.22936
2.22848
2.23305
2.23258
2.23814
2.23577
2.23121
2.2282
2.23013
2.22821
2.23169
2.23216
2.23301
2.22445
2.23456
2.2273
2.22885
2.23374
2.22838
2.23251
2.30303
2.30178
2.31133
2.30969
2.2929
2.29751
2.29836
2.29341
2.29771
2.31006
2.29388
2.29516
2.29083
2.28767
2.2905
2.29743
2.28563
2.29376
2.28972
2.23479
2.23904
2.23568
2.24884
2.24157
2.24887
2.24374
2.24141
2.23716
2.24122
2.23844
2.2436
2.31934
2.31808
2.30971
2.31213
2.32073
2.31389
2.31821
2.31332
2.31277
2.29842
2.30103
2.31286
2.31236
2.31758
2.30357
2.30148
2.31582
2.34729
2.34261
2.35192
2.33257
2.33735
2.34057
2.35263
2.34825
2.34235
2.34528
2.33018
2.34999
2.33782
2.3267
2.32898
2.31694
2.31697
2.26894
2.27166
2.27314
2.31517
2.32269
2.4296
2.42812
2.42191
2.36823
2.37098
2.36341
2.28891
2.28596
2.2876
2.25946
2.26487
2.25833
2.30958
2.30793
2.31627
2.23956
2.23327
2.2386
2.30475
2.30333
2.31656
2.38949
2.3812
2.3803
2.36967
2.25868
2.36603
2.36441
2.35295
2.36421
2.29198
2.29115
2.29852
2.29962
2.30089
2.24601
2.24589
2.34349
2.3425
2.32554
2.32032
2.32716
2.31254
2.30277
2.29992
2.35359
2.35649
2.34924
2.24123
2.24426
2.2432
2.27177
2.27649
2.2769
2.40152
2.40242
2.39788
2.31639
2.38051
2.37596
2.37999
2.3145
2.32458
2.32459
2.33355
2.41562
2.41602
2.26464
2.26545
2.26774
2.26282
2.28548
2.28584
2.23849
2.23916
2.2918
2.29319
2.34225
2.33427
2.33797
2.34193
2.34273
2.3377
2.34134
2.29477
2.29566
2.28813
2.29261
2.29348
2.30672
2.31171
2.31178
2.29183
2.29626
2.22863
2.23242
2.23462
2.24604
2.24693
2.24359
2.25793
2.26039
2.23884
2.24016
2.23695
2.30417
2.30746
2.29963
2.30339
2.2445
2.24428
2.27389
2.27742
2.35341
2.34797
2.39798
2.39425
2.32091
2.32107
2.31828
2.35256
2.34821
2.35582
2.35314
2.30218
2.30098
2.29412
2.29985
2.25514
2.25762
2.29778
2.29352
2.29743
2.29114
2.28743
2.28781
2.29298
2.33802
2.33855
2.34536
2.31179
2.30872
2.31035
2.32387
2.32796
2.32182
2.32393
2.31488
2.31172
2.32386
2.32541
2.31974
2.33496
2.32287
2.31689
2.32164
2.32056
2.3173
2.31655
2.32002
2.31945
2.32255
2.32258
2.31351
2.32872
2.32184
2.31868
2.30838
2.31031
2.30242
2.30316
2.30805
2.30825
2.31563
2.31335
2.31689
2.31175
2.31236
2.31629
2.31471
2.31328
2.31242
2.32844
2.32801
2.33731
2.32413
2.32959
2.33111
2.33757
2.32245
2.33085
2.33384
2.33725
2.33971
2.33156
2.33565
2.32936
2.33479
2.33184
2.32957
2.33977
2.34382
2.33762
2.34962
2.33983
2.34358
2.35191
2.344
2.33833
2.27462
2.27643
2.2698
2.28185
2.28681
2.27645
2.28117
2.28372
2.29379
2.28857
2.29174
2.29105
2.29746
2.28834
2.30623
2.26979
2.27407
2.27791
2.27672
2.28054
2.28151
2.28211
2.27871
2.28762
2.29086
2.28534
2.28069
2.28275
2.29324
2.28377
2.29697
2.29361
2.28548
2.28793
2.28815
2.28922
2.29951
2.29914
2.29444
2.29651
2.29572
2.31836
2.30546
2.31842
2.30655
2.30374
2.30214
2.29762
2.29863
2.2671
2.26413
2.2613
2.25051
2.25275
2.25665
2.25638
2.26051
2.25876
2.26351
2.26549
2.26477
2.25901
2.25763
2.257
2.26131
2.25861
2.2594
2.25731
2.34372
2.32996
2.33931
2.34803
2.33375
2.28103
2.28726
2.28146
2.28513
2.28413
2.29792
2.30016
2.29918
2.29528
2.29879
2.29223
2.29773
2.31148
2.31702
2.30308
2.30123
2.30047
2.29906
2.30528
2.29585
2.31822
2.30908
2.31049
2.30528
2.33517
2.33109
2.3434
2.37519
2.38598
2.37774
2.33366
2.34284
2.35495
2.33597
2.34022
2.35532
2.35713
2.32165
2.34195
2.32627
2.32378
2.3247
2.31937
2.33619
2.33706
2.32316
2.33756
2.33839
2.33866
2.34144
2.31543
2.31503
2.3177
2.32236
2.3242
2.31905
2.32014
2.31814
2.32119
2.32058
2.39077
2.39435
2.39655
2.39132
2.39356
2.385
2.40196
2.39406
2.40169
2.41165
2.40442
2.39516
2.39199
2.39823
2.39501
2.39377
2.39633
2.39546
2.39229
2.38505
2.38765
2.38619
2.39113
2.39078
2.38658
2.38312
2.38516
2.39232
2.38534
2.3901
2.40291
2.39938
2.38931
2.4069
2.39503
2.39348
2.39164
2.39295
2.38592
2.37718
2.37096
2.3727
2.34141
2.34587
2.336
2.34146
2.3367
2.34114
2.2742
2.26737
2.26695
2.27191
2.27015
2.28155
2.28318
2.27817
2.27835
2.2686
2.27376
2.27304
2.27222
2.27669
2.27762
2.2777
2.26969
2.27193
2.27577
2.24885
2.24716
2.26621
2.26902
2.25997
2.2397
2.23969
2.23959
2.24396
2.24937
2.25074
2.2483
2.24893
2.24231
2.23979
2.23833
2.24927
2.24129
2.24992
2.24636
2.25116
2.31465
2.3177
2.31874
2.31143
2.31009
2.3027
2.30557
2.3138
2.31427
2.30832
2.2353
2.23283
2.2369
2.23155
2.23401
2.24541
2.24114
2.24397
2.24569
2.24239
2.23904
2.24055
2.24085
2.23865
2.23573
2.2365
2.24126
2.24203
2.24268
2.2403
2.25032
2.25477
2.24927
2.25222
2.25919
2.25877
2.25791
2.2622
2.26741
2.26626
2.27019
2.27037
2.26937
2.26407
2.2637
2.26229
2.25617
2.25301
2.25493
2.25629
2.25386
2.25644
2.23976
2.24052
2.24431
2.24281
2.24158
2.24234
2.24086
2.24582
2.23868
2.24572
2.24262
2.23823
2.24257
2.24457
2.24818
2.24751
2.25383
2.25475
2.25421
2.2519
2.25181
2.24696
2.25134
2.246
2.25029
2.25039
2.24894
2.24881
2.25182
2.24623
2.24764
2.24778
2.24741
2.22673
2.23156
2.23065
2.23092
2.23669
2.22789
2.23548
2.24143
2.23109
2.23052
2.22816
2.22945
2.22883
2.22635
2.23072
2.2281
2.22689
2.22142
2.2281
2.2283
2.22443
2.22783
2.30239
2.29674
2.325
2.31925
2.32332
2.29072
2.29042
2.29589
2.26955
2.2809
2.27682
2.30624
2.30101
2.29709
2.29552
2.30194
2.30036
2.29325
2.28785
2.29353
2.31485
2.31724
2.32206
2.30705
2.32363
2.32367
2.31365
2.30686
2.29063
2.28688
2.29132
2.28785
2.28689
2.28509
2.2848
2.29403
2.28449
2.28304
2.28768
2.29962
2.29315
2.29369
2.29757
2.30614
2.29541
2.27615
2.2812
2.28559
2.27033
2.26674
2.30325
2.31649
2.32709
2.31148
2.27972
2.28418
2.28541
2.2842
2.3323
2.34375
2.34153
2.33441
2.35105
2.36107
2.36008
2.35336
2.31405
2.32347
2.31983
2.33274
2.32518
2.32288
2.32441
2.32311
2.31429
2.31316
2.32571
2.32761
2.31852
2.31851
2.31161
2.36514
2.36016
2.35962
2.3509
2.3704
2.36744
2.37328
2.36117
2.35393
2.34545
2.34509
2.35434
2.28898
2.28847
2.30265
2.29419
2.29546
2.29214
2.29809
2.2992
2.2978
2.29755
2.29725
2.29682
2.28519
2.2871
2.24373
2.24636
2.24488
2.24128
2.24057
2.2409
2.24056
2.2385
2.23574
2.23957
2.2387
2.23211
2.22954
2.23134
2.23421
2.23329
2.23594
2.23739
2.23241
2.23631
2.27669
2.27771
2.28417
2.28105
2.27897
2.2803
2.2924
2.28871
2.29018
2.28903
2.2967
2.29674
2.29433
2.28833
2.29011
2.28719
2.28936
2.29197
2.29087
2.26751
2.26109
2.26156
2.28357
2.27834
2.27441
2.27163
2.28019
2.27484
2.27757
2.27386
2.26738
2.25744
2.26592
2.26853
2.26965
2.27188
2.26715
2.24801
2.24954
2.25394
2.26234
2.26423
2.26518
2.277
2.26988
2.27583
2.24945
2.25792
2.25332
2.27319
2.2724
2.33549
2.32853
2.32707
2.33312
2.33034
2.33035
2.32909
2.40825
2.41773
2.40905
2.41672
2.41116
2.42897
2.42206
2.42082
2.42737
2.42874
2.4072
2.41289
2.4192
2.42074
2.41463
2.41736
2.40937
2.40821
2.40712
2.40904
2.40829
2.4158
2.41228
2.30466
2.29263
2.30508
2.29384
2.31201
2.31371
2.31572
2.30584
2.30542
2.31235
2.3129
2.32283
2.31362
2.32468
2.31571
2.3596
2.37127
2.36954
2.36901
2.37898
2.3714
2.37498
2.37446
2.36684
2.374
2.36441
2.36842
2.37225
2.36557
2.38625
2.37139
2.38463
2.37383
2.39025
2.37831
2.37482
2.36595
2.37293
2.37558
2.37261
2.35027
2.34341
2.29982
2.29881
2.30953
2.31179
2.22815
2.22523
2.22759
2.22515
2.22473
2.40988
2.41405
2.40117
2.3985
2.39333
2.40335
2.39822
2.39026
2.38359
2.39076
2.3869
2.39385
2.27099
2.27142
2.27448
2.27616
2.27732
2.27874
2.28574
2.27309
2.27463
2.27577
2.27937
2.27864
2.28028
2.28261
2.27103
2.26468
2.2634
2.26636
2.2743
2.27475
2.26611
2.27059
2.26925
2.27063
2.27239
2.26033
2.25468
2.25748
2.25475
2.24123
2.24205
2.24496
2.24511
2.24747
2.24667
2.25619
2.25206
2.23936
2.23621
2.24153
2.2396
2.24087
2.23656
2.23509
2.23667
2.23715
2.2417
2.23971
2.36684
2.35763
2.34936
2.36548
2.34788
2.33907
2.34829
2.34874
2.33786
2.32979
2.35355
2.3561
2.34597
2.34189
2.34506
2.33996
2.3124
2.31219
2.30822
2.29993
2.30824
2.30967
2.31006
2.29511
2.29486
2.30611
2.30181
2.30718
2.30377
2.29232
2.29353
2.29818
2.30081
2.29808
2.30062
2.29777
2.29989
2.30009
2.30899
2.32591
2.31192
2.30501
2.32499
2.32005
2.32181
2.31051
2.31059
2.32008
2.35598
2.36376
2.35881
2.35324
2.34545
2.34406
2.34275
2.33113
2.34422
2.34304
2.34238
2.34841
2.33686
2.34025
2.34247
2.33679
2.34251
2.34596
2.34427
2.25199
2.25449
2.25309
2.30431
2.30127
2.30134
2.30165
2.3011
2.30063
2.30311
2.29833
2.29887
2.29489
2.29457
2.29574
2.2966
2.29438
2.29844
2.30006
2.29961
2.29716
2.29919
2.26854
2.27488
2.26808
2.28975
2.28119
2.28417
2.2884
2.28596
2.28332
2.28219
2.28126
2.29543
2.28988
2.28702
2.29105
2.26915
2.27187
2.26903
2.27944
2.28443
2.28485
2.27635
2.27611
2.2833
2.28344
2.28327
2.27973
2.27884
2.40404
2.35453
2.36186
2.37131
2.36751
2.36774
2.36185
2.37153
2.38956
2.37457
2.36855
2.38839
2.3658
2.37201
2.3845
2.38258
2.37355
2.36714
2.36089
2.36348
2.3671
2.37262
2.37098
2.36458
2.36503
2.3797
2.37093
2.37729
2.26483
2.26903
2.2568
2.25896
2.2579
2.34977
2.33868
2.34604
2.36085
2.35811
2.37236
2.3659
2.36969
2.37742
2.38925
2.37851
2.37749
2.37216
2.30662
2.31392
2.3122
2.30982
2.30858
2.31422
2.31316
2.31088
2.30912
2.32803
2.31491
2.31724
2.32473
2.31673
2.32196
2.31753
2.41949
2.41555
2.4073
2.41636
2.3759
2.37792
2.35513
2.35915
2.354
2.3788
2.37317
2.36511
2.36075
2.37692
2.38125
2.36495
2.35938
2.23194
2.22966
2.25326
2.2486
2.25021
2.23165
2.23004
2.23667
2.23012
2.23052
2.23727
2.2334
2.23172
2.23058
2.23358
2.23041
2.23228
2.24333
2.23603
2.23656
2.23826
2.23617
2.23385
2.2245
2.22243
2.31479
2.30808
2.30938
2.30951
2.29986
2.30453
2.30416
2.30929
2.30673
2.30768
2.3058
2.2965
2.29786
2.30417
2.30595
2.26758
2.27567
2.26837
2.26536
2.27353
2.27634
2.26989
2.2757
2.26611
2.26015
2.26221
2.26198
2.26618
2.25441
2.26596
2.26235
2.26117
2.25785
2.2635
2.26243
2.35519
2.36705
2.36198
2.36312
2.35223
2.36651
2.366
2.35584
2.35499
2.34909
2.36014
2.35551
2.38228
2.3859
2.3861
2.37781
2.37079
2.41037
2.41078
2.41626
2.42686
2.41724
2.31332
2.31027
2.31254
2.28167
2.2775
2.27033
2.27747
2.26157
2.26552
2.26496
2.26724
2.31311
2.31404
2.31447
2.309
2.31426
2.31785
2.31665
2.32165
2.31845
2.31947
2.31428
2.31061
2.31342
2.31474
2.3186
2.31311
2.32307
2.3208
2.31681
2.32187
2.32043
2.32029
2.30883
2.31112
2.31291
2.30442
2.3057
2.30162
2.30398
2.30132
2.25429
2.25338
2.26023
2.25402
2.25455
2.25752
2.26045
2.26006
2.26075
2.26307
2.25974
2.25798
2.28334
2.28071
2.27878
2.28474
2.27997
2.28215
2.28453
2.27594
2.27482
2.27546
2.27526
2.27505
2.28116
2.2789
2.28093
2.27937
2.29463
2.28395
2.28834
2.28707
2.36794
2.36553
2.36172
2.36778
2.36941
2.36903
2.3724
2.39619
2.40173
2.38923
2.38579
2.39561
2.38869
2.41067
2.22863
2.23488
2.24038
2.23678
2.23266
2.23149
2.22994
2.23843
2.23479
2.24207
2.23533
2.26207
2.27001
2.2627
2.25359
2.25392
2.33176
2.32321
2.32222
2.33222
2.32417
2.31979
2.37577
2.38162
2.37325
2.38315
2.37164
2.36656
2.38419
2.36868
2.36864
2.37569
2.37794
2.37022
2.39625
2.40148
2.37721
2.37963
2.36723
2.36705
2.36269
2.36777
2.36265
2.34429
2.35954
2.34936
2.33697
2.3624
2.34767
2.37502
2.36655
2.36977
2.36402
2.36954
2.35898
2.32905
2.32606
2.33607
2.33552
2.34003
2.33444
2.33995
2.26157
2.26355
2.25948
2.26235
2.25968
2.2588
2.26214
2.26216
2.39934
2.28111
2.28129
2.27783
2.28556
2.28673
2.28444
2.25802
2.25915
2.25981
2.26142
2.26657
2.26113
2.26246
2.25996
2.26459
2.26679
2.30147
2.30648
2.30791
2.30277
2.30112
2.30258
2.30624
2.30537
2.30837
2.30337
2.30592
2.30617
2.30508
2.30352
2.30318
2.30673
2.30643
2.25133
2.24889
2.25097
2.25355
2.34972
2.36079
2.34528
2.35978
2.34958
2.34555
2.34408
2.34895
2.34429
2.34943
2.3563
2.36157
2.36244
2.35613
2.35753
2.35441
2.35028
2.3573
2.3597
2.3593
2.35642
2.33259
2.32263
2.32622
2.31971
2.31669
2.31937
2.33166
2.33359
2.33356
2.32242
2.31565
2.35853
2.33971
2.34214
2.34746
2.34168
2.3526
2.35379
2.34736
2.33761
2.3366
2.33789
2.33602
2.34793
2.34313
2.34242
2.33476
2.24922
2.24289
2.24363
2.24986
2.23542
2.24306
2.24345
2.2386
2.24141
2.2442
2.24646
2.23976
2.2444
2.2426
2.27334
2.27396
2.27455
2.27138
2.27113
2.27113
2.27443
2.2758
2.26325
2.2633
2.26516
2.26736
2.26954
2.27097
2.26418
2.26718
2.26546
2.26455
2.27059
2.26831
2.37186
2.3872
2.39011
2.39342
2.38514
2.3908
2.38066
2.37825
2.37189
2.37552
2.37619
2.37925
2.37372
2.4148
2.40032
2.39919
2.41195
2.41038
2.28558
2.287
2.29608
2.29335
2.28855
2.33614
2.34683
2.34802
2.3459
2.35317
2.34601
2.34043
2.33593
2.35146
2.3504
2.30708
2.31042
2.30381
2.30353
2.302
2.28791
2.29775
2.29509
2.29335
2.28739
2.41084
2.41313
2.40584
2.4225
2.40722
2.42007
2.41022
2.40859
2.40505
2.32328
2.32321
2.32615
2.32543
2.32858
2.32254
2.32341
2.28913
2.29416
2.28733
2.28607
2.28031
2.27717
2.26725
2.26275
2.26448
2.27173
2.29306
2.29163
2.29415
2.28991
2.27667
2.29559
2.28972
2.28769
2.28538
2.27494
2.27112
2.26176
2.26249
2.25924
2.27367
2.29671
2.29188
2.29524
2.29388
2.29589
2.29285
2.29362
2.28081
2.28118
2.28666
2.28723
2.28655
2.28344
2.28304
2.28275
2.28173
2.2391
2.24171
2.23992
2.23277
2.23405
2.23917
2.2408
2.24243
2.23366
2.23146
2.2331
2.23085
2.23672
2.31139
2.31686
2.31069
2.30647
2.30416
2.30865
2.29632
2.3019
2.3019
2.30071
2.29931
2.30136
2.29871
2.30283
2.30304
2.30472
2.3056
2.30758
2.36362
2.358
2.37794
2.37097
2.37973
2.37145
2.36
2.37763
2.37098
2.38529
2.38444
2.35801
2.35764
2.36481
2.36361
2.34556
2.34769
2.34103
2.34447
2.35573
2.34758
2.35422
2.34573
2.32416
2.31563
2.30706
2.32277
2.31048
2.30905
2.31552
2.3095
2.28544
2.28691
2.27935
2.29176
2.2879
2.28892
2.28047
2.29146
2.27179
2.2669
2.28349
2.28378
2.28367
2.27233
2.27557
2.2734
2.29712
2.30683
2.31241
2.30209
2.30166
2.30749
2.2926
2.28522
2.28905
2.29433
2.30105
2.29971
2.31084
2.30669
2.30036
2.29407
2.27
2.27214
2.27004
2.27273
2.26882
2.27013
2.27269
2.27484
2.26403
2.2668
2.26616
2.26495
2.32499
2.32527
2.32667
2.31266
2.29828
2.31196
2.30507
2.31307
2.31386
2.30355
2.30511
2.2995
2.30205
2.31441
2.31519
2.30621
2.22604
2.2278
2.22426
2.22492
2.22679
2.22252
2.22564
2.22961
2.24384
2.24261
2.24719
2.24724
2.24528
2.24237
2.23955
2.24293
2.24432
2.23555
2.23499
2.23512
2.22837
2.23683
2.23742
2.23674
2.23708
2.23492
2.23435
2.2315
2.22909
2.23
2.23113
2.23239
2.22875
2.22959
2.31554
2.31867
2.31694
2.31443
2.32364
2.31671
2.31012
2.31918
2.31668
2.31499
2.31885
2.32007
2.31601
2.3187
2.31349
2.31323
2.32722
2.32553
2.32652
2.3172
2.34103
2.33648
2.32886
2.32744
2.33836
2.33268
2.33087
2.3219
2.32536
2.3227
2.2704
2.27461
2.27356
2.28554
2.27353
2.28099
2.27311
2.26922
2.28191
2.28603
2.33552
2.34353
2.33576
2.33541
2.33786
2.34156
2.34531
2.33527
2.33876
2.34258
2.33933
2.31703
2.31582
2.31451
2.31658
2.31539
2.31203
2.31253
2.31077
2.3112
2.31191
2.31627
2.30919
2.3109
2.31001
2.31938
2.31626
2.3114
2.3218
2.32304
2.32775
2.31123
2.31181
2.31141
2.3088
2.3068
2.31145
2.31069
2.28693
2.28595
2.29337
2.29099
2.28683
2.28769
2.28499
2.28375
2.28369
2.30253
2.3047
2.30011
2.29752
2.30432
2.30935
2.30442
2.29381
2.29454
2.29667
2.30102
2.27468
2.28014
2.27884
2.27343
2.27566
2.27446
2.27397
2.27208
2.2721
2.27911
2.27745
2.27651
2.27096
2.26801
2.26639
2.26989
2.26635
2.26828
2.26897
2.26919
2.27113
2.26999
2.26919
2.30711
2.30223
2.30104
2.30328
2.30126
2.29939
2.30043
2.30353
2.29593
2.29668
2.30227
2.31582
2.30327
2.31134
2.30993
2.31657
2.30996
2.30494
2.28884
2.29505
2.29592
2.30212
2.29421
2.28841
2.30159
2.29673
2.28418
2.28922
2.2884
2.28428
2.27882
2.27948
2.28063
2.28583
2.28336
2.27971
2.27764
2.28499
2.28199
2.31995
2.32423
2.32097
2.32283
2.32724
2.3201
2.31055
2.31895
2.30941
2.30566
2.30388
2.30905
2.30653
2.30746
2.31296
2.30873
2.30667
2.30555
2.30884
2.30888
2.30265
2.30629
2.30108
2.30254
2.30239
2.29977
2.29493
2.29868
2.29944
2.30114
2.30297
2.29986
2.2997
2.29699
2.29964
2.296
2.2903
2.28204
2.28374
2.28703
2.28754
2.29201
2.29304
2.30803
2.31651
2.31314
2.31481
2.30658
2.31347
2.30609
2.30343
2.30587
2.31219
2.29947
2.29758
2.3019
2.29609
2.28601
2.2918
2.29846
2.29304
2.30705
2.30292
2.31057
2.30993
2.30927
2.28036
2.27337
2.27565
2.26952
2.32715
2.32798
2.33714
2.33914
2.33615
2.32765
2.33944
2.33323
2.34103
2.33416
2.38466
2.38337
2.38917
2.38791
2.39426
2.39076
2.39164
2.37691
2.3764
2.37739
2.37002
2.37238
2.36959
2.36345
2.31363
2.31277
2.31606
2.31632
2.32063
2.31978
2.31899
2.32059
2.31364
2.31522
2.31525
2.31525
2.31721
2.31775
2.32346
2.31905
2.30747
2.32144
2.30815
2.30404
2.31092
2.31214
2.33012
2.32048
2.32471
2.32851
2.32767
2.32422
2.32558
2.33356
2.24849
2.2538
2.25986
2.2572
2.25751
2.25631
2.25829
2.26021
2.3216
2.31571
2.31891
2.3054
2.30739
2.31185
2.31377
2.3093
2.32122
2.31551
2.32454
2.32678
2.35067
2.34826
2.35789
2.37046
2.36245
2.34976
2.35767
2.35002
2.36999
2.36054
2.36336
2.34715
2.3424
2.36475
2.36911
2.36437
2.34018
2.34575
2.356
2.35852
2.34733
2.33901
2.34927
2.35722
2.26092
2.25275
2.25637
2.25906
2.26372
2.25534
2.26124
2.26345
2.25793
2.25824
2.25611
2.26325
2.25173
2.24975
2.25413
2.25393
2.2959
2.3013
2.30098
2.3041
2.30283
2.30507
2.29759
2.29716
2.29109
2.2986
2.2985
2.32111
2.32373
2.33071
2.3305
2.3289
2.33732
2.33687
2.33921
2.33466
2.28474
2.28551
2.30605
2.30502
2.3094
2.30464
2.29426
2.30233
2.29564
2.29619
2.29242
2.29388
2.28765
2.29113
2.28977
2.29233
2.28733
2.29043
2.25826
2.26222
2.25705
2.25998
2.25427
2.25499
2.25782
2.25785
2.2594
2.25903
2.28388
2.27547
2.27803
2.28166
2.28064
2.28345
2.28837
2.38444
2.37339
2.37746
2.38827
2.38355
2.37926
2.38986
2.38472
2.38369
2.39464
2.3891
2.26504
2.26038
2.26229
2.26863
2.26625
2.26483
2.26711
2.26408
2.26822
2.27158
2.26971
2.27064
2.27599
2.27587
2.26722
2.27921
2.27018
2.27521
2.27514
2.27169
2.27077
2.28339
2.27774
2.27667
2.27836
2.27723
2.28134
2.25037
2.2456
2.24623
2.24658
2.2521
2.24981
2.23754
2.24434
2.24305
2.23957
2.24076
2.23478
2.23572
2.24461
2.24662
2.24251
2.24408
2.23792
2.23449
2.24242
2.23524
2.23504
2.23898
2.24017
2.2604
2.26053
2.26607
2.25705
2.2619
2.26042
2.2598
2.26327
2.26224
2.2646
2.24532
2.24589
2.249
2.24498
2.24744
2.2528
2.24775
2.24888
2.25287
2.25333
2.25175
2.25056
2.24679
2.2481
2.23533
2.225
2.22649
2.22209
2.22528
2.22259
2.22461
2.22208
2.22688
2.22515
2.2859
2.29574
2.27269
2.27893
2.27085
2.27987
2.27174
2.28249
2.28728
2.28914
2.28196
2.28399
2.3205
2.32899
2.32685
2.30764
2.30885
2.32138
2.31347
2.30742
2.31797
2.31839
2.31866
2.32513
2.33025
2.33318
2.3317
2.33501
2.33508
2.33386
2.33872
2.33091
2.32897
2.32035
2.32965
2.28127
2.28593
2.27574
2.28261
2.28077
2.28573
2.28522
2.28442
2.28412
2.29268
2.29397
2.29357
2.29072
2.28846
2.29123
2.28858
2.28576
2.3076
2.29793
2.3009
2.30009
2.3031
2.30869
2.31387
2.31326
2.30807
2.30671
2.30861
2.30276
2.30114
2.31064
2.30627
2.28008
2.28254
2.28046
2.28375
2.28484
2.28892
2.28902
2.29178
2.29204
2.28345
2.28268
2.27379
2.26968
2.26821
2.27216
2.2777
2.32934
2.31824
2.33201
2.33426
2.32256
2.32771
2.32309
2.32894
2.3347
2.32821
2.33094
2.33705
2.32778
2.32471
2.29418
2.2913
2.2981
2.29413
2.29452
2.29394
2.29509
2.24056
2.23862
2.23243
2.23528
2.23137
2.23245
2.28946
2.29177
2.29208
2.28668
2.26868
2.27856
2.27196
2.27045
2.27782
2.27721
2.27646
2.2769
2.27389
2.27279
2.27321
2.2747
2.27504
2.28404
2.28633
2.28373
2.28502
2.2912
2.2662
2.26306
2.39586
2.39784
2.39838
2.39224
2.38497
2.37639
2.37552
2.39959
2.39836
2.40072
2.29204
2.29718
2.30071
2.28529
2.28462
2.30511
2.30142
2.3063
2.30684
2.30326
2.30354
2.29339
2.29952
2.36084
2.36159
2.3674
2.37008
2.35704
2.35667
2.35567
2.35507
2.35862
2.35527
2.37358
2.37972
2.37096
2.38128
2.37642
2.3803
2.36881
2.37123
2.36698
2.37926
2.3897
2.37705
2.39105
2.39521
2.39796
2.4082
2.40717
2.41251
2.40603
2.28276
2.27931
2.24778
2.24051
2.23641
2.30657
2.307
2.30091
2.29993
2.30384
2.30542
2.31722
2.31493
2.31276
2.31844
2.3133
2.31723
2.30566
2.30954
2.32085
2.31632
2.33146
2.32809
2.32191
2.32423
2.32075
2.33272
2.33089
2.32362
2.32712
2.28237
2.26984
2.27854
2.27954
2.26384
2.27284
2.27667
2.28102
2.35747
2.34781
2.3369
2.33059
2.34863
2.35155
2.35229
2.34114
2.34925
2.3444
2.34794
2.375
2.39028
2.38121
2.37956
2.37365
2.36791
2.38319
2.37797
2.38961
2.3894
2.38429
2.31546
2.31189
2.3053
2.33461
2.33393
2.33769
2.34046
2.33713
2.3366
2.32587
2.32995
2.31701
2.32881
2.39523
2.40434
2.39804
2.40437
2.39916
2.40941
2.40799
2.40366
2.40162
2.39544
2.38931
2.39457
2.40114
2.39457
2.34971
2.356
2.35267
2.23999
2.22285
2.22359
2.22165
2.23242
2.22666
2.22432
2.22438
2.23089
2.23195
2.2271
2.2249
2.22621
2.22863
2.30138
2.29302
2.29992
2.29757
2.30474
2.3083
2.29478
2.29706
2.26125
2.25744
2.24634
2.25959
2.25112
2.25422
2.25775
2.25742
2.25569
2.25829
2.37512
2.36797
2.37074
2.3723
2.38027
2.38326
2.38337
2.37556
2.38164
2.36802
2.36965
2.37959
2.36791
2.3894
2.38748
2.39817
2.42804
2.4329
2.42051
2.41326
2.41676
2.4211
2.40931
2.31584
2.31687
2.32181
2.31821
2.31805
2.32088
2.32144
2.31829
2.25942
2.25709
2.26187
2.25946
2.25667
2.25908
2.25882
2.25913
2.26173
2.25782
2.40264
2.39961
2.39545
2.40495
2.40414
2.40014
2.40894
2.40862
2.40515
2.39958
2.40937
2.39979
2.4001
2.24511
2.25449
2.25074
2.23614
2.24276
2.25189
2.27298
2.2653
2.26529
2.26242
2.26928
2.26639
2.27149
2.27361
2.26888
2.26722
2.25419
2.24853
2.24869
2.25801
2.2483
2.33981
2.34738
2.34431
2.34317
2.34058
2.3418
2.33772
2.33039
2.32834
2.33096
2.33025
2.33834
2.33458
2.36237
2.36563
2.34908
2.35071
2.36786
2.35518
2.35865
2.3606
2.35076
2.35583
2.38971
2.40268
2.39915
2.37935
2.3933
2.39151
2.38111
2.38537
2.38418
2.38759
2.38962
2.40284
2.39722
2.40067
2.39902
2.26189
2.27311
2.26515
2.26487
2.26573
2.26659
2.26508
2.26317
2.26789
2.26694
2.26664
2.26709
2.27125
2.27575
2.26932
2.2705
2.27037
2.24411
2.25721
2.25316
2.25275
2.24557
2.25754
2.25623
2.25632
2.25102
2.30303
2.30332
2.35151
2.34667
2.35309
2.33065
2.32453
2.32654
2.33599
2.32206
2.32809
2.3367
2.33693
2.3332
2.33535
2.33363
2.33563
2.32555
2.32842
2.3193
2.31232
2.30741
2.31438
2.31242
2.30876
2.3079
2.30829
2.32123
2.31702
2.32279
2.3143
2.31629
2.35871
2.35964
2.35582
2.35802
2.36503
2.36511
2.36471
2.35477
2.35535
2.36139
2.36032
2.24716
2.25904
2.24775
2.25447
2.25594
2.26109
2.24995