/*--------------------------------*- C++ -*----------------------------------*\
| =========                 |                                                 |
| \\      /  F ield         | OpenFOAM: The Open Source CFD Toolbox           |
|  \\    /   O peration     | Version:  v1612+                                |
|   \\  /    A nd           | Web:      www.OpenFOAM.com                      |
|    \\/     M anipulation  |                                                 |
\*---------------------------------------------------------------------------*/
FoamFile
{
    version     2.0;
    format      ascii;
    class       surfaceScalarField;
    location    "166";
    object      phi;
}
// * * * * * * * * * * * * * * * * * * * * * * * * * * * * * * * * * * * * * //

dimensions      [0 3 -1 0 0 0 0];

internalField   nonuniform List<scalar> 
37561
(
1.0358e-08
-9.66979e-09
-8.2929e-10
1.41018e-10
6.09031e-09
-8.68982e-09
-8.04429e-09
1.34218e-08
-7.5627e-09
1.26383e-08
-1.84974e-08
-2.27809e-09
6.04331e-09
9.65662e-09
-1.1779e-08
-6.97464e-10
6.00555e-09
6.47094e-09
2.87018e-09
-7.86063e-09
-6.78857e-09
-5.34536e-09
2.79662e-09
2.70665e-10
-1.47962e-08
1.88815e-09
1.87555e-09
4.44848e-09
6.31426e-09
8.49984e-09
5.04457e-09
-1.16689e-08
7.81378e-09
9.57822e-09
-1.80895e-08
9.20646e-09
-3.53965e-09
4.65924e-09
1.05528e-08
3.5325e-09
1.27811e-08
1.12246e-08
-3.03285e-09
9.35371e-10
-1.9398e-09
-3.56176e-09
4.56621e-09
-3.10528e-09
8.22829e-09
-4.18764e-09
-1.035e-09
2.88629e-09
-4.95656e-09
7.38684e-10
1.65342e-09
-3.42709e-09
-1.64453e-09
2.57809e-09
-8.39129e-10
-9.44311e-11
1.14275e-09
5.82728e-09
1.25828e-09
2.35137e-09
-3.55248e-09
2.92361e-10
-2.74894e-09
5.34288e-09
3.23699e-09
-1.29121e-09
9.77965e-10
3.07668e-09
-8.17655e-10
-2.41378e-09
3.51226e-09
-1.20517e-10
-4.62867e-10
4.86293e-09
-1.32338e-09
1.57577e-09
-5.49176e-09
5.05873e-09
-1.10809e-10
-3.01409e-09
1.09717e-09
-2.39479e-09
4.31168e-09
1.85536e-09
-4.4365e-09
-4.32973e-10
-5.36989e-09
-2.28076e-09
8.7478e-09
-5.2543e-09
1.73976e-09
-4.01793e-09
-8.79574e-09
1.05329e-08
5.3444e-10
-1.17653e-08
7.21296e-09
-5.93727e-09
4.07693e-09
2.66667e-09
-4.54507e-09
-6.91735e-09
-4.64002e-09
-4.45864e-09
-2.89972e-09
4.72008e-09
-7.75763e-09
1.81057e-09
-4.35895e-09
-3.51355e-10
-2.55252e-09
-7.34194e-11
-3.31359e-09
-6.48577e-09
4.39438e-10
-9.06117e-09
4.26277e-09
-5.42668e-09
-8.75072e-09
-9.54979e-09
8.86191e-09
9.43862e-09
-2.18979e-09
6.08863e-10
-7.16979e-09
-1.27498e-09
-1.04646e-08
3.0739e-10
-7.67764e-09
6.0953e-09
8.96579e-10
-3.62087e-09
3.03168e-09
3.91747e-09
-3.83584e-10
3.35707e-09
-6.89094e-09
-9.8523e-10
6.67617e-09
-5.08208e-09
-4.94344e-09
4.85479e-09
3.51204e-09
4.52206e-10
9.95111e-10
-4.95936e-09
-4.12849e-09
3.95126e-09
3.68927e-09
-1.56258e-09
-2.43885e-09
-1.27054e-10
-3.58009e-09
3.52979e-09
3.96779e-09
-4.82911e-09
-3.1355e-10
4.30041e-09
4.17792e-09
5.52911e-09
1.59926e-09
-7.20886e-10
8.20193e-09
9.10863e-09
-7.2347e-09
1.0752e-09
8.4634e-09
5.21261e-09
7.10479e-10
-1.34497e-08
6.56616e-09
8.80674e-10
6.00282e-09
4.31682e-09
-1.25539e-08
7.56339e-09
-5.98013e-10
-2.64857e-09
4.11092e-09
1.00186e-08
-4.48696e-09
6.65352e-09
-2.76458e-09
-2.45695e-09
4.32536e-09
2.96511e-09
3.9205e-09
5.21322e-09
4.13086e-09
-4.0169e-09
4.42457e-09
6.24584e-09
2.84557e-10
9.85709e-09
-1.32161e-09
4.16399e-09
1.36294e-09
-2.54134e-09
-7.08099e-09
8.25938e-09
-5.04716e-09
-7.63366e-10
7.17345e-09
9.5338e-09
-1.06528e-09
-3.07834e-09
-5.39019e-09
-1.20394e-09
8.1964e-09
8.4793e-09
-1.16811e-08
1.99787e-09
1.35973e-09
-6.35457e-09
-2.08616e-09
-3.55695e-09
-1.30487e-10
-2.60624e-09
7.05362e-09
9.2372e-10
-5.37111e-09
5.41338e-09
-2.0521e-09
-4.12465e-09
-3.84327e-09
-3.57658e-09
1.14644e-09
-2.00372e-09
-2.98601e-09
4.7919e-09
-3.64095e-09
-4.52231e-12
2.08356e-09
-8.48624e-10
-5.44908e-09
-2.127e-08
1.48542e-08
1.18649e-08
-1.49089e-08
3.40201e-09
6.05786e-09
5.33125e-09
-5.16267e-09
-1.50775e-08
-9.50055e-10
-1.49887e-08
-1.78386e-08
-5.7002e-09
1.14551e-08
1.20838e-08
4.62269e-09
-1.71289e-08
-5.33231e-09
2.4017e-08
-6.31771e-09
-1.86493e-08
9.19577e-09
9.12102e-09
1.82241e-08
5.82587e-09
-1.58575e-08
2.01363e-08
7.17628e-09
-1.03459e-08
-8.88885e-10
-2.34788e-09
-2.10988e-08
1.67065e-08
3.97487e-09
-2.30293e-08
7.65615e-09
-1.29554e-09
1.19072e-08
-1.3095e-08
6.06187e-09
1.35015e-08
-1.05421e-08
-4.81092e-10
-2.74995e-09
-1.44694e-08
-3.86123e-09
2.30793e-09
-1.15084e-08
9.63483e-09
-4.34376e-10
-1.2465e-08
1.19849e-08
2.78807e-09
1.72935e-09
4.96032e-09
-1.81981e-08
7.22185e-09
-1.79575e-08
1.05225e-08
-1.01918e-08
6.89117e-09
7.56741e-09
-1.25926e-09
4.21433e-09
5.62391e-09
8.13403e-09
-6.19054e-09
6.87531e-09
3.85029e-09
-6.99009e-09
-3.16473e-09
1.57787e-08
-1.27435e-08
1.33132e-08
-7.55981e-09
1.0247e-08
-1.17735e-09
5.6513e-10
1.39576e-08
1.26797e-08
-1.12105e-08
3.49107e-09
-1.24118e-09
-3.08142e-09
7.21337e-09
-1.25183e-08
8.38637e-09
8.28741e-09
-1.86811e-08
7.3123e-09
-5.51281e-09
1.674e-08
-4.01377e-09
-1.27085e-08
1.54831e-08
-7.85395e-09
-7.48067e-09
-3.34649e-09
-1.10953e-08
-2.72715e-09
1.11395e-09
-8.56759e-09
-1.03817e-08
-3.55117e-09
1.1488e-08
2.99981e-09
-1.09366e-08
1.76138e-09
-1.38801e-08
1.15786e-08
-7.57137e-09
2.74875e-09
-3.68843e-09
1.14101e-08
1.78613e-08
-1.03026e-08
-1.89688e-08
8.23687e-09
4.46112e-10
1.16026e-08
1.44955e-08
-3.82771e-09
-8.21897e-09
1.50465e-08
-1.2369e-08
3.0162e-08
2.40196e-10
-1.09465e-08
-1.94557e-08
8.70225e-09
6.48646e-09
1.49733e-08
-1.23205e-08
7.99923e-09
1.30235e-08
2.32199e-08
-7.96762e-09
-1.50121e-08
1.08686e-08
1.88378e-08
-1.73788e-08
4.17059e-09
8.87708e-10
-2.19415e-08
-6.38383e-09
1.06724e-08
-1.05461e-08
-8.09389e-09
1.23644e-08
-9.75576e-09
1.56196e-09
7.9607e-09
-8.6044e-09
1.30081e-08
-1.74191e-09
1.77019e-08
-1.06066e-08
1.97333e-08
-8.03811e-09
1.98788e-08
-1.16829e-09
1.72434e-08
-1.48147e-08
-1.04669e-08
1.97891e-08
-1.23014e-08
3.25655e-09
7.92818e-09
1.25287e-08
4.90042e-09
-3.11158e-09
8.1834e-10
-2.60719e-09
5.83486e-10
-1.30884e-09
5.62577e-09
-7.83012e-10
-3.07648e-09
7.47882e-10
1.7255e-09
-2.32529e-09
-1.83236e-10
-2.40284e-09
-3.08294e-10
3.29461e-09
-6.30778e-10
-4.65697e-11
6.60416e-09
-3.96586e-09
-1.81997e-09
-1.01955e-10
5.39727e-09
-1.04787e-09
1.15317e-09
-3.18179e-09
-1.51671e-11
-3.35801e-09
-3.01262e-09
-8.1417e-10
3.51849e-09
-2.04646e-09
-3.00623e-09
2.04005e-09
-2.4985e-09
-1.78741e-10
-2.5541e-09
-2.58598e-10
-4.32175e-09
3.40561e-09
-3.1496e-09
4.12529e-10
-2.69165e-10
-2.41871e-09
-3.22939e-09
-3.68608e-09
1.2522e-09
1.00982e-11
-3.91933e-09
1.998e-09
-1.85005e-09
-2.72139e-09
2.57341e-09
-2.09588e-09
-4.70671e-09
8.80059e-09
1.58276e-09
-5.23762e-09
1.80477e-09
-6.72379e-09
6.21066e-09
3.4527e-09
-5.42627e-09
-7.47829e-10
-7.37495e-09
6.12094e-09
-5.43012e-09
2.76877e-09
3.06418e-09
-4.02838e-10
3.18157e-09
-1.16263e-09
-7.44906e-09
-7.13668e-09
4.66782e-09
-6.97856e-11
-3.88533e-09
6.33451e-09
-1.00804e-08
2.51483e-09
1.23109e-09
-7.73564e-09
7.34635e-09
-2.12694e-09
-2.35158e-10
3.26525e-09
-3.20314e-09
-1.01426e-08
-4.54017e-09
-8.0479e-09
3.18777e-09
-6.30905e-09
-3.86578e-09
-1.06748e-08
4.23323e-09
-4.34739e-09
7.11837e-09
6.08513e-09
-9.38988e-10
-9.12914e-10
1.05598e-08
-1.04125e-09
-5.17586e-09
-4.34272e-09
-1.49203e-09
5.24029e-09
2.19702e-09
-5.94527e-09
6.90916e-09
2.15865e-09
-6.87539e-09
8.68277e-09
5.10179e-09
3.47408e-09
3.22946e-09
-3.84652e-10
8.52379e-09
-1.02076e-09
6.75672e-09
-1.05624e-09
1.05731e-08
-5.67273e-09
-5.94165e-09
1.15804e-09
2.53973e-09
-5.84131e-09
2.9846e-09
4.01475e-09
-4.25167e-09
7.25228e-09
2.23968e-09
6.38465e-09
-8.58331e-09
3.90942e-09
2.59622e-09
2.01816e-09
6.41447e-09
3.13957e-09
-1.00452e-08
1.23754e-08
-2.87311e-09
5.42876e-10
-2.03734e-09
-8.39208e-09
3.84242e-10
-1.23148e-09
9.5646e-09
-1.03705e-08
-8.78599e-09
-1.30568e-08
1.74284e-08
4.4144e-09
-1.1885e-08
-5.29309e-09
-1.67831e-08
-2.80094e-09
1.73479e-08
2.23623e-09
-1.65519e-08
-1.98588e-09
1.75461e-09
-4.99579e-09
6.69685e-09
-1.47579e-08
-1.90222e-08
2.14138e-09
-2.09003e-08
1.62581e-08
1.84123e-09
-7.47693e-10
-1.34558e-08
-1.13978e-08
-5.90175e-09
-7.06987e-09
1.17004e-08
1.31051e-08
-1.77356e-08
-2.02786e-08
8.73527e-09
4.47349e-09
1.14635e-08
2.21114e-10
-1.1855e-08
1.70308e-10
6.02966e-10
9.19305e-09
4.61894e-09
-1.4415e-08
-1.3504e-08
9.58778e-09
4.51921e-09
6.07862e-09
-1.95971e-08
1.44144e-11
-2.49583e-08
1.07583e-08
9.80558e-09
8.51745e-09
-3.67068e-09
6.76321e-09
8.18264e-09
-1.12752e-08
1.01583e-08
1.04983e-08
1.39661e-08
-5.67085e-09
-1.41264e-09
-6.8826e-09
4.23699e-09
6.0584e-09
-6.05765e-09
-2.43272e-09
1.82959e-08
9.87976e-09
1.44888e-08
8.33186e-09
9.22741e-09
-1.78629e-08
3.03619e-10
2.92031e-09
9.50619e-09
-4.09465e-09
1.26169e-09
1.76519e-08
1.01078e-09
-1.99243e-08
1.74264e-08
-5.96475e-09
2.31871e-09
-1.37804e-08
9.88266e-09
6.99855e-09
-7.6538e-09
1.33127e-08
-5.09754e-10
-2.05072e-08
2.66273e-09
1.91062e-08
-3.06474e-09
-1.60444e-11
-3.35337e-09
-3.24569e-09
1.35976e-08
1.23279e-08
-7.72455e-09
4.90287e-09
-3.92022e-09
1.20339e-08
4.21416e-09
8.40771e-09
9.84789e-10
9.68189e-11
-1.41537e-09
9.72623e-09
1.39756e-08
-1.84487e-09
1.77325e-08
-1.64852e-08
1.36595e-10
-1.20933e-10
6.91465e-09
-2.2415e-10
5.27466e-09
-4.57723e-10
3.55416e-09
2.65105e-10
7.58663e-09
-5.78308e-09
5.59048e-09
3.96734e-09
5.54745e-09
7.17528e-09
-6.66982e-09
-6.05291e-09
6.2417e-09
-8.01039e-10
1.06777e-10
-7.02966e-09
5.87422e-09
-3.7748e-10
5.23098e-10
-8.59093e-09
2.43967e-09
-3.58489e-09
-9.81817e-09
8.49751e-10
2.98466e-09
1.89284e-09
-1.15473e-08
-1.01201e-09
4.48616e-09
-1.13197e-08
6.30262e-09
-8.97163e-09
4.56183e-09
5.56408e-09
-6.25088e-11
1.53605e-08
-1.1265e-08
3.90552e-10
1.11173e-10
7.6165e-09
5.26657e-09
-7.319e-09
9.17107e-09
-2.56657e-09
7.5138e-10
6.31636e-09
-2.01684e-09
-5.05088e-09
-1.96869e-09
2.93781e-09
-2.17733e-10
7.02339e-10
-2.44824e-09
-2.22763e-10
-4.5076e-09
7.51016e-09
-1.59469e-09
-1.40786e-09
1.12222e-09
-4.47388e-09
-1.15589e-09
5.25643e-09
5.60182e-10
-1.09662e-09
-4.71998e-09
3.82405e-09
6.9351e-10
7.38894e-10
-2.8857e-10
4.17474e-09
-6.21099e-11
-2.25749e-09
2.09718e-09
-1.28249e-10
3.66304e-09
5.41586e-10
2.11175e-09
-7.66489e-09
2.10843e-09
6.24999e-09
-5.98248e-09
-2.65177e-09
-2.92212e-09
3.27342e-09
3.82345e-09
-7.45637e-10
-7.92848e-11
-2.32767e-09
2.94562e-09
3.04512e-09
-1.35481e-10
3.5428e-09
4.50896e-09
8.65182e-09
-2.43277e-09
-1.67638e-09
5.97541e-09
8.70907e-09
7.2014e-09
-2.01299e-08
1.64284e-09
1.12857e-08
3.49386e-09
-4.79944e-09
1.32507e-08
-1.19451e-08
-4.14735e-09
-1.34575e-08
-1.41694e-08
7.69355e-09
-4.38297e-09
-8.22443e-09
1.95299e-08
6.7674e-09
-7.23007e-09
-8.58666e-09
1.14338e-08
-2.64723e-08
-1.31666e-09
-7.4195e-09
6.9026e-09
1.83354e-09
-5.69422e-09
4.26489e-09
1.12645e-10
-2.59383e-09
-4.58733e-09
-2.38355e-10
-2.05436e-09
-6.23371e-09
-2.50129e-09
3.54718e-09
5.85671e-09
3.57076e-09
-7.02161e-09
1.39648e-09
1.01678e-08
-1.5087e-08
-4.4545e-09
9.37367e-09
1.4203e-09
6.24623e-09
-4.51733e-09
8.51899e-09
-1.07599e-08
6.75816e-09
1.56178e-09
-6.16455e-09
8.54094e-11
-5.5741e-09
8.9253e-09
1.95961e-10
2.52572e-10
-8.81534e-09
6.22153e-09
1.1272e-08
4.51961e-09
-1.43713e-08
1.06459e-09
-9.40298e-09
1.71997e-09
6.61842e-09
5.60901e-09
2.32994e-09
-6.87439e-09
3.98574e-09
1.48596e-09
1.37302e-10
-6.33007e-09
4.9171e-09
7.02675e-09
-5.61381e-09
-1.03976e-10
1.03333e-09
-7.25944e-09
8.18548e-09
1.25232e-09
-7.10787e-09
7.25265e-09
1.25515e-09
-8.61178e-09
1.62264e-09
8.23853e-09
-1.67571e-09
5.3225e-09
2.85875e-10
1.05268e-08
-7.42674e-09
-1.84779e-09
2.89081e-09
-2.84993e-09
7.21177e-09
-1.56988e-09
9.37778e-09
-3.99389e-09
7.74651e-09
-2.53499e-09
6.77964e-09
5.14193e-09
-3.60479e-10
4.0023e-09
-8.93372e-10
-2.74844e-09
4.27847e-09
-1.12721e-09
-3.51174e-09
1.70107e-09
5.33659e-10
1.76764e-09
-4.88145e-09
1.90651e-09
4.67601e-09
5.83449e-10
-1.18643e-09
-4.52083e-10
2.35104e-09
-2.79233e-09
-2.85187e-09
1.81977e-09
1.56575e-09
-2.93103e-09
-8.92133e-10
5.72966e-09
-2.49456e-09
1.46961e-10
-4.94986e-10
2.84328e-09
-3.47551e-09
2.16502e-09
-3.11211e-09
1.25433e-09
-1.75516e-09
-2.23146e-09
3.1591e-09
-1.35618e-09
1.70487e-09
9.45762e-10
-1.3696e-10
-3.13791e-11
8.73558e-10
2.40587e-09
1.20626e-08
-1.5342e-08
-1.66979e-08
3.07005e-09
1.45014e-08
-4.39416e-09
-1.99051e-09
-1.03133e-08
1.18275e-09
-6.20724e-09
-8.80901e-10
5.90535e-09
1.82875e-09
-6.59771e-09
7.17482e-09
-6.65601e-10
-4.94397e-09
7.4383e-09
-7.67249e-09
1.00769e-08
-4.86978e-09
-8.60027e-09
5.79754e-09
-6.64893e-09
1.90883e-09
-1.29705e-10
6.88985e-09
-2.13235e-09
-1.14064e-08
-6.10458e-09
-3.25107e-09
2.15912e-10
-6.0538e-09
-1.23159e-08
1.63792e-08
7.61693e-09
-4.85604e-09
-1.57814e-09
-3.29814e-09
4.31735e-09
4.38816e-09
3.83752e-09
6.41473e-09
-6.88262e-09
-1.34475e-10
4.9381e-09
-5.27296e-09
-6.53919e-09
6.87405e-09
-3.80644e-09
1.37261e-08
-4.98159e-09
3.71198e-09
-8.49554e-09
-4.89419e-10
-6.21667e-09
6.12222e-09
-1.15308e-08
4.56949e-10
4.53465e-09
-5.40475e-09
9.04316e-09
-4.92703e-09
1.28862e-09
-7.91106e-10
-1.1788e-08
7.17435e-09
-4.6076e-10
3.28725e-09
1.37605e-08
6.02318e-09
-2.06647e-09
-1.77172e-08
-1.99164e-09
4.2213e-09
4.78253e-09
-7.50991e-10
6.6598e-09
1.75899e-09
-1.04852e-08
-6.12148e-09
1.209e-08
6.91326e-10
-9.28952e-09
2.92184e-09
8.70736e-09
-2.42438e-09
1.79567e-08
-2.44831e-09
-1.52813e-08
-2.27077e-10
4.6296e-09
3.41903e-09
9.90804e-09
7.58597e-09
1.35242e-08
-1.64806e-08
1.17868e-08
-2.44553e-09
-1.17896e-08
6.22487e-09
8.98094e-09
7.4964e-09
4.4525e-09
-5.72405e-09
5.7034e-10
1.36149e-08
-6.6888e-09
2.07777e-08
-1.31326e-09
-2.24877e-08
3.02319e-09
1.54027e-08
9.13725e-09
-3.76228e-09
-1.96769e-09
8.50121e-09
-8.97906e-09
1.61924e-08
-1.94733e-08
7.01038e-09
1.58544e-08
-6.67237e-09
1.9425e-09
1.35691e-08
-6.60444e-09
1.47607e-08
2.2186e-09
8.47565e-09
5.1601e-09
1.10169e-08
-2.26919e-08
9.4449e-09
6.64665e-09
6.60042e-09
-2.05146e-09
-6.61095e-09
-2.29225e-08
1.42249e-08
1.81425e-08
1.40688e-08
-2.03556e-08
1.00453e-08
-3.75848e-09
1.2751e-08
7.96449e-09
2.15382e-08
-7.65934e-09
2.76031e-09
-4.14457e-09
-1.75744e-08
-9.58563e-10
2.12933e-08
9.45591e-09
-1.29628e-08
2.09196e-08
-5.8865e-09
-6.00186e-09
1.04328e-09
1.91362e-08
-5.95459e-09
1.79817e-08
-4.1875e-09
1.5838e-08
7.33836e-10
4.34771e-09
-9.92783e-10
-1.44672e-08
4.59436e-09
1.99181e-08
1.31872e-08
-9.06116e-09
1.6462e-08
-8.09652e-09
6.95658e-10
1.39047e-08
-7.69068e-09
-1.52752e-08
5.78121e-09
6.44589e-09
1.67764e-09
1.39986e-08
8.24463e-09
1.21759e-08
-3.27563e-09
-1.78797e-08
8.97946e-09
1.04287e-08
-1.77583e-08
3.61476e-10
6.96811e-09
1.00432e-08
1.78434e-08
-1.3888e-08
-1.38469e-08
1.46887e-09
2.17614e-08
-9.38346e-09
3.02767e-09
-4.9406e-09
-1.18948e-08
2.62826e-08
-9.44719e-09
-1.74917e-08
1.69917e-08
5.13866e-09
-4.6386e-09
-1.02564e-08
9.2882e-09
-2.02545e-08
-2.03649e-08
-6.83653e-09
1.83486e-08
8.9878e-09
1.16733e-09
3.07029e-09
-9.35815e-09
-4.85228e-09
1.11401e-08
-5.13645e-09
-7.01835e-09
1.52251e-08
-1.23788e-08
-1.26981e-08
1.57188e-08
-1.07142e-08
8.64137e-09
9.61454e-09
-7.54171e-09
-9.70735e-10
-2.85683e-09
-6.88662e-09
-2.81656e-09
6.32147e-09
-1.06357e-08
2.96689e-09
-4.44647e-10
-1.34141e-08
6.84041e-09
-2.32073e-08
1.03838e-08
-2.60431e-09
-5.35357e-09
-4.74025e-09
-3.562e-09
-8.04444e-09
-1.27654e-08
-1.30462e-08
9.10989e-09
-5.63475e-09
-1.62405e-08
7.79278e-10
-5.08342e-09
-4.35882e-09
-1.73143e-08
1.01825e-08
1.14906e-08
-1.57962e-08
5.80261e-09
5.97604e-09
-9.11706e-09
4.99132e-09
-1.8503e-09
-8.19557e-09
9.61057e-09
4.56104e-09
3.95272e-09
-9.2665e-09
-3.80329e-09
-4.27163e-09
2.87775e-11
4.64769e-09
-9.15018e-09
3.75153e-09
7.50971e-10
4.96977e-09
-6.36459e-09
6.04252e-09
1.11659e-08
-5.87346e-09
-3.01152e-10
1.21545e-09
9.30099e-09
-9.05873e-10
-7.87435e-09
4.65675e-09
-1.054e-09
4.87599e-09
-4.53324e-09
-8.2171e-09
-4.03897e-09
-3.51544e-10
1.02095e-08
-6.78633e-10
-6.84357e-10
-1.02347e-09
-7.41826e-09
-2.41628e-09
-3.37226e-09
-1.38696e-08
7.9395e-09
9.30238e-09
4.56377e-09
-1.24693e-08
-5.58302e-09
-5.64571e-09
1.49632e-08
-3.73436e-09
-8.43752e-09
-4.98452e-09
4.58456e-09
-7.17334e-09
7.57329e-09
3.0848e-09
-1.19425e-08
3.87318e-09
-5.49664e-09
-3.19854e-09
1.32797e-08
-9.39541e-09
6.9836e-09
2.18117e-09
-9.14253e-09
-4.98115e-09
-5.63206e-10
-4.42897e-09
1.07635e-08
-1.8591e-08
1.06433e-09
6.7632e-09
-1.42394e-08
1.56075e-08
-7.97612e-09
-5.53571e-09
-7.7755e-09
-2.36265e-09
-4.10127e-09
-1.12431e-08
-1.51234e-08
7.96336e-09
2.46937e-09
1.35378e-09
-1.17865e-08
-3.54184e-09
-1.18494e-08
4.93757e-09
2.40901e-10
-4.90252e-09
7.13099e-09
4.67261e-09
-1.4562e-08
-6.93587e-09
-9.55928e-09
1.92123e-08
5.35686e-09
-1.50099e-08
-1.77175e-08
-2.0982e-09
-1.43183e-08
2.02776e-08
-8.20577e-10
-2.41321e-08
2.66706e-08
-1.24807e-08
9.94211e-09
8.08312e-09
-1.25539e-08
-1.96614e-08
2.95747e-09
1.93652e-09
2.58e-08
-1.3246e-08
-7.19718e-09
1.29688e-08
1.62965e-08
2.19694e-08
6.78808e-09
-1.0974e-08
1.95631e-08
4.37973e-09
5.44351e-09
5.55183e-09
1.16293e-08
-1.9278e-08
1.30922e-08
-6.56752e-09
7.95167e-09
-1.59688e-08
1.45846e-08
4.25855e-09
-1.83319e-08
7.50587e-09
-2.73987e-09
4.5233e-10
1.20419e-08
-9.75433e-09
7.58938e-09
-2.14844e-10
-1.01144e-08
1.07939e-10
-8.25619e-09
1.60999e-08
-5.95003e-09
-6.68701e-09
1.2745e-08
-9.99973e-09
-2.46999e-09
1.36792e-08
-1.20944e-09
8.00866e-09
-1.0419e-08
-1.11963e-08
9.50484e-09
-1.37742e-08
1.3603e-09
-3.55487e-09
-2.0671e-09
1.03375e-08
-7.81805e-09
5.97636e-09
-8.2583e-09
1.34617e-08
-3.8898e-09
-4.47809e-10
-4.42245e-09
-3.88457e-09
2.36394e-09
-9.30635e-09
2.55387e-10
-1.10991e-08
5.20684e-09
-4.07686e-09
6.55969e-09
3.94716e-09
-1.53723e-11
-8.19319e-09
-1.54562e-09
-9.41656e-10
9.15219e-09
-4.26337e-09
1.26055e-08
-6.28302e-09
-7.26413e-09
1.24513e-08
-8.49984e-09
1.06303e-08
1.94843e-09
1.83725e-10
-1.27624e-08
1.42838e-08
7.83188e-09
-1.14854e-08
1.60666e-09
-1.14879e-08
1.29169e-08
-3.03564e-09
1.78563e-08
-1.96576e-09
-1.07617e-08
-9.73347e-09
1.74179e-08
3.07721e-09
-2.48827e-09
9.58287e-09
9.67325e-10
-1.05068e-08
9.34446e-09
1.69678e-09
-1.08575e-08
4.785e-09
-1.60159e-09
-1.09708e-08
3.82627e-09
4.65629e-09
-7.60973e-09
8.33299e-09
7.15126e-09
-7.87453e-09
2.41628e-09
9.52933e-09
-2.60113e-09
-7.22673e-10
3.53166e-09
-1.30467e-08
1.90528e-09
-1.0889e-08
5.21323e-09
9.20743e-09
-1.31068e-09
1.2597e-08
-1.0319e-08
1.06698e-08
-1.02836e-08
3.79313e-09
-5.15279e-09
-7.61474e-09
-1.63879e-09
3.99036e-09
-9.35337e-10
3.82125e-09
1.27661e-08
4.19227e-09
-7.13463e-09
5.07594e-09
-2.13357e-09
-1.87676e-09
9.60922e-09
-3.54019e-09
4.78569e-09
1.20687e-09
-6.47333e-09
4.80784e-10
-5.32138e-09
8.23031e-09
-8.26663e-09
2.33887e-09
-2.4631e-10
-9.92017e-09
3.42418e-09
6.74231e-09
-7.98802e-09
5.62249e-09
-7.80743e-10
3.14625e-09
-2.62659e-09
-1.35647e-08
8.20329e-09
-7.60493e-09
2.03723e-09
4.94201e-09
-7.01462e-09
2.2295e-09
-1.56892e-10
-7.36048e-09
5.82915e-09
-3.27164e-09
-3.34105e-09
-3.30748e-09
-1.34885e-09
-1.29531e-09
-7.25711e-09
-1.45221e-09
-4.73481e-09
-9.53692e-09
-6.7734e-09
1.39797e-09
4.90423e-09
-1.22656e-08
-5.14082e-09
-3.05505e-09
7.12524e-09
9.69436e-09
-1.37646e-08
2.97604e-09
-8.19946e-09
2.16836e-09
-5.52937e-09
1.34449e-09
-3.54519e-09
7.73009e-09
1.1362e-08
-4.43717e-10
-1.64476e-08
-6.01658e-09
9.28205e-09
1.64647e-08
-1.09485e-09
-6.79891e-09
-9.99159e-09
9.63632e-09
7.15419e-09
-1.1009e-08
-8.81979e-10
5.09211e-09
-6.44912e-09
-3.21542e-09
7.78544e-09
-2.35043e-08
1.6892e-08
-1.55557e-08
8.57806e-09
-2.01109e-08
-1.67753e-08
2.623e-08
1.06562e-08
-1.81571e-08
-2.19954e-10
-1.73378e-09
-1.55644e-08
-8.16041e-09
6.94942e-09
-1.49788e-08
-1.87427e-08
2.19339e-08
-1.37818e-08
-1.62424e-08
8.09022e-09
1.0307e-09
2.30274e-08
-2.12411e-09
1.8747e-11
2.46666e-08
1.5446e-09
-3.41869e-09
-1.02062e-08
-3.50481e-09
1.71296e-08
-1.1787e-08
-5.41347e-09
1.28134e-08
-1.52507e-08
-7.76891e-09
-1.00024e-08
1.81758e-08
-1.88597e-08
7.50623e-10
1.81278e-08
-1.77116e-08
-1.36809e-09
1.84917e-08
-1.67104e-08
1.99483e-09
-1.83665e-08
1.22025e-09
1.51514e-08
-7.64256e-10
-2.48758e-09
-8.53518e-09
-2.99111e-09
-1.30239e-08
-8.53132e-09
-1.83496e-08
9.16938e-09
-1.05105e-08
-3.41483e-09
-1.05352e-09
2.16684e-08
-2.26647e-08
3.1347e-09
-9.14669e-09
8.11495e-09
-3.46989e-09
4.50164e-09
4.02502e-09
-7.91298e-09
-5.25872e-09
-5.26048e-09
3.88408e-09
9.49134e-09
-1.52122e-09
2.85763e-10
-6.93198e-09
4.02103e-09
-5.5892e-10
-1.88223e-09
-1.29627e-08
7.74244e-09
-2.08198e-09
6.59411e-09
-1.22546e-08
1.61775e-09
8.0483e-09
-1.9236e-09
3.8621e-09
-7.82631e-09
5.14968e-09
3.30178e-10
-8.21149e-09
-5.37564e-09
2.605e-09
1.09821e-08
2.13198e-09
-6.57441e-09
-3.76906e-09
-3.53245e-09
2.88796e-10
6.83947e-09
-3.01797e-09
1.99538e-10
1.33286e-08
-5.55119e-09
7.02509e-09
-1.97505e-09
9.59966e-11
-6.09625e-09
-7.06641e-09
-3.90586e-09
-1.75558e-08
-1.82827e-08
1.86691e-08
1.59527e-09
-8.57512e-09
-1.05761e-08
-5.61568e-09
-1.21215e-08
-1.40558e-08
3.90031e-09
-8.12718e-09
-3.31112e-09
-1.93198e-08
-4.94848e-09
-1.4622e-08
1.39548e-08
8.63104e-09
-1.05692e-08
6.10003e-09
-4.16192e-09
-4.06299e-09
1.20786e-08
6.15459e-10
1.11903e-08
-5.12504e-09
-1.66345e-08
1.08571e-08
-3.7298e-09
7.39195e-09
-2.63109e-09
5.45904e-09
-1.33847e-08
-2.3142e-09
-1.27786e-08
-1.59568e-08
1.45026e-08
1.42327e-08
-1.46325e-08
3.38374e-09
-1.52985e-09
7.40683e-09
-8.81569e-09
-1.32236e-08
-3.50113e-09
-5.0488e-09
-1.5349e-08
-7.06525e-09
1.64374e-08
5.97678e-09
-1.14507e-08
-5.14528e-10
-6.85845e-10
1.88489e-08
2.42939e-09
-2.05925e-08
7.74665e-10
-1.29112e-08
1.33455e-08
-4.98173e-09
1.83236e-08
-1.01534e-08
4.73976e-09
1.40025e-08
-2.21887e-09
2.13794e-08
-6.78837e-09
3.73263e-09
-4.53063e-09
-5.89968e-09
6.20569e-09
4.22461e-09
2.16561e-09
-6.45848e-09
-2.37776e-10
-6.06151e-09
2.14279e-09
-1.68186e-09
5.60057e-09
-3.82744e-09
-6.84607e-11
-5.25884e-09
-1.63531e-08
7.34734e-09
1.42646e-08
8.362e-09
-1.04932e-09
-1.25715e-08
3.08763e-09
-2.71054e-09
-6.83558e-09
-3.2173e-09
4.05247e-10
-2.5393e-11
8.37388e-09
9.02461e-09
-8.92871e-09
-3.92333e-09
6.86065e-10
6.65668e-09
1.20442e-08
-3.70762e-09
-4.74186e-09
-1.81807e-08
6.56954e-09
2.89321e-11
-2.93175e-09
-6.0259e-09
1.08215e-08
-2.99286e-09
-7.7997e-09
7.98292e-09
3.52463e-09
2.72382e-10
-5.91467e-09
-7.46234e-09
5.88528e-09
-5.47067e-09
9.04929e-09
-9.46389e-09
-4.70539e-09
2.04977e-09
8.54095e-09
7.35033e-10
3.61231e-09
-9.0527e-09
-1.54997e-09
-1.19698e-08
1.02142e-08
3.30561e-09
1.4308e-08
3.52155e-09
-1.93795e-08
1.1495e-08
-6.2389e-09
-7.05297e-09
1.79691e-09
8.7695e-09
2.22688e-08
-1.67303e-08
1.57127e-08
-6.16386e-09
9.5035e-09
-8.56873e-09
2.58681e-09
-1.03469e-08
1.54631e-09
-1.68728e-09
1.04879e-08
2.37304e-08
4.28393e-11
-1.50439e-09
2.86876e-08
1.07554e-08
-8.00518e-10
5.31938e-09
3.5318e-09
-2.5758e-10
-8.5936e-09
-1.98565e-09
7.67001e-09
-3.64971e-10
-5.28449e-09
9.29818e-09
-4.67674e-09
6.63034e-10
5.5374e-09
-7.29009e-09
-7.47497e-09
9.0867e-09
-3.59738e-09
-1.21578e-08
4.42524e-09
6.65697e-09
-1.70197e-09
5.82407e-10
1.69976e-09
2.27861e-09
5.31982e-09
2.42578e-09
5.93095e-09
-1.20621e-08
7.92575e-09
1.52874e-08
-1.11509e-08
-2.52256e-09
2.87244e-10
-9.82681e-09
6e-09
-3.19376e-11
1.69039e-09
8.51399e-09
-5.98691e-09
1.01031e-08
8.46185e-09
-1.8977e-09
8.47493e-09
2.79971e-09
-9.95384e-09
1.52723e-08
-8.11815e-09
-7.31135e-09
1.46374e-08
-4.5263e-09
6.16466e-09
7.31483e-10
-1.685e-08
7.19437e-09
-8.34106e-09
7.93796e-09
-2.03015e-08
8.37173e-10
-7.97674e-09
-5.70259e-10
-1.11814e-08
3.50377e-09
8.24793e-09
-1.42773e-08
3.55358e-09
6.31545e-09
6.88751e-09
2.06931e-09
9.77138e-09
-6.24571e-09
2.61765e-10
1.26876e-08
1.27845e-08
1.32042e-09
-4.67004e-09
-9.43487e-09
1.22877e-08
-6.24722e-09
6.74401e-09
1.38824e-08
2.99426e-09
1.09113e-09
-1.79679e-08
1.93895e-09
1.45699e-08
-2.62641e-09
-2.4664e-09
6.87771e-09
7.87637e-09
-1.66902e-08
8.25309e-09
5.97065e-09
1.53666e-08
3.66839e-09
-1.60407e-08
-1.08572e-10
1.74141e-08
-4.43515e-09
1.40654e-08
4.93964e-09
-1.17013e-08
-1.29203e-09
-3.29713e-09
1.14668e-08
1.18247e-08
-4.86361e-09
1.19202e-08
3.69931e-09
-1.45284e-08
7.98855e-09
-5.03476e-10
1.08246e-08
-1.17954e-08
3.92112e-09
6.56288e-10
3.73002e-09
9.1423e-09
1.19303e-09
1.01846e-08
1.72507e-09
1.06175e-08
-9.46385e-09
7.50561e-09
6.01063e-09
-4.05242e-09
2.54785e-09
-1.16506e-08
-3.61092e-10
4.35257e-09
-9.60851e-09
2.28732e-09
2.96857e-09
-1.08786e-10
-5.17215e-09
9.63347e-09
1.08464e-08
-1.33226e-09
-2.0085e-09
-9.36295e-09
5.76506e-09
5.25526e-10
-7.34063e-09
6.45809e-09
-7.66497e-09
3.49417e-09
4.12226e-09
-8.55638e-09
1.08922e-08
-3.01168e-09
7.02515e-09
-3.575e-09
9.24919e-09
1.03497e-09
6.82287e-09
-6.66911e-09
-1.18876e-09
5.62137e-09
-7.81953e-09
-5.46683e-09
-2.88722e-09
-4.78185e-11
-4.30751e-09
-2.50756e-09
7.03297e-09
-2.1793e-10
-6.25904e-09
-9.0756e-09
5.2135e-09
2.87073e-10
-3.71854e-10
7.22169e-09
5.78393e-10
2.12764e-09
-9.92769e-09
-3.97702e-10
1.1548e-08
-3.92865e-09
1.04598e-08
3.84467e-09
1.62929e-08
-6.23077e-09
5.04604e-10
-1.11352e-08
1.02725e-08
3.58134e-10
-9.80223e-09
9.52976e-09
7.77098e-10
-1.09515e-08
-5.03454e-10
1.17836e-08
-3.28651e-10
3.47247e-09
-1.22963e-08
2.10481e-09
-8.43457e-09
-1.39871e-09
-7.63172e-09
1.17067e-08
-6.62112e-10
1.08411e-08
-8.39516e-09
1.35773e-08
-4.50833e-09
4.60745e-10
1.25411e-09
1.83214e-08
-3.28263e-09
1.24951e-08
-3.99867e-10
-5.2255e-09
1.02651e-08
6.6671e-09
1.10372e-08
2.05869e-09
-9.66249e-10
3.58067e-09
1.09629e-08
1.85085e-09
7.45538e-09
1.10659e-08
-3.79068e-09
-1.70701e-09
-1.94276e-09
1.39149e-08
-4.18463e-09
1.35148e-08
1.27039e-08
1.01613e-08
1.09219e-08
9.67917e-09
-1.68981e-08
-3.70301e-09
1.28785e-08
-1.32962e-08
1.13397e-08
4.87982e-09
-1.5808e-09
6.38017e-09
2.13883e-09
1.56195e-08
1.22148e-08
-5.63712e-09
-2.34758e-08
1.8404e-09
1.27849e-09
-3.60246e-10
7.33624e-09
-8.25449e-09
-1.47024e-09
1.1383e-08
-8.63425e-09
-7.46762e-09
-1.01754e-08
-2.09453e-09
1.44088e-08
1.33537e-08
8.81646e-09
-1.48339e-08
-5.06146e-09
1.45306e-08
-6.90518e-09
-1.42985e-09
1.1035e-08
-4.71351e-09
3.21482e-09
6.23947e-09
-1.1756e-08
1.28764e-08
-7.80329e-10
1.13095e-09
-6.79655e-09
3.15378e-09
9.87669e-09
-6.23397e-09
1.27443e-09
-9.79667e-09
1.72567e-09
-7.20042e-09
-2.23117e-09
1.25854e-08
-8.60998e-09
2.68395e-09
-8.06347e-09
-7.81227e-10
-9.52011e-10
-6.269e-10
-9.65233e-09
1.6692e-09
1.03079e-08
-1.18346e-08
8.99814e-10
-7.66809e-09
1.57448e-08
-9.36296e-09
-8.35285e-09
-1.88599e-09
-1.10873e-08
1.15662e-08
1.40705e-09
1.83079e-08
-3.13911e-09
-1.68855e-08
1.71668e-09
5.66115e-09
1.34255e-08
-7.78701e-10
1.47393e-08
-1.27065e-08
-1.38675e-08
1.27324e-08
8.94209e-10
-1.21432e-08
-1.49514e-08
-4.4178e-09
-8.78726e-09
5.63414e-09
7.57092e-09
-6.29972e-09
1.87329e-09
8.62833e-12
8.75655e-09
-7.63496e-09
-7.42131e-09
-8.72943e-10
8.42236e-10
5.98087e-09
-1.29545e-09
1.80047e-09
-6.48586e-09
4.54527e-09
1.30085e-09
1.34736e-10
-6.21895e-09
-3.01453e-09
8.58512e-09
6.48373e-10
1.99617e-10
9.2858e-09
1.19054e-09
-1.17718e-08
2.06479e-09
8.52187e-09
-2.46334e-09
9.5186e-09
-1.00698e-08
-9.97003e-09
-2.6136e-09
9.3117e-09
3.27196e-09
-1.0978e-08
1.35058e-10
-1.59363e-10
-5.67513e-09
-1.27267e-08
7.64976e-09
-1.01081e-08
-2.02718e-09
-5.91492e-10
-2.8044e-09
-1.17219e-08
-4.936e-09
1.78979e-09
2.15737e-09
9.89076e-10
-2.98539e-09
3.58854e-09
3.14838e-09
-1.10961e-09
7.35247e-09
-8.65914e-09
-7.4425e-10
1.63241e-09
-5.06474e-09
4.17661e-09
-6.56112e-09
4.70725e-09
8.5406e-10
3.51303e-09
-2.74097e-09
-4.84023e-09
5.40343e-09
2.17778e-09
4.72122e-09
-4.11227e-09
3.11468e-09
-5.00159e-09
-3.14339e-10
9.95743e-11
-5.1151e-09
-3.94558e-11
9.27484e-09
-5.35925e-09
6.31045e-09
-1.0226e-08
-7.78802e-09
1.14832e-08
5.57972e-09
-5.22078e-09
3.12284e-09
-5.69005e-09
9.14985e-10
9.75642e-10
-4.84056e-09
1.05846e-08
-6.71965e-09
9.81616e-09
-5.71768e-09
5.58299e-09
-9.50855e-09
-8.34395e-09
1.0945e-08
7.21516e-09
2.36879e-09
-1.28124e-10
4.34675e-09
7.24021e-09
-6.00397e-09
-8.39968e-09
-1.37402e-08
1.0871e-08
1.12689e-08
-1.80397e-08
8.28445e-09
1.35553e-09
-7.43411e-09
-5.92805e-09
-3.7803e-10
-1.268e-08
-1.27938e-08
-1.86176e-10
-6.18332e-09
9.34646e-09
-5.1859e-09
8.88532e-09
7.23692e-10
8.49783e-09
-5.24695e-09
5.03355e-09
3.21974e-09
7.98144e-10
6.85317e-09
1.40812e-09
1.03095e-08
7.71273e-09
-2.15761e-09
3.51844e-09
5.04497e-09
2.38156e-09
1.49036e-09
2.60915e-09
-6.54431e-09
4.2051e-09
5.85766e-09
3.83138e-09
1.93054e-09
-5.70838e-09
4.57599e-09
7.54376e-09
7.04932e-09
6.58874e-09
-1.53042e-08
6.37716e-09
2.33829e-09
-1.6085e-08
7.93077e-09
1.4743e-08
6.60539e-09
-1.42501e-08
-3.44062e-09
1.10853e-08
-4.1062e-09
3.00902e-09
7.70256e-09
2.47526e-09
-6.76529e-09
-9.96008e-09
9.55293e-09
-2.87663e-09
-4.20104e-09
9.90935e-09
-8.84383e-09
-1.63697e-08
-5.06231e-09
-1.11336e-09
-1.91011e-09
1.56416e-08
-5.80068e-09
3.83009e-09
1.61664e-09
1.47189e-10
-1.57563e-08
4.38016e-09
-7.10961e-09
-1.08467e-08
-7.73239e-09
1.66689e-08
-8.20096e-10
6.30581e-10
-1.06572e-08
-7.72376e-09
-8.28731e-10
6.06079e-09
-9.49693e-09
7.8163e-09
2.16712e-09
-4.72117e-09
-4.56499e-09
-1.95921e-09
1.12454e-08
1.36054e-08
1.08097e-10
-1.46959e-08
9.82356e-10
-2.90538e-09
7.38925e-09
-8.64528e-09
1.36411e-09
-6.93899e-09
9.76324e-09
-2.96707e-09
-6.76534e-09
7.77317e-09
-2.69466e-09
-1.31575e-08
1.15628e-09
-1.36135e-08
1.36053e-08
-2.68647e-09
-1.48515e-08
6.31911e-09
-1.78889e-09
4.50544e-09
-9.03569e-09
-1.78642e-09
9.54445e-09
-1.43895e-09
5.19219e-09
-1.0726e-08
-3.11144e-09
-5.25103e-09
3.50423e-09
8.20887e-10
4.83508e-09
-1.27418e-08
7.08579e-09
-1.21631e-08
7.73291e-09
7.05998e-09
-4.17404e-09
-1.60435e-08
-5.43166e-10
-6.01035e-09
8.23243e-09
-1.41954e-08
-4.28005e-09
-1.22224e-08
1.02921e-08
1.9016e-09
-3.14785e-09
9.4229e-09
-5.46064e-09
-5.41078e-09
-4.74516e-09
-2.58585e-09
-8.0294e-09
-8.80043e-09
-1.52034e-09
-4.12269e-09
3.54106e-09
9.36408e-09
-6.61691e-09
-6.28825e-09
1.25646e-08
-8.09533e-09
-9.28177e-10
5.8089e-09
1.22838e-09
5.52727e-09
1.85714e-09
1.33158e-08
4.08386e-09
7.98308e-09
-3.82964e-11
-1.20287e-08
8.66699e-10
-4.87818e-09
6.23544e-09
-2.73872e-10
-6.99905e-09
1.03748e-09
5.59595e-09
-6.1144e-09
6.75388e-09
1.0923e-09
-2.34452e-09
9.79761e-09
-6.4844e-09
5.36825e-09
3.2078e-09