/*--------------------------------*- C++ -*----------------------------------*\
| =========                 |                                                 |
| \\      /  F ield         | OpenFOAM: The Open Source CFD Toolbox           |
|  \\    /   O peration     | Version:  v1612+                                |
|   \\  /    A nd           | Web:      www.OpenFOAM.com                      |
|    \\/     M anipulation  |                                                 |
\*---------------------------------------------------------------------------*/
FoamFile
{
    version     2.0;
    format      ascii;
    class       volVectorField;
    location    "100";
    object      wallShearStress;
}
// * * * * * * * * * * * * * * * * * * * * * * * * * * * * * * * * * * * * * //

dimensions      [0 2 -2 0 0 0 0];

internalField   uniform (0 0 0);

boundaryField
{
    WALL
    {
        type            calculated;
        value           nonuniform List<vector> 
1484
(
(0.00189847 -0.00914606 0.00775005)
(0.00135004 -0.010638 0.00884467)
(0.00301513 -0.0211515 0.0136996)
(0.00457558 -0.0221421 0.0147526)
(0.00934956 -0.0250055 0.01605)
(0.00886531 -0.0237942 0.0155045)
(0.00590362 -0.0211549 0.0152121)
(0.00624019 -0.0205944 0.0147399)
(0.00712538 -0.0226094 0.0160656)
(0.00709847 -0.0228526 0.0162697)
(0.00411596 -0.0121773 0.0100299)
(0.00419696 -0.0124005 0.0100205)
(0.00447583 -0.0153561 0.0116123)
(0.00395048 -0.0139371 0.010764)
(0.0012664 -0.0113079 0.00900867)
(0.00155887 -0.00988203 0.00831567)
(0.00118152 -0.00900715 0.00773067)
(0.000629668 -0.0101754 0.00840965)
(0.00340477 -0.00738129 0.00565517)
(0.00313874 -0.00641717 0.00519609)
(0.00198672 -0.0100123 0.0087093)
(0.00167897 -0.0108912 0.00900299)
(0.00203473 -0.00805914 0.00761746)
(0.00190761 -0.00752717 0.00696384)
(0.00158359 -0.00837301 0.00733343)
(0.00372703 -0.0105627 0.00651459)
(0.00379179 -0.0103809 0.00630768)
(0.00379523 -0.0103047 0.00612908)
(0.00260911 -0.0105387 0.00871715)
(0.00291416 -0.0120509 0.00965974)
(0.0026346 -0.0117234 0.00907725)
(0.00549988 -0.0130322 0.0110426)
(0.00499098 -0.0132095 0.0102354)
(0.00117615 -0.0121831 0.0097755)
(0.00178035 -0.0123833 0.00991037)
(-0.000121818 -0.0115503 0.00920888)
(7.115e-05 -0.0151795 0.00958791)
(-0.00036278 -0.0144283 0.00939828)
(0.00245919 -0.00799825 0.00721875)
(0.00300811 -0.00812105 0.00675722)
(0.00325274 -0.00991655 0.00821279)
(0.00279818 -0.0100047 0.00853966)
(0.00227691 -0.011416 0.00940192)
(0.00260601 -0.0106183 0.00898844)
(0.00276515 -0.0136266 0.00933902)
(0.00319499 -0.0138892 0.00882806)
(0.00538748 -0.0169077 0.012601)
(0.00483535 -0.0151389 0.0116853)
(0.00408446 -0.0215393 0.00840923)
(0.00380389 -0.0230551 0.00854868)
(0.00250352 -0.0208488 0.00830529)
(0.002873 -0.0220954 0.00897812)
(0.00361537 -0.0229794 0.0088484)
(0.00320434 -0.0215985 0.00866522)
(0.00311274 -0.0118688 0.00982248)
(0.00316868 -0.011764 0.00954822)
(0.00286961 -0.0119107 0.00941169)
(0.00313435 -0.011739 0.00949921)
(0.00275476 -0.0116328 0.00922078)
(0.00271813 -0.0114578 0.00930125)
(0.00409155 -0.00984713 0.00612573)
(0.00419677 -0.00971328 0.00638017)
(0.00400698 -0.00986576 0.00604087)
(0.00406733 -0.0107039 0.00639329)
(0.00351591 -0.0107844 0.00618097)
(0.00421769 -0.0101337 0.00656115)
(0.00447006 -0.0201079 0.0143604)
(0.00472721 -0.0199482 0.0143088)
(0.00403399 -0.0191722 0.0133498)
(0.00433857 -0.019201 0.0132352)
(0.00483983 -0.0193687 0.013716)
(0.00412123 -0.0183976 0.0123488)
(0.00727624 -0.0197591 0.0141582)
(0.00743526 -0.0205897 0.0152795)
(0.0066151 -0.01946 0.0143859)
(0.00670456 -0.0194315 0.0147411)
(0.00826142 -0.0218251 0.0142292)
(0.00720003 -0.0203854 0.0144439)
(0.00797554 -0.0232619 0.0106938)
(0.00741049 -0.0218111 0.00992995)
(0.00815453 -0.0224461 0.0102883)
(0.00835842 -0.0233768 0.0115966)
(0.00903578 -0.0234501 0.0132281)
(0.00781173 -0.0228993 0.0111138)
(0.00377931 -0.00930051 0.00629699)
(0.00339232 -0.00905936 0.00612941)
(0.00355837 -0.00949297 0.00603556)
(0.00403049 -0.00936854 0.00683032)
(0.00387852 -0.00959916 0.00630521)
(0.00375492 -0.00938301 0.00641705)
(0.00208062 -0.0110894 0.00892662)
(0.00172563 -0.0121427 0.00953508)
(0.00225026 -0.0118335 0.00956145)
(0.0023458 -0.0107061 0.00876831)
(0.00120387 -0.0123339 0.00946782)
(0.00141687 -0.011697 0.0095645)
(0.00246517 -0.00676174 0.00529311)
(0.00287467 -0.00647777 0.00543343)
(0.00282894 -0.00669639 0.00534079)
(0.00267028 -0.0058267 0.00529031)
(0.00217979 -0.00574131 0.00501362)
(0.0025765 -0.00631112 0.00485233)
(0.0014233 -0.00929225 0.00790832)
(0.00167847 -0.0079022 0.00723306)
(0.00121019 -0.00920361 0.00781183)
(0.00135851 -0.00897833 0.00764062)
(0.00154768 -0.00854108 0.00776512)
(0.0016735 -0.00791796 0.0070413)
(0.00352842 -0.0157498 0.00955131)
(0.0035942 -0.015624 0.0088946)
(0.00303962 -0.0155003 0.00920988)
(0.00354327 -0.0149718 0.00888405)
(0.00348632 -0.0148341 0.00855924)
(0.0029967 -0.0111061 0.00634577)
(0.00267468 -0.0112518 0.00641481)
(0.0030822 -0.0109922 0.00613977)
(0.00295439 -0.0109617 0.00619259)
(0.00310747 -0.0107343 0.00612747)
(0.00315878 -0.011568 0.00654339)
(0.00178759 -0.0156137 0.00950661)
(0.0015496 -0.0143013 0.00915306)
(0.00118184 -0.0153763 0.010053)
(0.00141492 -0.0138438 0.00926233)
(0.00132656 -0.0149551 0.00901381)
(0.00131055 -0.0149991 0.00886717)
(0.0054908 -0.0207056 0.0089044)
(0.00605581 -0.0203377 0.00944936)
(0.00530517 -0.0201298 0.00903122)
(0.00548536 -0.0211871 0.00961363)
(0.00594165 -0.0214263 0.00951356)
(0.00497996 -0.0201722 0.00868912)
(0.0022968 -0.00752715 0.00709554)
(0.00260998 -0.00709015 0.00607926)
(0.00287183 -0.00819458 0.00701745)
(0.0028449 -0.00831468 0.00686136)
(0.00288154 -0.00772792 0.00677635)
(0.00386716 -0.00924587 0.0071197)
(0.00391706 -0.0100202 0.00739046)
(0.00263699 -0.00920627 0.00773198)
(0.00284898 -0.00983719 0.00841538)
(0.00232055 -0.00979069 0.00863277)
(0.00241507 -0.0100459 0.00857124)
(0.00259168 -0.0100474 0.00848849)
(0.00276025 -0.00894138 0.00760723)
(0.0034318 -0.00936007 0.00768209)
(0.00317563 -0.00990178 0.00806414)
(0.00344406 -0.0095835 0.0077932)
(0.00354848 -0.010092 0.00793293)
(0.00311431 -0.00949941 0.00778624)
(0.00330367 -0.00887689 0.00717127)
(0.00296104 -0.00774447 0.00658526)
(0.00291364 -0.00800826 0.00671858)
(0.00303689 -0.00877861 0.00742157)
(0.00274862 -0.00833548 0.00754622)
(0.00344625 -0.00820432 0.00657371)
(0.00361136 -0.00786769 0.00639952)
(0.0034262 -0.00850025 0.00634993)
(0.00391576 -0.00861663 0.00711818)
(0.00346613 -0.00899403 0.00658401)
(0.00308932 -0.00800386 0.00680355)
(0.0031811 -0.00800048 0.00641645)
(0.00369513 -0.0083984 0.00654646)
(0.00294932 -0.00706653 0.00599218)
(0.00289033 -0.00704486 0.00624176)
(0.00288486 -0.00694529 0.00593111)
(0.00281873 -0.00707223 0.00611398)
(0.00310548 -0.00741804 0.00615434)
(0.00285861 -0.00728805 0.00620768)
(0.00395174 -0.00859232 0.00629135)
(0.00346503 -0.00885299 0.00589139)
(0.00362084 -0.00828168 0.0067167)
(0.00359509 -0.0085623 0.00574144)
(0.00376596 -0.00888038 0.00586375)
(0.00328378 -0.00799038 0.0057337)
(0.00414683 -0.00901423 0.00619506)
(0.00402434 -0.00902066 0.00611558)
(0.00389134 -0.00848278 0.00601031)
(0.00382503 -0.00850453 0.00610386)
(0.00392031 -0.008593 0.0059382)
(0.00406502 -0.00914609 0.00621025)
(0.00147818 -0.0223981 0.00882983)
(0.00204245 -0.0228126 0.00861666)
(0.00101532 -0.0227142 0.00941653)
(0.00135043 -0.0220192 0.00853342)
(0.00112908 -0.0217839 0.00897028)
(0.00228224 -0.0235606 0.00900397)
(0.000929285 -0.010499 0.00866354)
(0.000508043 -0.00962021 0.00819888)
(-0.000127015 -0.0120599 0.00880411)
(-3.56877e-05 -0.0106184 0.00881949)
(0.000996583 -0.00938634 0.00790693)
(0.000337714 -0.0115777 0.00908802)
(0.000338326 -0.0133605 0.00910783)
(-5.35706e-06 -0.0136694 0.00936619)
(-8.01803e-05 -0.013901 0.00888155)
(0.000363166 -0.0151127 0.00921948)
(0.000235896 -0.0130585 0.00911906)
(0.00143943 -0.0176986 0.00978671)
(0.00206561 -0.0182424 0.00905826)
(0.00157692 -0.0180512 0.00964351)
(0.00198597 -0.0173792 0.00863101)
(0.0016403 -0.0171981 0.00868822)
(0.000981083 -0.0170203 0.00937305)
(0.000146318 -0.013703 0.00925521)
(0.000445409 -0.0144871 0.0099463)
(0.000199467 -0.0138535 0.0095499)
(0.000746771 -0.0153706 0.00959496)
(0.000294823 -0.0153289 0.00951431)
(0.000503131 -0.0147426 0.00930268)
(0.000400525 -0.0186421 0.00938663)
(0.000923647 -0.0165183 0.00911435)
(0.000115718 -0.0160788 0.00905473)
(0.000284162 -0.0153951 0.00889967)
(0.000975179 -0.0174691 0.00880818)
(0.000192211 -0.0168793 0.00892389)
(0.00370263 -0.0118652 0.00582423)
(0.00342613 -0.0123436 0.0059138)
(0.00394554 -0.0113153 0.0059853)
(0.00337185 -0.0135241 0.00677566)
(0.00355282 -0.0140163 0.00677348)
(0.00374521 -0.0123128 0.00626868)
(0.00394663 -0.0104883 0.00546615)
(0.00381367 -0.0095718 0.00526655)
(0.00329795 -0.0113082 0.00534869)
(0.00385507 -0.00966478 0.00530221)
(0.0037266 -0.00871079 0.00509659)
(0.00400907 -0.00895932 0.00542122)
(0.00396426 -0.00821525 0.00526841)
(0.00382863 -0.0080486 0.00521366)
(0.0037913 -0.00940539 0.00533656)
(0.0052195 -0.0149724 0.00835941)
(0.0055314 -0.0144193 0.009114)
(0.00521926 -0.0153795 0.0090715)
(0.00561275 -0.0154287 0.00917359)
(0.00533406 -0.014116 0.0091254)
(0.00572659 -0.014587 0.00891217)
(0.00250513 -0.0163926 0.00879058)
(0.00329693 -0.0170919 0.00882495)
(0.00278546 -0.0166917 0.00868861)
(0.00220773 -0.0162338 0.00877523)
(0.00294266 -0.0165449 0.0082468)
(0.00242195 -0.0167032 0.00914884)
(0.00447198 -0.016172 0.00873411)
(0.0048482 -0.0165953 0.00917438)
(0.00499059 -0.0157518 0.00863189)
(0.00420221 -0.0162714 0.00860792)
(0.00458258 -0.0154241 0.00827423)
(0.00501289 -0.0159003 0.00876722)
(0.00388664 -0.0168279 0.00888351)
(0.00340153 -0.0173976 0.00916483)
(0.00263055 -0.016885 0.00884333)
(0.00299694 -0.0170021 0.00888838)
(0.0036095 -0.0165475 0.00856741)
(0.00316027 -0.016334 0.00822529)
(0.00314469 -0.0159018 0.0081845)
(0.00271982 -0.0169359 0.00900599)
(0.00453739 -0.0213585 0.00869244)
(0.00388143 -0.0222468 0.00914758)
(0.00540004 -0.021917 0.00954199)
(0.00466097 -0.0216951 0.00935368)
(0.0054055 -0.022374 0.00964734)
(0.00422418 -0.0211458 0.00901087)
(0.00686799 -0.0223723 0.0104204)
(0.00763977 -0.0219726 0.010383)
(0.00643692 -0.021096 0.00952195)
(0.00698165 -0.0213669 0.0098728)
(0.00747277 -0.0222075 0.010613)
(0.00674427 -0.0207917 0.0096479)
(0.00610472 -0.0145752 0.00958996)
(0.0056957 -0.0140441 0.00939373)
(0.00623256 -0.0148363 0.00968948)
(0.00638685 -0.0150074 0.0104382)
(0.00583027 -0.0142397 0.00974877)
(0.00586846 -0.0138619 0.00998835)
(0.00167123 -0.0125606 0.009446)
(0.00101957 -0.0137321 0.00988274)
(0.00112728 -0.0125711 0.00915673)
(0.00146821 -0.0120744 0.00943482)
(0.00155197 -0.0124802 0.00954911)
(0.00148459 -0.0135101 0.00971691)
(0.00133014 -0.0146815 0.00958977)
(0.00183422 -0.0149016 0.00979109)
(0.00145573 -0.0140538 0.00875521)
(0.00156133 -0.0149319 0.00930121)
(0.00143775 -0.0152807 0.00928047)
(0.00116032 -0.0141751 0.00946258)
(0.00187906 -0.0161407 0.0091907)
(0.00189735 -0.0164579 0.00901526)
(0.00216965 -0.0160213 0.00873039)
(0.00196109 -0.0167757 0.00953308)
(0.00230565 -0.0171143 0.00883797)
(0.00276987 -0.0171394 0.00920465)
(0.00144106 -0.0129982 0.00982167)
(0.00163757 -0.0136157 0.00941554)
(0.0016168 -0.0122479 0.00961775)
(0.00167307 -0.0126613 0.00959973)
(0.00134585 -0.0131743 0.00938067)
(0.00154222 -0.0127865 0.00909138)
(0.00323398 -0.00671298 0.0048214)
(0.00296739 -0.00614313 0.00485194)
(0.00342382 -0.00675064 0.004931)
(0.00326776 -0.0070178 0.00463977)
(0.00318012 -0.00662948 0.00485901)
(0.00300058 -0.00601448 0.00491981)
(0.00399414 -0.0244685 0.00913312)
(0.00555865 -0.0240352 0.00884059)
(0.00482088 -0.0242811 0.00899901)
(0.0047029 -0.0230639 0.00843646)
(0.00446297 -0.0236432 0.00915397)
(0.00516534 -0.0236433 0.0083532)
(0.00768351 -0.0243931 0.0102757)
(0.00824373 -0.023831 0.0103555)
(0.00681475 -0.025326 0.0095386)
(0.00789385 -0.0239253 0.00951274)
(0.00845964 -0.0252121 0.0106383)
(0.00713294 -0.0236991 0.00944527)
(0.00856537 -0.0254324 0.00982664)
(0.00954825 -0.0271953 0.0118579)
(0.00989091 -0.0275589 0.0117134)
(0.00946089 -0.0260799 0.0105607)
(0.00997482 -0.0258471 0.0129205)
(0.00929288 -0.0255695 0.0116518)
(0.00310661 -0.0120062 0.00712576)
(0.00281509 -0.0119832 0.00743359)
(0.003239 -0.0117907 0.00699993)
(0.00318281 -0.0119912 0.0072372)
(0.0029981 -0.0120983 0.00734573)
(0.00293651 -0.0124564 0.00764771)
(0.00312592 -0.0122994 0.00967575)
(0.00366489 -0.0130264 0.0101766)
(0.00301377 -0.0126337 0.0100608)
(0.00340809 -0.0133733 0.0102692)
(0.00370882 -0.0129247 0.0102235)
(0.00343457 -0.0122569 0.0097508)
(0.00392143 -0.0119569 0.00951245)
(0.00326379 -0.0114407 0.00995713)
(0.00383007 -0.0123473 0.00998936)
(0.00401202 -0.0118139 0.00978855)
(0.00411901 -0.0117246 0.00938044)
(0.00332341 -0.0115037 0.00994068)
(0.0048884 -0.0129393 0.0102979)
(0.00552256 -0.0138112 0.010201)
(0.00500427 -0.012347 0.010194)
(0.00499634 -0.0125293 0.00977707)
(0.00552948 -0.0134632 0.00982522)
(0.00468852 -0.0126333 0.0104776)
(0.00232805 -0.011912 0.00818267)
(0.0027533 -0.0123906 0.00793465)
(0.00260351 -0.0122413 0.00843563)
(0.00242349 -0.012203 0.00794581)
(0.00261937 -0.0121563 0.00778312)
(0.00265595 -0.0126153 0.00837374)
(0.00288516 -0.0132936 0.00932445)
(0.00315907 -0.0128363 0.00930317)
(0.00273139 -0.0125847 0.00872896)
(0.00309468 -0.0130039 0.00910195)
(0.00279112 -0.013068 0.00975926)
(0.00301199 -0.0135337 0.0100257)
(0.00361232 -0.0102301 0.00617948)
(0.00313112 -0.0102888 0.00593884)
(0.00371224 -0.0106229 0.006267)
(0.00359286 -0.00989285 0.00600573)
(0.00354881 -0.0104665 0.00628739)
(0.00368206 -0.00979862 0.00597801)
(0.00389012 -0.0101341 0.0063561)
(0.00323499 -0.0105485 0.00616253)
(0.00387779 -0.0105662 0.00646126)
(0.00381908 -0.0102156 0.00609998)
(0.00383705 -0.0100989 0.00612534)
(0.00317741 -0.0166765 0.00964258)
(0.00380372 -0.0161214 0.00895347)
(0.00367661 -0.0163365 0.00959984)
(0.00359381 -0.0153429 0.0086523)
(0.00310668 -0.017226 0.01006)
(0.00342773 -0.0149002 0.00834757)
(0.00386119 -0.0178811 0.0118314)
(0.00311069 -0.0162347 0.0104531)
(0.00378227 -0.0180292 0.0117328)
(0.00361396 -0.0169289 0.011224)
(0.00328279 -0.016832 0.0106653)
(0.00369093 -0.0182332 0.0112998)
(0.00312475 -0.0135886 0.00886555)
(0.00246741 -0.0128397 0.00853008)
(0.0031341 -0.0128119 0.00801098)
(0.00289834 -0.0133885 0.00818938)
(0.00305458 -0.0126959 0.00806579)
(0.00285753 -0.0125499 0.00805416)
(0.00338533 -0.0148367 0.00990993)
(0.0034388 -0.0145779 0.0101608)
(0.00363077 -0.0144257 0.0101459)
(0.00307267 -0.0136131 0.00967966)
(0.00270142 -0.0137797 0.00957355)
(0.00364577 -0.0125762 0.00710755)
(0.0037911 -0.0126132 0.00734181)
(0.00333177 -0.0116403 0.00691311)
(0.0034933 -0.0129464 0.00767746)
(0.00362297 -0.0118922 0.00714299)
(0.00286581 -0.0120439 0.00719172)
(0.00418214 -0.0110369 0.00635014)
(0.00399642 -0.0111138 0.00637766)
(0.0040204 -0.0118927 0.00670141)
(0.0036777 -0.0115391 0.00661401)
(0.0040273 -0.0104969 0.00614935)
(0.00387525 -0.0122126 0.00683895)
(0.00396231 -0.0119167 0.0070206)
(0.00421273 -0.0116845 0.00666812)
(0.00399004 -0.0117636 0.00680472)
(0.00361608 -0.0120134 0.00674506)
(0.00335887 -0.0116636 0.00666315)
(0.00379204 -0.0114062 0.00651849)
(0.00415029 -0.011287 0.00610735)
(0.0040353 -0.0111409 0.00614951)
(0.00442418 -0.0121374 0.00668516)
(0.00414132 -0.0107428 0.00620456)
(0.00404718 -0.0111298 0.00622605)
(0.00392195 -0.0117347 0.00637311)
(0.00342735 -0.0145411 0.00798542)
(0.00344063 -0.01311 0.00725553)
(0.00412226 -0.0133929 0.00737602)
(0.0039776 -0.0126076 0.00687124)
(0.00382319 -0.0133164 0.00763131)
(0.00366554 -0.0122194 0.0065583)
(0.00359293 -0.0137356 0.00702155)
(0.00400757 -0.0125763 0.00684001)
(0.00395586 -0.0128995 0.00698241)
(0.00385283 -0.0153964 0.00799621)
(0.00384055 -0.0133142 0.00678769)
(0.00374701 -0.014302 0.00769788)
(0.00157475 -0.00809699 0.00734239)
(0.00160842 -0.0078533 0.00693202)
(0.00130358 -0.00875593 0.00769373)
(0.00110079 -0.00942989 0.00829069)
(0.0015856 -0.00751545 0.00683254)
(0.0012137 -0.00849683 0.00751673)
(0.00239495 -0.00699119 0.00587939)
(0.00230177 -0.00624485 0.00546852)
(0.00224121 -0.00632856 0.00537513)
(0.00188541 -0.00676847 0.00615544)
(0.00188609 -0.00698109 0.00634735)
(0.00195772 -0.00647962 0.00580417)
(0.00283306 -0.00614927 0.004936)
(0.00317527 -0.00642505 0.00509078)
(0.00317958 -0.00653148 0.00521521)
(0.00282665 -0.00601482 0.00497801)
(0.00281501 -0.00608301 0.00515569)
(0.00295079 -0.00629733 0.00508666)
(0.00393948 -0.00910232 0.00627582)
(0.00412715 -0.00926727 0.00640863)
(0.00392386 -0.00959402 0.0062727)
(0.00352342 -0.00937649 0.00587962)
(0.00416195 -0.00961255 0.00649824)
(0.00393974 -0.00937123 0.00631022)
(0.00267913 -0.0108935 0.00885987)
(0.00292298 -0.0105403 0.00856807)
(0.00225013 -0.0108325 0.0090483)
(0.00201034 -0.0112062 0.00911822)
(0.00201151 -0.0115234 0.00923259)
(0.00225463 -0.0107242 0.00886813)
(0.0024575 -0.0112128 0.00903288)
(0.00218849 -0.010933 0.0089853)
(0.00185897 -0.0117919 0.00928498)
(0.00411836 -0.00914248 0.00617925)
(0.00402138 -0.00940196 0.00602679)
(0.00385481 -0.00893974 0.00597021)
(0.00411248 -0.00875106 0.00610009)
(0.00386316 -0.00955752 0.005981)
(0.0042045 -0.00958858 0.00621636)
(0.00368412 -0.00794523 0.00555068)
(0.00339176 -0.00733774 0.00614864)
(0.00330974 -0.00704986 0.00596277)
(0.00360136 -0.00788443 0.00616439)
(0.00315703 -0.00699876 0.00544611)
(0.00317254 -0.00695989 0.00539474)
(0.00192663 -0.00765543 0.00693607)
(0.00222699 -0.00710581 0.00674849)
(0.00196618 -0.00737014 0.00674734)
(0.00197775 -0.00729645 0.00687272)
(0.00225882 -0.00709068 0.00634667)
(0.00217371 -0.00673687 0.00627455)
(0.00211992 -0.00813936 0.00762886)
(0.00224947 -0.00751703 0.00695856)
(0.0021849 -0.00808504 0.00742448)
(0.00239053 -0.00758549 0.00696955)
(0.00216819 -0.0074246 0.00713322)
(0.00225989 -0.00847289 0.00747341)
(0.00263561 -0.00690684 0.00593429)
(0.00253862 -0.00637925 0.00575361)
(0.00237056 -0.00593593 0.00504882)
(0.00220887 -0.00636296 0.00607936)
(0.0023519 -0.00650577 0.00596231)
(0.00312588 -0.00641215 0.00517051)
(0.00293989 -0.00657177 0.00519601)
(0.0034433 -0.00701179 0.00535326)
(0.00301953 -0.0063844 0.00533742)
(0.00293218 -0.00638696 0.00497365)
(0.00281898 -0.0064261 0.00536875)
(0.00282665 -0.00633622 0.00503251)
(0.00302647 -0.00627515 0.00533942)
(0.00312901 -0.00673423 0.00582584)
(0.00316492 -0.00658141 0.00548818)
(0.000754274 -0.0127511 0.00940381)
(0.000633212 -0.0113981 0.00861368)
(0.00124166 -0.0107168 0.00853365)
(0.000780082 -0.0124036 0.00931053)
(0.00103869 -0.0114787 0.00903043)
(0.000854586 -0.0111292 0.00899429)
(0.000356312 -0.012457 0.00958847)
(0.000743407 -0.010717 0.00883449)
(0.0010508 -0.0122881 0.00913235)
(0.000447948 -0.0114919 0.00887551)
(0.00104064 -0.0107122 0.00873243)
(0.00112375 -0.0102739 0.00853431)
(0.00162029 -0.00976656 0.00832588)
(0.00192311 -0.00958954 0.0082307)
(0.00168996 -0.0093557 0.00797672)
(0.00180799 -0.0104443 0.00859557)
(0.00196856 -0.00915803 0.0080024)
(0.00189397 -0.00924289 0.00826995)
(0.0013098 -0.00984685 0.00856642)
(0.00139333 -0.0107058 0.00889351)
(0.00586337 -0.0185482 0.0135836)
(0.00536773 -0.0181327 0.0135376)
(0.00582599 -0.0188839 0.0144627)
(0.00532573 -0.0176414 0.0130049)
(0.00601388 -0.0184074 0.0139133)
(0.00575649 -0.0179187 0.0133427)
(0.00419561 -0.0163661 0.0117629)
(0.00387344 -0.0166697 0.0121045)
(0.0045216 -0.0172782 0.0125556)
(0.0048051 -0.017216 0.0126731)
(0.00401734 -0.0160702 0.0114053)
(0.00448467 -0.0164064 0.0121239)
(0.00366441 -0.0150744 0.011176)
(0.00384022 -0.014924 0.0107222)
(0.00398082 -0.0155315 0.0112134)
(0.00475607 -0.0153814 0.0113352)
(0.00456733 -0.016066 0.0117676)
(0.00406614 -0.0146765 0.0110469)
(0.00743246 -0.0173297 0.0120737)
(0.00754201 -0.0175608 0.0118435)
(0.00686041 -0.0161804 0.0102277)
(0.00637463 -0.0147013 0.0106562)
(0.00693014 -0.0159321 0.0118664)
(0.00632706 -0.0157842 0.0105744)
(0.00745942 -0.0193858 0.0126423)
(0.0064957 -0.0189425 0.0141615)
(0.00704175 -0.0192541 0.0139446)
(0.00680198 -0.0180465 0.0133754)
(0.00653859 -0.0186149 0.0134642)
(0.00575147 -0.0150324 0.0115886)
(0.00561297 -0.0139643 0.0107559)
(0.00555979 -0.014519 0.0111743)
(0.0054971 -0.0146654 0.0110867)
(0.00607317 -0.0150727 0.0115989)
(0.00615848 -0.0156007 0.0116629)
(0.00519398 -0.0153444 0.01185)
(0.00519157 -0.0149008 0.0116914)
(0.00469325 -0.0148728 0.0114733)
(0.00486017 -0.0143559 0.0109878)
(0.0106744 -0.0260479 0.013302)
(0.0103339 -0.0268265 0.0142398)
(0.00947184 -0.0232979 0.0129614)
(0.00965466 -0.0233459 0.0129216)
(0.0100088 -0.0254513 0.0141631)
(0.00965278 -0.0252608 0.0156384)
(0.0100952 -0.0259019 0.0152249)
(0.00849329 -0.0232402 0.0153277)
(0.00819063 -0.024094 0.016488)
(0.00875153 -0.023383 0.0152932)
(0.00881442 -0.0242551 0.0153451)
(0.00783505 -0.0235843 0.0166029)
(0.00855306 -0.0208116 0.014034)
(0.00882204 -0.0228715 0.015281)
(0.00848133 -0.0215361 0.0132896)
(0.00816273 -0.0202696 0.0149447)
(0.00775208 -0.0180688 0.0121842)
(0.00794181 -0.0190146 0.0136831)
(0.00854746 -0.0208292 0.0116246)
(0.00899397 -0.0225254 0.0139885)
(0.00892331 -0.0212532 0.0114147)
(0.00858567 -0.0214548 0.0121793)
(0.00957839 -0.0239613 0.0129719)
(0.00592377 -0.0226607 0.0158091)
(0.00689377 -0.0236348 0.0167869)
(0.00686518 -0.0230116 0.0161914)
(0.00605394 -0.022814 0.0162293)
(0.00623171 -0.023636 0.0167716)
(0.00707887 -0.0237263 0.0168743)
(0.00246936 -0.0207632 0.0118698)
(0.00303369 -0.0232971 0.014554)
(0.00268901 -0.0218654 0.0137724)
(0.00274699 -0.0204661 0.0121242)
(0.00633547 -0.0245276 0.0172113)
(0.00713098 -0.0250698 0.0172522)
(0.00571154 -0.0243803 0.0171872)
(0.00606929 -0.0253873 0.0178243)
(0.00710111 -0.024177 0.0168594)
(0.00769919 -0.0253419 0.017472)
(0.00675175 -0.0195611 0.013994)
(0.00644407 -0.0193597 0.0133576)
(0.00694696 -0.0218459 0.0160586)
(0.00508342 -0.0191042 0.0142039)
(0.00544446 -0.0202077 0.0150211)
(0.00500955 -0.0208271 0.0141113)
(0.00497542 -0.022155 0.0154464)
(0.00417596 -0.0204791 0.0133467)
(0.00490957 -0.0210912 0.0149185)
(0.00469242 -0.0209713 0.0139757)
(0.00395674 -0.0205497 0.0141868)
(0.00666726 -0.0163324 0.0109559)
(0.00586082 -0.015516 0.00882268)
(0.0064254 -0.0171983 0.00999219)
(0.00602519 -0.0161907 0.00802348)
(0.00719674 -0.0181782 0.00984598)
(0.00547147 -0.0237497 0.00922813)
(0.00545439 -0.0226304 0.00886138)
(0.00680956 -0.0236654 0.00984703)
(0.00686459 -0.02256 0.00969275)
(0.00595135 -0.022657 0.00938118)
(0.00642682 -0.0236871 0.00929957)
(0.00892128 -0.0225585 0.0139226)
(0.00933923 -0.0243872 0.0157192)
(0.00933757 -0.023695 0.0145417)
(0.00939444 -0.0245421 0.0149642)
(0.00910099 -0.0233971 0.0153516)
(0.00811937 -0.0210749 0.0137331)
(0.00887619 -0.021464 0.0137776)
(0.00402387 -0.0230721 0.0154477)
(0.00452802 -0.0234356 0.0161827)
(0.0055634 -0.0217434 0.0150132)
(0.00574928 -0.0212816 0.015133)
(0.0047376 -0.0185516 0.0132068)
(0.00561744 -0.0197315 0.0145228)
(0.00492364 -0.0186063 0.0134186)
(0.00487625 -0.0194875 0.0140472)
(0.00401002 -0.0202839 0.0128365)
(0.00318975 -0.0202091 0.0129023)
(0.00390699 -0.0226588 0.015289)
(0.00429635 -0.0221519 0.0146517)
(0.00352166 -0.0219387 0.0146662)
(0.00381059 -0.0216943 0.0136299)
(0.00526955 -0.0246647 0.0168652)
(0.00270243 -0.0213836 0.0137276)
(0.00330275 -0.0206181 0.0128107)
(0.00361541 -0.0236182 0.0155641)
(0.00574876 -0.0217719 0.0157975)
(0.00553159 -0.0218269 0.0156344)
(0.00550162 -0.0233327 0.0159978)
(0.00485021 -0.0225142 0.0153026)
(0.00499248 -0.0232041 0.0161796)
(0.00596539 -0.0235535 0.0164921)
(0.00837605 -0.0256088 0.0176745)
(0.00716063 -0.0243515 0.0173046)
(0.00888467 -0.0249131 0.0164595)
(0.0061277 -0.0209882 0.0155729)
(0.00569684 -0.0204074 0.0144527)
(0.00751938 -0.0202125 0.0149528)
(0.00651643 -0.0190918 0.014428)
(0.00668364 -0.0222404 0.0163753)
(0.00766082 -0.0202456 0.0149428)
(0.00852 -0.0219684 0.0152977)
(0.00832764 -0.0220038 0.014897)
(0.00815848 -0.0228873 0.0148846)
(0.00940861 -0.0240969 0.0141906)
(0.00742711 -0.020121 0.0144737)
(0.00828065 -0.0219884 0.0132149)
(0.00909622 -0.0216771 0.0129555)
(0.00799811 -0.019635 0.0103954)
(0.00822317 -0.0195811 0.0119387)
(0.00772921 -0.0199248 0.0109196)
(0.00904483 -0.0237023 0.0130488)
(0.0088936 -0.0252278 0.0122203)
(0.00922244 -0.0245988 0.0143428)
(0.00923956 -0.0243471 0.0157314)
(0.00776456 -0.022183 0.0152758)
(0.00905111 -0.0238501 0.0150904)
(0.00864972 -0.0231712 0.0151529)
(0.00795864 -0.0233984 0.0164576)
(0.00651885 -0.0220736 0.0156713)
(0.00744053 -0.0229 0.0165011)
(0.00818979 -0.0243815 0.0165595)
(0.00873339 -0.0245453 0.0164339)
(0.00775398 -0.0239801 0.016673)
(0.0100695 -0.0260476 0.015719)
(0.00933863 -0.0241959 0.0155204)
(0.00848189 -0.0217004 0.013413)
(0.0094599 -0.0246646 0.0149877)
(0.00904828 -0.0220191 0.0124799)
(0.00877444 -0.0228809 0.0118538)
(0.00427614 -0.0132127 0.0104256)
(0.00473727 -0.013281 0.0102027)
(0.00481361 -0.0133218 0.0104146)
(0.00519443 -0.0140264 0.0113542)
(0.00494308 -0.012677 0.00951749)
(0.00484312 -0.0131449 0.00957836)
(0.00405529 -0.0126006 0.0108071)
(0.00393876 -0.0120845 0.00947256)
(0.00405227 -0.0124113 0.00993467)
(0.00403152 -0.0128661 0.0101995)
(0.00514552 -0.0128968 0.0101887)
(0.00720096 -0.017398 0.0119794)
(0.00496895 -0.0139621 0.0116909)
(0.00489559 -0.0134753 0.0108742)
(0.00495793 -0.0141571 0.0111546)
(0.00458497 -0.013404 0.0108061)
(0.00513296 -0.0147828 0.0114454)
(0.00491744 -0.0160452 0.0119829)
(0.00587342 -0.0170405 0.0121288)
(0.00616579 -0.0178482 0.0134873)
(0.00636702 -0.0191559 0.0142135)
(0.00779241 -0.0192284 0.0121666)
(0.0069956 -0.0179365 0.0124342)
(0.00743516 -0.018651 0.0130964)
(0.00667373 -0.016052 0.0111904)
(0.00741778 -0.0182879 0.0126158)
(0.00757883 -0.018864 0.0125412)
(0.00702506 -0.016282 0.0109148)
(0.00733706 -0.0182647 0.010897)
(0.0060632 -0.0148396 0.0106998)
(0.00578805 -0.0155162 0.0111921)
(0.00556172 -0.0142463 0.011202)
(0.00621919 -0.0159243 0.0109764)
(0.00641758 -0.0152382 0.010888)
(0.00593848 -0.0140492 0.0106615)
(0.00636673 -0.0154262 0.0107912)
(0.00442335 -0.0164625 0.0123399)
(0.00449067 -0.018283 0.0127142)
(0.00458093 -0.0175934 0.0126812)
(0.00684878 -0.0204535 0.014697)
(0.00659319 -0.0192682 0.0141627)
(0.00470172 -0.0179958 0.0131938)
(0.00543725 -0.0177955 0.0131205)
(0.00117678 -0.0116828 0.00901183)
(0.00128729 -0.0111019 0.00875971)
(0.00148034 -0.00980075 0.00814301)
(0.00151625 -0.00966439 0.00812739)
(0.000764466 -0.0128977 0.00940094)
(0.00095126 -0.0125357 0.00917935)
(0.000777578 -0.0101531 0.0085572)
(0.00104497 -0.0108118 0.00872973)
(0.000963871 -0.00995612 0.0083084)
(0.00128385 -0.0205346 0.00884831)
(0.0028017 -0.00632592 0.00494169)
(0.00266473 -0.00621824 0.00496628)
(0.00262126 -0.00624592 0.00483505)
(0.00266857 -0.00645202 0.00537552)
(0.00250361 -0.00616408 0.00512907)
(0.00275559 -0.00628629 0.00528499)
(0.00283359 -0.00635184 0.00545063)
(0.00269446 -0.00636114 0.00568646)
(0.00276172 -0.0060899 0.00550456)
(0.00273429 -0.0069207 0.00549756)
(0.00245375 -0.00676783 0.00603497)
(0.00259214 -0.00719813 0.00633104)
(0.00228031 -0.00689654 0.0065643)
(0.00174832 -0.00876325 0.00763434)
(0.0017549 -0.0083459 0.00748342)
(0.0017709 -0.00836534 0.0074616)
(0.00190405 -0.00796896 0.00740173)
(0.0025329 -0.0068433 0.00605741)
(0.00271634 -0.00637861 0.00546899)
(0.00269184 -0.00644414 0.00534382)
(0.00247136 -0.00625239 0.00568997)
(0.00244745 -0.00672105 0.0058625)
(0.00220721 -0.00668414 0.00607712)
(0.00239104 -0.00629395 0.00547934)
(0.00221846 -0.00562221 0.00519659)
(0.00342088 -0.00753787 0.005658)
(0.00325775 -0.00702256 0.00568465)
(0.0038142 -0.00823264 0.00585856)
(0.00410503 -0.00856878 0.00626459)
(0.00367783 -0.00733995 0.00560853)
(0.0038292 -0.00841865 0.00567626)
(0.00355152 -0.00767895 0.00548251)
(0.00349044 -0.00727497 0.00566833)
(0.00375985 -0.0081297 0.00567251)
(0.00397754 -0.00798014 0.0058449)
(0.00381666 -0.00792898 0.00578277)
(0.00359432 -0.00775697 0.00544631)
(0.00446487 -0.00923013 0.00640191)
(0.00426619 -0.00921139 0.00651492)
(0.00160312 -0.0112949 0.00941319)
(0.00121049 -0.0112798 0.00894022)
(0.00154097 -0.0107779 0.00917128)
(0.00117388 -0.0107487 0.00887158)
(0.00200607 -0.00916614 0.00820513)
(0.00241484 -0.0087176 0.00749525)
(0.00151243 -0.00987893 0.00868405)
(0.00383755 -0.00905508 0.00716396)
(0.00349834 -0.00839432 0.00676399)
(0.00170112 -0.0111956 0.0095385)
(0.00208293 -0.00611302 0.00563017)
(0.00182356 -0.00642026 0.00628422)
(0.00188788 -0.00719296 0.00657331)
(0.00219855 -0.00668122 0.00604428)
(0.00207222 -0.00689025 0.00621487)
(0.00197377 -0.00693715 0.00624681)
(0.00172531 -0.00694949 0.00641965)
(0.000803119 -0.00987136 0.00834065)
(0.00393142 -0.00853233 0.0058348)
(0.0042852 -0.00879975 0.00616445)
(0.00433261 -0.00895068 0.00591242)
(0.00362489 -0.0143307 0.00775626)
(0.00378786 -0.00958001 0.00581614)
(0.00394884 -0.00923658 0.00536442)
(0.00433721 -0.00898358 0.00569684)
(0.00449558 -0.0100094 0.00623713)
(0.00400346 -0.0119928 0.00663334)
(0.00384789 -0.00987943 0.00558342)
(0.0039307 -0.0107111 0.00592632)
(0.00387854 -0.00981617 0.00547851)
(0.00402303 -0.0112681 0.00614891)
(0.0040185 -0.0125345 0.00667844)
(0.00355717 -0.0129378 0.00720013)
(0.0039047 -0.0108623 0.00623065)
(0.00371961 -0.0124876 0.00697243)
(0.00385834 -0.00975233 0.00574989)
(0.00405291 -0.0104311 0.0061119)
(0.00403939 -0.00946876 0.00586847)
(0.00440113 -0.0102334 0.00625553)
(0.00367913 -0.0127424 0.00723139)
(0.00367222 -0.0132149 0.00735654)
(0.00372873 -0.0133685 0.0076976)
(0.00367292 -0.0127832 0.00758206)
(0.00355594 -0.0136554 0.00771755)
(0.00344811 -0.013941 0.00815324)
(0.00333881 -0.0133585 0.00775599)
(0.00408172 -0.0106995 0.00622732)
(0.00407833 -0.00998901 0.00612743)
(0.00446256 -0.00922748 0.0062481)
(0.00446304 -0.009885 0.00631689)
(0.00423248 -0.0104884 0.0062722)
(0.00422196 -0.0113121 0.00660022)
(0.00421589 -0.0106353 0.00628486)
(0.00449804 -0.00941869 0.00642252)
(0.00403796 -0.00976903 0.00601171)