/*--------------------------------*- C++ -*----------------------------------*\
| =========                 |                                                 |
| \\      /  F ield         | OpenFOAM: The Open Source CFD Toolbox           |
|  \\    /   O peration     | Version:  v1612+                                |
|   \\  /    A nd           | Web:      www.OpenFOAM.com                      |
|    \\/     M anipulation  |                                                 |
\*---------------------------------------------------------------------------*/
FoamFile
{
    version     2.0;
    format      ascii;
    class       surfaceScalarField;
    location    "100";
    object      phi;
}
// * * * * * * * * * * * * * * * * * * * * * * * * * * * * * * * * * * * * * //

dimensions      [0 3 -1 0 0 0 0];

internalField   nonuniform List<scalar> 
45669
(
-5.82253e-09
-1.8021e-09
1.99064e-09
5.634e-09
8.14767e-10
-3.48238e-09
-1.11126e-09
3.77886e-09
2.86239e-09
5.53956e-09
-2.14762e-09
-6.25431e-09
-6.84559e-10
7.001e-09
-5.14959e-09
-1.16682e-09
-7.14261e-09
1.96487e-09
-1.83563e-09
7.01341e-09
-3.60694e-09
-1.31146e-10
1.08968e-08
-7.15872e-09
-4.92365e-09
1.32424e-09
3.58362e-09
1.58117e-11
2.02436e-09
5.38617e-10
-4.83006e-09
2.26719e-09
2.81808e-09
-2.72184e-09
-4.37895e-10
3.41671e-10
-1.82387e-09
3.59747e-09
-5.87468e-09
4.10107e-09
1.85062e-09
-2.06458e-09
-5.37725e-09
5.59123e-09
8.81961e-09
-7.20485e-09
2.35843e-10
-1.16827e-09
1.72756e-09
-6.28541e-09
5.72611e-09
-8.04633e-09
4.74842e-09
3.57964e-09
-2.81686e-10
7.0337e-09
-2.02281e-09
4.80515e-09
-9.81603e-09
-4.19189e-09
-2.77633e-10
1.5376e-10
4.31576e-09
2.10293e-09
-3.42151e-09
1.24775e-09
7.08703e-11
-1.29168e-08
8.27438e-09
8.29316e-09
-3.65065e-09
8.2462e-09
3.34273e-09
-8.25828e-09
-3.33071e-09
-4.49301e-09
4.16865e-09
7.08563e-10
-3.84238e-10
-1.3704e-09
7.78365e-09
-8.58767e-09
2.1744e-09
-5.71857e-09
2.74912e-09
1.78391e-09
1.18561e-09
-3.75413e-09
-3.3959e-09
7.76514e-09
-6.15109e-10
-1.93712e-09
-8.42921e-10
3.82519e-09
-1.04513e-09
9.76457e-09
-8.83753e-09
6.13254e-09
-7.05956e-09
-1.60016e-08
1.2022e-08
1.40842e-08
-1.01045e-08
4.96748e-09
-1.25519e-09
-5.88484e-10
-3.12376e-09
1.71855e-09
2.51609e-09
-7.22265e-09
2.98808e-09
5.91508e-09
-2.93765e-09
-3.13127e-09
1.53853e-10
-4.67354e-09
8.88512e-09
-8.1308e-09
3.91922e-09
-5.84156e-09
3.68753e-09
-8.10355e-09
1.02576e-08
-4.62425e-09
3.99654e-09
-5.52473e-09
6.15242e-09
-3.00014e-09
-2.30511e-09
-9.33537e-10
6.23881e-09
1.99611e-09
1.89814e-09
-3.61147e-09
-2.82846e-10
3.54919e-10
-1.95761e-09
7.56977e-09
3.91138e-09
-1.07926e-09
-3.26673e-09
4.34594e-10
-9.95987e-09
8.31527e-09
-4.72456e-10
2.11706e-09
-5.52655e-11
1.87668e-09
-4.748e-09
2.92659e-09
-1.41473e-09
-8.13244e-09
-9.81914e-10
1.05291e-08
3.53816e-10
4.28282e-10
-4.21801e-09
3.43594e-09
-4.61441e-09
3.16886e-09
-1.81808e-09
3.26362e-09
-3.74336e-09
9.9932e-10
2.41923e-09
3.24793e-10
1.9518e-09
1.06557e-10
1.69409e-09
-3.75244e-09
3.32706e-09
2.09518e-09
-2.28883e-09
-3.13343e-09
-5.31781e-09
-1.9608e-09
2.45281e-10
7.0333e-09
-9.5649e-09
-8.80591e-10
3.90047e-09
6.545e-09
-1.21728e-09
-6.79773e-10
2.04031e-09
-1.43172e-10
1.59108e-09
-8.16348e-09
-2.79553e-09
9.36795e-09
9.1255e-10
-3.85511e-09
-3.65661e-09
6.59919e-09
-5.14781e-09
7.3011e-09
-8.81963e-10
-1.27132e-09
4.71482e-09
1.76663e-10
-4.35118e-09
-5.40309e-10
6.61382e-09
-8.37112e-10
-5.06488e-09
-7.11918e-10
-5.61896e-09
3.49171e-09
2.83049e-09
-7.03305e-10
-1.47793e-09
-4.04931e-10
2.08829e-09
-2.0544e-10
-1.05023e-10
3.5424e-09
-6.39725e-10
-2.79773e-09
-3.95918e-09
-1.30095e-10
3.18247e-09
9.0681e-10
3.97519e-09
-3.5858e-09
-1.63909e-08
-6.37625e-09
4.9335e-09
-3.24247e-09
4.68522e-09
4.68233e-09
-3.15854e-09
4.83295e-09
-6.35674e-09
6.67232e-10
-7.60117e-09
6.6454e-09
2.88564e-10
2.88682e-09
-1.76348e-09
-9.66078e-10
-1.57254e-10
3.30266e-09
-3.84054e-09
8.64772e-11
4.51445e-10
4.44684e-09
-5.5562e-09
4.59853e-09
-3.48915e-09
-2.63575e-09
-9.31429e-10
-2.66263e-09
6.22988e-09
2.80831e-10
3.48669e-09
6.3216e-09
-1.00891e-08
-3.10187e-09
7.97399e-09
2.1656e-09
-7.0377e-09
9.37535e-09
7.08414e-09
-7.20667e-09
-9.25281e-09
2.86621e-09
-1.441e-09
-3.48087e-09
2.05564e-09
9.35866e-11
1.13575e-09
5.34446e-09
-2.9147e-09
3.16504e-09
-7.95321e-11
-1.70841e-10
2.90524e-09
4.98843e-11
-2.86242e-09
-9.26855e-11
9.44559e-10
1.42687e-10
1.81802e-09
-5.52693e-09
3.30821e-09
-6.86654e-10
2.90537e-09
2.23496e-09
-5.28696e-09
-5.04659e-10
3.55668e-09
-3.43077e-09
-5.90266e-10
4.00079e-09
2.02542e-11
6.20889e-09
-2.0253e-09
1.71172e-09
-5.8953e-09
-3.21029e-09
4.59289e-09
-4.42735e-09
3.04477e-09
-4.16022e-09
7.47026e-09
-8.23368e-09
1.26402e-09
6.34708e-10
2.48524e-09
-4.38402e-09
-7.19994e-09
-2.19885e-09
9.21158e-10
8.47766e-09
3.48892e-09
7.2704e-10
-4.91381e-09
6.97845e-10
-3.44742e-09
2.47832e-09
-2.12523e-09
3.09436e-09
-3.3574e-09
-1.55776e-09
2.90875e-10
4.70773e-09
-2.76537e-09
1.78996e-09
-3.7323e-09
-5.47553e-09
9.94344e-10
3.26058e-09
1.2206e-09
2.21054e-09
5.19334e-10
6.52134e-09
-9.25122e-09
2.37498e-09
1.91325e-09
-3.28987e-10
-3.95922e-09
4.44889e-09
-2.51702e-09
-5.49589e-09
3.56401e-09
-6.94896e-09
9.88839e-10
4.35779e-09
1.60234e-09
-2.73177e-09
9.22437e-09
-1.2063e-08
5.57039e-09
1.18698e-09
8.41627e-09
-9.9027e-09
2.99397e-10
-1.76606e-09
-1.25458e-09
7.83328e-09
-4.81269e-09
-7.20448e-09
-1.97881e-09
8.918e-09
2.65283e-10
5.30139e-09
-3.59042e-10
2.14585e-09
7.07802e-09
4.8787e-09
-6.0838e-09
-5.8729e-09
2.05557e-10
2.87202e-09
2.22377e-09
2.47347e-09
-6.82459e-10
5.98551e-09
-7.77649e-09
-4.716e-09
3.41159e-09
1.43747e-09
-1.3301e-10
1.73004e-09
-3.03181e-09
1.04538e-09
2.56387e-10
-4.93594e-09
1.49903e-09
3.55166e-09
-1.14763e-10
7.52683e-09
3.1683e-09
-1.99589e-09
-8.69923e-09
-7.40597e-09
1.11635e-08
-1.59818e-09
-2.15935e-09
-4.90842e-09
-2.77484e-09
1.01012e-09
6.67315e-09
-1.59357e-09
-3.58354e-09
4.85251e-09
3.24594e-10
7.86432e-09
2.06317e-09
-1.0077e-08
1.49503e-10
-7.48545e-09
-1.30959e-09
7.32984e-09
1.4652e-09
-4.51482e-09
3.66869e-09
-3.43537e-09
4.28154e-09
3.47887e-09
-4.76805e-09
4.91616e-09
-3.62695e-09
3.76099e-09
-5.59576e-09
5.40341e-09
-3.56865e-09
-1.56177e-10
2.17515e-09
-7.32913e-09
5.31012e-09
2.17857e-09
-5.25913e-09
3.48816e-10
-1.8733e-09
1.23406e-09
4.34579e-09
-3.70655e-09
-1.29263e-09
3.85236e-09
-5.9295e-09
3.36975e-09
4.50934e-09
-9.56404e-10
-3.45197e-09
-1.00953e-10
-8.61225e-09
2.10977e-09
6.27593e-09
2.26561e-10
-1.61289e-09
4.97464e-09
3.80497e-10
-3.74216e-09
-9.21051e-10
1.2086e-09
-5.17674e-09
4.88921e-09
7.78514e-09
-6.31317e-09
-6.57206e-10
5.59706e-09
5.90592e-10
1.5975e-09
-1.47374e-09
3.82553e-09
-2.49346e-09
1.41752e-10
-4.89082e-09
2.87598e-09
-2.4052e-10
2.25532e-09
-6.08514e-09
2.76195e-10
6.71218e-09
-9.03251e-10
-1.42031e-09
6.47168e-09
-3.4883e-09
-1.56304e-09
3.49583e-09
-3.0869e-09
-9.87079e-11
-3.10273e-10
4.48373e-10
-3.78578e-09
-1.34934e-09
4.68676e-09
2.34493e-09
-4.0652e-09
1.36038e-09
3.59949e-10
-6.20551e-09
-1.20603e-09
7.15067e-09
2.60896e-10
-2.53735e-09
-6.19519e-10
5.42229e-09
-2.26542e-09
2.73155e-09
-5.93803e-10
-2.23455e-09
9.67962e-11
2.26798e-09
-5.09274e-09
-2.49305e-09
8.55152e-10
-2.0478e-09
9.34349e-10
2.5823e-10
1.42297e-09
2.37324e-09
-4.21591e-11
-4.54151e-09
4.42067e-09
-2.29499e-09
2.41587e-09
3.48412e-09
-1.34719e-09
-1.95111e-09
-1.85838e-10
7.02124e-09
-6.44836e-09
2.08613e-09
-2.65898e-09
2.4035e-09
8.14141e-10
-3.26822e-09
5.0588e-11
-4.51808e-09
2.0191e-09
-6.11441e-09
8.61342e-09
9.00483e-09
-7.96686e-09
4.1841e-09
-5.22204e-09
4.30924e-09
-5.44061e-09
4.32104e-09
-3.18963e-09
-4.68062e-10
4.91115e-09
-4.24739e-09
-1.95704e-10
-3.08031e-11
1.01329e-09
2.35603e-09
-3.3385e-09
-6.33153e-10
3.69105e-09
-3.03157e-09
-2.63474e-11
-2.51902e-09
5.84593e-09
-6.16461e-09
2.83773e-09
3.91046e-09
1.88903e-10
-4.13471e-09
3.53581e-11
8.60204e-12
2.48295e-09
-2.13772e-09
-1.95107e-09
-5.88602e-10
7.76272e-09
-5.22305e-09
-4.29505e-09
-6.94998e-10
5.26797e-09
-2.7794e-10
-1.73101e-09
-6.21811e-09
3.48286e-09
4.46622e-09
-1.90779e-09
2.46224e-09
-3.57287e-10
-1.97165e-10
4.68249e-09
-4.46236e-09
-1.3545e-09
1.13439e-09
-1.00689e-09
3.62146e-09
-2.3528e-09
-2.61754e-10
-2.52811e-09
5.38639e-09
-3.18211e-09
3.2385e-10
-2.25118e-09
6.04605e-09
-3.54547e-09
-2.49388e-10
5.75206e-09
8.62808e-09
-5.41902e-09
-8.96112e-09
6.41382e-09
-5.5837e-09
1.40948e-09
-2.23959e-09
-1.23213e-09
4.03499e-09
-5.84461e-09
3.04174e-09
-6.68911e-10
-2.37875e-09
3.68072e-09
-6.33054e-10
2.06742e-09
-7.81729e-10
4.90068e-09
-6.18633e-09
-1.25141e-09
6.59529e-09
-3.59835e-09
-1.74553e-09
8.95135e-09
-1.02081e-08
1.37653e-09
-1.19819e-10
1.1593e-08
-7.59642e-09
-2.13198e-11
-1.90935e-09
2.41629e-09
-5.60405e-10
5.3486e-11
-1.51738e-09
4.79565e-09
-5.29759e-09
2.01935e-09
-3.81621e-09
4.25054e-09
-6.14712e-10
1.80382e-10
4.40935e-09
1.15632e-09
-3.63267e-09
-1.93296e-09
1.31579e-09
-9.13195e-09
2.19859e-10
7.59631e-09
-5.48837e-09
2.52277e-09
1.14168e-09
1.40456e-09
3.10854e-09
1.94644e-10
4.30479e-09
-3.07268e-09
1.7246e-10
7.53294e-09
-1.21651e-08
1.8668e-09
1.75276e-09
8.81692e-09
-1.93281e-09
-8.63687e-09
1.85425e-09
5.51611e-10
-2.47607e-09
7.02749e-11
2.64326e-09
3.57788e-10
-2.78556e-09
-2.15498e-10
1.81004e-10
2.44665e-09
-2.52667e-10
2.34016e-09
-1.87966e-09
-4.22455e-10
-3.80322e-11
1.0129e-09
1.68982e-09
-8.62833e-09
5.92559e-09
-2.78689e-09
-4.40201e-10
3.28884e-09
-6.17187e-11
-6.17014e-09
-1.31645e-11
3.74112e-09
2.44219e-09
-1.01891e-09
-5.55939e-09
4.08173e-10
2.25188e-09
3.84485e-09
-2.07497e-10
1.99452e-09
-1.83073e-09
5.1062e-11
-2.14841e-10
-2.38981e-10
4.10386e-09
-5.61591e-09
1.75107e-09
2.60923e-09
-8.26379e-10
-6.55526e-09
4.77241e-09
3.48219e-09
-3.03265e-09
-4.83054e-09
4.381e-09
1.05481e-10
-2.48027e-09
-6.56781e-10
3.03171e-09
7.77768e-09
-2.99569e-09
3.60254e-09
-8.38455e-09
2.06404e-09
1.85528e-09
-3.53269e-09
-3.86618e-10
4.00348e-09
2.36045e-09
-2.98518e-09
-3.37875e-09
-5.52663e-09
-2.4304e-09
6.0615e-09
1.89555e-09
-4.0979e-09
1.69593e-09
3.65248e-09
-1.25053e-09
1.24463e-09
2.60696e-09
-4.05018e-09
1.98585e-10
4.25807e-09
-2.30747e-09
-9.57672e-09
7.62625e-09
5.63521e-09
6.71345e-09
-4.29443e-09
-8.05421e-09
-1.15652e-08
4.73043e-09
1.07393e-08
-3.90449e-09
1.27666e-09
1.09649e-08
7.37259e-09
-6.8787e-09
4.07651e-09
-4.57039e-09
4.55497e-09
-4.17556e-09
8.97201e-11
-4.69147e-10
4.13074e-09
-6.13772e-09
6.36615e-10
-2.79539e-11
-5.50763e-09
5.37168e-09
1.63908e-10
-4.21034e-09
1.65947e-09
2.35696e-09
1.93766e-10
3.98825e-09
1.11401e-08
-9.69532e-09
-5.43301e-09
3.36373e-09
1.83435e-09
-3.2898e-09
-1.90824e-09
5.83666e-09
5.56302e-09
-4.79844e-09
-6.60123e-09
-2.80115e-09
-1.14582e-09
3.68476e-09
2.62181e-10
3.52018e-09
-5.02258e-09
-3.89798e-09
5.40038e-09
7.80825e-09
-3.44608e-09
-7.78062e-09
3.41846e-09
5.45507e-09
1.98923e-09
-2.27952e-09
-5.16476e-09
-1.31875e-09
4.49649e-09
-1.54005e-09
-1.63768e-09
1.94579e-09
5.52563e-09
3.91829e-10
-7.86324e-09
4.35636e-09
-5.95791e-09
6.01612e-09
-4.41459e-09
1.4891e-09
6.10116e-09
-3.3434e-09
-4.24682e-09
6.34992e-09
-5.36742e-09
-7.73508e-10
-2.09014e-10
-1.88501e-10
2.98969e-09
-2.62018e-09
3.5279e-09
-3.406e-09
-1.34062e-09
1.21872e-09
3.22577e-09
-3.25937e-09
3.10017e-09
-1.0382e-09
4.80328e-09
1.98325e-09
1.4727e-10
-1.8511e-09
4.92962e-09
3.75981e-10
-3.19441e-10
4.58543e-09
2.43357e-10
-1.46249e-10
5.42431e-10
4.78628e-09
-5.18246e-09
7.38768e-09
3.12922e-09
-3.90315e-09
-3.56187e-09
-6.12934e-09
4.829e-09
4.86223e-09
-1.96445e-09
-6.03345e-09
-5.94132e-11
8.05732e-09
-3.15466e-09
-5.83936e-10
3.93585e-09
-1.97269e-10
2.05117e-09
-7.23308e-09
-1.76704e-09
8.09994e-11
-1.06529e-09
4.58177e-09
-2.00788e-09
-2.52487e-09
4.66558e-09
-1.32831e-10
7.94881e-09
-4.94024e-09
-3.46133e-09
4.52783e-10
1.44118e-09
-5.57794e-09
-1.67912e-09
5.81588e-09
-1.45704e-09
2.63242e-09
2.65818e-10
-5.92964e-09
1.12251e-09
5.04383e-09
-2.3672e-10
8.15269e-10
2.58069e-09
-3.25775e-09
-1.38198e-10
2.00116e-10
-2.04862e-09
1.56459e-09
2.8392e-10
4.07406e-09
-1.93689e-09
2.62834e-09
-4.7655e-09
-2.7176e-09
-9.8352e-10
-1.51512e-09
5.21624e-09
1.50145e-09
-4.15772e-09
-1.09785e-09
1.84784e-09
-4.91356e-10
-1.51394e-10
1.8263e-09
-1.90607e-09
2.31168e-10
-6.55784e-09
-3.80856e-09
3.81802e-09
6.54838e-09
-5.92825e-09
1.41125e-10
5.49793e-09
2.89205e-10
3.54245e-09
-3.2364e-09
-4.56824e-10
1.50801e-10
-1.5634e-09
3.41211e-09
1.62513e-09
-3.47393e-09
4.81727e-09
-3.27111e-09
-1.35491e-09
-1.91275e-10
-2.39105e-09
1.94962e-09
-1.2272e-09
1.66856e-09
-5.98646e-11
3.61613e-09
-3.65887e-09
1.02624e-10
1.0183e-09
-5.19922e-09
5.1708e-09
-9.89879e-10
-4.70375e-09
7.04215e-10
1.83331e-10
3.83199e-09
-2.98885e-09
4.72636e-10
-1.10939e-08
-3.11655e-09
9.23023e-09
4.98027e-09
-6.4863e-09
-2.08538e-09
-2.52223e-09
8.30332e-09
-6.29392e-09
-1.30763e-09
-7.01759e-10
3.03424e-10
5.29096e-09
-5.28273e-09
-3.11683e-10
-1.53132e-09
1.50031e-10
-6.38765e-09
7.7689e-09
3.86115e-09
6.07372e-09
-5.44081e-09
-4.49408e-09
5.02702e-09
1.19864e-09
-5.63644e-09
-5.89258e-10
-6.8624e-09
1.44218e-09
-9.39526e-10
-6.1946e-09
8.04903e-10
3.58678e-10
2.34398e-09
4.70211e-11
4.27087e-10
7.74936e-10
-1.88023e-09
-1.61652e-09
-2.55355e-09
2.28429e-09
-4.10868e-09
4.3779e-09
-2.90355e-09
-5.53371e-09
4.30934e-10
8.03583e-09
-5.49358e-09
-3.05544e-09
5.13215e-10
-4.02156e-09
-2.97954e-09
5.68236e-09
-3.70287e-09
5.88622e-09
-2.83958e-09
6.56228e-10
-9.67977e-10
5.05664e-09
-3.88125e-09
-2.0743e-10
-2.35061e-09
2.4165e-09
-4.36097e-09
2.62957e-09
-5.62902e-09
2.81661e-09
1.82832e-10
-4.86508e-09
1.6292e-09
-2.10065e-09
5.33657e-09
7.40922e-09
-5.93868e-09
-3.23663e-09
3.93602e-09
2.72037e-11
-3.8775e-09
-8.5719e-11
-2.15945e-10
-2.88967e-09
3.40393e-09
-2.98327e-10
7.1417e-10
2.22751e-09
1.79198e-09
-4.73366e-09
-7.84047e-09
3.81729e-09
4.73736e-09
5.62379e-09
-4.89791e-09
-8.81494e-10
1.55623e-10
5.48974e-09
-4.41987e-09
-9.71684e-10
-9.81765e-11
3.90862e-09
5.54406e-09
-3.96293e-09
2.17379e-09
-8.42442e-09
5.93965e-09
3.10978e-10
1.18321e-09
-5.16096e-09
4.29778e-09
-3.20005e-10
2.42838e-09
-1.49178e-09
-5.0263e-09
4.08972e-09
4.46467e-09
-2.5117e-09
-2.34777e-09
3.94798e-10
4.42434e-09
1.28668e-09
-5.84905e-09
1.3805e-10
-5.87396e-09
-2.78666e-09
8.89186e-09
-2.31249e-10
-6.28888e-10
3.9637e-10
5.45245e-09
-5.21997e-09
-1.29411e-09
4.56901e-09
6.99195e-10
-5.77334e-09
5.50676e-10
5.02487e-09
1.97789e-10
-6.66781e-09
-4.66229e-09
5.55675e-09
-1.40888e-09
-4.66355e-09
5.25928e-09
8.13132e-10
-4.9686e-09
-1.66294e-09
6.94384e-09
-3.12273e-10
-2.76983e-09
5.25623e-09
1.52892e-09
-4.0153e-09
2.45212e-09
-7.71243e-09
3.7857e-10
4.88177e-09
5.49595e-09
-3.06069e-09
-2.30438e-09
-1.30879e-10
-1.16072e-09
-3.82394e-09
4.67812e-09
3.06522e-10
4.64249e-09
2.97098e-09
-5.91905e-09
-1.69439e-09
6.305e-09
-3.38501e-09
-2.9542e-09
3.42226e-11
-1.02053e-09
2.73585e-09
6.00016e-09
-7.71546e-09
-7.14569e-09
9.80664e-09
-8.12144e-10
-1.84876e-09
-7.40897e-09
2.95284e-09
3.1524e-09
1.30374e-09
-5.69724e-10
4.28088e-09
-3.4225e-09
-2.88657e-10
3.36043e-09
-3.54971e-09
-3.80438e-10
3.63014e-09
1.25715e-09
-4.95287e-09
6.55905e-11
-8.4803e-10
-2.853e-09
3.55889e-09
1.42127e-10
1.05388e-09
-5.03255e-09
3.73162e-09
2.47033e-10
-5.23336e-09
5.45359e-09
-1.85213e-09
1.63191e-09
1.06587e-09
-4.03231e-09
5.27207e-09
-2.30561e-09
2.63103e-09
-3.65888e-09
1.28369e-09
-2.55859e-10
3.42201e-09
3.01334e-10
-9.15073e-10
-2.80829e-09
2.00383e-09
5.83927e-09
-7.84069e-09
-2.38223e-12
1.47393e-09
9.11415e-10
2.35233e-09
-4.73764e-09
-1.34396e-09
2.00901e-09
-5.31057e-10
-1.33992e-10
2.32518e-09
4.80372e-09
-8.58314e-10
-6.27057e-09
-5.15598e-09
3.27644e-09
-2.13099e-09
4.01058e-09
1.37513e-09
-3.57792e-09
2.57673e-09
-3.73985e-10
-6.81947e-10
4.14215e-09
-6.00381e-09
2.54362e-09
1.1107e-09
6.62193e-09
3.34637e-10
-8.06727e-09
-4.04134e-09
3.61679e-09
7.42964e-10
-3.18417e-10
-4.87281e-09
-2.65078e-09
5.2864e-10
-2.61883e-09
-2.22852e-09
-2.23354e-09
4.70298e-09
2.06067e-09
-2.65016e-09
-4.1135e-09
4.09189e-09
4.67568e-09
-4.48669e-09
8.92824e-11
3.56582e-09
-3.36764e-09
-2.8746e-10
2.18146e-09
1.04234e-11
-3.11293e-09
5.09247e-10
3.62693e-09
-4.09117e-09
-4.50011e-11
6.17542e-09
-5.24292e-09
-1.15806e-09
2.25575e-10
-5.62572e-09
4.21799e-09
1.21898e-09
1.88771e-10
-1.05514e-08
7.54603e-10
7.08617e-09
2.71063e-09
2.80829e-09
-3.64717e-09
6.27038e-10
2.11865e-10
-3.27496e-09
-1.0047e-09
6.06964e-09
1.08529e-09
-1.91227e-09
4.08277e-09
-3.2558e-09
5.89473e-09
-1.84895e-09
-5.63639e-10
-4.89601e-09
-4.2661e-09
6.37522e-09
-7.34301e-09
1.70904e-09
5.2105e-09
4.23432e-10
-5.45647e-09
-1.62435e-09
4.09724e-09
2.98359e-09
9.07071e-09
-1.42176e-09
4.31417e-09
-1.19632e-08
-2.12208e-09
-3.61328e-09
-3.79032e-09
1.05021e-09
2.726e-09
1.41542e-11
-2.93404e-09
-2.12496e-09
7.07812e-09
2.71834e-09
-4.48488e-10
-2.04496e-09
-2.24829e-10
-1.44911e-09
4.14475e-09
-3.58938e-09
8.93762e-10
-3.92855e-09
2.73614e-09
-6.21655e-09
-6.96525e-09
-1.28106e-09
5.89883e-09
2.34748e-09
4.30911e-10
-3.36412e-10
6.07435e-09
-6.16883e-09
-3.73945e-09
-2.71852e-09
2.17303e-09
4.28495e-09
3.66796e-09
-3.33579e-09
-2.42894e-10
-4.96204e-10
4.49741e-09
-4.42191e-09
4.20694e-10
3.79609e-10
-1.88343e-09
-1.08948e-10
-2.46674e-10
2.65783e-09
-2.41447e-09
3.32746e-12
2.36254e-09
-2.6258e-09
1.6607e-11
-2.37731e-09
6.0295e-09
6.61685e-10
-4.3139e-09
7.97583e-09
-5.01084e-09
-6.9964e-09
4.03142e-09
3.29814e-09
-4.84981e-09
1.26228e-09
2.89376e-10
2.90198e-09
2.76571e-09
-1.71727e-10
-4.6565e-09
8.28987e-09
-6.36981e-09
2.73643e-09
1.3448e-09
-1.15551e-09
5.89927e-11
-2.48302e-10
8.34591e-10
-1.28381e-09
3.84789e-09
-3.39872e-09
-5.05074e-09
6.3271e-09
-1.51628e-09
2.39926e-10
1.50445e-09
-1.10791e-09
-4.7315e-10
7.6627e-11
-2.31935e-09
5.83184e-10
1.89615e-09
-1.59844e-10
-1.76941e-09
-6.19751e-10
6.98179e-11
2.54619e-09
-3.34245e-09
7.79346e-10
1.69122e-11
-6.80685e-10
4.78618e-09
-4.06403e-09
-4.13355e-11
6.77731e-10
-1.58245e-09
1.12409e-09
-2.19341e-10
3.58106e-10
4.16635e-09
-3.18385e-10
-4.20606e-09
-6.13047e-09
3.64924e-09
1.06026e-09
1.42097e-09
3.18623e-09
-3.7126e-09
-3.29413e-09
3.8205e-09
1.9262e-09
3.24748e-09
-5.42237e-09
2.48667e-10
5.15221e-09
-3.68986e-09
4.63825e-10
-3.41624e-09
3.41396e-09
-3.37341e-10
3.39605e-10
-3.23307e-09
-4.32119e-10
3.91267e-09
-2.47522e-10
-6.37831e-09
1.43067e-09
4.85018e-09
9.7444e-11
2.1645e-10
7.28269e-09
1.50569e-09
-1.32893e-09
1.57823e-09
3.36893e-09
-3.61824e-09
3.24412e-09
-2.1852e-09
-8.01969e-10
-2.56972e-10
3.43128e-09
-1.39712e-09
-4.12929e-09
2.09509e-09
-3.58105e-09
-1.0437e-09
4.14386e-10
1.49091e-10
-3.11925e-09
2.73948e-09
2.30665e-10
5.49707e-10
-4.29145e-09
3.92379e-09
-1.8207e-10
-2.36974e-09
4.59472e-09
3.02175e-09
-5.24671e-09
7.9138e-10
-1.36717e-09
-3.8667e-09
4.4425e-09
-2.9579e-09
-1.74972e-09
1.43687e-09
3.27072e-09
-3.06451e-09
2.95101e-09
2.6258e-10
1.28389e-11
-2.33612e-09
2.06463e-09
2.58648e-10
4.06941e-10
4.44594e-09
1.74129e-10
-3.78981e-09
3.15549e-09
-3.72242e-09
4.35674e-09
-2.84024e-09
3.98109e-09
-1.41817e-09
2.77317e-10
1.9611e-09
-4.91213e-09
-3.88038e-09
6.83142e-09
3.988e-09
-2.72809e-09
-1.36673e-09
1.0686e-10
1.50865e-09
4.10124e-09
-2.21024e-09
6.20438e-09
3.15067e-10
-5.1931e-09
-1.34709e-09
1.61866e-10
1.07967e-09
3.71882e-09
-5.81902e-09
2.26393e-09
-2.04227e-09
-5.5191e-09
5.29744e-09
5.25553e-09
-3.08664e-09
-2.58022e-09
4.11323e-10
-7.44739e-09
6.51595e-09
4.50693e-09
-3.57547e-09
-3.53696e-09
-9.01226e-10
4.31683e-09
1.21366e-10
4.24079e-09
-4.10147e-09
5.44459e-09
-5.5839e-09
7.46842e-10
7.11323e-09
-5.95434e-09
-1.90573e-09
3.29548e-11
-3.18714e-09
3.14884e-09
5.36774e-12
-2.64116e-09
-3.96658e-10
3.78466e-09
4.45542e-09
-5.23564e-09
-2.88217e-09
3.66238e-09
3.70982e-09
-1.343e-09
-2.71139e-09
3.44563e-10
5.7875e-09
-1.28652e-09
-5.52192e-09
1.02096e-09
-1.493e-09
-1.94151e-09
2.77356e-09
6.60952e-10
-4.01251e-09
5.76705e-09
-2.00183e-09
2.47303e-10
-3.6687e-09
-7.27248e-10
4.12117e-09
2.74769e-10
-3.7881e-09
7.26031e-10
2.91905e-09
1.42965e-10
-2.30958e-10
9.31631e-09
-7.66866e-09
-1.41668e-09
4.5074e-09
4.48025e-11
-1.95832e-10
-1.419e-09
-2.20685e-09
-6.49778e-10
4.2756e-09
-1.62935e-09
-2.51726e-09
-1.83573e-09
5.98236e-09
6.93412e-10
-4.99353e-09
5.93618e-09
-1.63605e-09
-2.58958e-09
1.79151e-09
5.36288e-09
-4.5648e-09
-2.97544e-09
3.58656e-09
-3.05518e-10
-3.05576e-10
4.1257e-09
3.08444e-09
-2.99454e-09
-4.21559e-09
3.84022e-10
2.6905e-09
-2.68915e-09
-3.85341e-10
-2.40196e-09
-1.97773e-10
2.68108e-09
-8.13063e-11
2.0196e-09
-2.09532e-09
-6.89891e-09
6.97465e-09
3.40597e-09
-2.53928e-09
-3.16164e-09
6.98836e-10
1.46285e-09
-1.98907e-09
-1.72755e-10
-4.04905e-09
-3.89346e-09
6.17446e-09
-5.38232e-09
-8.59518e-10
6.73756e-11
1.77391e-11
4.39438e-09
-4.66949e-09
2.57393e-10
3.26382e-09
1.02781e-10
-3.27442e-09
-9.21556e-11
2.85794e-09
-3.07374e-12
-2.94648e-09
9.16179e-11
7.1593e-09
2.03467e-09
1.9046e-09
-1.10985e-08
-3.83118e-09
4.57565e-09
-9.25431e-10
1.8097e-10
5.50212e-09
-1.44541e-10
2.16925e-09
4.04454e-09
-3.98088e-09
2.17132e-09
-4.10977e-09
3.2842e-09
-5.25959e-09
-2.85729e-09
-9.92155e-10
-2.60354e-10
3.14861e-09
-2.76913e-09
-6.67387e-10
2.87913e-10
-1.05668e-09
6.51705e-09
-7.05393e-09
3.90305e-09
-5.24835e-09
-5.27964e-10
-9.37671e-09
1.4904e-10
1.74222e-09
-4.85844e-09
6.29374e-09
3.71689e-09
1.49353e-09
-6.59533e-10
-2.47635e-09
1.64236e-09
-4.20678e-09
4.16329e-09
3.44765e-10
-3.01277e-10
4.18813e-10
-6.15292e-09
6.91733e-09
-1.7606e-09
-1.12061e-09
2.9872e-09
-1.05954e-10
3.32576e-10
-4.21629e-09
1.15547e-08
-7.67101e-09
-8.11884e-11
4.82722e-09
-4.85692e-09
1.1088e-10
-2.66501e-09
3.90655e-09
4.3557e-09
1.69623e-09
-5.88904e-09
-1.62847e-10
-5.12817e-09
-3.45268e-09
3.04888e-09
5.53199e-09
1.68893e-10
-1.14407e-09
-1.98281e-09
-1.98702e-09
6.78273e-10
-4.41018e-10
-5.53161e-09
1.41025e-09
1.08825e-10
-3.93907e-09
-5.28614e-10
2.97468e-09
3.46839e-09
2.6977e-10
2.65575e-09
1.15714e-10
6.51098e-10
1.88882e-09
-7.40498e-09
-3.10865e-09
5.77278e-10
-2.21943e-11
-2.15619e-09
5.27801e-10
1.87505e-09
-2.46684e-10
3.4616e-09
-2.5143e-09
-1.01064e-09
6.33693e-11
4.79448e-09
1.06984e-09
-5.94316e-09
7.88626e-11
1.64108e-10
3.80881e-09
4.4597e-09
-8.4326e-09
3.04376e-09
-3.55838e-10
-3.01064e-09
-6.25223e-10
3.80517e-09
-1.693e-10
1.13466e-09
-3.69854e-09
4.07686e-10
2.17006e-09
-2.95086e-09
6.4122e-10
1.3958e-10
-4.59349e-09
-4.16941e-09
6.12715e-09
-2.3082e-09
-3.39295e-09
1.90561e-09
3.79555e-09
2.78993e-09
1.19992e-09
-2.03804e-09
-5.61286e-10
-1.94837e-09
2.14347e-09
3.66196e-10
7.89875e-11
3.44024e-09
-3.8348e-09
3.15571e-10
1.31594e-08
-3.82547e-10
-4.70508e-09
-8.07172e-09
-5.67383e-09
1.58909e-09
-2.20192e-09
6.28666e-09
2.4264e-09
-4.77478e-09
-6.42867e-09
8.77705e-09
6.28799e-10
2.41572e-09
-9.21484e-09
6.17033e-09
-2.07751e-09
5.14632e-10
6.39029e-09
-5.67045e-09
-1.353e-09
4.42265e-09
4.24188e-09
-2.27422e-09
7.61894e-09
9.48215e-10
-8.13889e-09
5.93298e-09
-5.72834e-09
-5.69399e-09
2.74338e-10
5.39172e-09
-2.19534e-09
2.48717e-09
9.04964e-11
-3.82311e-10
1.23465e-10
-2.11831e-09
-2.00499e-10
-8.42696e-10
-3.82364e-09
4.51005e-09
1.56298e-10
5.64562e-09
-4.7294e-09
-8.50635e-09
7.59009e-09
1.74951e-09
-2.64156e-09
-3.06713e-09
6.78266e-09
-7.80168e-09
-1.46449e-09
2.48354e-09
-5.38734e-09
2.4441e-09
2.91607e-09
2.71992e-11
1.49573e-09
-1.84955e-09
3.00765e-10
5.31602e-11
-3.95516e-09
-3.66324e-10
1.76998e-10
4.14452e-09
-2.15556e-09
-1.00255e-09
3.45535e-09
-2.97222e-10
-1.80305e-09
2.04855e-09
-5.27688e-10
2.82201e-10
-4.21849e-09
2.46064e-10
3.21496e-09
7.57479e-10
-2.50717e-09
-9.44836e-10
3.42986e-09
2.21903e-11
-4.58874e-09
5.7654e-09
-9.45279e-10
-2.31341e-10
-5.86687e-09
-2.94036e-09
3.76668e-09
-2.34018e-09
-1.28029e-09
-1.46404e-10
-3.64205e-09
4.1733e-09
-6.22661e-10
9.14029e-11
1.16386e-10
2.59773e-09
-2.67476e-10
2.30827e-09
6.51938e-09
-9.12384e-09
2.96196e-10
3.51392e-09
5.03248e-09
-4.78287e-09
-3.76349e-09
3.4808e-09
-1.32786e-10
-3.54008e-09
1.92089e-10
-5.38677e-09
-7.52469e-09
6.1873e-09
6.72417e-09
1.54565e-09
-1.37034e-09
-2.80375e-10
1.97093e-09
-5.84726e-12
-1.73793e-09
-2.27157e-10
2.41343e-11
2.09395e-09
-1.91044e-09
-2.07693e-10
-1.56402e-09
-5.01295e-09
4.56909e-09
-5.38214e-09
1.22714e-09
9.61781e-09
-5.46279e-09
-7.6851e-09
2.34137e-09
-2.51602e-09
7.85978e-09
-3.4422e-09
-1.67129e-10
3.63677e-09
-2.74161e-11
-6.87874e-09
4.60157e-09
-2.57562e-09
4.8528e-09
3.93372e-09
-8.12655e-09
-1.18011e-09
3.06555e-09
-1.65164e-09
-2.33791e-10
1.787e-09
-9.21521e-10
-5.99042e-10
-2.66462e-10
-5.55033e-09
6.60762e-09
-1.53216e-09
4.74889e-10
-1.77088e-09
2.51951e-09
3.36676e-10
5.84595e-10
1.51197e-09
1.71396e-10
-1.21327e-09
4.2339e-10
1.66558e-09
-8.75715e-10
-1.36512e-09
6.19372e-09
-4.47367e-09
-8.87418e-10
4.14317e-09
-3.65578e-09
4.00006e-10
1.38723e-09
-1.99878e-09
5.88475e-10
2.30553e-11
-1.29725e-09
-2.65521e-10
1.97656e-10
3.29856e-09
3.53691e-09
-1.21166e-09
-8.69716e-09
-5.3285e-09
9.12777e-09
2.08217e-09
-7.48896e-09
3.36117e-09
2.04562e-09
-1.46156e-09
7.817e-11
1.57948e-09
-1.96056e-10
2.08148e-09
5.39562e-09
-7.21262e-09
-2.64486e-10
-4.39321e-09
1.01402e-08
1.13255e-09
-6.87951e-09
-7.86189e-09
-1.31563e-09
-2.39566e-09
2.64511e-09
-4.73448e-09
4.48506e-09
-1.74353e-09
5.43215e-09
-1.59708e-09
-2.09152e-09
-7.89568e-09
8.11678e-09
7.31185e-09
-1.4533e-09
1.91165e-09
-4.76232e-10
1.79265e-11
-5.94121e-09
7.40386e-10
3.76788e-09
1.43299e-09
-2.16601e-09
7.59434e-09
-2.51311e-09
-2.91519e-09
2.09799e-09
2.49992e-09
-4.47014e-09
-1.27791e-10
-2.19383e-09
-3.81632e-10
2.75318e-09
-1.77723e-10
-6.70567e-09
6.77957e-09
7.44726e-09
-7.52117e-09
-3.38681e-09
-2.22994e-09
2.2999e-10
-1.13208e-09
2.67804e-09
-1.53771e-09
-8.22656e-12
1.65277e-09
1.13247e-09
-2.74786e-09
-3.73516e-11
-4.28664e-09
8.04485e-09
-3.84342e-09
8.52212e-11
1.05928e-08
-1.1043e-08
7.95722e-09
-7.50706e-09
2.36109e-09
1.50193e-09
-3.78925e-10
2.30516e-09
4.8776e-10
-2.51267e-09
-2.80225e-10
-7.50778e-10
-2.29204e-09
1.27923e-09
5.69263e-10
-3.43981e-10
-2.10727e-09
4.79933e-09
-2.42731e-09
-2.64739e-10
-1.84019e-09
7.3454e-09
-2.40584e-09
-3.09935e-09
-7.35836e-09
-1.31647e-09
8.34741e-09
3.27408e-10
-4.97958e-09
-1.32114e-10
4.75344e-09
3.58247e-10
-1.74981e-10
2.13995e-09
-5.41238e-09
-1.59091e-09
1.14564e-09
-2.77252e-09
3.21777e-09
1.8793e-09
-1.67677e-09
1.55601e-10
-2.09072e-09
-4.74886e-09
1.51191e-09
5.32769e-09
-2.85636e-09
9.23837e-09
-2.52087e-09
-6.17015e-09
2.77876e-09
-1.31236e-09
-3.83118e-09
-7.82381e-10
5.55466e-09
-9.41088e-10
3.70655e-09
5.22731e-10
-1.09658e-09
-3.1327e-09
-3.36725e-09
-2.04507e-09
3.67268e-09
1.73967e-09
7.28561e-10
-6.22828e-09
5.57036e-09
-7.0623e-11
3.30496e-09
4.73379e-09
-2.77453e-09
-5.26421e-09
1.96106e-10
-1.07846e-09
2.22716e-09
-2.78689e-09
3.35678e-09
-6.2411e-10
5.42332e-11
3.05594e-10
2.98829e-10
-8.48764e-10
2.52716e-09
-2.04312e-09
3.6476e-10
-2.20905e-09
-3.59941e-09
2.61178e-09
3.19669e-09
1.04202e-09
3.93695e-09
-5.10358e-09
1.24584e-10
2.16188e-09
-4.20928e-10
-8.16133e-10
-1.24186e-09
2.4276e-09
-3.69599e-10
-9.98004e-10
-2.43045e-09
3.63928e-10
2.50183e-09
2.35469e-10
2.13696e-10
-1.34797e-09
3.59291e-09
1.56224e-09
-3.80724e-09
-2.64934e-09
-2.19996e-09
4.998e-09
-1.48735e-10
-1.84549e-09
-4.8456e-10
2.44469e-09
-1.14635e-10
-3.19194e-10
2.01529e-09
-1.70597e-09
9.88758e-12
1.66314e-09
-3.45808e-09
-2.13073e-10
2.00805e-09
1.75207e-09
2.40747e-09
-1.81574e-09
-2.34375e-09
2.66486e-09
-9.75152e-11
2.34756e-09
-1.3169e-09
-6.19904e-10
2.78294e-09
-2.55645e-09
3.93434e-10
4.98729e-09
-2.36713e-09
-2.92992e-09
3.09729e-10
-4.94425e-09
2.99129e-09
1.79112e-09
1.61822e-10
1.29395e-09
-1.38915e-09
-7.72491e-09
7.82012e-09
-1.29115e-09
2.84227e-09
-6.49537e-09
-1.44012e-10
-1.16472e-09
-1.52839e-10
-5.34838e-09
3.37933e-09
2.25298e-09
-2.83923e-10
-2.12093e-09
2.94501e-09
-6.17246e-09
7.75294e-10
1.04816e-09
-1.61459e-09
-2.08836e-10
-3.82883e-10
1.65307e-09
-1.20072e-09
-6.94639e-11
-2.24953e-09
-7.00991e-10
2.56767e-09
-3.89032e-10
-1.9628e-09
2.18647e-09
1.6532e-10
-1.3861e-09
-1.02068e-09
1.12683e-09
-7.42782e-09
-2.62184e-10
8.83642e-09
2.77248e-10
-8.85145e-09
3.97936e-10
-1.73691e-09
1.2564e-10
-6.2765e-09
2.60812e-11
-1.57903e-09
7.82946e-09
1.37728e-09
-1.0467e-08
1.17513e-08
-2.6616e-09
-2.76994e-09
-4.38615e-09
6.45289e-09
7.03213e-10
-2.26733e-09
-7.72696e-09
7.07695e-10
9.28662e-09
-1.29346e-09
9.4876e-09
-1.11039e-08
2.90977e-09
7.79706e-09
3.75337e-09
-2.51341e-09
-9.03694e-09
2.50673e-09
9.81027e-09
5.84506e-11
-1.23754e-08
4.27493e-09
-5.09413e-09
3.23011e-10
-1.28383e-09
2.43015e-09
8.46398e-09
-9.61026e-09
-6.64691e-09
9.52527e-09
-3.06302e-09
1.84649e-10
-1.5076e-09
-5.27116e-09
4.66684e-09
2.11189e-09
-1.13819e-08
1.0409e-08
-1.62976e-09
2.60268e-09
3.06165e-09
1.13775e-08
-1.14482e-08
-2.99089e-09
1.12275e-08
-8.10778e-09
-2.40271e-09
-7.17029e-10
1.67419e-09
-1.16369e-08
8.97153e-09
9.91161e-10
3.55975e-09
8.34281e-09
-5.48358e-10
-4.57624e-10
-4.83957e-09
1.48208e-09
3.81514e-09
-4.28576e-09
3.91789e-09
6.28362e-10
-2.6055e-10
8.83023e-09
3.46404e-09
3.30152e-09
-3.79344e-10
-2.57448e-10
2.26526e-09
-1.8179e-09
-9.25484e-09
8.80753e-09
-8.37725e-10
-1.46587e-09
-7.46619e-09
-3.84649e-09
5.72681e-09
-2.24079e-09
3.60486e-10
-5.50828e-09
6.74584e-09
2.26233e-09
-3.49985e-09
-1.13175e-09
-4.83648e-09
6.08737e-09
-1.18996e-10
6.94623e-09
7.98114e-10
1.93024e-09
-9.67453e-09
9.55535e-09
-8.67091e-09
2.02966e-09
-2.91406e-09
1.12316e-08
1.00954e-09
-2.90368e-09
-9.33746e-09
-5.56224e-10
-2.85208e-09
3.53405e-09
-1.25719e-10
-4.2218e-09
3.76644e-09
5.04419e-10
-4.90264e-11
-7.01302e-09
8.70073e-09
-1.29132e-09
-3.96373e-10
4.71636e-09
-1.69315e-09
1.67977e-09
3.40007e-09
-4.43958e-09
-7.31366e-10
9.476e-10
-2.9867e-09
2.36388e-09
-3.24777e-10
1.62656e-09
3.47448e-10
-8.05714e-09
6.08314e-09
7.96331e-09
-1.65407e-09
2.07331e-09
-8.38256e-09
-1.01801e-08
8.65783e-10
-2.34387e-09
1.16583e-08
-7.70118e-09
9.88676e-09
-2.71535e-09
5.298e-10
-1.70101e-09
9.48707e-09
2.53446e-09
-1.03205e-08
1.90521e-09
8.60481e-09
-1.10603e-08
5.50318e-10
-9.25539e-09
-1.95868e-09
1.17823e-08
-5.68187e-10
-1.25496e-09
-4.58753e-09
5.40908e-09
4.33392e-10
-2.24317e-09
-8.4082e-09
-1.54645e-09
1.21978e-08
3.26222e-09