/*--------------------------------*- C++ -*----------------------------------*\
| =========                 |                                                 |
| \\      /  F ield         | OpenFOAM: The Open Source CFD Toolbox           |
|  \\    /   O peration     | Version:  v1612+                                |
|   \\  /    A nd           | Web:      www.OpenFOAM.com                      |
|    \\/     M anipulation  |                                                 |
\*---------------------------------------------------------------------------*/
FoamFile
{
    version     2.0;
    format      ascii;
    class       volVectorField;
    location    "200";
    object      U;
}
// * * * * * * * * * * * * * * * * * * * * * * * * * * * * * * * * * * * * * //

dimensions      [0 1 -1 0 0 0 0];

internalField   nonuniform List<vector> 
18834
(
(-0.524673 -0.149474 -0.178794)
(-0.788791 -0.188459 -0.376211)
(-0.834203 -0.0710753 -0.480338)
(-0.828809 -0.0619945 -0.481183)
(-0.831468 -0.0626837 -0.480164)
(-0.825433 -0.0641871 -0.481071)
(-0.765817 -0.0557492 -0.452316)
(-0.709578 -0.0526297 -0.416587)
(-0.717072 -0.0542636 -0.426243)
(-0.818302 -0.0672423 -0.465788)
(-0.816911 -0.0722678 -0.470295)
(-0.693231 -0.0532402 -0.401806)
(-0.720031 -0.0586668 -0.410129)
(-0.792392 -0.0530483 -0.466198)
(-0.734556 -0.0511126 -0.435141)
(-0.755522 -0.0677514 -0.435898)
(-0.805588 -0.0685221 -0.471093)
(-0.748769 -0.0583954 -0.448358)
(-0.72741 -0.0469995 -0.436652)
(-0.719433 -0.123116 -0.404199)
(-0.740818 -0.130426 -0.421456)
(-0.718856 -0.110957 -0.402669)
(-0.750336 -0.124782 -0.426234)
(-0.693298 -0.115057 -0.380667)
(-0.771897 -0.126695 -0.429877)
(-0.754194 -0.117339 -0.415034)
(-0.720722 -0.133029 -0.405018)
(-0.711253 -0.121157 -0.39773)
(-0.707275 -0.116848 -0.390559)
(-0.678101 -0.118054 -0.376553)
(-0.778376 -0.128489 -0.439698)
(-0.792008 -0.129799 -0.444119)
(-0.709912 -0.127617 -0.398803)
(-0.741931 -0.134694 -0.425318)
(-0.572243 -0.0451518 -0.380355)
(-0.533347 -0.0568932 -0.34166)
(-0.486224 -0.0512139 -0.295866)
(-0.441112 -0.0501929 -0.272305)
(-0.45743 -0.0498127 -0.271504)
(-0.517422 -0.0796193 -0.30609)
(-0.475305 -0.0779133 -0.264023)
(-0.466805 -0.0734108 -0.256978)
(-0.482186 -0.0760618 -0.275438)
(-0.489544 -0.0750804 -0.282699)
(-0.622318 -0.101786 -0.392756)
(-0.536281 -0.090063 -0.326427)
(-0.569516 -0.0943605 -0.337008)
(-0.577325 -0.0950284 -0.346273)
(-0.503389 -0.0836575 -0.292972)
(-0.440299 -0.0713085 -0.232375)
(-0.450484 -0.0679101 -0.248293)
(-0.575435 -0.0905587 -0.354868)
(-0.593647 -0.0985893 -0.368426)
(-0.52227 -0.0893347 -0.320549)
(-0.571849 -0.0958333 -0.345616)
(-0.50531 -0.0985971 -0.227723)
(-0.462378 -0.0955801 -0.189496)
(-0.442226 -0.103237 -0.174196)
(-0.497111 -0.0953625 -0.222389)
(-0.472941 -0.0994804 -0.200132)
(-0.449691 -0.101325 -0.172807)
(-0.414711 -0.104967 -0.146915)
(-0.427098 -0.105747 -0.155279)
(-0.53826 -0.107306 -0.245072)
(-0.487472 -0.120201 -0.199188)
(-0.467283 -0.104476 -0.185861)
(-0.449579 -0.11111 -0.17084)
(-0.481394 -0.126242 -0.191012)
(-0.439678 -0.11674 -0.167599)
(-0.472046 -0.118554 -0.187402)
(-0.503032 -0.121544 -0.205201)
(-0.962462 -0.179744 -0.463817)
(-0.970061 -0.187683 -0.46667)
(-0.962902 -0.18834 -0.457614)
(-0.967221 -0.194642 -0.455347)
(-0.956661 -0.170017 -0.459234)
(-0.966825 -0.185747 -0.461793)
(-0.96249 -0.193784 -0.446848)
(-0.937259 -0.198397 -0.422614)
(-0.964179 -0.197505 -0.442976)
(-0.957922 -0.188127 -0.447752)
(-0.948257 -0.202809 -0.431109)
(-0.941643 -0.19439 -0.43212)
(-0.956831 -0.179978 -0.458891)
(-0.956488 -0.184055 -0.45472)
(-0.938966 -0.163447 -0.44934)
(-0.95459 -0.183732 -0.447959)
(-0.948276 -0.196978 -0.432732)
(-0.946553 -0.175785 -0.449861)
(-0.951653 -0.187516 -0.445449)
(-0.959279 -0.200673 -0.435975)
(-0.770074 -0.20216 -0.389345)
(-0.792477 -0.195866 -0.401938)
(-0.874328 -0.19762 -0.458122)
(-0.873892 -0.204898 -0.459953)
(-0.911185 -0.193628 -0.473345)
(-0.74855 -0.19778 -0.371587)
(-0.703719 -0.195618 -0.348289)
(-0.796626 -0.203641 -0.408177)
(-0.701217 -0.198796 -0.358804)
(-0.762809 -0.205707 -0.39645)
(-0.828532 -0.203198 -0.438409)
(-0.755967 -0.202218 -0.380509)
(-0.719863 -0.200565 -0.364687)
(-0.699492 -0.203406 -0.356804)
(-0.721818 -0.197651 -0.375788)
(-0.669115 -0.199092 -0.33215)
(-0.828915 -0.201391 -0.449211)
(-0.777097 -0.199951 -0.408858)
(-0.84624 -0.200652 -0.463586)
(-0.931959 -0.172468 -0.500121)
(-0.937352 -0.172812 -0.494925)
(-0.913171 -0.210989 -0.494762)
(-0.91814 -0.202575 -0.49143)
(-0.915576 -0.161477 -0.481933)
(-0.907375 -0.183271 -0.483536)
(-0.945574 -0.201102 -0.512952)
(-0.945189 -0.208954 -0.51436)
(-0.93202 -0.187452 -0.489099)
(-0.938391 -0.205124 -0.50963)
(-0.896646 -0.228282 -0.487474)
(-0.925754 -0.223254 -0.499617)
(-0.926378 -0.217347 -0.501269)
(-0.910907 -0.225992 -0.48734)
(-0.933626 -0.209076 -0.511311)
(-0.908149 -0.22159 -0.499837)
(-0.922336 -0.236246 -0.495795)
(-0.90964 -0.234299 -0.493204)
(-0.717494 -0.257659 -0.306399)
(-0.73945 -0.263795 -0.310275)
(-0.742509 -0.260274 -0.327561)
(-0.753961 -0.253914 -0.320359)
(-0.713141 -0.264059 -0.303244)
(-0.662721 -0.248882 -0.283817)
(-0.735588 -0.262127 -0.322822)
(-0.699821 -0.257102 -0.304382)
(-0.811429 -0.234255 -0.380121)
(-0.812164 -0.225428 -0.388962)
(-0.732305 -0.255829 -0.309467)
(-0.7172 -0.256991 -0.300479)
(-0.766021 -0.283464 -0.334728)
(-0.718415 -0.26399 -0.311554)
(-0.774474 -0.289359 -0.342061)
(-0.821573 -0.267523 -0.383378)
(-0.830687 -0.256691 -0.393713)
(-0.767835 -0.230508 -0.336057)
(-0.766341 -0.238456 -0.338027)
(-0.768092 -0.230902 -0.337658)
(-0.728497 -0.26169 -0.309544)
(-0.775443 -0.284401 -0.34169)
(-0.823483 -0.243736 -0.39011)
(-0.817323 -0.260986 -0.383235)
(-0.471439 -0.0942815 -0.174319)
(-0.48897 -0.100684 -0.183691)
(-0.435511 -0.0924731 -0.161196)
(-0.483015 -0.101901 -0.1884)
(-0.540917 -0.113291 -0.214839)
(-0.550483 -0.109216 -0.234206)
(-0.580692 -0.11069 -0.262069)
(-0.568897 -0.107828 -0.248578)
(-0.49408 -0.103038 -0.190751)
(-0.539128 -0.103859 -0.236981)
(-0.565099 -0.10989 -0.257959)
(-0.558741 -0.112693 -0.241416)
(-0.471537 -0.0976074 -0.170869)
(-0.466798 -0.0896791 -0.184647)
(-0.481293 -0.0893312 -0.193428)
(-0.420277 -0.0879841 -0.151843)
(-0.473876 -0.0902513 -0.19239)
(-0.477566 -0.0930812 -0.18521)
(-0.457467 -0.0859952 -0.182479)
(-0.41931 -0.0841088 -0.155818)
(-0.904387 -0.131512 -0.486786)
(-0.896004 -0.120333 -0.497028)
(-0.909778 -0.122816 -0.493119)
(-0.902242 -0.108678 -0.510984)
(-0.901527 -0.136225 -0.491462)
(-0.920349 -0.12565 -0.506833)
(-0.920034 -0.12924 -0.498127)
(-0.889676 -0.125033 -0.474679)
(-0.916306 -0.121083 -0.507422)
(-0.866636 -0.124148 -0.479993)
(-0.784373 -0.113098 -0.41161)
(-0.87855 -0.130223 -0.451106)
(-0.768558 -0.117646 -0.372082)
(-0.905422 -0.123795 -0.502549)
(-0.8296 -0.125087 -0.422059)
(-0.831435 -0.106782 -0.4459)
(-0.876944 -0.129565 -0.458056)
(-0.810633 -0.112265 -0.4171)
(-0.759083 -0.106112 -0.380073)
(-0.610169 -0.118153 -0.350355)
(-0.566894 -0.108525 -0.312365)
(-0.570933 -0.100798 -0.314038)
(-0.570931 -0.100435 -0.316553)
(-0.607526 -0.111532 -0.346925)
(-0.576393 -0.10758 -0.315602)
(-0.613874 -0.108537 -0.341594)
(-0.653442 -0.12462 -0.384465)
(-0.618185 -0.118036 -0.354585)
(-0.652444 -0.112544 -0.381161)
(-0.616405 -0.107895 -0.347886)
(-0.676662 -0.124117 -0.393981)
(-0.66575 -0.120353 -0.385212)
(-0.631541 -0.122936 -0.363431)
(-0.593451 -0.102264 -0.316883)
(-0.547898 -0.100049 -0.289359)
(-0.650926 -0.113326 -0.372775)
(-0.670046 -0.115813 -0.386406)
(-0.694848 -0.126535 -0.406498)
(-0.619907 -0.107373 -0.349974)
(-0.589934 -0.1953 -0.23996)
(-0.630857 -0.19717 -0.267378)
(-0.587372 -0.19568 -0.236093)
(-0.529862 -0.18354 -0.204481)
(-0.579166 -0.171945 -0.234458)
(-0.5963 -0.190312 -0.247357)
(-0.564985 -0.155692 -0.218966)
(-0.593005 -0.163503 -0.231132)
(-0.552017 -0.161433 -0.201915)
(-0.659669 -0.180819 -0.295911)
(-0.654952 -0.171633 -0.28511)
(-0.669476 -0.179676 -0.305034)
(-0.57918 -0.15034 -0.236787)
(-0.562267 -0.175053 -0.223231)
(-0.533306 -0.174982 -0.202763)
(-0.557508 -0.165333 -0.210813)
(-0.562802 -0.170221 -0.213773)
(-0.534387 -0.171251 -0.195401)
(-0.617116 -0.19218 -0.255999)
(-0.693249 -0.188438 -0.322026)
(-0.627902 -0.1525 -0.272466)
(-0.909104 -0.0997959 -0.540164)
(-0.910162 -0.093331 -0.551447)
(-0.871703 -0.103662 -0.510525)
(-0.832524 -0.104058 -0.477377)
(-0.816626 -0.109078 -0.503648)
(-0.790963 -0.112007 -0.480776)
(-0.798896 -0.102725 -0.454704)
(-0.894112 -0.10321 -0.554168)
(-0.911639 -0.0992237 -0.55748)
(-0.805946 -0.111649 -0.481135)
(-0.838608 -0.110785 -0.509643)
(-0.837558 -0.117469 -0.517576)
(-0.800275 -0.105186 -0.472675)
(-0.880276 -0.109339 -0.528736)
(-0.777035 -0.104201 -0.461869)
(-0.764129 -0.197444 -0.386563)
(-0.784125 -0.18817 -0.406254)
(-0.770419 -0.168829 -0.393849)
(-0.750945 -0.169613 -0.381313)
(-0.78359 -0.204071 -0.398377)
(-0.776171 -0.192323 -0.393596)
(-0.780038 -0.162438 -0.40174)
(-0.77694 -0.196539 -0.38496)
(-0.730213 -0.221025 -0.348777)
(-0.787169 -0.17929 -0.395379)
(-0.723531 -0.21421 -0.365219)
(-0.674979 -0.218801 -0.332443)
(-0.70819 -0.220554 -0.349795)
(-0.689054 -0.163637 -0.332901)
(-0.669618 -0.182247 -0.31263)
(-0.746599 -0.159353 -0.37529)
(-0.721575 -0.157244 -0.363842)
(-0.681173 -0.210248 -0.299229)
(-0.638322 -0.194545 -0.270441)
(-0.663273 -0.22007 -0.292812)
(-0.618437 -0.210261 -0.261147)
(-0.67975 -0.224251 -0.300567)
(-0.705891 -0.230182 -0.314301)
(-0.704477 -0.139145 -0.337648)
(-0.69263 -0.133359 -0.337382)
(-0.685377 -0.163888 -0.306998)
(-0.677119 -0.161402 -0.301492)
(-0.658318 -0.177372 -0.266803)
(-0.698221 -0.191062 -0.313559)
(-0.733713 -0.199712 -0.342273)
(-0.639664 -0.198053 -0.264681)
(-0.62469 -0.199294 -0.25734)
(-0.728907 -0.202111 -0.333686)
(-0.758541 -0.186453 -0.360877)
(-0.664082 -0.219163 -0.281582)
(-0.750266 -0.151083 -0.365489)
(-0.728118 -0.169459 -0.337846)
(-0.775785 -0.151617 -0.381759)
(-0.741824 -0.149678 -0.355591)
(-0.67536 -0.172143 -0.290906)
(-0.646708 -0.20393 -0.263224)
(-0.761061 -0.199984 -0.360686)
(-0.758335 -0.187421 -0.360318)
(-0.515449 -0.0782209 -0.274312)
(-0.51392 -0.0760581 -0.267059)
(-0.440792 -0.073571 -0.210338)
(-0.421488 -0.0708071 -0.189094)
(-0.499448 -0.0714989 -0.266861)
(-0.456229 -0.0698365 -0.206792)
(-0.46249 -0.0716277 -0.221499)
(-0.514061 -0.0710897 -0.285384)
(-0.503753 -0.070954 -0.276936)
(-0.417247 -0.0666564 -0.200036)
(-0.393233 -0.0650426 -0.174375)
(-0.438388 -0.0656731 -0.210381)
(-0.449522 -0.0655338 -0.228102)
(-0.468672 -0.0702498 -0.234097)
(-0.395054 -0.0598839 -0.171027)
(-0.443564 -0.0674993 -0.213562)
(-0.848306 -0.199603 -0.357769)
(-0.851573 -0.188139 -0.360965)
(-0.918051 -0.190894 -0.404691)
(-0.85405 -0.18309 -0.361346)
(-0.81023 -0.189002 -0.333825)
(-0.938746 -0.182064 -0.424488)
(-0.945377 -0.181283 -0.421345)
(-0.858721 -0.190478 -0.366279)
(-0.884046 -0.180903 -0.388867)
(-0.863249 -0.184283 -0.360385)
(-0.848571 -0.189607 -0.374537)
(-0.843197 -0.182687 -0.364471)
(-0.873139 -0.185191 -0.390748)
(-0.894406 -0.185542 -0.408878)
(-0.793852 -0.171126 -0.324075)
(-0.854307 -0.185142 -0.364959)
(-0.534406 -0.0586013 -0.295371)
(-0.5041 -0.0619784 -0.281686)
(-0.546672 -0.0646434 -0.306093)
(-0.50337 -0.067923 -0.27697)
(-0.633936 -0.0374266 -0.39807)
(-0.624384 -0.0544255 -0.364605)
(-0.534447 -0.0664092 -0.303271)
(-0.50151 -0.0595194 -0.278516)
(-0.574736 -0.0404847 -0.344609)
(-0.590538 -0.0341686 -0.374614)
(-0.650004 -0.0429887 -0.384941)
(-0.642525 -0.0355578 -0.385976)
(-0.627694 -0.0424001 -0.392655)
(-0.597905 -0.0419109 -0.391208)
(-0.632345 -0.042825 -0.391483)
(-0.61588 -0.0447115 -0.405224)
(-0.526358 -0.0482772 -0.315637)
(-0.53894 -0.0532635 -0.311682)
(-0.583633 -0.0433772 -0.366796)
(-0.605647 -0.0558589 -0.365199)
(-0.557673 -0.058241 -0.335474)
(-0.530271 -0.0566805 -0.303356)
(-0.495196 -0.0625551 -0.283388)
(-0.604356 -0.0564573 -0.351084)
(-0.847883 -0.203501 -0.480634)
(-0.866744 -0.206542 -0.483988)
(-0.798944 -0.211043 -0.445356)
(-0.755859 -0.203787 -0.427608)
(-0.915546 -0.209575 -0.503909)
(-0.921349 -0.191581 -0.515765)
(-0.841758 -0.195251 -0.480056)
(-0.794988 -0.195521 -0.445305)
(-0.843244 -0.188784 -0.484636)
(-0.859175 -0.185103 -0.489762)
(-0.856628 -0.219218 -0.470591)
(-0.821571 -0.218397 -0.463867)
(-0.77353 -0.211968 -0.43682)
(-0.923145 -0.186868 -0.520396)
(-0.922489 -0.19116 -0.518159)
(-0.816581 -0.193315 -0.455268)
(-0.904465 -0.211648 -0.498583)
(-0.854668 -0.220011 -0.476669)
(-0.798668 -0.21437 -0.459379)
(-0.910209 -0.205823 -0.501468)
(-0.661788 -0.168897 -0.286406)
(-0.643299 -0.164012 -0.273489)
(-0.68678 -0.168205 -0.307741)
(-0.694879 -0.168008 -0.309846)
(-0.654009 -0.180497 -0.269797)
(-0.743363 -0.198577 -0.337085)
(-0.769549 -0.218413 -0.340225)
(-0.704756 -0.21353 -0.303466)
(-0.645402 -0.182248 -0.261089)
(-0.67207 -0.171402 -0.291348)
(-0.613984 -0.198727 -0.247114)
(-0.605777 -0.190965 -0.241736)
(-0.756821 -0.200635 -0.349748)
(-0.771563 -0.22633 -0.338511)
(-0.683132 -0.21546 -0.274899)
(-0.68672 -0.187628 -0.284279)
(-0.691628 -0.222156 -0.283658)
(-0.668592 -0.21119 -0.265902)
(-0.769083 -0.21589 -0.335419)
(-0.737001 -0.207347 -0.307589)
(-0.631485 -0.0517111 -0.381463)
(-0.575392 -0.0730814 -0.320059)
(-0.568431 -0.0825876 -0.314875)
(-0.629429 -0.0983753 -0.3552)
(-0.574522 -0.101294 -0.310427)
(-0.62129 -0.119199 -0.361593)
(-0.646071 -0.136506 -0.383685)
(-0.59116 -0.105212 -0.338134)
(-0.614877 -0.106063 -0.367686)
(-0.589133 -0.11082 -0.342353)
(-0.585509 -0.116447 -0.342598)
(-0.644881 -0.126972 -0.386434)
(-0.650169 -0.123709 -0.392058)
(-0.567911 -0.105006 -0.330746)
(-0.659139 -0.134133 -0.391198)
(-0.620286 -0.119045 -0.375688)
(-0.724585 -0.136191 -0.441955)
(-0.708092 -0.132042 -0.429985)
(-0.623343 -0.118219 -0.367249)
(-0.688177 -0.119067 -0.414905)
(-0.684232 -0.113762 -0.413022)
(-0.633991 -0.109079 -0.376116)
(-0.819344 -0.181885 -0.406386)
(-0.842983 -0.196668 -0.412467)
(-0.83333 -0.213265 -0.395411)
(-0.802639 -0.178968 -0.388331)
(-0.81013 -0.210926 -0.380439)
(-0.809631 -0.21528 -0.379128)
(-0.857907 -0.243694 -0.413798)
(-0.858934 -0.242257 -0.414803)
(-0.836473 -0.194158 -0.410745)
(-0.84746 -0.218206 -0.408368)
(-0.829347 -0.185622 -0.413606)
(-0.874064 -0.223299 -0.410714)
(-0.825646 -0.220911 -0.381475)
(-0.887146 -0.208683 -0.438237)
(-0.897328 -0.203158 -0.446804)
(-0.788716 -0.210695 -0.382511)
(-0.736071 -0.210158 -0.345601)
(-0.855027 -0.216205 -0.409974)
(-0.856781 -0.211242 -0.416401)
(-0.859955 -0.20768 -0.425798)
(-0.888757 -0.210186 -0.44542)
(-0.798726 -0.206644 -0.397799)
(-0.75976 -0.208116 -0.359905)
(-0.92784 -0.158987 -0.449814)
(-0.939309 -0.172392 -0.446343)
(-0.945477 -0.164053 -0.455379)
(-0.92798 -0.155202 -0.450561)
(-0.94497 -0.183967 -0.441786)
(-0.93817 -0.178803 -0.449254)
(-0.944227 -0.165104 -0.455842)
(-0.922788 -0.14852 -0.448666)
(-0.937008 -0.158329 -0.444045)
(-0.953225 -0.175019 -0.446909)
(-0.956381 -0.179139 -0.447886)
(-0.930397 -0.183538 -0.421512)
(-0.952712 -0.183645 -0.43581)
(-0.948063 -0.192259 -0.430641)
(-0.958455 -0.181594 -0.443831)
(-0.937863 -0.169191 -0.449111)
(-0.965022 -0.198445 -0.435571)
(-0.946606 -0.18878 -0.428191)
(-0.942512 -0.178191 -0.447448)
(-0.947631 -0.188998 -0.430501)
(-0.535463 -0.156547 -0.20535)
(-0.528833 -0.146837 -0.205301)
(-0.556014 -0.148342 -0.22486)
(-0.551633 -0.142681 -0.225944)
(-0.489228 -0.146857 -0.180758)
(-0.587075 -0.137482 -0.244309)
(-0.611115 -0.130823 -0.277637)
(-0.594001 -0.123204 -0.270968)
(-0.507938 -0.138822 -0.185077)
(-0.499782 -0.128455 -0.1834)
(-0.549927 -0.145236 -0.214066)
(-0.543398 -0.1331 -0.216351)
(-0.580031 -0.125387 -0.255694)
(-0.489517 -0.125569 -0.193615)
(-0.46355 -0.131614 -0.172284)
(-0.49571 -0.115838 -0.196857)
(-0.498674 -0.120037 -0.19994)
(-0.493549 -0.132937 -0.186129)
(-0.493615 -0.135632 -0.175226)
(-0.574895 -0.115762 -0.257554)
(-0.558682 -0.11613 -0.237321)
(-0.609796 -0.087692 -0.404713)
(-0.567044 -0.0777431 -0.360884)
(-0.632121 -0.0915516 -0.421839)
(-0.560976 -0.0852541 -0.364639)
(-0.535525 -0.077634 -0.330498)
(-0.638171 -0.0960473 -0.425186)
(-0.637377 -0.100685 -0.419072)
(-0.481393 -0.0691573 -0.265289)
(-0.445256 -0.0707271 -0.252485)
(-0.493501 -0.0763778 -0.296925)
(-0.447918 -0.065083 -0.247453)
(-0.476797 -0.0728317 -0.283033)
(-0.486269 -0.0763145 -0.284498)
(-0.660364 -0.106602 -0.442254)
(-0.636015 -0.103068 -0.410427)
(-0.48386 -0.0677733 -0.282777)
(-0.496109 -0.070332 -0.296569)
(-0.516892 -0.082157 -0.319535)
(-0.625739 -0.0963225 -0.408964)
(-0.516519 -0.0798732 -0.326969)
(-0.528853 -0.0822889 -0.32204)
(-0.526361 -0.0874245 -0.257393)
(-0.578625 -0.0964386 -0.285503)
(-0.536287 -0.0826593 -0.271183)
(-0.58092 -0.0913859 -0.293913)
(-0.576426 -0.102347 -0.276294)
(-0.602372 -0.0791495 -0.327269)
(-0.587834 -0.0810942 -0.312287)
(-0.552355 -0.0859107 -0.27673)
(-0.604709 -0.103925 -0.297892)
(-0.609903 -0.0867866 -0.321503)
(-0.621419 -0.0882374 -0.324239)
(-0.581747 -0.0989347 -0.283102)
(-0.537685 -0.0891288 -0.261112)
(-0.829144 -0.0772268 -0.471187)
(-0.790688 -0.0637347 -0.459583)
(-0.810182 -0.0800699 -0.465261)
(-0.801794 -0.0690331 -0.456196)
(-0.801949 -0.0806431 -0.451217)
(-0.830461 -0.0789324 -0.470525)
(-0.784543 -0.069734 -0.445939)
(-0.809677 -0.0800519 -0.456506)
(-0.799621 -0.0693915 -0.457472)
(-0.770118 -0.075861 -0.446273)
(-0.762577 -0.0714371 -0.437734)
(-0.716222 -0.0625824 -0.42106)
(-0.729649 -0.0610055 -0.420982)
(-0.782023 -0.0692367 -0.448011)
(-0.76175 -0.0724403 -0.44697)
(-0.721889 -0.0577887 -0.412189)
(-0.735606 -0.0627779 -0.4224)
(-0.725716 -0.0564884 -0.424289)
(-0.504821 -0.131914 -0.187353)
(-0.512411 -0.12497 -0.1989)
(-0.555373 -0.127693 -0.229716)
(-0.541094 -0.139394 -0.206694)
(-0.469941 -0.138096 -0.157661)
(-0.538998 -0.153837 -0.204651)
(-0.521691 -0.133238 -0.19837)
(-0.505561 -0.155392 -0.179011)
(-0.48674 -0.146574 -0.174078)
(-0.448521 -0.100246 -0.188515)
(-0.408441 -0.0991083 -0.16487)
(-0.431444 -0.0931822 -0.184959)
(-0.403691 -0.0955415 -0.16235)
(-0.454427 -0.0930834 -0.198735)
(-0.508121 -0.0942818 -0.241457)
(-0.440451 -0.104216 -0.179191)
(-0.473686 -0.100111 -0.198291)
(-0.500116 -0.0868817 -0.237027)
(-0.499881 -0.087466 -0.244621)
(-0.446359 -0.0858596 -0.198361)
(-0.437087 -0.0895007 -0.187275)
(-0.498479 -0.0855739 -0.241103)
(-0.463067 -0.0990607 -0.198606)
(-0.45102 -0.093405 -0.198551)
(-0.894408 -0.0791627 -0.529153)
(-0.895972 -0.078803 -0.53033)
(-0.904581 -0.0842674 -0.54593)
(-0.906165 -0.0974436 -0.526343)
(-0.901739 -0.0936405 -0.526172)
(-0.903504 -0.099649 -0.528417)
(-0.798864 -0.149252 -0.460626)
(-0.796269 -0.158538 -0.460869)
(-0.805688 -0.112764 -0.463464)
(-0.803977 -0.131306 -0.462219)
(-0.780296 -0.167194 -0.443489)
(-0.733218 -0.176797 -0.399579)
(-0.71252 -0.165951 -0.367066)
(-0.707611 -0.170519 -0.365154)
(-0.739396 -0.16731 -0.407006)
(-0.712215 -0.0862025 -0.401458)
(-0.705294 -0.0991527 -0.387221)
(-0.75024 -0.169876 -0.411923)
(-0.754369 -0.122069 -0.421045)
(-0.743863 -0.0942085 -0.418356)
(-0.725345 -0.0908378 -0.401354)
(-0.746705 -0.147112 -0.408374)
(-0.67544 -0.119119 -0.35439)
(-0.679351 -0.145254 -0.3487)
(-0.715044 -0.146746 -0.376149)
(-0.754423 -0.144674 -0.407597)
(-0.797621 -0.114682 -0.442978)
(-0.711396 -0.152838 -0.378952)
(-0.457063 -0.0842202 -0.204814)
(-0.445638 -0.0817335 -0.192607)
(-0.430047 -0.0817374 -0.184287)
(-0.40329 -0.0799562 -0.159858)
(-0.454667 -0.0834708 -0.193706)
(-0.527585 -0.0904828 -0.256797)
(-0.534449 -0.079427 -0.268394)
(-0.519847 -0.083285 -0.257136)
(-0.432973 -0.0945679 -0.170355)
(-0.402993 -0.0937561 -0.154834)
(-0.454449 -0.0866687 -0.203316)
(-0.531701 -0.0851928 -0.272282)
(-0.512765 -0.080749 -0.25466)
(-0.426605 -0.0890034 -0.180603)
(-0.424373 -0.0966268 -0.171115)
(-0.459264 -0.100951 -0.192436)
(-0.921297 -0.114997 -0.521298)
(-0.842086 -0.127567 -0.43778)
(-0.810155 -0.123388 -0.423821)
(-0.913637 -0.109291 -0.521331)
(-0.90387 -0.110743 -0.502822)
(-0.912323 -0.116356 -0.509461)
(-0.877436 -0.126289 -0.455101)
(-0.908056 -0.104704 -0.514208)
(-0.905977 -0.0992791 -0.509802)
(-0.905893 -0.121984 -0.490934)
(-0.872625 -0.134325 -0.456986)
(-0.864919 -0.124034 -0.464958)
(-0.915727 -0.133274 -0.484839)
(-0.901071 -0.106036 -0.511787)
(-0.909208 -0.12898 -0.485332)
(-0.913177 -0.122024 -0.497722)
(-0.907181 -0.106726 -0.50461)
(-0.898908 -0.1076 -0.506014)
(-0.909276 -0.123767 -0.49514)
(-0.913933 -0.131759 -0.489224)
(-0.670011 -0.155005 -0.311628)
(-0.656753 -0.172772 -0.30574)
(-0.636074 -0.194839 -0.285498)
(-0.588425 -0.19592 -0.252054)
(-0.537119 -0.183456 -0.221285)
(-0.568915 -0.175943 -0.234074)
(-0.518249 -0.175576 -0.204788)
(-0.557989 -0.175815 -0.225449)
(-0.588742 -0.177795 -0.239917)
(-0.644605 -0.16161 -0.286998)
(-0.620761 -0.187318 -0.264694)
(-0.704836 -0.105634 -0.41565)
(-0.578586 -0.0960581 -0.301887)
(-0.607991 -0.0977733 -0.338308)
(-0.643108 -0.106235 -0.366468)
(-0.689046 -0.104011 -0.411295)
(-0.583502 -0.0922692 -0.313317)
(-0.55132 -0.0924234 -0.278688)
(-0.560119 -0.095515 -0.292886)
(-0.563514 -0.0911669 -0.288702)
(-0.565463 -0.0882099 -0.301524)
(-0.585902 -0.0964941 -0.326323)
(-0.673669 -0.110413 -0.377818)
(-0.634717 -0.11122 -0.350369)
(-0.61261 -0.105139 -0.340602)
(-0.658727 -0.114138 -0.381563)
(-0.558145 -0.0938045 -0.281386)
(-0.543147 -0.0912788 -0.26812)
(-0.599803 -0.101415 -0.313234)
(-0.569499 -0.0927209 -0.281798)
(-0.690781 -0.100081 -0.394948)
(-0.585555 -0.0958563 -0.305344)
(-0.622265 -0.106346 -0.345012)
(-0.881697 -0.209562 -0.380699)
(-0.812918 -0.202342 -0.338787)
(-0.807186 -0.206577 -0.336102)
(-0.844504 -0.208733 -0.356768)
(-0.913363 -0.215898 -0.409677)
(-0.936004 -0.210447 -0.414479)
(-0.927779 -0.212507 -0.411478)
(-0.928055 -0.211632 -0.409341)
(-0.885639 -0.215804 -0.378743)
(-0.856385 -0.21585 -0.366966)
(-0.836624 -0.217339 -0.350261)
(-0.817874 -0.210073 -0.341301)
(-0.808149 -0.204888 -0.337689)
(-0.758592 -0.196427 -0.30958)
(-0.817701 -0.215109 -0.34204)
(-0.762759 -0.202366 -0.313355)
(-0.920314 -0.218571 -0.412494)
(-0.914969 -0.216672 -0.408489)
(-0.832159 -0.212155 -0.357116)
(-0.915225 -0.218595 -0.405464)
(-0.606561 -0.136108 -0.264206)
(-0.591942 -0.139198 -0.253004)
(-0.652342 -0.138474 -0.301273)
(-0.649025 -0.13043 -0.321313)
(-0.561103 -0.125169 -0.243953)
(-0.552165 -0.125322 -0.239311)
(-0.635434 -0.138489 -0.303742)
(-0.649699 -0.137977 -0.313702)
(-0.56524 -0.126117 -0.250537)
(-0.547119 -0.122873 -0.25076)
(-0.576737 -0.128972 -0.261854)
(-0.563667 -0.121712 -0.269801)
(-0.600858 -0.136425 -0.273289)
(-0.589027 -0.134655 -0.263832)
(-0.540283 -0.128692 -0.233473)
(-0.523098 -0.117945 -0.270043)
(-0.527561 -0.118418 -0.286884)
(-0.501747 -0.117253 -0.265117)
(-0.508394 -0.11944 -0.265728)
(-0.530669 -0.127572 -0.292683)
(-0.581332 -0.122127 -0.316022)
(-0.621837 -0.132314 -0.344936)
(-0.635359 -0.131393 -0.350728)
(-0.666941 -0.139227 -0.372534)
(-0.656447 -0.137552 -0.362351)
(-0.676751 -0.147498 -0.374446)
(-0.542915 -0.122916 -0.286632)
(-0.629209 -0.135681 -0.352465)
(-0.594451 -0.137217 -0.327393)
(-0.565015 -0.120029 -0.314722)
(-0.555401 -0.124282 -0.304581)
(-0.570863 -0.124097 -0.317377)
(-0.585462 -0.129594 -0.32345)
(-0.475882 -0.109231 -0.189864)
(-0.46907 -0.107826 -0.189759)
(-0.457013 -0.105497 -0.17182)
(-0.442015 -0.102594 -0.178131)
(-0.556742 -0.116839 -0.23897)
(-0.482307 -0.114392 -0.191637)
(-0.519099 -0.124981 -0.198123)
(-0.473091 -0.113451 -0.177999)
(-0.484003 -0.117689 -0.181999)
(-0.434715 -0.10838 -0.164264)
(-0.459718 -0.124807 -0.160499)
(-0.57458 -0.135385 -0.234238)
(-0.591656 -0.133161 -0.251201)
(-0.462714 -0.111363 -0.172159)
(-0.488952 -0.124552 -0.185321)
(-0.496183 -0.121568 -0.187917)
(-0.580835 -0.140696 -0.23218)
(-0.535477 -0.14534 -0.201918)
(-0.586661 -0.131418 -0.241457)
(-0.569629 -0.131331 -0.222259)
(-0.518812 -0.123965 -0.206325)
(-0.493493 -0.0738064 -0.257108)
(-0.524781 -0.0827523 -0.272055)
(-0.516749 -0.0827788 -0.265672)
(-0.490507 -0.0691548 -0.264953)
(-0.547865 -0.0678741 -0.308686)
(-0.511495 -0.0729687 -0.279883)
(-0.572405 -0.0662147 -0.332149)
(-0.546192 -0.067911 -0.303557)
(-0.570977 -0.0767023 -0.302574)
(-0.543036 -0.0679403 -0.312243)
(-0.563207 -0.0869922 -0.291886)
(-0.530556 -0.084823 -0.266344)
(-0.524134 -0.0888318 -0.261201)
(-0.567734 -0.0781675 -0.292706)
(-0.604344 -0.0637627 -0.343381)
(-0.581436 -0.0706772 -0.320978)
(-0.512856 -0.0764308 -0.272151)
(-0.571986 -0.0733566 -0.300402)
(-0.610261 -0.0616171 -0.343002)
(-0.430299 -0.0635993 -0.216066)
(-0.431862 -0.0655987 -0.219092)
(-0.420871 -0.0675057 -0.200243)
(-0.45276 -0.0668024 -0.235596)
(-0.420016 -0.0630578 -0.203743)
(-0.465719 -0.0701828 -0.260458)
(-0.444726 -0.0689481 -0.226958)
(-0.44612 -0.0681319 -0.233538)
(-0.542485 -0.0698093 -0.332809)
(-0.503858 -0.0711401 -0.290257)
(-0.472952 -0.0708235 -0.258678)
(-0.556936 -0.0758769 -0.334046)
(-0.550325 -0.0770524 -0.337921)
(-0.528606 -0.0706018 -0.306936)
(-0.51872 -0.0702978 -0.297003)
(-0.896959 -0.224749 -0.45377)
(-0.887418 -0.224966 -0.455999)
(-0.831258 -0.193365 -0.402871)
(-0.860308 -0.211141 -0.428324)
(-0.852263 -0.257269 -0.425099)
(-0.810017 -0.277598 -0.399074)
(-0.842008 -0.253096 -0.415725)
(-0.84554 -0.246523 -0.400563)
(-0.876262 -0.248719 -0.450532)
(-0.860736 -0.22368 -0.432391)
(-0.808374 -0.27083 -0.388071)
(-0.837183 -0.276861 -0.414998)
(-0.483495 -0.0898533 -0.208975)
(-0.491422 -0.0851862 -0.219511)
(-0.482321 -0.0914937 -0.198567)
(-0.484111 -0.0962491 -0.195406)
(-0.56299 -0.0847825 -0.279654)
(-0.608423 -0.0932198 -0.311929)
(-0.579353 -0.0896179 -0.284191)
(-0.612808 -0.0938611 -0.32132)
(-0.619875 -0.0892068 -0.339694)
(-0.623931 -0.0911873 -0.33537)
(-0.518476 -0.0859727 -0.238759)
(-0.539005 -0.0888712 -0.253542)
(-0.557323 -0.0912458 -0.281706)
(-0.488773 -0.0915679 -0.203411)
(-0.522261 -0.0956258 -0.233024)
(-0.550655 -0.0961869 -0.258021)
(-0.848946 -0.190853 -0.46195)
(-0.847319 -0.190016 -0.456185)
(-0.912648 -0.183613 -0.490037)
(-0.774754 -0.198332 -0.414386)
(-0.755182 -0.194724 -0.401172)
(-0.910932 -0.170177 -0.50767)
(-0.89649 -0.171501 -0.482113)
(-0.910603 -0.168638 -0.495491)
(-0.917482 -0.167126 -0.501116)
(-0.922087 -0.174928 -0.512782)
(-0.888886 -0.190909 -0.493803)
(-0.782008 -0.195356 -0.407637)
(-0.806563 -0.192354 -0.408455)
(-0.833398 -0.191496 -0.427168)
(-0.897953 -0.172658 -0.480036)
(-0.811476 -0.188262 -0.419652)
(-0.739369 -0.181728 -0.380339)
(-0.764823 -0.195246 -0.406604)
(-0.732298 -0.192508 -0.382227)
(-0.766934 -0.192946 -0.404495)
(-0.737813 -0.191563 -0.392299)
(-0.893827 -0.182001 -0.489439)
(-0.786036 -0.195977 -0.421431)
(-0.85556 -0.194805 -0.472561)
(-0.870974 -0.107324 -0.495857)
(-0.802927 -0.109287 -0.453953)
(-0.782495 -0.110956 -0.455948)
(-0.911903 -0.11842 -0.546326)
(-0.895134 -0.10664 -0.549564)
(-0.841999 -0.117371 -0.510881)
(-0.795476 -0.118372 -0.472069)
(-0.820071 -0.125651 -0.499008)
(-0.858027 -0.127372 -0.525179)
(-0.880378 -0.104551 -0.506592)
(-0.764552 -0.107353 -0.433045)
(-0.918987 -0.108241 -0.545625)
(-0.910677 -0.106365 -0.551828)
(-0.822638 -0.11886 -0.490491)
(-0.885318 -0.112931 -0.506308)
(-0.809657 -0.11151 -0.462541)
(-0.88476 -0.116204 -0.512595)
(-0.929136 -0.169015 -0.483766)
(-0.928761 -0.175405 -0.485692)
(-0.919859 -0.155805 -0.483047)
(-0.924029 -0.169936 -0.493954)
(-0.862234 -0.188769 -0.423094)
(-0.868775 -0.169116 -0.436775)
(-0.84516 -0.189839 -0.432199)
(-0.919773 -0.178431 -0.471422)
(-0.934323 -0.167399 -0.486497)
(-0.880182 -0.187628 -0.441058)
(-0.871143 -0.182775 -0.420523)
(-0.931058 -0.180675 -0.484689)
(-0.921742 -0.178222 -0.485313)
(-0.927056 -0.161951 -0.490731)
(-0.900287 -0.182935 -0.446596)
(-0.854878 -0.196775 -0.419763)
(-0.832036 -0.190087 -0.400713)
(-0.86442 -0.186661 -0.422505)
(-0.913443 -0.177921 -0.462986)
(-0.929648 -0.163613 -0.486126)
(-0.951515 -0.16065 -0.49325)
(-0.907763 -0.136457 -0.493907)
(-0.891857 -0.135706 -0.477663)
(-0.841229 -0.100562 -0.444953)
(-0.857217 -0.102346 -0.454611)
(-0.888995 -0.149522 -0.473826)
(-0.896057 -0.148682 -0.484938)
(-0.838027 -0.0978122 -0.457404)
(-0.845204 -0.108104 -0.451601)
(-0.845553 -0.100315 -0.452936)
(-0.902376 -0.139955 -0.491797)
(-0.855297 -0.115034 -0.453735)
(-0.862392 -0.138762 -0.463156)
(-0.857769 -0.120421 -0.46061)
(-0.851101 -0.115802 -0.456284)
(-0.836439 -0.131024 -0.44444)
(-0.879465 -0.157721 -0.476781)
(-0.85007 -0.0982248 -0.453956)
(-0.886551 -0.135288 -0.487787)
(-0.900592 -0.130406 -0.488392)
(-0.830201 -0.237138 -0.452951)
(-0.772437 -0.240677 -0.411916)
(-0.826544 -0.230915 -0.455333)
(-0.770937 -0.239171 -0.412697)
(-0.820571 -0.227672 -0.45808)
(-0.785111 -0.22884 -0.436477)
(-0.878308 -0.227825 -0.482806)
(-0.848583 -0.224932 -0.465515)
(-0.7999 -0.231784 -0.441355)
(-0.879448 -0.0968625 -0.478627)
(-0.890202 -0.104841 -0.493457)
(-0.818115 -0.0823455 -0.456106)
(-0.810474 -0.0864585 -0.446197)
(-0.810081 -0.0758114 -0.445008)
(-0.810322 -0.0781354 -0.444623)
(-0.908788 -0.112713 -0.501143)
(-0.900225 -0.111832 -0.507425)
(-0.917849 -0.127321 -0.513434)
(-0.850639 -0.0855439 -0.471551)
(-0.870217 -0.0932415 -0.477731)
(-0.834516 -0.0829713 -0.460382)
(-0.835742 -0.0985585 -0.457122)
(-0.898384 -0.11615 -0.493231)
(-0.878786 -0.119296 -0.498771)
(-0.858104 -0.0932481 -0.475229)
(-0.824931 -0.0802078 -0.459027)
(-0.911991 -0.13608 -0.507919)
(-0.874998 -0.108748 -0.495426)
(-0.883761 -0.111028 -0.497968)
(-0.506476 -0.0827659 -0.250373)
(-0.569575 -0.0774915 -0.324632)
(-0.616376 -0.086997 -0.363993)
(-0.561187 -0.0890775 -0.289142)
(-0.556891 -0.0895651 -0.279589)
(-0.602267 -0.0893129 -0.34184)
(-0.544837 -0.084859 -0.298845)
(-0.570352 -0.0772436 -0.320348)
(-0.63074 -0.0861341 -0.372908)
(-0.599763 -0.0798516 -0.327382)
(-0.556714 -0.0875037 -0.281101)
(-0.590981 -0.0842096 -0.322008)
(-0.613275 -0.091771 -0.351647)
(-0.619216 -0.0926326 -0.366383)
(-0.39352 -0.0929884 -0.204999)
(-0.406758 -0.0953399 -0.21257)
(-0.406674 -0.095973 -0.206618)
(-0.371733 -0.0924677 -0.193797)
(-0.406348 -0.0964131 -0.209177)