/*--------------------------------*- C++ -*----------------------------------*\
| =========                 |                                                 |
| \\      /  F ield         | OpenFOAM: The Open Source CFD Toolbox           |
|  \\    /   O peration     | Version:  v1612+                                |
|   \\  /    A nd           | Web:      www.OpenFOAM.com                      |
|    \\/     M anipulation  |                                                 |
\*---------------------------------------------------------------------------*/
FoamFile
{
    version     2.0;
    format      ascii;
    class       volScalarField;
    location    "100";
    object      p;
}
// * * * * * * * * * * * * * * * * * * * * * * * * * * * * * * * * * * * * * //

dimensions      [0 2 -2 0 0 0 0];

internalField   nonuniform List<scalar> 
17221
(
0.761363
0.763902
0.767518
0.765989
0.769866
0.768631
0.779729
0.779984
0.800075
0.790116
0.77605
0.761827
0.7803
0.767338
0.802947
0.792776
0.794458
0.77489
0.799939
0.797493
0.78243
0.756535
0.768254
0.770563
0.761399
0.77956
0.697386
0.6939
0.711077
0.700303
0.701433
0.677862
0.677812
0.681373
0.686578
0.760976
0.749224
0.765302
0.770629
0.760303
0.738106
0.735297
0.761334
0.746234
0.751085
0.746904
0.746673
0.688131
0.68844
0.689513
0.690319
0.689127
0.690335
0.694508
0.690026
0.685935
0.692899
0.776145
0.767252
0.780365
0.800959
0.521948
0.529717
0.526438
0.508368
0.516581
0.526242
0.523495
0.530937
0.530534
0.52283
0.533163
0.52254
0.51372
0.513428
0.518317
0.534495
0.531489
0.518093
0.52835
0.509374
0.684052
0.683251
0.679576
0.680863
0.68539
0.687643
0.684093
0.689637
0.685829
0.6885
0.684072
0.685015
0.685372
0.722623
0.71767
0.736529
0.708544
0.719195
0.703105
0.709556
0.731149
0.695863
0.692676
0.68892
0.688901
0.686049
0.689031
0.688006
0.690352
0.697247
0.691245
0.695675
0.692141
0.693306
0.697973
0.698116
0.697711
0.688377
0.695396
0.693616
0.698343
0.632602
0.628641
0.626401
0.624083
0.617355
0.617845
0.61878
0.610357
0.625727
0.628866
0.626124
0.620969
0.620369
0.613856
0.614997
0.608762
0.614988
0.616334
0.622842
0.611375
0.6338
0.598434
0.611991
0.63095
0.63005
0.626687
0.631367
0.620549
0.61379
0.615116
0.620982
0.688415
0.67918
0.68304
0.688895
0.690365
0.689416
0.701981
0.704817
0.702045
0.700181
0.552859
0.568609
0.578087
0.57151
0.548896
0.582614
0.556082
0.567356
0.559966
0.570573
0.571777
0.575323
0.557404
0.561908
0.568099
0.557942
0.736697
0.744462
0.722207
0.726309
0.735354
0.734625
0.750516
0.712916
0.721939
0.710293
0.722624
0.719723
0.728561
0.735892
0.579399
0.603713
0.583585
0.58378
0.618339
0.600415
0.605405
0.587425
0.590351
0.615532
0.59853
0.593519
0.616068
0.698678
0.699304
0.702013
0.701662
0.69848
0.703124
0.703755
0.711763
0.707052
0.705642
0.704392
0.705939
0.701623
0.710303
0.706285
0.708681
0.705653
0.708187
0.707679
0.704106
0.706831
0.70631
0.576924
0.582843
0.592408
0.581465
0.578909
0.597709
0.604193
0.705338
0.706011
0.706731
0.706195
0.704
0.703235
0.710098
0.709237
0.706276
0.704728
0.702915
0.703414
0.711744
0.701377
0.701412
0.699709
0.705246
0.706897
0.704821
0.710085
0.662841
0.6636
0.667968
0.65088
0.660117
0.654327
0.654049
0.661924
0.660759
0.652101
0.647708
0.670075
0.662027
0.663477
0.661173
0.65184
0.650091
0.651755
0.652286
0.649732
0.657236
0.6614
0.63237
0.62905
0.629997
0.627569
0.628125
0.616796
0.612618
0.62494
0.622943
0.619368
0.614441
0.612164
0.748339
0.755699
0.765702
0.769298
0.777635
0.771141
0.754581
0.755377
0.782068
0.763149
0.765269
0.752201
0.770063
0.668803
0.663124
0.65389
0.658956
0.671356
0.669507
0.6615
0.661022
0.650305
0.663517
0.667209
0.666434
0.664935
0.666145
0.660567
0.688816
0.693189
0.6941
0.689846
0.691667
0.69074
0.690355
0.685795
0.688761
0.689143
0.692974
0.692033
0.687615
0.688528
0.691874
0.557936
0.559282
0.537994
0.550009
0.546736
0.53509
0.54385
0.559681
0.562407
0.536234
0.532869
0.541045
0.548054
0.552707
0.537006
0.543055
0.726092
0.738926
0.747343
0.751305
0.762067
0.736522
0.732467
0.720449
0.735225
0.74413
0.759208
0.756028
0.734498
0.74865
0.754635
0.740582
0.741137
0.737797
0.735149
0.732306
0.734102
0.733637
0.714315
0.726341
0.723051
0.726576
0.704544
0.707217
0.720537
0.703694
0.714663
0.713873
0.719141
0.705206
0.712929
0.673147
0.677981
0.687571
0.679654
0.686778
0.679949
0.681175
0.676671
0.671005
0.672492
0.679024
0.670579
0.671799
0.671299
0.668591
0.749317
0.744894
0.741993
0.754019
0.735558
0.726436
0.735165
0.729725
0.721319
0.72848
0.744175
0.743557
0.717174
0.744807
0.716342
0.716111
0.727851
0.718427
0.738327
0.721846
0.710293
0.717424
0.731718
0.722282
0.680353
0.686625
0.704323
0.704727
0.66805
0.675768
0.699837
0.683289
0.701049
0.676769
0.688265
0.712246
0.7074
0.699305
0.676824
0.714385
0.678649
0.709085
0.673534
0.668887
0.665135
0.686157
0.664695
0.664937
0.735164
0.729632
0.744284
0.752566
0.725195
0.733196
0.744849
0.747186
0.741784
0.725516
0.738205
0.733053
0.742443
0.745713
0.733993
0.745802
0.734232
0.735131
0.72804
0.718613
0.72477
0.558166
0.559394
0.551551
0.567616
0.581592
0.577941
0.560562
0.54971
0.584882
0.603558
0.570728
0.554581
0.542799
0.564592
0.579686
0.550686
0.564536
0.720133
0.717093
0.736762
0.746225
0.73747
0.73717
0.738832
0.737956
0.757681
0.757562
0.746401
0.746728
0.745011
0.752214
0.727467
0.738345
0.741122
0.736433
0.766052
0.761543
0.774155
0.756212
0.767443
0.762886
0.75408
0.759182
0.768683
0.752714
0.75318
0.739666
0.746124
0.766238
0.767013
0.760116
0.749401
0.725676
0.730266
0.736405
0.635951
0.643528
0.637064
0.630772
0.631718
0.647639
0.636753
0.659536
0.654027
0.637703
0.637586
0.643622
0.643706
0.654921
0.647211
0.642861
0.64838
0.790387
0.78399
0.776473
0.797449
0.783899
0.797731
0.784128
0.773229
0.777253
0.773791
0.770481
0.700629
0.70089
0.715666
0.722445
0.709484
0.698108
0.682766
0.696535
0.688561
0.715536
0.69415
0.670504
0.664227
0.672753
0.675082
0.579047
0.577333
0.576209
0.574868
0.589264
0.582727
0.585662
0.586051
0.581388
0.586531
0.586783
0.583199
0.58019
0.579434
0.59155
0.593397
0.589623
0.593938
0.59573
0.56344
0.559264
0.546834
0.554443
0.556522
0.563182
0.556077
0.539129
0.540006
0.529543
0.548271
0.542664
0.536646
0.534935
0.541718
0.528019
0.715623
0.720697
0.757982
0.741338
0.714318
0.75972
0.771162
0.745903
0.75123
0.734153
0.751316
0.742339
0.759536
0.745879
0.753453
0.723636
0.736279
0.77086
0.772163
0.735923
0.753741
0.731584
0.71019
0.714836
0.702495
0.705038
0.733293
0.72435
0.709821
0.725446
0.722382
0.739222
0.706799
0.751257
0.745523
0.728838
0.737005
0.70727
0.744731
0.743607
0.683691
0.70876
0.670949
0.690228
0.706421
0.71024
0.661767
0.677559
0.70628
0.705041
0.670568
0.676475
0.68864
0.688107
0.698351
0.559264
0.551674
0.549679
0.553737
0.555155
0.545639
0.54238
0.550528
0.75257
0.7616
0.748931
0.731614
0.725647
0.739955
0.747102
0.73506
0.722414
0.752399
0.74513
0.750624
0.736399
0.609777
0.617713
0.620186
0.604325
0.603043
0.610163
0.604001
0.64006
0.652099
0.658845
0.661253
0.651779
0.65204
0.661098
0.657466
0.6342
0.642511
0.650978
0.637854
0.669027
0.670497
0.648133
0.649565
0.651208
0.65481
0.635457
0.650253
0.665385
0.630876
0.622069
0.629228
0.627799
0.627806
0.624505
0.613499
0.618628
0.624526
0.627381
0.617111
0.614889
0.623565
0.617695
0.620748
0.621117
0.618001
0.617165
0.610086
0.615956
0.619033
0.665516
0.675026
0.6655
0.679425
0.675924
0.668012
0.677618
0.681491
0.681062
0.672152
0.662865
0.664382
0.669804
0.668099
0.676962
0.670417
0.702947
0.702558
0.682043
0.677787
0.724679
0.730629
0.714018
0.701175
0.680849
0.690024
0.685292
0.687846
0.733054
0.735234
0.704465
0.715162
0.733708
0.722823
0.703204
0.72426
0.680944
0.689226
0.67543
0.68023
0.68148
0.6807
0.687925
0.677125
0.684435
0.686524
0.680691
0.678136
0.67634
0.677491
0.675227
0.717507
0.725645
0.688967
0.680826
0.684118
0.694381
0.722755
0.720918
0.696306
0.681682
0.72192
0.682133
0.68603
0.716537
0.677064
0.689732
0.707707
0.691414
0.686502
0.685919
0.693571
0.705233
0.738208
0.750457
0.745425
0.755585
0.736716
0.73821
0.735876
0.728984
0.737779
0.733001
0.740897
0.720804
0.728984
0.719944
0.725703
0.774457
0.782269
0.777799
0.778951
0.771705
0.778911
0.766313
0.769575
0.772987
0.76796
0.777567
0.788952
0.76391
0.779293
0.783916
0.774771
0.767866
0.791779
0.788097
0.651734
0.665292
0.67031
0.67802
0.681394
0.652728
0.667542
0.66795
0.662327
0.650708
0.663825
0.678424
0.655549
0.662962
0.670641
0.659282
0.674522
0.670448
0.687711
0.682227
0.675257
0.670645
0.677958
0.680883
0.63863
0.643358
0.644248
0.653199
0.639993
0.65368
0.669443
0.664918
0.67858
0.654866
0.669414
0.639643
0.641355
0.652799
0.649674
0.661877
0.771141
0.784117
0.784799
0.782652
0.777329
0.75376
0.766191
0.76513
0.761979
0.746812
0.75463
0.778069
0.781364
0.783874
0.786314
0.766919
0.780765
0.699754
0.698335
0.695269
0.697725
0.696772
0.70084
0.68897
0.6937
0.696727
0.689182
0.691936
0.69351
0.69129
0.684706
0.696582
0.633879
0.630501
0.631215
0.622163
0.628447
0.613809
0.60643
0.584979
0.590786
0.623387
0.622714
0.58752
0.576623
0.619462
0.593039
0.599358
0.588181
0.601531
0.586693
0.615981
0.60333
0.523486
0.534582
0.542684
0.540489
0.528481
0.523181
0.517653
0.531598
0.529532
0.545161
0.542339
0.52269
0.521572
0.521986
0.546701
0.540223
0.531616
0.527502
0.53398
0.770215
0.77572
0.773175
0.769929
0.76085
0.75444
0.780936
0.788606
0.775904
0.789333
0.761037
0.773181
0.782446
0.784429
0.768042
0.769481
0.753445
0.772808
0.773281
0.657513
0.665967
0.661372
0.632764
0.621265
0.63405
0.655774
0.652508
0.61768
0.645703
0.617464
0.641128
0.647506
0.639715
0.634802
0.631003
0.644568
0.637605
0.655778
0.623731
0.655376
0.622691
0.668107
0.660417
0.659672
0.662628
0.667562
0.66419
0.653794
0.662647
0.669073
0.674021
0.673013
0.665142
0.663607
0.665309
0.663104
0.670018
0.661407
0.671457
0.670859
0.661969
0.664934
0.712637
0.716006
0.690375
0.704142
0.71361
0.684819
0.687217
0.684937
0.680339
0.703774
0.692956
0.706918
0.705361
0.718127
0.699652
0.705742
0.623076
0.62687
0.594171
0.586878
0.609227
0.620043
0.618229
0.590938
0.600637
0.593325
0.602841
0.615078
0.615077
0.615877
0.623325
0.614403
0.627394
0.637315
0.644842
0.648977
0.648515
0.651683
0.646103
0.648878
0.661887
0.745626
0.73764
0.73472
0.730882
0.753783
0.75032
0.734428
0.72212
0.74285
0.743905
0.745735
0.764864
0.757059
0.743489
0.753056
0.755757
0.759767
0.738378
0.761145
0.75076
0.763351
0.748708
0.771845
0.76859
0.712704
0.701701
0.71517
0.708543
0.684812
0.671457
0.69357
0.696096
0.705891
0.6866
0.695325
0.695882
0.684589
0.677526
0.69928
0.691264
0.689585
0.626392
0.630696
0.636255
0.631317
0.618334
0.629659
0.636254
0.635212
0.63075
0.623684
0.637739
0.644135
0.616982
0.628428
0.636481
0.630953
0.64023
0.617801
0.617485
0.614785
0.625958
0.625276
0.723878
0.718002
0.716937
0.717206
0.722305
0.72638
0.726752
0.731466
0.730598
0.719926
0.73187
0.726436
0.726848
0.729404
0.725787
0.723456
0.724584
0.725874
0.707474
0.71412
0.718093
0.726009
0.717112
0.712069
0.725878
0.727578
0.738403
0.740082
0.719345
0.70655
0.708338
0.719726
0.736388
0.726463
0.718719
0.751058
0.746422
0.742163
0.73166
0.732249
0.734124
0.73816
0.73615
0.514309
0.507972
0.508964
0.725651
0.725612
0.714053
0.620183
0.623927
0.606042
0.603792
0.776253
0.786545
0.786118
0.620975
0.62569
0.613449
0.621379
0.695368
0.70023
0.542111
0.533627
0.530735
0.544817
0.542084
0.629938
0.629036
0.622009
0.758586
0.742811
0.750543
0.621771
0.617107
0.622558
0.739535
0.747609
0.738804
0.720695
0.719869
0.688124
0.685914
0.689935
0.632078
0.632548
0.705631
0.693069
0.691258
0.691279
0.675239
0.666312
0.667602
0.50798
0.511296
0.642682
0.632471
0.632124
0.581287
0.588801
0.696236
0.694102
0.695283
0.681917
0.680593
0.785309
0.784596
0.762875
0.76554
0.526297
0.521657
0.699481
0.707272
0.709293
0.698736
0.800521
0.800899
0.693837
0.694607
0.684647
0.706917
0.70869
0.706265
0.767159
0.772188
0.768482
0.665122
0.663239
0.696074
0.703868
0.701928
0.776717
0.77654
0.672586
0.67679
0.670369
0.675448
0.721823
0.731756
0.739545
0.705001
0.704724
0.686839
0.780787
0.781343
0.740187
0.736777
0.748382
0.755122
0.750854
0.652919
0.640426
0.626395
0.653704
0.659703
0.658923
0.653885
0.660751
0.650444
0.75873
0.749419
0.750788
0.495242
0.502977
0.495135
0.585455
0.57529
0.573633
0.579176
0.581939
0.589141
0.588269
0.685218
0.68329
0.653931
0.65947
0.658167
0.658587
0.756463
0.739931
0.744501
0.699646
0.575116
0.573604
0.584172
0.586909
0.602913
0.612108
0.795799
0.786982
0.789695
0.567351
0.573355
0.574454
0.583239
0.583465
0.579723
0.754675
0.765632
0.754646
0.679651
0.67324
0.549552
0.54851
0.560123
0.573917
0.715544
0.714986
0.784357
0.792347
0.783661
0.553177
0.562581
0.570631
0.565935
0.565983
0.571835
0.769266
0.762577
0.761387
0.575427
0.570936
0.635807
0.616066
0.631692
0.627164
0.550221
0.539506
0.536548
0.5253
0.617995
0.626723
0.620874
0.606649
0.57613
0.570435
0.565524
0.761286
0.777813
0.7739
0.790424
0.723383
0.739828
0.743695
0.745977
0.756728
0.745416
0.771276
0.748583
0.774083
0.762241
0.780643
0.772334
0.754251
0.75488
0.757205
0.751584
0.737946
0.72001
0.741066
0.514862
0.511595
0.510483
0.519357
0.552854
0.548227
0.541246
0.564194
0.536799
0.542129
0.535261
0.566981
0.58255
0.575849
0.58523
0.574986
0.804409
0.803137
0.752295
0.756124
0.748137
0.763995
0.768162
0.781351
0.772751
0.778049
0.765722
0.766427
0.775898
0.773202
0.70643
0.705065
0.707437
0.710315
0.710956
0.706365
0.710857
0.713004
0.717202
0.711035
0.712165
0.711737
0.714845
0.711564
0.709833
0.709591
0.544918
0.544909
0.541736
0.549857
0.555757
0.716781
0.720526
0.714212
0.626907
0.618918
0.630112
0.639578
0.696749
0.691877
0.675506
0.695
0.658817
0.636161
0.630779
0.667098
0.658723
0.657932
0.660396
0.682966
0.666057
0.687385
0.678729
0.699103
0.700739
0.644224
0.663644
0.654802
0.654574
0.655513
0.670091
0.787705
0.78234
0.779243
0.779781
0.778156
0.784804
0.713504
0.723556
0.718882
0.723548
0.749422
0.730402
0.744804
0.739995
0.751415
0.737012
0.751685
0.750853
0.752587
0.739257
0.608976
0.607012
0.603741
0.790652
0.79951
0.791887
0.794144
0.784181
0.777061
0.787081
0.785763
0.780923
0.624316
0.615103
0.602882
0.559214
0.540135
0.554338
0.57699
0.547378
0.545303
0.545443
0.58434
0.576103
0.650756
0.640338
0.619794
0.62357
0.629248
0.63476
0.599799
0.59676
0.600818
0.602448
0.620357
0.629704
0.60832
0.614664
0.624047
0.693698
0.697042
0.6954
0.707929
0.705606
0.707886
0.704289
0.705377
0.703232
0.704635
0.701838
0.704381
0.703562
0.705118
0.700018
0.70089
0.687691
0.694405
0.770753
0.752052
0.764459
0.769541
0.757399
0.751291
0.757888
0.761227
0.752535
0.678258
0.672631
0.676436
0.650018
0.654824
0.670356
0.649491
0.658813
0.660113
0.645216
0.641156
0.654052
0.649937
0.64585
0.653282
0.653201
0.648758
0.642596
0.639435
0.650381
0.656951
0.648562
0.644226
0.670308
0.67624
0.676113
0.670165
0.666659
0.645877
0.64973
0.65218
0.65437
0.657855
0.657147
0.653724
0.674518
0.681482
0.678537
0.675225
0.680079
0.683647
0.689749
0.682375
0.692219
0.683635
0.684477
0.689009
0.692616
0.693032
0.691449
0.697803
0.695295
0.691103
0.686313
0.690765
0.693053
0.692466
0.68587
0.688977
0.683397
0.683951
0.702933
0.606676
0.603303
0.596792
0.589028
0.597365
0.603093
0.604723
0.588848
0.602366
0.589442
0.596841
0.608651
0.611575
0.594613
0.59311
0.593474
0.587683
0.592526
0.597148
0.575043
0.575162
0.576354
0.584211
0.581313
0.582246
0.569471
0.556247
0.557086
0.565264
0.551486
0.558555
0.562861
0.606703
0.608131
0.593908
0.597982
0.606473
0.612794
0.627497
0.601569
0.614383
0.608551
0.603042
0.601785
0.600383
0.602359
0.602177
0.58456
0.588352
0.586922
0.587995
0.580425
0.591789
0.588805
0.589959
0.595187
0.578487
0.582726
0.495931
0.49985
0.499616
0.502311
0.49526
0.486668
0.479543
0.492649
0.490451
0.496496
0.499394
0.490257
0.501322
0.497314
0.495121
0.489314
0.508264
0.501285
0.499762
0.495895
0.496391
0.50356
0.734147
0.749436
0.75349
0.75855
0.737729
0.735946
0.717874
0.717165
0.706297
0.734269
0.736595
0.729214
0.744863
0.734817
0.764741
0.647913
0.644554
0.625833
0.652263
0.63389
0.645482
0.655554
0.674415
0.688669
0.688881
0.682042
0.688778
0.663882
0.663986
0.675163
0.666641
0.669207
0.658278
0.666916
0.665275
0.670938
0.64798
0.648442
0.639803
0.645857
0.636262
0.644113
0.635135
0.640016
0.651819
0.662693
0.654979
0.67551
0.671483
0.664186
0.662353
0.658988
0.654314
0.671034
0.671273
0.634492
0.636536
0.638424
0.64872
0.647204
0.646182
0.644832
0.641647
0.640667
0.558626
0.561871
0.539679
0.659506
0.65063
0.668244
0.667127
0.660092
0.726927
0.710039
0.711544
0.701751
0.661878
0.658205
0.65434
0.642395
0.64149
0.641079
0.603991
0.617309
0.646846
0.635541
0.622987
0.629078
0.765319
0.760748
0.781647
0.766669
0.761757
0.754496
0.781211
0.777469
0.761977
0.759548
0.76393
0.77368
0.775938
0.770137
0.761286
0.725629
0.729607
0.736742
0.767786
0.763678
0.740201
0.743287
0.754078
0.749153
0.720722
0.710687
0.720109
0.741225
0.765136
0.754286
0.754353
0.748232
0.761223
0.759436
0.74326
0.740077
0.735039
0.722732
0.713087
0.721512
0.718948
0.72487
0.73746
0.736462
0.738883
0.73807
0.739833
0.732032
0.732838
0.762899
0.770274
0.766383
0.780909
0.781943
0.770462
0.771574
0.772739
0.785801
0.786757
0.770233
0.771053
0.765488
0.773511
0.783851
0.774316
0.785578
0.765938
0.754016
0.766234
0.780796
0.780765
0.774633
0.767496
0.775099
0.768284
0.772762
0.765234
0.782435
0.779865
0.772055
0.665247
0.671884
0.673979
0.705903
0.703715
0.695171
0.676773
0.695596
0.697989
0.667574
0.695865
0.713873
0.707882
0.713254
0.70766
0.691418
0.688381
0.718407
0.724319
0.7541
0.771582
0.750803
0.702457
0.697627
0.707401
0.710076
0.719574
0.774717
0.763651
0.757687
0.751126
0.753781
0.747423
0.692116
0.68525
0.6901
0.690396
0.691855
0.679449
0.681405
0.675266
0.663126
0.658335
0.657645
0.663089
0.678744
0.669521
0.678237
0.674873
0.673257
0.674452
0.494364
0.497027
0.498753
0.496543
0.499053
0.498295
0.773007
0.762673
0.771452
0.772616
0.784781
0.761405
0.766371
0.786562
0.765186
0.786568
0.77718
0.71975
0.723752
0.706316
0.730121
0.717875
0.736205
0.744329
0.738362
0.740759
0.730531
0.718938
0.726968
0.714373
0.680163
0.684007
0.685361
0.690442
0.698636
0.694302
0.692934
0.680533
0.681342
0.684888
0.678997
0.671542
0.668769
0.679189
0.673062
0.672994
0.671602
0.681551
0.679059
0.684108
0.670848
0.670563
0.628737
0.634947
0.647337
0.645375
0.648217
0.649465
0.734802
0.728405
0.729587
0.759537
0.748335
0.761706
0.767047
0.776253
0.77544
0.764319
0.748968
0.751184
0.743633
0.754981
0.752508
0.744991
0.767492
0.751424
0.755998
0.755219
0.744301
0.758993
0.751687
0.752157
0.749836
0.739945
0.757169
0.741065
0.76877
0.714535
0.711965
0.710706
0.714597
0.716623
0.71675
0.709583
0.711204
0.712195
0.710192
0.672103
0.683874
0.676609
0.685943
0.70046
0.696741
0.687377
0.70255
0.702072
0.67347
0.686004
0.682218
0.685284
0.680975
0.797057
0.789376
0.786638
0.797131
0.799605
0.803095
0.795473
0.803427
0.796763
0.794394
0.792493
0.789504
0.787132
0.791021
0.796286
0.7877
0.793607
0.791543
0.783297
0.796322
0.781959
0.798456
0.781374
0.796097
0.792835
0.789207
0.713843
0.699028
0.695057
0.698342
0.720121
0.719596
0.705041
0.721018
0.732036
0.727173
0.714795
0.735949
0.711754
0.682928
0.680926
0.695814
0.696475
0.698665
0.686533
0.695723
0.559931
0.562801
0.577154
0.542229
0.540305
0.520134
0.501106
0.48921
0.498492
0.514097
0.496074
0.497783
0.551305
0.549414
0.543443
0.740327
0.71377
0.715333
0.716047
0.749614
0.752517
0.764149
0.743929
0.727912
0.74215
0.74682
0.744236
0.782331
0.775387
0.771915
0.768098
0.756095
0.757073
0.748437
0.758927
0.763194
0.763155
0.759269
0.771436
0.770964
0.777421
0.750536
0.759703
0.779499
0.773344
0.76458
0.774306
0.787083
0.793928
0.777624
0.773424
0.78786
0.784595
0.776168
0.779937
0.685743
0.681651
0.681669
0.685334
0.685135
0.708023
0.709391
0.701489
0.702927
0.699361
0.697685
0.697421
0.701825
0.702497
0.702562
0.699296
0.703158
0.703972
0.701236
0.701611
0.698931
0.697071
0.691786
0.691931
0.690502
0.686306
0.686941
0.686749
0.573633
0.572059
0.572274
0.567639
0.551386
0.577196
0.578409
0.562189
0.601693
0.604241
0.604602
0.614038
0.610672
0.618361
0.648179
0.63488
0.630857
0.631022
0.633124
0.627941
0.607174
0.593886
0.612996
0.624202
0.611612
0.613984
0.597279
0.606146
0.637556
0.634628
0.639778
0.652797
0.649325
0.636928
0.643357
0.664325
0.675618
0.652537
0.66872
0.518918
0.52111
0.520455
0.511447
0.533958
0.545854
0.530855
0.527607
0.5422
0.533101
0.521708
0.670431
0.677341
0.652935
0.652769
0.657162
0.656632
0.664335
0.657056
0.652897
0.657785
0.656679
0.665182
0.663089
0.658811
0.657726
0.703951
0.695557
0.704684
0.707605
0.700102
0.704138
0.698403
0.696527
0.697095
0.696959
0.696704
0.69479
0.70251
0.701017
0.705083
0.733111
0.740603
0.709436
0.701119
0.70804
0.722453
0.70985
0.744061
0.744404
0.729771
0.716258
0.726584
0.736561
0.738054
0.731793
0.734045
0.688008
0.691271
0.672063
0.695829
0.625179
0.610113
0.619327
0.616245
0.625484
0.72166
0.720778
0.72568
0.72948
0.732355
0.7172
0.719621
0.719116
0.720334
0.722108
0.721709
0.712681
0.732399
0.727298
0.739866
0.728652
0.733707
0.754261
0.761844
0.759806
0.758016
0.768429
0.745848
0.765413
0.757951
0.758041
0.752968
0.741699
0.747304
0.634799
0.639933
0.62537
0.633507
0.624656
0.754091
0.746898
0.749644
0.731761
0.757742
0.735551
0.764356
0.746951
0.758747
0.756096
0.76738
0.736564
0.750612
0.657662
0.661092
0.642054
0.652195
0.647048
0.645132
0.640095
0.638298
0.638767
0.621555
0.623987
0.617071
0.619016
0.515946
0.523786
0.521861
0.537171
0.640941
0.624769
0.642644
0.724662
0.714073
0.700657
0.722265
0.710308
0.703583
0.698826
0.668144
0.668614
0.677979
0.681738
0.679419
0.66682
0.708315
0.727151
0.717632
0.721328
0.736191
0.721395
0.717996
0.710493
0.641597
0.63353
0.6358
0.631398
0.640189
0.636718
0.64338
0.646966
0.796938
0.806718
0.795001
0.780903
0.795421
0.785083
0.781105
0.799933
0.785464
0.790509
0.81041
0.795874
0.789372
0.607192
0.615035
0.60715
0.610018
0.606435
0.598749
0.581752
0.586565
0.593412
0.598306
0.5991
0.597499
0.598833
0.604691
0.607123
0.61519
0.616279
0.607538
0.623199
0.629198
0.632718
0.624713
0.623488
0.599269
0.606727
0.619617
0.74176
0.759565
0.745942
0.742955
0.755059
0.767515
0.767967
0.769381
0.768937
0.746204
0.737045
0.705317
0.693309
0.690333
0.702576
0.707367
0.692614
0.712649
0.720547
0.72105
0.706016
0.708599
0.708461
0.714638
0.725863
0.703429
0.718678
0.712514
0.702723
0.713841
0.736496
0.734421
0.729867
0.502471
0.500475
0.510422
0.508829
0.503956
0.513569
0.513243
0.527877
0.544071
0.519398
0.514607
0.522332
0.525464
0.518199
0.511428
0.513701
0.506688
0.508548
0.500777
0.510563
0.500321
0.55407
0.528808
0.528799
0.528918
0.529298
0.530769
0.546458
0.514979
0.520275
0.531066
0.50987
0.539691
0.538562
0.519648
0.521295
0.515353
0.516141
0.504084
0.503524
0.503202
0.500083
0.510189
0.497951
0.523072
0.513706
0.508764
0.509111
0.49669
0.503346
0.729302
0.732911
0.744469
0.744029
0.737169
0.711558
0.734099
0.720836
0.702181
0.677158
0.689539
0.704455
0.696891
0.697809
0.686524
0.69711
0.695158
0.709154
0.71142
0.636305
0.634398
0.632698
0.633311
0.633805
0.623478
0.619383
0.626332
0.62322
0.630306
0.598565
0.591395
0.604025
0.612898
0.594869
0.601434
0.602517
0.590914
0.578232
0.591029
0.593336
0.601164
0.589345
0.607472
0.621125
0.587583
0.577376
0.619035
0.615305
0.639528
0.621849
0.623523
0.623855
0.645339
0.634485
0.629508
0.618315
0.587243
0.590313
0.603342
0.619837
0.574253
0.568397
0.587547
0.581881
0.612357
0.656447
0.647928
0.647751
0.647843
0.641062
0.646455
0.648559
0.634473
0.628511
0.638701
0.636271
0.630781
0.641621
0.640855
0.639877
0.620505
0.635351
0.630939
0.613079
0.6051
0.622914
0.624385
0.602315
0.620582
0.613208
0.607329
0.616897
0.61877
0.618961
0.632666
0.629831
0.622214
0.631887
0.625141
0.61757
0.611705
0.750748
0.736214
0.775636
0.777234
0.770253
0.764058
0.756098
0.727583
0.730829
0.73271
0.723883
0.721112
0.723787
0.703037
0.698637
0.705735
0.700493
0.714735
0.716787
0.714393
0.714087
0.716089
0.71534
0.717377
0.715218
0.745934
0.739477
0.743184
0.734852
0.732561
0.739229
0.743821
0.736209
0.728975
0.733959
0.729077
0.737001
0.737005
0.732728
0.73424
0.733948
0.727571
0.732556
0.738204
0.728515
0.726295
0.714269
0.717434
0.72118
0.720079
0.715774
0.720906
0.719592
0.717072
0.749233
0.730389
0.723979
0.724712
0.728318
0.720497
0.709791
0.688138
0.691655
0.699415
0.64854
0.698069
0.685112
0.699584
0.696698
0.700487
0.681467
0.656401
0.700348
0.707741
0.68422
0.693186
0.694194
0.690545
0.662921
0.653818
0.67868
0.682436
0.548487
0.544716
0.545441
0.536549
0.54341
0.531913
0.530567
0.539423
0.538758
0.529802
0.532767
0.676682
0.658266
0.652145
0.647454
0.67305
0.682125
0.659109
0.67564
0.674639
0.666936
0.66004
0.709622
0.706319
0.702238
0.712635
0.708998
0.706958
0.70361
0.70959
0.710845
0.709336
0.716821
0.711682
0.71191
0.710483
0.700358
0.778636
0.787946
0.778686
0.776817
0.772487
0.783092
0.776402
0.762463
0.756512
0.756698
0.774352
0.777887
0.773205
0.776888
0.763319
0.780319
0.771173
0.764374
0.760686
0.788208
0.77349
0.786264
0.767385
0.730125
0.752171
0.758843
0.763037
0.752259
0.750239
0.738256
0.733667
0.742193
0.74103
0.792207
0.795054
0.794458
0.805302
0.798025
0.640493
0.627662
0.613443
0.640647
0.650498
0.78619
0.792882
0.784635
0.805411
0.795855
0.791087
0.78589
0.78548
0.788836
0.803013
0.791088
0.766139
0.781445
0.769191
0.786474
0.779781
0.786588
0.792128
0.784132
0.791244
0.784622
0.788855
0.79683
0.789837
0.677105
0.68354
0.674494
0.681539
0.678291
0.69457
0.681159
0.679831
0.684037
0.696815
0.690035
0.685257
0.692043
0.674437
0.667786
0.690244
0.675879
0.666341
0.681949
0.680549
0.662944
0.69215
0.678022
0.686711
0.681311
0.669009
0.664383
0.667385
0.57681
0.573614
0.564687
0.568241
0.732318
0.766987
0.744347
0.7356
0.743637
0.737521
0.772984
0.756882
0.758978
0.74276
0.780974
0.753948
0.779343
0.774547
0.766937
0.752942
0.755189
0.7513
0.748014
0.776803
0.749246
0.782055
0.765779
0.743714
0.766342
0.75426
0.759339
0.753836
0.747221
0.765669
0.76244
0.756336
0.752734
0.671064
0.67371
0.667283
0.668313
0.667983
0.670615
0.675692
0.675088
0.687979
0.689656
0.688715
0.687637
0.689026
0.683382
0.686028
0.658266
0.659259
0.664738
0.652919
0.650606
0.659163
0.65879
0.667224
0.665295
0.66518
0.663464
0.680823
0.682426
0.684474
0.681118
0.680249
0.675625
0.670617
0.683682
0.677866
0.684642
0.688848
0.684767
0.686586
0.684125
0.678379
0.683727
0.729019
0.718261
0.716954
0.704626
0.717092
0.710828
0.699119
0.691573
0.711819
0.727981
0.726451
0.727096
0.738116
0.732314
0.745144
0.72657
0.730841
0.655937
0.667447
0.662013
0.668018
0.66153
0.655984
0.643512
0.67822
0.687793
0.772675
0.774929
0.768245
0.787448
0.776335
0.769585
0.784745
0.779919
0.782899
0.773785
0.779626
0.761371
0.763541
0.776287
0.768881
0.77958
0.774837
0.770017
0.772188
0.762068
0.764969
0.774269
0.774052
0.767914
0.769655
0.770023
0.765079
0.77179
0.77992
0.772583
0.766016
0.760208
0.779747
0.761546
0.754904
0.758012
0.759135
0.766312
0.761494
0.762548
0.779191
0.751007
0.752452
0.768605
0.726294
0.734531
0.742156
0.731179
0.730181
0.722549
0.717247
0.730241
0.746143
0.742878
0.721451
0.717273
0.735649
0.738426
0.740212
0.739798
0.754692
0.745715
0.744787
0.742139
0.732852
0.738616
0.728731
0.727608
0.73305
0.725799
0.776242
0.77646
0.759608
0.770025
0.743444
0.746148
0.738118
0.738253
0.728326
0.749259
0.750844
0.750054
0.679403
0.678547
0.706147
0.709573
0.716675
0.707136
0.703945
0.700723
0.682403
0.675457
0.682422
0.687736
0.690078
0.71187
0.718497
0.686385
0.697772
0.555927
0.577071
0.574753
0.543014
0.542928
0.548781
0.533317
0.535325
0.541798
0.664866
0.666883
0.675191
0.681146
0.676114
0.67115
0.666843
0.662539
0.655201
0.661611
0.655431
0.665755
0.658966
0.654782
0.657827
0.634547
0.637403
0.651968
0.661193
0.651498
0.656419
0.667379
0.639456
0.639623
0.672465
0.669733
0.669818
0.668748
0.666569
0.667153
0.674672
0.673749
0.667559
0.668777
0.668073
0.667292
0.672475
0.633772
0.636054
0.63789
0.648634
0.631245
0.636722
0.624222
0.63124
0.512782
0.524666
0.513184
0.503067
0.512318
0.605937
0.597994
0.59712
0.588027
0.585925
0.598371
0.581432
0.585944
0.569558
0.575805
0.591261
0.583626
0.573738
0.697044
0.696089
0.701223
0.696103
0.690301
0.694387
0.69128
0.699934
0.704426
0.704588
0.707271
0.700127
0.700296
0.697901
0.640343
0.629006
0.646872
0.641059
0.646836
0.649222
0.654608
0.658044
0.668701
0.6653
0.660659
0.655499
0.657945
0.663748
0.671647
0.677895
0.674401
0.670981
0.67269
0.684209
0.676174
0.67433
0.670497
0.757893
0.762685
0.776513
0.768922
0.771856
0.782655
0.779482
0.780853
0.774272
0.760755
0.766818
0.778096
0.780662
0.774417
0.775497
0.692078
0.678466
0.686256
0.681819
0.685806
0.685346
0.68723
0.679069
0.699642
0.689126
0.676161
0.69332
0.667619
0.566263
0.560061
0.558642
0.560837
0.560896
0.556156
0.581345
0.591921
0.54598
0.531727
0.534099
0.550557
0.54942
0.551431
0.549173
0.54878
0.539301
0.544279
0.541685
0.549938
0.585474
0.583411
0.603945
0.56237
0.569549
0.574557
0.623648
0.592836
0.590287
0.565388
0.562133
0.605203
0.615859
0.76832
0.787201
0.753932
0.776138
0.771145
0.713104
0.711839
0.720805
0.707407
0.714005
0.716773
0.711356
0.715731
0.707516
0.71875
0.717458
0.713405
0.716871
0.720578
0.704957
0.700968
0.725491
0.718984
0.72554
0.722683
0.687571
0.702434
0.704086
0.716252
0.684779
0.567209
0.577309
0.572164
0.562421
0.574393
0.562184
0.559335
0.56414
0.562005
0.573416
0.56686
0.713371
0.711764
0.712731
0.708478
0.711229
0.782418
0.797489
0.796237
0.793543
0.786204
0.723542
0.734039
0.728956
0.732879
0.716069
0.71913
0.70584
0.743598
0.730217
0.759325
0.746511
0.767806
0.754104
0.755466
0.774406
0.771761
0.762694
0.719943
0.743497
0.749365
0.720382
0.715355
0.757142
0.750339
0.730602
0.721864
0.692766
0.70152
0.711454
0.711017
0.701265
0.726079
0.728977
0.727611
0.585009
0.601534
0.569993
0.568824
0.587766
0.618484
0.599107
0.586033
0.61757
0.608739
0.628451
0.634967
0.67232
0.677011
0.656169
0.642389
0.656137
0.634363
0.673689
0.652232
0.667943
0.682182
0.594597
0.59294
0.605795
0.575994
0.564945
0.56489
0.559867
0.602773
0.601962
0.76658
0.772408
0.768538
0.783003
0.777953
0.770105
0.775488
0.781344
0.770833
0.770284
0.777919