/*--------------------------------*- C++ -*----------------------------------*\
| =========                 |                                                 |
| \\      /  F ield         | OpenFOAM: The Open Source CFD Toolbox           |
|  \\    /   O peration     | Version:  v1612+                                |
|   \\  /    A nd           | Web:      www.OpenFOAM.com                      |
|    \\/     M anipulation  |                                                 |
\*---------------------------------------------------------------------------*/
FoamFile
{
    version     2.0;
    format      ascii;
    class       volVectorField;
    location    "100";
    object      wallShearStress;
}
// * * * * * * * * * * * * * * * * * * * * * * * * * * * * * * * * * * * * * //

dimensions      [0 2 -2 0 0 0 0];

internalField   uniform (0 0 0);

boundaryField
{
    WALL
    {
        type            calculated;
        value           nonuniform List<vector> 
1537
(
(-0.0222336 -0.0151942 0.00494)
(-0.0244884 -0.0150793 0.00609268)
(-0.0197426 -0.00493575 -0.00714782)
(-0.0190236 -0.004557 -0.00775601)
(-0.0207903 -0.014506 0.00256792)
(-0.0211389 -0.0144196 0.00257627)
(-0.0102613 -0.00476912 -0.00720708)
(-0.00968051 -0.00481309 -0.00606423)
(-0.0263957 -0.0121646 -0.0127716)
(-0.0277337 -0.0125865 -0.011798)
(-0.0201256 -0.0190292 0.0137397)
(-0.0220393 -0.0180143 0.0158129)
(-0.0122939 -0.0066064 0.000795806)
(-0.0212299 0.00122633 0.00602619)
(-0.0087399 -0.0103071 0.00492633)
(-0.00888553 -0.00844444 0.00449448)
(-0.0101934 -0.00600468 -0.00320204)
(-0.0104819 -0.00592519 -0.00466505)
(-0.00940912 -0.00818888 0.00255242)
(-0.00944812 -0.00941029 0.00248383)
(-0.00856355 -0.0126082 0.00306486)
(-0.00777621 -0.0136321 0.00253563)
(-0.0079339 -0.00397887 -0.00528985)
(-0.0233728 -0.00960196 -0.0136156)
(-0.0242316 -0.0108634 -0.0129339)
(-0.0131825 0.00119141 -0.00381873)
(-0.010887 9.89971e-05 -0.00269042)
(-0.0215602 -0.0162662 0.00507479)
(-0.0220492 -0.0158169 0.00681422)
(-0.0278119 -0.00681725 -0.0046136)
(-0.0314022 -0.00630485 -0.00300054)
(-0.0239279 -0.0129748 -0.00143098)
(-0.0227362 -0.0117697 -0.0032373)
(-0.0170808 0.00252631 -0.00224444)
(-0.0173782 0.0023573 -0.00384417)
(-0.015421 0.00222712 0.0133388)
(-0.0134795 0.000510641 0.0143587)
(-0.0135793 -0.00580197 -0.00822201)
(-0.012423 -0.0054973 -0.00804252)
(-0.0245866 -0.0113593 -0.00805556)
(-0.0229781 -0.0106602 -0.00782537)
(-0.0221355 -0.00941575 -0.0115838)
(-0.0219607 -0.00737758 -0.0131261)
(-0.00872603 -0.00447395 -0.0048639)
(-0.00789384 -0.0038791 -0.00348608)
(-0.00898994 -0.00476256 -0.00409113)
(-0.00864479 -0.00421637 -0.00511666)
(-0.00835136 -0.00426942 -0.00363905)
(-0.00823185 -0.00411905 -0.00411495)
(-0.0204227 -0.00420624 -0.0106854)
(-0.0184529 -0.00329367 -0.00947562)
(-0.0197949 -0.00460457 -0.00889018)
(-0.0213285 -0.00561593 -0.00971044)
(-0.0187128 -0.00356083 -0.00878751)
(-0.0208236 -0.00527601 -0.00983285)
(-0.0071477 -0.0142838 0.00112237)
(-0.00945945 -0.0133639 -0.00163701)
(-0.00908832 -0.0140687 0.000719966)
(-0.00768956 -0.0126224 -7.11317e-05)
(-0.00774934 -0.0127814 -0.00109428)
(-0.0075334 -0.0124749 -0.000595124)
(-0.00678379 -0.0136398 0.000458588)
(-0.00893422 -0.00282392 0.00559823)
(-0.00879617 -0.00190367 0.00617899)
(-0.00883579 -0.00293942 0.00686701)
(-0.0102716 -0.00254916 0.00815247)
(-0.00997702 -0.00134059 0.00725313)
(-0.0107712 -0.00123465 0.00872528)
(-0.0111356 -0.00930463 -0.00188871)
(-0.0125339 -0.00919943 -0.00385607)
(-0.0126747 -0.00881774 -0.00406341)
(-0.0114009 -0.00976579 -0.00170714)
(-0.0121012 -0.00958263 -0.00258257)
(-0.0112134 -0.00883515 -0.00286867)
(-0.0197151 -0.00654413 -0.00275386)
(-0.0210659 -0.00972722 -0.00255598)
(-0.0196318 -0.00859974 -0.00274228)
(-0.0199171 -0.0105073 -0.0010194)
(-0.0191805 -0.00765411 -0.00212138)
(-0.0191378 -0.0113368 -0.000646131)
(-0.0181706 0.00427915 0.0018363)
(-0.0184186 0.00336925 -0.000150471)
(-0.0188891 0.00407687 0.0011343)
(-0.0177658 0.00387066 -0.000522027)
(-0.0175879 0.00346206 -0.000380891)
(-0.0176661 0.00476182 0.00242703)
(-0.019203 0.00272382 0.00642456)
(-0.01847 0.00307519 0.00506654)
(-0.0187026 0.00240794 0.0046354)
(-0.0194182 0.00407499 0.0086249)
(-0.0185638 0.00440326 0.00856633)
(-0.0187285 0.00417469 0.00711098)
(-0.0140142 0.0011903 0.0112009)
(-0.0142807 0.00242347 0.010713)
(-0.0150513 0.00263457 0.0115358)
(-0.0141241 0.00161549 0.0120335)
(-0.015416 0.00332681 0.0101548)
(-0.0150995 0.00314293 0.010034)
(-0.0312763 -0.0117434 -0.00722032)
(-0.0318693 -0.0121772 -0.00865447)
(-0.0311674 -0.0111987 -0.00774186)
(-0.034338 -0.0111496 -0.00790148)
(-0.0332321 -0.0106401 -0.00688648)
(-0.0313878 -0.010865 -0.00657698)
(-0.00906467 -0.000362873 -0.00172141)
(-0.00780509 -0.00144911 -0.002257)
(-0.0083048 -0.00100186 -0.00187085)
(-0.0102751 -0.00061344 -0.00269446)
(-0.0237369 -0.00630341 -0.0120649)
(-0.0205564 -0.00497301 -0.0108758)
(-0.0231906 -0.00569946 -0.0120478)
(-0.0251377 -0.00450015 -0.0125498)
(-0.0234149 -0.00436746 -0.0124857)
(-0.00683959 -0.00167309 -0.00105182)
(-0.00663491 -0.00189018 -0.00127002)
(-0.00694044 -0.00158211 -0.000496394)
(-0.00710206 -0.00198121 -0.000692755)
(-0.00702492 -0.00215857 -0.000934281)
(-0.00683456 -0.00223325 -0.00141156)
(-0.0215296 -0.0137408 0.00050513)
(-0.0223095 -0.0135076 0.000500166)
(-0.0230214 -0.014363 0.00211824)
(-0.0248364 -0.0160645 0.00593892)
(-0.0219367 -0.0137275 0.0029587)
(-0.0213883 -0.0135176 0.000627867)
(-0.0206912 -0.0132059 0.000254854)
(-0.0253131 -0.0148362 0.00390798)
(-0.0113534 -0.00245905 0.0126532)
(-0.0127918 -0.000708702 0.0119498)
(-0.0128159 -0.000490768 0.0124486)
(-0.0116612 -0.00160003 0.0117094)
(-0.0112593 -0.00250484 0.012121)
(-0.0122487 -0.00148628 0.0128699)
(-0.0149568 -0.00116775 0.0173135)
(-0.0127663 -0.00225394 0.0179689)
(-0.0116829 -0.00301813 0.0193049)
(-0.00829033 -0.00794545 0.0104742)
(-0.00890456 -0.00720642 0.0112359)
(-0.00936404 -0.00660425 0.0125199)
(-0.00829651 -0.00799789 0.0120545)
(-0.00768797 -0.00828027 0.0107888)
(-0.0089902 -0.00681147 0.0123139)
(-0.00883414 -0.00515469 0.0104514)
(-0.00910919 -0.00600337 0.0114287)
(-0.0105135 -0.0056906 0.0120058)
(-0.00981197 -0.00425183 0.0106992)
(-0.00979147 -0.00405833 0.0122986)
(-0.00851024 -0.00702181 0.00536923)
(-0.00902447 -0.00719652 0.00458191)
(-0.00862565 -0.00646284 0.0056903)
(-0.00863523 -0.00634671 0.00466103)
(-0.00876775 -0.00750734 0.00475336)
(-0.00895291 -0.00610116 0.00499137)
(-0.00859782 -0.0103723 0.00496097)
(-0.00876962 -0.00895193 0.00554208)
(-0.00873953 -0.0105362 0.00413868)
(-0.00829779 -0.00998181 0.00578793)
(-0.00837007 -0.00938334 0.00611297)
(-0.00858735 -0.00922569 0.00506957)
(-0.0105681 -0.00447588 0.0137537)
(-0.0112408 -0.00333559 0.0137736)
(-0.010515 -0.0043185 0.0142902)
(-0.0120596 -0.00164083 0.0150279)
(-0.0114647 -0.00298628 0.0153055)
(-0.0115687 -0.00209386 0.0140233)
(-0.00756372 -0.0101366 0.012801)
(-0.00804703 -0.00994115 0.0122735)
(-0.00726728 -0.0109677 0.0102035)
(-0.00755369 -0.0111146 0.010234)
(-0.0068018 -0.0105743 0.0118839)
(-0.00705676 -0.00966966 0.0105631)
(-0.00505207 -0.0138533 0.00777185)
(-0.00590691 -0.0130726 0.00644875)
(-0.00596329 -0.0134125 0.00762407)
(-0.00630706 -0.0135019 0.00601545)
(-0.00632919 -0.0139934 0.00590452)
(-0.00529372 -0.0135328 0.00802084)
(-0.00586849 -0.0115926 0.00975412)
(-0.00646331 -0.0118442 0.011284)
(-0.00615043 -0.0128533 0.00938354)
(-0.00593417 -0.012146 0.0117938)
(-0.0057824 -0.0126966 0.0110335)
(-0.00579053 -0.0129249 0.00962011)
(-0.0339301 -0.00441021 -0.0117887)
(-0.0329105 -0.00312858 -0.00800727)
(-0.0349188 -0.00464231 -0.0106833)
(-0.0335067 -0.00294945 -0.0102178)
(-0.035468 -0.00377697 -0.00986488)
(-0.0271857 -0.00744449 -0.00317135)
(-0.0290021 -0.00709636 -0.00150484)
(-0.0249324 -0.00837563 -0.00383951)
(-0.0259192 -0.00646517 -0.000325727)
(-0.0218649 -0.00787542 -0.00269867)
(-0.0239875 -0.00734649 -0.00134878)
(-0.0179633 -0.00182894 -0.00480441)
(-0.0193602 -0.00359576 -0.00490902)
(-0.0193524 -0.00371511 -0.00508975)
(-0.0182858 -0.00264195 -0.00534512)
(-0.0182183 -0.00284821 -0.00429844)
(-0.018109 -0.0017524 -0.00427611)
(-0.0194549 -0.00571225 -0.00600932)
(-0.0207086 -0.00809829 -0.00567653)
(-0.0191697 -0.00858756 -0.00411881)
(-0.0186859 -0.00623258 -0.00486068)
(-0.0190219 -0.00495424 -0.00598434)
(-0.0192176 -0.00939443 -0.00412615)
(-0.0189069 -0.00589812 -0.00771086)
(-0.0209337 -0.00710844 -0.007061)
(-0.018548 -0.00344762 -0.0073479)
(-0.0204368 -0.00725434 -0.00797478)
(-0.0216608 -0.00840851 -0.00821532)
(-0.020969 -0.00938362 -0.00582167)
(-0.0202045 -0.0092972 -0.00584138)
(-0.0198458 -0.00683038 -0.00688147)
(-0.0208145 -0.0158873 0.00387835)
(-0.020523 -0.0169002 0.00511184)
(-0.0206616 -0.0175033 0.00677818)
(-0.0196334 -0.0157556 0.00444367)
(-0.0214659 -0.0139577 0.00207848)
(-0.0203785 -0.0179548 0.00752211)
(-0.0209001 -0.0181645 0.00678417)
(-0.021146 -0.0161545 0.00403812)
(-0.0201371 -0.0126061 -0.000132633)
(-0.0207101 -0.013008 0.00014903)
(-0.0207708 -0.0132228 -1.33596e-05)
(-0.0199824 -0.0133075 0.0021087)
(-0.0205291 -0.0134981 0.000245565)
(-0.0214262 -0.0139502 0.00153754)
(-0.0194239 -0.000259897 -0.0126899)
(-0.0197515 -0.00146657 -0.0135923)
(-0.0200659 -0.00279671 -0.0134115)
(-0.0195637 -0.00150146 -0.0126668)
(-0.0209062 -0.00370345 -0.0138677)
(-0.0202651 -0.00200029 -0.0144033)
(-0.0197986 0.00141221 -0.0155839)
(-0.00782114 -0.00395657 -0.00480397)
(-0.00863945 -0.00426674 -0.0057937)
(-0.00614725 -0.00195256 -0.00177925)
(-0.00608704 -0.00236611 -0.00231758)
(-0.00625498 -0.00233299 -0.00238893)
(-0.00657025 -0.00234134 -0.00195974)
(-0.00628718 -0.00245549 -0.00215661)
(-0.00611318 -0.00203262 -0.00200979)
(-0.00804595 -0.00248481 0.00166434)
(-0.0075862 -0.00244872 0.00100953)
(-0.00802615 -0.00153812 0.00227471)
(-0.00795363 -0.00201835 0.00220013)
(-0.00794085 -0.0016816 0.00162204)
(-0.00725643 -0.00184125 0.00122302)
(-0.00966515 -0.0048973 -0.0049918)
(-0.0105184 -0.00556859 -0.00513372)
(-0.0107361 -0.00543605 -0.0060507)
(-0.00990347 -0.00536936 -0.0046821)
(-0.0108402 -0.00487797 -0.00744735)
(-0.0100182 -0.00499674 -0.00587281)
(-0.0114284 -0.00531335 -0.00716021)
(-0.00959206 -0.00465963 -0.00667468)
(-0.00842202 -0.0035966 0.00149829)
(-0.00834236 -0.00398165 0.00123734)
(-0.00874099 -0.00451778 0.000886357)
(-0.00873709 -0.00425978 0.000418759)
(-0.00851241 -0.00361406 0.00102247)
(-0.00805219 -0.00362698 0.000767291)
(-0.00914578 -0.00540543 -2.23365e-05)
(-0.00929445 -0.0050508 -0.000531784)
(-0.00965309 -0.00569734 -0.00150642)
(-0.0091873 -0.00554048 -0.000683298)
(-0.00983567 -0.00603504 -0.00125959)
(-0.00898612 -0.0050905 -0.00101913)
(-0.0200564 -0.0189394 0.0095732)
(-0.0201167 -0.0185934 0.00775814)
(-0.0199499 -0.0182475 0.00681753)
(-0.0192368 -0.0011933 -0.00831266)
(-0.0181816 -0.00021378 -0.00680145)
(-0.0177184 0.00148166 -0.00655908)
(-0.0185105 -0.00105869 -0.00780304)
(-0.0198923 0.000325279 -0.00894172)
(-0.0176262 0.00128621 -0.00730016)
(-0.0186367 0.00593332 -0.00355134)
(-0.016875 0.00433025 -0.00367766)
(-0.018063 0.00394981 -0.00536138)
(-0.0181844 0.00419695 -0.005221)
(-0.0175869 0.00399067 -0.00368494)
(-0.0189653 0.0028837 -0.00607759)
(-0.0157765 0.00440435 -0.000806644)
(-0.0174867 0.00337647 -0.00289427)
(-0.0188299 0.00160736 -0.00271012)
(-0.0163069 0.0038018 -0.00283941)
(-0.0174218 0.00411465 -0.000831585)
(-0.0304994 -0.0126942 -0.00237399)
(-0.0292432 -0.0113926 -4.84649e-05)
(-0.027556 -0.0124798 -0.00138512)
(-0.0301964 -0.0125297 0.000834127)
(-0.0275511 -0.0123751 -0.000279062)
(-0.0270378 -0.0126768 -0.00209094)
(-0.023635 -0.0109078 -0.00645574)
(-0.0241524 -0.0119049 -0.00432833)
(-0.0267643 -0.0126261 -0.00400191)
(-0.0263492 -0.0121974 -0.00579095)
(-0.0248371 -0.011469 -0.00669653)
(-0.0256404 -0.0123324 -0.00423734)
(-0.0215721 -0.010555 -0.0049525)
(-0.0207043 -0.0109425 -0.00377552)
(-0.0208599 -0.00955085 -0.00519888)
(-0.0214039 -0.0106051 -0.00411149)
(-0.021948 -0.0115406 -0.00269303)
(-0.0217754 -0.0125737 -0.000658405)
(-0.0335018 -0.0112821 -0.00185416)
(-0.0342967 -0.00925967 -0.000854342)
(-0.035023 -0.0106809 -0.00160329)
(-0.03388 -0.0113871 -0.0020963)
(-0.0353475 -0.00970671 -0.00221521)
(-0.0328784 -0.0101011 -0.00166582)
(-0.035508 -0.00507443 -0.00761165)
(-0.035025 -0.00554072 -0.00581918)
(-0.0373439 -0.00564846 -0.00661331)
(-0.0356398 -0.0057307 -0.00871266)
(-0.0323181 -0.00547128 -0.00687457)
(-0.0347356 -0.00554627 -0.00503378)
(-0.027023 -0.0085791 0.0074268)
(-0.0236072 -0.00740566 0.00453414)
(-0.0237313 -0.00694411 0.00572401)
(-0.0205421 -0.00725754 0.0040341)
(-0.0237427 -0.00829544 0.00762311)
(-0.0212178 -0.00728402 0.00601834)
(-0.0248392 -0.0074987 0.00322912)
(-0.0262252 -0.00732139 0.000910998)
(-0.0288308 -0.00793321 0.00265247)
(-0.021282 -0.00735093 0.000398223)
(-0.0227007 -0.00742931 0.00187737)
(-0.0243177 -0.00754943 7.18722e-06)
(-0.0326346 -0.0128442 0.00930368)
(-0.0301596 -0.0126709 0.00860115)
(-0.0280679 -0.0118755 0.0102508)
(-0.0249207 -0.0154685 0.00806808)
(-0.0262843 -0.0138511 0.0109324)
(-0.0257073 -0.015109 0.0115418)
(-0.0257341 -0.0148589 0.00887933)
(-0.0289727 -0.0147338 0.00876158)
(-0.0235691 -0.0150039 0.0100032)
(-0.0246986 -0.0168797 0.0161429)
(-0.0249049 -0.0154273 0.0163771)
(-0.0235359 -0.0130908 0.0159979)
(-0.0227009 -0.0144831 0.0155779)
(-0.0237894 -0.0162748 0.0167265)
(-0.0248693 -0.0144501 0.016029)
(-0.0177345 -0.00653921 -0.0103998)
(-0.0173012 -0.00575964 -0.0107105)
(-0.0162289 -0.00616612 -0.00973306)
(-0.0195662 -0.00654948 -0.0110187)
(-0.0203122 -0.0046331 -0.0121579)
(-0.0209373 -0.00475273 -0.0129779)
(-0.0183385 -0.00823594 -0.00891102)
(-0.0181541 -0.00773938 -0.00939949)
(-0.0146818 -0.00882782 -0.00622381)
(-0.0159046 -0.00811782 -0.00705546)
(-0.0177123 -0.00846807 -0.00778965)
(-0.0166318 -0.00743177 -0.00871893)
(-0.0249074 -0.0071169 -0.0104163)
(-0.0218755 -0.0067178 -0.0099784)
(-0.0245368 -0.00766421 -0.0102395)
(-0.0275317 -0.00516146 -0.0114142)
(-0.0236125 -0.00492706 -0.0102222)
(-0.020203 -0.00667422 -0.00901003)
(-0.024269 -0.00979093 0.0119994)
(-0.0200226 -0.00781409 0.00864169)
(-0.0216376 -0.00791485 0.00866382)
(-0.0223414 -0.00946083 0.0107129)
(-0.0220812 -0.00824657 0.0101066)
(-0.0229602 -0.00995334 0.012149)
(-0.0211204 0.00547255 -0.0139357)
(-0.0207359 0.00510279 -0.0128104)
(-0.021519 0.00311429 -0.0153607)
(-0.0201763 0.00409584 -0.0136282)
(-0.0206482 0.00516683 -0.012674)
(-0.0137454 0.00206467 -0.00410836)
(-0.0124516 0.00113098 -0.0033022)
(-0.0118364 0.000393988 -0.00329998)
(-0.0153179 0.00385122 -0.00376852)
(-0.0135178 0.00247704 -0.00322338)
(-0.0169596 0.00418349 -0.00560437)
(-0.0163436 0.00463952 -0.00452825)
(-0.015392 0.00288731 -0.00482098)
(-0.0144697 0.00213049 -0.00390718)
(-0.0193512 0.00263025 -0.0102555)
(-0.0189577 0.000977294 -0.0113853)
(-0.0184988 0.00331839 -0.00965221)
(-0.0193465 0.000554793 -0.0108879)
(-0.0190377 0.00305178 -0.0101665)
(-0.0193836 0.00170501 -0.0118634)
(-0.018762 0.00406908 -0.00772374)
(-0.0177827 0.00632996 -0.00493699)
(-0.0182137 0.00664109 -0.00642374)
(-0.0176707 0.00692684 -0.00414619)
(-0.0204581 0.0053363 -0.00671879)
(-0.019344 0.00548805 -0.00806308)
(-0.0158033 0.00454367 -0.00386511)
(-0.015763 0.00592979 -0.00277076)
(-0.0168923 0.0059782 -0.00573631)
(-0.0174872 0.00654748 -0.0062232)
(-0.0174927 0.00554866 -0.00565571)
(-0.0178307 0.0060152 -0.00443383)
(-0.0367199 -0.00557691 -0.00849755)
(-0.0374338 -0.00636457 -0.00727867)
(-0.037045 -0.00513154 -0.00906146)
(-0.0338422 -0.00468634 -0.00679738)
(-0.035315 -0.00638712 -0.00535754)
(-0.0374712 -0.00585892 -0.00700302)
(-0.0378576 -0.00758546 -0.00754106)
(-0.022349 -0.00760357 -0.0108348)
(-0.0216 -0.00860353 -0.00859758)
(-0.0236191 -0.00984877 -0.00973154)
(-0.0218555 -0.00731524 -0.0106298)
(-0.022414 -0.00992763 -0.00813992)
(-0.0287748 -0.0117699 -0.00650955)
(-0.0287733 -0.0120255 -0.00661985)
(-0.0271157 -0.0122091 -0.00874847)
(-0.0279007 -0.012262 -0.0087656)
(-0.0291309 -0.0124733 -0.00812293)
(-0.0274576 -0.0118883 -0.00739115)
(-0.0211907 -0.00458388 -0.0159585)
(-0.0224745 -0.00638184 -0.0170173)
(-0.0220835 -0.00619833 -0.0169843)
(-0.0208627 -0.00240087 -0.0168409)
(-0.0208931 -0.00453362 -0.016437)
(-0.0220387 -0.00358359 -0.0165603)
(-0.0227859 -0.00527413 -0.0184338)
(-0.0237352 -0.00988346 -0.0110785)
(-0.0237941 -0.0105474 -0.0120316)
(-0.0255064 -0.0113706 -0.0103098)
(-0.0242963 -0.0106762 -0.010448)
(-0.0219839 -0.00774525 -0.0131219)
(-0.021936 -0.00566221 -0.0144531)
(-0.0195438 -0.00569277 -0.0140166)
(-0.0208265 -0.00747225 -0.0132323)
(-0.0213735 -0.00671313 -0.0152536)
(-0.0194579 -0.00461822 -0.0135981)
(-0.0255663 -0.0119873 -0.0138567)
(-0.0280969 -0.0127879 -0.0118945)
(-0.0241669 -0.010893 -0.0146533)
(-0.033767 -0.00264789 -0.010709)
(-0.0358669 -0.00323834 -0.0119028)
(-0.0348472 -0.00239438 -0.0143056)
(-0.0331544 -0.00228639 -0.0113957)
(-0.0336987 -0.00291977 -0.01278)
(-0.0329899 -0.00317021 -0.0132013)
(-0.0294268 -0.000808763 -0.0138665)
(-0.0329999 -0.00150187 -0.0124847)
(-0.0321042 -0.00146651 -0.0136855)
(-0.0332637 -0.0048035 -0.00968428)
(-0.0327363 -0.00423246 -0.0104019)
(-0.0338591 -0.00289082 -0.0115727)
(-0.0347374 -0.00533527 -0.01046)
(-0.0356098 -0.00474599 -0.0120912)
(-0.0338605 -0.0034147 -0.0115187)
(-0.0322321 -0.00765131 -0.00844214)
(-0.0333338 -0.00898585 -0.00921385)
(-0.0353965 -0.00743674 -0.00872101)
(-0.0340967 -0.00653697 -0.00893978)
(-0.0345875 -0.00710851 -0.00951928)
(-0.0330786 -0.00796393 -0.00771066)
(-0.0158203 -0.0121385 -0.00561875)
(-0.0163089 -0.0122805 -0.00509868)
(-0.014547 -0.0116036 -0.00467682)
(-0.0137996 -0.0111522 -0.00340013)
(-0.0107469 -0.0124442 -0.00235648)
(-0.013446 -0.0125667 -0.00281181)
(-0.00830373 -0.011269 0.00344079)
(-0.00905306 -0.0109376 0.00328493)
(-0.00934845 -0.0126539 0.00268492)
(-0.00913756 -0.0126008 0.00171699)
(-0.00961103 -0.0112079 0.00214692)
(-0.0100844 -0.0118756 0.00127486)
(-0.0113144 -0.0110144 -0.00265381)
(-0.0129384 -0.011779 -0.00260343)
(-0.0104341 -0.0122904 -0.000457624)
(-0.0116223 -0.0131922 -0.0016241)
(-0.0105273 -0.011876 -0.000215641)
(-0.011055 -0.0120823 -0.00111744)
(-0.0051938 -0.0148798 0.0045992)
(-0.00545863 -0.0144514 0.00412749)
(-0.00553214 -0.0138118 0.00257619)
(-0.00596082 -0.0143673 0.0028335)
(-0.00559472 -0.0151866 0.00413186)
(-0.00625147 -0.0143526 0.00201223)
(-0.00953018 -0.010252 -0.00209392)
(-0.0100485 -0.0101974 -0.00248728)
(-0.00845283 -0.0105521 -0.00171873)
(-0.007285 -0.011846 -0.0012671)
(-0.00601698 -0.0131089 0.000324202)
(-0.00590318 -0.0109886 -0.000854392)
(-0.00607253 -0.0117895 -0.000479815)
(-0.00549891 -0.0126139 -0.00020368)
(-0.00559003 -0.0129681 0.00070082)
(-0.0170537 -0.00797671 -0.00228452)
(-0.0189661 -0.00739262 -0.00132671)
(-0.0132899 -0.00826286 -0.00163926)
(-0.0148048 -0.00741857 -0.00115041)
(-0.0151596 -0.00920895 -0.0023856)
(-0.0168851 -0.00734465 -0.00114571)
(-0.0162019 0.00391328 0.0113585)
(-0.0168247 0.00425861 0.00977371)
(-0.0168862 0.00391722 0.00968227)
(-0.0169088 0.00438412 0.0080426)
(-0.016494 0.00407287 0.011453)
(-0.0166189 0.00416518 0.00775351)
(-0.0180884 0.00433708 0.00433963)
(-0.0180049 0.00392461 0.00302643)
(-0.0174024 0.00532832 0.00628208)
(-0.018494 0.00361701 0.0025395)
(-0.0179573 0.00370307 0.00405566)
(-0.0182811 0.0041939 0.00550634)
(-0.0211812 -0.0187513 0.00975876)
(-0.0217722 -0.0191256 0.0121879)
(-0.0223991 -0.0195166 0.0152711)
(-0.0232393 -0.0181001 0.0142143)
(-0.0212328 -0.0182235 0.0118816)
(-0.0206805 -0.0178262 0.0103658)
(-0.0201908 -0.0189304 0.0106729)
(-0.0205424 -0.0175772 0.0125386)
(-0.00878316 -0.00668211 -0.000504883)
(-0.0135948 -0.00629515 0.00204432)
(-0.0101243 -0.0065868 4.68234e-05)
(-0.0134837 -0.00852704 -0.00576868)
(-0.0143255 -0.00684286 -0.00768233)
(-0.0139089 -0.00744716 -0.00701044)
(-0.0125727 -0.00781863 -0.00522264)
(-0.0116997 -0.00699082 -0.00469414)
(-0.0125556 -0.00692974 -0.00613944)
(-0.00960693 -0.00618862 0.000258947)
(-0.00908868 -0.00534575 0.00138807)
(-0.00876048 -0.00530466 0.000855427)
(-0.00966021 -0.00677386 0.0014638)
(-0.00953353 -0.00689071 0.00078743)
(-0.00922445 -0.00590332 0.00164858)
(-0.0106157 -0.00828774 -0.000577891)
(-0.0102041 -0.00914979 0.000133059)
(-0.00968894 -0.00753782 0.00120493)
(-0.0099497 -0.00777054 0.000298385)
(-0.0102902 -0.00902979 0.00097317)
(-0.0130766 0.000191311 0.0110564)
(-0.0127699 -0.000303863 0.00990226)
(-0.0123917 -0.00121809 0.0103333)
(-0.0139588 0.00083748 0.010113)
(-0.012322 -0.00100577 0.0107029)
(-0.0137828 0.000692313 0.00992507)
(-0.00847618 -0.00382485 0.00435061)
(-0.00850383 -0.00507769 0.00416284)
(-0.0081704 -0.00401786 0.00387806)
(-0.0085706 -0.00478619 0.00487663)
(-0.0087291 -0.00487378 0.00381988)
(-0.00829223 -0.00400883 0.00518938)
(-0.0356399 -0.00407748 -0.00940167)
(-0.034146 -0.00516729 -0.00903527)
(-0.0356731 -0.00642437 -0.00917563)
(-0.0369609 -0.00430877 -0.0103883)
(-0.03606 -0.00470291 -0.00872538)
(-0.0358369 -0.00548013 -0.00816412)
(-0.00727513 -0.00347615 -0.00357919)
(-0.00768096 -0.00356382 -0.00311663)
(-0.00647074 -0.00283222 -0.00288266)
(-0.00681874 -0.00303631 -0.00252198)
(-0.00689463 -0.00313136 -0.0038191)
(-0.0142194 0.00151172 0.0089445)
(-0.0155652 0.00311949 0.00735457)
(-0.0144091 0.00240992 0.00785185)
(-0.0170873 0.00494666 0.006544)
(-0.0175929 0.00516403 0.0054655)
(-0.0161394 0.00430966 0.00747517)
(-0.0152947 0.00311082 0.00733661)
(-0.0148708 0.00279286 0.00903718)
(-0.014217 0.00155927 0.0088708)
(-0.0144152 0.002438 0.00840139)
(-0.0164554 0.00561078 0.00111766)
(-0.0174598 0.00523888 0.00104394)
(-0.0172966 0.00545098 0.00371212)
(-0.0141562 0.00238875 0.00776157)
(-0.0133093 0.00244519 0.00690136)
(-0.0123967 0.00148015 0.00741832)
(-0.0127783 0.00174199 0.00819614)
(-0.0111264 0.000375005 0.00675503)
(-0.00847978 -0.00447898 0.00158567)
(-0.00991807 -0.00742247 0.000315677)
(-0.00925652 -0.00611389 -0.000455853)
(-0.0100997 -0.00751699 -0.000574513)
(-0.0101145 -0.0071307 -0.00095242)
(-0.0110179 -0.00743086 -0.00278461)
(-0.0100155 -0.00692751 -0.00174335)
(-0.0111871 -0.00689009 -0.00404919)
(-0.0128625 -0.0113172 -0.00304663)
(-0.011401 -0.0120131 -0.00138074)
(-0.0108722 -0.011005 -0.00108452)
(-0.0106345 -0.0111688 7.60646e-05)
(-0.00972543 -0.00967137 0.00163585)
(-0.00999183 -0.00992297 0.000827756)
(-0.00949916 -0.0104016 0.00119475)
(-0.00929138 -0.0100323 0.00258706)
(-0.00983469 -0.0108813 0.002081)
(-0.0103568 -0.00736837 -0.000558833)
(-0.0188994 -0.0151479 0.00377032)
(-0.0180583 -0.0134477 0.00221312)
(-0.0190539 -0.0104003 -0.000277664)
(-0.0215083 -0.00981868 -0.000126022)
(-0.0206056 -0.0114588 0.000643961)
(-0.0205101 -0.013399 0.00150977)
(-0.0194512 -0.0113013 0.000323941)
(-0.0204753 -0.00761018 -0.00111334)
(-0.0212532 -0.00827018 -0.00127922)
(-0.0199436 -0.00697689 -0.00182503)
(-0.0190347 -0.00444568 -0.00284343)
(-0.0201452 -0.00291265 -0.00328415)
(-0.0200393 -0.00442964 -0.00382629)
(-0.0180774 0.00498003 0.00299171)
(-0.0179088 0.00569214 0.00155294)
(-0.0186383 0.00535837 0.00266767)
(-0.0190968 -0.00198838 -0.00302681)
(-0.0188713 -0.000491011 -0.00309841)
(-0.0185078 0.00331886 0.00114985)
(-0.0179775 0.00496456 0.00487971)
(-0.0179704 0.00485316 0.00370549)
(-0.0181011 0.0052465 0.00591309)
(-0.0172725 0.00477307 0.00527069)
(-0.0177763 0.00494512 0.00408155)
(-0.0176112 0.00502499 0.00449151)
(-0.0172778 0.00483084 0.00569823)
(-0.0154948 0.00356367 0.0085013)
(-0.0157596 0.00470014 0.00783288)
(-0.0167565 0.00501955 0.00700452)
(-0.0170219 0.00454406 0.00676916)
(-0.023031 -0.00371354 0.00261524)
(-0.0213014 0.000314193 0.0035324)
(-0.0221635 -0.00102744 0.00352935)
(-0.0209434 0.00284632 0.008283)
(-0.0197655 0.00211156 0.00472865)
(-0.0197135 0.00194512 0.00474692)
(-0.0202131 0.00187041 0.00579128)
(-0.0191987 0.00340463 0.00833484)
(-0.018249 0.0027731 0.00976431)
(-0.0203674 0.00316238 0.00987847)
(-0.0184523 0.00363935 0.00919931)
(-0.0184656 0.00255524 0.00978347)
(-0.0199422 1.67304e-05 0.00243908)
(-0.020452 0.00148145 0.00333498)
(-0.0213939 0.002099 0.00336996)
(-0.0179633 0.00343513 0.00385049)
(-0.0171501 0.00472907 0.0067049)
(-0.0163877 0.00522646 0.00679108)
(-0.0180964 0.00496841 0.00759102)
(-0.0223685 -0.00154075 0.000666304)
(-0.0213872 -0.00396824 0.00055662)
(-0.0214739 -0.00450326 0.000777464)
(-0.0207248 -0.00625051 -0.000495275)
(-0.0208406 -0.00653981 -0.000310899)
(-0.0188258 0.00255477 0.0002358)
(-0.0189479 0.00132664 -0.00124121)
(-0.0190756 9.78847e-05 -0.00184359)
(-0.019958 0.00220972 0.00220194)
(-0.0188127 0.00331865 0.00281771)
(-0.0189606 0.00259732 0.00178437)
(-0.0181007 0.00183479 0.000327629)
(-0.0209682 -0.00496367 -0.00102575)
(-0.0218122 -0.00242486 0.00064582)
(-0.0187159 0.0010826 0.000914557)
(-0.0190332 -0.00481684 -0.00168707)
(-0.019438 -0.00276451 -0.00223163)
(-0.0194586 0.000424101 -0.000344503)
(-0.0191193 -0.000886367 -0.00195916)
(-0.0192615 -4.28205e-06 -0.000438651)
(-0.0205642 -0.00243912 -0.00119149)
(-0.0173074 -0.00864836 -0.00328922)
(-0.0174573 -0.00910173 -0.00439965)
(-0.0193698 -0.00909263 -0.00437488)
(-0.0204605 -0.00958801 -0.00577929)
(-0.022772 -0.00845796 -0.00568643)
(-0.0126427 -0.00784144 -0.00146595)
(-0.00633345 -0.0101133 -0.00113486)
(-0.013787 -0.00938783 -0.00303024)
(-0.0132074 -0.00900019 -0.00259236)
(-0.0110207 -0.00980484 -0.00217612)
(-0.00750277 -0.0103247 -0.00170209)
(-0.00556078 -0.0131467 0.00155359)
(-0.0152569 -0.011473 -0.00419992)
(-0.0131602 -0.011091 -0.00322467)
(-0.00991782 -0.0119738 0.00043569)
(-0.013335 -0.0112324 -0.00352913)
(-0.0141552 -0.0113214 -0.00471242)
(-0.0139971 -0.0102444 -0.00328571)
(-0.0117969 -0.0107697 -0.00309339)
(-0.0180455 -0.0099579 -0.00542882)
(-0.0101367 -0.0137987 -0.000859426)
(-0.0100865 -0.0134632 2.36612e-05)
(-0.00913849 -0.0135522 0.00108595)
(-0.0104514 -0.0124779 0.000473661)
(-0.00908593 -0.0129716 0.000645551)
(-0.00741227 -0.0138804 0.00225242)
(-0.0087166 -0.0128853 0.00211736)
(-0.00775023 -0.0130957 0.00347406)
(-0.00803909 -0.0131261 0.00466509)
(-0.0342406 -0.00674646 -0.00781738)
(-0.0351288 -0.00566865 -0.00972998)
(-0.0330116 -0.00587532 -0.00904115)
(-0.0295775 -0.0122738 -0.00964287)
(-0.0303714 -0.0130426 -0.0115819)
(-0.0327072 -0.010752 -0.00863212)
(-0.0299663 -0.0110131 -0.00804557)
(-0.0308678 -0.0118457 -0.00947867)
(-0.0344861 -0.00921974 -0.00829377)
(-0.0316694 -0.00977431 -0.00793534)
(-0.024946 -0.00136882 -0.0141134)
(-0.0236799 -0.000535803 -0.0144567)
(-0.0239087 -0.0010582 -0.0140075)
(-0.0295688 6.91883e-05 -0.0143994)
(-0.0269352 -0.000229828 -0.013866)
(-0.0174179 -0.00338102 -0.0130944)
(-0.0167217 -0.00385703 -0.0117539)
(-0.0153538 -0.00263172 -0.0120489)
(-0.014765 -0.00466936 -0.010183)
(-0.0309674 -0.00086386 -0.0128745)
(-0.0358991 -0.00148679 -0.0123336)
(-0.0352901 -0.00310858 -0.0103688)
(-0.0367856 -0.00292321 -0.0102236)
(-0.0309944 -0.00187505 -0.0144081)
(-0.0276382 -0.00233388 -0.0143393)
(-0.0296867 -0.00208244 -0.0164999)
(-0.0293644 -0.00180245 -0.013797)
(-0.0318959 -0.00291111 -0.0138028)
(-0.0103513 -0.00407745 -0.00843541)
(-0.0111596 -0.00371972 -0.00936248)
(-0.0089847 -0.00428027 -0.00633885)
(-0.0131023 -0.00507505 -0.00942965)
(-0.012762 -0.00433049 -0.0102599)
(-0.0143468 -0.00385953 -0.0110701)
(-0.0122157 -0.00447444 -0.00897796)
(-0.01316 -0.00465599 -0.00947236)
(-0.0141236 -0.00443675 -0.0111477)
(-0.0284631 -0.0122805 -0.0100983)
(-0.0280541 -0.0126481 -0.0104856)
(-0.0265575 -0.0119757 -0.0103822)
(-0.0284197 -0.0123959 -0.00401386)
(-0.0282872 -0.0124794 -0.00542782)
(-0.0308004 -0.0126481 -0.0055843)
(-0.0280214 -0.0119517 -0.00586034)
(-0.0297957 -0.0118642 -0.00546177)
(-0.0265678 -0.0119092 -0.0100427)
(-0.0267105 -0.012012 -0.00996212)
(-0.0277536 -0.0122599 -0.00910145)
(-0.028018 -0.0121259 -0.0106854)
(-0.0342044 -0.00858083 -0.0075014)
(-0.0353103 -0.0078049 -0.0075297)
(-0.0350265 -0.0069997 -0.00700447)
(-0.0384002 -0.00626528 -0.00734507)
(-0.0375598 -0.00903772 -0.00844926)
(-0.0318373 -0.0113859 0.00548749)
(-0.022914 -0.010453 -0.00707381)
(-0.0222964 -0.00835578 -0.00891333)
(-0.0180806 0.00537982 -0.00706349)
(-0.018421 0.00363073 -0.00929463)
(-0.0189553 0.0047765 -0.00794078)
(-0.0186263 0.00362949 -0.00828627)
(-0.0197947 0.00287003 -0.00903453)
(-0.0178791 0.000899592 -0.00844566)
(-0.0186791 0.00117964 -0.00931319)
(-0.0197869 0.00384978 -0.00840355)
(-0.0192782 0.00235689 -0.00835873)
(-0.0190601 0.00480765 -0.00833903)
(-0.018558 0.00461933 -0.00641395)
(-0.0159985 0.00263673 -0.00528535)
(-0.0176072 0.0054089 -0.00633413)
(-0.0202211 0.00513296 -0.00879212)
(-0.0176194 0.00346446 -0.00777925)
(-0.0163844 0.00318846 -0.00625459)
(-0.0202506 0.00405928 -0.0104549)
(-0.0188208 0.00464796 -0.00953461)
(-0.0193347 0.00360316 -0.0113255)
(-0.0197872 0.00558085 -0.0110156)
(-0.0183417 0.00425439 -0.00989063)
(-0.0201635 0.00414776 -0.0117193)
(-0.0126511 0.00230224 -0.00149725)
(-0.0139707 0.00276936 -0.00224425)
(-0.0143802 0.00372088 -0.00312294)
(-0.0124931 0.00157364 -0.00234342)
(-0.0121089 0.00111388 -0.00202914)
(-0.0108756 0.000254788 -0.00215992)
(-0.0120577 0.000337305 -0.00298883)
(-0.0107327 -0.000345648 -0.00206668)
(-0.00718744 -0.00176238 -0.0021353)
(-0.0187771 -0.00946503 -0.00810684)
(-0.0160852 -0.0100254 -0.00585227)
(-0.0165602 -0.0088886 -0.00709499)
(-0.0273656 -0.00511885 -0.0110713)
(-0.0175215 -0.00295192 -0.0119097)
(-0.0169532 -0.00355746 -0.0116039)
(-0.0163331 -0.00573782 -0.0107429)
(-0.01672 -0.00690809 -0.00901657)
(-0.0153731 -0.0063294 -0.00937172)
(-0.0212555 -0.00374669 -0.0139445)
(-0.0226002 -0.00445376 -0.0140662)
(-0.0295974 -0.00370847 -0.0117221)
(-0.0298072 -0.00251937 -0.0121472)
(-0.0315979 -0.00262977 -0.0113376)
(-0.0323474 -0.00240341 -0.0120773)
(-0.0305851 -0.00372498 -0.0117064)
(-0.0243009 -0.0123484 0.0145496)
(-0.0250666 -0.0119754 0.0139722)
(-0.0238292 -0.0179939 0.0170843)
(-0.0242684 -0.01142 0.0135322)
(-0.0225796 -0.017658 0.0122854)
(-0.0242732 -0.0179089 0.0114659)