/*--------------------------------*- C++ -*----------------------------------*\
| =========                 |                                                 |
| \\      /  F ield         | OpenFOAM: The Open Source CFD Toolbox           |
|  \\    /   O peration     | Version:  v1612+                                |
|   \\  /    A nd           | Web:      www.OpenFOAM.com                      |
|    \\/     M anipulation  |                                                 |
\*---------------------------------------------------------------------------*/
FoamFile
{
    version     2.0;
    format      ascii;
    class       volScalarField;
    location    "50";
    object      p;
}
// * * * * * * * * * * * * * * * * * * * * * * * * * * * * * * * * * * * * * //

dimensions      [0 2 -2 0 0 0 0];

internalField   nonuniform List<scalar> 
21121
(
2.44759
2.47108
2.45626
2.46564
2.45338
2.4459
2.49712
2.51527
2.47507
2.49307
2.4457
2.55948
2.52325
2.51724
2.51557
2.5029
2.49247
2.49039
2.49544
2.56297
2.47536
2.47247
2.44827
2.49314
2.49191
2.48736
2.49021
2.49857
2.47096
2.49979
2.46248
2.47733
2.46899
2.44722
2.43849
2.46465
2.46988
2.44154
2.44915
2.49787
2.44546
2.50164
2.51591
2.51616
2.46862
2.45383
2.46559
2.46454
2.52338
2.51701
2.44606
2.42234
2.50389
2.5194
2.46948
2.42647
2.51687
2.46242
2.57185
2.5391
2.47251
2.47052
2.541
2.54598
2.528
2.46775
2.46369
2.458
2.40794
2.48507
2.47369
2.49392
2.48433
2.46763
2.49455
2.53395
2.46621
2.5208
2.49434
2.49147
2.49727
2.49426
2.46888
2.47866
2.46328
2.53565
2.53614
2.5457
2.55087
2.55001
2.55776
2.5216
2.47796
2.47325
2.45183
2.52742
2.52423
2.46956
2.43539
2.43433
2.50426
2.45399
2.4471
2.52251
2.51972
2.40697
2.51732
2.50068
2.50259
2.50028
2.56721
2.55199
2.44114
2.49057
2.52183
2.55891
2.57335
2.56617
2.46456
2.45781
2.46248
2.46291
2.40987
2.41365
2.41357
2.51108
2.46133
2.48815
2.48106
2.50327
2.50803
2.50022
2.49788
2.50986
2.52332
2.55804
2.4417
2.44564
2.46619
2.49574
2.45069
2.52452
2.46772
2.47254
2.47252
2.47369
2.45132
2.49328
2.49836
2.49102
2.4675
2.47668
2.42763
2.51172
2.51665
2.52585
2.48535
2.48563
2.44909
2.44664
2.4421
2.44352
2.46462
2.55773
2.56055
2.51801
2.52089
2.50797
2.41093
2.416
2.43922
2.43229
2.49904
2.40589
2.40763
2.52061
2.48801
2.48733
2.48532
2.47515
2.49127
2.50058
2.50312
2.45295
2.46043
2.48369
2.4352
2.48509
2.43404
2.57238
2.56695
2.45714
2.53312
2.52978
2.55922
2.57831
2.57072
2.5674
2.57631
2.57246
2.49277
2.49163
2.45585
2.45516
2.44774
2.45241
2.46074
2.45011
2.42617
2.47266
2.49248
2.4778
2.47443
2.48366
2.50943
2.50871
2.47065
2.45825
2.42703
2.43397
2.42882
2.42969
2.42885
2.42568
2.42071
2.4179
2.54013
2.5256
2.53243
2.4489
2.45261
2.45583
2.50897
2.50357
2.50355
2.5033
2.5041
2.49317
2.47007
2.48345
2.45296
2.4465
2.43848
2.5204
2.51006
2.45684
2.46587
2.45006
2.44183
2.49458
2.51062
2.46584
2.46022
2.52891
2.53251
2.53507
2.5387
2.54945
2.53011
2.52862
2.44414
2.4445
2.44801
2.44203
2.43942
2.44491
2.44586
2.44674
2.45409
2.44285
2.44922
2.44289
2.45984
2.45091
2.45675
2.45291
2.44893
2.44772
2.4404
2.4721
2.42001
2.51282
2.513
2.51361
2.51897
2.50191
2.49847
2.41104
2.43892
2.44766
2.46476
2.56365
2.44683
2.45578
2.45513
2.44219
2.45316
2.53317
2.46215
2.46202
2.4635
2.50413
2.49941
2.53483
2.53963
2.53442
2.54213
2.53955
2.5509
2.53668
2.5315
2.54956
2.55149
2.47841
2.49399
2.54345
2.48081
2.5082
2.45666
2.47214
2.44488
2.4972
2.49971
2.47318
2.40548
2.42135
2.42472
2.49497
2.52524
2.51943
2.44213
2.5337
2.44153
2.45472
2.45688
2.44453
2.47753
2.4529
2.46248
2.50955
2.4431
2.44355
2.41328
2.40846
2.42359
2.4233
2.54209
2.54962
2.54574
2.53688
2.54626
2.54222
2.54727
2.55875
2.53338
2.50485
2.53955
2.53311
2.5188
2.47182
2.46802
2.48406
2.44283
2.43846
2.46362
2.48987
2.48093
2.48063
2.45658
2.46343
2.46704
2.54423
2.55661
2.4594
2.45603
2.50803
2.50006
2.48722
2.41711
2.42047
2.41932
2.47229
2.49342
2.47035
2.4585
2.45195
2.44591
2.45105
2.44917
2.46076
2.41517
2.42319
2.42496
2.42051
2.43867
2.54487
2.4782
2.4285
2.47851
2.47435
2.48398
2.53031
2.42141
2.52894
2.55074
2.53424
2.48587
2.49811
2.4552
2.43697
2.4357
2.4991
2.47135
2.46573
2.4752
2.478
2.49609
2.45484
2.45527
2.49708
2.4844
2.47419
2.48697
2.47584
2.44264
2.43575
2.53008
2.56011
2.50865
2.46567
2.55694
2.56252
2.50343
2.43624
2.42752
2.42386
2.41619
2.42552
2.4236
2.42348
2.4291
2.43337
2.50827
2.42806
2.48512
2.47504
2.43114
2.4283
2.43204
2.41917
2.45096
2.45215
2.44232
2.44345
2.42974
2.41046
2.41249
2.49566
2.54928
2.56822
2.47041
2.48242
2.46149
2.41844
2.48801
2.48501
2.48436
2.45651
2.53796
2.54233
2.41705
2.41648
2.57154
2.5225
2.46396
2.48143
2.53604
2.5203
2.46804
2.48553
2.47684
2.48376
2.47365
2.42108
2.42508
2.47513
2.46117
2.49091
2.48248
2.52084
2.48448
2.49553
2.50665
2.50582
2.42871
2.50444
2.50458
2.41675
2.4546
2.49299
2.4843
2.44506
2.43905
2.39664
2.39605
2.47359
2.5009
2.51865
2.51579
2.51253
2.50766
2.45605
2.51013
2.56532
2.57702
2.5618
2.49227
2.51553
2.49011
2.50119
2.53798
2.54165
2.5361
2.45724
2.45852
2.55461
2.56156
2.55289
2.45263
2.4717
2.41182
2.48893
2.48557
2.47296
2.53933
2.48144
2.4632
2.47068
2.46138
2.55707
2.50546
2.47722
2.50459
2.41445
2.45591
2.40483
2.56306
2.51915
2.46717
2.4512
2.46068
2.56684
2.50141
2.49486
2.50949
2.50528
2.49624
2.48311
2.44038
2.43932
2.46616
2.56323
2.54351
2.53478
2.53351
2.53694
2.52932
2.49839
2.46138
2.46082
2.47934
2.48812
2.52957
2.53772
2.41198
2.40051
2.4964
2.50187
2.47553
2.53604
2.53214
2.53816
2.45752
2.46233
2.53937
2.52671
2.54452
2.46764
2.47254
2.45089
2.48549
2.46956
2.46577
2.47059
2.47154
2.54981
2.44247
2.4528
2.48232
2.52223
2.52087
2.43402
2.47939
2.52437
2.50854
2.52757
2.46715
2.47243
2.49864
2.49975
2.55517
2.54427
2.52663
2.48394
2.48639
2.48784
2.43001
2.43829
2.45114
2.45809
2.50586
2.46417
2.45236
2.49778
2.50393
2.48642
2.51437
2.51236
2.42346
2.45936
2.45374
2.45335
2.44517
2.44175
2.48467
2.52124
2.46891
2.47195
2.50067
2.49788
2.47128
2.42686
2.46142
2.49212
2.51703
2.49228
2.40493
2.56792
2.5413
2.53367
2.52934
2.52321
2.49853
2.51241
2.43613
2.41961
2.45314
2.47917
2.48061
2.42816
2.43963
2.46187
2.45155
2.55645
2.42715
2.42872
2.41609
2.42183
2.42198
2.41736
2.45296
2.45634
2.45116
2.44561
2.44853
2.49621
2.49346
2.4353
2.43207
2.53248
2.52287
2.50358
2.51144
2.49998
2.50314
2.52706
2.5476
2.54778
2.53968
2.45763
2.54318
2.41014
2.45975
2.46964
2.4312
2.46051
2.44144
2.46824
2.44681
2.44372
2.49608
2.48025
2.5264
2.48961
2.54396
2.47542
2.48811
2.53417
2.54654
2.44593
2.47848
2.49444
2.46702
2.48553
2.49092
2.49567
2.55007
2.55629
2.53847
2.5454
2.56988
2.52882
2.49587
2.41567
2.38905
2.44999
2.46148
2.4571
2.43833
2.44192
2.43361
2.44744
2.44283
2.45189
2.43653
2.43765
2.45902
2.45581
2.45005
2.44438
2.45751
2.44563
2.46974
2.42949
2.45801
2.44925
2.43733
2.53622
2.4642
2.48011
2.46534
2.47269
2.43097
2.40348
2.45892
2.46417
2.47152
2.46042
2.44577
2.42781
2.42925
2.43491
2.45597
2.43015
2.43405
2.47301
2.46806
2.49067
2.4862
2.48281
2.51076
2.48046
2.49227
2.50607
2.49418
2.48029
2.48033
2.46595
2.49215
2.46284
2.46931
2.48701
2.50049
2.53397
2.53131
2.52631
2.51968
2.53809
2.51868
2.49644
2.49271
2.52076
2.50523
2.51223
2.50212
2.49445
2.52256
2.51569
2.49528
2.51025
2.52897
2.57715
2.53792
2.518
2.52257
2.53749
2.54517
2.55414
2.50307
2.46223
2.49103
2.47393
2.48655
2.46033
2.44327
2.45872
2.46831
2.45408
2.46283
2.46929
2.465
2.50817
2.51384
2.50862
2.49061
2.52788
2.52131
2.48906
2.48495
2.46014
2.50105
2.47246
2.48248
2.47353
2.48866
2.45891
2.46763
2.50035
2.47476
2.46327
2.48758
2.52028
2.48877
2.48043
2.48906
2.54758
2.5438
2.56892
2.55054
2.56108
2.51557
2.49858
2.49049
2.48056
2.5158
2.47073
2.49246
2.45763
2.55069
2.5697
2.55212
2.56241
2.54921
2.55035
2.5597
2.41453
2.41195
2.46716
2.46817
2.46737
2.46117
2.46116
2.45973
2.45632
2.4597
2.45978
2.41778
2.42204
2.42984
2.455
2.4492
2.45763
2.4464
2.45472
2.44529
2.44874
2.44416
2.44442
2.44747
2.4629
2.45909
2.47533
2.46824
2.46628
2.45464
2.47322
2.46227
2.46315
2.46315
2.46439
2.44078
2.45219
2.46139
2.45813
2.45968
2.45629
2.45493
2.45371
2.45911
2.5265
2.51671
2.52489
2.52838
2.49054
2.48978
2.50096
2.44124
2.44041
2.43298
2.45646
2.41818
2.42596
2.41836
2.42244
2.46982
2.48449
2.47401
2.48405
2.48003
2.48222
2.48746
2.52733
2.50903
2.51565
2.50797
2.52798
2.52356
2.51041
2.4894
2.5006
2.50006
2.50458
2.49053
2.49002
2.50063
2.53271
2.52737
2.54282
2.53892
2.47101
2.48923
2.46796
2.4827
2.47371
2.48152
2.48003
2.48988
2.46861
2.48675
2.48543
2.49137
2.48206
2.5265
2.51788
2.52968
2.52955
2.52396
2.52833
2.53466
2.53723
2.53336
2.5409
2.53215
2.56578
2.54139
2.55666
2.54093
2.55555
2.55258
2.54597
2.46725
2.45889
2.4611
2.44231
2.44149
2.45069
2.48126
2.48418
2.47653
2.47035
2.49473
2.48249
2.47672
2.47448
2.47698
2.48961
2.49137
2.47536
2.48285
2.47364
2.4737
2.46914
2.4768
2.47302
2.47168
2.49293
2.48609
2.4952
2.49778
2.47423
2.48135
2.47833
2.50418
2.51122
2.49964
2.49712
2.49269
2.51191
2.50545
2.57306
2.56419
2.56738
2.52932
2.51308
2.49805
2.52905
2.53201
2.54659
2.54107
2.55024
2.53096
2.53668
2.55175
2.54783
2.55491
2.54628
2.55382
2.54982
2.54704
2.5592
2.54225
2.55154
2.57551
2.54528
2.56144
2.53593
2.52843
2.53033
2.52557
2.51129
2.4108
2.42991
2.41599
2.41997
2.4148
2.41852
2.40781
2.39946
2.40383
2.40732
2.41094
2.40993
2.41038
2.44214
2.44762
2.45124
2.45103
2.45962
2.4602
2.45461
2.45212
2.45394
2.45277
2.46091
2.44371
2.46086
2.4541
2.45152
2.4553
2.45726
2.4659
2.4409
2.43131
2.44465
2.43765
2.42477
2.44078
2.43052
2.41486
2.41765
2.40697
2.43696
2.45284
2.45086
2.45511
2.45442
2.45187
2.44811
2.44385
2.45255
2.43959
2.44171
2.43517
2.43159
2.44285
2.44435
2.43023
2.44171
2.43015
2.42232
2.42954
2.43173
2.42953
2.43035
2.4449
2.43905
2.43758
2.43253
2.43974
2.4351
2.43768
2.44554
2.43758
2.43716
2.44161
2.43657
2.43929
2.42266
2.42375
2.43079
2.43027
2.42808
2.43244
2.44471
2.45068
2.45179
2.44729
2.44374
2.45489
2.45444
2.45021
2.45362
2.45766
2.42062
2.43832
2.44922
2.43966
2.43793
2.42861
2.47295
2.47931
2.43043
2.43742
2.42654
2.42782
2.42745
2.42723
2.45029
2.45723
2.45595
2.45909
2.45164
2.4506
2.45723
2.43517
2.45385
2.44741
2.44598
2.44298
2.44713
2.44251
2.45965
2.45953
2.45558
2.45079
2.46329
2.46191
2.45143
2.4389
2.44021
2.43353
2.44385
2.43039
2.43073
2.44127
2.44746
2.46183
2.44195
2.44814
2.4519
2.45365
2.44484
2.45366
2.45185
2.43112
2.44572
2.44351
2.44524
2.44315
2.43386
2.46334
2.46506
2.47055
2.45459
2.47678
2.47215
2.46843
2.48134
2.46353
2.47427
2.46981
2.45756
2.45406
2.46302
2.4668
2.42392
2.43484
2.43587
2.42842
2.456
2.44948
2.46521
2.45831
2.46194
2.4413
2.46116
2.44642
2.44946
2.45306
2.44522
2.43139
2.44969
2.45218
2.4582
2.44788
2.46329
2.45627
2.52004
2.53859
2.54482
2.52816
2.5302
2.46178
2.44969
2.44822
2.45718
2.4519
2.45648
2.44139
2.45423
2.45012
2.47573
2.48231
2.47848
2.44536
2.48344
2.46646
2.4715
2.45106
2.45873
2.46331
2.4834
2.50289
2.45901
2.46111
2.4973
2.48526
2.47407
2.49923
2.49192
2.47691
2.43853
2.43571
2.43579
2.43136
2.43607
2.43473
2.41569
2.40952
2.41725
2.43773
2.42621
2.42062
2.41989
2.42708
2.42009
2.41568
2.40233
2.41444
2.41198
2.4268
2.42212
2.42295
2.42023
2.42498
2.423
2.4682
2.47487
2.47175
2.47622
2.47354
2.46638
2.4672
2.44733
2.45631
2.46082
2.46156
2.45454
2.46953
2.45241
2.46469
2.47157
2.47601
2.47893
2.47819
2.46697
2.46097
2.47043
2.46982
2.46342
2.46823
2.45983
2.46008
2.47173
2.41156
2.40922
2.42417
2.42706
2.4312
2.42025
2.42102
2.41344
2.45572
2.44659
2.46013
2.45726
2.45627
2.46242
2.44804
2.43514
2.43778
2.43886
2.43639
2.44054
2.42748
2.43024
2.4333
2.44603
2.44962
2.44042
2.44776
2.44803
2.44249
2.43611
2.437
2.43014
2.45066
2.43804
2.43932
2.43736
2.43981
2.45206
2.44041
2.425
2.42899
2.4554
2.46289
2.45442
2.45826
2.44242
2.44205
2.4044
2.42464
2.41274
2.41758
2.41531
2.41446
2.40436
2.40812
2.4576
2.47421
2.44928
2.46002
2.45615
2.46155
2.45017
2.45875
2.46314
2.46725
2.46258
2.42844
2.44237
2.44639
2.43141
2.43447
2.44884
2.43594
2.44587
2.48967
2.49627
2.50228
2.50177
2.47645
2.47336
2.45307
2.46598
2.46488
2.46511
2.46457
2.47818
2.47576
2.48692
2.47745
2.48504
2.48351
2.50094
2.48305
2.50018
2.48968
2.48794
2.49667
2.49339
2.48268
2.49542
2.47254
2.47465
2.48272
2.4847
2.47386
2.47367
2.48308
2.52184
2.51324
2.51292
2.51995
2.5055
2.50876
2.49633
2.49216
2.48991
2.49909
2.51823
2.51145
2.51487
2.49783
2.51509
2.51814
2.52147
2.49349
2.47458
2.48784
2.48399
2.48093
2.47026
2.47325
2.48644
2.49191
2.50782
2.49214
2.49199
2.49273
2.50221
2.49708
2.49206
2.50613
2.50191
2.50095
2.50073
2.48489
2.49037
2.49661
2.50293
2.49612
2.47392
2.48511
2.47644
2.47158
2.48225
2.48278
2.47195
2.46952
2.46027
2.4672
2.46553
2.47397
2.47507
2.46398
2.45866
2.46053
2.45313
2.4648
2.45229
2.45481
2.46294
2.46971
2.49107
2.4827
2.4813
2.47947
2.48377
2.47764
2.48417
2.4672
2.46223
2.47043
2.47225
2.47002
2.47284
2.49134
2.47872
2.4686
2.47494
2.48247
2.48097
2.47617
2.4648
2.48158
2.47309
2.47651
2.46855
2.47195
2.47328
2.4964
2.50255
2.47879
2.49411
2.48687
2.49083
2.48986
2.52024
2.53879
2.53199
2.54176
2.52702
2.53002
2.5388
2.51021
2.5312
2.52344
2.52236
2.5214
2.52652
2.51942
2.54037
2.53774
2.53157
2.52675
2.54281
2.53963
2.52876
2.50732
2.51086
2.50613
2.51782
2.50109
2.50374
2.51551
2.52472
2.54366
2.5156
2.52493
2.52333
2.52917
2.52036
2.53455
2.5262
2.50353
2.51915
2.51952
2.52069
2.51793
2.51865
2.5211
2.4763
2.5009
2.48454
2.48488
2.48003
2.49393
2.49709
2.49424
2.51236
2.49447
2.50438
2.48773
2.4824
2.50516
2.48933
2.49198
2.52611
2.53357
2.54491
2.52507
2.54406
2.52866
2.53329
2.52605
2.53328
2.49013
2.49406
2.50939
2.50268
2.50689
2.49078
2.49675
2.5047
2.52437
2.52604
2.50998
2.53348
2.50969
2.50914
2.52198
2.51524
2.52013
2.52119
2.52159
2.49272
2.49771
2.50946
2.49139
2.48373
2.499
2.47461
2.48336
2.48334
2.48747
2.47955
2.50463
2.51004
2.5118
2.51337
2.51149
2.51196
2.51148
2.48311
2.49928
2.49783
2.48651
2.48875
2.48878
2.52251
2.5123
2.50881
2.50516
2.50203
2.4942
2.48329
2.4968
2.48724
2.48827
2.49684
2.51618
2.52039
2.49801
2.50624
2.51497
2.51615
2.50438
2.50387
2.48761
2.50154
2.49452
2.49896
2.49959
2.51793
2.53093
2.53877
2.53346
2.51729
2.57617
2.56276
2.56388
2.5687
2.57042
2.56523
2.57098
2.56445
2.58138
2.55327
2.53206
2.55127
2.53917
2.54952
2.55331
2.54005
2.54369
2.56979
2.56917
2.5533
2.56577
2.56992
2.57342
2.55865
2.55711
2.53125
2.55058
2.54059
2.54675
2.53423
2.51115
2.52128
2.54573
2.52962
2.51883
2.57838
2.57679
2.58152
2.55842
2.57841
2.57815
2.52858
2.54668
2.53777
2.53107
2.53716
2.50772
2.5058
2.52573
2.52691
2.52951
2.52107
2.56635
2.56738
2.54459
2.53484
2.56324
2.54516
2.55432
2.5495
2.54937
2.53347
2.52869
2.54386
2.55192
2.53279
2.53387
2.54122
2.52615
2.53175
2.53906
2.56722
2.55451
2.56952
2.49882
2.49794
2.52799
2.50793
2.51348
2.51023
2.51056
2.46168
2.47802
2.45972
2.47134
2.46081
2.46656
2.46824
2.47622
2.48351
2.4815
2.47285
2.46424
2.47959
2.47342
2.47268
2.46899
2.48073
2.4804
2.49435
2.49702
2.48882
2.49469
2.49668
2.48184
2.48952
2.47879
2.47435
2.46734
2.47914
2.47994
2.47026
2.47872
2.47972
2.48199
2.50559
2.48853
2.49437
2.48757
2.4909
2.47637
2.4581
2.46874
2.45838
2.46842
2.46471
2.46149
2.46542
2.44852
2.44205
2.44891
2.45296
2.45015
2.45464
2.45035
2.44336
2.44803
2.45494
2.44426
2.45472
2.47617
2.47775
2.47129
2.46697
2.47981
2.48119
2.46604
2.46238
2.45184
2.47509
2.46203
2.46695
2.46306
2.46509
2.45125
2.45038
2.47474
2.46059
2.45365
2.45383
2.4615
2.45183
2.46802
2.45965
2.45476
2.46397
2.46678
2.4544
2.45986
2.48667
2.47209
2.4621
2.46779
2.45968
2.45526
2.45487
2.47409
2.46693
2.46214
2.47019
2.46722
2.45525
2.46069
2.46412
2.50328
2.49822
2.51508
2.49583
2.4947
2.51285
2.53238
2.53694
2.53778
2.53241
2.52215
2.51974
2.53557
2.51839
2.51956
2.51156
2.50807
2.5194
2.52516
2.50742
2.51817
2.49554
2.4915
2.5008
2.50307
2.50009
2.50509
2.49903
2.52507
2.51774
2.51524
2.50994
2.51641
2.51211
2.49326
2.5123
2.52551
2.51206
2.50862
2.51041
2.51059
2.51705
2.49258
2.50494
2.50397
2.50634
2.50199
2.50844
2.50324
2.47755
2.48723
2.48781
2.4901
2.49399
2.49499
2.47046
2.51327
2.49796
2.52722
2.51264
2.51758
2.5132
2.51691
2.47838
2.46677
2.49031
2.48037
2.47711
2.47335
2.48539
2.47912
2.47697
2.50633
2.4858
2.4938
2.48464
2.49014
2.4703
2.46605
2.47266
2.47612
2.47092
2.46344
2.47735
2.49344
2.49433
2.50455
2.48985
2.50637
2.50347
2.49178
2.48402
2.46875
2.4581
2.46498
2.47244
2.47038
2.46684
2.45055
2.45895
2.45749
2.45614
2.48999
2.49178
2.51104
2.50247
2.49344
2.49564
2.5018
2.49645
2.4776
2.48233
2.46798
2.45578
2.48114
2.47634
2.4691
2.4643
2.4772
2.47147
2.45408
2.46908
2.46385
2.46917
2.48245
2.49737
2.48772
2.48648
2.49429
2.49507
2.48146
2.50452
2.50723
2.53869
2.52288
2.51768
2.5155
2.52546
2.50474
2.49115
2.48678
2.48004
2.48529
2.48586
2.50453
2.5078
2.49982
2.51515
2.49794
2.48894
2.49846
2.50084
2.47954
2.50084
2.48574
2.48975
2.49289
2.57654
2.56029
2.54541
2.55392
2.56346
2.56186
2.55464
2.523
2.53749
2.56885
2.57222
2.55654
2.53977
2.55933
2.56052
2.55518
2.57164
2.55736
2.54167
2.54838
2.54795
2.55571
2.57696
2.57808
2.51595
2.52163
2.50619
2.53701
2.52747
2.52193
2.51662
2.53246
2.48602
2.51716
2.49849
2.49291
2.49306
2.49874
2.49046
2.51598
2.4991
2.50332
2.49455
2.48184
2.48643
2.49249
2.48425
2.48838
2.49521
2.50435
2.51969
2.50722
2.52115
2.52182
2.50914
2.48044
2.51698
2.52961
2.54191
2.54437
2.55353
2.53676
2.54022
2.52976
2.525
2.48832
2.49423
2.48538
2.43269
2.42228
2.40777
2.42935
2.43714
2.42124
2.41904
2.41812
2.46121
2.4713
2.4537
2.46553
2.46465
2.46402
2.4588
2.48514
2.48314
2.47444
2.47707
2.46495
2.47637
2.43787
2.43978
2.45081
2.44287
2.49948
2.49081
2.46768
2.4493
2.46093
2.4559
2.45804
2.46065
2.45785
2.48407
2.45852
2.47674
2.47009
2.45938
2.51284
2.54092
2.54506
2.55168
2.54668
2.5453
2.54355
2.54617
2.45208
2.45325
2.45511
2.47045
2.47202
2.47293
2.43631
2.42979
2.43119
2.4215
2.43554
2.43068
2.43363
2.45607
2.45863
2.45168
2.45761
2.44679
2.44999
2.43989
2.44198
2.44032
2.43958
2.44538
2.47023
2.47307
2.46261
2.46462
2.46866
2.46994
2.46551
2.45424
2.45034
2.44237
2.4439
2.44074
2.44715
2.44036
2.44341
2.5268
2.51951
2.50801
2.5145
2.49535
2.41857
2.48909
2.51364
2.52073
2.51697
2.49288
2.50011
2.49491
2.49392
2.49609
2.49581
2.49325
2.53991
2.48191
2.4851
2.48524
2.4957
2.4848
2.49835
2.49257
2.49383
2.48921
2.49686
2.53205
2.52467
2.53637
2.55495
2.55598
2.541
2.5591
2.54348
2.54099
2.54249
2.55136
2.54545
2.54434
2.53137
2.53674
2.53419
2.54154
2.53276
2.53794
2.53765
2.47862
2.47353
2.48335
2.47472
2.47125
2.4397
2.44225
2.45183
2.44477
2.44923
2.45224
2.45032
2.46969
2.48365
2.49033
2.47495
2.49595
2.4853
2.49153
2.49145
2.49175
2.48956
2.49326
2.45328
2.46046
2.46431
2.46782
2.46024
2.46561
2.46259
2.4762
2.48893
2.47741
2.48201
2.48396
2.48723
2.48094
2.47793
2.47967
2.49374
2.48571
2.48187
2.48626
2.47621
2.50464
2.50255
2.53554
2.53883
2.55091
2.56227
2.56571
2.54795
2.54172
2.54406
2.54588
2.54793
2.54444
2.54076
2.55512
2.54096
2.54708
2.54283
2.54798
2.54201
2.55801
2.55873
2.55943
2.55394
2.52559
2.52305
2.5154
2.52239
2.52287
2.52638
2.52159
2.50965
2.50832
2.51225
2.50949
2.50437
2.42516
2.41699
2.42011
2.4171
2.42234
2.41917
2.41986
2.39763
2.40055
2.39724
2.40494
2.39886
2.453
2.45455
2.45799
2.45286
2.45457
2.45307
2.45457
2.46041
2.45325
2.45817
2.46091
2.45647
2.46745
2.4575
2.45481
2.4616
2.46282
2.45886
2.45762
2.4644
2.46289
2.45996
2.442
2.44505
2.41866
2.41086
2.42182
2.4815
2.47635
2.48038
2.43942
2.4469
2.44146
2.44612
2.44212
2.44435
2.43968
2.44793
2.4388
2.43043
2.42873
2.42565
2.43008
2.42797
2.43007
2.42813
2.42669
2.42973
2.42881
2.42337
2.42955
2.42349
2.44446
2.43933
2.4494
2.44528
2.44493
2.44241
2.44789
2.44701
2.43857
2.44919
2.44449
2.44532
2.44262
2.44717
2.42409
2.4279
2.42259
2.42385
2.42582
2.42158
2.45122
2.45252
2.44685
2.44508
2.45389
2.44837
2.45507
2.44966
2.45403
2.43682
2.4388
2.42764
2.4309
2.43885
2.43306
2.44916
2.44788
2.43425
2.42818
2.48356
2.48041
2.42721
2.43548
2.43516
2.4336
2.4274
2.42804
2.4256
2.46899
2.46668
2.46396
2.46115
2.46526
2.46365
2.46103
2.45282
2.44752
2.45769
2.45425
2.45275
2.45025
2.45628
2.44964
2.44749
2.4448
2.44808
2.44782
2.45146
2.4481
2.44117
2.44626
2.44927
2.44501
2.44457
2.44372
2.44636
2.44721
2.4493
2.45291
2.45417
2.44901
2.45128
2.45204
2.43509
2.44323
2.43946
2.44535
2.43975
2.44279
2.44372
2.42836
2.42874
2.4413
2.4275
2.47367
2.48386
2.46637
2.47107
2.47323
2.43894
2.43286
2.42982
2.46914
2.46652
2.46519
2.46712
2.47107
2.46495
2.46769
2.45892
2.44789
2.45016
2.44627
2.44019
2.44383
2.43441
2.44182
2.43291
2.51287
2.50782
2.54152
2.53971
2.46209
2.45957
2.47024
2.464
2.46296
2.46363
2.46663
2.47376
2.47079
2.46742
2.47513
2.47556
2.46641
2.46519
2.45609
2.48878
2.48507
2.48504
2.49081
2.48847
2.48817
2.47535
2.48132
2.4738
2.48608
2.4836
2.47058
2.43352
2.43846
2.4374
2.43407
2.44099
2.43538
2.43594
2.43045
2.43074
2.42916
2.42906
2.42719
2.42998
2.42007
2.43257
2.41372
2.40334
2.41395
2.40864
2.40671
2.41019
2.40942
2.40452
2.4262
2.42434
2.4206
2.48116
2.45448
2.45451
2.45419
2.4633
2.46566
2.46834
2.46114
2.47044
2.46638
2.47497
2.47047
2.47806
2.4803
2.46861
2.47077
2.47591
2.46333
2.47417
2.46415
2.46616
2.47417
2.46628
2.46465
2.4588
2.44788
2.45735
2.43042
2.43577
2.4255
2.42948
2.43028
2.43198
2.42761
2.43148
2.43379
2.43677
2.43255
2.43683
2.43286
2.4307
2.44198
2.43751
2.43933
2.43824
2.44536
2.43774
2.43971
2.43809
2.44219
2.43787
2.44041
2.44837
2.44769
2.45787
2.45014
2.459
2.46236
2.4376
2.44116
2.43322
2.44415
2.43582
2.42652
2.43653
2.43065
2.44057
2.41018
2.40573
2.40749
2.40319
2.3982
2.46147
2.45632
2.44451
2.4533
2.44423
2.46003
2.46963
2.47193
2.4636
2.47135
2.46399
2.47868
2.46835
2.47637
2.44671
2.43538
2.51071
2.49809
2.50249
2.50378
2.45802
2.46667
2.46282
2.46596
2.46135
2.46464
2.46282
2.48349
2.49019
2.49271
2.48888
2.48933
2.48915
2.49157
2.48329
2.48803
2.48408
2.47939
2.49525
2.48431
2.47598
2.4874
2.48723
2.49272
2.48723
2.4882
2.48696
2.48963
2.5351
2.52966
2.53051
2.50421
2.51331
2.49099
2.49073
2.49572
2.48525
2.49749
2.50612
2.50064
2.51285
2.50595
2.50986
2.50631
2.50925
2.49965
2.50386
2.47902
2.47894
2.47282
2.48194
2.4657
2.47441
2.49518
2.50222
2.49767
2.48919
2.48576
2.48184
2.48771
2.48634
2.47625
2.4718
2.47367
2.47602
2.47293
2.47452
2.47254
2.48531
2.47804
2.47564
2.47883
2.48179
2.48113
2.48004
2.46233
2.46803
2.47188
2.46983
2.46672
2.46704
2.46775
2.48805
2.48266
2.4926
2.49008
2.48848
2.48639
2.49149
2.46024
2.46903
2.45817
2.46368
2.46231
2.46591
2.45974
2.4647
2.47126
2.46024
2.46706
2.46527
2.46853
2.46392
2.48194
2.48053
2.49158
2.48627
2.48338
2.48239
2.48747
2.48774
2.496
2.49784
2.49871
2.49183
2.49465
2.49576
2.54591
2.54793
2.54404
2.54019
2.54574
2.54446
2.54192
2.5219
2.5306
2.5252
2.52811
2.53371
2.52397
2.52252
2.51545
2.52102
2.52215
2.52355
2.51555
2.51728
2.52188
2.52883
2.52349
2.52214
2.5204
2.5245
2.52465
2.52676
2.53348
2.53316
2.52736
2.52896
2.53172
2.50765
2.51775
2.51075
2.51753
2.51144
2.5156
2.51234
2.48745
2.47694
2.47795
2.47369
2.47233
2.4781
2.49491
2.50492
2.48966
2.49803
2.49468
2.49844
2.48972
2.49633
2.4999
2.49967
2.50161
2.53763
2.54069
2.54667
2.50692
2.5187
2.51036
2.51856
2.51145
2.51625
2.5134
2.48579
2.49924
2.50973
2.51216
2.50677
2.50321
2.50287
2.50428
2.51702
2.50316
2.52293
2.51475
2.51583
2.51961
2.51754
2.529
2.51868
2.52723
2.51379
2.51413
2.50628
2.50412
2.49338
2.51531
2.50646
2.48225
2.48453
2.48992
2.49003
2.4849
2.48634
2.48858
2.52028
2.5171
2.5261
2.52987
2.5169
2.4943
2.49798
2.50193
2.51323
2.51121
2.51005
2.51304
2.5088
2.49105
2.49863
2.4954
2.49625
2.49431
2.49614
2.49415
2.49924
2.50334
2.49975
2.5054
2.50074
2.50463
2.50317
2.49612
2.50823
2.50484
2.50701
2.50002
2.50364
2.50368
2.51095
2.5087
2.51216
2.52383
2.51911
2.52783
2.52893
2.52807
2.51659
2.50156
2.51475
2.51694
2.51799
2.50871
2.51282
2.50758
2.57269
2.56801
2.5703
2.58162
2.57002
2.57496
2.57591
2.57737
2.57634
2.54851
2.55282
2.54124
2.55342
2.55419
2.51912
2.52718
2.55445
2.55818
2.56249
2.55783
2.5496
2.55086
2.56301
2.56112
2.52914
2.52592
2.52564
2.52183
2.5236
2.52612
2.52194
2.5344
2.52933
2.52632
2.51868
2.53028
2.57359
2.56455
2.57484
2.55141
2.54568
2.54013
2.54004
2.54628
2.54527
2.54051
2.55172
2.54736
2.54404
2.54178
2.55164
2.54846
2.54302
2.55138
2.54911
2.54574
2.54819
2.51785
2.5055
2.50902
2.50704
2.51238
2.50719
2.51034
2.47695
2.47141
2.49589
2.50472
2.49017
2.49624
2.48166
2.48264
2.46287
2.47032
2.49402
2.48266
2.4878
2.489
2.48819
2.48758
2.49218
2.48568
2.47643
2.4827
2.47884
2.48419
2.48287
2.48226
2.47798
2.47085
2.499
2.48846
2.49137
2.48746
2.4947
2.49164
2.49207
2.44721
2.45457
2.45137
2.45829
2.44639
2.45401
2.45247
2.43985
2.45055
2.43708
2.44282
2.44362
2.44595
2.43762
2.45655
2.45981
2.46507
2.46535
2.4588
2.45919
2.46155
2.46534
2.46294
2.45916
2.46477
2.46261
2.46443
2.46231
2.46567
2.45993
2.45656
2.45686
2.46132
2.46018
2.4582
2.46773
2.4611
2.47172
2.47121
2.46088
2.45787
2.44903
2.44955
2.46418
2.45783
2.45512
2.45416
2.47473
2.46388
2.46265
2.47609
2.46747
2.47457
2.47264
2.46388
2.47467
2.47044
2.47597
2.45943
2.47792
2.46062
2.4608
2.46324
2.46407
2.47106
2.46567
2.46492
2.46488
2.46518
2.517
2.51622
2.52144
2.51382
2.51098
2.50967
2.52002
2.50706
2.51867
2.51639
2.51543
2.51147
2.51436
2.51317
2.50514
2.50338
2.49797
2.5051
2.50266
2.50442
2.50201
2.4887
2.49936
2.4858
2.49181
2.49187
2.49543
2.48667
2.52392
2.51675
2.52999
2.5261
2.52601
2.52127
2.52905
2.52806
2.51639
2.53049
2.52226
2.52486
2.52045
2.52641
2.49414
2.50017
2.48526
2.49135
2.495
2.49491
2.48979
2.48664
2.47751
2.47986
2.48981
2.46224
2.51534
2.51045
2.50387
2.50418
2.51052
2.5086
2.50611
2.48481
2.48097
2.47926
2.47547
2.48325
2.4798
2.47981
2.49712
2.48578
2.48764
2.48376
2.49249
2.4881
2.48876
2.47929
2.48309
2.48289
2.47834
2.47967
2.47855
2.47929
2.49338
2.48494
2.48279
2.48717
2.49004
2.49013
2.48794
2.45481
2.46242
2.45413
2.45669
2.45388
2.45798
2.45152
2.4698
2.46326
2.46671
2.51578
2.50804
2.50795
2.50308
2.50492
2.50172
2.5025
2.48755
2.47843
2.47885
2.4749
2.48468
2.48375
2.47992
2.47538
2.47295
2.46701
2.46563
2.47479
2.47102
2.47335
2.46225
2.47323
2.46922
2.46887
2.46683
2.47382
2.4689
2.48368
2.47832
2.47972
2.48549
2.4839
2.48319
2.48783
2.48178
2.48528
2.48833
2.48589
2.48651
2.48426
2.48493
2.48556
2.49804
2.4957
2.49538
2.49433
2.48992
2.48524
2.49132
2.49145
2.48555
2.54018
2.55016
2.53485
2.54377
2.54054
2.54526
2.53874
2.53324
2.5443
2.5671
2.55238
2.56342
2.56144
2.55776
2.55783
2.53618
2.56473
2.56574
2.47437
2.48
2.49564
2.5314
2.5281
2.52512
2.5198
2.52953
2.52549
2.52502
2.5131
2.50471
2.50098
2.50531
2.50323
2.50648
2.5034
2.4971
2.49265
2.49274
2.4983
2.49666
2.4949
2.48741
2.49246
2.48832
2.48542
2.48923
2.48853
2.48654
2.50724
2.51175
2.51255
2.46902
2.4818
2.53717
2.5525
2.52057
2.48889
2.58569
2.5765
2.57328
2.59037
2.42794
2.42132
2.4143
2.41514
2.41172
2.41201
2.46218
2.46795
2.47188
2.47457
2.46611
2.46844
2.47143
2.47144
2.48207
2.47166
2.45797
2.47592
2.47017
2.4815
2.48083
2.48476
2.41688
2.4345
2.49071
2.45281
2.5464
2.55814
2.5458
2.54898
2.54909
2.55353
2.55064
2.55231
2.5676
2.56833
2.55933
2.56684
2.56733
2.56927
2.56716
2.54947
2.56036
2.55849
2.55332
2.55186
2.55473
2.5485
2.54809
2.55645
2.54966
2.5569
2.55054
2.55545
2.55156
2.5611
2.56129
2.55302
2.55347
2.55833
2.55856
2.55351
2.56307
2.55609
2.56196
2.55574
2.56159
2.55864
2.56038
2.54654
2.54726
2.55174
2.55451
2.54821
2.55032
2.55288
2.40863
2.41654
2.41298
2.40982
2.41127
2.41488
2.40724
2.41654
2.4132
2.4138
2.40701
2.41078
2.40874
2.41116
2.41121
2.40723
2.41063
2.4152
2.46429
2.45975
2.46295
2.46223
2.46333
2.4627
2.46388
2.46612
2.45329
2.46442
2.463
2.46612
2.46568
2.47871
2.4783
2.47389
2.47146
2.46633
2.46112
2.46039
2.46432
2.45625
2.45442
2.46388
2.47002
2.4653
2.46839
2.46378
2.4697
2.46359
2.46841
2.46496
2.46256
2.46718
2.46017
2.46439
2.45786
2.46167
2.46349
2.46918
2.46367
2.46626
2.46672
2.45999
2.4637
2.4597
2.45851
2.46623
2.46015
2.45832
2.46107
2.46024
2.4577
2.45953
2.45739
2.45711
2.46571
2.46466
2.46363
2.46955
2.46243
2.45933
2.46139
2.46277
2.46411
2.46029
2.46752
2.47105
2.46307
2.46107
2.45492
2.42056
2.42293
2.4225
2.42005
2.42317
2.4209
2.41971
2.41779
2.43121
2.43192
2.41802
2.42538
2.41626
2.42082
2.41585
2.42842
2.4236
2.42147
2.41719
2.42415
2.42681
2.42421
2.4164
2.43282
2.41844
2.42641
2.42502
2.42455
2.422
2.41831
2.41762
2.42271
2.42032
2.44946
2.43445
2.44824
2.45072
2.44998
2.45316
2.4605
2.45344
2.46157
2.4523
2.45427
2.45294
2.45587
2.45354
2.44826
2.44561
2.44013
2.45303
2.45257
2.45317
2.45544
2.4528
2.45124
2.45159
2.44368
2.4356
2.43868
2.44051
2.44233
2.44153
2.43924
2.44346
2.44781
2.44181
2.45093
2.45324
2.44905
2.45708
2.4556
2.45336
2.45109
2.45546
2.44321
2.45227
2.4504
2.44132
2.44831
2.44009
2.44523
2.4416
2.44124
2.44504
2.44025
2.44508
2.44355
2.4506
2.44176
2.43655
2.44119
2.45053
2.44784
2.44785
2.4444
2.45075
2.44565
2.47866
2.45853
2.46775
2.46623
2.46493
2.45968
2.46262
2.459
2.45938
2.46611
2.48353
2.48131
2.46778
2.47218
2.4761
2.46608
2.47021
2.46277
2.47164
2.45618
2.47131
2.46091
2.46927
2.46448
2.45489
2.4679
2.46778
2.48218
2.46972
2.47991
2.45735
2.46503
2.46226
2.46514
2.46064
2.46367
2.46126
2.45009
2.45282
2.45411
2.45693
2.449
2.44794
2.45334
2.46661
2.47369
2.46991
2.46121
2.46645
2.46042
2.47233
2.46549
2.46584
2.46229
2.46753
2.45868
2.45547
2.46325
2.46311
2.4624
2.45985
2.46484
2.4604
2.45868
2.45569
2.46003
2.45752
2.45733
2.4584
2.46846
2.4725
2.47002
2.46495
2.47071
2.46643
2.46827
2.44219
2.44567
2.44715
2.45801
2.45198
2.45041
2.459
2.45834
2.45782
2.446
2.45259
2.45537
2.44735
2.45663
2.44105
2.44307
2.44544
2.45085
2.45515
2.44567
2.45995
2.45346
2.46399
2.46203
2.46397
2.45749
2.46568
2.44923
2.45424
2.44903
2.452
2.45693
2.4609
2.45375
2.45906
2.45711
2.44913
2.44593
2.44775
2.45423
2.45222
2.45532
2.44589
2.46558
2.46324
2.45534
2.45929
2.46295
2.45293
2.45566
2.4511
2.45118
2.46033
2.45647
2.45154
2.45274
2.45698
2.53975
2.5204
2.51213
2.51912
2.53936
2.5133
2.52586
2.52856
2.53908
2.52541
2.48118
2.47209
2.48247
2.48408
2.48135
2.48335
2.47936
2.4793
2.47872
2.47664
2.49262
2.47891
2.47657
2.48179
2.50344
2.50218
2.4925
2.49805
2.49262