/*--------------------------------*- C++ -*----------------------------------*\
| =========                 |                                                 |
| \\      /  F ield         | OpenFOAM: The Open Source CFD Toolbox           |
|  \\    /   O peration     | Version:  v1612+                                |
|   \\  /    A nd           | Web:      www.OpenFOAM.com                      |
|    \\/     M anipulation  |                                                 |
\*---------------------------------------------------------------------------*/
FoamFile
{
    version     2.0;
    format      ascii;
    class       surfaceScalarField;
    location    "50";
    object      phi;
}
// * * * * * * * * * * * * * * * * * * * * * * * * * * * * * * * * * * * * * //

dimensions      [0 3 -1 0 0 0 0];

internalField   nonuniform List<scalar> 
45591
(
-1.72899e-09
-7.81203e-10
5.37417e-10
1.97277e-09
3.58579e-10
-2.84315e-09
2.54359e-09
-5.90321e-11
4.52153e-09
-5.13589e-09
2.36416e-09
-1.74978e-09
5.32266e-09
-8.32546e-09
-2.79638e-09
5.79918e-09
-7.53751e-10
2.85224e-09
-2.16839e-09
6.99431e-11
-1.73385e-09
-5.5051e-10
2.0574e-09
2.26997e-10
-1.90561e-09
2.49713e-09
-7.86911e-10
1.95437e-10
-8.31932e-09
1.08746e-08
-9.73404e-09
7.17872e-09
-8.44763e-09
5.35001e-09
5.49769e-09
-2.40004e-09
8.17716e-09
4.02448e-10
-4.88921e-09
-3.69038e-09
6.67443e-09
-6.04481e-09
5.68662e-09
-6.31624e-09
-3.19605e-09
2.99393e-09
-4.32734e-09
4.52946e-09
1.15383e-09
-5.84276e-09
3.14495e-09
1.54401e-09
4.58396e-09
-1.21345e-09
2.77063e-09
-6.1411e-09
-4.15243e-09
2.24464e-09
-2.86032e-09
4.76812e-09
3.26531e-09
-9.50237e-09
4.27509e-09
1.96194e-09
1.94106e-09
1.16727e-09
-3.18899e-09
8.06597e-11
-5.39991e-09
-2.94174e-09
5.3733e-09
2.96831e-09
-7.7314e-10
5.22965e-09
-3.4522e-09
-9.54822e-10
4.10842e-09
2.98566e-10
3.18777e-09
-3.51671e-10
-3.32731e-09
4.91201e-10
-2.01147e-09
2.24041e-09
-4.55804e-10
2.26839e-10
5.44392e-09
-6.56354e-10
4.08219e-09
-8.86979e-09
-4.03007e-09
4.64387e-09
-7.60768e-10
1.46952e-10
2.54512e-09
-2.77224e-09
1.51175e-10
7.59429e-11
-4.05718e-09
4.00825e-09
4.33183e-09
-1.97278e-09
6.14565e-09
-9.69333e-10
6.27312e-09
-2.97223e-09
-7.87913e-09
5.23577e-10
4.1829e-09
3.17265e-09
-4.29518e-09
4.18919e-09
1.98424e-10
-9.2466e-11
1.39655e-10
-2.31869e-09
2.33521e-09
-1.56178e-10
2.41039e-09
-4.48081e-09
2.06805e-09
2.34821e-12
-4.12296e-10
2.3499e-09
-2.01507e-09
7.74438e-11
4.34013e-09
-4.39984e-09
2.01126e-10
-1.41458e-10
-6.67535e-09
2.90333e-09
1.69554e-09
2.07648e-09
2.52055e-10
-2.81964e-09
-4.64592e-09
7.21352e-09
5.35805e-09
-6.01988e-09
9.16723e-10
-2.54876e-10
5.14366e-09
-4.92627e-10
-3.32217e-09
-1.3288e-09
-5.79569e-09
1.75538e-09
1.75842e-09
2.28188e-09
-4.07241e-09
-2.3804e-09
6.32476e-09
1.28069e-10
1.65456e-09
3.26299e-09
-4.07039e-09
-8.47139e-10
4.01427e-09
-7.99408e-09
3.9055e-09
7.4323e-11
-1.8659e-09
1.93195e-10
1.7583e-09
-8.55729e-11
7.1672e-09
-2.51197e-09
-6.52114e-09
2.85743e-09
-6.20493e-09
4.20058e-09
-8.53115e-10
2.88822e-09
-1.26772e-09
5.29775e-09
-6.91824e-09
-4.15859e-09
-5.23321e-09
1.74081e-09
7.65102e-09
9.78698e-09
-7.73436e-09
-6.45028e-09
4.3977e-09
-5.35885e-09
-2.3348e-10
4.08635e-09
1.50601e-09
4.5449e-09
-2.17503e-09
1.10141e-09
-3.4713e-09
-5.0817e-09
1.91126e-09
3.13878e-09
3.16823e-11
2.4119e-09
3.49559e-10
2.69045e-09
-5.45189e-09
-1.72095e-09
-1.92612e-09
4.13659e-09
-4.89517e-10
1.79201e-09
-3.29389e-09
-3.81303e-09
5.31496e-09
-8.53757e-09
6.35991e-09
3.84695e-09
-1.66926e-09
3.10247e-09
1.48102e-09
1.93005e-09
-6.51354e-09
-8.40598e-09
-3.88313e-09
8.43344e-09
3.85566e-09
4.58233e-09
-8.3726e-10
-3.55732e-09
-1.87739e-10
4.99561e-10
-2.49498e-09
1.79416e-09
2.01264e-10
2.58774e-09
-1.59102e-09
-1.27831e-09
2.8159e-10
-2.56262e-09
1.77385e-09
1.01813e-09
-2.29327e-10
7.54768e-10
1.69667e-09
-2.20707e-09
-2.44274e-10
1.12302e-09
-1.05943e-09
-5.26697e-09
5.20341e-09
3.91573e-09
-3.10117e-09
3.08429e-10
5.55437e-09
-8.09008e-09
5.78492e-09
-3.24922e-09
3.11592e-09
-3.5809e-09
-7.41412e-09
5.55141e-09
-9.22211e-09
4.19428e-09
-5.24268e-09
2.7056e-09
-6.02579e-09
8.56289e-09
-2.99767e-09
8.11377e-10
2.33669e-09
-1.50428e-10
-2.34531e-09
-7.36125e-11
4.89243e-09
-2.47351e-09
3.76722e-10
-4.71285e-09
-1.89284e-09
6.22902e-09
2.63697e-09
3.30581e-10
2.88821e-09
-5.85576e-09
-2.07608e-09
1.10876e-09
1.31586e-09
-3.48464e-10
2.53271e-10
-2.74944e-09
-7.33033e-10
3.22927e-09
2.28062e-09
-7.17771e-09
4.2011e-09
6.96049e-10
-2.39554e-09
5.6013e-09
-4.44388e-09
1.23813e-09
-5.31571e-10
-1.18212e-09
1.89683e-09
-1.83017e-10
-2.6827e-09
1.52096e-10
5.23195e-09
-2.70133e-09
-5.85217e-09
6.25549e-09
-4.94408e-09
4.54076e-09
-3.58398e-09
-2.26182e-09
-6.39013e-12
-2.59856e-09
1.64243e-09
-2.62787e-09
-7.7626e-10
3.77529e-09
-5.67146e-09
2.67243e-09
-1.41732e-09
-2.60144e-09
-2.38129e-09
6.40006e-09
4.68584e-09
-3.85172e-09
-2.2515e-09
3.92451e-09
-8.64834e-10
3.63502e-09
-6.69471e-09
8.5228e-10
5.38977e-09
-3.85744e-09
-2.38464e-09
3.43537e-09
4.76443e-09
6.18088e-10
-8.81788e-09
7.47944e-09
-7.39215e-09
-4.34871e-09
4.26141e-09
1.89144e-09
3.24007e-09
-4.18862e-09
-9.42965e-10
6.3731e-10
-1.34213e-10
3.90677e-09
-4.40985e-09
6.02569e-09
-1.67924e-09
-2.39129e-09
-1.95518e-09
5.40723e-09
-4.79865e-09
-7.16292e-09
6.55433e-09
6.02206e-09
-4.02407e-09
4.20797e-09
-6.20596e-09
2.12039e-09
-2.75975e-09
6.3146e-10
7.88315e-12
-8.72123e-09
3.01318e-09
1.23825e-08
-3.20989e-09
-4.00952e-10
-2.67567e-09
6.28651e-09
4.07207e-09
-3.88193e-09
4.45634e-09
-4.64647e-09
1.90047e-09
1.05879e-09
-2.97063e-09
1.13774e-11
3.29304e-09
3.88056e-09
-3.36253e-09
-3.81105e-09
9.89446e-09
-1.551e-09
-5.05039e-09
-5.43969e-09
-1.76487e-09
2.6687e-09
4.53587e-09
-1.35318e-09
3.24809e-09
-5.68586e-09
3.79096e-09
-1.1387e-09
2.27405e-09
5.22808e-09
-6.36342e-09
1.85817e-09
3.61605e-09
3.3721e-09
-8.84625e-09
-8.61252e-10
4.0006e-09
1.88846e-09
-5.02782e-09
-4.4741e-10
2.10082e-09
-1.62325e-09
-3.01997e-11
-2.6124e-09
8.10461e-09
-5.74578e-09
2.53599e-10
-7.35304e-09
8.84853e-09
2.51878e-09
-2.43125e-09
2.26753e-09
-1.55722e-09
-3.62966e-09
-2.49659e-09
4.20015e-09
-7.54287e-09
3.92242e-09
1.03302e-09
2.58742e-09
6.04643e-10
2.48847e-09
2.87796e-09
4.03117e-09
-3.11167e-09
-4.52928e-09
3.6098e-09
-5.03647e-09
8.36238e-09
7.46992e-10
-4.07288e-09
-5.10105e-09
-4.57277e-09
1.26783e-09
-1.1081e-09
4.5257e-09
-3.62973e-09
2.12084e-10
4.38538e-10
5.09821e-09
2.15745e-09
-7.69418e-09
5.57497e-09
6.42367e-09
-7.86822e-10
-1.12118e-08
-6.56292e-10
-9.54746e-10
-2.06168e-09
3.67269e-09
-4.94237e-09
-5.17258e-10
8.3179e-09
-2.85828e-09
-4.42325e-10
4.93355e-09
-3.05312e-09
-1.43809e-09
1.91345e-10
-5.07537e-09
5.11659e-09
-2.32555e-10
1.77613e-09
-2.05263e-09
-1.70913e-10
1.91289e-09
6.44992e-09
-1.30928e-09
-7.05356e-09
2.40402e-09
-2.18069e-09
-1.4373e-12
-2.21861e-10
5.87167e-10
-2.06768e-09
1.52963e-09
-4.90489e-11
2.64469e-09
-6.59721e-09
2.341e-09
1.61152e-09
-3.16695e-09
3.42894e-09
2.69446e-09
-2.95645e-09
-7.41878e-10
3.18303e-09
2.25826e-09
-4.69933e-09
-1.12416e-08
6.12495e-09
9.57565e-09
-4.459e-09
7.94341e-09
1.1011e-09
2.34667e-09
-1.13913e-08
1.69689e-09
5.75962e-09
1.99477e-09
-9.45129e-09
-8.443e-10
3.01935e-09
1.25086e-09
-3.42596e-09
-4.50372e-09
1.86796e-09
2.6355e-09
2.14326e-13
-5.82543e-09
-2.42524e-09
6.23754e-09
2.01316e-09
-9.34239e-10
3.56738e-09
4.03526e-09
-6.66841e-09
6.37137e-10
-4.67094e-09
-1.4401e-09
5.47395e-09
8.33417e-09
-4.30094e-09
6.33984e-09
-1.0373e-08
5.45477e-09
-3.95471e-09
-1.33628e-09
-1.63828e-10
-8.23982e-09
4.34788e-09
1.93705e-09
1.95492e-09
5.91941e-10
2.32215e-09
-2.82931e-09
-8.47682e-11
5.72799e-09
-2.59053e-09
-3.48691e-09
3.49446e-10
-5.78236e-09
4.02507e-09
2.14629e-09
-3.88796e-10
-1.50304e-09
2.93881e-09
6.84624e-10
2.89936e-09
-3.92224e-09
9.61726e-10
6.11567e-11
1.41708e-09
4.78377e-09
-6.21924e-09
1.83912e-11
-2.72701e-09
2.12464e-09
-4.18649e-09
9.65084e-09
-4.32654e-09
3.83801e-09
-9.16232e-09
5.35752e-09
-6.25743e-09
-5.48339e-09
6.38327e-09
2.7776e-09
1.98553e-09
1.4188e-09
-3.78351e-09
2.66928e-09
-3.04525e-10
-1.03929e-09
-9.33805e-10
2.09088e-09
-1.17743e-10
2.83445e-09
-5.44834e-09
-3.45178e-09
6.06568e-09
-1.16866e-09
1.68214e-09
7.37321e-11
7.87434e-10
3.45437e-09
-1.57372e-09
-2.66809e-09
-3.15359e-09
2.13865e-09
1.01338e-09
1.59652e-12
-4.15767e-09
1.06702e-09
3.45504e-09
-3.64362e-10
-2.17042e-09
-4.53573e-10
2.76991e-09
-1.45912e-10
8.10886e-09
-7.31782e-09
1.598e-10
-9.50883e-10
5.05011e-09
-2.95212e-09
2.24212e-09
-2.96024e-09
-6.00446e-10
3.70988e-09
-1.49171e-10
2.27765e-09
-5.4808e-10
2.44114e-09
-4.17071e-09
5.96545e-09
-5.3375e-09
-3.44791e-09
2.81995e-09
5.34839e-09
4.40979e-09
-8.71809e-10
-8.88639e-09
4.30698e-09
8.85651e-10
1.55738e-10
2.28767e-09
-1.55659e-09
5.0955e-09
-5.82662e-09
1.7026e-09
4.4962e-09
-7.92098e-09
1.72218e-09
-4.52585e-09
2.01321e-09
2.71696e-09
-2.04289e-10
1.34034e-09
-3.16626e-09
5.39891e-09
-3.57297e-09
7.90718e-09
2.46748e-09
-5.85678e-09
-4.5179e-09
2.40178e-09
-5.99985e-09
6.59127e-10
2.93894e-09
-4.71099e-09
-4.05212e-09
4.65812e-09
4.10502e-09
-5.15233e-09
7.13831e-09
-4.24783e-09
-1.22106e-09
-7.07824e-09
5.37981e-09
2.91943e-09
-2.65087e-09
1.97246e-10
-1.80982e-09
4.26344e-09
-3.28582e-10
1.75657e-09
4.12641e-09
8.22885e-09
3.30832e-09
-4.39057e-09
-7.14666e-09
-5.06377e-09
4.81114e-09
2.47748e-09
-2.22485e-09
6.25751e-10
4.19964e-09
-4.8218e-09
-3.58541e-12
-2.18363e-09
4.73012e-09
-5.79171e-09
3.24522e-09
4.62085e-09
4.22596e-09
-1.16709e-09
-2.74539e-09
-1.87148e-09
2.21731e-09
2.39954e-09
-2.01745e-09
-1.46592e-09
2.47048e-09
1.01285e-09
-6.39648e-10
-1.65416e-09
2.354e-09
-6.01863e-11
-3.39819e-09
2.38939e-09
4.58224e-09
-3.57334e-09
1.19374e-09
-2.33159e-09
1.36008e-09
-2.22219e-10
5.30526e-09
2.36936e-09
-7.45054e-10
-6.92958e-09
-1.03918e-09
2.70932e-09
-1.64139e-09
-2.87351e-11
-4.9748e-09
2.16604e-09
-4.15466e-09
6.96341e-09
5.93127e-09
-1.77481e-09
-2.65362e-09
-1.50286e-09
3.68583e-09
-4.41273e-10
-3.6046e-09
3.60045e-10
2.86334e-09
-5.20367e-09
6.34331e-09
-4.003e-09
-7.05228e-09
-4.44325e-09
8.47006e-09
3.02546e-09
2.30776e-09
-4.02042e-09
2.0711e-09
-3.58444e-10
-2.87457e-09
8.93045e-09
2.51427e-09
-8.57019e-09
-3.68072e-09
7.12607e-09
-2.97291e-09
-4.72459e-10
1.87894e-09
-4.08925e-09
2.18199e-09
2.83511e-11
-3.25073e-09
-8.44093e-10
-3.83628e-09
7.93109e-09
-2.17544e-09
4.72447e-09
-3.01363e-09
4.64595e-10
3.00208e-09
-5.20371e-09
2.61872e-11
6.2839e-09
4.61056e-09
-8.73128e-09
2.50038e-09
3.05486e-09
3.17605e-09
-1.22029e-09
-5.77507e-09
6.90957e-09
8.57898e-11
-5.11504e-09
6.31738e-09
2.97861e-09
-4.18095e-09
7.2698e-09
-8.87508e-09
-1.62359e-09
3.22886e-09
3.82472e-09
-7.35784e-09
-1.58193e-09
-4.03711e-09
-3.07344e-10
4.30998e-09
3.45143e-11
1.37214e-09
-5.42161e-09
6.30039e-09
-2.25091e-09
1.08651e-09
-2.65962e-09
1.36061e-09
2.12538e-10
3.7807e-09
-1.49514e-09
-2.58243e-09
2.969e-10
-3.52945e-09
-1.18656e-08
7.87591e-09
7.51917e-09
3.82105e-09
-4.23737e-09
-4.33298e-09
4.7493e-09
1.0371e-09
4.72027e-09
-4.66459e-09
-1.0928e-09
4.52364e-09
-4.17012e-09
-4.71916e-09
4.36565e-09
3.57014e-09
-2.11415e-09
-1.69896e-09
2.42985e-10
6.6601e-09
3.95899e-09
-1.96498e-09
-8.65412e-09
-6.30524e-09
4.06248e-09
-4.75459e-10
2.71822e-09
-6.34263e-09
7.64684e-09
7.10158e-09
-8.40578e-09
2.36652e-09
8.21499e-10
-3.11988e-09
-6.81103e-11
-5.33168e-09
2.53189e-10
2.10893e-09
2.96954e-09
-2.91828e-09
6.137e-09
-2.33367e-09
-8.85018e-10
-8.96862e-11
1.34888e-09
-2.73658e-09
1.47738e-09
6.48088e-09
6.4551e-10
-1.82112e-09
2.84453e-09
-1.58007e-09
-4.18273e-09
-2.9563e-09
-4.79779e-09
3.31865e-09
4.43545e-09
-7.92817e-09
6.3526e-09
3.92115e-09
-2.34558e-09
-5.5927e-09
2.99908e-09
-1.57237e-10
2.75088e-09
2.78322e-09
1.3599e-09
-5.00435e-09
1.14146e-09
1.5519e-09
8.98453e-11
4.35981e-09
-3.51381e-09
3.47977e-09
-4.32576e-09
-1.74887e-09
6.21077e-09
-1.0108e-08
5.64612e-09
-4.56495e-09
2.79411e-09
1.73717e-09
3.36962e-11
4.49172e-11
3.70078e-09
-3.94043e-09
1.94805e-10
5.65515e-09
-2.5972e-09
-4.9461e-09
1.8882e-09
-4.33324e-09
7.39854e-09
2.58987e-09
5.21658e-09
-5.90677e-09
3.4153e-09
-2.72512e-09
-2.49651e-09
-5.80706e-10
2.90719e-09
1.7009e-10
3.0527e-09
2.11915e-09
1.75174e-09
-6.92356e-09
-3.80244e-09
-2.29625e-09
-1.51112e-09
7.60982e-09
4.98304e-09
3.94933e-09
-5.21152e-09
-3.72087e-09
-9.31939e-10
5.25488e-10
4.03854e-09
-3.63207e-09
2.09716e-09
-6.15582e-09
2.28689e-09
1.77179e-09
-2.46192e-10
-5.24375e-09
4.66536e-09
8.24587e-10
-3.35827e-09
-2.55276e-09
1.18442e-09
4.72662e-09
5.90602e-09
-3.0586e-09
-2.78472e-09
-6.2668e-11
-3.1347e-09
8.09199e-09
-1.67877e-09
-3.27849e-09
7.36642e-10
8.67313e-09
-3.91755e-09
-5.49218e-09
-4.12923e-09
6.93764e-09
7.98042e-11
-4.42518e-09
5.97346e-09
-1.65626e-09
1.08001e-10
-5.57692e-09
5.13547e-09
8.61862e-09
-3.5507e-09
8.8495e-09
2.91703e-09
-8.21583e-09
-6.86977e-09
-4.10693e-09
5.31711e-09
5.65957e-09
1.49442e-09
3.15073e-09
-4.67266e-09
2.74972e-11
-3.36386e-09
9.82089e-10
-3.06233e-09
5.44413e-09
-6.90967e-09
-3.73497e-10
5.74914e-09
1.53404e-09
-3.04124e-09
-3.33254e-09
8.4385e-09
-2.06471e-09
-6.91149e-09
2.27621e-09
1.15859e-09
3.47672e-09
7.06384e-10
7.8905e-09
-7.73428e-09
-8.6263e-10
-6.70989e-09
7.7729e-09
-1.0703e-09
7.29002e-12
-8.33459e-09
7.91894e-09
-6.49399e-09
2.72868e-09
3.00807e-09
-3.11117e-09
-2.62557e-09
-2.16617e-09
4.73423e-09
-3.70319e-09
1.13514e-09
1.41246e-09
-1.07264e-09
3.56478e-09
-3.90458e-09
4.99478e-09
4.17588e-10
3.23675e-10
-5.73605e-09
7.59477e-09
-3.61118e-10
-2.23886e-09
4.54296e-09
-3.14954e-09
1.90434e-11
-5.32252e-10
3.20297e-11
5.04318e-09
-1.4929e-09
6.53958e-09
3.91772e-09
-8.96438e-09
-7.58958e-09
6.56991e-09
-1.8326e-09
2.85226e-09
5.06755e-09
-5.13852e-09
-1.65802e-09
8.3147e-09
1.17885e-09
-9.07596e-09
5.48663e-09
-2.82378e-09
-2.75246e-09
8.95956e-11
-3.1909e-09
-1.94889e-09
5.14121e-09
-1.40824e-12
4.25721e-09
-7.59607e-10
-4.43411e-09
9.36522e-10
1.85753e-09
2.61657e-09
-4.27992e-09
-1.94218e-10
-2.16293e-09
1.15726e-09
-6.69137e-11
-5.73454e-09
2.78717e-09
-4.35992e-10
5.41094e-09
-2.87155e-10
-4.68776e-09
9.44961e-10
1.84299e-09
2.26214e-09
-4.31644e-09
-5.15477e-09
2.44803e-09
-3.53178e-09
5.80265e-09
-4.71892e-09
-6.60089e-09
3.30268e-09
4.61647e-09
8.946e-09
-8.94604e-09
-4.61645e-09
-5.3249e-09
2.14548e-09
3.15638e-09
2.30076e-11
2.91085e-09
-7.46444e-09
1.81014e-09
2.74337e-09
3.4576e-09
-5.7403e-09
2.34978e-09
-6.71036e-11
-9.85627e-09
3.50308e-09
5.07805e-09
-8.01683e-10
-4.26515e-09
-1.1305e-11
-3.84507e-09
-4.50465e-10
2.37936e-10
4.0576e-09
2.98729e-09
-3.71437e-09
-2.0485e-10
-2.39657e-09
1.00087e-09
1.87763e-09
-4.81904e-10
1.51902e-09
-9.9271e-09
5.54959e-09
2.85848e-09
-3.93662e-09
-2.2667e-09
-2.51944e-09
8.72278e-09
-8.04065e-10
4.69087e-09
-3.72513e-09
-1.61612e-10
7.03917e-09
-6.72511e-09
-1.1181e-09
-2.85169e-09
3.29693e-09
-4.38182e-09
1.24564e-09
-5.2814e-09
3.06923e-09
9.66507e-10
1.02697e-08
-2.47896e-09
3.44554e-09
-1.87105e-09
2.24336e-09
-8.63905e-11
-2.85869e-10
3.83407e-09
1.73917e-09
-5.52699e-09
-4.62394e-11
8.19928e-10
2.9006e-09
-3.70533e-09
-1.51579e-11
6.39503e-10
-3.30908e-09
3.61753e-09
-9.4796e-10
6.67579e-09
6.54266e-10
-7.42763e-09
9.75326e-11
-9.95534e-10
-7.43337e-09
2.79941e-09
5.62949e-09
1.19346e-09
-7.19511e-09
5.0061e-09
-1.094e-08
8.34343e-09
3.79005e-09
2.12963e-09
-4.23308e-09
2.09505e-09
8.4048e-12
-5.97775e-09
5.6957e-09
4.24955e-09
-3.9675e-09
-9.83889e-10
6.21508e-09
4.9863e-09
-1.02175e-08
3.91852e-09
-1.91982e-09
1.30929e-10
4.56461e-10
-3.97131e-09
-7.59523e-09
2.5818e-09
4.02954e-09
2.54488e-09
-3.31559e-09
6.98578e-09
3.73574e-10
2.26627e-09
-2.35648e-09
-2.83334e-10
4.66831e-09
-2.74402e-09
-2.15926e-09
2.34956e-10
-1.63086e-10
3.8851e-09
3.75741e-09
-5.02744e-09
-2.6088e-09
4.22231e-09
3.41391e-09
-3.39671e-09
-8.45733e-09
6.41436e-09
-1.1298e-09
-3.00608e-09
6.32561e-09
-2.18976e-09
4.48525e-10
3.9187e-09
-5.46181e-10
-1.09648e-09
-1.73133e-09
4.19999e-09
-1.62331e-09
-4.69451e-09
6.17023e-09
1.47588e-10
1.94557e-09
-4.25886e-09
2.39623e-09
-8.29338e-11
4.87777e-09
-1.24645e-09
-3.76188e-09
1.30524e-10
1.33769e-09
-5.71975e-09
-1.36614e-10
-5.13061e-09
3.52147e-09
-2.01309e-09
3.62224e-09
-3.80835e-10
5.74116e-09
-2.25786e-09
-5.93139e-09
1.77671e-09
-1.40508e-10
-4.00488e-09
6.43324e-09
-6.15723e-09
3.72888e-09
-2.93175e-09
7.3767e-09
-1.73681e-09
-2.70814e-09
7.46929e-09
-6.31226e-09
-7.83239e-09
2.8871e-09
-4.10977e-09
9.53085e-09
-8.30819e-09
4.89647e-09
4.17167e-09
-3.55088e-09
-5.51725e-09
-5.0733e-09
-1.35727e-09
6.65526e-09
-2.24677e-10
2.19813e-09
5.6969e-10
-2.56435e-09
-2.03459e-10
-2.77143e-09
1.80598e-09
-5.33972e-10
1.49957e-09
-3.18687e-09
5.899e-09
-2.85512e-09
1.43e-10
3.99485e-10
-3.08168e-09
-2.59149e-09
5.27368e-09
4.88614e-09
-8.79614e-09
-1.87234e-09
2.75111e-09
-7.13194e-09
4.36162e-09
1.92247e-11
-6.27417e-09
-1.93968e-09
5.86255e-09
2.3513e-09
-1.73247e-09
-1.46551e-09
-3.65141e-09
6.84938e-09
6.30565e-11
3.62984e-09
4.21429e-09
2.39268e-09
-5.34786e-09
5.41914e-09
-2.46394e-09
4.04902e-09
1.17526e-09
-3.34657e-10
-4.88952e-09
8.95928e-10
-4.04866e-09
3.27573e-09
-1.22978e-10
3.87109e-09
1.69228e-09
7.89797e-10
-6.35318e-09
5.60283e-09
-7.94247e-09
2.62959e-09
-2.89948e-10
4.34947e-09
-2.3738e-09
-2.14798e-09
1.7232e-10
3.68691e-09
-1.86836e-09
-1.91422e-09
9.56675e-11
9.74235e-10
-3.00784e-09
4.74319e-09
-2.70961e-09
-2.70735e-09
-2.166e-09
7.39033e-10
4.13436e-09
2.60634e-09
6.77213e-09
-4.3898e-09
-4.98867e-09
-1.08288e-09
4.04014e-09
-3.30849e-09
3.51232e-10
9.16739e-09
-2.96938e-09
-3.14875e-09
-3.04926e-09
-6.91455e-09
1.87758e-09
5.51343e-09
-4.76465e-10
3.95043e-09
5.22204e-09
-5.7312e-09
-3.44129e-09
-5.33115e-09
-8.74685e-09
7.36807e-09
6.06983e-09
-2.72469e-09
-1.48235e-09
-1.86278e-09
-2.82714e-09
-6.72253e-10
3.40251e-09
9.68652e-11
3.38514e-09
4.27641e-09
-1.91334e-09
-5.74821e-09
-5.04948e-09
-4.38858e-09
7.31928e-09
2.11878e-09
-2.94934e-09
-5.13415e-09
4.42543e-11
8.03923e-09
-4.85364e-09
4.25312e-09
4.39407e-10
1.6107e-10
7.19753e-09
-3.64739e-09
-2.04018e-09
-1.50995e-09
2.22466e-09
2.98305e-09
-5.15968e-09
-4.80238e-11
5.93302e-09
-8.13087e-09
2.31112e-09
-1.133e-10
-4.63819e-09
5.2077e-09
5.62642e-11
1.70003e-09
-4.39793e-09
2.78699e-09
-8.9039e-11
-1.45418e-09
4.34078e-09
-3.06232e-09
1.75735e-10
4.53805e-09
6.73867e-10
-2.56669e-10
-4.95525e-09
6.56892e-09
3.19034e-09
-1.0515e-08
7.55748e-10
6.1579e-09
-4.14314e-09
-4.10122e-09
2.08646e-09
4.64681e-09
-5.85121e-09
1.20438e-09
4.51819e-14
-3.52289e-09
4.14201e-09
-7.50802e-10
1.31704e-10
-5.39093e-10
3.99125e-09
-3.48669e-09
3.45533e-11
5.21993e-09
-3.98017e-09
-8.23116e-09
6.9914e-09
5.05657e-09
1.95493e-09
-6.93472e-09
-7.67916e-11
3.35751e-09
7.34447e-09
-4.00264e-09
-6.69931e-09
6.77374e-09
-3.57061e-09
-1.06561e-09
-2.13751e-09
-2.3035e-09
3.18955e-09
5.2666e-09
-6.15263e-09
1.33359e-09
-6.0149e-09
4.85269e-09
-1.71377e-10
2.73562e-09
-6.34739e-09
9.34107e-10
2.6777e-09
5.42181e-09
7.97925e-11
-1.373e-09
-4.12859e-09
-7.62516e-09
6.08459e-09
2.78621e-09
1.45375e-09
1.0281e-09
-2.43942e-09
-4.23354e-11
-6.72514e-10
-2.05906e-09
-1.20071e-10
-7.73103e-10
-2.0423e-09
2.85048e-09
-3.50079e-11
-5.21954e-09
-3.07885e-09
2.25361e-09
-6.743e-09
4.77836e-10
6.36919e-09
-1.04026e-10
3.78163e-09
-4.93463e-09
1.4154e-09
-2.62355e-10
2.30456e-09
1.60413e-09
-3.62508e-09
-2.83554e-10
3.9949e-09
-7.78144e-09
1.55214e-09
2.23445e-09
-6.64695e-09
1.0143e-09
2.67637e-09
3.43535e-09
4.06086e-09
-4.22474e-09
-3.27147e-09
4.26636e-09
-6.15479e-09
-3.52663e-10
2.24108e-09
-3.33795e-09
4.06913e-09
6.88282e-09
-7.61386e-09
-4.87035e-09
-1.22944e-09
-2.09028e-09
8.19009e-09
-3.36535e-09
7.17908e-09
8.04057e-10
-4.61777e-09
-7.20615e-09
-3.18403e-09
4.08492e-09
-3.56737e-09
5.65094e-09
1.41095e-10
-7.99297e-10
-2.98202e-09
3.7021e-09
7.91954e-11
2.96151e-09
-4.68699e-09
5.6994e-10
1.15554e-09
7.5773e-09
-3.68828e-09
-4.16076e-09
2.71736e-10
-9.4057e-09
6.3497e-09
-3.34951e-09
6.40552e-09
2.96294e-09
8.24433e-10
1.28273e-10
-4.29692e-09
8.14294e-09
4.81104e-09
-8.65702e-09
1.05977e-09
-5.10882e-09
3.87134e-09
1.77755e-10
-6.27402e-09
-2.41833e-09
1.11446e-08
-2.45226e-09
-3.15414e-09
1.92299e-09
1.38998e-09
-1.58855e-10
3.40311e-10
1.99218e-09
2.50029e-09
-3.40156e-09
1.04798e-09
-1.46679e-10
-1.81222e-09
4.52074e-09
-2.81893e-09
1.10423e-10
5.06529e-09
-4.77887e-09
-3.67789e-10
8.13042e-11
2.86626e-09
-7.43356e-10
-2.24744e-09
1.24544e-10
-1.26057e-09
-2.39366e-09
3.69077e-09
-3.65015e-11
-3.51961e-09
1.06714e-08
3.16067e-10
-7.46786e-09
-6.05584e-09
-4.88859e-10
7.27452e-10
2.08905e-09
-3.27053e-10
-1.79956e-09
3.74508e-11
-1.8947e-09
4.42947e-09
-2.61464e-09
7.98708e-11
5.82019e-10
-3.06917e-09
2.45751e-09
2.96282e-11
-4.72065e-09
6.91582e-09
-1.74221e-09
-4.52903e-10
2.56887e-09
1.33591e-09
-3.86555e-09
-3.92239e-11
-1.5701e-10
2.77294e-09
-2.72327e-09
1.0734e-10
-2.4891e-09
5.29653e-09
-2.71061e-09
-9.68076e-11
2.31259e-09
-1.73496e-09
1.4349e-09
-2.0125e-09
-2.19748e-09
-4.41379e-09
-1.47881e-09
-2.32795e-09
3.55049e-09
-1.47029e-09
2.4772e-10
2.41006e-09
-4.0326e-09
1.51388e-09
1.08641e-10
6.33702e-09
-8.17176e-10
-1.61774e-10
-4.1268e-09
-2.20715e-09
6.03665e-09
2.973e-10
-1.46589e-09
4.84115e-09
-9.81968e-11
-3.27708e-09
-1.88087e-09
3.40537e-09
-3.94979e-09
2.42529e-09
8.98526e-09
-6.78422e-09
-4.91569e-09
2.71465e-09
1.86133e-09
9.83729e-11
-2.73975e-09
7.80107e-10
2.86385e-09
-3.4705e-09
-2.38411e-09
2.99081e-09
-5.33278e-09
4.1028e-09
3.29486e-09
-2.06489e-09
4.44636e-10
3.72367e-09
-3.27231e-09
-1.74011e-09
3.26425e-09
-1.58321e-09
5.90482e-11
-1.6523e-10
1.62171e-09
-1.42141e-09
-3.50867e-11
5.31919e-10
-1.48109e-09
-3.13325e-09
4.08241e-09
1.77863e-09
2.49566e-09
1.79189e-09
-5.19456e-09
-4.55531e-09
-1.25789e-09
7.39617e-09
-1.58295e-09
1.76929e-09
3.2831e-09
-5.28713e-10
-2.44708e-09
3.45749e-09
9.07322e-10
-1.91773e-09
2.83318e-09
-4.61323e-09
-4.63686e-09
6.41693e-09
3.8121e-10
-4.64165e-11
5.50925e-09
4.63965e-09
-4.84678e-09
-5.30211e-09
-4.1196e-09
-9.14569e-10
5.24927e-09
-2.15094e-10
1.17485e-10
2.58825e-10
1.4596e-09
-1.83587e-09
3.4145e-09
9.60229e-10
1.51017e-09
-6.33379e-09
4.52678e-09
2.96862e-10
5.85052e-09
-2.5392e-09
-6.13507e-09
-3.04672e-09
-2.46473e-09
-2.28065e-09
-1.05869e-09
-8.64304e-11
3.17887e-09
-5.09499e-09
-2.4374e-09
-3.0556e-09
-5.21102e-09
3.7871e-09
4.4795e-09
4.82432e-09
-4.56323e-09
4.14869e-09
4.8829e-09
-1.7493e-09
-3.47481e-09
3.41188e-10
-1.99176e-09
-1.04886e-09
2.98728e-09
5.33588e-11
4.2053e-09
1.843e-09
-2.75942e-09
-3.28885e-09
3.84854e-09
-5.89195e-09
2.11035e-09
-6.69224e-11
5.0217e-09
-1.66515e-09
1.64905e-10
-3.40731e-09
2.65045e-09
-3.40082e-09
-2.37103e-09
-8.10091e-10
-2.26182e-10
2.85362e-09
6.76586e-09
-5.63609e-09
-3.98337e-09
-3.93159e-09
4.3586e-09
-4.90104e-10
6.30929e-11
1.5074e-09
-4.93801e-10
4.11441e-09
-5.12797e-09
-5.38691e-09
4.20878e-09
1.18709e-10
-3.91325e-09
8.85815e-09
-3.60454e-09
-6.32824e-09
5.47632e-10
5.91899e-09
-1.38348e-10
-9.00398e-10
7.59242e-10
6.12893e-09
-5.98782e-09
-2.63125e-09
6.66634e-09
3.34925e-09
-7.38433e-09
3.11135e-09
-9.32786e-11
-6.00507e-09
2.98705e-09
-2.435e-09
-2.02594e-09
-1.29449e-09
5.75544e-09
-2.79941e-09
1.74921e-09
3.24562e-09
-2.19542e-09
4.73082e-09
-1.9802e-09
-2.73986e-09
-1.07038e-11
4.73601e-09
-1.49302e-09
-1.65343e-09
-1.58951e-09
2.98694e-09
-3.44075e-09
-1.05174e-09
1.50556e-09
-2.23915e-09
-5.92494e-09
7.47633e-09
6.87743e-10
4.67928e-09
-1.1953e-09
-3.51822e-09
3.42747e-11
-3.61386e-09
3.55371e-09
-4.94133e-09
5.00146e-09
-6.96097e-09
-4.83248e-09
6.39061e-09
5.40288e-09
-2.21448e-09
-6.46849e-11
1.32175e-09
-3.36935e-09
-3.07441e-09
5.12201e-09
2.14754e-09
3.3358e-09
-4.45811e-09
-1.02523e-09
-1.73336e-09
4.27394e-09
-2.92909e-09
3.88496e-10
8.25428e-09
-2.04236e-09
-1.92556e-09
-4.28623e-09
1.62665e-09
-1.98027e-09
3.26444e-09
4.59495e-09
-3.84936e-09
7.50872e-09
-1.69652e-09
1.68558e-10
4.5295e-09
-3.00156e-09
2.21945e-09
-5.00595e-09
2.79095e-09
-4.40321e-12
-4.14295e-09
-3.60493e-09
3.67782e-09
4.07007e-09
-2.59331e-09
-5.38412e-09
6.63819e-09
1.33927e-09
-3.40586e-09
6.11133e-10
4.93269e-11
5.84382e-09
1.96107e-09
-3.60531e-09
-4.19958e-09
4.46099e-09
2.91301e-09
-8.73254e-09
1.35855e-09
-2.51531e-09
-1.63289e-09
4.17086e-09
-2.26528e-11
2.42074e-09
-6.62116e-09
1.34069e-09
2.85971e-09
2.4755e-09
-5.32699e-09
3.02234e-09
-1.70815e-10
3.86622e-09
-4.90288e-09
-3.00785e-09
4.04451e-09
3.12822e-09
8.60004e-10
-3.69827e-09
-2.89906e-10
-4.96006e-09
4.11325e-09
-4.50677e-09
-1.1903e-09
3.20005e-09
-2.02616e-09
1.64056e-11
-5.76164e-09
2.68706e-09
6.79545e-09
-3.72087e-09
1.62727e-10
-2.84493e-09
2.72055e-09
-3.83132e-11
2.65539e-09
6.80946e-09
-4.88088e-09
-2.95607e-09
3.96635e-09
2.99407e-09
-4.00435e-09
-2.67868e-09
-6.40984e-09
5.7668e-09
3.32171e-09
4.4723e-09
-4.42482e-09
3.77239e-09
-3.81986e-09
-1.62081e-10
-3.79447e-09
3.18318e-09
7.73313e-10
-1.32117e-10
-4.75054e-09
4.86648e-09
1.61801e-11
2.06056e-09
-6.04498e-09
2.86159e-09
1.1228e-09
4.18526e-09
4.15551e-09
-9.3989e-09
1.05813e-09
-4.85793e-09
3.76547e-10
5.38911e-09
-9.07726e-10
1.99463e-09
-6.83333e-09
6.53703e-09
-1.69834e-09
2.35322e-09
-7.44712e-09
2.61566e-09
2.47822e-09
4.25171e-09
-3.06829e-09
-1.14732e-09
-3.60551e-11
2.77167e-09
-7.63466e-09
2.72747e-09
2.13554e-09
-2.20407e-09
7.16121e-10
-2.56087e-09
4.04882e-09
-1.31649e-09
2.83062e-09
2.83535e-09
4.51571e-09
-1.97369e-09
3.45088e-10
-1.07108e-09
-3.9415e-09
7.02111e-11
-1.58469e-09
-3.92432e-09
2.80491e-09
2.70412e-09
-4.08197e-09
4.41461e-09
2.90014e-09
-3.23276e-09
2.36625e-09
-1.48903e-09
-4.95916e-09
8.81509e-10
-6.70389e-10
-5.98544e-09
5.77432e-09
-3.80553e-09
2.9544e-09
8.03883e-10
4.73081e-11
2.22851e-09
-3.14317e-09
9.38559e-10
-2.38811e-11
-3.44966e-10
-3.51713e-09
2.00255e-09
1.8596e-09
2.46714e-09
-2.95792e-09
4.27835e-09
-3.78754e-09
3.17632e-09
1.86437e-09
-5.76424e-11
3.81058e-09
-1.08156e-09
-4.23204e-09
3.44751e-09
-4.54537e-09
-4.16911e-09
1.7943e-09
-9.61659e-10
2.78801e-09
-3.62059e-09
3.56179e-09
-6.1836e-10
-2.96927e-09
2.58736e-11
9.02784e-09
-6.95395e-09
-5.7934e-09
3.71951e-09
1.93798e-09
-1.23111e-09
-4.68586e-10
-2.38296e-10
6.51236e-09
-2.7054e-09
-7.93376e-09
3.51877e-09
-7.20337e-09
3.6954e-09
-1.0778e-11
3.50825e-09
1.49067e-09
-3.19626e-10
-5.72942e-09
3.34164e-10
7.74187e-09
-2.02454e-09
2.11947e-09
1.18578e-11
-1.06738e-10
-3.23428e-09
5.38436e-09
2.35378e-09
-4.50383e-09
8.59322e-10
-2.98544e-09
4.55973e-09
-1.80058e-09
2.26303e-10
3.73281e-09
-9.76075e-09
-2.17934e-09
2.96575e-10
1.84655e-09
3.62006e-11
-2.79383e-09
1.92118e-09
1.27689e-09
-4.04187e-10
-1.29609e-10
-2.49449e-09
-1.69744e-10
2.58234e-09
-7.62113e-10
-2.04244e-09
2.2222e-10
3.75123e-09
4.07062e-09
-1.40887e-09
-3.91695e-09
8.19909e-10
4.50585e-09
6.6272e-09
-2.16323e-11
-6.73768e-09
1.28862e-09
-2.24435e-09
7.58293e-09
-7.45252e-09
5.977e-09
6.66447e-11
-6.62418e-09
5.28654e-09
1.32345e-09
1.41673e-11
2.80273e-09
-3.24271e-09
5.81744e-10
-1.41746e-10
-6.61747e-10
3.50261e-09
-3.81413e-11
-6.64366e-10
4.08165e-09
-4.87143e-09
5.33911e-09
-4.34679e-09
-1.26726e-09
2.74929e-10
3.58375e-09
6.03603e-10
-4.26985e-09
8.24635e-11
-4.74108e-09
-7.94867e-10
2.04767e-10
4.2534e-09
-5.34522e-09
7.18315e-10
-1.14798e-09
4.62553e-09
-3.88855e-09
4.10978e-10
4.03185e-09
-5.35411e-09
1.74289e-10
6.23853e-09
-2.0973e-09
-2.26708e-09
-1.87414e-09
2.16101e-09
-2.23318e-09
2.89145e-10
-2.17002e-10
-1.65449e-09
4.37281e-09
3.97615e-10
2.41587e-09
-8.09773e-10
-1.52178e-09
-8.42929e-11
-1.17968e-09
3.3679e-09
3.12078e-10
-3.89362e-09
2.94829e-09
8.60178e-10
8.51757e-11
-1.19491e-09
8.26455e-10
-2.07401e-09
2.44243e-09
-4.67309e-09
-7.66456e-09
4.13133e-09
-6.97758e-09
-1.96155e-09
4.69693e-09
1.5581e-09
1.23018e-09
-5.95524e-09
1.90734e-09
-4.61248e-09
2.81382e-09
-1.08676e-10
2.01642e-09
-4.79242e-09
-1.50264e-09
4.2787e-09
-3.64596e-09
4.18454e-09
6.02882e-10
-5.24758e-09
1.81048e-09
-3.07045e-10
3.74415e-09
-2.41066e-09
-6.48287e-09
-9.64362e-10
6.06525e-09
-5.13174e-09
3.08515e-11
6.8532e-09
-7.77843e-09
-3.91273e-11
2.3831e-09
-9.86015e-09
6.70595e-09
7.71094e-10
1.93434e-09
-5.74968e-09
7.03433e-09
-3.21902e-09
-1.55784e-09
3.39169e-09
-2.86657e-09
1.03274e-09
-2.65407e-09
-1.45239e-10
-1.88488e-10
2.98777e-09
9.46919e-10
4.02656e-09
-4.69e-09
-2.83459e-10
-2.0581e-09
-5.34941e-10
2.66532e-09
-7.22472e-11
1.23504e-09
4.07328e-09
-5.09634e-09
-2.11958e-10
-8.60165e-10
-2.57351e-09
-1.80163e-10
-2.22408e-09
4.95333e-09
-3.26311e-09
5.33857e-10
-5.17773e-09
-2.87852e-09
2.70267e-09
5.35355e-09
2.33234e-11
-3.80111e-09
3.62075e-09
-7.91703e-09
4.57391e-09
3.94778e-09
2.42691e-09
-1.84016e-09
-6.44371e-10
5.7631e-11
-2.25018e-09
-2.51888e-10
2.52719e-09
-2.51326e-11
4.84007e-09
-3.78784e-09
2.82369e-09
-3.87592e-09
-4.24531e-09
4.33765e-09
-5.19338e-09
-5.37625e-09
4.43296e-10
-2.7508e-09
7.68374e-09
-5.23578e-09
2.89359e-09
2.59743e-09
-2.5524e-10
7.86792e-09
-2.5408e-09
-1.02691e-09
-4.3002e-09
-2.62352e-09
9.07408e-10
3.4187e-09
-8.50265e-09
-5.53602e-09
2.64739e-09
1.40504e-09
1.15527e-09
2.74277e-11
-2.21204e-09
1.42304e-10
-3.11504e-10
-3.93509e-09
4.43087e-09
-5.43877e-10
4.80681e-11
4.23459e-09
-2.49434e-09
1.67099e-10
-2.06413e-09
-6.89752e-09
4.34916e-09
6.67603e-09
-4.171e-09
-2.78173e-09
2.76682e-10
1.9761e-09
-4.21851e-09
2.31882e-09
-7.6419e-11
-5.2055e-09
2.38941e-09
2.76325e-09
5.2799e-11
2.92571e-09
-1.20908e-09
-1.74368e-09
2.70834e-11
1.48214e-09
-1.41128e-09
-4.36775e-09
-1.91617e-09
3.09838e-09
2.99966e-10
-7.13211e-09
-1.17344e-09
2.27116e-09
6.03441e-09
4.04788e-09
-2.18114e-09
-4.94624e-09
3.07954e-09
1.82002e-09
2.21568e-09
-2.55237e-09
-1.48331e-09
7.65991e-10
1.32413e-09
-1.9865e-09
-1.03613e-10
1.00276e-09
-7.45732e-09
6.377e-09
7.75794e-11
-3.43231e-09
9.90426e-10
2.30978e-09
1.32115e-10
2.14201e-09
1.33955e-09
-3.24946e-10
-3.15661e-09
-8.5952e-09
-3.63422e-09
6.18119e-09
9.39248e-10
-3.4862e-09
-5.37711e-09
1.4375e-09
-4.95469e-09
8.89432e-09
-1.14504e-09
-2.99741e-09
-9.96612e-12
6.80298e-10
3.08566e-09
-4.28576e-09
5.19652e-10
-8.06018e-10
-2.48574e-09
3.34956e-09
-5.7773e-11
-4.71594e-09
4.51052e-09
-3.26344e-09
3.46888e-09
-1.65276e-09
4.55738e-09
1.68192e-09
-1.93361e-09
4.78877e-09