/*--------------------------------*- C++ -*----------------------------------*\
| =========                 |                                                 |
| \\      /  F ield         | OpenFOAM: The Open Source CFD Toolbox           |
|  \\    /   O peration     | Version:  v1612+                                |
|   \\  /    A nd           | Web:      www.OpenFOAM.com                      |
|    \\/     M anipulation  |                                                 |
\*---------------------------------------------------------------------------*/
FoamFile
{
    version     2.0;
    format      ascii;
    class       volVectorField;
    location    "50";
    object      U;
}
// * * * * * * * * * * * * * * * * * * * * * * * * * * * * * * * * * * * * * //

dimensions      [0 1 -1 0 0 0 0];

internalField   nonuniform List<vector> 
21121
(
(-0.578241 0.165685 -0.406488)
(-0.623364 0.210722 -0.379075)
(-0.666834 0.220384 -0.418412)
(-0.752466 0.213076 -0.450874)
(-0.509596 0.215303 -0.34367)
(-0.526436 0.20449 -0.298302)
(-0.531803 0.160729 -0.310686)
(-0.734886 0.152507 -0.448936)
(-0.604505 0.162079 -0.3375)
(-0.584222 0.159778 -0.417827)
(-0.694737 0.120523 -0.438918)
(-0.671681 0.0825279 -0.417201)
(-0.677695 0.090298 -0.370858)
(-0.663989 0.110951 -0.376487)
(-0.631441 0.0880055 -0.340882)
(-0.683667 0.180797 -0.468701)
(-0.575899 0.180076 -0.374373)
(-0.735929 0.00987906 -0.40812)
(-0.778185 0.00657039 -0.429549)
(-0.62339 0.0916603 -0.385819)
(-0.627898 0.193067 -0.426203)
(-0.543444 0.169695 -0.374243)
(-0.636597 0.118045 -0.399304)
(-0.599429 0.154793 -0.370119)
(-0.58371 0.15721 -0.387979)
(-0.611365 0.0290902 -0.380951)
(-0.583006 0.0500516 -0.370007)
(-0.689721 0.0550619 -0.419428)
(-0.703801 0.21293 -0.440237)
(-0.640901 0.184439 -0.383182)
(-0.53063 0.0881152 -0.267515)
(-0.582521 0.164117 -0.377083)
(-0.564013 0.168168 -0.353265)
(-0.453521 0.0971101 -0.328781)
(-0.685937 0.249253 -0.42554)
(-0.566327 0.138389 -0.394149)
(-0.608927 0.0763938 -0.309215)
(-0.622296 0.211362 -0.36343)
(-0.600482 0.222548 -0.369053)
(-0.629262 0.169063 -0.379206)
(-0.546658 0.100959 -0.287708)
(-0.63149 0.172993 -0.384258)
(-0.592412 0.168915 -0.346326)
(-0.672475 0.156996 -0.388538)
(-0.607581 0.182684 -0.402816)
(-0.596096 0.185246 -0.41594)
(-0.583677 0.0605367 -0.316465)
(-0.620327 0.0806549 -0.326055)
(-0.671462 0.152838 -0.384473)
(-0.612891 0.145366 -0.422132)
(-0.54518 0.225527 -0.339032)
(-0.616697 0.228345 -0.391269)
(-0.625648 0.165187 -0.391654)
(-0.705388 0.14876 -0.406422)
(-0.615333 0.160327 -0.344818)
(-0.671959 0.249497 -0.430139)
(-0.647453 0.140462 -0.4421)
(-0.518286 0.0712354 -0.302649)
(-0.598822 0.0889371 -0.309922)
(-0.572158 0.127213 -0.398065)
(-0.537718 0.101026 -0.262717)
(-0.501756 0.0949302 -0.236967)
(-0.644037 0.10811 -0.389676)
(-0.620842 0.104961 -0.373772)
(-0.636115 0.125998 -0.421678)
(-0.622431 0.207116 -0.396092)
(-0.705161 0.208244 -0.451346)
(-0.729535 0.202334 -0.45579)
(-0.466856 0.133154 -0.315117)
(-0.652666 0.191345 -0.388452)
(-0.571171 0.0446182 -0.342121)
(-0.642389 0.134416 -0.356793)
(-0.501739 0.148115 -0.265584)
(-0.549776 0.0800196 -0.264275)
(-0.653583 0.1166 -0.351632)
(-0.71286 0.128519 -0.407234)
(-0.462399 0.0424324 -0.273714)
(-0.656862 0.140787 -0.411758)
(-0.63389 0.173439 -0.432465)
(-0.598243 0.171643 -0.410485)
(-0.583669 0.183526 -0.405772)
(-0.593862 0.170774 -0.426687)
(-0.620656 0.134446 -0.325558)
(-0.694889 0.140493 -0.377364)
(-0.587471 0.133698 -0.314329)
(-0.64813 0.116938 -0.379637)
(-0.688035 0.111751 -0.443401)
(-0.680266 0.0979576 -0.425048)
(-0.633714 0.102607 -0.364481)
(-0.657637 0.110846 -0.369529)
(-0.681981 0.0846562 -0.381203)
(-0.683623 0.15398 -0.382401)
(-0.616025 0.198459 -0.428934)
(-0.516513 0.167723 -0.368408)
(-0.718157 0.130363 -0.452436)
(-0.726443 0.130571 -0.441332)
(-0.64959 0.126857 -0.404917)
(-0.522359 0.205362 -0.327483)
(-0.611538 0.233629 -0.399725)
(-0.652735 0.235865 -0.417471)
(-0.694027 0.144038 -0.420474)
(-0.556591 0.215617 -0.382354)
(-0.599889 0.235804 -0.407433)
(-0.767211 0.0957925 -0.433717)
(-0.657146 0.127328 -0.375769)
(-0.432916 0.143684 -0.314257)
(-0.642752 0.155113 -0.361009)
(-0.678697 0.173419 -0.40985)
(-0.583671 0.164475 -0.36969)
(-0.645269 0.167387 -0.404366)
(-0.616046 0.0624982 -0.395063)
(-0.678831 0.0861651 -0.371307)
(-0.560126 0.119229 -0.332204)
(-0.67526 0.176382 -0.43883)
(-0.690307 0.134658 -0.458079)
(-0.593972 0.0881128 -0.360883)
(-0.704665 0.0546766 -0.415026)
(-0.70147 0.069886 -0.419244)
(-0.633492 0.190161 -0.401844)
(-0.63674 0.195122 -0.390869)
(-0.640956 0.188385 -0.397765)
(-0.513661 0.11309 -0.373116)
(-0.449684 0.133471 -0.314694)
(-0.613183 0.175589 -0.417557)
(-0.469112 0.122579 -0.284811)
(-0.557259 0.131144 -0.342861)
(-0.569349 0.0925296 -0.299652)
(-0.625923 0.185251 -0.391569)
(-0.639732 0.0494775 -0.330211)
(-0.674229 0.164184 -0.455347)
(-0.664058 0.158676 -0.452867)
(-0.718939 0.169107 -0.475004)
(-0.591633 0.184484 -0.425445)
(-0.569232 0.156423 -0.402596)
(-0.662347 0.130521 -0.437347)
(-0.676949 0.07723 -0.416318)
(-0.569552 0.176728 -0.308213)
(-0.664259 0.175509 -0.376734)
(-0.494301 0.0670475 -0.32294)
(-0.647826 0.174407 -0.441525)
(-0.51608 0.167721 -0.266746)
(-0.649598 0.151128 -0.386815)
(-0.59635 0.0614225 -0.368122)
(-0.558962 0.180674 -0.388216)
(-0.537903 0.187473 -0.388645)
(-0.570182 0.169209 -0.382955)
(-0.699302 0.215674 -0.431055)
(-0.68673 0.170223 -0.423428)
(-0.688243 0.181571 -0.398487)
(-0.651305 0.0294204 -0.394948)
(-0.478563 0.0578589 -0.31877)
(-0.500116 0.0534864 -0.330453)
(-0.628288 0.232922 -0.409905)
(-0.577535 0.136007 -0.36153)
(-0.640901 0.147109 -0.386341)
(-0.582906 0.124029 -0.353207)
(-0.566993 0.0523745 -0.276198)
(-0.531352 0.107788 -0.254599)
(-0.623185 0.121833 -0.397824)
(-0.479982 0.101788 -0.346209)
(-0.515001 0.113576 -0.288343)
(-0.594187 0.123998 -0.337204)
(-0.691522 0.21524 -0.409428)
(-0.657805 0.0920635 -0.386542)
(-0.629174 0.0894599 -0.373533)
(-0.620322 0.151357 -0.430383)
(-0.643308 0.147838 -0.434708)
(-0.55826 0.155464 -0.354389)
(-0.552977 0.156223 -0.324235)
(-0.535021 0.176931 -0.288418)
(-0.633078 0.216838 -0.365634)
(-0.565947 0.204003 -0.31304)
(-0.654431 0.17681 -0.446983)
(-0.562519 0.156604 -0.361632)
(-0.553372 0.169292 -0.377538)
(-0.668476 0.133276 -0.437205)
(-0.620118 0.186105 -0.423681)
(-0.612697 0.193738 -0.424527)
(-0.578012 0.172238 -0.404347)
(-0.570602 0.191111 -0.397353)
(-0.654945 0.0198708 -0.324623)
(-0.608387 0.149206 -0.37441)
(-0.684206 0.165239 -0.420503)
(-0.497021 0.214692 -0.326388)
(-0.537282 0.0589145 -0.312628)
(-0.515928 0.121864 -0.369646)
(-0.541585 0.145261 -0.38724)
(-0.493276 0.113595 -0.363976)
(-0.684731 0.241982 -0.421128)
(-0.689199 0.0766731 -0.362854)
(-0.635463 0.0943072 -0.337369)
(-0.609371 0.0925226 -0.340534)
(-0.665259 0.0992503 -0.399849)
(-0.58921 0.124592 -0.345534)
(-0.648603 0.0799493 -0.414759)
(-0.614102 0.0487735 -0.35288)
(-0.588821 0.0674559 -0.383259)
(-0.619256 0.0587626 -0.368303)
(-0.605759 0.0656518 -0.378944)
(-0.58338 0.062161 -0.349279)
(-0.617097 0.0597109 -0.387159)
(-0.654864 0.0711945 -0.419316)
(-0.613335 0.198969 -0.360102)
(-0.650096 0.210698 -0.384437)
(-0.71007 0.237978 -0.42563)
(-0.672805 0.218226 -0.404273)
(-0.596364 0.19713 -0.358021)
(-0.623058 0.146758 -0.433637)
(-0.512182 0.139506 -0.282558)
(-0.508037 0.202034 -0.370327)
(-0.621252 0.159093 -0.424604)
(-0.559087 0.0261334 -0.327528)
(-0.62192 0.0438173 -0.385855)
(-0.571823 0.0456246 -0.372338)
(-0.563347 0.144499 -0.395329)
(-0.661231 0.148291 -0.425706)
(-0.679002 0.208034 -0.403335)
(-0.672658 0.216639 -0.405948)
(-0.486648 0.122046 -0.282924)
(-0.578361 0.13813 -0.337875)
(-0.537882 0.120591 -0.346143)
(-0.492546 0.116167 -0.30377)
(-0.529962 0.148456 -0.38335)
(-0.486636 0.110806 -0.329639)
(-0.542059 0.134082 -0.361325)
(-0.560642 0.138927 -0.374135)
(-0.687377 0.119464 -0.382028)
(-0.631652 0.126656 -0.3653)
(-0.579498 0.144742 -0.346012)
(-0.602603 0.218294 -0.396605)
(-0.652736 0.211119 -0.421037)
(-0.571504 0.20374 -0.387678)
(-0.619323 0.159323 -0.353602)
(-0.663646 0.162212 -0.386947)
(-0.709094 0.169905 -0.414169)
(-0.696193 0.171623 -0.413736)
(-0.590895 0.151275 -0.351413)
(-0.67577 0.148957 -0.423622)
(-0.594425 0.150126 -0.409809)
(-0.637967 0.19971 -0.38075)
(-0.588291 0.146588 -0.304781)
(-0.569194 0.142951 -0.308976)
(-0.561549 0.135535 -0.303304)
(-0.635516 0.127644 -0.381339)
(-0.56763 0.104664 -0.364247)
(-0.61702 0.186741 -0.339876)
(-0.64897 0.205312 -0.404788)
(-0.549864 0.189754 -0.390027)
(-0.561212 0.222578 -0.333154)
(-0.606369 0.162543 -0.422587)
(-0.683769 0.145283 -0.448903)
(-0.605268 0.122967 -0.308093)
(-0.559271 0.113354 -0.303381)
(-0.772784 0.118666 -0.43071)
(-0.749838 0.129841 -0.422137)
(-0.787697 0.117324 -0.443777)
(-0.749988 0.111998 -0.413717)
(-0.682001 0.124104 -0.380205)
(-0.685674 0.1253 -0.381195)
(-0.770744 0.120852 -0.435286)
(-0.620835 0.179117 -0.434228)
(-0.574822 0.157852 -0.408703)
(-0.555209 0.160525 -0.408003)
(-0.680312 0.163581 -0.45429)
(-0.661217 0.161501 -0.44882)
(-0.502426 0.156442 -0.381915)
(-0.535131 0.162723 -0.394257)
(-0.614965 0.16029 -0.422811)
(-0.640928 0.174016 -0.444128)
(-0.549971 0.164112 -0.390898)
(-0.723547 0.178392 -0.472609)
(-0.510803 0.155254 -0.381822)
(-0.525206 0.15054 -0.391697)
(-0.557628 0.121463 -0.391815)
(-0.504013 0.131073 -0.373267)
(-0.530704 0.163672 -0.391959)
(-0.641515 0.162642 -0.443838)
(-0.583356 0.14595 -0.418256)
(-0.495445 0.0943745 -0.35124)
(-0.667404 0.121534 -0.356086)
(-0.613969 0.234489 -0.412076)
(-0.664219 0.162441 -0.45363)
(-0.657346 0.142372 -0.440856)
(-0.585684 0.14842 -0.412947)
(-0.652323 0.152852 -0.434717)
(-0.575317 0.171664 -0.416939)
(-0.662267 0.170415 -0.452076)
(-0.465363 0.138774 -0.32011)
(-0.504711 0.122424 -0.272268)
(-0.525666 0.139285 -0.275958)
(-0.424154 0.0625216 -0.308135)
(-0.634175 0.0729647 -0.395912)
(-0.575265 0.100879 -0.349172)
(-0.523201 0.089827 -0.330287)
(-0.567703 0.0981294 -0.365165)
(-0.522767 0.0918136 -0.337284)
(-0.551423 0.0889848 -0.351761)
(-0.682078 0.101113 -0.385919)
(-0.437766 0.0404356 -0.296358)
(-0.53971 0.203165 -0.38113)
(-0.526649 0.180563 -0.370377)
(-0.565332 0.16116 -0.390948)
(-0.608924 0.157344 -0.409257)
(-0.617554 0.114592 -0.397689)
(-0.645469 0.111739 -0.421702)
(-0.697468 0.109385 -0.435689)
(-0.570774 0.106575 -0.377845)
(-0.663325 0.1184 -0.426111)
(-0.6549 0.09001 -0.414671)
(-0.554931 0.118734 -0.371627)
(-0.590638 0.112516 -0.382524)
(-0.630197 0.0926507 -0.400773)
(-0.604271 0.0993677 -0.392467)
(-0.535433 0.0817345 -0.254812)
(-0.652774 0.163614 -0.396939)
(-0.678102 0.103632 -0.425827)
(-0.589335 0.0925825 -0.394741)
(-0.727166 0.131716 -0.433237)
(-0.623526 0.230248 -0.395284)
(-0.448307 0.0287312 -0.266853)
(-0.518388 0.140152 -0.379178)
(-0.595761 0.14637 -0.37653)
(-0.592375 0.148187 -0.377364)
(-0.57915 0.15957 -0.358533)
(-0.513209 0.152482 -0.319746)
(-0.598295 0.235451 -0.389307)
(-0.671962 0.243659 -0.432275)
(-0.648466 0.184021 -0.387088)
(-0.607163 0.134928 -0.408392)
(-0.630417 0.14451 -0.412708)
(-0.66588 0.232042 -0.406882)
(-0.650222 0.0992968 -0.378005)
(-0.588005 0.0854781 -0.361138)
(-0.551916 0.0904453 -0.293489)
(-0.518348 0.0905202 -0.270868)
(-0.576351 0.0897035 -0.330592)
(-0.629698 0.203483 -0.396677)
(-0.648214 0.219432 -0.404849)
(-0.585513 0.0638893 -0.353405)
(-0.58381 0.150043 -0.412352)
(-0.654056 0.235255 -0.393411)
(-0.656206 0.214635 -0.391134)
(-0.557271 0.17867 -0.307595)
(-0.517099 0.151589 -0.297999)
(-0.563025 0.14198 -0.327154)
(-0.536322 0.146775 -0.300623)
(-0.658016 0.115146 -0.357884)
(-0.641057 0.117498 -0.349931)
(-0.564884 0.104308 -0.365694)
(-0.560645 0.106141 -0.346943)
(-0.642747 0.0909047 -0.388847)
(-0.602063 0.106239 -0.381344)
(-0.670502 0.115171 -0.365347)
(-0.592381 0.110046 -0.310672)
(-0.731139 0.146063 -0.416532)
(-0.628142 0.090456 -0.321874)
(-0.661202 0.130105 -0.372756)
(-0.688611 0.1249 -0.378563)
(-0.672017 0.0734577 -0.366672)
(-0.559914 0.172128 -0.358528)
(-0.634697 0.194609 -0.371799)
(-0.673081 0.181563 -0.40112)
(-0.57171 0.139641 -0.400355)
(-0.574388 0.110232 -0.361485)
(-0.615976 0.212986 -0.427279)
(-0.569441 0.183399 -0.403395)
(-0.551944 0.176512 -0.398483)
(-0.546416 0.163277 -0.389791)
(-0.538006 0.212978 -0.385773)
(-0.518171 0.200073 -0.375246)
(-0.643821 0.219656 -0.389051)
(-0.658899 0.0993622 -0.428203)
(-0.64892 0.103365 -0.419522)
(-0.562657 0.213211 -0.336454)
(-0.572059 0.202336 -0.31564)
(-0.595038 0.17 -0.344009)
(-0.669128 0.180444 -0.396294)
(-0.600256 0.179016 -0.409078)
(-0.573358 0.200245 -0.413812)
(-0.542393 0.182532 -0.399358)
(-0.576223 0.207775 -0.403539)
(-0.57089 0.180066 -0.312617)
(-0.677757 0.14387 -0.381273)
(-0.645498 0.186695 -0.38921)
(-0.558139 0.0861438 -0.336551)
(-0.517653 0.0989612 -0.279597)
(-0.422365 0.0878172 -0.266369)
(-0.461626 0.0773507 -0.296017)
(-0.713093 0.130707 -0.465384)
(-0.525501 0.132081 -0.376743)
(-0.488104 0.153069 -0.357683)
(-0.475591 0.134594 -0.349749)
(-0.564986 0.158017 -0.395898)
(-0.49264 0.120471 -0.32401)
(-0.477357 0.099307 -0.340629)
(-0.674505 0.102534 -0.403567)
(-0.689631 0.193006 -0.444017)
(-0.591931 0.194169 -0.413139)
(-0.651846 0.199147 -0.390491)
(-0.697125 0.203608 -0.416029)
(-0.527085 0.169894 -0.385238)
(-0.539006 0.105131 -0.375694)
(-0.546465 0.151236 -0.306967)
(-0.605847 0.12366 -0.415941)
(-0.6685 0.107865 -0.362482)
(-0.591163 0.107053 -0.370217)
(-0.659976 0.167255 -0.395634)
(-0.608194 0.181663 -0.371043)
(-0.730113 0.189771 -0.470215)
(-0.488738 0.145511 -0.376053)
(-0.539581 0.153982 -0.397153)
(-0.610309 0.184464 -0.371364)
(-0.566108 0.193473 -0.36994)
(-0.602909 0.185905 -0.373851)
(-0.523109 0.178871 -0.37529)
(-0.511184 0.200999 -0.333542)
(-0.710994 0.16981 -0.469233)
(-0.658618 0.240893 -0.447979)
(-0.555567 0.183288 -0.342781)
(-0.558988 0.172381 -0.401418)
(-0.582124 0.161398 -0.353682)
(-0.635273 0.184991 -0.426673)
(-0.540459 0.191457 -0.345758)
(-0.580704 0.173545 -0.372662)
(-0.465003 0.0845433 -0.264955)
(-0.497627 0.104886 -0.29027)
(-0.672273 0.129153 -0.440966)
(-0.561343 0.0861787 -0.377352)
(-0.582496 0.165794 -0.358133)
(-0.597258 0.0829117 -0.3085)
(-0.616961 0.0837831 -0.392128)
(-0.649092 0.0826375 -0.38225)
(-0.578963 0.162853 -0.362767)
(-0.588021 0.204523 -0.330087)
(-0.536888 0.185298 -0.285089)
(-0.560594 0.169946 -0.301209)
(-0.530031 0.183114 -0.288712)
(-0.57921 0.155913 -0.316502)
(-0.50247 0.152805 -0.268933)
(-0.450084 0.136719 -0.234154)
(-0.567705 0.159998 -0.308647)
(-0.604342 0.207669 -0.334849)
(-0.619754 0.160586 -0.430184)
(-0.60474 0.162373 -0.343055)
(-0.506452 0.052302 -0.340478)
(-0.511754 0.0524536 -0.340222)
(-0.558733 0.228884 -0.333414)
(-0.501609 0.22348 -0.29464)
(-0.580265 0.233714 -0.345308)
(-0.543587 0.155715 -0.38783)
(-0.472259 0.122968 -0.356795)
(-0.556449 0.129223 -0.399044)
(-0.564265 0.134449 -0.40789)
(-0.559386 0.154446 -0.404714)
(-0.653572 0.242773 -0.424599)
(-0.510961 0.222895 -0.322619)
(-0.597211 0.235899 -0.396401)
(-0.639779 0.160031 -0.393576)
(-0.659243 0.0875947 -0.388012)
(-0.629273 0.0802702 -0.364678)
(-0.51782 0.1955 -0.375452)
(-0.654129 0.0493548 -0.323394)
(-0.531488 0.213334 -0.369146)
(-0.552812 0.224558 -0.369323)
(-0.613483 0.0485768 -0.297796)
(-0.548102 0.0431184 -0.264512)
(-0.5961 0.161032 -0.326408)
(-0.617395 0.214458 -0.371956)
(-0.637992 0.118541 -0.375495)
(-0.612395 0.105658 -0.371731)
(-0.626382 0.180995 -0.361442)
(-0.535975 0.141726 -0.316631)
(-0.656452 0.0858192 -0.341737)
(-0.708021 0.128543 -0.411445)
(-0.643528 0.198113 -0.433702)
(-0.679568 0.200653 -0.43122)
(-0.640845 0.122957 -0.372337)
(-0.563526 0.104014 -0.349152)
(-0.593876 0.153429 -0.315026)
(-0.615981 0.102158 -0.309572)
(-0.652599 0.109921 -0.334605)
(-0.588982 0.106863 -0.290795)
(-0.594837 0.0783576 -0.297279)
(-0.596925 0.154583 -0.338103)
(-0.560714 0.134605 -0.331561)
(-0.627406 0.208154 -0.385029)
(-0.601461 0.22569 -0.400877)
(-0.542301 0.187471 -0.380279)
(-0.5885 0.189129 -0.392449)
(-0.600116 0.149536 -0.410137)
(-0.60726 0.19257 -0.401035)
(-0.598585 0.192272 -0.397925)
(-0.566609 0.163739 -0.385232)
(-0.654532 0.164258 -0.389712)
(-0.590171 0.216084 -0.417218)
(-0.583888 0.140035 -0.36051)
(-0.659604 0.160318 -0.399392)
(-0.644788 0.238225 -0.427795)
(-0.534881 0.200223 -0.385191)
(-0.714375 0.178177 -0.435667)
(-0.633373 0.167697 -0.416892)
(-0.626338 0.217441 -0.370561)
(-0.466933 0.108961 -0.248904)
(-0.587697 0.205191 -0.417434)
(-0.459068 0.161551 -0.332956)
(-0.604076 0.159414 -0.407778)
(-0.546333 0.135864 -0.286285)
(-0.670516 0.111695 -0.385586)
(-0.609034 0.125908 -0.35799)
(-0.666556 0.167981 -0.382324)
(-0.665131 0.173125 -0.392128)
(-0.637451 0.216869 -0.380689)
(-0.605789 0.142168 -0.393247)
(-0.676986 0.0924623 -0.369281)
(-0.736881 0.0658333 -0.393698)
(-0.689767 0.0825468 -0.370066)
(-0.622416 0.173117 -0.435596)
(-0.650132 0.135482 -0.396743)
(-0.565835 0.123253 -0.283882)
(-0.644411 0.11742 -0.342318)
(-0.588443 0.118194 -0.373777)
(-0.596247 0.103011 -0.369391)
(-0.590415 0.112395 -0.35356)
(-0.593079 0.188329 -0.361116)
(-0.598786 0.224944 -0.403988)
(-0.664639 0.100573 -0.35268)
(-0.710346 0.0934547 -0.385478)
(-0.62673 0.0966299 -0.402794)
(-0.528611 0.209666 -0.308317)
(-0.5362 0.19698 -0.324531)
(-0.523097 0.173531 -0.380727)
(-0.569251 0.0710472 -0.377964)
(-0.607187 0.19913 -0.365035)
(-0.608772 0.197484 -0.425788)
(-0.664605 0.10187 -0.402714)
(-0.575767 0.2104 -0.37641)
(-0.529527 0.186926 -0.298172)
(-0.606402 0.203722 -0.409006)
(-0.448064 0.0937369 -0.346977)
(-0.645131 0.0872867 -0.408044)
(-0.652483 0.159017 -0.442294)
(-0.572643 0.116642 -0.288149)
(-0.668034 0.160363 -0.453359)
(-0.48397 0.125744 -0.2851)
(-0.542492 0.0880161 -0.372203)
(-0.494318 0.142308 -0.334777)
(-0.568811 0.0813304 -0.372796)
(-0.690594 0.137942 -0.406661)
(-0.574843 0.175457 -0.347173)
(-0.411733 0.0972813 -0.324141)
(-0.473554 0.10383 -0.364845)
(-0.542739 0.0772157 -0.367431)
(-0.693502 0.170745 -0.455137)
(-0.656221 0.166959 -0.388846)
(-0.657044 0.146392 -0.412479)
(-0.68877 0.159495 -0.426278)
(-0.645681 0.159182 -0.386288)
(-0.603729 0.164074 -0.367729)
(-0.506959 0.156251 -0.26124)
(-0.521662 0.156895 -0.276425)
(-0.561058 0.211917 -0.401654)
(-0.636813 0.0949705 -0.359814)
(-0.656269 0.13084 -0.365695)
(-0.628218 0.131637 -0.351011)
(-0.697916 0.143456 -0.389864)
(-0.63854 0.141461 -0.362988)
(-0.602291 0.150404 -0.332395)
(-0.642558 0.163555 -0.395518)
(-0.507814 0.0739128 -0.280502)
(-0.552371 0.204817 -0.36531)
(-0.524801 0.190182 -0.344603)
(-0.564447 0.190726 -0.350722)
(-0.620243 0.146276 -0.34631)
(-0.633134 0.124671 -0.358313)
(-0.590057 0.169111 -0.345112)
(-0.635611 0.230246 -0.439354)
(-0.69063 0.178119 -0.42726)
(-0.611216 0.17703 -0.377815)
(-0.588868 0.137384 -0.406812)
(-0.616844 0.140569 -0.349016)
(-0.681512 0.134207 -0.395778)
(-0.671815 0.12965 -0.379014)
(-0.566103 0.194965 -0.342074)
(-0.601636 0.197184 -0.344182)
(-0.695206 0.120206 -0.383429)
(-0.618287 0.118235 -0.347789)
(-0.587251 0.112451 -0.370451)
(-0.530037 0.0403668 -0.281086)
(-0.521913 0.0399869 -0.289388)
(-0.489204 0.124736 -0.252079)
(-0.589411 0.0748958 -0.281766)
(-0.514692 0.0707931 -0.254763)
(-0.653522 0.179105 -0.404298)
(-0.635011 0.179634 -0.395577)
(-0.594554 0.180544 -0.38151)
(-0.703001 0.0916266 -0.375172)
(-0.471995 0.212977 -0.292138)
(-0.487149 0.162457 -0.249534)
(-0.656866 0.184216 -0.394587)
(-0.634142 0.134462 -0.433686)
(-0.600715 0.132779 -0.418887)
(-0.459403 0.107793 -0.318594)
(-0.68192 0.205609 -0.415416)
(-0.599158 0.142189 -0.412602)
(-0.673087 0.154171 -0.454007)
(-0.533448 0.123074 -0.383545)
(-0.517404 0.138479 -0.246216)
(-0.634792 0.119197 -0.32231)
(-0.602062 0.18186 -0.361721)
(-0.652525 0.179085 -0.392933)
(-0.587902 0.0856821 -0.39061)
(-0.565011 0.113332 -0.383965)
(-0.575783 0.131768 -0.399163)
(-0.523242 0.182861 -0.320912)
(-0.541638 0.181916 -0.323266)
(-0.504307 0.189082 -0.295131)
(-0.551365 0.165159 -0.397915)
(-0.574248 0.224896 -0.33974)
(-0.526608 0.150883 -0.387875)
(-0.510449 0.162916 -0.378916)
(-0.632605 0.15934 -0.368359)
(-0.53092 0.222005 -0.341503)
(-0.525875 0.220214 -0.328469)
(-0.610066 0.180255 -0.428052)
(-0.639296 0.154529 -0.427297)
(-0.639532 0.196902 -0.441917)
(-0.587824 0.0874517 -0.310701)
(-0.736943 0.0684313 -0.392623)
(-0.479614 0.15667 -0.260478)
(-0.618686 0.185239 -0.41947)
(-0.571088 0.165243 -0.411268)
(-0.646525 0.224035 -0.405831)
(-0.635982 0.226499 -0.407584)
(-0.655052 0.229062 -0.409326)
(-0.572958 0.0177677 -0.289183)
(-0.579673 0.112067 -0.307566)
(-0.534984 0.210056 -0.379478)
(-0.524769 0.198393 -0.379753)
(-0.647369 0.0731417 -0.321044)
(-0.581938 0.0840829 -0.282241)
(-0.55072 0.188624 -0.382633)
(-0.527493 0.213496 -0.385079)
(-0.467437 0.203504 -0.289155)
(-0.680972 0.194977 -0.403165)
(-0.586544 0.167225 -0.330836)
(-0.530664 0.16189 -0.385971)
(-0.47554 0.151492 -0.339255)
(-0.59385 0.0636732 -0.362343)
(-0.714072 0.0985009 -0.445542)
(-0.715769 0.107841 -0.411487)
(-0.681678 0.132979 -0.405158)
(-0.582437 0.126866 -0.393345)
(-0.617348 0.151242 -0.380316)
(-0.619048 0.152495 -0.41365)
(-0.515272 0.140697 -0.280671)
(-0.547435 0.221784 -0.361882)
(-0.622199 0.200956 -0.368654)
(-0.715041 0.209363 -0.429686)
(-0.551818 0.205996 -0.396642)
(-0.540306 0.147675 -0.293032)
(-0.539284 0.179408 -0.288328)
(-0.620617 0.212014 -0.374153)
(-0.653638 0.228359 -0.41102)
(-0.598455 0.109556 -0.343842)
(-0.399758 0.0907374 -0.237861)
(-0.488139 0.175178 -0.250697)
(-0.536542 0.146827 -0.293311)
(-0.509774 0.166554 -0.266407)
(-0.524214 0.14256 -0.297465)
(-0.56611 0.149972 -0.329436)
(-0.61236 0.162047 -0.328906)
(-0.536107 0.152699 -0.278362)
(-0.606903 0.233848 -0.399426)
(-0.497147 0.216084 -0.3349)
(-0.500091 0.219798 -0.339258)
(-0.702468 0.0945427 -0.363941)
(-0.652021 0.0349507 -0.325006)
(-0.483646 0.104493 -0.307961)
(-0.520706 0.109996 -0.329938)
(-0.655289 0.126403 -0.423655)
(-0.536318 0.146269 -0.368572)
(-0.611849 0.156611 -0.416886)
(-0.638692 0.144854 -0.414111)
(-0.67259 0.176592 -0.388392)
(-0.623626 0.15354 -0.369534)
(-0.690163 0.147523 -0.385651)
(-0.637496 0.118479 -0.337851)
(-0.631127 0.125494 -0.33722)
(-0.593096 0.134722 -0.31723)
(-0.618673 0.194745 -0.3625)
(-0.846026 0.0818074 -0.480823)
(-0.566839 0.160787 -0.347468)
(-0.659125 0.228026 -0.443906)
(-0.561757 0.143242 -0.283777)
(-0.660264 0.166624 -0.380554)
(-0.479498 0.0680263 -0.30176)
(-0.634299 0.116539 -0.401505)
(-0.794423 0.20207 -0.497862)
(-0.482236 0.148503 -0.243698)
(-0.681137 0.18116 -0.387098)
(-0.626125 0.190587 -0.367029)
(-0.575259 0.163644 -0.40466)
(-0.748488 0.103926 -0.4496)
(-0.84625 0.169556 -0.501756)
(-0.656866 0.112226 -0.431193)
(-0.608271 0.198569 -0.371918)
(-0.800409 0.127764 -0.463442)
(-0.596399 0.10951 -0.367639)
(-0.866845 0.0577219 -0.472615)
(-0.593734 0.159981 -0.417899)
(-0.524494 0.118911 -0.374873)
(-0.873856 0.113905 -0.501208)
(-0.765807 0.0855853 -0.434268)
(-0.566874 0.169157 -0.383679)
(-0.65687 0.101306 -0.418724)
(-0.662807 0.16563 -0.399764)
(-0.706317 0.104616 -0.395783)
(-0.574828 0.0776918 -0.351471)
(-0.755603 0.112356 -0.452284)
(-0.795332 0.0914854 -0.471689)
(-0.605413 0.0757182 -0.352332)
(-0.825941 0.0390826 -0.443825)
(-0.663966 0.0688128 -0.334701)
(-0.773441 0.214992 -0.484358)
(-0.524343 0.166362 -0.377613)
(-0.827779 0.226791 -0.508762)
(-0.705182 0.209912 -0.464842)
(-0.531842 0.206344 -0.384054)
(-0.53113 0.13852 -0.377611)
(-0.695131 0.137677 -0.405535)
(-0.843718 0.208527 -0.506385)
(-0.831128 0.179234 -0.501675)
(-0.822307 0.172404 -0.487694)
(-0.560006 0.10478 -0.390606)
(-0.563792 0.126992 -0.399784)
(-0.678061 0.17569 -0.383697)
(-0.797246 0.185217 -0.476102)
(-0.839875 0.208924 -0.510664)
(-0.75983 0.211914 -0.463578)
(-0.831935 0.179556 -0.496881)
(-0.84428 0.180483 -0.507771)
(-0.800659 0.215242 -0.489889)
(-0.521366 0.199749 -0.327718)
(-0.564289 0.181612 -0.304819)
(-0.692273 0.216506 -0.439542)
(-0.52847 0.186424 -0.287801)
(-0.588408 0.203251 -0.326266)
(-0.6593 0.132713 -0.367519)
(-0.604753 0.20351 -0.376262)
(-0.639391 0.209943 -0.390842)
(-0.67655 0.206231 -0.41899)
(-0.626456 0.190487 -0.404664)
(-0.629904 0.20505 -0.438462)
(-0.468602 0.170784 -0.35638)
(-0.761932 0.21867 -0.469096)
(-0.604877 0.1985 -0.407911)
(-0.567339 0.162355 -0.357987)
(-0.671971 0.212109 -0.440274)
(-0.522454 0.220302 -0.347828)
(-0.838787 0.22617 -0.508439)
(-0.695058 0.233674 -0.41027)
(-0.793171 0.212736 -0.479952)
(-0.504699 0.217071 -0.336964)
(-0.589704 0.238629 -0.351045)
(-0.563488 0.211644 -0.310917)
(-0.650771 0.18312 -0.406995)
(-0.812844 0.209202 -0.499982)
(-0.652178 0.165958 -0.426988)
(-0.627027 0.162685 -0.381029)
(-0.802938 0.191942 -0.49683)
(-0.565382 0.134813 -0.380473)
(-0.654347 0.139641 -0.345684)
(-0.748353 0.115763 -0.399073)
(-0.708334 0.134456 -0.431507)
(-0.616758 0.122458 -0.32328)
(-0.790137 0.191686 -0.49939)
(-0.852954 0.158821 -0.50725)
(-0.844723 0.200339 -0.506144)
(-0.832735 0.176831 -0.504443)
(-0.849648 0.180938 -0.510566)
(-0.857841 0.174207 -0.508042)
(-0.82202 0.184095 -0.499303)
(-0.85387 0.117665 -0.497867)
(-0.811488 0.0950164 -0.480956)
(-0.717313 0.115114 -0.442005)
(-0.74284 0.127705 -0.469045)
(-0.85723 0.104679 -0.492144)
(-0.825522 0.0946472 -0.482972)
(-0.768504 0.138774 -0.478075)
(-0.684247 0.172728 -0.443848)
(-0.706051 0.177606 -0.45505)
(-0.835974 0.0955043 -0.481484)
(-0.80165 0.133465 -0.481976)
(-0.732575 0.131425 -0.438454)
(-0.633867 0.172027 -0.418649)
(-0.849493 0.141426 -0.502495)
(-0.773443 0.136844 -0.472165)
(-0.717 0.149785 -0.475511)
(-0.826807 0.169226 -0.502445)
(-0.761609 0.158375 -0.477014)
(-0.676952 0.123118 -0.421713)
(-0.663163 0.0594712 -0.386528)
(-0.723743 0.0970492 -0.443515)
(-0.750036 0.140311 -0.440048)
(-0.812233 0.102596 -0.458475)
(-0.844967 0.0835501 -0.470444)
(-0.667035 0.122921 -0.370016)
(-0.772458 0.0857236 -0.437082)
(-0.84195 0.0444888 -0.451833)
(-0.533161 0.118801 -0.256893)
(-0.871541 0.062132 -0.472499)
(-0.75132 0.0607517 -0.405977)
(-0.860669 0.158907 -0.50179)
(-0.849135 0.14934 -0.502302)
(-0.804654 0.205583 -0.493725)
(-0.750677 0.183009 -0.472616)
(-0.863144 0.175937 -0.508892)
(-0.854328 0.171003 -0.506188)
(-0.689304 0.0766928 -0.408089)
(-0.631794 0.108005 -0.418761)
(-0.64224 0.132117 -0.425746)
(-0.866525 0.0908892 -0.480156)
(-0.883668 0.0789655 -0.491292)
(-0.85296 0.13399 -0.495162)
(-0.888246 0.103731 -0.500367)
(-0.853559 0.0962217 -0.48062)
(-0.865393 0.0968719 -0.488748)
(-0.876966 0.123824 -0.499908)
(-0.562181 0.086822 -0.38858)
(-0.51235 0.0560404 -0.331907)
(-0.885547 0.0683356 -0.490561)
(-0.820297 0.102202 -0.477038)
(-0.7861 0.0473217 -0.449101)
(-0.745831 0.0575661 -0.41655)
(-0.889243 0.0991178 -0.498854)
(-0.784848 0.138416 -0.477089)
(-0.567339 0.151669 -0.408804)
(-0.706798 0.169728 -0.419821)
(-0.717389 0.14573 -0.454012)
(-0.751539 0.179743 -0.471146)
(-0.819877 0.139375 -0.476976)
(-0.904606 0.0125557 -0.476768)
(-0.668597 0.0237051 -0.340496)
(-0.671733 0.0245416 -0.365511)
(-0.735523 0.0401487 -0.382221)
(-0.870145 0.0473397 -0.46669)
(-0.643811 0.111147 -0.362073)
(-0.667517 0.0716733 -0.349278)
(-0.699733 0.105348 -0.379503)
(-0.640586 0.112407 -0.346402)
(-0.898691 0.05501 -0.485414)
(-0.640888 0.0713937 -0.400097)
(-0.766481 0.0157862 -0.427082)
(-0.735098 0.0377092 -0.427544)
(-0.832915 0.0470181 -0.456192)
(-0.719318 0.198222 -0.434226)
(-0.673354 0.165019 -0.420643)
(-0.569078 0.211297 -0.342299)
(-0.822356 0.0687454 -0.471659)
(-0.721588 0.0674331 -0.425174)
(-0.761802 0.0820162 -0.459028)
(-0.751046 0.0730037 -0.442934)
(-0.841426 0.0689234 -0.47378)
(-0.838324 0.0738619 -0.474905)
(-0.757082 0.0694382 -0.44812)
(-0.634566 0.169399 -0.372146)
(-0.591344 0.166215 -0.34861)
(-0.745999 0.217951 -0.485271)
(-0.575397 0.196825 -0.408571)
(-0.592943 0.201907 -0.413529)
(-0.711853 0.219165 -0.4712)
(-0.691744 0.221165 -0.463573)
(-0.580072 0.107297 -0.30794)
(-0.479075 0.146288 -0.238218)
(-0.609982 0.115022 -0.314506)
(-0.631025 0.114833 -0.327063)
(-0.660334 0.172012 -0.390349)
(-0.643517 0.155646 -0.386367)
(-0.667969 0.161664 -0.405392)
(-0.708152 0.120031 -0.425072)
(-0.4624 0.0935983 -0.251391)
(-0.776531 0.129472 -0.452806)
(-0.481978 0.102077 -0.341723)
(-0.592949 0.0966632 -0.333578)
(-0.667088 0.143295 -0.375759)
(-0.691845 0.133505 -0.39659)
(-0.642986 0.121003 -0.380843)
(-0.467705 0.0895471 -0.27009)
(-0.590085 0.105518 -0.33669)
(-0.606909 0.164007 -0.329421)
(-0.552489 0.135602 -0.286821)
(-0.645002 0.185803 -0.382427)
(-0.56232 0.159146 -0.308318)
(-0.769788 0.212787 -0.495569)
(-0.665981 0.226524 -0.432943)
(-0.703271 0.213296 -0.466754)
(-0.677848 0.22028 -0.448123)
(-0.786073 0.210208 -0.493921)
(-0.790546 0.205723 -0.49678)
(-0.677912 0.222488 -0.452195)
(-0.494282 0.140482 -0.252016)
(-0.669823 0.144793 -0.37415)
(-0.767529 0.18205 -0.456014)
(-0.618351 0.194921 -0.35442)
(-0.769962 0.169029 -0.44757)
(-0.62875 0.177912 -0.350704)
(-0.733363 0.185125 -0.432696)
(-0.695677 0.191078 -0.402154)
(-0.615013 0.177822 -0.340497)
(-0.652374 0.148584 -0.363527)
(-0.615542 0.146022 -0.347532)
(-0.626068 0.155057 -0.352508)
(-0.66635 0.150342 -0.368922)
(-0.752526 0.188345 -0.445895)
(-0.733492 0.184784 -0.442156)
(-0.64763 0.179404 -0.381582)
(-0.520573 0.183675 -0.384161)
(-0.514908 0.164585 -0.383809)
(-0.576469 0.176746 -0.412076)
(-0.57546 0.181731 -0.357713)
(-0.683691 0.18467 -0.405837)
(-0.619026 0.203287 -0.351486)
(-0.706503 0.202388 -0.414339)
(-0.715656 0.209709 -0.42321)
(-0.741938 0.210265 -0.480062)
(-0.707325 0.187559 -0.46655)
(-0.646232 0.197494 -0.441028)
(-0.603744 0.168817 -0.413001)
(-0.697256 0.190973 -0.462974)
(-0.684147 0.182981 -0.454546)
(-0.665213 0.185029 -0.445709)
(-0.863998 0.0644879 -0.483292)
(-0.815888 0.0721092 -0.455311)
(-0.865531 0.07602 -0.488357)
(-0.812454 0.0817272 -0.456195)
(-0.831405 0.0764024 -0.472849)
(-0.786331 0.0861483 -0.449524)
(-0.836307 0.0759003 -0.472206)
(-0.780694 0.186781 -0.464934)
(-0.779633 0.170298 -0.478504)
(-0.739121 0.17234 -0.437937)
(-0.802426 0.16352 -0.480243)
(-0.826271 0.174237 -0.490593)