/*--------------------------------*- C++ -*----------------------------------*\
| =========                 |                                                 |
| \\      /  F ield         | OpenFOAM: The Open Source CFD Toolbox           |
|  \\    /   O peration     | Version:  v1612+                                |
|   \\  /    A nd           | Web:      www.OpenFOAM.com                      |
|    \\/     M anipulation  |                                                 |
\*---------------------------------------------------------------------------*/
FoamFile
{
    version     2.0;
    format      ascii;
    class       volScalarField;
    location    "100";
    object      p;
}
// * * * * * * * * * * * * * * * * * * * * * * * * * * * * * * * * * * * * * //

dimensions      [0 2 -2 0 0 0 0];

internalField   nonuniform List<scalar> 
16958
(
2.65851
2.71911
2.74025
2.70067
2.73346
2.71396
2.71605
2.71848
2.71349
2.71062
2.71994
2.71956
2.71956
2.72585
2.72083
2.71334
2.7125
2.71883
2.72317
2.72236
2.72367
2.71348
2.71793
2.71526
2.70398
2.69251
2.69688
2.70619
2.70306
2.69878
2.69701
2.697
2.69958
2.69512
2.70064
2.6992
2.70274
2.70236
2.6961
2.68964
2.69347
2.69644
2.69796
2.6986
2.70447
2.7108
2.71425
2.70308
2.70607
2.71463
2.71303
2.7102
2.70979
2.71281
2.70688
2.70829
2.71541
2.71589
2.7093
2.71855
2.67739
2.67987
2.66756
2.67147
2.67518
2.66779
2.66431
2.68238
2.67678
2.67122
2.67659
2.68188
2.68316
2.68361
2.68259
2.6806
2.69043
2.68618
2.68624
2.67963
2.67461
2.70223
2.69462
2.69685
2.69606
2.69639
2.69636
2.6933
2.70395
2.70208
2.70316
2.69809
2.69534
2.68959
2.69165
2.69644
2.70013
2.69367
2.70761
2.6923
2.69617
2.69512
2.70148
2.70294
2.70694
2.69415
2.70521
2.69599
2.68596
2.69269
2.70223
2.69627
2.6917
2.69567
2.68213
2.68559
2.7048
2.69788
2.69241
2.6947
2.69644
2.68712
2.72735
2.72857
2.73253
2.73579
2.73516
2.73894
2.73972
2.72509
2.7371
2.74391
2.73249
2.72604
2.72566
2.72863
2.72788
2.73047
2.73539
2.73949
2.73962
2.73931
2.71052
2.71425
2.7175
2.72083
2.72003
2.71446
2.71335
2.71293
2.72011
2.72419
2.7155
2.7208
2.72648
2.71846
2.71893
2.71869
2.72112
2.72326
2.71977
2.7184
2.72007
2.71587
2.71932
2.71903
2.72017
2.72103
2.72235
2.72382
2.72231
2.72397
2.72056
2.71991
2.72272
2.70386
2.70822
2.70974
2.70167
2.69982
2.70425
2.70666
2.70038
2.70354
2.7008
2.70224
2.75128
2.74919
2.74555
2.75065
2.74832
2.74967
2.66324
2.6714
2.6651
2.65402
2.66215
2.66522
2.66239
2.65605
2.66986
2.66333
2.66283
2.66006
2.66967
2.65431
2.6677
2.65285
2.7479
2.74859
2.74489
2.74746
2.75775
2.75825
2.75476
2.75273
2.74741
2.76313
2.74628
2.66668
2.66505
2.6667
2.66946
2.67062
2.66603
2.6621
2.71427
2.71746
2.71503
2.71705
2.71047
2.7052
2.69495
2.7076
2.69999
2.71364
2.70617
2.71491
2.71143
2.711
2.71347
2.70862
2.71643
2.69115
2.69029
2.69001
2.69564
2.68819
2.69402
2.69084
2.68345
2.68593
2.68015
2.68812
2.69464
2.68264
2.68955
2.6861
2.681
2.68265
2.67694
2.69028
2.68237
2.77438
2.77441
2.76948
2.76561
2.7499
2.76172
2.76253
2.75359
2.75954
2.69567
2.69957
2.70365
2.70181
2.69938
2.69361
2.69764
2.70525
2.69796
2.69785
2.69815
2.70113
2.70561
2.70031
2.70611
2.73779
2.7376
2.74211
2.73828
2.73958
2.74081
2.74107
2.73843
2.73824
2.73432
2.7393
2.73979
2.73712
2.7448
2.74471
2.73978
2.74385
2.68509
2.68262
2.67615
2.68582
2.68765
2.68729
2.67842
2.68637
2.70732
2.71723
2.70232
2.71006
2.71018
2.70577
2.71427
2.71363
2.71863
2.71952
2.71872
2.71675
2.71715
2.71793
2.7119
2.72315
2.71659
2.71595
2.71021
2.71402
2.66262
2.66238
2.66268
2.65028
2.65924
2.6489
2.65713
2.6574
2.66005
2.64966
2.67357
2.65541
2.65988
2.65434
2.65696
2.64166
2.6592
2.6555
2.65813
2.64503
2.65655
2.70788
2.70808
2.70768
2.70666
2.70359
2.70763
2.70552
2.70473
2.7029
2.70817
2.70781
2.70669
2.70436
2.70713
2.70125
2.70372
2.71031
2.74626
2.74145
2.74738
2.7471
2.7445
2.74569
2.74827
2.67719
2.67942
2.68243
2.68394
2.68502
2.68523
2.67996
2.682
2.68243
2.68809
2.6894
2.69039
2.69201
2.68434
2.68284
2.68291
2.69139
2.68901
2.68879
2.68722
2.73379
2.73293
2.73184
2.7275
2.73083
2.72942
2.73344
2.73338
2.73109
2.72827
2.72771
2.72793
2.72475
2.73126
2.72719
2.72701
2.73117
2.72827
2.72905
2.72931
2.73254
2.72139
2.72911
2.73378
2.71962
2.72858
2.72197
2.7216
2.7257
2.72567
2.71744
2.71714
2.72108
2.7263
2.71991
2.71868
2.71899
2.72738
2.72279
2.71403
2.68627
2.68727
2.68354
2.68303
2.68068
2.68191
2.68691
2.68599
2.68117
2.68169
2.67944
2.67522
2.67825
2.68358
2.68479
2.68261
2.6768
2.68314
2.67738
2.67725
2.67744
2.6719
2.67513
2.67608
2.67491
2.67262
2.71679
2.73313
2.72908
2.7322
2.72796
2.73094
2.7314
2.7309
2.71551
2.72754
2.72606
2.72765
2.70552
2.73354
2.71974
2.73033
2.66276
2.66695
2.66805
2.67445
2.67728
2.67011
2.68121
2.65598
2.66908
2.65918
2.66714
2.66534
2.66461
2.6659
2.73667
2.73554
2.74116
2.73816
2.7375
2.73309
2.74192
2.74236
2.74476
2.73898
2.74533
2.73749
2.74119
2.73974
2.74044
2.74185
2.73935
2.74312
2.74736
2.74767
2.74162
2.7509
2.73911
2.73625
2.73936
2.73942
2.73603
2.74471
2.73785
2.73445
2.7381
2.71215
2.70845
2.71171
2.71418
2.70849
2.70337
2.70055
2.70902
2.70415
2.70052
2.7043
2.711
2.70768
2.70527
2.71117
2.71012
2.71714
2.71006
2.69091
2.6924
2.68825
2.6911
2.68711
2.69453
2.69104
2.6941
2.69019
2.68461
2.69553
2.69741
2.69243
2.69477
2.69016
2.69241
2.70002
2.70098
2.70356
2.70363
2.69837
2.6942
2.73966
2.73932
2.74004
2.73146
2.73587
2.73615
2.73457
2.73414
2.73262
2.73684
2.73277
2.73473
2.73268
2.73774
2.73029
2.78535
2.79134
2.80052
2.78544
2.77604
2.78362
2.77137
2.77562
2.7754
2.77081
2.77603
2.79684
2.77323
2.78412
2.68691
2.68712
2.6794
2.68918
2.68766
2.68968
2.68557
2.68383
2.68432
2.68118
2.68928
2.68903
2.68201
2.68559
2.68273
2.68455
2.6798
2.68807
2.69124
2.69255
2.69909
2.69572
2.70321
2.69729
2.68634
2.68492
2.68946
2.68447
2.69473
2.68578
2.68909
2.68758
2.68456
2.69192
2.69811
2.69401
2.70414
2.68598
2.69515
2.70087
2.68984
2.6939
2.69999
2.69763
2.72324
2.71894
2.72739
2.72545
2.72442
2.72856
2.72035
2.72264
2.72337
2.72547
2.72338
2.72829
2.72638
2.72682
2.73105
2.73916
2.72141
2.72876
2.73701
2.74091
2.73658
2.73054
2.7877
2.78831
2.78866
2.77845
2.76997
2.77777
2.77499
2.77928
2.79263
2.77311
2.77744
2.77464
2.76908
2.77752
2.77488
2.77422
2.78209
2.77572
2.78152
2.7839
2.78721
2.70033
2.70209
2.67828
2.69543
2.6847
2.69187
2.69406
2.70244
2.69306
2.70338
2.70723
2.70283
2.70145
2.70164
2.70944
2.7099
2.69074
2.71475
2.71434
2.70552
2.70968
2.71544
2.71089
2.7106
2.70573
2.69376
2.68818
2.68581
2.69206
2.70183
2.69617
2.69439
2.68954
2.68869
2.69052
2.68843
2.69019
2.69866
2.69413
2.69347
2.69476
2.69091
2.69685
2.70154
2.69674
2.69296
2.69254
2.69213
2.69366
2.69146
2.69198
2.69202
2.68976
2.69094
2.688
2.69081
2.68777
2.68658
2.68719
2.68785
2.68737
2.69115
2.68945
2.68551
2.68818
2.68279
2.68411
2.6893
2.68097
2.68274
2.68756
2.68589
2.68253
2.68794
2.68135
2.68984
2.68876
2.69689
2.68134
2.68473
2.69131
2.69886
2.68493
2.69427
2.73457
2.73046
2.72961
2.73341
2.73108
2.73303
2.7341
2.73708
2.73441
2.7336
2.73192
2.73575
2.72944
2.7353
2.72976
2.6831
2.68976
2.69096
2.69121
2.68588
2.68251
2.68785
2.69044
2.69085
2.68946
2.69331
2.68724
2.6893
2.68903
2.69105
2.72142
2.71891
2.72372
2.71141
2.71123
2.71973
2.71901
2.70874
2.71046
2.71345
2.7118
2.71194
2.71216
2.71514
2.7153
2.7071
2.70898
2.71126
2.73649
2.73847
2.73518
2.73871
2.74072
2.73786
2.73698
2.73214
2.73381
2.70598
2.70485
2.70848
2.70508
2.70604
2.70865
2.70643
2.70451
2.70759
2.7045
2.70403
2.70536
2.70557
2.70724
2.70544
2.70707
2.70739
2.70676
2.7147
2.71411
2.68264
2.68313
2.6742
2.72398
2.72886
2.66491
2.65775
2.67152
2.66004
2.76715
2.76679
2.64944
2.65167
2.73487
2.73275
2.73518
2.71866
2.7166
2.71545
2.74592
2.74455
2.74652
2.68445
2.68308
2.69258
2.68986
2.68827
2.6936
2.68718
2.73093
2.73988
2.74004
2.7343
2.68243
2.68242
2.68782
2.75768
2.76208
2.68376
2.68656
2.74978
2.74901
2.68104
2.67928
2.68053
2.6652
2.66608
2.73502
2.73333
2.72089
2.72232
2.72016
2.71901
2.73649
2.73719
2.74128
2.73328
2.69302
2.68498
2.68988
2.68815
2.68564
2.70707
2.70848
2.70161
2.7024
2.74215
2.73384
2.73706
2.68687
2.68765
2.68546
2.68157
2.71618
2.7195
2.71359
2.7089
2.70843
2.71894
2.71822
2.70776
2.71104
2.71046
2.70517
2.78555
2.78168
2.72986
2.73479
2.73545
2.72419
2.72753
2.72938
2.73155
2.72834
2.69733
2.70194
2.69839
2.70241
2.69867
2.6935
2.70879
2.68933
2.69706
2.71329
2.71288
2.72722
2.72513
2.75037
2.74438
2.74577
2.73832
2.76214
2.74954
2.7517
2.69921
2.69058
2.69139
2.70719
2.7044
2.69818
2.70004
2.70106
2.7053
2.70586
2.69723
2.70017
2.69682
2.71168
2.72021
2.72272
2.72194
2.73123
2.73544
2.73855
2.70807
2.70907
2.68544
2.6871
2.72936
2.72952
2.73656
2.67569
2.67715
2.71408
2.71502
2.74348
2.74404
2.74644
2.73406
2.73522
2.72382
2.7421
2.71182
2.71147
2.6736
2.66584
2.66716
2.67127
2.66111
2.66361
2.76026
2.75777
2.7547
2.78204
2.77788
2.77638
2.79385
2.79106
2.79567
2.72676
2.72831
2.72677
2.67325
2.66629
2.69331
2.69353
2.70768
2.70835
2.72025
2.72151
2.7461
2.73856
2.74082
2.74885
2.74834
2.74764
2.74795
2.75016
2.74352
2.74383
2.74513
2.75673
2.7527
2.74851
2.74685
2.73935
2.73644
2.74757
2.73337
2.73781
2.74439
2.7468
2.74329
2.71723
2.72444
2.71855
2.71372
2.72201
2.71272
2.71976
2.7203
2.72405
2.72142
2.7309
2.72083
2.72158
2.71482
2.72332
2.72151
2.72473
2.7226
2.71801
2.71014
2.72016
2.72102
2.71474
2.72546
2.71881
2.71915
2.71598
2.71097
2.71877
2.71341
2.70925
2.70865
2.70825
2.70454
2.70967
2.70725
2.70265
2.69499
2.69986
2.69705
2.69177
2.69012
2.69192
2.68786
2.68634
2.69166
2.69191
2.69009
2.69686
2.69009
2.69187
2.69868
2.69407
2.6957
2.68662
2.6962
2.69337
2.68699
2.68871
2.67788
2.68234
2.67992
2.73209
2.73067
2.72567
2.72491
2.72968
2.72898
2.7282
2.73311
2.73364
2.7251
2.72762
2.72825
2.73012
2.72699
2.72634
2.72308
2.72057
2.72129
2.72489
2.72424
2.72097
2.72096
2.71842
2.72701
2.72431
2.72158
2.72158
2.7789
2.7805
2.78783
2.78029
2.77943
2.77356
2.77336
2.79177
2.78025
2.79347
2.78134
2.78364
2.77929
2.76833
2.75268
2.77153
2.7672
2.75962
2.77552
2.77835
2.78378
2.76277
2.76905
2.77133
2.77236
2.76825
2.77073
2.76351
2.77231
2.76717
2.78952
2.77765
2.7808
2.78534
2.78295
2.77603
2.74348
2.74989
2.74806
2.74914
2.75735
2.74608
2.77249
2.76407
2.76076
2.76619
2.763
2.75423
2.74835
2.76472
2.74444
2.75194
2.76305
2.7574
2.76119
2.75308
2.66697
2.66414
2.66037
2.67416
2.66774
2.67462
2.6829
2.6719
2.66898
2.67566
2.66561
2.66524
2.66732
2.66931
2.66244
2.66381
2.65832
2.65628
2.66089
2.65739
2.66042
2.6848
2.67769
2.67039
2.68485
2.68046
2.67553
2.6792
2.67023
2.68776
2.68178
2.71222
2.70713
2.71021
2.70666
2.70131
2.70505
2.7053
2.71684
2.7156
2.71277
2.71196
2.70897
2.71877
2.6973
2.6978
2.70707
2.7049
2.70653
2.70185
2.70156
2.70744
2.7077
2.70626
2.70667
2.71112
2.7134
2.71647
2.71409
2.70905
2.71089
2.71032
2.70492
2.70885
2.72148
2.72255
2.72985
2.73455
2.73672
2.73266
2.75383
2.74798
2.74258
2.74191
2.73522
2.7263
2.73744
2.73998
2.73342
2.72902
2.72737
2.73271
2.72724
2.73959
2.73931
2.7469
2.74865
2.73942
2.74071
2.74298
2.74102
2.74238
2.74298
2.74183
2.74395
2.74776
2.74639
2.7462
2.74485
2.74521
2.64508
2.71479
2.71374
2.72202
2.719
2.71379
2.71475
2.71261
2.71371
2.71393
2.71074
2.71434
2.71149
2.70965
2.70991
2.71189
2.70805
2.70918
2.70806
2.71014
2.70952
2.71341
2.71092
2.70886
2.71521
2.71054
2.71229
2.71372
2.71562
2.71438
2.66741
2.6698
2.66249
2.67831
2.68054
2.67993
2.68012
2.67941
2.67839
2.67689
2.68222
2.68012
2.73558
2.74286
2.73958
2.73541
2.73729
2.7341
2.72906
2.73386
2.72566
2.73781
2.73065
2.72454
2.72862
2.69804
2.69159
2.69453
2.68239
2.6908
2.69735
2.68749
2.68608
2.68769
2.69104
2.67484
2.68093
2.67562
2.68459
2.67872
2.69089
2.68225
2.68647
2.67937
2.67874
2.67766
2.68216
2.68739
2.70314
2.68829
2.68727
2.68613
2.69886
2.69363
2.70267
2.70655
2.70368
2.71233
2.70196
2.70444
2.70686
2.70993
2.7159
2.70528
2.70939
2.70673
2.70571
2.71488
2.70693
2.70854
2.70629
2.7015
2.69776
2.70133
2.70195
2.70814
2.73786
2.74188
2.73894
2.7368
2.74109
2.73773
2.73942
2.73743
2.73338
2.73127
2.72707
2.7322
2.73225
2.73943
2.74041
2.73823
2.73468
2.73577
2.73362
2.73482
2.73534
2.72204
2.72094
2.72529
2.72023
2.72465
2.7237
2.7266
2.71909
2.7185
2.71889
2.69981
2.6972
2.69988
2.69826
2.68889
2.68603
2.68488
2.69405
2.69049
2.69356
2.69559
2.69455
2.69121
2.69311
2.70099
2.70402
2.70025
2.69672
2.71187
2.7071
2.71333
2.69932
2.69963
2.698
2.71486
2.71863
2.71548
2.71885
2.71497
2.71045
2.70896
2.70358
2.6987
2.70962
2.71066
2.71118
2.70591
2.70769
2.70173
2.69706
2.6969
2.70332
2.70467
2.70391
2.7014
2.70269
2.70158
2.6947
2.69625
2.69954
2.69987
2.69819
2.69654
2.69754
2.70558
2.70295
2.70106
2.69719
2.69476
2.69615
2.69649
2.69546
2.69998
2.70318
2.69894
2.69692
2.70509
2.69745
2.70026
2.69583
2.69684
2.69564
2.71171
2.71002
2.71164
2.69592
2.70513
2.70019
2.70656
2.7082
2.71005
2.70512
2.6987
2.70223
2.69153
2.6945
2.70354
2.70457
2.70467
2.69984
2.70224
2.70163
2.69766
2.69478
2.6875
2.69535
2.68967
2.68592
2.69338
2.69893
2.69243
2.69465
2.6719
2.66912
2.67469
2.66551
2.66247
2.6581
2.75163
2.75478
2.74555
2.74851
2.74943
2.75641
2.73941
2.73926
2.74065
2.74009
2.73803
2.74781
2.74516
2.74314
2.74951
2.74939
2.74688
2.74368
2.74893
2.73776
2.73403
2.73787
2.74256
2.74178
2.74077
2.7393
2.72528
2.72041
2.72413
2.71745
2.73002
2.73072
2.72978
2.71542
2.71731
2.71939
2.72289
2.71094
2.72083
2.72248
2.70939
2.71201
2.72428
2.72102
2.72603
2.72328
2.71403
2.70813
2.7111
2.70648
2.70538
2.71961
2.71709
2.72179
2.72555
2.71343
2.70483
2.71507
2.72236
2.71732
2.71102
2.71135
2.70883
2.7047
2.71078
2.72036
2.71109
2.71035
2.71203
2.71474
2.70986
2.71141
2.71117
2.71477
2.71524
2.71446
2.70695
2.71094
2.68897
2.68899
2.69983
2.69866
2.68867
2.68767
2.69872
2.6918
2.69448
2.69463
2.7064
2.71128
2.69327
2.69164
2.70818
2.70459
2.70178
2.70172
2.70707
2.70559
2.71109
2.71124
2.70227
2.70158
2.70255
2.70712
2.70586
2.70931
2.70994
2.70958
2.69882
2.69047
2.69224
2.69958
2.69144
2.68514
2.68783
2.69489
2.6962
2.68765
2.6888
2.69987
2.70478
2.70122
2.70165
2.6993
2.68874
2.68748
2.69358
2.69552
2.69259
2.69146
2.69424
2.69748
2.69435
2.69353
2.69645
2.70008
2.69005
2.69185
2.69787
2.70595
2.70248
2.70218
2.70503
2.70476
2.70149
2.70237
2.69896
2.70165
2.69989
2.6982
2.70097
2.69951
2.73682
2.7361
2.7359
2.73361
2.73142
2.7312
2.72876
2.73494
2.73299
2.73549
2.73218
2.73328
2.73401
2.72423
2.72755
2.726
2.72425
2.72242
2.72147
2.7242
2.72947
2.7202
2.73044
2.72598
2.72968
2.73243
2.72511
2.732
2.72267
2.72246
2.72373
2.71434
2.72038
2.72457
2.72689
2.7233
2.72543
2.71798
2.7271
2.72498
2.72542
2.73457
2.73271
2.72751
2.72247
2.7308
2.73144
2.73152
2.72839
2.73376
2.73377
2.73039
2.73554
2.72063
2.72536
2.72544
2.71454
2.73797
2.7355
2.73004
2.72988
2.72492
2.72817
2.72883
2.72538
2.72562
2.77453
2.77581
2.76782
2.7782
2.76803
2.76986
2.78747
2.79127
2.677
2.67495
2.68217
2.67438
2.67174
2.70315
2.70492
2.70181
2.70652
2.70194
2.71568
2.71296
2.70884
2.70886
2.70987
2.72022
2.72058
2.71553
2.71774
2.72345
2.71929
2.72153
2.71495
2.71643
2.71788
2.71415
2.71431
2.71325
2.71859
2.71575
2.71756
2.67961
2.72218
2.72149
2.72198
2.72602
2.71292
2.71395
2.71482
2.7135
2.72024
2.7142
2.7152
2.71388
2.71728
2.71713
2.68635
2.68929
2.68568
2.69207
2.69187
2.68834
2.69258
2.6884
2.68861
2.6795
2.68437
2.68539
2.67916
2.68134
2.73385
2.73477
2.73048
2.72734
2.7359
2.73747
2.74554
2.73505
2.73283
2.73021
2.73757
2.73669
2.73882
2.73845
2.73241
2.73274
2.73174
2.73134
2.73142
2.73334
2.73045
2.70026
2.69923
2.69714
2.70676
2.69708
2.6988
2.69838
2.70005
2.70567
2.70313
2.69203
2.70249
2.69474
2.69246
2.69328
2.70803
2.71021
2.70241
2.7008
2.70052
2.70406
2.7049
2.70168
2.70078
2.70727
2.70652
2.70721
2.70719
2.70642
2.70668
2.70214
2.70081
2.70029
2.70542
2.70182
2.70152
2.69884
2.70027
2.68328
2.68123
2.68602
2.6848
2.68431
2.68018
2.69011
2.68715
2.69229
2.69375
2.69331
2.68632
2.68484
2.68376
2.68813
2.66012
2.65208
2.64731
2.65282
2.69444
2.69768
2.70063
2.70641
2.69857
2.69898
2.69507
2.70284
2.69217
2.6929
2.69489
2.69109
2.69889
2.69583
2.69713
2.73653
2.73886
2.73699
2.72758
2.73943
2.73617
2.73355
2.72989
2.73074
2.73325
2.72927
2.73145
2.73264
2.71467
2.71554
2.71358
2.71783
2.7169
2.71123
2.71273
2.71665
2.7228
2.72
2.72288
2.72415
2.72224
2.7319
2.72036
2.72068
2.73307
2.72852
2.72864
2.73651
2.73289
2.73583
2.737
2.73847
2.66364
2.67829
2.67694
2.67834
2.68134
2.67176
2.66834
2.67075
2.67466
2.66341
2.66295
2.65205
2.65787
2.66327
2.66896
2.67581
2.66883
2.67172
2.67013
2.66003
2.66232
2.66337
2.66807
2.66167
2.66263
2.66431
2.66425
2.67111
2.6675
2.66623
2.66959
2.67689
2.67297
2.67496
2.66887
2.66664
2.67454
2.67113
2.66887
2.67426
2.66895
2.66947
2.66603
2.66701
2.67356
2.65561
2.67276
2.66885
2.66426
2.66568
2.65727
2.66723
2.68331
2.68752
2.68563
2.68403
2.67667
2.67211
2.67155
2.66464
2.67161
2.67025
2.66911
2.67323
2.67753
2.67103
2.67486
2.68381
2.67598
2.67797
2.68336
2.67673
2.67755
2.67205
2.7528
2.75602
2.7598
2.77286
2.77054
2.75781
2.75268
2.74538
2.74319
2.74826
2.74745
2.75353
2.75046
2.67952
2.68612
2.67568
2.67024
2.68383
2.68268
2.68058
2.68364
2.68154
2.68293
2.69025
2.68417
2.68372
2.76868
2.76527
2.75604
2.77103
2.77058
2.76811
2.77744
2.77656
2.76755
2.75765
2.7612
2.75433
2.75591
2.76824
2.75764
2.76029
2.76502
2.67557
2.6815
2.67886
2.67595
2.7264
2.72584
2.72816
2.75427
2.74463
2.73581
2.74424
2.74866
2.6851
2.6891
2.68821
2.68149
2.68085
2.67988
2.67585
2.68437
2.68462
2.68603
2.68702
2.69523
2.6931
2.69222
2.69199
2.69522
2.6964
2.69616
2.67758
2.678
2.68052
2.6885
2.6879
2.68819
2.68976
2.69237
2.68895
2.68811
2.68421
2.68967
2.68537
2.68412
2.6838
2.69389
2.68782
2.69383
2.69183
2.68382
2.6844
2.68255
2.68322
2.68618
2.68853
2.68584
2.68158
2.68561
2.68021
2.68078
2.67309
2.67159
2.67379
2.74525
2.7403
2.74727
2.74613
2.746
2.74873
2.74572
2.74447
2.73751
2.73863
2.73966
2.73925
2.73697
2.73668
2.72739
2.72614
2.72285
2.72428
2.71486
2.72859
2.72107
2.70778
2.70029
2.71232
2.71326
2.70889
2.70161
2.71307
2.72109
2.70431
2.70717
2.7172
2.71877
2.7388
2.73512
2.7374
2.73157
2.72618
2.73159
2.73075
2.73279
2.72973
2.73083
2.73253
2.73523
2.73137
2.732
2.73206
2.73374
2.73442
2.73215
2.73281
2.65275
2.65881
2.66446
2.65796
2.65196
2.65432
2.65689
2.64677
2.65252
2.65795
2.65615
2.65128
2.76563
2.75685
2.76309
2.76848
2.7557
2.77656
2.77958
2.78198
2.77216
2.77834
2.77097
2.76264
2.7675
2.75164
2.75824
2.67107
2.67048
2.67041
2.66857
2.65958
2.66085
2.72157
2.72569
2.72556
2.71901
2.71714
2.72153
2.72365
2.73012
2.72208
2.72782
2.72482
2.72275
2.72266
2.67963
2.67127
2.67397
2.68223
2.67882
2.67766
2.68542
2.6846
2.6812
2.68185
2.68216
2.68937
2.68628
2.67874
2.68219
2.68788
2.68138
2.68356
2.67982
2.68746
2.68273
2.68049
2.68149
2.68182
2.68161
2.67774
2.67599
2.67654
2.71091
2.70718
2.70894
2.7104
2.70841
2.70496
2.70085
2.70385
2.70837
2.70424
2.67706
2.67288
2.67884
2.67326
2.66991
2.75885
2.75724
2.76446
2.76634
2.76546
2.75449
2.74986
2.74194
2.74559
2.72865
2.72555
2.72764
2.7399
2.7398
2.73457
2.73531
2.73461
2.73315
2.73506
2.73643
2.73725
2.75426
2.75267
2.74683
2.7438
2.74692
2.74688
2.74971
2.74952
2.68303
2.68437
2.68579
2.68178
2.68105
2.68485
2.68348
2.67955
2.68079
2.68453
2.68316
2.68383
2.68173
2.67496
2.66809
2.68232
2.67857
2.67417
2.67107
2.67252
2.68211
2.67404
2.6878
2.68939
2.68969
2.68135
2.68237
2.68163
2.68267
2.68704
2.69534
2.69391
2.68961
2.68428
2.68942
2.68676
2.6642
2.67524
2.68255
2.67898
2.68489
2.6817
2.68337
2.68345
2.68008
2.6761
2.68144
2.67194
2.67398
2.67774
2.67055
2.67694
2.67519
2.67504
2.68118
2.67402
2.67373
2.67734
2.67787
2.68147
2.69129
2.68698
2.68276
2.6803
2.68431
2.67899
2.68624
2.68535
2.67624
2.68032
2.67877
2.6831
2.6766
2.66962
2.68709
2.67599
2.67952
2.68059
2.67699
2.68085
2.64516
2.65322
2.65436
2.64456
2.64851
2.65941
2.65827
2.6567
2.7151
2.71863
2.71799
2.71958
2.71895
2.72097
2.72004
2.7214
2.71823
2.69998
2.69524
2.70232
2.67927
2.68806
2.68108
2.68739
2.68162
2.6894
2.68815
2.65073
2.65549
2.65467
2.64882
2.64849
2.6486
2.64171
2.65259
2.64961
2.64593
2.65383
2.65873
2.66136
2.66639
2.65714
2.6631
2.65977
2.67809
2.68404
2.68378
2.68017
2.68338
2.68376
2.68036
2.67967
2.67418
2.67395
2.68145
2.68011
2.69496
2.6928
2.6936
2.70258
2.69724
2.69987
2.69756
2.67452
2.67294
2.67836
2.67142
2.77399
2.76931
2.77103
2.77636
2.76808
2.77113
2.7696
2.7137
2.71234
2.7148
2.72141
2.71362
2.71914
2.71629
2.71726
2.71809
2.71526
2.71406
2.7286
2.73055
2.72944
2.72338
2.73123
2.73253
2.7294
2.72963
2.72999
2.72944
2.72789
2.73162
2.72985
2.72866
2.69099
2.69166
2.69679
2.69607
2.69784
2.69814
2.69631
2.69655
2.69416
2.695
2.69524
2.69577
2.68612
2.68695
2.68736
2.69046
2.68972
2.68835
2.68961
2.68621
2.68828
2.70339
2.70178
2.69442
2.70241
2.71103
2.69493
2.69662
2.69501
2.70451
2.70897
2.6978
2.70286
2.69871
2.7064
2.71661
2.71691
2.70365
2.72101
2.72157
2.71699
2.71579
2.7207
2.71776
2.70851
2.69043
2.69577
2.70183
2.70448
2.70204
2.70869
2.69951
2.6963
2.70166
2.69875
2.70688
2.71165
2.71527
2.71684
2.71553
2.71769
2.66823
2.66342
2.65948
2.66865
2.66432
2.66311
2.66362
2.66254
2.67159
2.67378
2.67035
2.67219
2.66941
2.67423
2.67526
2.67781
2.68293
2.66994
2.66858
2.68092
2.67785
2.68687
2.68131
2.68689
2.68898
2.68542
2.68168
2.68324
2.67816
2.68927
2.68247
2.68226
2.68306
2.68371
2.69359
2.69214
2.6966
2.69388
2.70246
2.69576
2.69566
2.69982
2.69964
2.7076
2.70093
2.7052
2.70368
2.71209
2.71664
2.71573
2.70335
2.69834
2.706
2.70622
2.7066
2.69445
2.69653
2.69509
2.69736
2.69662
2.69653
2.72346
2.72903
2.72738
2.72892
2.73351
2.73108
2.72869
2.72537
2.72342
2.72471
2.72613
2.72485
2.73202
2.72846
2.73024
2.72504
2.73663
2.72905
2.73796
2.73322
2.73393
2.73308
2.7294
2.74151
2.74469
2.74027
2.74043
2.74312
2.73964
2.70784
2.70433
2.70126
2.69965
2.70635
2.69847
2.70224
2.70513
2.7003
2.70287
2.70641
2.66416
2.65674
2.6576
2.65905
2.66504
2.65873
2.65523
2.70872
2.70981
2.71124
2.71314
2.71252
2.71318
2.71521
2.71241
2.71193
2.71888
2.71421
2.71169
2.71192
2.70891
2.70737
2.70972
2.71574
2.71268
2.66084
2.65903
2.65153
2.65989
2.66081
2.65895
2.66188
2.65433
2.73888
2.74568
2.74012
2.74424
2.74296
2.74156
2.74085
2.74272
2.74271
2.72357
2.7258
2.72335
2.71501
2.72804
2.72831
2.7214
2.72265
2.72028
2.72248
2.72888
2.73586
2.74271
2.73247
2.73584
2.73505
2.73584
2.71298
2.71498
2.71557
2.71231
2.70906
2.71424
2.72289
2.7157
2.71312
2.71441
2.72003
2.71825
2.79646
2.78085
2.78331
2.79623
2.78706
2.77921
2.78245
2.79361
2.80421
2.79552
2.79482
2.80544
2.80226
2.78638
2.80146
2.79538
2.76898
2.77581
2.77914
2.76966
2.77488
2.78287
2.78159
2.77784
2.76707
2.78315
2.77854
2.79129
2.78446
2.78724
2.78558
2.78992
2.79024
2.79348
2.7908
2.79563
2.77823
2.77698
2.78877
2.78361
2.79711
2.8061
2.80786
2.80831
2.80472
2.79618
2.80271
2.80073
2.76676
2.77979
2.78008
2.76745
2.77148
2.76525
2.76579
2.76828
2.78154
2.78018
2.78196
2.77969
2.7623
2.7689
2.75837
2.77072
2.76074
2.77193
2.7624
2.75841
2.76759
2.7713
2.76982
2.769
2.75568
2.76772
2.77644
2.78591
2.77483
2.77055
2.71849
2.71933
2.72223
2.71905
2.72074
2.71997
2.7206
2.72058
2.7262
2.7269
2.72844
2.7281
2.72863
2.72899
2.72816
2.6638
2.67123
2.67269
2.66568
2.67443
2.67091
2.67808
2.67105
2.67232
2.67321
2.67926
2.67333
2.66849
2.67608
2.67166
2.67406
2.67564
2.6761
2.67676
2.69995
2.70454
2.69803
2.701
2.69597
2.69793
2.70662
2.70443
2.70153
2.69779
2.69791
2.74776
2.7469
2.73852
2.75008
2.74323
2.73035
2.74192
2.74544
2.74599
2.74224
2.74514
2.745
2.74285
2.74463
2.74999
2.7469
2.74985
2.74711
2.74683
2.7459
2.7482
2.7487
2.74726
2.74615
2.75054
2.75112
2.75093
2.74915
2.74512
2.74862
2.74829
2.74933
2.74919
2.74677
2.74798
2.74372
2.74301
2.74451
2.74348
2.74643
2.7485
2.7473
2.74983
2.74782
2.7424
2.74365
2.7435
2.74725
2.72859
2.726
2.72919
2.7246
2.72699
2.72915
2.72906
2.72743
2.72818
2.67773
2.67106
2.67326
2.67359
2.67622
2.66994
2.67605
2.67876
2.69105
2.697
2.70288
2.68623
2.69253
2.69648
2.70266
2.70646
2.69319
2.6852
2.68084
2.68784
2.69439
2.69375
2.7433
2.74319
2.74157
2.74154
2.74102
2.73996
2.74372
2.7414
2.73827
2.74139
2.74006
2.68769
2.69033
2.6893
2.69239
2.69437
2.6939
2.69202
2.68934
2.69245
2.70303
2.70224
2.70146
2.70717
2.7089
2.71078
2.70073
2.67781
2.67139
2.66864
2.67263
2.67686
2.66693
2.66795
2.67648
2.67652
2.67461
2.66972
2.72874
2.73177
2.72629
2.73901
2.73384
2.73381
2.73647
2.74077
2.73167
2.7434
2.7377
2.73785
2.73638
2.73347
2.73332
2.73072
2.71901
2.72079
2.726
2.72212
2.72015
2.72159
2.71151
2.71582
2.71287
2.7088
2.71579
2.72373
2.71375
2.71608
2.68237
2.68099
2.66881
2.66881
2.67004
2.66881
2.67406
2.66921
2.76094
2.77206
2.76843
2.76417
2.77027
2.75232
2.75673
2.75444
2.75154
2.75849
2.7544
2.77321
2.77613
2.77986
2.68973
2.68878
2.68564
2.67898
2.69146
2.68519
2.676
2.68866
2.6881
2.68723
2.68664
2.68407
2.65288
2.66161
2.65729
2.6669
2.64883
2.66681
2.65891
2.65463
2.65253
2.7053
2.69316
2.7112
2.7123
2.71394
2.71621
2.71231
2.71372
2.7087
2.71611
2.71975
2.71922
2.73553
2.73751
2.74051
2.74212
2.73511
2.74249
2.74611
2.74086
2.7371
2.73981
2.7342
2.75151
2.74498
2.75073
2.73791
2.73887
2.71481
2.71282
2.7101
2.71193
2.70641
2.7119
2.71048
2.70872
2.70885
2.70855
2.70797
2.70137
2.7062
2.70969
2.71071
2.71953
2.68672
2.68335
2.69528
2.68357
2.70192
2.69052
2.69402
2.69589
2.69191
2.70536
2.68346
2.6808
2.6884
2.68642
2.6864
2.68479
2.6996
2.70398
2.69743
2.70385
2.70133
2.69001
2.70251
2.70485
2.70295
2.73709
2.73573
2.73873
2.73312
2.73386
2.72979
2.73997
2.73846
2.73695
2.70045
2.70299
2.70822
2.70388
2.70465
2.70545
2.70105
2.70289
2.70502
2.70477
2.70543
2.70389
2.70232
2.70299
2.70201
2.73483
2.74065
2.74001
2.73694
2.73878
2.73892
2.73644
2.73937
2.73752
2.71475
2.71294
2.70819
2.70609
2.70125
2.70778
2.70676
2.71583
2.70883
2.71807
2.71035
2.70156
2.7102
2.71085
2.70146
2.70125
2.69244
2.70294
2.70414
2.6985
2.69791
2.70194
2.70607
2.70089
2.70328
2.70096
2.71684
2.71739
2.71349
2.72082
2.71428
2.72141
2.72162
2.72349
2.70902
2.72373
2.71227
2.71348
2.71495
2.72907
2.72594
2.72678
2.71557
2.71087
2.71954
2.72308
2.72678
2.72335
2.72545
2.72865
2.71789
2.71675
2.74974
2.7428
2.74587
2.73935
2.72758
2.73673
2.73768
2.72922
2.73202
2.7401
2.7467
2.73942
2.74426
2.73821
2.72169
2.72975
2.72856
2.73203
2.74136
2.72893
2.71867
2.73385
2.7378
2.7322
2.73082
2.72441
2.7271
2.67363
2.6738
2.67212
2.67299
2.70231
2.70156
2.70523
2.70605
2.70478
2.70584
2.70072
2.70702
2.70453
2.69683
2.70984
2.70404
2.70849
2.7067
2.71249
2.70433
2.71054
2.70066
2.70808
2.71625
2.71318
2.71338
2.71495
2.71413
2.71869
2.7196
2.71721
2.71763
2.71478
2.71449
2.7161
2.72023
2.71997
2.71589
2.71661
2.69556
2.69625
2.69582
2.699
2.69783
2.69754
2.69619
2.69719
2.68942
2.68858
2.69292
2.69395
2.69236
2.68764
2.69458
2.73406
2.74233
2.74696
2.74888
2.7369
2.74195
2.73528
2.68588
2.69659
2.69493
2.68693
2.68415
2.68463
2.6875
2.68584
2.6767
2.68019
2.69189
2.68894
2.69826
2.69758
2.69287
2.69014
2.69225
2.69034
2.69946
2.69932
2.70551
2.70593
2.70933
2.71165
2.69276
2.69956
2.69786
2.70057
2.71108
2.70446
2.71525
2.73226
2.72546
2.72576
2.719
2.72373
2.72737
2.72869
2.73008
2.72043
2.72215
2.71265
2.72569
2.72643
2.73957
2.73659
2.73199
2.73088
2.73051
2.7297
2.73242
2.66676
2.66562
2.66647
2.66293
2.66398
2.66638
2.67116
2.66425
2.66748
2.67207
2.66888
2.67144
2.67096
2.67286
2.66413
2.67248
2.67784
2.66875
2.74925
2.74517
2.75243
2.7461
2.76041
2.75363
2.75761
2.75998
2.75929
2.761
2.75648
2.74796
2.73781
2.73658
2.74921
2.74542
2.75065
2.74636
2.7402
2.67583
2.68282
2.67889
2.67581
2.68265
2.6764
2.6769
2.672
2.66785
2.68238
2.68278
2.6745
2.67918
2.68255
2.67878
2.67944
2.68114
2.72863
2.7318
2.7386
2.73584
2.67551
2.67519
2.67372
2.67497
2.67725
2.6787
2.68209
2.68085
2.67839
2.66923
2.67974
2.68323
2.68738
2.68321
2.69051
2.67996
2.68059
2.68482
2.68958
2.68583
2.68582
2.68761
2.72098
2.71763
2.71496
2.71866
2.71991
2.72596
2.72177
2.72398
2.72241
2.72572
2.7206
2.72353
2.73488
2.73576
2.73643
2.74005
2.73951
2.73916
2.73849
2.73554
2.73571
2.7367
2.73731
2.73564
2.7376
2.73612
2.74441
2.73994
2.741
2.73817
2.75507
2.75057
2.73991
2.74513
2.75546
2.75353
2.75301
2.75106
2.74422
2.7404
2.74275
2.74785
2.74483
2.75344
2.75052
2.75581
2.75241
2.75239
2.74573
2.67108
2.66171
2.67516
2.66324
2.66359
2.66297
2.66303
2.66472
2.66663
2.74651
2.74733
2.74675
2.74697
2.74579
2.74433
2.75566
2.75222
2.71307
2.71827
2.66736
2.67214
2.67139
2.67241
2.68268
2.67784
2.67557
2.67548
2.71014
2.70796
2.71479
2.669
2.66286
2.66933
2.67052
2.6722
2.67448
2.67441
2.67384
2.67591
2.67578
2.67321
2.67642
2.72309
2.72642
2.72183
2.73005
2.72714
2.72355
2.72845
2.72895
2.74453
2.73943
2.67873
2.68354
2.68209
2.68791
2.68917
2.68351
2.68654
2.68765
2.672
2.6758
2.67353
2.67191
2.67561
2.71557
2.71428
2.71661
2.72045
2.71934
2.71766
2.71929
2.71588
2.7171
2.6996
2.70161
2.6921
2.69799
2.69262
2.69516
2.69361
2.69719
2.6717
2.68305
2.67412
2.68126
2.67868
2.67943
2.6815
2.67924
2.67852
2.67486
2.6811
2.67939
2.67728
2.67742
2.6741
2.6816
2.67992
2.6782
2.68089
2.68158
2.68072
2.67293
2.67217
2.67287
2.68509
2.68822
2.6882
2.69198
2.69179
2.68953
2.69096
2.69293
2.69294
2.69381
2.69458
2.68601
2.68775
2.69307
2.68624
2.69105
2.68667
2.6884
2.68848
2.69255
2.69259
2.68663
2.69222
2.6899
2.68963
2.69161
2.69116
2.70314
2.7031
2.70793
2.70419
2.7094
2.71381
2.71542
2.7114
2.70944
2.71442
2.70744
2.71
2.68325
2.68135
2.68304
2.68162
2.68132
2.68644
2.68553
2.68342
2.69273
2.69217
2.68341
2.6902
2.69148
2.69154
2.6918
2.68766
2.69971
2.69306
2.72144
2.71907
2.73968
2.7404
2.73754
2.74133
2.74676
2.74376
2.74384
2.74048
2.74028
2.73893
2.65737
2.6518
2.64906
2.70918
2.70726
2.71145
2.71196
2.70881
2.70896
2.70976
2.66708
2.67455
2.68156
2.6716
2.66134
2.66483
2.66356
2.66995
2.65871
2.66929
2.73872
2.7319
2.73999
2.74283
2.7432
2.74557
2.7408
2.74028
2.72657
2.72093
2.72005
2.7202
2.75794
2.75446
2.76041
2.76215
2.72678
2.72137
2.72442
2.72662
2.72646
2.72058
2.72208
2.72389
2.72432
2.72316
2.72459
2.72469
2.72657
2.69584
2.69476
2.69911
2.6955
2.69531
2.70215
2.69847
2.69785
2.70222
2.70392
2.70417
2.7039
2.70653
2.70785
2.70394
2.74135
2.74792
2.74812
2.74718
2.74818
2.7246
2.7279
2.72964