/*--------------------------------*- C++ -*----------------------------------*\
| =========                 |                                                 |
| \\      /  F ield         | OpenFOAM: The Open Source CFD Toolbox           |
|  \\    /   O peration     | Version:  v1612+                                |
|   \\  /    A nd           | Web:      www.OpenFOAM.com                      |
|    \\/     M anipulation  |                                                 |
\*---------------------------------------------------------------------------*/
FoamFile
{
    version     2.0;
    format      ascii;
    class       surfaceScalarField;
    location    "100";
    object      phi;
}
// * * * * * * * * * * * * * * * * * * * * * * * * * * * * * * * * * * * * * //

dimensions      [0 3 -1 0 0 0 0];

internalField   nonuniform List<scalar> 
41626
(
-2.96058e-09
-1.13378e-08
5.10992e-09
9.1884e-09
6.72572e-09
1.1163e-08
-7.36262e-09
-1.05261e-08
2.09719e-09
1.30275e-08
-5.65195e-09
-9.47265e-09
7.79421e-09
-1.99839e-09
-3.69856e-09
5.8873e-09
1.01203e-08
-2.98004e-09
9.88614e-09
3.79542e-09
1.52215e-09
-1.13423e-08
4.16818e-09
4.72273e-09
3.65575e-09
-6.85633e-09
-8.40009e-09
-1.10999e-09
-3.38267e-09
1.28928e-08
-6.71094e-09
-1.99255e-09
3.03422e-10
-3.98661e-09
4.43562e-09
-2.51922e-09
8.20408e-09
1.32117e-08
8.70211e-09
-8.59343e-09
-2.10122e-09
-3.87671e-09
9.19614e-09
9.16252e-09
-1.77375e-09
-3.73302e-09
-4.51719e-09
-2.76288e-09
3.40335e-09
-3.94809e-09
4.63052e-09
-9.91267e-09
1.59497e-09
-4.69644e-09
5.08649e-09
-1.98504e-09
3.57936e-09
-1.80984e-09
-1.74558e-10
7.35511e-09
-6.55507e-09
-7.5185e-09
6.71846e-09
-1.19081e-09
2.31343e-09
6.23249e-09
-4.78662e-10
1.01683e-09
-5.23461e-09
2.37504e-09
1.52066e-09
3.20915e-09
2.74526e-09
3.42179e-09
-8.47047e-11
-3.81572e-09
1.93555e-09
-3.23613e-10
-8.9592e-10
8.36635e-13
6.72214e-09
-5.82695e-09
5.54428e-09
-6.52476e-09
-5.5374e-09
1.64211e-09
4.88405e-09
-9.81757e-10
6.12691e-09
2.23738e-09
1.5728e-09
5.26755e-09
-1.95605e-09
3.62576e-09
-1.17387e-10
1.50932e-09
-2.19044e-09
3.30717e-09
-2.62573e-09
-7.56609e-10
6.45927e-09
-4.19335e-09
1.60233e-09
8.13135e-10
2.85213e-09
2.01404e-09
3.21405e-09
4.74964e-09
4.46658e-09
-1.07299e-08
-4.22384e-09
1.05274e-08
4.42657e-09
-6.22359e-09
-9.50274e-09
4.99649e-09
1.86465e-09
-9.14842e-09
1.0602e-09
-9.26029e-09
8.43566e-09
2.68929e-09
-6.01408e-09
2.03909e-09
-5.17342e-09
-3.61152e-09
7.12803e-09
-9.53061e-09
7.1348e-09
6.98162e-09
-3.3516e-09
-1.07646e-08
3.97854e-09
-7.78474e-09
-5.69647e-09
-6.30859e-10
3.85672e-10
3.45388e-09
4.43398e-09
-1.14994e-08
3.47338e-09
3.83534e-09
-3.8548e-09
-2.27225e-09
-3.35065e-10
-1.79723e-09
5.06863e-09
1.58901e-09
-5.7369e-09
-9.20601e-10
1.05708e-08
2.93366e-09
-3.35027e-09
3.40433e-09
1.5352e-09
1.17191e-09
4.93406e-09
-1.67199e-09
4.30087e-09
7.06453e-10
3.19805e-10
-1.13787e-09
4.7886e-09
-3.11073e-09
-6.68585e-09
5.00781e-09
-1.61621e-08
3.76305e-10
1.11627e-08
4.62316e-09
-3.34011e-09
-2.49409e-09
-1.03279e-08
-3.29017e-09
5.2061e-10
5.84687e-09
-3.07771e-09
-4.25099e-09
6.4933e-10
3.11344e-10
5.13552e-09
-1.34009e-09
-2.9042e-09
-8.91366e-10
-3.84682e-09
2.65963e-09
6.32253e-09
5.34763e-09
-1.89923e-09
3.38372e-09
3.56949e-09
-1.6057e-09
-6.02276e-09
-2.72415e-09
4.90007e-09
-6.01502e-09
-2.91201e-09
-8.78985e-09
6.44207e-09
-4.67919e-09
-7.45079e-09
-4.78003e-09
-7.65714e-09
9.94296e-09
-3.0394e-09
4.20704e-10
-1.63244e-09
6.56381e-09
-1.5644e-09
-9.12991e-09
-3.62111e-09
-4.19842e-09
-8.29628e-09
1.58651e-08
-2.95601e-09
2.26267e-09
-1.51719e-08
-1.48626e-08
1.51107e-08
1.56168e-08
-9.426e-10
-1.68761e-08
2.31499e-10
-1.23665e-08
1.18972e-08
2.37608e-10
8.00805e-09
-8.17075e-09
3.94154e-10
-1.07633e-08
-9.68894e-09
8.08567e-09
1.32989e-10
-1.18389e-08
6.33661e-10
-1.01897e-08
-1.34998e-09
-4.26476e-10
1.36736e-08
-1.18638e-09
7.84433e-09
-1.14376e-10
1.47986e-08
8.35487e-10
-8.37263e-09
-1.33094e-08
5.62836e-10
1.26321e-08
3.97385e-10
-1.14442e-08
-1.13346e-08
1.0711e-08
-1.01018e-08
-1.81125e-09
-2.70291e-09
1.68345e-09
2.83072e-09
-1.80368e-09
-2.07566e-12
-5.47911e-12
-1.52448e-09
7.53152e-10
-1.93156e-09
-5.18371e-10
-2.80985e-09
-1.85712e-09
3.30402e-09
2.36543e-10
-2.72771e-09
-1.03325e-09
1.90383e-09
2.17008e-10
-2.86038e-09
-4.09208e-10
3.05264e-09
-1.55386e-09
1.83207e-09
-6.11823e-11
-1.64676e-09
9.08246e-11
1.2977e-09
1.82891e-09
-3.64519e-09
5.63651e-10
4.23766e-09
-3.50366e-09
3.43846e-09
-2.12168e-09
2.65238e-09
-2.47025e-09
2.93314e-09
9.79586e-10
3.2494e-10
3.6439e-09
7.7158e-10
-1.01081e-08
9.18954e-09
-2.76281e-09
3.6815e-09
7.18918e-09
-8.08675e-09
-9.21032e-09
-3.68424e-09
6.13161e-09
6.74233e-09
2.70885e-09
7.96255e-10
4.72779e-11
6.62164e-09
-1.45545e-09
-5.21329e-09
7.29247e-09
4.6278e-09
-5.65951e-09
-6.26063e-09
-9.55211e-09
6.21478e-09
5.7463e-10
-7.77719e-09
-1.72755e-09
-6.32549e-10
9.07671e-09
-1.82238e-09
8.58493e-09
-1.92498e-09
-6.83266e-09
4.1006e-09
-5.96522e-09
8.69757e-09
-1.90316e-10
1.94285e-09
-5.15512e-09
-1.53121e-09
1.07872e-08
-6.39146e-09
1.04614e-09
9.45277e-10
2.09108e-09
1.02063e-09
-5.94468e-09
1.05451e-08
2.36125e-09
-9.41983e-09
4.30697e-10
6.43849e-09
2.55033e-09
5.21489e-09
-4.01915e-09
-1.06157e-08
6.65805e-09
-5.47536e-09
2.03168e-09
-3.21462e-09
4.46872e-09
2.61997e-09
-7.87315e-09
5.24651e-09
9.06497e-09
3.77601e-09
-6.43434e-09
-2.29376e-10
-9.26519e-09
-4.132e-09
3.39651e-09
5.20412e-09
-1.72656e-09
-3.73894e-10
-1.68228e-09
6.33287e-09
-1.25416e-09
-1.02962e-09
-4.89554e-09
9.70105e-09
-2.74734e-09
-4.15003e-09
5.215e-09
-7.65861e-09
4.90736e-09
3.75821e-12
1.33329e-09
-6.51475e-09
-2.47734e-09
-2.56899e-09
-2.47767e-10
3.86342e-09
2.42054e-09
-6.51344e-09
-4.32214e-10
-5.12386e-09
-4.29852e-09
-3.52264e-09
-5.8017e-10
7.77332e-09
-6.35195e-09
-5.72e-09
-3.33281e-09
-3.30988e-09
4.82687e-10
5.81731e-09
-3.67887e-09
-1.06822e-09
4.03282e-09
7.14044e-10
2.33882e-09
-5.72561e-09
-2.92361e-10
-1.01369e-09
2.93309e-09
-3.86547e-09
2.23315e-09
-1.58786e-09
5.34527e-09
-5.48897e-09
1.7318e-09
-5.50701e-10
3.14538e-09
-4.18181e-09
6.32778e-09
-2.7983e-09
2.61775e-09
-6.1471e-09
5.82546e-10
5.64805e-09
9.73225e-11
6.3708e-09
-6.55378e-09
5.81859e-09
-5.63536e-09
6.75933e-09
1.94129e-10
1.94576e-09
-7.38083e-09
4.8847e-09
-5.35737e-10
-8.81612e-09
-2.20284e-09
2.55054e-10
-4.61688e-09
6.56476e-09
6.8626e-09
-9.60103e-09
6.0662e-09
-3.19339e-09
5.64287e-09
6.07142e-09
-8.34857e-09
6.49842e-09
8.60962e-09
-2.18192e-09
-3.47895e-10
8.00338e-09
4.40893e-10
-2.70019e-09
-1.95143e-09
1.12849e-08
-2.35117e-08
1.41781e-08
-1.58607e-08
5.34848e-09
8.56073e-09
1.41958e-08
1.43821e-08
-8.13854e-09
-2.04395e-08
-8.37398e-09
9.37806e-09
1.31917e-08
4.74635e-09
1.26175e-09
9.05928e-09
-1.82415e-08
2.0467e-08
-1.16429e-08
6.25245e-09
-1.04703e-08
1.9451e-09
-8.22528e-10
-2.46344e-08
9.90495e-09
-2.67029e-08
8.65933e-09
1.63049e-08
1.60944e-08
-2.24945e-08
1.0263e-08
3.89857e-09
-9.41525e-09
-5.40914e-09
-7.19684e-09
2.16652e-08
1.02023e-08
-2.48066e-08
1.77553e-08
-3.20112e-09
1.02524e-08
-1.52326e-08
6.73083e-09
1.4589e-09
8.40946e-09
4.48376e-09
1.05907e-08
3.12278e-09
-1.44393e-08
-3.26511e-10
-3.82328e-09
-1.53094e-09
-7.50785e-09
1.28619e-08
-3.00841e-09
-8.39257e-09
7.57769e-09
1.32427e-08
3.05951e-09
-8.51887e-09
-7.78344e-09
7.88275e-09
1.35261e-09
4.0072e-09
1.30674e-08
-4.4328e-09
-5.57518e-09
1.14998e-08
9.45032e-09
1.02936e-09
7.46188e-09
-7.17949e-09
6.6779e-09
1.40519e-08
-1.73098e-08
-5.13472e-09
-1.08754e-08
1.74195e-08
-2.43073e-08
-7.96307e-09
2.13949e-08
2.41578e-09
-5.54928e-09
-2.11739e-08
1.42063e-08
-9.03162e-09
-1.36935e-08
1.04157e-08
5.14327e-09
-8.29823e-09
-1.2099e-08
1.59644e-08
-2.66885e-08
3.86467e-09
1.48606e-08
-4.29482e-09
-1.99779e-08
-9.21327e-09
1.24494e-08
-7.17929e-09
-1.12313e-08
1.28613e-08
1.61801e-08
-5.80225e-09
-1.46726e-08
1.08315e-08
3.35627e-11
-1.48675e-08
1.40056e-08
4.65995e-09
-1.21367e-10
-1.85443e-08
-9.02226e-09
1.13744e-08
1.16534e-08
-6.52744e-10
-9.61779e-09
1.2482e-09
-1.22676e-08
1.3872e-08
3.05551e-09
9.3797e-09
-8.06439e-10
-7.22662e-09
-1.34664e-09
7.5855e-09
1.1413e-09
-1.27575e-08
-4.59023e-09
2.36163e-09
1.49862e-08
1.72692e-09
-1.61516e-09
-1.28694e-08
-1.05105e-08
-3.03015e-11
3.69678e-10
-1.31955e-08
2.31526e-09
4.65031e-09
-6.19394e-10
9.84112e-09
3.97513e-10
1.5627e-08
-7.73529e-09
-2.66423e-09
1.07969e-08
-1.62703e-09
1.47719e-09
1.32932e-08
3.97702e-10
-1.53059e-08
1.25849e-08
-3.882e-09
2.789e-09
-1.52886e-08
-1.12461e-08
-2.51031e-09
1.61181e-08
2.0402e-10
8.92346e-09
-1.06002e-08
1.47274e-09
-4.5314e-09
1.4223e-08
-1.23558e-08
-1.01251e-08
6.83796e-09
1.66015e-09
9.83535e-09
1.14544e-08
-9.47178e-09
-9.91682e-09
1.65918e-09
5.256e-09
-9.07084e-09
2.15556e-09
5.99047e-09
-6.38858e-09
2.05727e-09
-9.52102e-10
-3.03078e-09
9.23885e-09
-4.28195e-09
9.32032e-09
-7.97073e-09
-1.13481e-08
1.62881e-08
-1.88621e-08
-5.48227e-09
1.63736e-08
5.39429e-09
-7.84667e-09
-8.89574e-09
-5.43764e-09
-8.03017e-09
-1.0332e-08
9.15325e-09
-5.20983e-09
7.57746e-09
5.79566e-09
-1.89741e-08
5.60095e-09
-4.15272e-09
1.39826e-09
-1.27134e-08
-9.88425e-10
8.21958e-09
-8.43304e-09
-9.71804e-09
-3.86828e-09
8.73959e-09
-1.11219e-08
7.42371e-09
-1.22804e-08
-1.08827e-08
-3.49428e-09
3.14683e-09
1.12304e-08
-1.09215e-08
1.45681e-09
-1.41776e-09
-1.09634e-08
-1.813e-09
9.28227e-09
-2.72664e-09
-7.56673e-09
-6.69983e-10
-9.63344e-09
-1.70502e-09
1.44854e-08
-3.77329e-09
-9.87481e-09
8.72807e-09
-8.98082e-09
-7.31387e-09
1.17942e-09
5.73568e-09
1.63571e-08
-1.42551e-08
-6.45072e-10
-3.61438e-09
1.03381e-08
-7.65063e-09
-3.99032e-09
9.93594e-09
-6.86082e-09
-1.45452e-09
-6.65339e-10
3.56468e-09
-1.29781e-08
2.55269e-09
-1.65948e-08
5.32981e-09
8.0106e-09
7.65684e-09
-1.21028e-08
8.6058e-09
-2.04979e-09
-1.0983e-08
8.17211e-09
2.26738e-09
-9.43983e-09
-7.08249e-09
-6.50291e-09
-7.8244e-09
5.18565e-09
-4.03174e-09
2.80853e-09
-8.73399e-10
1.0158e-08
-7.95152e-09
-1.33306e-09
8.68999e-09
-8.97643e-09
-5.86922e-10
-4.4844e-09
7.01233e-09
7.63005e-09
1.31358e-09
2.89203e-09
-2.24735e-09
-1.04561e-08
4.75185e-09
9.82325e-10
-1.22061e-08
8.99975e-09
-1.70883e-09
-8.63086e-09
1.33992e-09
5.15426e-09
5.15904e-09
1.33168e-08
-1.82562e-09
-9.38921e-09
-2.10197e-09
4.97169e-09
-1.41495e-09
9.75984e-09
-8.58373e-09
6.76455e-09
1.10286e-10
-2.6816e-09
-7.72776e-09
-1.03301e-08
4.11577e-09
7.62044e-09
-6.62723e-10
9.93274e-09
-3.28429e-09
9.63391e-09
9.68931e-09
-1.43886e-08
-5.8468e-09
-1.39104e-08
-7.09219e-10
-1.20695e-08
4.57751e-09
-5.50114e-09
-3.12114e-09
-1.47951e-08
-6.56899e-09
-4.85284e-09
-7.12395e-09
-9.6704e-09
2.39908e-09
-1.26442e-08
-7.13635e-09
-1.66819e-08
7.50415e-09
-1.15783e-08
6.84096e-09
-2.31204e-08
-6.79699e-10
9.94001e-09
1.386e-08
1.29758e-09
-5.55712e-09
1.78474e-08
-2.55475e-09
-1.39951e-08
1.61808e-09
4.62003e-10
1.57673e-08
1.69596e-08
-2.31331e-09
9.66777e-09
6.61214e-09
-1.01327e-08
1.04291e-08
1.32158e-09
-2.34122e-09
-1.03462e-08
1.03165e-08
-1.49711e-08
1.29397e-08
1.22557e-08
-1.48789e-08
8.15748e-09
4.9052e-09
-1.23058e-10
-1.09222e-08
1.12098e-08
7.86987e-09
1.92545e-09
-5.91978e-10
3.13932e-09
-1.15474e-08
1.16002e-08
-3.19217e-09
-1.32154e-09
1.56707e-08
1.14948e-08
3.0782e-09
-2.90549e-09
1.30787e-08
-1.7152e-08
-6.21329e-10
1.48679e-08
8.07207e-10
-1.32039e-09
9.81018e-10
7.19097e-09
-6.85162e-09
-1.47409e-10
6.93956e-09
-8.11257e-09
-1.38098e-09
7.15587e-10
8.27447e-09
-7.60912e-09
8.59585e-09
-1.01243e-08
6.93566e-09
-5.23906e-09
7.02191e-09
3.38844e-09
-3.21941e-09
2.48878e-09
5.28863e-09
-8.37851e-10
4.79946e-09
9.07092e-09
-5.27456e-09
-5.51085e-09
5.71391e-09
-3.39588e-09
3.19284e-09
8.64074e-09
-7.21592e-09
1.78385e-09
1.25708e-08
1.694e-09
-3.30089e-09
-7.29523e-09
8.90206e-09
-6.52722e-09
1.00051e-08
-3.62329e-09
4.11793e-09
7.45187e-09
-1.63647e-10
6.63211e-10
4.21535e-09
3.79582e-09
5.93828e-09
4.104e-09
-3.6091e-09
3.00801e-09
-1.76042e-09
-6.84644e-09
5.59876e-09
-8.4944e-10
1.09298e-08
-7.07233e-09
1.85762e-09
-8.11836e-09
4.5002e-09
-1.14101e-08
4.45507e-09
8.8126e-09
-3.22672e-10
-6.11129e-09
-1.68454e-09
-7.88918e-09
-3.84358e-09
-3.96383e-09
7.25502e-10
-3.60817e-09
-8.35852e-09
1.19641e-08
-6.65068e-09
-3.4245e-09
9.33151e-10
6.06229e-10
-8.19005e-09
1.83873e-09
-8.79478e-09
3.40465e-09
-7.35461e-09
-5.0081e-09
8.95809e-09
-4.47722e-09
-7.48815e-10
8.63065e-09
1.10018e-09
-4.97121e-09
-1.01782e-10
-6.15263e-09
-6.62157e-09
-6.01363e-09
3.51839e-09
1.86741e-08
-1.6179e-08
-8.19276e-09
-3.22076e-09
5.39973e-09
-1.24662e-08
-4.42295e-09
8.6963e-09
-5.10782e-09
2.30933e-09
1.41692e-08
-1.13708e-08
-2.59494e-09
5.93939e-09
-8.45239e-09
-1.12183e-08
5.4025e-09
3.3854e-09
-6.82058e-10
-1.51696e-08
3.32769e-09
-1.03505e-08
1.04081e-08
-1.15379e-08
1.73655e-08
2.1451e-09
-1.40455e-08
3.02478e-09
-1.41197e-08
1.324e-08
-1.11933e-10
-8.84649e-09
1.19831e-08
-8.3221e-09
7.52128e-09
-4.68025e-09
-3.90012e-10
-2.45088e-09
1.12384e-10
1.00627e-09
6.40263e-09
5.37825e-09
3.67593e-09
-9.6372e-10
-8.09037e-09
8.50021e-10
-1.51941e-10
-6.06223e-09
1.28351e-09
4.89109e-09
-3.59157e-09
-2.86063e-09
6.03322e-10
-3.26011e-09
-9.34663e-10
3.56604e-09
-2.82171e-09
-1.40986e-10
-2.74185e-09
1.11038e-09
2.91501e-09
8.71169e-10
-4.68717e-11
-3.59974e-09
3.58382e-09
-4.92637e-09
4.94234e-09
-2.6905e-09
-3.80046e-11
6.42308e-09
7.30039e-10
-3.47714e-09
5.82444e-09
1.44871e-09
-2.19108e-09
2.51917e-09
-3.14977e-09
-6.41492e-09
-5.37905e-10
5.23212e-09
-2.56783e-09
-1.62845e-09
-2.73914e-09
6.29282e-09
-4.88845e-09
4.29188e-09
-4.39821e-09
4.99469e-09
2.07782e-09
-7.66418e-10
-6.19993e-09
-7.22949e-10
-2.87729e-09
5.67807e-09
4.94345e-09
-5.15847e-09
8.16318e-10
-6.01377e-10
-5.87886e-09
8.77571e-09
2.04657e-09
-3.54554e-09
-7.48855e-10
1.91723e-10
4.10252e-09
2.449e-09
-3.47273e-09
-2.52183e-09
-5.82187e-10
3.30256e-09
-2.71427e-10
-2.31783e-09
-1.87792e-09
2.0018e-09
-5.0861e-09
-6.97848e-10
-1.98592e-09
-3.19514e-09
-2.50025e-09
-3.35614e-09
8.86059e-10
4.55474e-10
-9.50827e-10
5.97216e-11
5.25671e-09
-4.36565e-09
-9.42979e-10
2.61839e-09
-2.62631e-09
6.09291e-09
-1.22033e-09
-5.62153e-09
3.16751e-09
-3.66598e-09
2.86987e-09
-2.84648e-10
-3.71244e-09
3.65554e-09
-2.61808e-11
-6.11211e-10
6.76378e-09
-8.10184e-09
7.9461e-09
-5.79589e-09
-8.23564e-09
1.51326e-08
-1.25673e-08
5.67071e-09
-7.85661e-09
-1.20056e-08
4.02088e-09
1.58418e-08
3.61831e-09
8.18765e-09
-1.96621e-08
8.20838e-09
-1.28256e-08
4.2684e-09
1.34395e-08
-2.57515e-09
1.63704e-08
1.2514e-09
-1.33533e-08
5.02188e-09
1.28465e-08
-9.68065e-09
1.35395e-08
-3.09245e-10
1.30449e-08
-1.58267e-08
1.56284e-08
2.1245e-08
-4.5987e-09
-3.60131e-09
1.39491e-08
-3.35611e-09
2.84673e-09
-7.96524e-09
-1.25979e-09
2.31742e-08
1.66337e-08
-8.22851e-09
4.65102e-10
1.25377e-08
8.24233e-09
1.14135e-08
-1.23002e-09
-1.48964e-08
-8.63601e-09
1.03553e-10
-3.58627e-09
1.34737e-08
3.22625e-09
-6.61527e-11
2.01412e-08
1.08325e-08
-1.85958e-08
1.16897e-08
-2.85388e-09
-6.311e-09
-2.52472e-09
-4.88882e-09
1.023e-08
6.34868e-09
-4.15744e-10
-6.6991e-09
-7.44415e-09
1.0947e-08
1.38201e-09
1.06355e-08
-9.90741e-09
1.03954e-08
-8.03919e-09
-5.21e-09
-2.04965e-09
4.66795e-09
4.60738e-09
3.97853e-09
1.03411e-08
7.35208e-09
-8.00051e-09
-5.66243e-09
1.85387e-09
6.095e-10
8.42439e-10
-1.34499e-08
-9.74467e-09
1.1049e-08
7.18883e-10
2.29561e-09
-9.49229e-09
-6.05276e-09
1.11167e-08
-5.8608e-09
-1.4557e-08
9.30117e-09
-9.38317e-09
1.0871e-08
9.62904e-09
1.42358e-09
-9.85543e-09
-9.51274e-10
-3.83266e-09
1.32733e-08
1.43039e-09
5.26574e-09
1.33804e-09
-5.18015e-09
1.92385e-09
-4.90732e-10
-1.28864e-09
-3.89558e-09
1.56138e-09
3.62315e-09
-8.29245e-09
-6.63437e-10
7.66732e-09
1.13189e-09
-5.59114e-09
5.79746e-09
7.03425e-10
-8.09897e-09
-8.96876e-10
7.1997e-09
-5.36433e-09
6.67833e-09
-3.37401e-09
-1.30634e-08
-3.11637e-09
7.07279e-09
9.107e-09
-1.10803e-08
-1.45755e-09
-5.25589e-10
-1.13932e-08
3.35489e-09
4.92195e-09
-1.19724e-08
-1.05011e-08
3.58322e-09
1.04309e-08
4.19505e-09
-1.82091e-08
1.20874e-08
7.46441e-09
-1.59686e-08
-6.44202e-09
1.99547e-09
1.15194e-08
-1.04124e-08
7.05707e-09
6.71034e-09
-2.9861e-10
1.25717e-08
-1.85558e-10
-2.80082e-10
5.25428e-09
-1.30316e-08
3.02228e-09
1.51415e-08
-1.06993e-08
1.49203e-08
-6.64374e-09
1.46559e-08
-1.19311e-09
-3.27964e-09
1.14935e-08
-5.36983e-09
1.44224e-08
3.82737e-09
8.03451e-09
1.10292e-08
-1.2619e-09
-1.55475e-09
7.4463e-09
-4.62963e-09
6.05512e-09
-8.47668e-09
2.5318e-09
6.70018e-09
4.47282e-09
-1.03126e-08
-8.60408e-10
-2.28958e-09
3.4038e-09
-5.72625e-09
4.67557e-10
1.85486e-09
-8.00375e-09
1.11036e-08
-1.75999e-09
4.68732e-09
-9.28728e-09
-5.52416e-09
-4.6502e-09
4.4481e-09
-7.00155e-09
1.14422e-09
1.78559e-08
-1.86415e-09
-2.80011e-09
2.47874e-08
3.6591e-09
-9.46804e-09
-2.33422e-08
1.23706e-08
-1.91576e-08
1.27597e-08
1.08816e-08
-1.39835e-08
-1.90294e-08
1.38553e-08
-3.19953e-08
1.65688e-08
5.95844e-09
-9.6892e-09
9.37839e-09
-1.36728e-08
-1.05582e-08
7.9875e-09
-2.11198e-09
4.68273e-09
-1.87061e-09
1.48215e-09
-1.01697e-08
1.10897e-09
6.31005e-09
5.68575e-10
6.26653e-09
-7.74661e-09
2.58908e-09
9.08765e-09
8.71624e-10
-1.18299e-08
6.18797e-09
7.87743e-10
3.85141e-09
-8.64658e-09
-1.67978e-09
6.47504e-09
3.06085e-10
-7.83713e-09
1.13825e-08
-3.12196e-09
9.73816e-09
-3.53372e-09
6.67835e-09
-9.86544e-10
-5.27789e-09
-4.96103e-10
-1.15301e-09
-6.59699e-09
-2.54562e-09
2.57877e-09
7.39518e-09
-9.10231e-09
-8.47279e-09
3.2593e-09
7.62143e-09
-6.02919e-09
2.80794e-09
-2.00971e-09
1.95659e-09
5.4778e-09
8.1986e-09
-8.09819e-09
-5.57808e-09
1.3613e-08
-2.33133e-09
-5.80378e-09
-2.31402e-09
1.28334e-08
3.09372e-09
-1.04877e-08
7.77167e-09
4.02061e-10
-1.90158e-09
-3.87444e-10
-1.69094e-10
-7.03368e-09
-8.95359e-10
-1.78751e-09
7.96795e-10
1.38242e-08
-1.43157e-09
7.41573e-09
1.4594e-08
1.2162e-09
-7.13294e-09
-8.67718e-09
-1.55223e-08
5.15796e-10
1.44646e-08
5.41896e-10
1.49551e-08
4.35685e-10
-2.70108e-09
-1.15543e-08
-1.26704e-09
-1.55332e-08
-3.62511e-09
1.64573e-08
-9.48888e-09
3.42409e-10
-6.38669e-09
-8.34112e-09
8.48617e-09
7.75614e-10
-1.48663e-09
-6.46932e-09
5.88842e-09
-1.32058e-09
-5.86277e-09
-9.82616e-09
8.91044e-09
7.53827e-10
-3.82186e-09
-3.18393e-09
-6.13072e-09
-7.17303e-09
4.12644e-09
9.17728e-09
3.84408e-09
-8.90923e-09
-1.06554e-09
7.84135e-09
-3.511e-09
-4.86334e-10
-3.14435e-10
6.10927e-09
2.04648e-09
-1.55765e-08
5.78906e-09
1.00858e-08
-2.98389e-10
5.00785e-09
-1.32893e-08
-7.29507e-09
-7.23321e-09
-1.06696e-09
1.12713e-09
-7.45721e-09
-8.68525e-09
-2.44025e-09
-4.93227e-09
7.19417e-09
1.78299e-10
7.87899e-09
-1.06337e-08
-1.26676e-08
1.35243e-08
-1.26111e-09
-6.39865e-09
-4.55981e-09
-4.77996e-09
8.07856e-09
-4.51002e-09
-9.08812e-09
9.03831e-09
-1.35684e-08
1.60113e-09
-1.2138e-08
6.58341e-09
6.59326e-10
4.89529e-09
-2.24959e-09
-1.99735e-09
-7.89108e-09
-1.40254e-09
-8.08661e-09
7.08735e-10
8.78046e-09
-4.92383e-09
4.60708e-09
2.47725e-09
-2.16049e-09
-6.29226e-10
-5.69711e-09
-7.36834e-09
-2.96785e-09
1.82075e-09
-9.85194e-09
-3.48978e-09
1.1521e-08
-5.04018e-09
-7.31803e-10
7.59274e-09
5.45772e-09
6.14339e-09
-8.06184e-09
-3.53926e-09
2.43286e-09
-9.93375e-09
-2.35107e-09
-3.47612e-09
8.68814e-10
-6.83466e-09
1.69787e-09
-2.23157e-09
7.12341e-09
-2.96417e-09
-1.146e-08
7.30062e-09
-8.33147e-09
9.87966e-09
2.21611e-08
-7.75354e-09
-3.44931e-09
-1.09584e-08
1.08987e-08
2.49496e-09
-1.27945e-08
-1.16054e-09
-6.42437e-09
5.87839e-10
-1.92448e-08
-7.23284e-09
-1.97654e-08
-8.22225e-09
-8.0216e-09
2.96162e-09
-1.79133e-08
8.43109e-11
-1.30213e-08
2.2894e-09
7.09992e-09
-3.67454e-09
-1.16477e-08
2.33012e-09
-1.65462e-09
9.4377e-09
-6.21383e-09
-2.11372e-08
2.82543e-09
-6.40911e-09
-1.71212e-08
-2.62792e-09
-2.50293e-10
1.07989e-08
-2.18551e-09
-8.36308e-09
1.12755e-08
-2.2545e-09
-9.27121e-09
-6.71881e-09
3.09262e-09
-8.05784e-10
4.43205e-09
1.70235e-09
-7.17115e-09
-1.25001e-09
7.87148e-09
2.78473e-09
6.19387e-10
6.81648e-09
1.18539e-08
6.15544e-09
-4.46303e-10
-7.9636e-09
-7.8962e-09
8.56497e-09
2.11606e-09
5.3518e-09
-7.09243e-09
-5.20306e-09
1.4384e-09
6.8573e-09
-4.36351e-09
8.62821e-10
3.1914e-09
2.81934e-09
2.00073e-09
5.32137e-09
-7.76838e-09
-7.35592e-09
-5.11089e-09
3.90138e-09
9.77451e-09
-4.07273e-10
6.48202e-10
8.5312e-09
5.50571e-10
4.21099e-09
2.49707e-09
-3.69333e-09
-3.01501e-09
-1.89268e-09
6.03937e-09
6.42084e-11
8.16269e-09
-2.01797e-09
-3.64779e-09
3.19758e-09
6.85303e-10
4.27961e-09
-3.75031e-09
-4.71061e-09
1.00634e-08
-1.60286e-09
-5.77918e-09
6.08967e-09
-4.06103e-09
6.28959e-09
-1.92069e-09
6.39983e-10
-5.00909e-09
4.4326e-09
-3.58619e-11
3.64741e-09
5.58949e-09
-9.66661e-10
-4.64747e-09
-7.50248e-09
4.01623e-09
4.17121e-09
-3.67368e-09
-2.46671e-09
1.9411e-09
-4.18531e-09
-1.92346e-09
-1.64648e-09
4.94322e-09
6.76658e-09
8.58104e-09
-6.00005e-09
3.09542e-09
3.83901e-09
-6.45396e-09
3.16057e-09
8.2363e-09
4.71435e-10
-8.36026e-10
3.87657e-09
3.65143e-09
-4.53381e-09
-6.86583e-10
8.38077e-09
-4.60277e-11
6.83738e-09
1.5608e-08
3.08723e-09
-6.11037e-09
8.72616e-09
1.67173e-08
-1.24352e-08
2.23175e-08
-6.79491e-09
-3.60651e-09
2.13211e-08
-8.98833e-09
-1.76393e-09
1.30044e-08
-1.12707e-08
1.23984e-08
-1.37645e-08
-9.76441e-09
1.5999e-08
1.82759e-08
-2.21603e-09
2.71778e-08
-2.72144e-08
1.12275e-08
-2.71598e-09
-8.95139e-10
5.60289e-09
-6.14918e-09
1.44121e-09
3.27584e-09
-4.44014e-09
2.69055e-10
-3.70131e-10
-2.29692e-09
8.26979e-09
-1.83905e-09
4.74463e-09
-5.67157e-09
-6.41028e-10
1.63348e-10
3.25958e-09
-4.62736e-09
-4.30388e-09
-9.86739e-10
-1.94015e-10
1.49079e-09
3.83366e-09
1.68806e-09
-7.01266e-09
1.59582e-09
-4.73245e-09
-8.62392e-09
7.64997e-09
-1.32307e-09
4.63337e-09
4.91565e-09
-5.71556e-09
3.79437e-09
-1.47813e-10
-7.60218e-09
-1.66281e-09
1.69646e-09
-6.48105e-09
6.47261e-09
-4.30996e-09
-6.32615e-09
6.72927e-09
-2.24241e-09
-7.22728e-09
4.69542e-09
-2.71341e-09
4.01726e-10
-4.16812e-09
-1.53845e-09
-7.48015e-09
1.31866e-08
-8.18753e-09
-9.98756e-09
1.40069e-08
3.07951e-09
-1.29267e-08
9.72578e-09
-1.15311e-08
1.23945e-08
-1.01309e-08
1.63198e-08
1.38878e-09
7.34319e-09
-1.00122e-08
-6.50634e-09
-7.95888e-09
-8.56291e-09
-1.40753e-08
1.11072e-08
-6.97173e-09
6.86177e-10
1.55828e-09
1.523e-09
-1.47051e-08
9.59539e-09
-1.50273e-09
8.1954e-09
-7.9081e-09
-7.71189e-09
1.30391e-09
1.43161e-08
1.70777e-08
-1.46784e-08
-9.24679e-09
6.84746e-09
-1.15205e-08
2.27339e-08
5.86433e-09
-1.02544e-08
-6.54949e-09
-1.73924e-08
-4.99794e-09
1.46974e-08
-1.81922e-08
-5.75207e-09
5.33239e-09
3.2569e-09
-2.46331e-08
-3.23278e-08
2.52969e-09
-1.27354e-09
6.47755e-10
-1.90388e-09
-1.92418e-10
2.69926e-09
2.28628e-11
2.55e-09
-1.62087e-09
-2.20266e-09
-1.15329e-10
2.86012e-09
-1.94773e-10
2.89667e-09
-4.67231e-10
-4.05031e-09
3.24306e-09
-4.61735e-10
3.03501e-09
-3.45558e-09
-1.28129e-09
1.70192e-09
-5.19375e-09
3.10512e-09
5.12372e-09
5.14021e-09
-3.37213e-09
-5.22363e-09
4.26617e-10
-4.80083e-10
-2.96601e-09
-8.08208e-10
4.42198e-09
2.64273e-09
2.49975e-11
-3.54545e-11
2.69187e-09
5.86654e-10
1.0257e-09
2.1876e-09
-4.49453e-09
1.71055e-09
2.19805e-09
-2.88288e-09
3.78943e-09
-5.351e-09
1.09433e-09
2.64011e-09
1.11389e-09
2.49152e-09
2.84308e-09
-2.88898e-09
-2.30378e-10
6.22455e-09
1.7778e-10
3.97168e-09
1.26532e-08
1.40112e-09
-5.71036e-09
-8.34396e-09
6.47862e-09
-1.08093e-09
7.25572e-09
-1.03576e-08
4.76122e-09
1.2075e-08
-3.69904e-09
-5.25749e-09
1.59507e-09
5.88299e-09
-2.13296e-09
8.9479e-09
-1.28714e-09
-6.06582e-09
-5.29368e-10
4.82913e-09
1.58297e-09
7.16124e-09
1.25727e-09
5.45514e-09
-2.98023e-09
2.35427e-09
-9.5396e-10
-5.70922e-09
1.21183e-08
-7.0466e-09
2.98544e-09
-3.4987e-09
-9.25819e-09
-5.42398e-09
9.23122e-09
-1.47535e-09
2.69003e-09
-2.5017e-09
-2.92741e-11
-5.60227e-09
3.97623e-09
-5.48074e-09
3.36449e-09
4.30955e-09
-3.69775e-09
5.89922e-09
1.5525e-10
4.41479e-09
-3.80418e-09
-1.55878e-09
5.49594e-10
-4.00552e-09
5.45751e-09
3.34917e-10
9.83301e-09
-4.012e-09
3.64616e-10
-6.18563e-09
6.56137e-09
2.73808e-09
-1.49084e-10
-9.15036e-09
1.01054e-08
6.28896e-09
1.13408e-08
-1.07322e-09
1.14697e-09
-3.01741e-09
1.2335e-08
-9.08004e-10
-2.26031e-08
-8.50027e-09
1.78141e-08
-1.32167e-08
3.06547e-08
-1.97264e-08
2.28838e-09
-9.69414e-09
1.4402e-08
-1.07429e-08
-5.57741e-11
1.35368e-08
-2.50764e-08
2.93526e-09
1.55869e-09
-9.28976e-09
8.38601e-09
9.43602e-10
-9.7347e-10
-5.59388e-09
3.15026e-09
3.41709e-09
-4.92067e-09
2.41137e-09
1.53583e-09
-1.70709e-09
-4.64602e-09
1.43244e-09
-2.33976e-09
9.30728e-10
-2.98013e-10
-2.21832e-09
1.12746e-09
-3.55517e-09
-1.37288e-09
-3.1852e-09
2.04049e-09
-3.59652e-09
3.96742e-09
-1.93832e-09
-2.5281e-09
1.42315e-09
-3.629e-09
2.67556e-10
-7.16642e-09
4.48474e-09
4.10484e-09
-1.86138e-09
-8.93404e-09
5.61329e-10
-3.66695e-09
6.25591e-09
-3.49177e-09
6.09359e-09
2.369e-10
3.29281e-09
-5.39109e-09
2.21105e-09
-3.34702e-09
-2.4021e-09
-2.63693e-10
-2.31404e-10
1.04921e-09
-4.08171e-09
3.58536e-10
-1.6989e-10
-6.19003e-10
-3.60939e-10
1.01013e-08
1.34177e-08
-1.2151e-08
-1.13683e-08
-4.97207e-09
1.79888e-08
-2.91544e-09
-2.67828e-09
-3.54968e-09
1.96457e-08
-3.74662e-09
-1.41111e-08
1.51793e-08
1.57927e-09
1.59835e-08
-1.40054e-10
-1.74227e-08
1.86215e-08
7.66892e-10
-1.78092e-08
-2.44023e-09
-1.618e-08
1.50703e-08
9.61249e-09
-1.57995e-08
-6.18586e-09
-2.13953e-08
1.34701e-08
-2.43925e-08
6.05567e-09
6.91484e-09
1.20107e-08
-2.94211e-09
1.89532e-08
6.58309e-09
1.58989e-08
-1.39331e-08
-1.199e-09
4.97518e-10
1.44744e-10
-1.57377e-08
5.51278e-11
-9.82841e-09
7.48619e-09
-1.33956e-08
-6.87605e-09
-1.71447e-08
1.41922e-08
1.05727e-08
-1.60121e-08
-1.04062e-08
-4.16434e-10
-4.14502e-09
9.63769e-09
1.5869e-08
-2.03637e-08
-2.55547e-09
7.05025e-09
3.07429e-09
-1.34382e-08
2.62328e-08
1.33989e-08
-8.75663e-09
-9.82836e-09
5.18617e-09
-9.02294e-09
2.5496e-08
5.15595e-09
2.56542e-08
-1.72762e-08
-1.3534e-08
-8.88079e-09
-6.327e-09
-9.33217e-09
1.15665e-08
-1.95557e-09
-2.78997e-10
5.48019e-09
1.19049e-08
-2.67174e-08
-7.01032e-09
8.91657e-09
-1.09294e-08
-1.61238e-09
-1.41546e-08
1.80299e-08
-2.7599e-08
1.50491e-08
-7.51741e-09
1.97334e-08
-1.53639e-08
1.19005e-08
-1.72718e-08
-1.26782e-08
1.60176e-08
-9.45254e-09
1.14648e-08
2.50201e-10
5.97107e-09
9.79618e-09
4.6333e-09
6.47968e-09
-2.76817e-09
-4.56582e-09
8.54188e-10
-1.20467e-11
1.9703e-09
4.52135e-09
8.58425e-09
-3.55855e-09
-4.30024e-09
5.58416e-09
2.98798e-09
6.17508e-09
-1.8737e-09
-5.98616e-09
2.26559e-09
-5.41052e-10
-4.49293e-09
7.37847e-09
1.06212e-09
-4.99553e-09
-3.12885e-09
9.03339e-09
2.14949e-09
9.41895e-09
2.45969e-09
7.83626e-09
-3.84383e-09
1.99514e-08
-2.39439e-08
-2.97776e-09
2.06761e-08
-9.35765e-09
-9.89438e-09
1.37256e-08
5.5265e-09
-3.55041e-09
-8.785e-09
9.3453e-09
-1.67396e-08
3.0617e-09
4.98056e-09
1.19091e-08
1.85339e-08
5.20389e-09
1.70371e-08
-1.34549e-08
5.76304e-09
1.68191e-08
5.19856e-09
3.30002e-09
-1.7318e-08
-8.90884e-09
2.29269e-08
-1.84215e-08
-8.23788e-09
2.99594e-08
1.57533e-09
-1.02239e-08
2.23841e-08
-1.37355e-08
-7.37695e-09
4.04515e-09
-1.39863e-08
9.17407e-09
-1.67166e-08
1.26958e-08
-5.15332e-09
-7.18199e-09
1.79314e-08
1.67628e-08
8.68705e-10
1.47139e-08
1.8337e-08
7.22276e-09
-6.69075e-09
1.5998e-08
-1.33309e-10
2.47227e-09
-3.84826e-09
-8.82319e-09
8.59641e-09
-5.22199e-09
1.46751e-08
9.91931e-09
-4.0578e-09
8.54785e-09
1.40257e-08
1.19935e-08
1.89891e-09
-2.50465e-09
9.99774e-09
5.43099e-09
1.42762e-09
2.54965e-08
-1.27384e-08
-1.41859e-08
2.3619e-08
-1.08241e-08
-1.13675e-08
1.89394e-08
3.01761e-08
-1.33429e-09
5.09926e-09
1.07007e-08
-1.4466e-08
7.29386e-09
1.03112e-08
-7.86248e-09
2.02556e-08
-2.17577e-08
1.3643e-08
-1.35634e-09
9.47107e-09
1.06605e-08
-1.62623e-08
-1.61559e-08
8.99875e-09
1.08049e-08
-2.90366e-08
9.23274e-09
1.0649e-08
-1.24744e-08
-2.43127e-08
3.00932e-08
-3.00332e-09
-1.1814e-08
4.4334e-09
6.02418e-09
-1.72714e-08
1.09539e-08
-3.01976e-09
-8.60402e-09
5.80818e-09
3.44536e-09
1.70044e-09
5.61579e-10
-9.43474e-11
-9.77035e-09
9.30301e-09
-1.10941e-09
-1.29261e-08
1.10157e-08
9.55041e-09
5.5401e-09
-6.90612e-09
2.86828e-09
1.29261e-08
-8.88832e-09
-3.70522e-10
3.01491e-09
-2.15317e-08
1.33286e-08
5.86964e-09
2.33341e-09
3.07119e-09
-1.88893e-08
1.5426e-09
1.42756e-08
3.6914e-09
-1.42971e-08
1.40509e-08
-1.12032e-08
-7.46005e-09
9.46534e-09
-1.4348e-08
-8.89972e-09
-1.74189e-09
-8.52211e-10
5.87457e-09
4.58729e-09
6.38036e-09
-1.68423e-08
2.01842e-09
1.53037e-08
-3.68167e-09
-1.36406e-08
-2.29459e-09
-4.97831e-09
9.29132e-09
1.17988e-08
1.28137e-08
-9.30884e-09
1.29701e-08
4.70335e-09
-1.29057e-08
7.81726e-09
9.67568e-09
3.10121e-10
-3.58468e-09
-9.63115e-09
-1.12674e-09
1.08441e-08
-1.3399e-08
5.59152e-09
-9.01288e-09
-1.133e-08
8.92751e-09
3.23816e-09
-8.35754e-10
1.21726e-08
-1.79111e-08
-1.34234e-08
7.8781e-09
1.44728e-08
7.31527e-09
-8.56608e-09
-1.53239e-08
6.08872e-09
2.22053e-08
3.57769e-09
-6.08786e-09
-6.83994e-09
-9.26429e-09
2.2193e-08
8.39164e-09
-7.41432e-09
1.72613e-10
1.39097e-08
-3.29139e-09
1.09168e-08
9.46863e-09
-1.01489e-08
-8.58405e-09
2.46299e-09
-7.89382e-09
9.39741e-09
-3.96656e-09
-3.41603e-09
-6.67091e-09
1.255e-08
2.87757e-09
-1.16978e-09
-1.25678e-08
9.55221e-09
2.53552e-09
7.0809e-09
-7.23071e-09
-1.24179e-08
-7.28309e-09
-4.18524e-10
-1.92195e-10
1.16514e-09
-3.58102e-09
-5.11262e-09
7.52852e-09
-2.66448e-09
5.53161e-09
-8.47083e-09
1.13522e-08
-2.05164e-10
-1.18471e-09
1.27391e-09
-1.18768e-08
-6.17257e-09
-1.31564e-09
-8.47968e-09
4.10283e-09
-6.98982e-09
5.87247e-09
-4.21999e-09
1.0677e-08
-6.21767e-09
3.58062e-09
4.92275e-09
-7.62126e-09
-2.90375e-09
-2.39999e-09
-8.25463e-09
4.43698e-09
-9.76029e-09
3.72725e-09
3.93675e-09
-1.92819e-09
2.83434e-10
-4.6188e-09
3.51825e-09
3.45856e-09
-4.20164e-09
-2.77507e-09
6.22189e-09
-2.62629e-09
-7.73117e-11
-3.39635e-09
4.95359e-09
4.66472e-09
1.88235e-10
-1.25945e-10
5.42841e-09
-5.80128e-09
-2.25321e-09
2.35959e-09
1.08875e-09
1.98016e-09
2.03086e-09
5.28233e-09
-6.24056e-10
9.90831e-10
-4.56833e-09
8.55553e-10
-7.28083e-09
1.92951e-09
-5.06719e-09
4.2265e-09
-3.773e-09
7.73339e-09
-2.93946e-09
3.94958e-09
-8.21852e-10
1.77904e-09
-3.72763e-09
-1.5885e-09
1.42632e-08
-1.41847e-09
-1.12562e-08
9.45344e-09
-9.26288e-09
-4.80163e-09
4.97822e-09
8.83726e-10
6.04708e-09
7.33245e-09
5.53553e-09
6.84108e-09
-7.40395e-09
7.82097e-09